Protein in INSANE! Membrane UpperLeaflet>POPC=1.0 LowerLeaflet>POPC=1.0
239031
   85AUC    AUC    1  23.815  25.552   7.503
   86AUC    AUC    2  24.060  25.552   7.351
   87AUC    AUC    3  24.060  25.552   7.654
   88AUC    AUC    4  23.570  25.552   7.351
   89AUC    AUC    5  23.570  25.552   7.654
   90AUC    AUC    6  23.663  25.798   7.503
   91AUC    AUC    7  23.967  25.798   7.503
   92AUC    AUC    8  23.663  25.307   7.503
   93AUC    AUC    9  23.967  25.307   7.503
   94AUC    AUC   10  23.815  25.401   7.748
   95AUC    AUC   11  23.815  25.704   7.748
   96AUC    AUC   12  23.815  25.401   7.257
   97AUC    AUC   13  23.815  25.704   7.257
   98AUC    AUC   14  24.306  25.552   7.199
   99AUC    AUC   15  24.306  25.552   7.503
  100AUC    AUC   16  24.306  25.552   7.806
  101AUC    AUC   17  23.324  25.552   7.199
  102AUC    AUC   18  23.324  25.552   7.503
  103AUC    AUC   19  23.324  25.552   7.806
  104AUC    AUC   20  23.512  26.043   7.503
  105AUC    AUC   21  23.815  26.043   7.503
  106AUC    AUC   22  24.118  26.043   7.503
  107AUC    AUC   23  23.512  25.062   7.503
  108AUC    AUC   24  23.815  25.062   7.503
  109AUC    AUC   25  24.118  25.062   7.503
  110AUC    AUC   26  23.815  25.249   7.993
  111AUC    AUC   27  23.815  25.552   7.993
  112AUC    AUC   28  23.815  25.856   7.993
  113AUC    AUC   29  23.815  25.249   7.012
  114AUC    AUC   30  23.815  25.552   7.012
  115AUC    AUC   31  23.815  25.856   7.012
  116AUC    AUC   32  24.060  25.401   7.900
  117AUC    AUC   33  24.060  25.704   7.900
  118AUC    AUC   34  24.060  25.401   7.106
  119AUC    AUC   35  24.060  25.704   7.106
  120AUC    AUC   36  23.570  25.401   7.900
  121AUC    AUC   37  23.570  25.704   7.900
  122AUC    AUC   38  23.570  25.401   7.106
  123AUC    AUC   39  23.570  25.704   7.106
  124AUC    AUC   40  24.212  25.798   7.351
  125AUC    AUC   41  24.212  25.798   7.654
  126AUC    AUC   42  23.418  25.798   7.351
  127AUC    AUC   43  23.418  25.798   7.654
  128AUC    AUC   44  24.212  25.307   7.351
  129AUC    AUC   45  24.212  25.307   7.654
  130AUC    AUC   46  23.418  25.307   7.351
  131AUC    AUC   47  23.418  25.307   7.654
  132AUC    AUC   48  23.663  25.950   7.748
  133AUC    AUC   49  23.967  25.950   7.748
  134AUC    AUC   50  23.663  25.155   7.748
  135AUC    AUC   51  23.967  25.155   7.748
  136AUC    AUC   52  23.663  25.950   7.257
  137AUC    AUC   53  23.967  25.950   7.257
  138AUC    AUC   54  23.663  25.155   7.257
  139AUC    AUC   55  23.967  25.155   7.257
  140AUSL   AUS   56  24.224  25.552   8.083
  141AUSL   AUS   57  24.080  25.136   8.013
  142AUL    AUL   58  24.306  25.249   8.297
  143THSLK    S   59  24.190  24.949   8.153
  144ETHY    C1   60  24.226  24.550   8.368
  145ETHY    C1   61  24.336  24.120   8.665
  146ETHY    C1   62  24.514  23.756   9.000
  147ETHY    C1   63  24.748  23.460   9.364
  148ETHY    C1   64  25.034  23.243   9.752
  149ETHY    C1   65  25.365  23.110  10.156
  150THSLK    S   66  24.317  25.500   8.324
  151ETHY    C1   67  24.521  25.280   8.665
  152ETHY    C1   68  24.785  25.103   9.094
  153ETHY    C1   69  25.061  25.027   9.535
  154ETHY    C1   70  25.338  25.044   9.980
  155ETHY    C1   71  25.608  25.157  10.419
  156ETHY    C1   72  25.867  25.366  10.845
  157AUSL   AUS   73  23.979  25.401   8.176
  158AUSL   AUS   74  23.651  25.704   8.176
  159AUL    AUL   75  23.815  25.552   8.484
  160THSLK    S   76  24.054  25.346   8.413
  161ETHY    C1   77  24.118  25.066   8.765
  162ETHY    C1   78  24.221  24.811   9.223
  163ETHY    C1   79  24.348  24.652   9.708
  164ETHY    C1   80  24.490  24.583  10.208
  165ETHY    C1   81  24.644  24.611  10.713
  166ETHY    C1   82  24.804  24.735  11.212
  167THSLK    S   83  23.566  25.658   8.428
  168ETHY    C1   84  23.492  25.508   8.850
  169ETHY    C1   85  23.387  25.420   9.367
  170ETHY    C1   86  23.265  25.432   9.878
  171ETHY    C1   87  23.127  25.533  10.373
  172ETHY    C1   88  22.972  25.726  10.840
  173ETHY    C1   89  22.803  26.007  11.268
  174AUSL   AUS   90  23.979  25.704   8.176
  175AUSL   AUS   91  24.325  25.817   7.919
  176AUL    AUL   92  24.306  25.856   8.297
  177THSLK    S   93  24.064  25.760   8.410
  178ETHY    C1   94  24.138  26.041   8.759
  179ETHY    C1   95  24.243  26.296   9.217
  180ETHY    C1   96  24.365  26.455   9.703
  181ETHY    C1   97  24.504  26.524  10.204
  182ETHY    C1   98  24.658  26.497  10.708
  183ETHY    C1   99  24.827  26.373  11.206
  184THSLK    S  100  24.497  25.915   8.080
  185ETHY    C1  101  24.860  25.886   8.350
  186ETHY    C1  102  25.282  25.942   8.673
  187ETHY    C1  103  25.674  26.096   8.989
  188ETHY    C1  104  26.028  26.334   9.293
  189ETHY    C1  105  26.335  26.655   9.580
  190ETHY    C1  106  26.586  27.052   9.844
  191AUSL   AUS  107  24.224  25.552   6.923
  192AUSL   AUS  108  24.080  25.969   6.992
  193AUL    AUL  109  24.306  25.856   6.708
  194THSLK    S  110  24.326  25.500   6.687
  195ETHY    C1  111  24.539  25.280   6.351
  196ETHY    C1  112  24.804  25.103   5.923
  197ETHY    C1  113  25.076  25.027   5.479
  198ETHY    C1  114  25.350  25.044   5.033
  199ETHY    C1  115  25.621  25.157   4.594
  200ETHY    C1  116  25.886  25.366   4.173
  201THSLK    S  117  24.258  26.080   6.829
  202ETHY    C1  118  24.560  26.148   6.497
  203ETHY    C1  119  24.879  26.311   6.100
  204ETHY    C1  120  25.144  26.558   5.719
  205ETHY    C1  121  25.356  26.878   5.362
  206ETHY    C1  122  25.509  27.268   5.039
  207ETHY    C1  123  25.600  27.720   4.759
  208AUSL   AUS  124  23.979  25.401   6.829
  209AUSL   AUS  125  24.325  25.288   7.086
  210AUL    AUL  126  24.306  25.249   6.708
  211THSLK    S  127  24.458  25.096   6.949
  212ETHY    C1  128  24.641  24.729   6.752
  213ETHY    C1  129  24.913  24.357   6.483
  214ETHY    C1  130  25.238  24.068   6.186
  215ETHY    C1  131  25.604  23.861   5.874
  216ETHY    C1  132  26.008  23.742   5.555
  217ETHY    C1  133  26.441  23.717   5.235
  218THSLK    S  134  24.064  25.345   6.596
  219ETHY    C1  135  24.138  25.064   6.246
  220ETHY    C1  136  24.243  24.808   5.788
  221ETHY    C1  137  24.365  24.650   5.302
  222ETHY    C1  138  24.504  24.581   4.801
  223ETHY    C1  139  24.658  24.608   4.297
  224ETHY    C1  140  24.827  24.732   3.799
  225AUSL   AUS  141  23.979  25.704   6.829
  226AUSL   AUS  142  23.651  25.401   6.829
  227AUL    AUL  143  23.815  25.552   6.521
  228THSLK    S  144  23.559  25.345   6.597
  229ETHY    C1  145  23.424  25.067   6.264
  230ETHY    C1  146  23.263  24.814   5.822
  231ETHY    C1  147  23.111  24.657   5.343
  232ETHY    C1  148  22.975  24.588   4.842
  233ETHY    C1  149  22.858  24.614   4.328
  234ETHY    C1  150  22.765  24.733   3.810
  235THSLK    S  151  24.081  25.658   6.583
  236ETHY    C1  152  24.227  25.508   6.179
  237ETHY    C1  153  24.389  25.417   5.678
  238ETHY    C1  154  24.536  25.427   5.173
  239ETHY    C1  155  24.669  25.528   4.677
  240ETHY    C1  156  24.786  25.723   4.200
  241ETHY    C1  157  24.887  26.009   3.754
  242AUSL   AUS  158  23.406  25.552   8.083
  243AUSL   AUS  159  23.550  25.969   8.013
  244AUL    AUL  160  23.324  25.856   8.297
  245THSLK    S  161  23.304  25.500   8.319
  246ETHY    C1  162  23.092  25.280   8.654
  247ETHY    C1  163  22.826  25.103   9.082
  248ETHY    C1  164  22.554  25.027   9.526
  249ETHY    C1  165  22.280  25.044   9.973
  250ETHY    C1  166  22.009  25.157  10.411
  251ETHY    C1  167  21.744  25.366  10.832
  252THSLK    S  168  23.433  26.093   8.202
  253ETHY    C1  169  23.390  26.236   8.632
  254ETHY    C1  170  23.279  26.461   9.104
  255ETHY    C1  171  23.103  26.738   9.515
  256ETHY    C1  172  22.872  27.054   9.863
  257ETHY    C1  173  22.586  27.402  10.138
  258ETHY    C1  174  22.249  27.775  10.334
  259AUSL   AUS  175  23.651  25.401   8.176
  260AUSL   AUS  176  23.305  25.288   7.919
  261AUL    AUL  177  23.324  25.249   8.297
  262THSLK    S  178  23.128  25.125   8.026
  263ETHY    C1  179  22.757  24.868   8.082
  264ETHY    C1  180  22.335  24.580   8.237
  265ETHY    C1  181  21.945  24.325   8.482
  266ETHY    C1  182  21.593  24.108   8.803
  267ETHY    C1  183  21.287  23.937   9.198
  268ETHY    C1  184  21.030  23.816   9.657
  269THSLK    S  185  23.549  25.347   8.406
  270ETHY    C1  186  23.403  25.071   8.736
  271ETHY    C1  187  23.241  24.819   9.178
  272ETHY    C1  188  23.094  24.661   9.658
  273ETHY    C1  189  22.961  24.591  10.160
  274ETHY    C1  190  22.844  24.617  10.674
  275ETHY    C1  191  22.743  24.738  11.190
  276AUSL   AUS  192  23.406  25.552   6.923
  277AUSL   AUS  193  23.550  25.136   6.992
  278AUL    AUL  194  23.324  25.249   6.708
  279THSLK    S  195  23.313  25.500   6.681
  280ETHY    C1  196  23.109  25.280   6.341
  281ETHY    C1  197  22.845  25.103   5.911
  282ETHY    C1  198  22.569  25.027   5.470
  283ETHY    C1  199  22.292  25.044   5.025
  284ETHY    C1  200  22.022  25.157   4.586
  285ETHY    C1  201  21.763  25.366   4.161
  286THSLK    S  202  23.379  24.963   6.878
  287ETHY    C1  203  23.084  24.637   6.760
  288ETHY    C1  204  22.766  24.270   6.538
  289ETHY    C1  205  22.498  23.935   6.233
  290ETHY    C1  206  22.284  23.635   5.861
  291ETHY    C1  207  22.132  23.377   5.426
  292ETHY    C1  208  22.046  23.165   4.937
  293AUSL   AUS  209  23.651  25.704   6.829
  294AUSL   AUS  210  23.305  25.817   7.086
  295AUL    AUL  211  23.324  25.856   6.708
  296THSLK    S  212  23.178  25.944   6.895
  297ETHY    C1  213  23.001  26.025   6.484
  298ETHY    C1  214  22.730  26.165   6.046
  299ETHY    C1  215  22.403  26.353   5.679
  300ETHY    C1  216  22.034  26.582   5.385
  301ETHY    C1  217  21.632  26.849   5.173
  302ETHY    C1  218  21.203  27.151   5.047
  303THSLK    S  219  23.576  25.660   6.576
  304ETHY    C1  220  23.512  25.513   6.150
  305ETHY    C1  221  23.409  25.424   5.634
  306ETHY    C1  222  23.282  25.435   5.123
  307ETHY    C1  223  23.140  25.536   4.629
  308ETHY    C1  224  22.987  25.729   4.162
  309ETHY    C1  225  22.826  26.012   3.732
  310AUSL   AUS  226  24.395  25.961   7.503
  311AUSL   AUS  227  24.325  25.817   7.086
  312AUL    AUL  228  24.609  26.043   7.199
  313THSLK    S  229  24.503  25.916   6.934
  314ETHY    C1  230  24.873  25.889   6.671
  315ETHY    C1  231  25.295  25.945   6.349
  316ETHY    C1  232  25.685  26.099   6.030
  317ETHY    C1  233  26.037  26.336   5.724
  318ETHY    C1  234  26.344  26.657   5.438
  319ETHY    C1  235  26.600  27.056   5.179
  320THSLK    S  236  24.661  26.014   7.508
  321ETHY    C1  237  25.115  26.036   7.513
  322ETHY    C1  238  25.637  26.150   7.514
  323ETHY    C1  239  26.120  26.359   7.511
  324ETHY    C1  240  26.556  26.649   7.510
  325ETHY    C1  241  26.935  27.016   7.510
  326ETHY    C1  242  27.249  27.456   7.514
  327AUSL   AUS  243  24.489  25.716   7.351
  328AUSL   AUS  244  24.489  25.389   7.654
  329AUL    AUL  245  24.797  25.552   7.503
  330THSLK    S  246  24.745  25.755   7.350
  331ETHY    C1  247  25.181  25.647   7.286
  332ETHY    C1  248  25.707  25.609   7.201
  333ETHY    C1  249  26.222  25.673   7.113
  334ETHY    C1  250  26.716  25.827   7.026
  335ETHY    C1  251  27.176  26.072   6.945
  336ETHY    C1  252  27.595  26.404   6.873
  337THSLK    S  253  24.716  25.249   7.663
  338ETHY    C1  254  25.035  24.933   7.728
  339ETHY    C1  255  25.468  24.629   7.807
  340ETHY    C1  256  25.943  24.419   7.887
  341ETHY    C1  257  26.446  24.298   7.971
  342ETHY    C1  258  26.966  24.272   8.058
  343ETHY    C1  259  27.494  24.342   8.147
  344AUSL   AUS  260  24.489  25.716   7.654
  345AUSL   AUS  261  24.231  26.063   7.767
  346AUL    AUL  262  24.609  26.043   7.806
  347THSLK    S  263  24.414  26.177   7.926
  348ETHY    C1  264  24.797  26.295   8.140
  349ETHY    C1  265  25.215  26.518   8.388
  350ETHY    C1  266  25.574  26.823   8.622
  351ETHY    C1  267  25.871  27.196   8.840
  352ETHY    C1  268  26.096  27.630   9.038
  353ETHY    C1  269  26.243  28.118   9.215
  354THSLK    S  270  24.743  25.755   7.665
  355ETHY    C1  271  25.178  25.647   7.740
  356ETHY    C1  272  25.704  25.609   7.826
  357ETHY    C1  273  26.219  25.672   7.910
  358ETHY    C1  274  26.713  25.826   7.993
  359ETHY    C1  275  27.174  26.071   8.075
  360ETHY    C1  276  27.591  26.403   8.155
  361AUSL   AUS  277  23.235  25.961   7.503
  362AUSL   AUS  278  23.305  25.817   7.919
  363AUL    AUL  279  23.021  26.043   7.806
  364THSLK    S  280  23.172  25.936   8.109
  365ETHY    C1  281  22.989  26.008   8.519
  366ETHY    C1  282  22.717  26.148   8.957
  367ETHY    C1  283  22.392  26.339   9.324
  368ETHY    C1  284  22.026  26.570   9.619
  369ETHY    C1  285  21.623  26.837   9.831
  370ETHY    C1  286  21.189  27.133   9.956
  371THSLK    S  287  23.024  26.102   7.508
  372ETHY    C1  288  22.802  26.499   7.513
  373ETHY    C1  289  22.466  26.914   7.514
  374ETHY    C1  290  22.063  27.253   7.511
  375ETHY    C1  291  21.609  27.514   7.510
  376ETHY    C1  292  21.110  27.688   7.510
  377ETHY    C1  293  20.577  27.772   7.514
  378AUSL   AUS  294  23.141  25.716   7.351
  379AUSL   AUS  295  23.399  26.063   7.238
  380AUL    AUL  296  23.021  26.043   7.199
  381THSLK    S  297  22.914  25.831   7.303
  382ETHY    C1  298  22.595  26.031   7.049
  383ETHY    C1  299  22.162  26.237   6.813
  384ETHY    C1  300  21.687  26.403   6.661
  385ETHY    C1  301  21.184  26.532   6.590
  386ETHY    C1  302  20.664  26.622   6.605
  387ETHY    C1  303  20.136  26.670   6.708
  388THSLK    S  304  23.287  26.226   7.060
  389ETHY    C1  305  23.208  26.536   6.737
  390ETHY    C1  306  23.033  26.910   6.397
  391ETHY    C1  307  22.779  27.278   6.120
  392ETHY    C1  308  22.459  27.635   5.909
  393ETHY    C1  309  22.078  27.973   5.770
  394ETHY    C1  310  21.643  28.287   5.709
  395AUSL   AUS  311  23.141  25.716   7.654
  396AUSL   AUS  312  23.141  25.389   7.351
  397AUL    AUL  313  22.833  25.552   7.503
  398THSLK    S  314  22.887  25.316   7.394
  399ETHY    C1  315  22.452  25.298   7.524
  400ETHY    C1  316  21.926  25.238   7.597
  401ETHY    C1  317  21.411  25.134   7.578
  402ETHY    C1  318  20.917  24.991   7.477
  403ETHY    C1  319  20.457  24.808   7.294
  404ETHY    C1  320  20.039  24.588   7.034
  405THSLK    S  321  22.913  25.822   7.707
  406ETHY    C1  322  22.592  26.013   7.966
  407ETHY    C1  323  22.159  26.217   8.202
  408ETHY    C1  324  21.684  26.388   8.352
  409ETHY    C1  325  21.182  26.520   8.422
  410ETHY    C1  326  20.662  26.608   8.407
  411ETHY    C1  327  20.133  26.649   8.308
  412AUSL   AUS  328  24.395  25.143   7.503
  413AUSL   AUS  329  24.325  25.288   7.919
  414AUL    AUL  330  24.609  25.062   7.806
  415THSLK    S  331  24.606  25.002   7.508
  416ETHY    C1  332  24.828  24.606   7.513
  417ETHY    C1  333  25.164  24.191   7.514
  418ETHY    C1  334  25.567  23.852   7.511
  419ETHY    C1  335  26.021  23.591   7.510
  420ETHY    C1  336  26.520  23.417   7.510
  421ETHY    C1  337  27.053  23.333   7.514
  422THSLK    S  338  24.452  25.097   8.064
  423ETHY    C1  339  24.629  24.732   8.270
  424ETHY    C1  340  24.900  24.360   8.540
  425ETHY    C1  341  25.227  24.071   8.834
  426ETHY    C1  342  25.596  23.863   9.142
  427ETHY    C1  343  25.998  23.745   9.462
  428ETHY    C1  344  26.427  23.720   9.789
  429AUSL   AUS  345  24.489  25.389   7.351
  430AUSL   AUS  346  24.231  25.042   7.238
  431AUL    AUL  347  24.609  25.062   7.199
  432THSLK    S  348  24.717  25.249   7.353
  433ETHY    C1  349  25.038  24.932   7.298
  434ETHY    C1  350  25.471  24.629   7.221
  435ETHY    C1  351  25.946  24.419   7.136
  436ETHY    C1  352  26.448  24.298   7.048
  437ETHY    C1  353  26.968  24.271   6.963
  438ETHY    C1  354  27.497  24.342   6.881
  439THSLK    S  355  24.347  24.853   7.108
  440ETHY    C1  356  24.431  24.424   6.984
  441ETHY    C1  357  24.606  23.952   6.803
  442ETHY    C1  358  24.859  23.541   6.593
  443ETHY    C1  359  25.177  23.193   6.366
  444ETHY    C1  360  25.559  22.918   6.126
  445ETHY    C1  361  25.997  22.721   5.880
  446AUSL   AUS  362  23.235  25.143   7.503
  447AUSL   AUS  363  23.305  25.288   7.086
  448AUL    AUL  364  23.021  25.062   7.199
  449THSLK    S  365  23.134  25.117   6.978
  450ETHY    C1  366  22.770  24.852   6.921
  451ETHY    C1  367  22.348  24.562   6.766
  452ETHY    C1  368  21.956  24.310   6.521
  453ETHY    C1  369  21.602  24.097   6.200
  454ETHY    C1  370  21.295  23.924   5.806
  455ETHY    C1  371  21.044  23.797   5.346
  456THSLK    S  372  22.969  25.091   7.508
  457ETHY    C1  373  22.515  25.069   7.513
  458ETHY    C1  374  21.993  24.955   7.514
  459ETHY    C1  375  21.511  24.746   7.511
  460ETHY    C1  376  21.074  24.456   7.510
  461ETHY    C1  377  20.695  24.089   7.510
  462ETHY    C1  378  20.382  23.649   7.514
  463AUSL   AUS  379  23.141  25.389   7.654
  464AUSL   AUS  380  23.399  25.042   7.767
  465AUL    AUL  381  23.021  25.062   7.806
  466THSLK    S  382  23.211  24.902   7.878
  467ETHY    C1  383  22.824  24.665   7.893
  468ETHY    C1  384  22.406  24.345   7.982
  469ETHY    C1  385  22.048  23.996   8.149
  470ETHY    C1  386  21.753  23.632   8.382
  471ETHY    C1  387  21.528  23.261   8.683
  472ETHY    C1  388  21.377  22.890   9.045
  473THSLK    S  389  22.885  25.326   7.616
  474ETHY    C1  390  22.449  25.316   7.491
  475ETHY    C1  391  21.923  25.257   7.419
  476ETHY    C1  392  21.408  25.150   7.436
  477ETHY    C1  393  20.914  25.004   7.535
  478ETHY    C1  394  20.454  24.822   7.718
  479ETHY    C1  395  20.035  24.609   7.983
  480AUSL   AUS  396  23.815  26.132   7.912
  481AUSL   AUS  397  23.399  26.063   7.767
  482AUL    AUL  398  23.512  26.347   7.993
  483THSLK    S  399  23.283  26.219   7.952
  484ETHY    C1  400  23.199  26.521   8.280
  485ETHY    C1  401  23.024  26.894   8.621
  486ETHY    C1  402  22.771  27.265   8.895
  487ETHY    C1  403  22.453  27.624   9.105
  488ETHY    C1  404  22.071  27.962   9.244
  489ETHY    C1  405  21.633  28.270   9.309
  490THSLK    S  406  23.857  26.354   8.035
  491ETHY    C1  407  24.041  26.629   8.347
  492ETHY    C1  408  24.191  27.009   8.691
  493ETHY    C1  409  24.257  27.432   8.998
  494ETHY    C1  410  24.244  27.883   9.264
  495ETHY    C1  411  24.147  28.352   9.485
  496ETHY    C1  412  23.967  28.831   9.656
  497AUSL   AUS  413  23.663  26.226   7.666
  498AUSL   AUS  414  23.967  26.226   7.339
  499AUL    AUL  415  23.815  26.534   7.503
  500THSLK    S  416  23.706  26.470   7.776
  501ETHY    C1  417  23.850  26.864   7.951
  502ETHY    C1  418  23.937  27.358   8.137
  503ETHY    C1  419  23.925  27.859   8.294
  504ETHY    C1  420  23.824  28.357   8.425
  505ETHY    C1  421  23.632  28.838   8.527
  506ETHY    C1  422  23.352  29.293   8.600
  507THSLK    S  423  24.022  26.457   7.243
  508ETHY    C1  424  24.298  26.787   7.096
  509ETHY    C1  425  24.548  27.228   6.927
  510ETHY    C1  426  24.704  27.705   6.771
  511ETHY    C1  427  24.773  28.207   6.635
  512ETHY    C1  428  24.749  28.723   6.525
  513ETHY    C1  429  24.632  29.243   6.443
  514AUSL   AUS  430  23.967  26.226   7.666
  515AUSL   AUS  431  24.080  25.969   8.013
  516AUL    AUL  432  24.118  26.347   7.993
  517THSLK    S  433  24.251  26.077   8.183
  518ETHY    C1  434  24.546  26.142   8.523
  519ETHY    C1  435  24.864  26.304   8.920
  520ETHY    C1  436  25.132  26.553   9.298
  521ETHY    C1  437  25.346  26.875   9.653
  522ETHY    C1  438  25.498  27.263   9.976
  523ETHY    C1  439  25.584  27.713  10.262
  524THSLK    S  440  24.020  26.455   7.772
  525ETHY    C1  441  24.292  26.783   7.929
  526ETHY    C1  442  24.542  27.223   8.100
  527ETHY    C1  443  24.700  27.702   8.251
  528ETHY    C1  444  24.769  28.204   8.383
  529ETHY    C1  445  24.745  28.719   8.494
  530ETHY    C1  446  24.626  29.238   8.585
  531AUSL   AUS  447  23.815  24.972   7.912
  532AUSL   AUS  448  24.231  25.042   7.767
  533AUL    AUL  449  24.118  24.758   7.993
  534THSLK    S  450  23.768  24.722   7.989
  535ETHY    C1  451  23.578  24.326   8.103
  536ETHY    C1  452  23.427  23.848   8.289
  537ETHY    C1  453  23.364  23.383   8.528
  538ETHY    C1  454  23.379  22.941   8.809
  539ETHY    C1  455  23.475  22.534   9.132
  540ETHY    C1  456  23.650  22.171   9.489
  541THSLK    S  457  24.343  24.855   7.907
  542ETHY    C1  458  24.422  24.427   8.040
  543ETHY    C1  459  24.597  23.957   8.222
  544ETHY    C1  460  24.851  23.545   8.428
  545ETHY    C1  461  25.171  23.196   8.652
  546ETHY    C1  462  25.552  22.921   8.893
  547ETHY    C1  463  25.987  22.725   9.147
  548AUSL   AUS  464  23.663  24.879   7.666
  549AUSL   AUS  465  23.550  25.136   8.013
  550AUL    AUL  466  23.512  24.758   7.993
  551THSLK    S  467  23.608  24.643   7.745
  552ETHY    C1  468  23.333  24.284   7.788
  553ETHY    C1  469  23.082  23.819   7.869
  554ETHY    C1  470  22.926  23.329   7.981
  555ETHY    C1  471  22.857  22.830   8.122
  556ETHY    C1  472  22.881  22.330   8.292
  557ETHY    C1  473  22.998  21.842   8.489
  558THSLK    S  474  23.372  24.970   8.129
  559ETHY    C1  475  23.070  24.652   8.248
  560ETHY    C1  476  22.751  24.285   8.471
  561ETHY    C1  477  22.486  23.948   8.776
  562ETHY    C1  478  22.274  23.646   9.147
  563ETHY    C1  479  22.121  23.388   9.582
  564ETHY    C1  480  22.030  23.181  10.072
  565AUSL   AUS  481  23.967  24.879   7.666
  566AUSL   AUS  482  23.663  24.879   7.339
  567AUL    AUL  483  23.815  24.571   7.503
  568THSLK    S  484  23.610  24.640   7.270
  569ETHY    C1  485  23.338  24.278   7.236
  570ETHY    C1  486  23.088  23.813   7.157
  571ETHY    C1  487  22.931  23.324   7.041
  572ETHY    C1  488  22.861  22.825   6.896
  573ETHY    C1  489  22.885  22.326   6.727
  574ETHY    C1  490  23.004  21.835   6.538
  575THSLK    S  491  23.921  24.627   7.749
  576ETHY    C1  492  23.774  24.201   7.811
  577ETHY    C1  493  23.688  23.683   7.906
  578ETHY    C1  494  23.700  23.170   8.025
  579ETHY    C1  495  23.802  22.675   8.165
  580ETHY    C1  496  23.994  22.210   8.325
  581ETHY    C1  497  24.272  21.784   8.504
  582AUSL   AUS  498  23.815  26.132   7.094
  583AUSL   AUS  499  24.231  26.063   7.238
  584AUL    AUL  500  24.118  26.347   7.012
  585THSLK    S  501  23.862  26.359   6.977
  586ETHY    C1  502  24.052  26.638   6.674
  587ETHY    C1  503  24.203  27.019   6.330
  588ETHY    C1  504  24.267  27.439   6.021
  589ETHY    C1  505  24.251  27.889   5.752
  590ETHY    C1  506  24.155  28.359   5.532
  591ETHY    C1  507  23.980  28.842   5.366
  592THSLK    S  508  24.419  26.179   7.089
  593ETHY    C1  509  24.806  26.299   6.883
  594ETHY    C1  510  25.224  26.522   6.637
  595ETHY    C1  511  25.582  26.826   6.400
  596ETHY    C1  512  25.877  27.198   6.178
  597ETHY    C1  513  26.102  27.633   5.981
  598ETHY    C1  514  26.253  28.122   5.811
  599AUSL   AUS  515  23.663  26.226   7.339
  600AUSL   AUS  516  23.550  25.969   6.992
  601AUL    AUL  517  23.512  26.347   7.012
  602THSLK    S  518  23.709  26.473   7.239
  603ETHY    C1  519  23.856  26.870   7.074
  604ETHY    C1  520  23.942  27.364   6.889
  605ETHY    C1  521  23.930  27.865   6.727
  606ETHY    C1  522  23.828  28.361   6.593
  607ETHY    C1  523  23.636  28.842   6.492
  608ETHY    C1  524  23.358  29.300   6.427
  609THSLK    S  525  23.440  26.101   6.805
  610ETHY    C1  526  23.404  26.250   6.377
  611ETHY    C1  527  23.294  26.476   5.906
  612ETHY    C1  528  23.116  26.751   5.494
  613ETHY    C1  529  22.882  27.064   5.145
  614ETHY    C1  530  22.596  27.413   4.870
  615ETHY    C1  531  22.265  27.791   4.675
  616AUSL   AUS  532  23.815  24.972   7.094
  617AUSL   AUS  533  23.399  25.042   7.238
  618AUL    AUL  534  23.512  24.758   7.012
  619THSLK    S  535  23.216  24.894   7.134
  620ETHY    C1  536  22.833  24.650   7.124
  621ETHY    C1  537  22.415  24.329   7.035
  622ETHY    C1  538  22.056  23.983   6.866
  623ETHY    C1  539  21.759  23.622   6.631
  624ETHY    C1  540  21.534  23.250   6.331
  625ETHY    C1  541  21.387  22.873   5.974
  626THSLK    S  542  23.773  24.717   7.024
  627ETHY    C1  543  23.589  24.316   6.917
  628ETHY    C1  544  23.439  23.838   6.732
  629ETHY    C1  545  23.373  23.375   6.491
  630ETHY    C1  546  23.386  22.935   6.206
  631ETHY    C1  547  23.483  22.528   5.885
  632ETHY    C1  548  23.663  22.160   5.533
  633AUSL   AUS  549  23.967  24.879   7.339
  634AUSL   AUS  550  24.080  25.136   6.992
  635AUL    AUL  551  24.118  24.758   7.012
  636THSLK    S  552  23.924  24.625   7.266
  637ETHY    C1  553  23.780  24.197   7.213
  638ETHY    C1  554  23.693  23.678   7.120
  639ETHY    C1  555  23.705  23.166   6.997
  640ETHY    C1  556  23.806  22.672   6.854
  641ETHY    C1  557  23.998  22.207   6.695
  642ETHY    C1  558  24.278  21.779   6.523
  643THSLK    S  559  24.197  24.946   6.859
  644ETHY    C1  560  24.241  24.544   6.651
  645ETHY    C1  561  24.351  24.113   6.355
  646ETHY    C1  562  24.527  23.750   6.017
  647ETHY    C1  563  24.758  23.456   5.651
  648ETHY    C1  564  25.044  23.239   5.264
  649ETHY    C1  565  25.381  23.103   4.865
  650AUC    AUC  566  33.966  42.007   7.503
  651AUC    AUC  567  34.211  42.007   7.351
  652AUC    AUC  568  34.211  42.007   7.654
  653AUC    AUC  569  33.721  42.007   7.351
  654AUC    AUC  570  33.721  42.007   7.654
  655AUC    AUC  571  33.814  42.253   7.503
  656AUC    AUC  572  34.118  42.253   7.503
  657AUC    AUC  573  33.814  41.762   7.503
  658AUC    AUC  574  34.118  41.762   7.503
  659AUC    AUC  575  33.966  41.856   7.748
  660AUC    AUC  576  33.966  42.159   7.748
  661AUC    AUC  577  33.966  41.856   7.257
  662AUC    AUC  578  33.966  42.159   7.257
  663AUC    AUC  579  34.457  42.007   7.199
  664AUC    AUC  580  34.457  42.007   7.503
  665AUC    AUC  581  34.457  42.007   7.806
  666AUC    AUC  582  33.475  42.007   7.199
  667AUC    AUC  583  33.475  42.007   7.503
  668AUC    AUC  584  33.475  42.007   7.806
  669AUC    AUC  585  33.663  42.498   7.503
  670AUC    AUC  586  33.966  42.498   7.503
  671AUC    AUC  587  34.269  42.498   7.503
  672AUC    AUC  588  33.663  41.517   7.503
  673AUC    AUC  589  33.966  41.517   7.503
  674AUC    AUC  590  34.269  41.517   7.503
  675AUC    AUC  591  33.966  41.704   7.993
  676AUC    AUC  592  33.966  42.007   7.993
  677AUC    AUC  593  33.966  42.311   7.993
  678AUC    AUC  594  33.966  41.704   7.012
  679AUC    AUC  595  33.966  42.007   7.012
  680AUC    AUC  596  33.966  42.311   7.012
  681AUC    AUC  597  34.211  41.856   7.900
  682AUC    AUC  598  34.211  42.159   7.900
  683AUC    AUC  599  34.211  41.856   7.106
  684AUC    AUC  600  34.211  42.159   7.106
  685AUC    AUC  601  33.721  41.856   7.900
  686AUC    AUC  602  33.721  42.159   7.900
  687AUC    AUC  603  33.721  41.856   7.106
  688AUC    AUC  604  33.721  42.159   7.106
  689AUC    AUC  605  34.363  42.253   7.351
  690AUC    AUC  606  34.363  42.253   7.654
  691AUC    AUC  607  33.569  42.253   7.351
  692AUC    AUC  608  33.569  42.253   7.654
  693AUC    AUC  609  34.363  41.762   7.351
  694AUC    AUC  610  34.363  41.762   7.654
  695AUC    AUC  611  33.569  41.762   7.351
  696AUC    AUC  612  33.569  41.762   7.654
  697AUC    AUC  613  33.814  42.405   7.748
  698AUC    AUC  614  34.118  42.405   7.748
  699AUC    AUC  615  33.814  41.610   7.748
  700AUC    AUC  616  34.118  41.610   7.748
  701AUC    AUC  617  33.814  42.405   7.257
  702AUC    AUC  618  34.118  42.405   7.257
  703AUC    AUC  619  33.814  41.610   7.257
  704AUC    AUC  620  34.118  41.610   7.257
  705AUSL   AUS  621  34.375  42.007   8.083
  706AUSL   AUS  622  34.231  41.591   8.013
  707AUL    AUL  623  34.457  41.704   8.297
  708THSLK    S  624  34.341  41.404   8.153
  709ETHY    C1  625  34.377  41.005   8.368
  710ETHY    C1  626  34.487  40.575   8.665
  711ETHY    C1  627  34.665  40.211   9.000
  712ETHY    C1  628  34.899  39.915   9.364
  713ETHY    C1  629  35.185  39.698   9.752
  714ETHY    C1  630  35.516  39.565  10.156
  715THSLK    S  631  34.468  41.955   8.324
  716ETHY    C1  632  34.672  41.735   8.665
  717ETHY    C1  633  34.936  41.558   9.094
  718ETHY    C1  634  35.212  41.482   9.535
  719ETHY    C1  635  35.489  41.499   9.980
  720ETHY    C1  636  35.759  41.612  10.419
  721ETHY    C1  637  36.018  41.821  10.845
  722AUSL   AUS  638  34.130  41.856   8.176
  723AUSL   AUS  639  33.802  42.159   8.176
  724AUL    AUL  640  33.966  42.007   8.484
  725THSLK    S  641  34.205  41.801   8.413
  726ETHY    C1  642  34.269  41.521   8.765
  727ETHY    C1  643  34.372  41.266   9.223
  728ETHY    C1  644  34.499  41.107   9.708
  729ETHY    C1  645  34.641  41.038  10.208
  730ETHY    C1  646  34.795  41.066  10.713
  731ETHY    C1  647  34.955  41.190  11.212
  732THSLK    S  648  33.717  42.113   8.428
  733ETHY    C1  649  33.643  41.963   8.850
  734ETHY    C1  650  33.538  41.875   9.367
  735ETHY    C1  651  33.416  41.887   9.878
  736ETHY    C1  652  33.278  41.988  10.373
  737ETHY    C1  653  33.123  42.181  10.840
  738ETHY    C1  654  32.954  42.462  11.268
  739AUSL   AUS  655  34.130  42.159   8.176
  740AUSL   AUS  656  34.476  42.272   7.919
  741AUL    AUL  657  34.457  42.311   8.297
  742THSLK    S  658  34.215  42.215   8.410
  743ETHY    C1  659  34.289  42.496   8.759
  744ETHY    C1  660  34.394  42.751   9.217
  745ETHY    C1  661  34.516  42.910   9.703
  746ETHY    C1  662  34.655  42.979  10.204
  747ETHY    C1  663  34.809  42.952  10.708
  748ETHY    C1  664  34.978  42.828  11.206
  749THSLK    S  665  34.648  42.370   8.080
  750ETHY    C1  666  35.011  42.341   8.350
  751ETHY    C1  667  35.433  42.397   8.673
  752ETHY    C1  668  35.825  42.551   8.989
  753ETHY    C1  669  36.179  42.789   9.293
  754ETHY    C1  670  36.486  43.110   9.580
  755ETHY    C1  671  36.737  43.507   9.844
  756AUSL   AUS  672  34.375  42.007   6.923
  757AUSL   AUS  673  34.231  42.424   6.992
  758AUL    AUL  674  34.457  42.311   6.708
  759THSLK    S  675  34.477  41.955   6.687
  760ETHY    C1  676  34.690  41.735   6.351
  761ETHY    C1  677  34.955  41.558   5.923
  762ETHY    C1  678  35.227  41.482   5.479
  763ETHY    C1  679  35.501  41.499   5.033
  764ETHY    C1  680  35.772  41.612   4.594
  765ETHY    C1  681  36.037  41.821   4.173
  766THSLK    S  682  34.409  42.535   6.829
  767ETHY    C1  683  34.711  42.603   6.497
  768ETHY    C1  684  35.030  42.766   6.100
  769ETHY    C1  685  35.295  43.013   5.719
  770ETHY    C1  686  35.507  43.333   5.362
  771ETHY    C1  687  35.660  43.723   5.039
  772ETHY    C1  688  35.751  44.175   4.759
  773AUSL   AUS  689  34.130  41.856   6.829
  774AUSL   AUS  690  34.476  41.743   7.086
  775AUL    AUL  691  34.457  41.704   6.708
  776THSLK    S  692  34.609  41.551   6.949
  777ETHY    C1  693  34.792  41.184   6.752
  778ETHY    C1  694  35.064  40.812   6.483
  779ETHY    C1  695  35.389  40.523   6.186
  780ETHY    C1  696  35.755  40.316   5.874
  781ETHY    C1  697  36.159  40.197   5.555
  782ETHY    C1  698  36.592  40.172   5.235
  783THSLK    S  699  34.215  41.800   6.596
  784ETHY    C1  700  34.289  41.519   6.246
  785ETHY    C1  701  34.394  41.263   5.788
  786ETHY    C1  702  34.516  41.105   5.302
  787ETHY    C1  703  34.655  41.036   4.801
  788ETHY    C1  704  34.809  41.063   4.297
  789ETHY    C1  705  34.978  41.187   3.799
  790AUSL   AUS  706  34.130  42.159   6.829
  791AUSL   AUS  707  33.802  41.856   6.829
  792AUL    AUL  708  33.966  42.007   6.521
  793THSLK    S  709  33.710  41.800   6.597
  794ETHY    C1  710  33.575  41.522   6.264
  795ETHY    C1  711  33.414  41.269   5.822
  796ETHY    C1  712  33.262  41.112   5.343
  797ETHY    C1  713  33.126  41.043   4.842
  798ETHY    C1  714  33.009  41.069   4.328
  799ETHY    C1  715  32.916  41.188   3.810
  800THSLK    S  716  34.232  42.113   6.583
  801ETHY    C1  717  34.378  41.963   6.179
  802ETHY    C1  718  34.540  41.872   5.678
  803ETHY    C1  719  34.687  41.882   5.173
  804ETHY    C1  720  34.820  41.983   4.677
  805ETHY    C1  721  34.937  42.178   4.200
  806ETHY    C1  722  35.038  42.464   3.754
  807AUSL   AUS  723  33.557  42.007   8.083
  808AUSL   AUS  724  33.701  42.424   8.013
  809AUL    AUL  725  33.475  42.311   8.297
  810THSLK    S  726  33.455  41.955   8.319
  811ETHY    C1  727  33.243  41.735   8.654
  812ETHY    C1  728  32.977  41.558   9.082
  813ETHY    C1  729  32.705  41.482   9.526
  814ETHY    C1  730  32.431  41.499   9.973
  815ETHY    C1  731  32.160  41.612  10.411
  816ETHY    C1  732  31.895  41.821  10.832
  817THSLK    S  733  33.584  42.548   8.202
  818ETHY    C1  734  33.541  42.691   8.632
  819ETHY    C1  735  33.430  42.916   9.104
  820ETHY    C1  736  33.254  43.193   9.515
  821ETHY    C1  737  33.023  43.509   9.863
  822ETHY    C1  738  32.737  43.857  10.138
  823ETHY    C1  739  32.400  44.230  10.334
  824AUSL   AUS  740  33.802  41.856   8.176
  825AUSL   AUS  741  33.456  41.743   7.919
  826AUL    AUL  742  33.475  41.704   8.297
  827THSLK    S  743  33.279  41.580   8.026
  828ETHY    C1  744  32.908  41.323   8.082
  829ETHY    C1  745  32.486  41.035   8.237
  830ETHY    C1  746  32.096  40.780   8.482
  831ETHY    C1  747  31.744  40.563   8.803
  832ETHY    C1  748  31.438  40.392   9.198
  833ETHY    C1  749  31.181  40.271   9.657
  834THSLK    S  750  33.700  41.802   8.406
  835ETHY    C1  751  33.554  41.526   8.736
  836ETHY    C1  752  33.392  41.274   9.178
  837ETHY    C1  753  33.245  41.116   9.658
  838ETHY    C1  754  33.112  41.046  10.160
  839ETHY    C1  755  32.995  41.072  10.674
  840ETHY    C1  756  32.894  41.193  11.190
  841AUSL   AUS  757  33.557  42.007   6.923
  842AUSL   AUS  758  33.701  41.591   6.992
  843AUL    AUL  759  33.475  41.704   6.708
  844THSLK    S  760  33.464  41.955   6.681
  845ETHY    C1  761  33.260  41.735   6.341
  846ETHY    C1  762  32.996  41.558   5.911
  847ETHY    C1  763  32.720  41.482   5.470
  848ETHY    C1  764  32.443  41.499   5.025
  849ETHY    C1  765  32.173  41.612   4.586
  850ETHY    C1  766  31.914  41.821   4.161
  851THSLK    S  767  33.530  41.418   6.878
  852ETHY    C1  768  33.235  41.092   6.760
  853ETHY    C1  769  32.917  40.725   6.538
  854ETHY    C1  770  32.649  40.390   6.233
  855ETHY    C1  771  32.435  40.090   5.861
  856ETHY    C1  772  32.283  39.832   5.426
  857ETHY    C1  773  32.197  39.620   4.937
  858AUSL   AUS  774  33.802  42.159   6.829
  859AUSL   AUS  775  33.456  42.272   7.086
  860AUL    AUL  776  33.475  42.311   6.708
  861THSLK    S  777  33.329  42.399   6.895
  862ETHY    C1  778  33.152  42.480   6.484
  863ETHY    C1  779  32.881  42.620   6.046
  864ETHY    C1  780  32.554  42.808   5.679
  865ETHY    C1  781  32.185  43.037   5.385
  866ETHY    C1  782  31.783  43.304   5.173
  867ETHY    C1  783  31.354  43.606   5.047
  868THSLK    S  784  33.727  42.115   6.576
  869ETHY    C1  785  33.663  41.968   6.150
  870ETHY    C1  786  33.560  41.879   5.634
  871ETHY    C1  787  33.433  41.890   5.123
  872ETHY    C1  788  33.291  41.991   4.629
  873ETHY    C1  789  33.138  42.184   4.162
  874ETHY    C1  790  32.977  42.467   3.732
  875AUSL   AUS  791  34.546  42.416   7.503
  876AUSL   AUS  792  34.476  42.272   7.086
  877AUL    AUL  793  34.760  42.498   7.199
  878THSLK    S  794  34.654  42.371   6.934
  879ETHY    C1  795  35.024  42.344   6.671
  880ETHY    C1  796  35.446  42.400   6.349
  881ETHY    C1  797  35.836  42.554   6.030
  882ETHY    C1  798  36.188  42.791   5.724
  883ETHY    C1  799  36.495  43.112   5.438
  884ETHY    C1  800  36.751  43.511   5.179
  885THSLK    S  801  34.812  42.469   7.508
  886ETHY    C1  802  35.266  42.491   7.513
  887ETHY    C1  803  35.788  42.605   7.514
  888ETHY    C1  804  36.271  42.814   7.511
  889ETHY    C1  805  36.707  43.104   7.510
  890ETHY    C1  806  37.086  43.471   7.510
  891ETHY    C1  807  37.400  43.911   7.514
  892AUSL   AUS  808  34.640  42.171   7.351
  893AUSL   AUS  809  34.640  41.844   7.654
  894AUL    AUL  810  34.948  42.007   7.503
  895THSLK    S  811  34.896  42.210   7.350
  896ETHY    C1  812  35.332  42.102   7.286
  897ETHY    C1  813  35.858  42.064   7.201
  898ETHY    C1  814  36.373  42.128   7.113
  899ETHY    C1  815  36.867  42.282   7.026
  900ETHY    C1  816  37.327  42.527   6.945
  901ETHY    C1  817  37.746  42.859   6.873
  902THSLK    S  818  34.867  41.704   7.663
  903ETHY    C1  819  35.186  41.388   7.728
  904ETHY    C1  820  35.619  41.084   7.807
  905ETHY    C1  821  36.094  40.874   7.887
  906ETHY    C1  822  36.597  40.753   7.971
  907ETHY    C1  823  37.117  40.727   8.058
  908ETHY    C1  824  37.645  40.797   8.147
  909AUSL   AUS  825  34.640  42.171   7.654
  910AUSL   AUS  826  34.382  42.518   7.767
  911AUL    AUL  827  34.760  42.498   7.806
  912THSLK    S  828  34.565  42.632   7.926
  913ETHY    C1  829  34.948  42.750   8.140
  914ETHY    C1  830  35.366  42.973   8.388
  915ETHY    C1  831  35.725  43.278   8.622
  916ETHY    C1  832  36.022  43.651   8.840
  917ETHY    C1  833  36.247  44.085   9.038
  918ETHY    C1  834  36.394  44.573   9.215
  919THSLK    S  835  34.894  42.210   7.665
  920ETHY    C1  836  35.329  42.102   7.740
  921ETHY    C1  837  35.855  42.064   7.826
  922ETHY    C1  838  36.370  42.127   7.910
  923ETHY    C1  839  36.864  42.281   7.993
  924ETHY    C1  840  37.325  42.526   8.075
  925ETHY    C1  841  37.742  42.858   8.155
  926AUSL   AUS  842  33.386  42.416   7.503
  927AUSL   AUS  843  33.456  42.272   7.919
  928AUL    AUL  844  33.172  42.498   7.806
  929THSLK    S  845  33.323  42.391   8.109
  930ETHY    C1  846  33.140  42.463   8.519
  931ETHY    C1  847  32.868  42.603   8.957
  932ETHY    C1  848  32.543  42.794   9.324
  933ETHY    C1  849  32.177  43.025   9.619
  934ETHY    C1  850  31.774  43.292   9.831
  935ETHY    C1  851  31.340  43.588   9.956
  936THSLK    S  852  33.175  42.557   7.508
  937ETHY    C1  853  32.953  42.954   7.513
  938ETHY    C1  854  32.617  43.369   7.514
  939ETHY    C1  855  32.214  43.708   7.511
  940ETHY    C1  856  31.760  43.969   7.510
  941ETHY    C1  857  31.261  44.143   7.510
  942ETHY    C1  858  30.728  44.227   7.514
  943AUSL   AUS  859  33.292  42.171   7.351
  944AUSL   AUS  860  33.550  42.518   7.238
  945AUL    AUL  861  33.172  42.498   7.199
  946THSLK    S  862  33.065  42.286   7.303
  947ETHY    C1  863  32.746  42.486   7.049
  948ETHY    C1  864  32.313  42.692   6.813
  949ETHY    C1  865  31.838  42.858   6.661
  950ETHY    C1  866  31.335  42.987   6.590
  951ETHY    C1  867  30.815  43.077   6.605
  952ETHY    C1  868  30.287  43.125   6.708
  953THSLK    S  869  33.438  42.681   7.060
  954ETHY    C1  870  33.359  42.991   6.737
  955ETHY    C1  871  33.184  43.365   6.397
  956ETHY    C1  872  32.930  43.733   6.120
  957ETHY    C1  873  32.610  44.090   5.909
  958ETHY    C1  874  32.229  44.428   5.770
  959ETHY    C1  875  31.794  44.742   5.709
  960AUSL   AUS  876  33.292  42.171   7.654
  961AUSL   AUS  877  33.292  41.844   7.351
  962AUL    AUL  878  32.984  42.007   7.503
  963THSLK    S  879  33.038  41.771   7.394
  964ETHY    C1  880  32.603  41.753   7.524
  965ETHY    C1  881  32.077  41.693   7.597
  966ETHY    C1  882  31.562  41.589   7.578
  967ETHY    C1  883  31.068  41.446   7.477
  968ETHY    C1  884  30.608  41.263   7.294
  969ETHY    C1  885  30.190  41.043   7.034
  970THSLK    S  886  33.064  42.277   7.707
  971ETHY    C1  887  32.743  42.468   7.966
  972ETHY    C1  888  32.310  42.672   8.202
  973ETHY    C1  889  31.835  42.843   8.352
  974ETHY    C1  890  31.333  42.975   8.422
  975ETHY    C1  891  30.813  43.063   8.407
  976ETHY    C1  892  30.284  43.104   8.308
  977AUSL   AUS  893  34.546  41.598   7.503
  978AUSL   AUS  894  34.476  41.743   7.919
  979AUL    AUL  895  34.760  41.517   7.806
  980THSLK    S  896  34.757  41.457   7.508
  981ETHY    C1  897  34.979  41.061   7.513
  982ETHY    C1  898  35.315  40.646   7.514
  983ETHY    C1  899  35.718  40.307   7.511
  984ETHY    C1  900  36.172  40.046   7.510
  985ETHY    C1  901  36.671  39.872   7.510
  986ETHY    C1  902  37.204  39.788   7.514
  987THSLK    S  903  34.603  41.552   8.064
  988ETHY    C1  904  34.780  41.187   8.270
  989ETHY    C1  905  35.051  40.815   8.540
  990ETHY    C1  906  35.378  40.526   8.834
  991ETHY    C1  907  35.747  40.318   9.142
  992ETHY    C1  908  36.149  40.200   9.462
  993ETHY    C1  909  36.578  40.175   9.789
  994AUSL   AUS  910  34.640  41.844   7.351
  995AUSL   AUS  911  34.382  41.497   7.238
  996AUL    AUL  912  34.760  41.517   7.199
  997THSLK    S  913  34.868  41.704   7.353
  998ETHY    C1  914  35.189  41.387   7.298
  999ETHY    C1  915  35.622  41.084   7.221
 1000ETHY    C1  916  36.097  40.874   7.136
 1001ETHY    C1  917  36.599  40.753   7.048
 1002ETHY    C1  918  37.119  40.726   6.963
 1003ETHY    C1  919  37.648  40.797   6.881
 1004THSLK    S  920  34.498  41.308   7.108
 1005ETHY    C1  921  34.582  40.879   6.984
 1006ETHY    C1  922  34.757  40.407   6.803
 1007ETHY    C1  923  35.010  39.996   6.593
 1008ETHY    C1  924  35.328  39.648   6.366
 1009ETHY    C1  925  35.710  39.373   6.126
 1010ETHY    C1  926  36.148  39.176   5.880
 1011AUSL   AUS  927  33.386  41.598   7.503
 1012AUSL   AUS  928  33.456  41.743   7.086
 1013AUL    AUL  929  33.172  41.517   7.199
 1014THSLK    S  930  33.285  41.572   6.978
 1015ETHY    C1  931  32.921  41.307   6.921
 1016ETHY    C1  932  32.499  41.017   6.766
 1017ETHY    C1  933  32.107  40.765   6.521
 1018ETHY    C1  934  31.753  40.552   6.200
 1019ETHY    C1  935  31.446  40.379   5.806
 1020ETHY    C1  936  31.195  40.252   5.346
 1021THSLK    S  937  33.120  41.546   7.508
 1022ETHY    C1  938  32.666  41.524   7.513
 1023ETHY    C1  939  32.144  41.410   7.514
 1024ETHY    C1  940  31.662  41.201   7.511
 1025ETHY    C1  941  31.225  40.911   7.510
 1026ETHY    C1  942  30.846  40.544   7.510
 1027ETHY    C1  943  30.533  40.104   7.514
 1028AUSL   AUS  944  33.292  41.844   7.654
 1029AUSL   AUS  945  33.550  41.497   7.767
 1030AUL    AUL  946  33.172  41.517   7.806
 1031THSLK    S  947  33.362  41.357   7.878
 1032ETHY    C1  948  32.975  41.120   7.893
 1033ETHY    C1  949  32.557  40.800   7.982
 1034ETHY    C1  950  32.199  40.451   8.149
 1035ETHY    C1  951  31.904  40.087   8.382
 1036ETHY    C1  952  31.679  39.716   8.683
 1037ETHY    C1  953  31.528  39.345   9.045
 1038THSLK    S  954  33.036  41.781   7.616
 1039ETHY    C1  955  32.600  41.771   7.491
 1040ETHY    C1  956  32.074  41.712   7.419
 1041ETHY    C1  957  31.559  41.605   7.436
 1042ETHY    C1  958  31.065  41.459   7.535
 1043ETHY    C1  959  30.605  41.277   7.718
 1044ETHY    C1  960  30.186  41.064   7.983
 1045AUSL   AUS  961  33.966  42.587   7.912
 1046AUSL   AUS  962  33.550  42.518   7.767
 1047AUL    AUL  963  33.663  42.802   7.993
 1048THSLK    S  964  33.434  42.674   7.952
 1049ETHY    C1  965  33.350  42.976   8.280
 1050ETHY    C1  966  33.175  43.349   8.621
 1051ETHY    C1  967  32.922  43.720   8.895
 1052ETHY    C1  968  32.604  44.079   9.105
 1053ETHY    C1  969  32.222  44.417   9.244
 1054ETHY    C1  970  31.784  44.725   9.309
 1055THSLK    S  971  34.008  42.809   8.035
 1056ETHY    C1  972  34.192  43.084   8.347
 1057ETHY    C1  973  34.342  43.464   8.691
 1058ETHY    C1  974  34.408  43.887   8.998
 1059ETHY    C1  975  34.395  44.338   9.264
 1060ETHY    C1  976  34.298  44.807   9.485
 1061ETHY    C1  977  34.118  45.286   9.656
 1062AUSL   AUS  978  33.814  42.681   7.666
 1063AUSL   AUS  979  34.118  42.681   7.339
 1064AUL    AUL  980  33.966  42.989   7.503
 1065THSLK    S  981  33.857  42.925   7.776
 1066ETHY    C1  982  34.001  43.319   7.951
 1067ETHY    C1  983  34.088  43.813   8.137
 1068ETHY    C1  984  34.076  44.314   8.294
 1069ETHY    C1  985  33.975  44.812   8.425
 1070ETHY    C1  986  33.783  45.293   8.527
 1071ETHY    C1  987  33.503  45.748   8.600
 1072THSLK    S  988  34.173  42.912   7.243
 1073ETHY    C1  989  34.449  43.242   7.096
 1074ETHY    C1  990  34.699  43.683   6.927
 1075ETHY    C1  991  34.855  44.160   6.771
 1076ETHY    C1  992  34.924  44.662   6.635
 1077ETHY    C1  993  34.900  45.178   6.525
 1078ETHY    C1  994  34.783  45.698   6.443
 1079AUSL   AUS  995  34.118  42.681   7.666
 1080AUSL   AUS  996  34.231  42.424   8.013
 1081AUL    AUL  997  34.269  42.802   7.993
 1082THSLK    S  998  34.402  42.532   8.183
 1083ETHY    C1  999  34.697  42.597   8.523
 1084ETHY    C1 1000  35.015  42.759   8.920
 1085ETHY    C1 1001  35.283  43.008   9.298
 1086ETHY    C1 1002  35.497  43.330   9.653
 1087ETHY    C1 1003  35.649  43.718   9.976
 1088ETHY    C1 1004  35.735  44.168  10.262
 1089THSLK    S 1005  34.171  42.910   7.772
 1090ETHY    C1 1006  34.443  43.238   7.929
 1091ETHY    C1 1007  34.693  43.678   8.100
 1092ETHY    C1 1008  34.851  44.157   8.251
 1093ETHY    C1 1009  34.920  44.659   8.383
 1094ETHY    C1 1010  34.896  45.174   8.494
 1095ETHY    C1 1011  34.777  45.693   8.585
 1096AUSL   AUS 1012  33.966  41.427   7.912
 1097AUSL   AUS 1013  34.382  41.497   7.767
 1098AUL    AUL 1014  34.269  41.213   7.993
 1099THSLK    S 1015  33.919  41.177   7.989
 1100ETHY    C1 1016  33.729  40.781   8.103
 1101ETHY    C1 1017  33.578  40.303   8.289
 1102ETHY    C1 1018  33.515  39.838   8.528
 1103ETHY    C1 1019  33.530  39.396   8.809
 1104ETHY    C1 1020  33.626  38.989   9.132
 1105ETHY    C1 1021  33.801  38.626   9.489
 1106THSLK    S 1022  34.494  41.310   7.907
 1107ETHY    C1 1023  34.573  40.882   8.040
 1108ETHY    C1 1024  34.748  40.412   8.222
 1109ETHY    C1 1025  35.002  40.000   8.428
 1110ETHY    C1 1026  35.322  39.651   8.652
 1111ETHY    C1 1027  35.703  39.376   8.893
 1112ETHY    C1 1028  36.138  39.180   9.147
 1113AUSL   AUS 1029  33.814  41.334   7.666
 1114AUSL   AUS 1030  33.701  41.591   8.013
 1115AUL    AUL 1031  33.663  41.213   7.993
 1116THSLK    S 1032  33.759  41.098   7.745
 1117ETHY    C1 1033  33.484  40.739   7.788
 1118ETHY    C1 1034  33.233  40.274   7.869
 1119ETHY    C1 1035  33.077  39.784   7.981
 1120ETHY    C1 1036  33.008  39.285   8.122
 1121ETHY    C1 1037  33.032  38.785   8.292
 1122ETHY    C1 1038  33.149  38.297   8.489
 1123THSLK    S 1039  33.523  41.425   8.129
 1124ETHY    C1 1040  33.221  41.107   8.248
 1125ETHY    C1 1041  32.902  40.740   8.471
 1126ETHY    C1 1042  32.637  40.403   8.776
 1127ETHY    C1 1043  32.425  40.101   9.147
 1128ETHY    C1 1044  32.272  39.843   9.582
 1129ETHY    C1 1045  32.181  39.636  10.072
 1130AUSL   AUS 1046  34.118  41.334   7.666
 1131AUSL   AUS 1047  33.814  41.334   7.339
 1132AUL    AUL 1048  33.966  41.026   7.503
 1133THSLK    S 1049  33.761  41.095   7.270
 1134ETHY    C1 1050  33.489  40.733   7.236
 1135ETHY    C1 1051  33.239  40.268   7.157
 1136ETHY    C1 1052  33.082  39.779   7.041
 1137ETHY    C1 1053  33.012  39.280   6.896
 1138ETHY    C1 1054  33.036  38.781   6.727
 1139ETHY    C1 1055  33.155  38.290   6.538
 1140THSLK    S 1056  34.072  41.082   7.749
 1141ETHY    C1 1057  33.925  40.656   7.811
 1142ETHY    C1 1058  33.839  40.138   7.906
 1143ETHY    C1 1059  33.851  39.625   8.025
 1144ETHY    C1 1060  33.953  39.130   8.165
 1145ETHY    C1 1061  34.145  38.665   8.325
 1146ETHY    C1 1062  34.423  38.239   8.504
 1147AUSL   AUS 1063  33.966  42.587   7.094
 1148AUSL   AUS 1064  34.382  42.518   7.238
 1149AUL    AUL 1065  34.269  42.802   7.012
 1150THSLK    S 1066  34.013  42.814   6.977
 1151ETHY    C1 1067  34.203  43.093   6.674
 1152ETHY    C1 1068  34.354  43.474   6.330
 1153ETHY    C1 1069  34.418  43.894   6.021
 1154ETHY    C1 1070  34.402  44.344   5.752
 1155ETHY    C1 1071  34.306  44.814   5.532
 1156ETHY    C1 1072  34.131  45.297   5.366
 1157THSLK    S 1073  34.570  42.634   7.089
 1158ETHY    C1 1074  34.957  42.754   6.883
 1159ETHY    C1 1075  35.375  42.977   6.637
 1160ETHY    C1 1076  35.733  43.281   6.400
 1161ETHY    C1 1077  36.028  43.653   6.178
 1162ETHY    C1 1078  36.253  44.088   5.981
 1163ETHY    C1 1079  36.404  44.577   5.811
 1164AUSL   AUS 1080  33.814  42.681   7.339
 1165AUSL   AUS 1081  33.701  42.424   6.992
 1166AUL    AUL 1082  33.663  42.802   7.012
 1167THSLK    S 1083  33.860  42.928   7.239
 1168ETHY    C1 1084  34.007  43.325   7.074
 1169ETHY    C1 1085  34.093  43.819   6.889
 1170ETHY    C1 1086  34.081  44.320   6.727
 1171ETHY    C1 1087  33.979  44.816   6.593
 1172ETHY    C1 1088  33.787  45.297   6.492
 1173ETHY    C1 1089  33.509  45.755   6.427
 1174THSLK    S 1090  33.591  42.556   6.805
 1175ETHY    C1 1091  33.555  42.705   6.377
 1176ETHY    C1 1092  33.445  42.931   5.906
 1177ETHY    C1 1093  33.267  43.206   5.494
 1178ETHY    C1 1094  33.033  43.519   5.145
 1179ETHY    C1 1095  32.747  43.868   4.870
 1180ETHY    C1 1096  32.416  44.246   4.675
 1181AUSL   AUS 1097  33.966  41.427   7.094
 1182AUSL   AUS 1098  33.550  41.497   7.238
 1183AUL    AUL 1099  33.663  41.213   7.012
 1184THSLK    S 1100  33.367  41.349   7.134
 1185ETHY    C1 1101  32.984  41.105   7.124
 1186ETHY    C1 1102  32.566  40.784   7.035
 1187ETHY    C1 1103  32.207  40.438   6.866
 1188ETHY    C1 1104  31.910  40.077   6.631
 1189ETHY    C1 1105  31.685  39.705   6.331
 1190ETHY    C1 1106  31.538  39.328   5.974
 1191THSLK    S 1107  33.924  41.172   7.024
 1192ETHY    C1 1108  33.740  40.771   6.917
 1193ETHY    C1 1109  33.590  40.293   6.732
 1194ETHY    C1 1110  33.524  39.830   6.491
 1195ETHY    C1 1111  33.537  39.390   6.206
 1196ETHY    C1 1112  33.634  38.983   5.885
 1197ETHY    C1 1113  33.814  38.615   5.533
 1198AUSL   AUS 1114  34.118  41.334   7.339
 1199AUSL   AUS 1115  34.231  41.591   6.992
 1200AUL    AUL 1116  34.269  41.213   7.012
 1201THSLK    S 1117  34.075  41.080   7.266
 1202ETHY    C1 1118  33.931  40.652   7.213
 1203ETHY    C1 1119  33.844  40.133   7.120
 1204ETHY    C1 1120  33.856  39.621   6.997
 1205ETHY    C1 1121  33.957  39.127   6.854
 1206ETHY    C1 1122  34.149  38.662   6.695
 1207ETHY    C1 1123  34.429  38.234   6.523
 1208THSLK    S 1124  34.348  41.401   6.859
 1209ETHY    C1 1125  34.392  40.999   6.651
 1210ETHY    C1 1126  34.502  40.568   6.355
 1211ETHY    C1 1127  34.678  40.205   6.017
 1212ETHY    C1 1128  34.909  39.911   5.651
 1213ETHY    C1 1129  35.195  39.694   5.264
 1214ETHY    C1 1130  35.532  39.558   4.865
 1215AUC    AUC 1131  18.543  20.487   7.503
 1216AUC    AUC 1132  18.788  20.487   7.351
 1217AUC    AUC 1133  18.788  20.487   7.654
 1218AUC    AUC 1134  18.298  20.487   7.351
 1219AUC    AUC 1135  18.298  20.487   7.654
 1220AUC    AUC 1136  18.391  20.733   7.503
 1221AUC    AUC 1137  18.695  20.733   7.503
 1222AUC    AUC 1138  18.391  20.242   7.503
 1223AUC    AUC 1139  18.695  20.242   7.503
 1224AUC    AUC 1140  18.543  20.336   7.748
 1225AUC    AUC 1141  18.543  20.639   7.748
 1226AUC    AUC 1142  18.543  20.336   7.257
 1227AUC    AUC 1143  18.543  20.639   7.257
 1228AUC    AUC 1144  19.034  20.487   7.199
 1229AUC    AUC 1145  19.034  20.487   7.503
 1230AUC    AUC 1146  19.034  20.487   7.806
 1231AUC    AUC 1147  18.052  20.487   7.199
 1232AUC    AUC 1148  18.052  20.487   7.503
 1233AUC    AUC 1149  18.052  20.487   7.806
 1234AUC    AUC 1150  18.240  20.978   7.503
 1235AUC    AUC 1151  18.543  20.978   7.503
 1236AUC    AUC 1152  18.846  20.978   7.503
 1237AUC    AUC 1153  18.240  19.997   7.503
 1238AUC    AUC 1154  18.543  19.997   7.503
 1239AUC    AUC 1155  18.846  19.997   7.503
 1240AUC    AUC 1156  18.543  20.184   7.993
 1241AUC    AUC 1157  18.543  20.487   7.993
 1242AUC    AUC 1158  18.543  20.791   7.993
 1243AUC    AUC 1159  18.543  20.184   7.012
 1244AUC    AUC 1160  18.543  20.487   7.012
 1245AUC    AUC 1161  18.543  20.791   7.012
 1246AUC    AUC 1162  18.788  20.336   7.900
 1247AUC    AUC 1163  18.788  20.639   7.900
 1248AUC    AUC 1164  18.788  20.336   7.106
 1249AUC    AUC 1165  18.788  20.639   7.106
 1250AUC    AUC 1166  18.298  20.336   7.900
 1251AUC    AUC 1167  18.298  20.639   7.900
 1252AUC    AUC 1168  18.298  20.336   7.106
 1253AUC    AUC 1169  18.298  20.639   7.106
 1254AUC    AUC 1170  18.940  20.733   7.351
 1255AUC    AUC 1171  18.940  20.733   7.654
 1256AUC    AUC 1172  18.146  20.733   7.351
 1257AUC    AUC 1173  18.146  20.733   7.654
 1258AUC    AUC 1174  18.940  20.242   7.351
 1259AUC    AUC 1175  18.940  20.242   7.654
 1260AUC    AUC 1176  18.146  20.242   7.351
 1261AUC    AUC 1177  18.146  20.242   7.654
 1262AUC    AUC 1178  18.391  20.885   7.748
 1263AUC    AUC 1179  18.695  20.885   7.748
 1264AUC    AUC 1180  18.391  20.090   7.748
 1265AUC    AUC 1181  18.695  20.090   7.748
 1266AUC    AUC 1182  18.391  20.885   7.257
 1267AUC    AUC 1183  18.695  20.885   7.257
 1268AUC    AUC 1184  18.391  20.090   7.257
 1269AUC    AUC 1185  18.695  20.090   7.257
 1270AUSL   AUS 1186  18.952  20.487   8.083
 1271AUSL   AUS 1187  18.808  20.071   8.013
 1272AUL    AUL 1188  19.034  20.184   8.297
 1273THSLK    S 1189  18.918  19.884   8.153
 1274ETHY    C1 1190  18.954  19.485   8.368
 1275ETHY    C1 1191  19.064  19.055   8.665
 1276ETHY    C1 1192  19.242  18.691   9.000
 1277ETHY    C1 1193  19.476  18.395   9.364
 1278ETHY    C1 1194  19.762  18.178   9.752
 1279ETHY    C1 1195  20.093  18.045  10.156
 1280THSLK    S 1196  19.045  20.435   8.324
 1281ETHY    C1 1197  19.249  20.215   8.665
 1282ETHY    C1 1198  19.513  20.038   9.094
 1283ETHY    C1 1199  19.789  19.962   9.535
 1284ETHY    C1 1200  20.066  19.979   9.980
 1285ETHY    C1 1201  20.336  20.092  10.419
 1286ETHY    C1 1202  20.595  20.301  10.845
 1287AUSL   AUS 1203  18.707  20.336   8.176
 1288AUSL   AUS 1204  18.379  20.639   8.176
 1289AUL    AUL 1205  18.543  20.487   8.484
 1290THSLK    S 1206  18.782  20.281   8.413
 1291ETHY    C1 1207  18.846  20.001   8.765
 1292ETHY    C1 1208  18.949  19.746   9.223
 1293ETHY    C1 1209  19.076  19.587   9.708
 1294ETHY    C1 1210  19.218  19.518  10.208
 1295ETHY    C1 1211  19.372  19.546  10.713
 1296ETHY    C1 1212  19.532  19.670  11.212
 1297THSLK    S 1213  18.294  20.593   8.428
 1298ETHY    C1 1214  18.220  20.443   8.850
 1299ETHY    C1 1215  18.115  20.355   9.367
 1300ETHY    C1 1216  17.993  20.367   9.878
 1301ETHY    C1 1217  17.855  20.468  10.373
 1302ETHY    C1 1218  17.700  20.661  10.840
 1303ETHY    C1 1219  17.531  20.942  11.268
 1304AUSL   AUS 1220  18.707  20.639   8.176
 1305AUSL   AUS 1221  19.053  20.752   7.919
 1306AUL    AUL 1222  19.034  20.791   8.297
 1307THSLK    S 1223  18.792  20.695   8.410
 1308ETHY    C1 1224  18.866  20.976   8.759
 1309ETHY    C1 1225  18.971  21.231   9.217
 1310ETHY    C1 1226  19.093  21.390   9.703
 1311ETHY    C1 1227  19.232  21.459  10.204
 1312ETHY    C1 1228  19.386  21.432  10.708
 1313ETHY    C1 1229  19.555  21.308  11.206
 1314THSLK    S 1230  19.225  20.850   8.080
 1315ETHY    C1 1231  19.588  20.821   8.350
 1316ETHY    C1 1232  20.010  20.877   8.673
 1317ETHY    C1 1233  20.402  21.031   8.989
 1318ETHY    C1 1234  20.756  21.269   9.293
 1319ETHY    C1 1235  21.063  21.590   9.580
 1320ETHY    C1 1236  21.314  21.987   9.844
 1321AUSL   AUS 1237  18.952  20.487   6.923
 1322AUSL   AUS 1238  18.808  20.904   6.992
 1323AUL    AUL 1239  19.034  20.791   6.708
 1324THSLK    S 1240  19.054  20.435   6.687
 1325ETHY    C1 1241  19.267  20.215   6.351
 1326ETHY    C1 1242  19.532  20.038   5.923
 1327ETHY    C1 1243  19.804  19.962   5.479
 1328ETHY    C1 1244  20.078  19.979   5.033
 1329ETHY    C1 1245  20.349  20.092   4.594
 1330ETHY    C1 1246  20.614  20.301   4.173
 1331THSLK    S 1247  18.986  21.015   6.829
 1332ETHY    C1 1248  19.288  21.083   6.497
 1333ETHY    C1 1249  19.607  21.246   6.100
 1334ETHY    C1 1250  19.872  21.493   5.719
 1335ETHY    C1 1251  20.084  21.813   5.362
 1336ETHY    C1 1252  20.237  22.203   5.039
 1337ETHY    C1 1253  20.328  22.655   4.759
 1338AUSL   AUS 1254  18.707  20.336   6.829
 1339AUSL   AUS 1255  19.053  20.223   7.086
 1340AUL    AUL 1256  19.034  20.184   6.708
 1341THSLK    S 1257  19.186  20.031   6.949
 1342ETHY    C1 1258  19.369  19.664   6.752
 1343ETHY    C1 1259  19.641  19.292   6.483
 1344ETHY    C1 1260  19.966  19.003   6.186
 1345ETHY    C1 1261  20.332  18.796   5.874
 1346ETHY    C1 1262  20.736  18.677   5.555
 1347ETHY    C1 1263  21.169  18.652   5.235
 1348THSLK    S 1264  18.792  20.280   6.596
 1349ETHY    C1 1265  18.866  19.999   6.246
 1350ETHY    C1 1266  18.971  19.743   5.788
 1351ETHY    C1 1267  19.093  19.585   5.302
 1352ETHY    C1 1268  19.232  19.516   4.801
 1353ETHY    C1 1269  19.386  19.543   4.297
 1354ETHY    C1 1270  19.555  19.667   3.799
 1355AUSL   AUS 1271  18.707  20.639   6.829
 1356AUSL   AUS 1272  18.379  20.336   6.829
 1357AUL    AUL 1273  18.543  20.487   6.521
 1358THSLK    S 1274  18.287  20.280   6.597
 1359ETHY    C1 1275  18.152  20.002   6.264
 1360ETHY    C1 1276  17.991  19.749   5.822
 1361ETHY    C1 1277  17.839  19.592   5.343
 1362ETHY    C1 1278  17.703  19.523   4.842
 1363ETHY    C1 1279  17.586  19.549   4.328
 1364ETHY    C1 1280  17.493  19.668   3.810
 1365THSLK    S 1281  18.809  20.593   6.583
 1366ETHY    C1 1282  18.955  20.443   6.179
 1367ETHY    C1 1283  19.117  20.352   5.678
 1368ETHY    C1 1284  19.264  20.362   5.173
 1369ETHY    C1 1285  19.397  20.463   4.677
 1370ETHY    C1 1286  19.514  20.658   4.200
 1371ETHY    C1 1287  19.615  20.944   3.754
 1372AUSL   AUS 1288  18.134  20.487   8.083
 1373AUSL   AUS 1289  18.278  20.904   8.013
 1374AUL    AUL 1290  18.052  20.791   8.297
 1375THSLK    S 1291  18.032  20.435   8.319
 1376ETHY    C1 1292  17.820  20.215   8.654
 1377ETHY    C1 1293  17.554  20.038   9.082
 1378ETHY    C1 1294  17.282  19.962   9.526
 1379ETHY    C1 1295  17.008  19.979   9.973
 1380ETHY    C1 1296  16.737  20.092  10.411
 1381ETHY    C1 1297  16.472  20.301  10.832
 1382THSLK    S 1298  18.161  21.028   8.202
 1383ETHY    C1 1299  18.118  21.171   8.632
 1384ETHY    C1 1300  18.007  21.396   9.104
 1385ETHY    C1 1301  17.831  21.673   9.515
 1386ETHY    C1 1302  17.600  21.989   9.863
 1387ETHY    C1 1303  17.314  22.337  10.138
 1388ETHY    C1 1304  16.977  22.710  10.334
 1389AUSL   AUS 1305  18.379  20.336   8.176
 1390AUSL   AUS 1306  18.033  20.223   7.919
 1391AUL    AUL 1307  18.052  20.184   8.297
 1392THSLK    S 1308  17.856  20.060   8.026
 1393ETHY    C1 1309  17.485  19.803   8.082
 1394ETHY    C1 1310  17.063  19.515   8.237
 1395ETHY    C1 1311  16.673  19.260   8.482
 1396ETHY    C1 1312  16.321  19.043   8.803
 1397ETHY    C1 1313  16.015  18.872   9.198
 1398ETHY    C1 1314  15.758  18.751   9.657
 1399THSLK    S 1315  18.277  20.282   8.406
 1400ETHY    C1 1316  18.131  20.006   8.736
 1401ETHY    C1 1317  17.969  19.754   9.178
 1402ETHY    C1 1318  17.822  19.596   9.658
 1403ETHY    C1 1319  17.689  19.526  10.160
 1404ETHY    C1 1320  17.572  19.552  10.674
 1405ETHY    C1 1321  17.471  19.673  11.190
 1406AUSL   AUS 1322  18.134  20.487   6.923
 1407AUSL   AUS 1323  18.278  20.071   6.992
 1408AUL    AUL 1324  18.052  20.184   6.708
 1409THSLK    S 1325  18.041  20.435   6.681
 1410ETHY    C1 1326  17.837  20.215   6.341
 1411ETHY    C1 1327  17.573  20.038   5.911
 1412ETHY    C1 1328  17.297  19.962   5.470
 1413ETHY    C1 1329  17.020  19.979   5.025
 1414ETHY    C1 1330  16.750  20.092   4.586
 1415ETHY    C1 1331  16.491  20.301   4.161
 1416THSLK    S 1332  18.107  19.898   6.878
 1417ETHY    C1 1333  17.812  19.572   6.760
 1418ETHY    C1 1334  17.494  19.205   6.538
 1419ETHY    C1 1335  17.226  18.870   6.233
 1420ETHY    C1 1336  17.012  18.570   5.861
 1421ETHY    C1 1337  16.860  18.312   5.426
 1422ETHY    C1 1338  16.774  18.100   4.937
 1423AUSL   AUS 1339  18.379  20.639   6.829
 1424AUSL   AUS 1340  18.033  20.752   7.086
 1425AUL    AUL 1341  18.052  20.791   6.708
 1426THSLK    S 1342  17.906  20.879   6.895
 1427ETHY    C1 1343  17.729  20.960   6.484
 1428ETHY    C1 1344  17.458  21.100   6.046
 1429ETHY    C1 1345  17.131  21.288   5.679
 1430ETHY    C1 1346  16.762  21.517   5.385
 1431ETHY    C1 1347  16.360  21.784   5.173
 1432ETHY    C1 1348  15.931  22.086   5.047
 1433THSLK    S 1349  18.304  20.595   6.576
 1434ETHY    C1 1350  18.240  20.448   6.150
 1435ETHY    C1 1351  18.137  20.359   5.634
 1436ETHY    C1 1352  18.010  20.370   5.123
 1437ETHY    C1 1353  17.868  20.471   4.629
 1438ETHY    C1 1354  17.715  20.664   4.162
 1439ETHY    C1 1355  17.554  20.947   3.732
 1440AUSL   AUS 1356  19.123  20.896   7.503
 1441AUSL   AUS 1357  19.053  20.752   7.086
 1442AUL    AUL 1358  19.337  20.978   7.199
 1443THSLK    S 1359  19.231  20.851   6.934
 1444ETHY    C1 1360  19.601  20.824   6.671
 1445ETHY    C1 1361  20.023  20.880   6.349
 1446ETHY    C1 1362  20.413  21.034   6.030
 1447ETHY    C1 1363  20.765  21.271   5.724
 1448ETHY    C1 1364  21.072  21.592   5.438
 1449ETHY    C1 1365  21.328  21.991   5.179
 1450THSLK    S 1366  19.389  20.949   7.508
 1451ETHY    C1 1367  19.843  20.971   7.513
 1452ETHY    C1 1368  20.365  21.085   7.514
 1453ETHY    C1 1369  20.848  21.294   7.511
 1454ETHY    C1 1370  21.284  21.584   7.510
 1455ETHY    C1 1371  21.663  21.951   7.510
 1456ETHY    C1 1372  21.977  22.391   7.514
 1457AUSL   AUS 1373  19.217  20.651   7.351
 1458AUSL   AUS 1374  19.217  20.324   7.654
 1459AUL    AUL 1375  19.525  20.487   7.503
 1460THSLK    S 1376  19.473  20.690   7.350
 1461ETHY    C1 1377  19.909  20.582   7.286
 1462ETHY    C1 1378  20.435  20.544   7.201
 1463ETHY    C1 1379  20.950  20.608   7.113
 1464ETHY    C1 1380  21.444  20.762   7.026
 1465ETHY    C1 1381  21.904  21.007   6.945
 1466ETHY    C1 1382  22.323  21.339   6.873
 1467THSLK    S 1383  19.444  20.184   7.663
 1468ETHY    C1 1384  19.763  19.868   7.728
 1469ETHY    C1 1385  20.196  19.564   7.807
 1470ETHY    C1 1386  20.671  19.354   7.887
 1471ETHY    C1 1387  21.174  19.233   7.971
 1472ETHY    C1 1388  21.694  19.207   8.058
 1473ETHY    C1 1389  22.222  19.277   8.147
 1474AUSL   AUS 1390  19.217  20.651   7.654
 1475AUSL   AUS 1391  18.959  20.998   7.767
 1476AUL    AUL 1392  19.337  20.978   7.806
 1477THSLK    S 1393  19.142  21.112   7.926
 1478ETHY    C1 1394  19.525  21.230   8.140
 1479ETHY    C1 1395  19.943  21.453   8.388
 1480ETHY    C1 1396  20.302  21.758   8.622
 1481ETHY    C1 1397  20.599  22.131   8.840
 1482ETHY    C1 1398  20.824  22.565   9.038
 1483ETHY    C1 1399  20.971  23.053   9.215
 1484THSLK    S 1400  19.471  20.690   7.665
 1485ETHY    C1 1401  19.906  20.582   7.740
 1486ETHY    C1 1402  20.432  20.544   7.826
 1487ETHY    C1 1403  20.947  20.607   7.910
 1488ETHY    C1 1404  21.441  20.761   7.993
 1489ETHY    C1 1405  21.902  21.006   8.075
 1490ETHY    C1 1406  22.319  21.338   8.155
 1491AUSL   AUS 1407  17.963  20.896   7.503
 1492AUSL   AUS 1408  18.033  20.752   7.919
 1493AUL    AUL 1409  17.749  20.978   7.806
 1494THSLK    S 1410  17.900  20.871   8.109
 1495ETHY    C1 1411  17.717  20.943   8.519
 1496ETHY    C1 1412  17.445  21.083   8.957
 1497ETHY    C1 1413  17.120  21.274   9.324
 1498ETHY    C1 1414  16.754  21.505   9.619
 1499ETHY    C1 1415  16.351  21.772   9.831
 1500ETHY    C1 1416  15.917  22.068   9.956
 1501THSLK    S 1417  17.752  21.037   7.508
 1502ETHY    C1 1418  17.530  21.434   7.513
 1503ETHY    C1 1419  17.194  21.849   7.514
 1504ETHY    C1 1420  16.791  22.188   7.511
 1505ETHY    C1 1421  16.337  22.449   7.510
 1506ETHY    C1 1422  15.838  22.623   7.510
 1507ETHY    C1 1423  15.305  22.707   7.514
 1508AUSL   AUS 1424  17.869  20.651   7.351
 1509AUSL   AUS 1425  18.127  20.998   7.238
 1510AUL    AUL 1426  17.749  20.978   7.199
 1511THSLK    S 1427  17.642  20.766   7.303
 1512ETHY    C1 1428  17.323  20.966   7.049
 1513ETHY    C1 1429  16.890  21.172   6.813
 1514ETHY    C1 1430  16.415  21.338   6.661
 1515ETHY    C1 1431  15.912  21.467   6.590
 1516ETHY    C1 1432  15.392  21.557   6.605
 1517ETHY    C1 1433  14.864  21.605   6.708
 1518THSLK    S 1434  18.015  21.161   7.060
 1519ETHY    C1 1435  17.936  21.471   6.737
 1520ETHY    C1 1436  17.761  21.845   6.397
 1521ETHY    C1 1437  17.507  22.213   6.120
 1522ETHY    C1 1438  17.187  22.570   5.909
 1523ETHY    C1 1439  16.806  22.908   5.770
 1524ETHY    C1 1440  16.371  23.222   5.709
 1525AUSL   AUS 1441  17.869  20.651   7.654
 1526AUSL   AUS 1442  17.869  20.324   7.351
 1527AUL    AUL 1443  17.561  20.487   7.503
 1528THSLK    S 1444  17.615  20.251   7.394
 1529ETHY    C1 1445  17.180  20.233   7.524
 1530ETHY    C1 1446  16.654  20.173   7.597
 1531ETHY    C1 1447  16.139  20.069   7.578
 1532ETHY    C1 1448  15.645  19.926   7.477
 1533ETHY    C1 1449  15.185  19.743   7.294
 1534ETHY    C1 1450  14.767  19.523   7.034
 1535THSLK    S 1451  17.641  20.757   7.707
 1536ETHY    C1 1452  17.320  20.948   7.966
 1537ETHY    C1 1453  16.887  21.152   8.202
 1538ETHY    C1 1454  16.412  21.323   8.352
 1539ETHY    C1 1455  15.910  21.455   8.422
 1540ETHY    C1 1456  15.390  21.543   8.407
 1541ETHY    C1 1457  14.861  21.584   8.308
 1542AUSL   AUS 1458  19.123  20.078   7.503
 1543AUSL   AUS 1459  19.053  20.223   7.919
 1544AUL    AUL 1460  19.337  19.997   7.806
 1545THSLK    S 1461  19.334  19.937   7.508
 1546ETHY    C1 1462  19.556  19.541   7.513
 1547ETHY    C1 1463  19.892  19.126   7.514
 1548ETHY    C1 1464  20.295  18.787   7.511
 1549ETHY    C1 1465  20.749  18.526   7.510
 1550ETHY    C1 1466  21.248  18.352   7.510
 1551ETHY    C1 1467  21.781  18.268   7.514
 1552THSLK    S 1468  19.180  20.032   8.064
 1553ETHY    C1 1469  19.357  19.667   8.270
 1554ETHY    C1 1470  19.628  19.295   8.540
 1555ETHY    C1 1471  19.955  19.006   8.834
 1556ETHY    C1 1472  20.324  18.798   9.142
 1557ETHY    C1 1473  20.726  18.680   9.462
 1558ETHY    C1 1474  21.155  18.655   9.789
 1559AUSL   AUS 1475  19.217  20.324   7.351
 1560AUSL   AUS 1476  18.959  19.977   7.238
 1561AUL    AUL 1477  19.337  19.997   7.199
 1562THSLK    S 1478  19.445  20.184   7.353
 1563ETHY    C1 1479  19.766  19.867   7.298
 1564ETHY    C1 1480  20.199  19.564   7.221
 1565ETHY    C1 1481  20.674  19.354   7.136
 1566ETHY    C1 1482  21.176  19.233   7.048
 1567ETHY    C1 1483  21.696  19.206   6.963
 1568ETHY    C1 1484  22.225  19.277   6.881
 1569THSLK    S 1485  19.075  19.788   7.108
 1570ETHY    C1 1486  19.159  19.359   6.984
 1571ETHY    C1 1487  19.334  18.887   6.803
 1572ETHY    C1 1488  19.587  18.476   6.593
 1573ETHY    C1 1489  19.905  18.128   6.366
 1574ETHY    C1 1490  20.287  17.853   6.126
 1575ETHY    C1 1491  20.725  17.656   5.880
 1576AUSL   AUS 1492  17.963  20.078   7.503
 1577AUSL   AUS 1493  18.033  20.223   7.086
 1578AUL    AUL 1494  17.749  19.997   7.199
 1579THSLK    S 1495  17.862  20.052   6.978
 1580ETHY    C1 1496  17.498  19.787   6.921
 1581ETHY    C1 1497  17.076  19.497   6.766
 1582ETHY    C1 1498  16.684  19.245   6.521
 1583ETHY    C1 1499  16.330  19.032   6.200
 1584ETHY    C1 1500  16.023  18.859   5.806
 1585ETHY    C1 1501  15.772  18.732   5.346
 1586THSLK    S 1502  17.697  20.026   7.508
 1587ETHY    C1 1503  17.243  20.004   7.513
 1588ETHY    C1 1504  16.721  19.890   7.514
 1589ETHY    C1 1505  16.239  19.681   7.511
 1590ETHY    C1 1506  15.802  19.391   7.510
 1591ETHY    C1 1507  15.423  19.024   7.510
 1592ETHY    C1 1508  15.110  18.584   7.514
 1593AUSL   AUS 1509  17.869  20.324   7.654
 1594AUSL   AUS 1510  18.127  19.977   7.767
 1595AUL    AUL 1511  17.749  19.997   7.806
 1596THSLK    S 1512  17.939  19.837   7.878
 1597ETHY    C1 1513  17.552  19.600   7.893
 1598ETHY    C1 1514  17.134  19.280   7.982
 1599ETHY    C1 1515  16.776  18.931   8.149
 1600ETHY    C1 1516  16.481  18.567   8.382
 1601ETHY    C1 1517  16.256  18.196   8.683
 1602ETHY    C1 1518  16.105  17.825   9.045
 1603THSLK    S 1519  17.613  20.261   7.616
 1604ETHY    C1 1520  17.177  20.251   7.491
 1605ETHY    C1 1521  16.651  20.192   7.419
 1606ETHY    C1 1522  16.136  20.085   7.436
 1607ETHY    C1 1523  15.642  19.939   7.535
 1608ETHY    C1 1524  15.182  19.757   7.718
 1609ETHY    C1 1525  14.763  19.544   7.983
 1610AUSL   AUS 1526  18.543  21.067   7.912
 1611AUSL   AUS 1527  18.127  20.998   7.767
 1612AUL    AUL 1528  18.240  21.282   7.993
 1613THSLK    S 1529  18.011  21.154   7.952
 1614ETHY    C1 1530  17.927  21.456   8.280
 1615ETHY    C1 1531  17.752  21.829   8.621
 1616ETHY    C1 1532  17.499  22.200   8.895
 1617ETHY    C1 1533  17.181  22.559   9.105
 1618ETHY    C1 1534  16.799  22.897   9.244
 1619ETHY    C1 1535  16.361  23.205   9.309
 1620THSLK    S 1536  18.585  21.289   8.035
 1621ETHY    C1 1537  18.769  21.564   8.347
 1622ETHY    C1 1538  18.919  21.944   8.691
 1623ETHY    C1 1539  18.985  22.367   8.998
 1624ETHY    C1 1540  18.972  22.818   9.264
 1625ETHY    C1 1541  18.875  23.287   9.485
 1626ETHY    C1 1542  18.695  23.766   9.656
 1627AUSL   AUS 1543  18.391  21.161   7.666
 1628AUSL   AUS 1544  18.695  21.161   7.339
 1629AUL    AUL 1545  18.543  21.469   7.503
 1630THSLK    S 1546  18.434  21.405   7.776
 1631ETHY    C1 1547  18.578  21.799   7.951
 1632ETHY    C1 1548  18.665  22.293   8.137
 1633ETHY    C1 1549  18.653  22.794   8.294
 1634ETHY    C1 1550  18.552  23.292   8.425
 1635ETHY    C1 1551  18.360  23.773   8.527
 1636ETHY    C1 1552  18.080  24.228   8.600
 1637THSLK    S 1553  18.750  21.392   7.243
 1638ETHY    C1 1554  19.026  21.722   7.096
 1639ETHY    C1 1555  19.276  22.163   6.927
 1640ETHY    C1 1556  19.432  22.640   6.771
 1641ETHY    C1 1557  19.501  23.142   6.635
 1642ETHY    C1 1558  19.477  23.658   6.525
 1643ETHY    C1 1559  19.360  24.178   6.443
 1644AUSL   AUS 1560  18.695  21.161   7.666
 1645AUSL   AUS 1561  18.808  20.904   8.013
 1646AUL    AUL 1562  18.846  21.282   7.993
 1647THSLK    S 1563  18.979  21.012   8.183
 1648ETHY    C1 1564  19.274  21.077   8.523
 1649ETHY    C1 1565  19.592  21.239   8.920
 1650ETHY    C1 1566  19.860  21.488   9.298
 1651ETHY    C1 1567  20.074  21.810   9.653
 1652ETHY    C1 1568  20.226  22.198   9.976
 1653ETHY    C1 1569  20.312  22.648  10.262
 1654THSLK    S 1570  18.748  21.390   7.772
 1655ETHY    C1 1571  19.020  21.718   7.929
 1656ETHY    C1 1572  19.270  22.158   8.100
 1657ETHY    C1 1573  19.428  22.637   8.251
 1658ETHY    C1 1574  19.497  23.139   8.383
 1659ETHY    C1 1575  19.473  23.654   8.494
 1660ETHY    C1 1576  19.354  24.173   8.585
 1661AUSL   AUS 1577  18.543  19.907   7.912
 1662AUSL   AUS 1578  18.959  19.977   7.767
 1663AUL    AUL 1579  18.846  19.693   7.993
 1664THSLK    S 1580  18.496  19.657   7.989
 1665ETHY    C1 1581  18.306  19.261   8.103
 1666ETHY    C1 1582  18.155  18.783   8.289
 1667ETHY    C1 1583  18.092  18.318   8.528
 1668ETHY    C1 1584  18.107  17.876   8.809
 1669ETHY    C1 1585  18.203  17.469   9.132
 1670ETHY    C1 1586  18.378  17.106   9.489
 1671THSLK    S 1587  19.071  19.790   7.907
 1672ETHY    C1 1588  19.150  19.362   8.040
 1673ETHY    C1 1589  19.325  18.892   8.222
 1674ETHY    C1 1590  19.579  18.480   8.428
 1675ETHY    C1 1591  19.899  18.131   8.652
 1676ETHY    C1 1592  20.280  17.856   8.893
 1677ETHY    C1 1593  20.715  17.660   9.147
 1678AUSL   AUS 1594  18.391  19.814   7.666
 1679AUSL   AUS 1595  18.278  20.071   8.013
 1680AUL    AUL 1596  18.240  19.693   7.993
 1681THSLK    S 1597  18.336  19.578   7.745
 1682ETHY    C1 1598  18.061  19.219   7.788
 1683ETHY    C1 1599  17.810  18.754   7.869
 1684ETHY    C1 1600  17.654  18.264   7.981
 1685ETHY    C1 1601  17.585  17.765   8.122
 1686ETHY    C1 1602  17.609  17.265   8.292
 1687ETHY    C1 1603  17.726  16.777   8.489
 1688THSLK    S 1604  18.100  19.905   8.129
 1689ETHY    C1 1605  17.798  19.587   8.248
 1690ETHY    C1 1606  17.479  19.220   8.471
 1691ETHY    C1 1607  17.214  18.883   8.776
 1692ETHY    C1 1608  17.002  18.581   9.147
 1693ETHY    C1 1609  16.849  18.323   9.582
 1694ETHY    C1 1610  16.758  18.116  10.072
 1695AUSL   AUS 1611  18.695  19.814   7.666
 1696AUSL   AUS 1612  18.391  19.814   7.339
 1697AUL    AUL 1613  18.543  19.506   7.503
 1698THSLK    S 1614  18.338  19.575   7.270
 1699ETHY    C1 1615  18.066  19.213   7.236
 1700ETHY    C1 1616  17.816  18.748   7.157
 1701ETHY    C1 1617  17.659  18.259   7.041
 1702ETHY    C1 1618  17.589  17.760   6.896
 1703ETHY    C1 1619  17.613  17.261   6.727
 1704ETHY    C1 1620  17.732  16.770   6.538
 1705THSLK    S 1621  18.649  19.562   7.749
 1706ETHY    C1 1622  18.502  19.136   7.811
 1707ETHY    C1 1623  18.416  18.618   7.906
 1708ETHY    C1 1624  18.428  18.105   8.025
 1709ETHY    C1 1625  18.530  17.610   8.165
 1710ETHY    C1 1626  18.722  17.145   8.325
 1711ETHY    C1 1627  19.000  16.719   8.504
 1712AUSL   AUS 1628  18.543  21.067   7.094
 1713AUSL   AUS 1629  18.959  20.998   7.238
 1714AUL    AUL 1630  18.846  21.282   7.012
 1715THSLK    S 1631  18.590  21.294   6.977
 1716ETHY    C1 1632  18.780  21.573   6.674
 1717ETHY    C1 1633  18.931  21.954   6.330
 1718ETHY    C1 1634  18.995  22.374   6.021
 1719ETHY    C1 1635  18.979  22.824   5.752
 1720ETHY    C1 1636  18.883  23.294   5.532
 1721ETHY    C1 1637  18.708  23.777   5.366
 1722THSLK    S 1638  19.147  21.114   7.089
 1723ETHY    C1 1639  19.534  21.234   6.883
 1724ETHY    C1 1640  19.952  21.457   6.637
 1725ETHY    C1 1641  20.310  21.761   6.400
 1726ETHY    C1 1642  20.605  22.133   6.178
 1727ETHY    C1 1643  20.830  22.568   5.981
 1728ETHY    C1 1644  20.981  23.057   5.811
 1729AUSL   AUS 1645  18.391  21.161   7.339
 1730AUSL   AUS 1646  18.278  20.904   6.992
 1731AUL    AUL 1647  18.240  21.282   7.012
 1732THSLK    S 1648  18.437  21.408   7.239
 1733ETHY    C1 1649  18.584  21.805   7.074
 1734ETHY    C1 1650  18.670  22.299   6.889
 1735ETHY    C1 1651  18.658  22.800   6.727
 1736ETHY    C1 1652  18.556  23.296   6.593
 1737ETHY    C1 1653  18.364  23.777   6.492
 1738ETHY    C1 1654  18.086  24.235   6.427
 1739THSLK    S 1655  18.168  21.036   6.805
 1740ETHY    C1 1656  18.132  21.185   6.377
 1741ETHY    C1 1657  18.022  21.411   5.906
 1742ETHY    C1 1658  17.844  21.686   5.494
 1743ETHY    C1 1659  17.610  21.999   5.145
 1744ETHY    C1 1660  17.324  22.348   4.870
 1745ETHY    C1 1661  16.993  22.726   4.675
 1746AUSL   AUS 1662  18.543  19.907   7.094
 1747AUSL   AUS 1663  18.127  19.977   7.238
 1748AUL    AUL 1664  18.240  19.693   7.012
 1749THSLK    S 1665  17.944  19.829   7.134
 1750ETHY    C1 1666  17.561  19.585   7.124
 1751ETHY    C1 1667  17.143  19.264   7.035
 1752ETHY    C1 1668  16.784  18.918   6.866
 1753ETHY    C1 1669  16.487  18.557   6.631
 1754ETHY    C1 1670  16.262  18.185   6.331
 1755ETHY    C1 1671  16.115  17.808   5.974
 1756THSLK    S 1672  18.501  19.652   7.024
 1757ETHY    C1 1673  18.317  19.251   6.917
 1758ETHY    C1 1674  18.167  18.773   6.732
 1759ETHY    C1 1675  18.101  18.310   6.491
 1760ETHY    C1 1676  18.114  17.870   6.206
 1761ETHY    C1 1677  18.211  17.463   5.885
 1762ETHY    C1 1678  18.391  17.095   5.533
 1763AUSL   AUS 1679  18.695  19.814   7.339
 1764AUSL   AUS 1680  18.808  20.071   6.992
 1765AUL    AUL 1681  18.846  19.693   7.012
 1766THSLK    S 1682  18.652  19.560   7.266
 1767ETHY    C1 1683  18.508  19.132   7.213
 1768ETHY    C1 1684  18.421  18.613   7.120
 1769ETHY    C1 1685  18.433  18.101   6.997
 1770ETHY    C1 1686  18.534  17.607   6.854
 1771ETHY    C1 1687  18.726  17.142   6.695
 1772ETHY    C1 1688  19.006  16.714   6.523
 1773THSLK    S 1689  18.925  19.881   6.859
 1774ETHY    C1 1690  18.969  19.479   6.651
 1775ETHY    C1 1691  19.079  19.048   6.355
 1776ETHY    C1 1692  19.255  18.685   6.017
 1777ETHY    C1 1693  19.486  18.391   5.651
 1778ETHY    C1 1694  19.772  18.174   5.264
 1779ETHY    C1 1695  20.109  18.038   4.865
 1780AUC    AUC 1696  38.684  35.262   7.503
 1781AUC    AUC 1697  38.929  35.262   7.351
 1782AUC    AUC 1698  38.929  35.262   7.654
 1783AUC    AUC 1699  38.439  35.262   7.351
 1784AUC    AUC 1700  38.439  35.262   7.654
 1785AUC    AUC 1701  38.532  35.508   7.503
 1786AUC    AUC 1702  38.836  35.508   7.503
 1787AUC    AUC 1703  38.532  35.017   7.503
 1788AUC    AUC 1704  38.836  35.017   7.503
 1789AUC    AUC 1705  38.684  35.111   7.748
 1790AUC    AUC 1706  38.684  35.414   7.748
 1791AUC    AUC 1707  38.684  35.111   7.257
 1792AUC    AUC 1708  38.684  35.414   7.257
 1793AUC    AUC 1709  39.175  35.262   7.199
 1794AUC    AUC 1710  39.175  35.262   7.503
 1795AUC    AUC 1711  39.175  35.262   7.806
 1796AUC    AUC 1712  38.193  35.262   7.199
 1797AUC    AUC 1713  38.193  35.262   7.503
 1798AUC    AUC 1714  38.193  35.262   7.806
 1799AUC    AUC 1715  38.381  35.753   7.503
 1800AUC    AUC 1716  38.684  35.753   7.503
 1801AUC    AUC 1717  38.987  35.753   7.503
 1802AUC    AUC 1718  38.381  34.772   7.503
 1803AUC    AUC 1719  38.684  34.772   7.503
 1804AUC    AUC 1720  38.987  34.772   7.503
 1805AUC    AUC 1721  38.684  34.959   7.993
 1806AUC    AUC 1722  38.684  35.262   7.993
 1807AUC    AUC 1723  38.684  35.566   7.993
 1808AUC    AUC 1724  38.684  34.959   7.012
 1809AUC    AUC 1725  38.684  35.262   7.012
 1810AUC    AUC 1726  38.684  35.566   7.012
 1811AUC    AUC 1727  38.929  35.111   7.900
 1812AUC    AUC 1728  38.929  35.414   7.900
 1813AUC    AUC 1729  38.929  35.111   7.106
 1814AUC    AUC 1730  38.929  35.414   7.106
 1815AUC    AUC 1731  38.439  35.111   7.900
 1816AUC    AUC 1732  38.439  35.414   7.900
 1817AUC    AUC 1733  38.439  35.111   7.106
 1818AUC    AUC 1734  38.439  35.414   7.106
 1819AUC    AUC 1735  39.081  35.508   7.351
 1820AUC    AUC 1736  39.081  35.508   7.654
 1821AUC    AUC 1737  38.287  35.508   7.351
 1822AUC    AUC 1738  38.287  35.508   7.654
 1823AUC    AUC 1739  39.081  35.017   7.351
 1824AUC    AUC 1740  39.081  35.017   7.654
 1825AUC    AUC 1741  38.287  35.017   7.351
 1826AUC    AUC 1742  38.287  35.017   7.654
 1827AUC    AUC 1743  38.532  35.660   7.748
 1828AUC    AUC 1744  38.836  35.660   7.748
 1829AUC    AUC 1745  38.532  34.865   7.748
 1830AUC    AUC 1746  38.836  34.865   7.748
 1831AUC    AUC 1747  38.532  35.660   7.257
 1832AUC    AUC 1748  38.836  35.660   7.257
 1833AUC    AUC 1749  38.532  34.865   7.257
 1834AUC    AUC 1750  38.836  34.865   7.257
 1835AUSL   AUS 1751  39.093  35.262   8.083
 1836AUSL   AUS 1752  38.949  34.846   8.013
 1837AUL    AUL 1753  39.175  34.959   8.297
 1838THSLK    S 1754  39.059  34.659   8.153
 1839ETHY    C1 1755  39.095  34.260   8.368
 1840ETHY    C1 1756  39.205  33.830   8.665
 1841ETHY    C1 1757  39.383  33.466   9.000
 1842ETHY    C1 1758  39.617  33.170   9.364
 1843ETHY    C1 1759  39.903  32.953   9.752
 1844ETHY    C1 1760  40.234  32.820  10.156
 1845THSLK    S 1761  39.186  35.210   8.324
 1846ETHY    C1 1762  39.390  34.990   8.665
 1847ETHY    C1 1763  39.654  34.813   9.094
 1848ETHY    C1 1764  39.930  34.737   9.535
 1849ETHY    C1 1765  40.207  34.754   9.980
 1850ETHY    C1 1766  40.477  34.867  10.419
 1851ETHY    C1 1767  40.736  35.076  10.845
 1852AUSL   AUS 1768  38.848  35.111   8.176
 1853AUSL   AUS 1769  38.520  35.414   8.176
 1854AUL    AUL 1770  38.684  35.262   8.484
 1855THSLK    S 1771  38.923  35.056   8.413
 1856ETHY    C1 1772  38.987  34.776   8.765
 1857ETHY    C1 1773  39.090  34.521   9.223
 1858ETHY    C1 1774  39.217  34.362   9.708
 1859ETHY    C1 1775  39.359  34.293  10.208
 1860ETHY    C1 1776  39.513  34.321  10.713
 1861ETHY    C1 1777  39.673  34.445  11.212
 1862THSLK    S 1778  38.435  35.368   8.428
 1863ETHY    C1 1779  38.361  35.218   8.850
 1864ETHY    C1 1780  38.256  35.130   9.367
 1865ETHY    C1 1781  38.134  35.142   9.878
 1866ETHY    C1 1782  37.996  35.243  10.373
 1867ETHY    C1 1783  37.841  35.436  10.840
 1868ETHY    C1 1784  37.672  35.717  11.268
 1869AUSL   AUS 1785  38.848  35.414   8.176
 1870AUSL   AUS 1786  39.194  35.527   7.919
 1871AUL    AUL 1787  39.175  35.566   8.297
 1872THSLK    S 1788  38.933  35.470   8.410
 1873ETHY    C1 1789  39.007  35.751   8.759
 1874ETHY    C1 1790  39.112  36.006   9.217
 1875ETHY    C1 1791  39.234  36.165   9.703
 1876ETHY    C1 1792  39.373  36.234  10.204
 1877ETHY    C1 1793  39.527  36.207  10.708
 1878ETHY    C1 1794  39.696  36.083  11.206
 1879THSLK    S 1795  39.366  35.625   8.080
 1880ETHY    C1 1796  39.729  35.596   8.350
 1881ETHY    C1 1797  40.151  35.652   8.673
 1882ETHY    C1 1798  40.543  35.806   8.989
 1883ETHY    C1 1799  40.897  36.044   9.293
 1884ETHY    C1 1800  41.204  36.365   9.580
 1885ETHY    C1 1801  41.455  36.762   9.844
 1886AUSL   AUS 1802  39.093  35.262   6.923
 1887AUSL   AUS 1803  38.949  35.679   6.992
 1888AUL    AUL 1804  39.175  35.566   6.708
 1889THSLK    S 1805  39.195  35.210   6.687
 1890ETHY    C1 1806  39.408  34.990   6.351
 1891ETHY    C1 1807  39.673  34.813   5.923
 1892ETHY    C1 1808  39.945  34.737   5.479
 1893ETHY    C1 1809  40.219  34.754   5.033
 1894ETHY    C1 1810  40.490  34.867   4.594
 1895ETHY    C1 1811  40.755  35.076   4.173
 1896THSLK    S 1812  39.127  35.790   6.829
 1897ETHY    C1 1813  39.429  35.858   6.497
 1898ETHY    C1 1814  39.748  36.021   6.100
 1899ETHY    C1 1815  40.013  36.268   5.719
 1900ETHY    C1 1816  40.225  36.588   5.362
 1901ETHY    C1 1817  40.378  36.978   5.039
 1902ETHY    C1 1818  40.469  37.430   4.759
 1903AUSL   AUS 1819  38.848  35.111   6.829
 1904AUSL   AUS 1820  39.194  34.998   7.086
 1905AUL    AUL 1821  39.175  34.959   6.708
 1906THSLK    S 1822  39.327  34.806   6.949
 1907ETHY    C1 1823  39.510  34.439   6.752
 1908ETHY    C1 1824  39.782  34.067   6.483
 1909ETHY    C1 1825  40.107  33.778   6.186
 1910ETHY    C1 1826  40.473  33.571   5.874
 1911ETHY    C1 1827  40.877  33.452   5.555
 1912ETHY    C1 1828  41.310  33.427   5.235
 1913THSLK    S 1829  38.933  35.055   6.596
 1914ETHY    C1 1830  39.007  34.774   6.246
 1915ETHY    C1 1831  39.112  34.518   5.788
 1916ETHY    C1 1832  39.234  34.360   5.302
 1917ETHY    C1 1833  39.373  34.291   4.801
 1918ETHY    C1 1834  39.527  34.318   4.297
 1919ETHY    C1 1835  39.696  34.442   3.799
 1920AUSL   AUS 1836  38.848  35.414   6.829
 1921AUSL   AUS 1837  38.520  35.111   6.829
 1922AUL    AUL 1838  38.684  35.262   6.521
 1923THSLK    S 1839  38.428  35.055   6.597
 1924ETHY    C1 1840  38.293  34.777   6.264
 1925ETHY    C1 1841  38.132  34.524   5.822
 1926ETHY    C1 1842  37.980  34.367   5.343
 1927ETHY    C1 1843  37.844  34.298   4.842
 1928ETHY    C1 1844  37.727  34.324   4.328
 1929ETHY    C1 1845  37.634  34.443   3.810
 1930THSLK    S 1846  38.950  35.368   6.583
 1931ETHY    C1 1847  39.096  35.218   6.179
 1932ETHY    C1 1848  39.258  35.127   5.678
 1933ETHY    C1 1849  39.405  35.137   5.173
 1934ETHY    C1 1850  39.538  35.238   4.677
 1935ETHY    C1 1851  39.655  35.433   4.200
 1936ETHY    C1 1852  39.756  35.719   3.754
 1937AUSL   AUS 1853  38.275  35.262   8.083
 1938AUSL   AUS 1854  38.419  35.679   8.013
 1939AUL    AUL 1855  38.193  35.566   8.297
 1940THSLK    S 1856  38.173  35.210   8.319
 1941ETHY    C1 1857  37.961  34.990   8.654
 1942ETHY    C1 1858  37.695  34.813   9.082
 1943ETHY    C1 1859  37.423  34.737   9.526
 1944ETHY    C1 1860  37.149  34.754   9.973
 1945ETHY    C1 1861  36.878  34.867  10.411
 1946ETHY    C1 1862  36.613  35.076  10.832
 1947THSLK    S 1863  38.302  35.803   8.202
 1948ETHY    C1 1864  38.259  35.946   8.632
 1949ETHY    C1 1865  38.148  36.171   9.104
 1950ETHY    C1 1866  37.972  36.448   9.515
 1951ETHY    C1 1867  37.741  36.764   9.863
 1952ETHY    C1 1868  37.455  37.112  10.138
 1953ETHY    C1 1869  37.118  37.485  10.334
 1954AUSL   AUS 1870  38.520  35.111   8.176
 1955AUSL   AUS 1871  38.174  34.998   7.919
 1956AUL    AUL 1872  38.193  34.959   8.297
 1957THSLK    S 1873  37.997  34.835   8.026
 1958ETHY    C1 1874  37.626  34.578   8.082
 1959ETHY    C1 1875  37.204  34.290   8.237
 1960ETHY    C1 1876  36.814  34.035   8.482
 1961ETHY    C1 1877  36.462  33.818   8.803
 1962ETHY    C1 1878  36.156  33.647   9.198
 1963ETHY    C1 1879  35.899  33.526   9.657
 1964THSLK    S 1880  38.418  35.057   8.406
 1965ETHY    C1 1881  38.272  34.781   8.736
 1966ETHY    C1 1882  38.110  34.529   9.178
 1967ETHY    C1 1883  37.963  34.371   9.658
 1968ETHY    C1 1884  37.830  34.301  10.160
 1969ETHY    C1 1885  37.713  34.327  10.674
 1970ETHY    C1 1886  37.612  34.448  11.190
 1971AUSL   AUS 1887  38.275  35.262   6.923
 1972AUSL   AUS 1888  38.419  34.846   6.992
 1973AUL    AUL 1889  38.193  34.959   6.708
 1974THSLK    S 1890  38.182  35.210   6.681
 1975ETHY    C1 1891  37.978  34.990   6.341
 1976ETHY    C1 1892  37.714  34.813   5.911
 1977ETHY    C1 1893  37.438  34.737   5.470
 1978ETHY    C1 1894  37.161  34.754   5.025
 1979ETHY    C1 1895  36.891  34.867   4.586
 1980ETHY    C1 1896  36.632  35.076   4.161
 1981THSLK    S 1897  38.248  34.673   6.878
 1982ETHY    C1 1898  37.953  34.347   6.760
 1983ETHY    C1 1899  37.635  33.980   6.538
 1984ETHY    C1 1900  37.367  33.645   6.233
 1985ETHY    C1 1901  37.153  33.345   5.861
 1986ETHY    C1 1902  37.001  33.087   5.426
 1987ETHY    C1 1903  36.915  32.875   4.937
 1988AUSL   AUS 1904  38.520  35.414   6.829
 1989AUSL   AUS 1905  38.174  35.527   7.086
 1990AUL    AUL 1906  38.193  35.566   6.708
 1991THSLK    S 1907  38.047  35.654   6.895
 1992ETHY    C1 1908  37.870  35.735   6.484
 1993ETHY    C1 1909  37.599  35.875   6.046
 1994ETHY    C1 1910  37.272  36.063   5.679
 1995ETHY    C1 1911  36.903  36.292   5.385
 1996ETHY    C1 1912  36.501  36.559   5.173
 1997ETHY    C1 1913  36.072  36.861   5.047
 1998THSLK    S 1914  38.445  35.370   6.576
 1999ETHY    C1 1915  38.381  35.223   6.150
 2000ETHY    C1 1916  38.278  35.134   5.634
 2001ETHY    C1 1917  38.151  35.145   5.123
 2002ETHY    C1 1918  38.009  35.246   4.629
 2003ETHY    C1 1919  37.856  35.439   4.162
 2004ETHY    C1 1920  37.695  35.722   3.732
 2005AUSL   AUS 1921  39.264  35.671   7.503
 2006AUSL   AUS 1922  39.194  35.527   7.086
 2007AUL    AUL 1923  39.478  35.753   7.199
 2008THSLK    S 1924  39.372  35.626   6.934
 2009ETHY    C1 1925  39.742  35.599   6.671
 2010ETHY    C1 1926  40.164  35.655   6.349
 2011ETHY    C1 1927  40.554  35.809   6.030
 2012ETHY    C1 1928  40.906  36.046   5.724
 2013ETHY    C1 1929  41.213  36.367   5.438
 2014ETHY    C1 1930  41.469  36.766   5.179
 2015THSLK    S 1931  39.530  35.724   7.508
 2016ETHY    C1 1932  39.984  35.746   7.513
 2017ETHY    C1 1933  40.506  35.860   7.514
 2018ETHY    C1 1934  40.989  36.069   7.511
 2019ETHY    C1 1935  41.425  36.359   7.510
 2020ETHY    C1 1936  41.804  36.726   7.510
 2021ETHY    C1 1937  42.118  37.166   7.514
 2022AUSL   AUS 1938  39.358  35.426   7.351
 2023AUSL   AUS 1939  39.358  35.099   7.654
 2024AUL    AUL 1940  39.666  35.262   7.503
 2025THSLK    S 1941  39.614  35.465   7.350
 2026ETHY    C1 1942  40.050  35.357   7.286
 2027ETHY    C1 1943  40.576  35.319   7.201
 2028ETHY    C1 1944  41.091  35.383   7.113
 2029ETHY    C1 1945  41.585  35.537   7.026
 2030ETHY    C1 1946  42.045  35.782   6.945
 2031ETHY    C1 1947  42.464  36.114   6.873
 2032THSLK    S 1948  39.585  34.959   7.663
 2033ETHY    C1 1949  39.904  34.643   7.728
 2034ETHY    C1 1950  40.337  34.339   7.807
 2035ETHY    C1 1951  40.812  34.129   7.887
 2036ETHY    C1 1952  41.315  34.008   7.971
 2037ETHY    C1 1953  41.835  33.982   8.058
 2038ETHY    C1 1954  42.363  34.052   8.147
 2039AUSL   AUS 1955  39.358  35.426   7.654
 2040AUSL   AUS 1956  39.100  35.773   7.767
 2041AUL    AUL 1957  39.478  35.753   7.806
 2042THSLK    S 1958  39.283  35.887   7.926
 2043ETHY    C1 1959  39.666  36.005   8.140
 2044ETHY    C1 1960  40.084  36.228   8.388
 2045ETHY    C1 1961  40.443  36.533   8.622
 2046ETHY    C1 1962  40.740  36.906   8.840
 2047ETHY    C1 1963  40.965  37.340   9.038
 2048ETHY    C1 1964  41.112  37.828   9.215
 2049THSLK    S 1965  39.612  35.465   7.665
 2050ETHY    C1 1966  40.047  35.357   7.740
 2051ETHY    C1 1967  40.573  35.319   7.826
 2052ETHY    C1 1968  41.088  35.382   7.910
 2053ETHY    C1 1969  41.582  35.536   7.993
 2054ETHY    C1 1970  42.043  35.781   8.075
 2055ETHY    C1 1971  42.460  36.113   8.155
 2056AUSL   AUS 1972  38.104  35.671   7.503
 2057AUSL   AUS 1973  38.174  35.527   7.919
 2058AUL    AUL 1974  37.890  35.753   7.806
 2059THSLK    S 1975  38.041  35.646   8.109
 2060ETHY    C1 1976  37.858  35.718   8.519
 2061ETHY    C1 1977  37.586  35.858   8.957
 2062ETHY    C1 1978  37.261  36.049   9.324
 2063ETHY    C1 1979  36.895  36.280   9.619
 2064ETHY    C1 1980  36.492  36.547   9.831
 2065ETHY    C1 1981  36.058  36.843   9.956
 2066THSLK    S 1982  37.893  35.812   7.508
 2067ETHY    C1 1983  37.671  36.209   7.513
 2068ETHY    C1 1984  37.335  36.624   7.514
 2069ETHY    C1 1985  36.932  36.963   7.511
 2070ETHY    C1 1986  36.478  37.224   7.510
 2071ETHY    C1 1987  35.979  37.398   7.510
 2072ETHY    C1 1988  35.446  37.482   7.514
 2073AUSL   AUS 1989  38.010  35.426   7.351
 2074AUSL   AUS 1990  38.268  35.773   7.238
 2075AUL    AUL 1991  37.890  35.753   7.199
 2076THSLK    S 1992  37.783  35.541   7.303
 2077ETHY    C1 1993  37.464  35.741   7.049
 2078ETHY    C1 1994  37.031  35.947   6.813
 2079ETHY    C1 1995  36.556  36.113   6.661
 2080ETHY    C1 1996  36.053  36.242   6.590
 2081ETHY    C1 1997  35.533  36.332   6.605
 2082ETHY    C1 1998  35.005  36.380   6.708
 2083THSLK    S 1999  38.156  35.936   7.060
 2084ETHY    C1 2000  38.077  36.246   6.737
 2085ETHY    C1 2001  37.902  36.620   6.397
 2086ETHY    C1 2002  37.648  36.988   6.120
 2087ETHY    C1 2003  37.328  37.345   5.909
 2088ETHY    C1 2004  36.947  37.683   5.770
 2089ETHY    C1 2005  36.512  37.997   5.709
 2090AUSL   AUS 2006  38.010  35.426   7.654
 2091AUSL   AUS 2007  38.010  35.099   7.351
 2092AUL    AUL 2008  37.702  35.262   7.503
 2093THSLK    S 2009  37.756  35.026   7.394
 2094ETHY    C1 2010  37.321  35.008   7.524
 2095ETHY    C1 2011  36.795  34.948   7.597
 2096ETHY    C1 2012  36.280  34.844   7.578
 2097ETHY    C1 2013  35.786  34.701   7.477
 2098ETHY    C1 2014  35.326  34.518   7.294
 2099ETHY    C1 2015  34.908  34.298   7.034
 2100THSLK    S 2016  37.782  35.532   7.707
 2101ETHY    C1 2017  37.461  35.723   7.966
 2102ETHY    C1 2018  37.028  35.927   8.202
 2103ETHY    C1 2019  36.553  36.098   8.352
 2104ETHY    C1 2020  36.051  36.230   8.422
 2105ETHY    C1 2021  35.531  36.318   8.407
 2106ETHY    C1 2022  35.002  36.359   8.308
 2107AUSL   AUS 2023  39.264  34.853   7.503
 2108AUSL   AUS 2024  39.194  34.998   7.919
 2109AUL    AUL 2025  39.478  34.772   7.806
 2110THSLK    S 2026  39.475  34.712   7.508
 2111ETHY    C1 2027  39.697  34.316   7.513
 2112ETHY    C1 2028  40.033  33.901   7.514
 2113ETHY    C1 2029  40.436  33.562   7.511
 2114ETHY    C1 2030  40.890  33.301   7.510
 2115ETHY    C1 2031  41.389  33.127   7.510
 2116ETHY    C1 2032  41.922  33.043   7.514
 2117THSLK    S 2033  39.321  34.807   8.064
 2118ETHY    C1 2034  39.498  34.442   8.270
 2119ETHY    C1 2035  39.769  34.070   8.540
 2120ETHY    C1 2036  40.096  33.781   8.834
 2121ETHY    C1 2037  40.465  33.573   9.142
 2122ETHY    C1 2038  40.867  33.455   9.462
 2123ETHY    C1 2039  41.296  33.430   9.789
 2124AUSL   AUS 2040  39.358  35.099   7.351
 2125AUSL   AUS 2041  39.100  34.752   7.238
 2126AUL    AUL 2042  39.478  34.772   7.199
 2127THSLK    S 2043  39.586  34.959   7.353
 2128ETHY    C1 2044  39.907  34.642   7.298
 2129ETHY    C1 2045  40.340  34.339   7.221
 2130ETHY    C1 2046  40.815  34.129   7.136
 2131ETHY    C1 2047  41.317  34.008   7.048
 2132ETHY    C1 2048  41.837  33.981   6.963
 2133ETHY    C1 2049  42.366  34.052   6.881
 2134THSLK    S 2050  39.216  34.563   7.108
 2135ETHY    C1 2051  39.300  34.134   6.984
 2136ETHY    C1 2052  39.475  33.662   6.803
 2137ETHY    C1 2053  39.728  33.251   6.593
 2138ETHY    C1 2054  40.046  32.903   6.366
 2139ETHY    C1 2055  40.428  32.628   6.126
 2140ETHY    C1 2056  40.866  32.431   5.880
 2141AUSL   AUS 2057  38.104  34.853   7.503
 2142AUSL   AUS 2058  38.174  34.998   7.086
 2143AUL    AUL 2059  37.890  34.772   7.199
 2144THSLK    S 2060  38.003  34.827   6.978
 2145ETHY    C1 2061  37.639  34.562   6.921
 2146ETHY    C1 2062  37.217  34.272   6.766
 2147ETHY    C1 2063  36.825  34.020   6.521
 2148ETHY    C1 2064  36.471  33.807   6.200
 2149ETHY    C1 2065  36.164  33.634   5.806
 2150ETHY    C1 2066  35.913  33.507   5.346
 2151THSLK    S 2067  37.838  34.801   7.508
 2152ETHY    C1 2068  37.384  34.779   7.513
 2153ETHY    C1 2069  36.862  34.665   7.514
 2154ETHY    C1 2070  36.380  34.456   7.511
 2155ETHY    C1 2071  35.943  34.166   7.510
 2156ETHY    C1 2072  35.564  33.799   7.510
 2157ETHY    C1 2073  35.251  33.359   7.514
 2158AUSL   AUS 2074  38.010  35.099   7.654
 2159AUSL   AUS 2075  38.268  34.752   7.767
 2160AUL    AUL 2076  37.890  34.772   7.806
 2161THSLK    S 2077  38.080  34.612   7.878
 2162ETHY    C1 2078  37.693  34.375   7.893
 2163ETHY    C1 2079  37.275  34.055   7.982
 2164ETHY    C1 2080  36.917  33.706   8.149
 2165ETHY    C1 2081  36.622  33.342   8.382
 2166ETHY    C1 2082  36.397  32.971   8.683
 2167ETHY    C1 2083  36.246  32.600   9.045
 2168THSLK    S 2084  37.754  35.036   7.616
 2169ETHY    C1 2085  37.318  35.026   7.491
 2170ETHY    C1 2086  36.792  34.967   7.419
 2171ETHY    C1 2087  36.277  34.860   7.436
 2172ETHY    C1 2088  35.783  34.714   7.535
 2173ETHY    C1 2089  35.323  34.532   7.718
 2174ETHY    C1 2090  34.904  34.319   7.983
 2175AUSL   AUS 2091  38.684  35.842   7.912
 2176AUSL   AUS 2092  38.268  35.773   7.767
 2177AUL    AUL 2093  38.381  36.057   7.993
 2178THSLK    S 2094  38.152  35.929   7.952
 2179ETHY    C1 2095  38.068  36.231   8.280
 2180ETHY    C1 2096  37.893  36.604   8.621
 2181ETHY    C1 2097  37.640  36.975   8.895
 2182ETHY    C1 2098  37.322  37.334   9.105
 2183ETHY    C1 2099  36.940  37.672   9.244
 2184ETHY    C1 2100  36.502  37.980   9.309
 2185THSLK    S 2101  38.726  36.064   8.035
 2186ETHY    C1 2102  38.910  36.339   8.347
 2187ETHY    C1 2103  39.060  36.719   8.691
 2188ETHY    C1 2104  39.126  37.142   8.998
 2189ETHY    C1 2105  39.113  37.593   9.264
 2190ETHY    C1 2106  39.016  38.062   9.485
 2191ETHY    C1 2107  38.836  38.541   9.656
 2192AUSL   AUS 2108  38.532  35.936   7.666
 2193AUSL   AUS 2109  38.836  35.936   7.339
 2194AUL    AUL 2110  38.684  36.244   7.503
 2195THSLK    S 2111  38.575  36.180   7.776
 2196ETHY    C1 2112  38.719  36.574   7.951
 2197ETHY    C1 2113  38.806  37.068   8.137
 2198ETHY    C1 2114  38.794  37.569   8.294
 2199ETHY    C1 2115  38.693  38.067   8.425
 2200ETHY    C1 2116  38.501  38.548   8.527
 2201ETHY    C1 2117  38.221  39.003   8.600
 2202THSLK    S 2118  38.891  36.167   7.243
 2203ETHY    C1 2119  39.167  36.497   7.096
 2204ETHY    C1 2120  39.417  36.938   6.927
 2205ETHY    C1 2121  39.573  37.415   6.771
 2206ETHY    C1 2122  39.642  37.917   6.635
 2207ETHY    C1 2123  39.618  38.433   6.525
 2208ETHY    C1 2124  39.501  38.953   6.443
 2209AUSL   AUS 2125  38.836  35.936   7.666
 2210AUSL   AUS 2126  38.949  35.679   8.013
 2211AUL    AUL 2127  38.987  36.057   7.993
 2212THSLK    S 2128  39.120  35.787   8.183
 2213ETHY    C1 2129  39.415  35.852   8.523
 2214ETHY    C1 2130  39.733  36.014   8.920
 2215ETHY    C1 2131  40.001  36.263   9.298
 2216ETHY    C1 2132  40.215  36.585   9.653
 2217ETHY    C1 2133  40.367  36.973   9.976
 2218ETHY    C1 2134  40.453  37.423  10.262
 2219THSLK    S 2135  38.889  36.165   7.772
 2220ETHY    C1 2136  39.161  36.493   7.929
 2221ETHY    C1 2137  39.411  36.933   8.100
 2222ETHY    C1 2138  39.569  37.412   8.251
 2223ETHY    C1 2139  39.638  37.914   8.383
 2224ETHY    C1 2140  39.614  38.429   8.494
 2225ETHY    C1 2141  39.495  38.948   8.585
 2226AUSL   AUS 2142  38.684  34.682   7.912
 2227AUSL   AUS 2143  39.100  34.752   7.767
 2228AUL    AUL 2144  38.987  34.468   7.993
 2229THSLK    S 2145  38.637  34.432   7.989
 2230ETHY    C1 2146  38.447  34.036   8.103
 2231ETHY    C1 2147  38.296  33.558   8.289
 2232ETHY    C1 2148  38.233  33.093   8.528
 2233ETHY    C1 2149  38.248  32.651   8.809
 2234ETHY    C1 2150  38.344  32.244   9.132
 2235ETHY    C1 2151  38.519  31.881   9.489
 2236THSLK    S 2152  39.212  34.565   7.907
 2237ETHY    C1 2153  39.291  34.137   8.040
 2238ETHY    C1 2154  39.466  33.667   8.222
 2239ETHY    C1 2155  39.720  33.255   8.428
 2240ETHY    C1 2156  40.040  32.906   8.652
 2241ETHY    C1 2157  40.421  32.631   8.893
 2242ETHY    C1 2158  40.856  32.435   9.147
 2243AUSL   AUS 2159  38.532  34.589   7.666
 2244AUSL   AUS 2160  38.419  34.846   8.013
 2245AUL    AUL 2161  38.381  34.468   7.993
 2246THSLK    S 2162  38.477  34.353   7.745
 2247ETHY    C1 2163  38.202  33.994   7.788
 2248ETHY    C1 2164  37.951  33.529   7.869
 2249ETHY    C1 2165  37.795  33.039   7.981
 2250ETHY    C1 2166  37.726  32.540   8.122
 2251ETHY    C1 2167  37.750  32.040   8.292
 2252ETHY    C1 2168  37.867  31.552   8.489
 2253THSLK    S 2169  38.241  34.680   8.129
 2254ETHY    C1 2170  37.939  34.362   8.248
 2255ETHY    C1 2171  37.620  33.995   8.471
 2256ETHY    C1 2172  37.355  33.658   8.776
 2257ETHY    C1 2173  37.143  33.356   9.147
 2258ETHY    C1 2174  36.990  33.098   9.582
 2259ETHY    C1 2175  36.899  32.891  10.072
 2260AUSL   AUS 2176  38.836  34.589   7.666
 2261AUSL   AUS 2177  38.532  34.589   7.339
 2262AUL    AUL 2178  38.684  34.281   7.503
 2263THSLK    S 2179  38.479  34.350   7.270
 2264ETHY    C1 2180  38.207  33.988   7.236
 2265ETHY    C1 2181  37.957  33.523   7.157
 2266ETHY    C1 2182  37.800  33.034   7.041
 2267ETHY    C1 2183  37.730  32.535   6.896
 2268ETHY    C1 2184  37.754  32.036   6.727
 2269ETHY    C1 2185  37.873  31.545   6.538
 2270THSLK    S 2186  38.790  34.337   7.749
 2271ETHY    C1 2187  38.643  33.911   7.811
 2272ETHY    C1 2188  38.557  33.393   7.906
 2273ETHY    C1 2189  38.569  32.880   8.025
 2274ETHY    C1 2190  38.671  32.385   8.165
 2275ETHY    C1 2191  38.863  31.920   8.325
 2276ETHY    C1 2192  39.141  31.494   8.504
 2277AUSL   AUS 2193  38.684  35.842   7.094
 2278AUSL   AUS 2194  39.100  35.773   7.238
 2279AUL    AUL 2195  38.987  36.057   7.012
 2280THSLK    S 2196  38.731  36.069   6.977
 2281ETHY    C1 2197  38.921  36.348   6.674
 2282ETHY    C1 2198  39.072  36.729   6.330
 2283ETHY    C1 2199  39.136  37.149   6.021
 2284ETHY    C1 2200  39.120  37.599   5.752
 2285ETHY    C1 2201  39.024  38.069   5.532
 2286ETHY    C1 2202  38.849  38.552   5.366
 2287THSLK    S 2203  39.288  35.889   7.089
 2288ETHY    C1 2204  39.675  36.009   6.883
 2289ETHY    C1 2205  40.093  36.232   6.637
 2290ETHY    C1 2206  40.451  36.536   6.400
 2291ETHY    C1 2207  40.746  36.908   6.178
 2292ETHY    C1 2208  40.971  37.343   5.981
 2293ETHY    C1 2209  41.122  37.832   5.811
 2294AUSL   AUS 2210  38.532  35.936   7.339
 2295AUSL   AUS 2211  38.419  35.679   6.992
 2296AUL    AUL 2212  38.381  36.057   7.012
 2297THSLK    S 2213  38.578  36.183   7.239
 2298ETHY    C1 2214  38.725  36.580   7.074
 2299ETHY    C1 2215  38.811  37.074   6.889
 2300ETHY    C1 2216  38.799  37.575   6.727
 2301ETHY    C1 2217  38.697  38.071   6.593
 2302ETHY    C1 2218  38.505  38.552   6.492
 2303ETHY    C1 2219  38.227  39.010   6.427
 2304THSLK    S 2220  38.309  35.811   6.805
 2305ETHY    C1 2221  38.273  35.960   6.377
 2306ETHY    C1 2222  38.163  36.186   5.906
 2307ETHY    C1 2223  37.985  36.461   5.494
 2308ETHY    C1 2224  37.751  36.774   5.145
 2309ETHY    C1 2225  37.465  37.123   4.870
 2310ETHY    C1 2226  37.134  37.501   4.675
 2311AUSL   AUS 2227  38.684  34.682   7.094
 2312AUSL   AUS 2228  38.268  34.752   7.238
 2313AUL    AUL 2229  38.381  34.468   7.012
 2314THSLK    S 2230  38.085  34.604   7.134
 2315ETHY    C1 2231  37.702  34.360   7.124
 2316ETHY    C1 2232  37.284  34.039   7.035
 2317ETHY    C1 2233  36.925  33.693   6.866
 2318ETHY    C1 2234  36.628  33.332   6.631
 2319ETHY    C1 2235  36.403  32.960   6.331
 2320ETHY    C1 2236  36.256  32.583   5.974
 2321THSLK    S 2237  38.642  34.427   7.024
 2322ETHY    C1 2238  38.458  34.026   6.917
 2323ETHY    C1 2239  38.308  33.548   6.732
 2324ETHY    C1 2240  38.242  33.085   6.491
 2325ETHY    C1 2241  38.255  32.645   6.206
 2326ETHY    C1 2242  38.352  32.238   5.885
 2327ETHY    C1 2243  38.532  31.870   5.533
 2328AUSL   AUS 2244  38.836  34.589   7.339
 2329AUSL   AUS 2245  38.949  34.846   6.992
 2330AUL    AUL 2246  38.987  34.468   7.012
 2331THSLK    S 2247  38.793  34.335   7.266
 2332ETHY    C1 2248  38.649  33.907   7.213
 2333ETHY    C1 2249  38.562  33.388   7.120
 2334ETHY    C1 2250  38.574  32.876   6.997
 2335ETHY    C1 2251  38.675  32.382   6.854
 2336ETHY    C1 2252  38.867  31.917   6.695
 2337ETHY    C1 2253  39.147  31.489   6.523
 2338THSLK    S 2254  39.066  34.656   6.859
 2339ETHY    C1 2255  39.110  34.254   6.651
 2340ETHY    C1 2256  39.220  33.823   6.355
 2341ETHY    C1 2257  39.396  33.460   6.017
 2342ETHY    C1 2258  39.627  33.166   5.651
 2343ETHY    C1 2259  39.913  32.949   5.264
 2344ETHY    C1 2260  40.250  32.813   4.865
 2345AUC    AUC 2261  12.037  13.905   7.503
 2346AUC    AUC 2262  12.282  13.905   7.351
 2347AUC    AUC 2263  12.282  13.905   7.654
 2348AUC    AUC 2264  11.792  13.905   7.351
 2349AUC    AUC 2265  11.792  13.905   7.654
 2350AUC    AUC 2266  11.885  14.151   7.503
 2351AUC    AUC 2267  12.189  14.151   7.503
 2352AUC    AUC 2268  11.885  13.660   7.503
 2353AUC    AUC 2269  12.189  13.660   7.503
 2354AUC    AUC 2270  12.037  13.754   7.748
 2355AUC    AUC 2271  12.037  14.057   7.748
 2356AUC    AUC 2272  12.037  13.754   7.257
 2357AUC    AUC 2273  12.037  14.057   7.257
 2358AUC    AUC 2274  12.528  13.905   7.199
 2359AUC    AUC 2275  12.528  13.905   7.503
 2360AUC    AUC 2276  12.528  13.905   7.806
 2361AUC    AUC 2277  11.546  13.905   7.199
 2362AUC    AUC 2278  11.546  13.905   7.503
 2363AUC    AUC 2279  11.546  13.905   7.806
 2364AUC    AUC 2280  11.734  14.396   7.503
 2365AUC    AUC 2281  12.037  14.396   7.503
 2366AUC    AUC 2282  12.340  14.396   7.503
 2367AUC    AUC 2283  11.734  13.415   7.503
 2368AUC    AUC 2284  12.037  13.415   7.503
 2369AUC    AUC 2285  12.340  13.415   7.503
 2370AUC    AUC 2286  12.037  13.602   7.993
 2371AUC    AUC 2287  12.037  13.905   7.993
 2372AUC    AUC 2288  12.037  14.209   7.993
 2373AUC    AUC 2289  12.037  13.602   7.012
 2374AUC    AUC 2290  12.037  13.905   7.012
 2375AUC    AUC 2291  12.037  14.209   7.012
 2376AUC    AUC 2292  12.282  13.754   7.900
 2377AUC    AUC 2293  12.282  14.057   7.900
 2378AUC    AUC 2294  12.282  13.754   7.106
 2379AUC    AUC 2295  12.282  14.057   7.106
 2380AUC    AUC 2296  11.792  13.754   7.900
 2381AUC    AUC 2297  11.792  14.057   7.900
 2382AUC    AUC 2298  11.792  13.754   7.106
 2383AUC    AUC 2299  11.792  14.057   7.106
 2384AUC    AUC 2300  12.434  14.151   7.351
 2385AUC    AUC 2301  12.434  14.151   7.654
 2386AUC    AUC 2302  11.640  14.151   7.351
 2387AUC    AUC 2303  11.640  14.151   7.654
 2388AUC    AUC 2304  12.434  13.660   7.351
 2389AUC    AUC 2305  12.434  13.660   7.654
 2390AUC    AUC 2306  11.640  13.660   7.351
 2391AUC    AUC 2307  11.640  13.660   7.654
 2392AUC    AUC 2308  11.885  14.303   7.748
 2393AUC    AUC 2309  12.189  14.303   7.748
 2394AUC    AUC 2310  11.885  13.508   7.748
 2395AUC    AUC 2311  12.189  13.508   7.748
 2396AUC    AUC 2312  11.885  14.303   7.257
 2397AUC    AUC 2313  12.189  14.303   7.257
 2398AUC    AUC 2314  11.885  13.508   7.257
 2399AUC    AUC 2315  12.189  13.508   7.257
 2400AUSL   AUS 2316  12.446  13.905   8.083
 2401AUSL   AUS 2317  12.302  13.489   8.013
 2402AUL    AUL 2318  12.528  13.602   8.297
 2403THSLK    S 2319  12.412  13.302   8.153
 2404ETHY    C1 2320  12.448  12.903   8.368
 2405ETHY    C1 2321  12.558  12.473   8.665
 2406ETHY    C1 2322  12.736  12.109   9.000
 2407ETHY    C1 2323  12.970  11.813   9.364
 2408ETHY    C1 2324  13.256  11.596   9.752
 2409ETHY    C1 2325  13.587  11.463  10.156
 2410THSLK    S 2326  12.539  13.853   8.324
 2411ETHY    C1 2327  12.743  13.633   8.665
 2412ETHY    C1 2328  13.007  13.456   9.094
 2413ETHY    C1 2329  13.283  13.380   9.535
 2414ETHY    C1 2330  13.560  13.397   9.980
 2415ETHY    C1 2331  13.830  13.510  10.419
 2416ETHY    C1 2332  14.089  13.719  10.845
 2417AUSL   AUS 2333  12.201  13.754   8.176
 2418AUSL   AUS 2334  11.873  14.057   8.176
 2419AUL    AUL 2335  12.037  13.905   8.484
 2420THSLK    S 2336  12.276  13.699   8.413
 2421ETHY    C1 2337  12.340  13.419   8.765
 2422ETHY    C1 2338  12.443  13.164   9.223
 2423ETHY    C1 2339  12.570  13.005   9.708
 2424ETHY    C1 2340  12.712  12.936  10.208
 2425ETHY    C1 2341  12.866  12.964  10.713
 2426ETHY    C1 2342  13.026  13.088  11.212
 2427THSLK    S 2343  11.788  14.011   8.428
 2428ETHY    C1 2344  11.714  13.861   8.850
 2429ETHY    C1 2345  11.609  13.773   9.367
 2430ETHY    C1 2346  11.487  13.785   9.878
 2431ETHY    C1 2347  11.349  13.886  10.373
 2432ETHY    C1 2348  11.194  14.079  10.840
 2433ETHY    C1 2349  11.025  14.360  11.268
 2434AUSL   AUS 2350  12.201  14.057   8.176
 2435AUSL   AUS 2351  12.547  14.170   7.919
 2436AUL    AUL 2352  12.528  14.209   8.297
 2437THSLK    S 2353  12.286  14.113   8.410
 2438ETHY    C1 2354  12.360  14.394   8.759
 2439ETHY    C1 2355  12.465  14.649   9.217
 2440ETHY    C1 2356  12.587  14.808   9.703
 2441ETHY    C1 2357  12.726  14.877  10.204
 2442ETHY    C1 2358  12.880  14.850  10.708
 2443ETHY    C1 2359  13.049  14.726  11.206
 2444THSLK    S 2360  12.719  14.268   8.080
 2445ETHY    C1 2361  13.082  14.239   8.350
 2446ETHY    C1 2362  13.504  14.295   8.673
 2447ETHY    C1 2363  13.896  14.449   8.989
 2448ETHY    C1 2364  14.250  14.687   9.293
 2449ETHY    C1 2365  14.557  15.008   9.580
 2450ETHY    C1 2366  14.808  15.405   9.844
 2451AUSL   AUS 2367  12.446  13.905   6.923
 2452AUSL   AUS 2368  12.302  14.322   6.992
 2453AUL    AUL 2369  12.528  14.209   6.708
 2454THSLK    S 2370  12.548  13.853   6.687
 2455ETHY    C1 2371  12.761  13.633   6.351
 2456ETHY    C1 2372  13.026  13.456   5.923
 2457ETHY    C1 2373  13.298  13.380   5.479
 2458ETHY    C1 2374  13.572  13.397   5.033
 2459ETHY    C1 2375  13.843  13.510   4.594
 2460ETHY    C1 2376  14.108  13.719   4.173
 2461THSLK    S 2377  12.480  14.433   6.829
 2462ETHY    C1 2378  12.782  14.501   6.497
 2463ETHY    C1 2379  13.101  14.664   6.100
 2464ETHY    C1 2380  13.366  14.911   5.719
 2465ETHY    C1 2381  13.578  15.231   5.362
 2466ETHY    C1 2382  13.731  15.621   5.039
 2467ETHY    C1 2383  13.822  16.073   4.759
 2468AUSL   AUS 2384  12.201  13.754   6.829
 2469AUSL   AUS 2385  12.547  13.641   7.086
 2470AUL    AUL 2386  12.528  13.602   6.708
 2471THSLK    S 2387  12.680  13.449   6.949
 2472ETHY    C1 2388  12.863  13.082   6.752
 2473ETHY    C1 2389  13.135  12.710   6.483
 2474ETHY    C1 2390  13.460  12.421   6.186
 2475ETHY    C1 2391  13.826  12.214   5.874
 2476ETHY    C1 2392  14.230  12.095   5.555
 2477ETHY    C1 2393  14.663  12.070   5.235
 2478THSLK    S 2394  12.286  13.698   6.596
 2479ETHY    C1 2395  12.360  13.417   6.246
 2480ETHY    C1 2396  12.465  13.161   5.788
 2481ETHY    C1 2397  12.587  13.003   5.302
 2482ETHY    C1 2398  12.726  12.934   4.801
 2483ETHY    C1 2399  12.880  12.961   4.297
 2484ETHY    C1 2400  13.049  13.085   3.799
 2485AUSL   AUS 2401  12.201  14.057   6.829
 2486AUSL   AUS 2402  11.873  13.754   6.829
 2487AUL    AUL 2403  12.037  13.905   6.521
 2488THSLK    S 2404  11.781  13.698   6.597
 2489ETHY    C1 2405  11.646  13.420   6.264
 2490ETHY    C1 2406  11.485  13.167   5.822
 2491ETHY    C1 2407  11.333  13.010   5.343
 2492ETHY    C1 2408  11.197  12.941   4.842
 2493ETHY    C1 2409  11.080  12.967   4.328
 2494ETHY    C1 2410  10.987  13.086   3.810
 2495THSLK    S 2411  12.303  14.011   6.583
 2496ETHY    C1 2412  12.449  13.861   6.179
 2497ETHY    C1 2413  12.611  13.770   5.678
 2498ETHY    C1 2414  12.758  13.780   5.173
 2499ETHY    C1 2415  12.891  13.881   4.677
 2500ETHY    C1 2416  13.008  14.076   4.200
 2501ETHY    C1 2417  13.109  14.362   3.754
 2502AUSL   AUS 2418  11.628  13.905   8.083
 2503AUSL   AUS 2419  11.772  14.322   8.013
 2504AUL    AUL 2420  11.546  14.209   8.297
 2505THSLK    S 2421  11.526  13.853   8.319
 2506ETHY    C1 2422  11.314  13.633   8.654
 2507ETHY    C1 2423  11.048  13.456   9.082
 2508ETHY    C1 2424  10.776  13.380   9.526
 2509ETHY    C1 2425  10.502  13.397   9.973
 2510ETHY    C1 2426  10.231  13.510  10.411
 2511ETHY    C1 2427   9.966  13.719  10.832
 2512THSLK    S 2428  11.655  14.446   8.202
 2513ETHY    C1 2429  11.612  14.589   8.632
 2514ETHY    C1 2430  11.501  14.814   9.104
 2515ETHY    C1 2431  11.325  15.091   9.515
 2516ETHY    C1 2432  11.094  15.407   9.863
 2517ETHY    C1 2433  10.808  15.755  10.138
 2518ETHY    C1 2434  10.471  16.128  10.334
 2519AUSL   AUS 2435  11.873  13.754   8.176
 2520AUSL   AUS 2436  11.527  13.641   7.919
 2521AUL    AUL 2437  11.546  13.602   8.297
 2522THSLK    S 2438  11.350  13.478   8.026
 2523ETHY    C1 2439  10.979  13.221   8.082
 2524ETHY    C1 2440  10.557  12.933   8.237
 2525ETHY    C1 2441  10.167  12.678   8.482
 2526ETHY    C1 2442   9.815  12.461   8.803
 2527ETHY    C1 2443   9.509  12.290   9.198
 2528ETHY    C1 2444   9.252  12.169   9.657
 2529THSLK    S 2445  11.771  13.700   8.406
 2530ETHY    C1 2446  11.625  13.424   8.736
 2531ETHY    C1 2447  11.463  13.172   9.178
 2532ETHY    C1 2448  11.316  13.014   9.658
 2533ETHY    C1 2449  11.183  12.944  10.160
 2534ETHY    C1 2450  11.066  12.970  10.674
 2535ETHY    C1 2451  10.965  13.091  11.190
 2536AUSL   AUS 2452  11.628  13.905   6.923
 2537AUSL   AUS 2453  11.772  13.489   6.992
 2538AUL    AUL 2454  11.546  13.602   6.708
 2539THSLK    S 2455  11.535  13.853   6.681
 2540ETHY    C1 2456  11.331  13.633   6.341
 2541ETHY    C1 2457  11.067  13.456   5.911
 2542ETHY    C1 2458  10.791  13.380   5.470
 2543ETHY    C1 2459  10.514  13.397   5.025
 2544ETHY    C1 2460  10.244  13.510   4.586
 2545ETHY    C1 2461   9.985  13.719   4.161
 2546THSLK    S 2462  11.601  13.316   6.878
 2547ETHY    C1 2463  11.306  12.990   6.760
 2548ETHY    C1 2464  10.988  12.623   6.538
 2549ETHY    C1 2465  10.720  12.288   6.233
 2550ETHY    C1 2466  10.506  11.988   5.861
 2551ETHY    C1 2467  10.354  11.730   5.426
 2552ETHY    C1 2468  10.268  11.518   4.937
 2553AUSL   AUS 2469  11.873  14.057   6.829
 2554AUSL   AUS 2470  11.527  14.170   7.086
 2555AUL    AUL 2471  11.546  14.209   6.708
 2556THSLK    S 2472  11.400  14.297   6.895
 2557ETHY    C1 2473  11.223  14.378   6.484
 2558ETHY    C1 2474  10.952  14.518   6.046
 2559ETHY    C1 2475  10.625  14.706   5.679
 2560ETHY    C1 2476  10.256  14.935   5.385
 2561ETHY    C1 2477   9.854  15.202   5.173
 2562ETHY    C1 2478   9.425  15.504   5.047
 2563THSLK    S 2479  11.798  14.013   6.576
 2564ETHY    C1 2480  11.734  13.866   6.150
 2565ETHY    C1 2481  11.631  13.777   5.634
 2566ETHY    C1 2482  11.504  13.788   5.123
 2567ETHY    C1 2483  11.362  13.889   4.629
 2568ETHY    C1 2484  11.209  14.082   4.162
 2569ETHY    C1 2485  11.048  14.365   3.732
 2570AUSL   AUS 2486  12.617  14.314   7.503
 2571AUSL   AUS 2487  12.547  14.170   7.086
 2572AUL    AUL 2488  12.831  14.396   7.199
 2573THSLK    S 2489  12.725  14.269   6.934
 2574ETHY    C1 2490  13.095  14.242   6.671
 2575ETHY    C1 2491  13.517  14.298   6.349
 2576ETHY    C1 2492  13.907  14.452   6.030
 2577ETHY    C1 2493  14.259  14.689   5.724
 2578ETHY    C1 2494  14.566  15.010   5.438
 2579ETHY    C1 2495  14.822  15.409   5.179
 2580THSLK    S 2496  12.883  14.367   7.508
 2581ETHY    C1 2497  13.337  14.389   7.513
 2582ETHY    C1 2498  13.859  14.503   7.514
 2583ETHY    C1 2499  14.342  14.712   7.511
 2584ETHY    C1 2500  14.778  15.002   7.510
 2585ETHY    C1 2501  15.157  15.369   7.510
 2586ETHY    C1 2502  15.471  15.809   7.514
 2587AUSL   AUS 2503  12.711  14.069   7.351
 2588AUSL   AUS 2504  12.711  13.742   7.654
 2589AUL    AUL 2505  13.019  13.905   7.503
 2590THSLK    S 2506  12.967  14.108   7.350
 2591ETHY    C1 2507  13.403  14.000   7.286
 2592ETHY    C1 2508  13.929  13.962   7.201
 2593ETHY    C1 2509  14.444  14.026   7.113
 2594ETHY    C1 2510  14.938  14.180   7.026
 2595ETHY    C1 2511  15.398  14.425   6.945
 2596ETHY    C1 2512  15.817  14.757   6.873
 2597THSLK    S 2513  12.938  13.602   7.663
 2598ETHY    C1 2514  13.257  13.286   7.728
 2599ETHY    C1 2515  13.690  12.982   7.807
 2600ETHY    C1 2516  14.165  12.772   7.887
 2601ETHY    C1 2517  14.668  12.651   7.971
 2602ETHY    C1 2518  15.188  12.625   8.058
 2603ETHY    C1 2519  15.716  12.695   8.147
 2604AUSL   AUS 2520  12.711  14.069   7.654
 2605AUSL   AUS 2521  12.453  14.416   7.767
 2606AUL    AUL 2522  12.831  14.396   7.806
 2607THSLK    S 2523  12.636  14.530   7.926
 2608ETHY    C1 2524  13.019  14.648   8.140
 2609ETHY    C1 2525  13.437  14.871   8.388
 2610ETHY    C1 2526  13.796  15.176   8.622
 2611ETHY    C1 2527  14.093  15.549   8.840
 2612ETHY    C1 2528  14.318  15.983   9.038
 2613ETHY    C1 2529  14.465  16.471   9.215
 2614THSLK    S 2530  12.965  14.108   7.665
 2615ETHY    C1 2531  13.400  14.000   7.740
 2616ETHY    C1 2532  13.926  13.962   7.826
 2617ETHY    C1 2533  14.441  14.025   7.910
 2618ETHY    C1 2534  14.935  14.179   7.993
 2619ETHY    C1 2535  15.396  14.424   8.075
 2620ETHY    C1 2536  15.813  14.756   8.155
 2621AUSL   AUS 2537  11.457  14.314   7.503
 2622AUSL   AUS 2538  11.527  14.170   7.919
 2623AUL    AUL 2539  11.243  14.396   7.806
 2624THSLK    S 2540  11.394  14.289   8.109
 2625ETHY    C1 2541  11.211  14.361   8.519
 2626ETHY    C1 2542  10.939  14.501   8.957
 2627ETHY    C1 2543  10.614  14.692   9.324
 2628ETHY    C1 2544  10.248  14.923   9.619
 2629ETHY    C1 2545   9.845  15.190   9.831
 2630ETHY    C1 2546   9.411  15.486   9.956
 2631THSLK    S 2547  11.246  14.455   7.508
 2632ETHY    C1 2548  11.024  14.852   7.513
 2633ETHY    C1 2549  10.688  15.267   7.514
 2634ETHY    C1 2550  10.285  15.606   7.511
 2635ETHY    C1 2551   9.831  15.867   7.510
 2636ETHY    C1 2552   9.332  16.041   7.510
 2637ETHY    C1 2553   8.799  16.125   7.514
 2638AUSL   AUS 2554  11.363  14.069   7.351
 2639AUSL   AUS 2555  11.621  14.416   7.238
 2640AUL    AUL 2556  11.243  14.396   7.199
 2641THSLK    S 2557  11.136  14.184   7.303
 2642ETHY    C1 2558  10.817  14.384   7.049
 2643ETHY    C1 2559  10.384  14.590   6.813
 2644ETHY    C1 2560   9.909  14.756   6.661
 2645ETHY    C1 2561   9.406  14.885   6.590
 2646ETHY    C1 2562   8.886  14.975   6.605
 2647ETHY    C1 2563   8.358  15.023   6.708
 2648THSLK    S 2564  11.509  14.579   7.060
 2649ETHY    C1 2565  11.430  14.889   6.737
 2650ETHY    C1 2566  11.255  15.263   6.397
 2651ETHY    C1 2567  11.001  15.631   6.120
 2652ETHY    C1 2568  10.681  15.988   5.909
 2653ETHY    C1 2569  10.300  16.326   5.770
 2654ETHY    C1 2570   9.865  16.640   5.709
 2655AUSL   AUS 2571  11.363  14.069   7.654
 2656AUSL   AUS 2572  11.363  13.742   7.351
 2657AUL    AUL 2573  11.055  13.905   7.503
 2658THSLK    S 2574  11.109  13.669   7.394
 2659ETHY    C1 2575  10.674  13.651   7.524
 2660ETHY    C1 2576  10.148  13.591   7.597
 2661ETHY    C1 2577   9.633  13.487   7.578
 2662ETHY    C1 2578   9.139  13.344   7.477
 2663ETHY    C1 2579   8.679  13.161   7.294
 2664ETHY    C1 2580   8.261  12.941   7.034
 2665THSLK    S 2581  11.135  14.175   7.707
 2666ETHY    C1 2582  10.814  14.366   7.966
 2667ETHY    C1 2583  10.381  14.570   8.202
 2668ETHY    C1 2584   9.906  14.741   8.352
 2669ETHY    C1 2585   9.404  14.873   8.422
 2670ETHY    C1 2586   8.884  14.961   8.407
 2671ETHY    C1 2587   8.355  15.002   8.308
 2672AUSL   AUS 2588  12.617  13.496   7.503
 2673AUSL   AUS 2589  12.547  13.641   7.919
 2674AUL    AUL 2590  12.831  13.415   7.806
 2675THSLK    S 2591  12.828  13.355   7.508
 2676ETHY    C1 2592  13.050  12.959   7.513
 2677ETHY    C1 2593  13.386  12.544   7.514
 2678ETHY    C1 2594  13.789  12.205   7.511
 2679ETHY    C1 2595  14.243  11.944   7.510
 2680ETHY    C1 2596  14.742  11.770   7.510
 2681ETHY    C1 2597  15.275  11.686   7.514
 2682THSLK    S 2598  12.674  13.450   8.064
 2683ETHY    C1 2599  12.851  13.085   8.270
 2684ETHY    C1 2600  13.122  12.713   8.540
 2685ETHY    C1 2601  13.449  12.424   8.834
 2686ETHY    C1 2602  13.818  12.216   9.142
 2687ETHY    C1 2603  14.220  12.098   9.462
 2688ETHY    C1 2604  14.649  12.073   9.789
 2689AUSL   AUS 2605  12.711  13.742   7.351
 2690AUSL   AUS 2606  12.453  13.395   7.238
 2691AUL    AUL 2607  12.831  13.415   7.199
 2692THSLK    S 2608  12.939  13.602   7.353
 2693ETHY    C1 2609  13.260  13.285   7.298
 2694ETHY    C1 2610  13.693  12.982   7.221
 2695ETHY    C1 2611  14.168  12.772   7.136
 2696ETHY    C1 2612  14.670  12.651   7.048
 2697ETHY    C1 2613  15.190  12.624   6.963
 2698ETHY    C1 2614  15.719  12.695   6.881
 2699THSLK    S 2615  12.569  13.206   7.108
 2700ETHY    C1 2616  12.653  12.777   6.984
 2701ETHY    C1 2617  12.828  12.305   6.803
 2702ETHY    C1 2618  13.081  11.894   6.593
 2703ETHY    C1 2619  13.399  11.546   6.366
 2704ETHY    C1 2620  13.781  11.271   6.126
 2705ETHY    C1 2621  14.219  11.074   5.880
 2706AUSL   AUS 2622  11.457  13.496   7.503
 2707AUSL   AUS 2623  11.527  13.641   7.086
 2708AUL    AUL 2624  11.243  13.415   7.199
 2709THSLK    S 2625  11.356  13.470   6.978
 2710ETHY    C1 2626  10.992  13.205   6.921
 2711ETHY    C1 2627  10.570  12.915   6.766
 2712ETHY    C1 2628  10.178  12.663   6.521
 2713ETHY    C1 2629   9.824  12.450   6.200
 2714ETHY    C1 2630   9.517  12.277   5.806
 2715ETHY    C1 2631   9.266  12.150   5.346
 2716THSLK    S 2632  11.191  13.444   7.508
 2717ETHY    C1 2633  10.737  13.422   7.513
 2718ETHY    C1 2634  10.215  13.308   7.514
 2719ETHY    C1 2635   9.733  13.099   7.511
 2720ETHY    C1 2636   9.296  12.809   7.510
 2721ETHY    C1 2637   8.917  12.442   7.510
 2722ETHY    C1 2638   8.604  12.002   7.514
 2723AUSL   AUS 2639  11.363  13.742   7.654
 2724AUSL   AUS 2640  11.621  13.395   7.767
 2725AUL    AUL 2641  11.243  13.415   7.806
 2726THSLK    S 2642  11.433  13.255   7.878
 2727ETHY    C1 2643  11.046  13.018   7.893
 2728ETHY    C1 2644  10.628  12.698   7.982
 2729ETHY    C1 2645  10.270  12.349   8.149
 2730ETHY    C1 2646   9.975  11.985   8.382
 2731ETHY    C1 2647   9.750  11.614   8.683
 2732ETHY    C1 2648   9.599  11.243   9.045
 2733THSLK    S 2649  11.107  13.679   7.616
 2734ETHY    C1 2650  10.671  13.669   7.491
 2735ETHY    C1 2651  10.145  13.610   7.419
 2736ETHY    C1 2652   9.630  13.503   7.436
 2737ETHY    C1 2653   9.136  13.357   7.535
 2738ETHY    C1 2654   8.676  13.175   7.718
 2739ETHY    C1 2655   8.257  12.962   7.983
 2740AUSL   AUS 2656  12.037  14.485   7.912
 2741AUSL   AUS 2657  11.621  14.416   7.767
 2742AUL    AUL 2658  11.734  14.700   7.993
 2743THSLK    S 2659  11.505  14.572   7.952
 2744ETHY    C1 2660  11.421  14.874   8.280
 2745ETHY    C1 2661  11.246  15.247   8.621
 2746ETHY    C1 2662  10.993  15.618   8.895
 2747ETHY    C1 2663  10.675  15.977   9.105
 2748ETHY    C1 2664  10.293  16.315   9.244
 2749ETHY    C1 2665   9.855  16.623   9.309
 2750THSLK    S 2666  12.079  14.707   8.035
 2751ETHY    C1 2667  12.263  14.982   8.347
 2752ETHY    C1 2668  12.413  15.362   8.691
 2753ETHY    C1 2669  12.479  15.785   8.998
 2754ETHY    C1 2670  12.466  16.236   9.264
 2755ETHY    C1 2671  12.369  16.705   9.485
 2756ETHY    C1 2672  12.189  17.184   9.656
 2757AUSL   AUS 2673  11.885  14.579   7.666
 2758AUSL   AUS 2674  12.189  14.579   7.339
 2759AUL    AUL 2675  12.037  14.887   7.503
 2760THSLK    S 2676  11.928  14.823   7.776
 2761ETHY    C1 2677  12.072  15.217   7.951
 2762ETHY    C1 2678  12.159  15.711   8.137
 2763ETHY    C1 2679  12.147  16.212   8.294
 2764ETHY    C1 2680  12.046  16.710   8.425
 2765ETHY    C1 2681  11.854  17.191   8.527
 2766ETHY    C1 2682  11.574  17.646   8.600
 2767THSLK    S 2683  12.244  14.810   7.243
 2768ETHY    C1 2684  12.520  15.140   7.096
 2769ETHY    C1 2685  12.770  15.581   6.927
 2770ETHY    C1 2686  12.926  16.058   6.771
 2771ETHY    C1 2687  12.995  16.560   6.635
 2772ETHY    C1 2688  12.971  17.076   6.525
 2773ETHY    C1 2689  12.854  17.596   6.443
 2774AUSL   AUS 2690  12.189  14.579   7.666
 2775AUSL   AUS 2691  12.302  14.322   8.013
 2776AUL    AUL 2692  12.340  14.700   7.993
 2777THSLK    S 2693  12.473  14.430   8.183
 2778ETHY    C1 2694  12.768  14.495   8.523
 2779ETHY    C1 2695  13.086  14.657   8.920
 2780ETHY    C1 2696  13.354  14.906   9.298
 2781ETHY    C1 2697  13.568  15.228   9.653
 2782ETHY    C1 2698  13.720  15.616   9.976
 2783ETHY    C1 2699  13.806  16.066  10.262
 2784THSLK    S 2700  12.242  14.808   7.772
 2785ETHY    C1 2701  12.514  15.136   7.929
 2786ETHY    C1 2702  12.764  15.576   8.100
 2787ETHY    C1 2703  12.922  16.055   8.251
 2788ETHY    C1 2704  12.991  16.557   8.383
 2789ETHY    C1 2705  12.967  17.072   8.494
 2790ETHY    C1 2706  12.848  17.591   8.585
 2791AUSL   AUS 2707  12.037  13.325   7.912
 2792AUSL   AUS 2708  12.453  13.395   7.767
 2793AUL    AUL 2709  12.340  13.111   7.993
 2794THSLK    S 2710  11.990  13.075   7.989
 2795ETHY    C1 2711  11.800  12.679   8.103
 2796ETHY    C1 2712  11.649  12.201   8.289
 2797ETHY    C1 2713  11.586  11.736   8.528
 2798ETHY    C1 2714  11.601  11.294   8.809
 2799ETHY    C1 2715  11.697  10.887   9.132
 2800ETHY    C1 2716  11.872  10.524   9.489
 2801THSLK    S 2717  12.565  13.208   7.907
 2802ETHY    C1 2718  12.644  12.780   8.040
 2803ETHY    C1 2719  12.819  12.310   8.222
 2804ETHY    C1 2720  13.073  11.898   8.428
 2805ETHY    C1 2721  13.393  11.549   8.652
 2806ETHY    C1 2722  13.774  11.274   8.893
 2807ETHY    C1 2723  14.209  11.078   9.147
 2808AUSL   AUS 2724  11.885  13.232   7.666
 2809AUSL   AUS 2725  11.772  13.489   8.013
 2810AUL    AUL 2726  11.734  13.111   7.993
 2811THSLK    S 2727  11.830  12.996   7.745
 2812ETHY    C1 2728  11.555  12.637   7.788
 2813ETHY    C1 2729  11.304  12.172   7.869
 2814ETHY    C1 2730  11.148  11.682   7.981
 2815ETHY    C1 2731  11.079  11.183   8.122
 2816ETHY    C1 2732  11.103  10.683   8.292
 2817ETHY    C1 2733  11.220  10.195   8.489
 2818THSLK    S 2734  11.594  13.323   8.129
 2819ETHY    C1 2735  11.292  13.005   8.248
 2820ETHY    C1 2736  10.973  12.638   8.471
 2821ETHY    C1 2737  10.708  12.301   8.776
 2822ETHY    C1 2738  10.496  11.999   9.147
 2823ETHY    C1 2739  10.343  11.741   9.582
 2824ETHY    C1 2740  10.252  11.534  10.072
 2825AUSL   AUS 2741  12.189  13.232   7.666
 2826AUSL   AUS 2742  11.885  13.232   7.339
 2827AUL    AUL 2743  12.037  12.924   7.503
 2828THSLK    S 2744  11.832  12.993   7.270
 2829ETHY    C1 2745  11.560  12.631   7.236
 2830ETHY    C1 2746  11.310  12.166   7.157
 2831ETHY    C1 2747  11.153  11.677   7.041
 2832ETHY    C1 2748  11.083  11.178   6.896
 2833ETHY    C1 2749  11.107  10.679   6.727
 2834ETHY    C1 2750  11.226  10.188   6.538
 2835THSLK    S 2751  12.143  12.980   7.749
 2836ETHY    C1 2752  11.996  12.554   7.811
 2837ETHY    C1 2753  11.910  12.036   7.906
 2838ETHY    C1 2754  11.922  11.523   8.025
 2839ETHY    C1 2755  12.024  11.028   8.165
 2840ETHY    C1 2756  12.216  10.563   8.325
 2841ETHY    C1 2757  12.494  10.137   8.504
 2842AUSL   AUS 2758  12.037  14.485   7.094
 2843AUSL   AUS 2759  12.453  14.416   7.238
 2844AUL    AUL 2760  12.340  14.700   7.012
 2845THSLK    S 2761  12.084  14.712   6.977
 2846ETHY    C1 2762  12.274  14.991   6.674
 2847ETHY    C1 2763  12.425  15.372   6.330
 2848ETHY    C1 2764  12.489  15.792   6.021
 2849ETHY    C1 2765  12.473  16.242   5.752
 2850ETHY    C1 2766  12.377  16.712   5.532
 2851ETHY    C1 2767  12.202  17.195   5.366
 2852THSLK    S 2768  12.641  14.532   7.089
 2853ETHY    C1 2769  13.028  14.652   6.883
 2854ETHY    C1 2770  13.446  14.875   6.637
 2855ETHY    C1 2771  13.804  15.179   6.400
 2856ETHY    C1 2772  14.099  15.551   6.178
 2857ETHY    C1 2773  14.324  15.986   5.981
 2858ETHY    C1 2774  14.475  16.475   5.811
 2859AUSL   AUS 2775  11.885  14.579   7.339
 2860AUSL   AUS 2776  11.772  14.322   6.992
 2861AUL    AUL 2777  11.734  14.700   7.012
 2862THSLK    S 2778  11.931  14.826   7.239
 2863ETHY    C1 2779  12.078  15.223   7.074
 2864ETHY    C1 2780  12.164  15.717   6.889
 2865ETHY    C1 2781  12.152  16.218   6.727
 2866ETHY    C1 2782  12.050  16.714   6.593
 2867ETHY    C1 2783  11.858  17.195   6.492
 2868ETHY    C1 2784  11.580  17.653   6.427
 2869THSLK    S 2785  11.662  14.454   6.805
 2870ETHY    C1 2786  11.626  14.603   6.377
 2871ETHY    C1 2787  11.516  14.829   5.906
 2872ETHY    C1 2788  11.338  15.104   5.494
 2873ETHY    C1 2789  11.104  15.417   5.145
 2874ETHY    C1 2790  10.818  15.766   4.870
 2875ETHY    C1 2791  10.487  16.144   4.675
 2876AUSL   AUS 2792  12.037  13.325   7.094
 2877AUSL   AUS 2793  11.621  13.395   7.238
 2878AUL    AUL 2794  11.734  13.111   7.012
 2879THSLK    S 2795  11.438  13.247   7.134
 2880ETHY    C1 2796  11.055  13.003   7.124
 2881ETHY    C1 2797  10.637  12.682   7.035
 2882ETHY    C1 2798  10.278  12.336   6.866
 2883ETHY    C1 2799   9.981  11.975   6.631
 2884ETHY    C1 2800   9.756  11.603   6.331
 2885ETHY    C1 2801   9.609  11.226   5.974
 2886THSLK    S 2802  11.995  13.070   7.024
 2887ETHY    C1 2803  11.811  12.669   6.917
 2888ETHY    C1 2804  11.661  12.191   6.732
 2889ETHY    C1 2805  11.595  11.728   6.491
 2890ETHY    C1 2806  11.608  11.288   6.206
 2891ETHY    C1 2807  11.705  10.881   5.885
 2892ETHY    C1 2808  11.885  10.513   5.533
 2893AUSL   AUS 2809  12.189  13.232   7.339
 2894AUSL   AUS 2810  12.302  13.489   6.992
 2895AUL    AUL 2811  12.340  13.111   7.012
 2896THSLK    S 2812  12.146  12.978   7.266
 2897ETHY    C1 2813  12.002  12.550   7.213
 2898ETHY    C1 2814  11.915  12.031   7.120
 2899ETHY    C1 2815  11.927  11.519   6.997
 2900ETHY    C1 2816  12.028  11.025   6.854
 2901ETHY    C1 2817  12.220  10.560   6.695
 2902ETHY    C1 2818  12.500  10.132   6.523
 2903THSLK    S 2819  12.419  13.299   6.859
 2904ETHY    C1 2820  12.463  12.897   6.651
 2905ETHY    C1 2821  12.573  12.466   6.355
 2906ETHY    C1 2822  12.749  12.103   6.017
 2907ETHY    C1 2823  12.980  11.809   5.651
 2908ETHY    C1 2824  13.266  11.592   5.264
 2909ETHY    C1 2825  13.603  11.456   4.865
 2910AUC    AUC 2826  30.638  35.101   7.503
 2911AUC    AUC 2827  30.883  35.101   7.351
 2912AUC    AUC 2828  30.883  35.101   7.654
 2913AUC    AUC 2829  30.393  35.101   7.351
 2914AUC    AUC 2830  30.393  35.101   7.654
 2915AUC    AUC 2831  30.486  35.347   7.503
 2916AUC    AUC 2832  30.790  35.347   7.503
 2917AUC    AUC 2833  30.486  34.856   7.503
 2918AUC    AUC 2834  30.790  34.856   7.503
 2919AUC    AUC 2835  30.638  34.950   7.748
 2920AUC    AUC 2836  30.638  35.253   7.748
 2921AUC    AUC 2837  30.638  34.950   7.257
 2922AUC    AUC 2838  30.638  35.253   7.257
 2923AUC    AUC 2839  31.129  35.101   7.199
 2924AUC    AUC 2840  31.129  35.101   7.503
 2925AUC    AUC 2841  31.129  35.101   7.806
 2926AUC    AUC 2842  30.147  35.101   7.199
 2927AUC    AUC 2843  30.147  35.101   7.503
 2928AUC    AUC 2844  30.147  35.101   7.806
 2929AUC    AUC 2845  30.335  35.592   7.503
 2930AUC    AUC 2846  30.638  35.592   7.503
 2931AUC    AUC 2847  30.941  35.592   7.503
 2932AUC    AUC 2848  30.335  34.611   7.503
 2933AUC    AUC 2849  30.638  34.611   7.503
 2934AUC    AUC 2850  30.941  34.611   7.503
 2935AUC    AUC 2851  30.638  34.798   7.993
 2936AUC    AUC 2852  30.638  35.101   7.993
 2937AUC    AUC 2853  30.638  35.405   7.993
 2938AUC    AUC 2854  30.638  34.798   7.012
 2939AUC    AUC 2855  30.638  35.101   7.012
 2940AUC    AUC 2856  30.638  35.405   7.012
 2941AUC    AUC 2857  30.883  34.950   7.900
 2942AUC    AUC 2858  30.883  35.253   7.900
 2943AUC    AUC 2859  30.883  34.950   7.106
 2944AUC    AUC 2860  30.883  35.253   7.106
 2945AUC    AUC 2861  30.393  34.950   7.900
 2946AUC    AUC 2862  30.393  35.253   7.900
 2947AUC    AUC 2863  30.393  34.950   7.106
 2948AUC    AUC 2864  30.393  35.253   7.106
 2949AUC    AUC 2865  31.035  35.347   7.351
 2950AUC    AUC 2866  31.035  35.347   7.654
 2951AUC    AUC 2867  30.241  35.347   7.351
 2952AUC    AUC 2868  30.241  35.347   7.654
 2953AUC    AUC 2869  31.035  34.856   7.351
 2954AUC    AUC 2870  31.035  34.856   7.654
 2955AUC    AUC 2871  30.241  34.856   7.351
 2956AUC    AUC 2872  30.241  34.856   7.654
 2957AUC    AUC 2873  30.486  35.499   7.748
 2958AUC    AUC 2874  30.790  35.499   7.748
 2959AUC    AUC 2875  30.486  34.704   7.748
 2960AUC    AUC 2876  30.790  34.704   7.748
 2961AUC    AUC 2877  30.486  35.499   7.257
 2962AUC    AUC 2878  30.790  35.499   7.257
 2963AUC    AUC 2879  30.486  34.704   7.257
 2964AUC    AUC 2880  30.790  34.704   7.257
 2965AUSL   AUS 2881  31.047  35.101   8.083
 2966AUSL   AUS 2882  30.903  34.685   8.013
 2967AUL    AUL 2883  31.129  34.798   8.297
 2968THSLK    S 2884  31.013  34.498   8.153
 2969ETHY    C1 2885  31.049  34.099   8.368
 2970ETHY    C1 2886  31.159  33.669   8.665
 2971ETHY    C1 2887  31.337  33.305   9.000
 2972ETHY    C1 2888  31.571  33.009   9.364
 2973ETHY    C1 2889  31.857  32.792   9.752
 2974ETHY    C1 2890  32.188  32.659  10.156
 2975THSLK    S 2891  31.140  35.049   8.324
 2976ETHY    C1 2892  31.344  34.829   8.665
 2977ETHY    C1 2893  31.608  34.652   9.094
 2978ETHY    C1 2894  31.884  34.576   9.535
 2979ETHY    C1 2895  32.161  34.593   9.980
 2980ETHY    C1 2896  32.431  34.706  10.419
 2981ETHY    C1 2897  32.690  34.915  10.845
 2982AUSL   AUS 2898  30.802  34.950   8.176
 2983AUSL   AUS 2899  30.474  35.253   8.176
 2984AUL    AUL 2900  30.638  35.101   8.484
 2985THSLK    S 2901  30.877  34.895   8.413
 2986ETHY    C1 2902  30.941  34.615   8.765
 2987ETHY    C1 2903  31.044  34.360   9.223
 2988ETHY    C1 2904  31.171  34.201   9.708
 2989ETHY    C1 2905  31.313  34.132  10.208
 2990ETHY    C1 2906  31.467  34.160  10.713
 2991ETHY    C1 2907  31.627  34.284  11.212
 2992THSLK    S 2908  30.389  35.207   8.428
 2993ETHY    C1 2909  30.315  35.057   8.850
 2994ETHY    C1 2910  30.210  34.969   9.367
 2995ETHY    C1 2911  30.088  34.981   9.878
 2996ETHY    C1 2912  29.950  35.082  10.373
 2997ETHY    C1 2913  29.795  35.275  10.840
 2998ETHY    C1 2914  29.626  35.556  11.268
 2999AUSL   AUS 2915  30.802  35.253   8.176
 3000AUSL   AUS 2916  31.148  35.366   7.919
 3001AUL    AUL 2917  31.129  35.405   8.297
 3002THSLK    S 2918  30.887  35.309   8.410
 3003ETHY    C1 2919  30.961  35.590   8.759
 3004ETHY    C1 2920  31.066  35.845   9.217
 3005ETHY    C1 2921  31.188  36.004   9.703
 3006ETHY    C1 2922  31.327  36.073  10.204
 3007ETHY    C1 2923  31.481  36.046  10.708
 3008ETHY    C1 2924  31.650  35.922  11.206
 3009THSLK    S 2925  31.320  35.464   8.080
 3010ETHY    C1 2926  31.683  35.435   8.350
 3011ETHY    C1 2927  32.105  35.491   8.673
 3012ETHY    C1 2928  32.497  35.645   8.989
 3013ETHY    C1 2929  32.851  35.883   9.293
 3014ETHY    C1 2930  33.158  36.204   9.580
 3015ETHY    C1 2931  33.409  36.601   9.844
 3016AUSL   AUS 2932  31.047  35.101   6.923
 3017AUSL   AUS 2933  30.903  35.518   6.992
 3018AUL    AUL 2934  31.129  35.405   6.708
 3019THSLK    S 2935  31.149  35.049   6.687
 3020ETHY    C1 2936  31.362  34.829   6.351
 3021ETHY    C1 2937  31.627  34.652   5.923
 3022ETHY    C1 2938  31.899  34.576   5.479
 3023ETHY    C1 2939  32.173  34.593   5.033
 3024ETHY    C1 2940  32.444  34.706   4.594
 3025ETHY    C1 2941  32.709  34.915   4.173
 3026THSLK    S 2942  31.081  35.629   6.829
 3027ETHY    C1 2943  31.383  35.697   6.497
 3028ETHY    C1 2944  31.702  35.860   6.100
 3029ETHY    C1 2945  31.967  36.107   5.719
 3030ETHY    C1 2946  32.179  36.427   5.362
 3031ETHY    C1 2947  32.332  36.817   5.039
 3032ETHY    C1 2948  32.423  37.269   4.759
 3033AUSL   AUS 2949  30.802  34.950   6.829
 3034AUSL   AUS 2950  31.148  34.837   7.086
 3035AUL    AUL 2951  31.129  34.798   6.708
 3036THSLK    S 2952  31.281  34.645   6.949
 3037ETHY    C1 2953  31.464  34.278   6.752
 3038ETHY    C1 2954  31.736  33.906   6.483
 3039ETHY    C1 2955  32.061  33.617   6.186
 3040ETHY    C1 2956  32.427  33.410   5.874
 3041ETHY    C1 2957  32.831  33.291   5.555
 3042ETHY    C1 2958  33.264  33.266   5.235
 3043THSLK    S 2959  30.887  34.894   6.596
 3044ETHY    C1 2960  30.961  34.613   6.246
 3045ETHY    C1 2961  31.066  34.357   5.788
 3046ETHY    C1 2962  31.188  34.199   5.302
 3047ETHY    C1 2963  31.327  34.130   4.801
 3048ETHY    C1 2964  31.481  34.157   4.297
 3049ETHY    C1 2965  31.650  34.281   3.799
 3050AUSL   AUS 2966  30.802  35.253   6.829
 3051AUSL   AUS 2967  30.474  34.950   6.829
 3052AUL    AUL 2968  30.638  35.101   6.521
 3053THSLK    S 2969  30.382  34.894   6.597
 3054ETHY    C1 2970  30.247  34.616   6.264
 3055ETHY    C1 2971  30.086  34.363   5.822
 3056ETHY    C1 2972  29.934  34.206   5.343
 3057ETHY    C1 2973  29.798  34.137   4.842
 3058ETHY    C1 2974  29.681  34.163   4.328
 3059ETHY    C1 2975  29.588  34.282   3.810
 3060THSLK    S 2976  30.904  35.207   6.583
 3061ETHY    C1 2977  31.050  35.057   6.179
 3062ETHY    C1 2978  31.212  34.966   5.678
 3063ETHY    C1 2979  31.359  34.976   5.173
 3064ETHY    C1 2980  31.492  35.077   4.677
 3065ETHY    C1 2981  31.609  35.272   4.200
 3066ETHY    C1 2982  31.710  35.558   3.754
 3067AUSL   AUS 2983  30.229  35.101   8.083
 3068AUSL   AUS 2984  30.373  35.518   8.013
 3069AUL    AUL 2985  30.147  35.405   8.297
 3070THSLK    S 2986  30.127  35.049   8.319
 3071ETHY    C1 2987  29.915  34.829   8.654
 3072ETHY    C1 2988  29.649  34.652   9.082
 3073ETHY    C1 2989  29.377  34.576   9.526
 3074ETHY    C1 2990  29.103  34.593   9.973
 3075ETHY    C1 2991  28.832  34.706  10.411
 3076ETHY    C1 2992  28.567  34.915  10.832
 3077THSLK    S 2993  30.256  35.642   8.202
 3078ETHY    C1 2994  30.213  35.785   8.632
 3079ETHY    C1 2995  30.102  36.010   9.104
 3080ETHY    C1 2996  29.926  36.287   9.515
 3081ETHY    C1 2997  29.695  36.603   9.863
 3082ETHY    C1 2998  29.409  36.951  10.138
 3083ETHY    C1 2999  29.072  37.324  10.334
 3084AUSL   AUS 3000  30.474  34.950   8.176
 3085AUSL   AUS 3001  30.128  34.837   7.919
 3086AUL    AUL 3002  30.147  34.798   8.297
 3087THSLK    S 3003  29.951  34.674   8.026
 3088ETHY    C1 3004  29.580  34.417   8.082
 3089ETHY    C1 3005  29.158  34.129   8.237
 3090ETHY    C1 3006  28.768  33.874   8.482
 3091ETHY    C1 3007  28.416  33.657   8.803
 3092ETHY    C1 3008  28.110  33.486   9.198
 3093ETHY    C1 3009  27.853  33.365   9.657
 3094THSLK    S 3010  30.372  34.896   8.406
 3095ETHY    C1 3011  30.226  34.620   8.736
 3096ETHY    C1 3012  30.064  34.368   9.178
 3097ETHY    C1 3013  29.917  34.210   9.658
 3098ETHY    C1 3014  29.784  34.140  10.160
 3099ETHY    C1 3015  29.667  34.166  10.674
 3100ETHY    C1 3016  29.566  34.287  11.190
 3101AUSL   AUS 3017  30.229  35.101   6.923
 3102AUSL   AUS 3018  30.373  34.685   6.992
 3103AUL    AUL 3019  30.147  34.798   6.708
 3104THSLK    S 3020  30.136  35.049   6.681
 3105ETHY    C1 3021  29.932  34.829   6.341
 3106ETHY    C1 3022  29.668  34.652   5.911
 3107ETHY    C1 3023  29.392  34.576   5.470
 3108ETHY    C1 3024  29.115  34.593   5.025
 3109ETHY    C1 3025  28.845  34.706   4.586
 3110ETHY    C1 3026  28.586  34.915   4.161
 3111THSLK    S 3027  30.202  34.512   6.878
 3112ETHY    C1 3028  29.907  34.186   6.760
 3113ETHY    C1 3029  29.589  33.819   6.538
 3114ETHY    C1 3030  29.321  33.484   6.233
 3115ETHY    C1 3031  29.107  33.184   5.861
 3116ETHY    C1 3032  28.955  32.926   5.426
 3117ETHY    C1 3033  28.869  32.714   4.937
 3118AUSL   AUS 3034  30.474  35.253   6.829
 3119AUSL   AUS 3035  30.128  35.366   7.086
 3120AUL    AUL 3036  30.147  35.405   6.708
 3121THSLK    S 3037  30.001  35.493   6.895
 3122ETHY    C1 3038  29.824  35.574   6.484
 3123ETHY    C1 3039  29.553  35.714   6.046
 3124ETHY    C1 3040  29.226  35.902   5.679
 3125ETHY    C1 3041  28.857  36.131   5.385
 3126ETHY    C1 3042  28.455  36.398   5.173
 3127ETHY    C1 3043  28.026  36.700   5.047
 3128THSLK    S 3044  30.399  35.209   6.576
 3129ETHY    C1 3045  30.335  35.062   6.150
 3130ETHY    C1 3046  30.232  34.973   5.634
 3131ETHY    C1 3047  30.105  34.984   5.123
 3132ETHY    C1 3048  29.963  35.085   4.629
 3133ETHY    C1 3049  29.810  35.278   4.162
 3134ETHY    C1 3050  29.649  35.561   3.732
 3135AUSL   AUS 3051  31.218  35.510   7.503
 3136AUSL   AUS 3052  31.148  35.366   7.086
 3137AUL    AUL 3053  31.432  35.592   7.199
 3138THSLK    S 3054  31.326  35.465   6.934
 3139ETHY    C1 3055  31.696  35.438   6.671
 3140ETHY    C1 3056  32.118  35.494   6.349
 3141ETHY    C1 3057  32.508  35.648   6.030
 3142ETHY    C1 3058  32.860  35.885   5.724
 3143ETHY    C1 3059  33.167  36.206   5.438
 3144ETHY    C1 3060  33.423  36.605   5.179
 3145THSLK    S 3061  31.484  35.563   7.508
 3146ETHY    C1 3062  31.938  35.585   7.513
 3147ETHY    C1 3063  32.460  35.699   7.514
 3148ETHY    C1 3064  32.943  35.908   7.511
 3149ETHY    C1 3065  33.379  36.198   7.510
 3150ETHY    C1 3066  33.758  36.565   7.510
 3151ETHY    C1 3067  34.072  37.005   7.514
 3152AUSL   AUS 3068  31.312  35.265   7.351
 3153AUSL   AUS 3069  31.312  34.938   7.654
 3154AUL    AUL 3070  31.620  35.101   7.503
 3155THSLK    S 3071  31.568  35.304   7.350
 3156ETHY    C1 3072  32.004  35.196   7.286
 3157ETHY    C1 3073  32.530  35.158   7.201
 3158ETHY    C1 3074  33.045  35.222   7.113
 3159ETHY    C1 3075  33.539  35.376   7.026
 3160ETHY    C1 3076  33.999  35.621   6.945
 3161ETHY    C1 3077  34.418  35.953   6.873
 3162THSLK    S 3078  31.539  34.798   7.663
 3163ETHY    C1 3079  31.858  34.482   7.728
 3164ETHY    C1 3080  32.291  34.178   7.807
 3165ETHY    C1 3081  32.766  33.968   7.887
 3166ETHY    C1 3082  33.269  33.847   7.971
 3167ETHY    C1 3083  33.789  33.821   8.058
 3168ETHY    C1 3084  34.317  33.891   8.147
 3169AUSL   AUS 3085  31.312  35.265   7.654
 3170AUSL   AUS 3086  31.054  35.612   7.767
 3171AUL    AUL 3087  31.432  35.592   7.806
 3172THSLK    S 3088  31.237  35.726   7.926
 3173ETHY    C1 3089  31.620  35.844   8.140
 3174ETHY    C1 3090  32.038  36.067   8.388
 3175ETHY    C1 3091  32.397  36.372   8.622
 3176ETHY    C1 3092  32.694  36.745   8.840
 3177ETHY    C1 3093  32.919  37.179   9.038
 3178ETHY    C1 3094  33.066  37.667   9.215
 3179THSLK    S 3095  31.566  35.304   7.665
 3180ETHY    C1 3096  32.001  35.196   7.740
 3181ETHY    C1 3097  32.527  35.158   7.826
 3182ETHY    C1 3098  33.042  35.221   7.910
 3183ETHY    C1 3099  33.536  35.375   7.993
 3184ETHY    C1 3100  33.997  35.620   8.075
 3185ETHY    C1 3101  34.414  35.952   8.155
 3186AUSL   AUS 3102  30.058  35.510   7.503
 3187AUSL   AUS 3103  30.128  35.366   7.919
 3188AUL    AUL 3104  29.844  35.592   7.806
 3189THSLK    S 3105  29.995  35.485   8.109
 3190ETHY    C1 3106  29.812  35.557   8.519
 3191ETHY    C1 3107  29.540  35.697   8.957
 3192ETHY    C1 3108  29.215  35.888   9.324
 3193ETHY    C1 3109  28.849  36.119   9.619
 3194ETHY    C1 3110  28.446  36.386   9.831
 3195ETHY    C1 3111  28.012  36.682   9.956
 3196THSLK    S 3112  29.847  35.651   7.508
 3197ETHY    C1 3113  29.625  36.048   7.513
 3198ETHY    C1 3114  29.289  36.463   7.514
 3199ETHY    C1 3115  28.886  36.802   7.511
 3200ETHY    C1 3116  28.432  37.063   7.510
 3201ETHY    C1 3117  27.933  37.237   7.510
 3202ETHY    C1 3118  27.400  37.321   7.514
 3203AUSL   AUS 3119  29.964  35.265   7.351
 3204AUSL   AUS 3120  30.222  35.612   7.238
 3205AUL    AUL 3121  29.844  35.592   7.199
 3206THSLK    S 3122  29.737  35.380   7.303
 3207ETHY    C1 3123  29.418  35.580   7.049
 3208ETHY    C1 3124  28.985  35.786   6.813
 3209ETHY    C1 3125  28.510  35.952   6.661
 3210ETHY    C1 3126  28.007  36.081   6.590
 3211ETHY    C1 3127  27.487  36.171   6.605
 3212ETHY    C1 3128  26.959  36.219   6.708
 3213THSLK    S 3129  30.110  35.775   7.060
 3214ETHY    C1 3130  30.031  36.085   6.737
 3215ETHY    C1 3131  29.856  36.459   6.397
 3216ETHY    C1 3132  29.602  36.827   6.120
 3217ETHY    C1 3133  29.282  37.184   5.909
 3218ETHY    C1 3134  28.901  37.522   5.770
 3219ETHY    C1 3135  28.466  37.836   5.709
 3220AUSL   AUS 3136  29.964  35.265   7.654
 3221AUSL   AUS 3137  29.964  34.938   7.351
 3222AUL    AUL 3138  29.656  35.101   7.503
 3223THSLK    S 3139  29.710  34.865   7.394
 3224ETHY    C1 3140  29.275  34.847   7.524
 3225ETHY    C1 3141  28.749  34.787   7.597
 3226ETHY    C1 3142  28.234  34.683   7.578
 3227ETHY    C1 3143  27.740  34.540   7.477
 3228ETHY    C1 3144  27.280  34.357   7.294
 3229ETHY    C1 3145  26.862  34.137   7.034
 3230THSLK    S 3146  29.736  35.371   7.707
 3231ETHY    C1 3147  29.415  35.562   7.966
 3232ETHY    C1 3148  28.982  35.766   8.202
 3233ETHY    C1 3149  28.507  35.937   8.352
 3234ETHY    C1 3150  28.005  36.069   8.422
 3235ETHY    C1 3151  27.485  36.157   8.407
 3236ETHY    C1 3152  26.956  36.198   8.308
 3237AUSL   AUS 3153  31.218  34.692   7.503
 3238AUSL   AUS 3154  31.148  34.837   7.919
 3239AUL    AUL 3155  31.432  34.611   7.806
 3240THSLK    S 3156  31.429  34.551   7.508
 3241ETHY    C1 3157  31.651  34.155   7.513
 3242ETHY    C1 3158  31.987  33.740   7.514
 3243ETHY    C1 3159  32.390  33.401   7.511
 3244ETHY    C1 3160  32.844  33.140   7.510
 3245ETHY    C1 3161  33.343  32.966   7.510
 3246ETHY    C1 3162  33.876  32.882   7.514
 3247THSLK    S 3163  31.275  34.646   8.064
 3248ETHY    C1 3164  31.452  34.281   8.270
 3249ETHY    C1 3165  31.723  33.909   8.540
 3250ETHY    C1 3166  32.050  33.620   8.834
 3251ETHY    C1 3167  32.419  33.412   9.142
 3252ETHY    C1 3168  32.821  33.294   9.462
 3253ETHY    C1 3169  33.250  33.269   9.789
 3254AUSL   AUS 3170  31.312  34.938   7.351
 3255AUSL   AUS 3171  31.054  34.591   7.238
 3256AUL    AUL 3172  31.432  34.611   7.199
 3257THSLK    S 3173  31.540  34.798   7.353
 3258ETHY    C1 3174  31.861  34.481   7.298
 3259ETHY    C1 3175  32.294  34.178   7.221
 3260ETHY    C1 3176  32.769  33.968   7.136
 3261ETHY    C1 3177  33.271  33.847   7.048
 3262ETHY    C1 3178  33.791  33.820   6.963
 3263ETHY    C1 3179  34.320  33.891   6.881
 3264THSLK    S 3180  31.170  34.402   7.108
 3265ETHY    C1 3181  31.254  33.973   6.984
 3266ETHY    C1 3182  31.429  33.501   6.803
 3267ETHY    C1 3183  31.682  33.090   6.593
 3268ETHY    C1 3184  32.000  32.742   6.366
 3269ETHY    C1 3185  32.382  32.467   6.126
 3270ETHY    C1 3186  32.820  32.270   5.880
 3271AUSL   AUS 3187  30.058  34.692   7.503
 3272AUSL   AUS 3188  30.128  34.837   7.086
 3273AUL    AUL 3189  29.844  34.611   7.199
 3274THSLK    S 3190  29.957  34.666   6.978
 3275ETHY    C1 3191  29.593  34.401   6.921
 3276ETHY    C1 3192  29.171  34.111   6.766
 3277ETHY    C1 3193  28.779  33.859   6.521
 3278ETHY    C1 3194  28.425  33.646   6.200
 3279ETHY    C1 3195  28.118  33.473   5.806
 3280ETHY    C1 3196  27.867  33.346   5.346
 3281THSLK    S 3197  29.792  34.640   7.508
 3282ETHY    C1 3198  29.338  34.618   7.513
 3283ETHY    C1 3199  28.816  34.504   7.514
 3284ETHY    C1 3200  28.334  34.295   7.511
 3285ETHY    C1 3201  27.897  34.005   7.510
 3286ETHY    C1 3202  27.518  33.638   7.510
 3287ETHY    C1 3203  27.205  33.198   7.514
 3288AUSL   AUS 3204  29.964  34.938   7.654
 3289AUSL   AUS 3205  30.222  34.591   7.767
 3290AUL    AUL 3206  29.844  34.611   7.806
 3291THSLK    S 3207  30.034  34.451   7.878
 3292ETHY    C1 3208  29.647  34.214   7.893
 3293ETHY    C1 3209  29.229  33.894   7.982
 3294ETHY    C1 3210  28.871  33.545   8.149
 3295ETHY    C1 3211  28.576  33.181   8.382
 3296ETHY    C1 3212  28.351  32.810   8.683
 3297ETHY    C1 3213  28.200  32.439   9.045
 3298THSLK    S 3214  29.708  34.875   7.616
 3299ETHY    C1 3215  29.272  34.865   7.491
 3300ETHY    C1 3216  28.746  34.806   7.419
 3301ETHY    C1 3217  28.231  34.699   7.436
 3302ETHY    C1 3218  27.737  34.553   7.535
 3303ETHY    C1 3219  27.277  34.371   7.718
 3304ETHY    C1 3220  26.858  34.158   7.983
 3305AUSL   AUS 3221  30.638  35.681   7.912
 3306AUSL   AUS 3222  30.222  35.612   7.767
 3307AUL    AUL 3223  30.335  35.896   7.993
 3308THSLK    S 3224  30.106  35.768   7.952
 3309ETHY    C1 3225  30.022  36.070   8.280
 3310ETHY    C1 3226  29.847  36.443   8.621
 3311ETHY    C1 3227  29.594  36.814   8.895
 3312ETHY    C1 3228  29.276  37.173   9.105
 3313ETHY    C1 3229  28.894  37.511   9.244
 3314ETHY    C1 3230  28.456  37.819   9.309
 3315THSLK    S 3231  30.680  35.903   8.035
 3316ETHY    C1 3232  30.864  36.178   8.347
 3317ETHY    C1 3233  31.014  36.558   8.691
 3318ETHY    C1 3234  31.080  36.981   8.998
 3319ETHY    C1 3235  31.067  37.432   9.264
 3320ETHY    C1 3236  30.970  37.901   9.485
 3321ETHY    C1 3237  30.790  38.380   9.656
 3322AUSL   AUS 3238  30.486  35.775   7.666
 3323AUSL   AUS 3239  30.790  35.775   7.339
 3324AUL    AUL 3240  30.638  36.083   7.503
 3325THSLK    S 3241  30.529  36.019   7.776
 3326ETHY    C1 3242  30.673  36.413   7.951
 3327ETHY    C1 3243  30.760  36.907   8.137
 3328ETHY    C1 3244  30.748  37.408   8.294
 3329ETHY    C1 3245  30.647  37.906   8.425
 3330ETHY    C1 3246  30.455  38.387   8.527
 3331ETHY    C1 3247  30.175  38.842   8.600
 3332THSLK    S 3248  30.845  36.006   7.243
 3333ETHY    C1 3249  31.121  36.336   7.096
 3334ETHY    C1 3250  31.371  36.777   6.927
 3335ETHY    C1 3251  31.527  37.254   6.771
 3336ETHY    C1 3252  31.596  37.756   6.635
 3337ETHY    C1 3253  31.572  38.272   6.525
 3338ETHY    C1 3254  31.455  38.792   6.443
 3339AUSL   AUS 3255  30.790  35.775   7.666
 3340AUSL   AUS 3256  30.903  35.518   8.013
 3341AUL    AUL 3257  30.941  35.896   7.993
 3342THSLK    S 3258  31.074  35.626   8.183
 3343ETHY    C1 3259  31.369  35.691   8.523
 3344ETHY    C1 3260  31.687  35.853   8.920
 3345ETHY    C1 3261  31.955  36.102   9.298
 3346ETHY    C1 3262  32.169  36.424   9.653
 3347ETHY    C1 3263  32.321  36.812   9.976
 3348ETHY    C1 3264  32.407  37.262  10.262
 3349THSLK    S 3265  30.843  36.004   7.772
 3350ETHY    C1 3266  31.115  36.332   7.929
 3351ETHY    C1 3267  31.365  36.772   8.100
 3352ETHY    C1 3268  31.523  37.251   8.251
 3353ETHY    C1 3269  31.592  37.753   8.383
 3354ETHY    C1 3270  31.568  38.268   8.494
 3355ETHY    C1 3271  31.449  38.787   8.585
 3356AUSL   AUS 3272  30.638  34.521   7.912
 3357AUSL   AUS 3273  31.054  34.591   7.767
 3358AUL    AUL 3274  30.941  34.307   7.993
 3359THSLK    S 3275  30.591  34.271   7.989
 3360ETHY    C1 3276  30.401  33.875   8.103
 3361ETHY    C1 3277  30.250  33.397   8.289
 3362ETHY    C1 3278  30.187  32.932   8.528
 3363ETHY    C1 3279  30.202  32.490   8.809
 3364ETHY    C1 3280  30.298  32.083   9.132
 3365ETHY    C1 3281  30.473  31.720   9.489
 3366THSLK    S 3282  31.166  34.404   7.907
 3367ETHY    C1 3283  31.245  33.976   8.040
 3368ETHY    C1 3284  31.420  33.506   8.222
 3369ETHY    C1 3285  31.674  33.094   8.428
 3370ETHY    C1 3286  31.994  32.745   8.652
 3371ETHY    C1 3287  32.375  32.470   8.893
 3372ETHY    C1 3288  32.810  32.274   9.147
 3373AUSL   AUS 3289  30.486  34.428   7.666
 3374AUSL   AUS 3290  30.373  34.685   8.013
 3375AUL    AUL 3291  30.335  34.307   7.993
 3376THSLK    S 3292  30.431  34.192   7.745
 3377ETHY    C1 3293  30.156  33.833   7.788
 3378ETHY    C1 3294  29.905  33.368   7.869
 3379ETHY    C1 3295  29.749  32.878   7.981
 3380ETHY    C1 3296  29.680  32.379   8.122
 3381ETHY    C1 3297  29.704  31.879   8.292
 3382ETHY    C1 3298  29.821  31.391   8.489
 3383THSLK    S 3299  30.195  34.519   8.129
 3384ETHY    C1 3300  29.893  34.201   8.248
 3385ETHY    C1 3301  29.574  33.834   8.471
 3386ETHY    C1 3302  29.309  33.497   8.776
 3387ETHY    C1 3303  29.097  33.195   9.147
 3388ETHY    C1 3304  28.944  32.937   9.582
 3389ETHY    C1 3305  28.853  32.730  10.072
 3390AUSL   AUS 3306  30.790  34.428   7.666
 3391AUSL   AUS 3307  30.486  34.428   7.339
 3392AUL    AUL 3308  30.638  34.120   7.503
 3393THSLK    S 3309  30.433  34.189   7.270
 3394ETHY    C1 3310  30.161  33.827   7.236
 3395ETHY    C1 3311  29.911  33.362   7.157
 3396ETHY    C1 3312  29.754  32.873   7.041
 3397ETHY    C1 3313  29.684  32.374   6.896
 3398ETHY    C1 3314  29.708  31.875   6.727
 3399ETHY    C1 3315  29.827  31.384   6.538
 3400THSLK    S 3316  30.744  34.176   7.749
 3401ETHY    C1 3317  30.597  33.750   7.811
 3402ETHY    C1 3318  30.511  33.232   7.906
 3403ETHY    C1 3319  30.523  32.719   8.025
 3404ETHY    C1 3320  30.625  32.224   8.165
 3405ETHY    C1 3321  30.817  31.759   8.325
 3406ETHY    C1 3322  31.095  31.333   8.504
 3407AUSL   AUS 3323  30.638  35.681   7.094
 3408AUSL   AUS 3324  31.054  35.612   7.238
 3409AUL    AUL 3325  30.941  35.896   7.012
 3410THSLK    S 3326  30.685  35.908   6.977
 3411ETHY    C1 3327  30.875  36.187   6.674
 3412ETHY    C1 3328  31.026  36.568   6.330
 3413ETHY    C1 3329  31.090  36.988   6.021
 3414ETHY    C1 3330  31.074  37.438   5.752
 3415ETHY    C1 3331  30.978  37.908   5.532
 3416ETHY    C1 3332  30.803  38.391   5.366
 3417THSLK    S 3333  31.242  35.728   7.089
 3418ETHY    C1 3334  31.629  35.848   6.883
 3419ETHY    C1 3335  32.047  36.071   6.637
 3420ETHY    C1 3336  32.405  36.375   6.400
 3421ETHY    C1 3337  32.700  36.747   6.178
 3422ETHY    C1 3338  32.925  37.182   5.981
 3423ETHY    C1 3339  33.076  37.671   5.811
 3424AUSL   AUS 3340  30.486  35.775   7.339
 3425AUSL   AUS 3341  30.373  35.518   6.992
 3426AUL    AUL 3342  30.335  35.896   7.012
 3427THSLK    S 3343  30.532  36.022   7.239
 3428ETHY    C1 3344  30.679  36.419   7.074
 3429ETHY    C1 3345  30.765  36.913   6.889
 3430ETHY    C1 3346  30.753  37.414   6.727
 3431ETHY    C1 3347  30.651  37.910   6.593
 3432ETHY    C1 3348  30.459  38.391   6.492
 3433ETHY    C1 3349  30.181  38.849   6.427
 3434THSLK    S 3350  30.263  35.650   6.805
 3435ETHY    C1 3351  30.227  35.799   6.377
 3436ETHY    C1 3352  30.117  36.025   5.906
 3437ETHY    C1 3353  29.939  36.300   5.494
 3438ETHY    C1 3354  29.705  36.613   5.145
 3439ETHY    C1 3355  29.419  36.962   4.870
 3440ETHY    C1 3356  29.088  37.340   4.675
 3441AUSL   AUS 3357  30.638  34.521   7.094
 3442AUSL   AUS 3358  30.222  34.591   7.238
 3443AUL    AUL 3359  30.335  34.307   7.012
 3444THSLK    S 3360  30.039  34.443   7.134
 3445ETHY    C1 3361  29.656  34.199   7.124
 3446ETHY    C1 3362  29.238  33.878   7.035
 3447ETHY    C1 3363  28.879  33.532   6.866
 3448ETHY    C1 3364  28.582  33.171   6.631
 3449ETHY    C1 3365  28.357  32.799   6.331
 3450ETHY    C1 3366  28.210  32.422   5.974
 3451THSLK    S 3367  30.596  34.266   7.024
 3452ETHY    C1 3368  30.412  33.865   6.917
 3453ETHY    C1 3369  30.262  33.387   6.732
 3454ETHY    C1 3370  30.196  32.924   6.491
 3455ETHY    C1 3371  30.209  32.484   6.206
 3456ETHY    C1 3372  30.306  32.077   5.885
 3457ETHY    C1 3373  30.486  31.709   5.533
 3458AUSL   AUS 3374  30.790  34.428   7.339
 3459AUSL   AUS 3375  30.903  34.685   6.992
 3460AUL    AUL 3376  30.941  34.307   7.012
 3461THSLK    S 3377  30.747  34.174   7.266
 3462ETHY    C1 3378  30.603  33.746   7.213
 3463ETHY    C1 3379  30.516  33.227   7.120
 3464ETHY    C1 3380  30.528  32.715   6.997
 3465ETHY    C1 3381  30.629  32.221   6.854
 3466ETHY    C1 3382  30.821  31.756   6.695
 3467ETHY    C1 3383  31.101  31.328   6.523
 3468THSLK    S 3384  31.020  34.495   6.859
 3469ETHY    C1 3385  31.064  34.093   6.651
 3470ETHY    C1 3386  31.174  33.662   6.355
 3471ETHY    C1 3387  31.350  33.299   6.017
 3472ETHY    C1 3388  31.581  33.005   5.651
 3473ETHY    C1 3389  31.867  32.788   5.264
 3474ETHY    C1 3390  32.204  32.652   4.865
 3475AUC    AUC 3391  32.408  12.222   7.503
 3476AUC    AUC 3392  32.653  12.222   7.351
 3477AUC    AUC 3393  32.653  12.222   7.654
 3478AUC    AUC 3394  32.163  12.222   7.351
 3479AUC    AUC 3395  32.163  12.222   7.654
 3480AUC    AUC 3396  32.256  12.468   7.503
 3481AUC    AUC 3397  32.560  12.468   7.503
 3482AUC    AUC 3398  32.256  11.977   7.503
 3483AUC    AUC 3399  32.560  11.977   7.503
 3484AUC    AUC 3400  32.408  12.071   7.748
 3485AUC    AUC 3401  32.408  12.374   7.748
 3486AUC    AUC 3402  32.408  12.071   7.257
 3487AUC    AUC 3403  32.408  12.374   7.257
 3488AUC    AUC 3404  32.899  12.222   7.199
 3489AUC    AUC 3405  32.899  12.222   7.503
 3490AUC    AUC 3406  32.899  12.222   7.806
 3491AUC    AUC 3407  31.917  12.222   7.199
 3492AUC    AUC 3408  31.917  12.222   7.503
 3493AUC    AUC 3409  31.917  12.222   7.806
 3494AUC    AUC 3410  32.105  12.713   7.503
 3495AUC    AUC 3411  32.408  12.713   7.503
 3496AUC    AUC 3412  32.711  12.713   7.503
 3497AUC    AUC 3413  32.105  11.732   7.503
 3498AUC    AUC 3414  32.408  11.732   7.503
 3499AUC    AUC 3415  32.711  11.732   7.503
 3500AUC    AUC 3416  32.408  11.919   7.993
 3501AUC    AUC 3417  32.408  12.222   7.993
 3502AUC    AUC 3418  32.408  12.526   7.993
 3503AUC    AUC 3419  32.408  11.919   7.012
 3504AUC    AUC 3420  32.408  12.222   7.012
 3505AUC    AUC 3421  32.408  12.526   7.012
 3506AUC    AUC 3422  32.653  12.071   7.900
 3507AUC    AUC 3423  32.653  12.374   7.900
 3508AUC    AUC 3424  32.653  12.071   7.106
 3509AUC    AUC 3425  32.653  12.374   7.106
 3510AUC    AUC 3426  32.163  12.071   7.900
 3511AUC    AUC 3427  32.163  12.374   7.900
 3512AUC    AUC 3428  32.163  12.071   7.106
 3513AUC    AUC 3429  32.163  12.374   7.106
 3514AUC    AUC 3430  32.805  12.468   7.351
 3515AUC    AUC 3431  32.805  12.468   7.654
 3516AUC    AUC 3432  32.011  12.468   7.351
 3517AUC    AUC 3433  32.011  12.468   7.654
 3518AUC    AUC 3434  32.805  11.977   7.351
 3519AUC    AUC 3435  32.805  11.977   7.654
 3520AUC    AUC 3436  32.011  11.977   7.351
 3521AUC    AUC 3437  32.011  11.977   7.654
 3522AUC    AUC 3438  32.256  12.620   7.748
 3523AUC    AUC 3439  32.560  12.620   7.748
 3524AUC    AUC 3440  32.256  11.825   7.748
 3525AUC    AUC 3441  32.560  11.825   7.748
 3526AUC    AUC 3442  32.256  12.620   7.257
 3527AUC    AUC 3443  32.560  12.620   7.257
 3528AUC    AUC 3444  32.256  11.825   7.257
 3529AUC    AUC 3445  32.560  11.825   7.257
 3530AUSL   AUS 3446  32.817  12.222   8.083
 3531AUSL   AUS 3447  32.673  11.806   8.013
 3532AUL    AUL 3448  32.899  11.919   8.297
 3533THSLK    S 3449  32.783  11.619   8.153
 3534ETHY    C1 3450  32.819  11.220   8.368
 3535ETHY    C1 3451  32.929  10.790   8.665
 3536ETHY    C1 3452  33.107  10.426   9.000
 3537ETHY    C1 3453  33.341  10.130   9.364
 3538ETHY    C1 3454  33.627   9.913   9.752
 3539ETHY    C1 3455  33.958   9.780  10.156
 3540THSLK    S 3456  32.910  12.170   8.324
 3541ETHY    C1 3457  33.114  11.950   8.665
 3542ETHY    C1 3458  33.378  11.773   9.094
 3543ETHY    C1 3459  33.654  11.697   9.535
 3544ETHY    C1 3460  33.931  11.714   9.980
 3545ETHY    C1 3461  34.201  11.827  10.419
 3546ETHY    C1 3462  34.460  12.036  10.845
 3547AUSL   AUS 3463  32.572  12.071   8.176
 3548AUSL   AUS 3464  32.244  12.374   8.176
 3549AUL    AUL 3465  32.408  12.222   8.484
 3550THSLK    S 3466  32.647  12.016   8.413
 3551ETHY    C1 3467  32.711  11.736   8.765
 3552ETHY    C1 3468  32.814  11.481   9.223
 3553ETHY    C1 3469  32.941  11.322   9.708
 3554ETHY    C1 3470  33.083  11.253  10.208
 3555ETHY    C1 3471  33.237  11.281  10.713
 3556ETHY    C1 3472  33.397  11.405  11.212
 3557THSLK    S 3473  32.159  12.328   8.428
 3558ETHY    C1 3474  32.085  12.178   8.850
 3559ETHY    C1 3475  31.980  12.090   9.367
 3560ETHY    C1 3476  31.858  12.102   9.878
 3561ETHY    C1 3477  31.720  12.203  10.373
 3562ETHY    C1 3478  31.565  12.396  10.840
 3563ETHY    C1 3479  31.396  12.677  11.268
 3564AUSL   AUS 3480  32.572  12.374   8.176
 3565AUSL   AUS 3481  32.918  12.487   7.919
 3566AUL    AUL 3482  32.899  12.526   8.297
 3567THSLK    S 3483  32.657  12.430   8.410
 3568ETHY    C1 3484  32.731  12.711   8.759
 3569ETHY    C1 3485  32.836  12.966   9.217
 3570ETHY    C1 3486  32.958  13.125   9.703
 3571ETHY    C1 3487  33.097  13.194  10.204
 3572ETHY    C1 3488  33.251  13.167  10.708
 3573ETHY    C1 3489  33.420  13.043  11.206
 3574THSLK    S 3490  33.090  12.585   8.080
 3575ETHY    C1 3491  33.453  12.556   8.350
 3576ETHY    C1 3492  33.875  12.612   8.673
 3577ETHY    C1 3493  34.267  12.766   8.989
 3578ETHY    C1 3494  34.621  13.004   9.293
 3579ETHY    C1 3495  34.928  13.325   9.580
 3580ETHY    C1 3496  35.179  13.722   9.844
 3581AUSL   AUS 3497  32.817  12.222   6.923
 3582AUSL   AUS 3498  32.673  12.639   6.992
 3583AUL    AUL 3499  32.899  12.526   6.708
 3584THSLK    S 3500  32.919  12.170   6.687
 3585ETHY    C1 3501  33.132  11.950   6.351
 3586ETHY    C1 3502  33.397  11.773   5.923
 3587ETHY    C1 3503  33.669  11.697   5.479
 3588ETHY    C1 3504  33.943  11.714   5.033
 3589ETHY    C1 3505  34.214  11.827   4.594
 3590ETHY    C1 3506  34.479  12.036   4.173
 3591THSLK    S 3507  32.851  12.750   6.829
 3592ETHY    C1 3508  33.153  12.818   6.497
 3593ETHY    C1 3509  33.472  12.981   6.100
 3594ETHY    C1 3510  33.737  13.228   5.719
 3595ETHY    C1 3511  33.949  13.548   5.362
 3596ETHY    C1 3512  34.102  13.938   5.039
 3597ETHY    C1 3513  34.193  14.390   4.759
 3598AUSL   AUS 3514  32.572  12.071   6.829
 3599AUSL   AUS 3515  32.918  11.958   7.086
 3600AUL    AUL 3516  32.899  11.919   6.708
 3601THSLK    S 3517  33.051  11.766   6.949
 3602ETHY    C1 3518  33.234  11.399   6.752
 3603ETHY    C1 3519  33.506  11.027   6.483
 3604ETHY    C1 3520  33.831  10.738   6.186
 3605ETHY    C1 3521  34.197  10.531   5.874
 3606ETHY    C1 3522  34.601  10.412   5.555
 3607ETHY    C1 3523  35.034  10.387   5.235
 3608THSLK    S 3524  32.657  12.015   6.596
 3609ETHY    C1 3525  32.731  11.734   6.246
 3610ETHY    C1 3526  32.836  11.478   5.788
 3611ETHY    C1 3527  32.958  11.320   5.302
 3612ETHY    C1 3528  33.097  11.251   4.801
 3613ETHY    C1 3529  33.251  11.278   4.297
 3614ETHY    C1 3530  33.420  11.402   3.799
 3615AUSL   AUS 3531  32.572  12.374   6.829
 3616AUSL   AUS 3532  32.244  12.071   6.829
 3617AUL    AUL 3533  32.408  12.222   6.521
 3618THSLK    S 3534  32.152  12.015   6.597
 3619ETHY    C1 3535  32.017  11.737   6.264
 3620ETHY    C1 3536  31.856  11.484   5.822
 3621ETHY    C1 3537  31.704  11.327   5.343
 3622ETHY    C1 3538  31.568  11.258   4.842
 3623ETHY    C1 3539  31.451  11.284   4.328
 3624ETHY    C1 3540  31.358  11.403   3.810
 3625THSLK    S 3541  32.674  12.328   6.583
 3626ETHY    C1 3542  32.820  12.178   6.179
 3627ETHY    C1 3543  32.982  12.087   5.678
 3628ETHY    C1 3544  33.129  12.097   5.173
 3629ETHY    C1 3545  33.262  12.198   4.677
 3630ETHY    C1 3546  33.379  12.393   4.200
 3631ETHY    C1 3547  33.480  12.679   3.754
 3632AUSL   AUS 3548  31.999  12.222   8.083
 3633AUSL   AUS 3549  32.143  12.639   8.013
 3634AUL    AUL 3550  31.917  12.526   8.297
 3635THSLK    S 3551  31.897  12.170   8.319
 3636ETHY    C1 3552  31.685  11.950   8.654
 3637ETHY    C1 3553  31.419  11.773   9.082
 3638ETHY    C1 3554  31.147  11.697   9.526
 3639ETHY    C1 3555  30.873  11.714   9.973
 3640ETHY    C1 3556  30.602  11.827  10.411
 3641ETHY    C1 3557  30.337  12.036  10.832
 3642THSLK    S 3558  32.026  12.763   8.202
 3643ETHY    C1 3559  31.983  12.906   8.632
 3644ETHY    C1 3560  31.872  13.131   9.104
 3645ETHY    C1 3561  31.696  13.408   9.515
 3646ETHY    C1 3562  31.465  13.724   9.863
 3647ETHY    C1 3563  31.179  14.072  10.138
 3648ETHY    C1 3564  30.842  14.445  10.334
 3649AUSL   AUS 3565  32.244  12.071   8.176
 3650AUSL   AUS 3566  31.898  11.958   7.919
 3651AUL    AUL 3567  31.917  11.919   8.297
 3652THSLK    S 3568  31.721  11.795   8.026
 3653ETHY    C1 3569  31.350  11.538   8.082
 3654ETHY    C1 3570  30.928  11.250   8.237
 3655ETHY    C1 3571  30.538  10.995   8.482
 3656ETHY    C1 3572  30.186  10.778   8.803
 3657ETHY    C1 3573  29.880  10.607   9.198
 3658ETHY    C1 3574  29.623  10.486   9.657
 3659THSLK    S 3575  32.142  12.017   8.406
 3660ETHY    C1 3576  31.996  11.741   8.736
 3661ETHY    C1 3577  31.834  11.489   9.178
 3662ETHY    C1 3578  31.687  11.331   9.658
 3663ETHY    C1 3579  31.554  11.261  10.160
 3664ETHY    C1 3580  31.437  11.287  10.674
 3665ETHY    C1 3581  31.336  11.408  11.190
 3666AUSL   AUS 3582  31.999  12.222   6.923
 3667AUSL   AUS 3583  32.143  11.806   6.992
 3668AUL    AUL 3584  31.917  11.919   6.708
 3669THSLK    S 3585  31.906  12.170   6.681
 3670ETHY    C1 3586  31.702  11.950   6.341
 3671ETHY    C1 3587  31.438  11.773   5.911
 3672ETHY    C1 3588  31.162  11.697   5.470
 3673ETHY    C1 3589  30.885  11.714   5.025
 3674ETHY    C1 3590  30.615  11.827   4.586
 3675ETHY    C1 3591  30.356  12.036   4.161
 3676THSLK    S 3592  31.972  11.633   6.878
 3677ETHY    C1 3593  31.677  11.307   6.760
 3678ETHY    C1 3594  31.359  10.940   6.538
 3679ETHY    C1 3595  31.091  10.605   6.233
 3680ETHY    C1 3596  30.877  10.305   5.861
 3681ETHY    C1 3597  30.725  10.047   5.426
 3682ETHY    C1 3598  30.639   9.835   4.937
 3683AUSL   AUS 3599  32.244  12.374   6.829
 3684AUSL   AUS 3600  31.898  12.487   7.086
 3685AUL    AUL 3601  31.917  12.526   6.708
 3686THSLK    S 3602  31.771  12.614   6.895
 3687ETHY    C1 3603  31.594  12.695   6.484
 3688ETHY    C1 3604  31.323  12.835   6.046
 3689ETHY    C1 3605  30.996  13.023   5.679
 3690ETHY    C1 3606  30.627  13.252   5.385
 3691ETHY    C1 3607  30.225  13.519   5.173
 3692ETHY    C1 3608  29.796  13.821   5.047
 3693THSLK    S 3609  32.169  12.330   6.576
 3694ETHY    C1 3610  32.105  12.183   6.150
 3695ETHY    C1 3611  32.002  12.094   5.634
 3696ETHY    C1 3612  31.875  12.105   5.123
 3697ETHY    C1 3613  31.733  12.206   4.629
 3698ETHY    C1 3614  31.580  12.399   4.162
 3699ETHY    C1 3615  31.419  12.682   3.732
 3700AUSL   AUS 3616  32.988  12.631   7.503
 3701AUSL   AUS 3617  32.918  12.487   7.086
 3702AUL    AUL 3618  33.202  12.713   7.199
 3703THSLK    S 3619  33.096  12.586   6.934
 3704ETHY    C1 3620  33.466  12.559   6.671
 3705ETHY    C1 3621  33.888  12.615   6.349
 3706ETHY    C1 3622  34.278  12.769   6.030
 3707ETHY    C1 3623  34.630  13.006   5.724
 3708ETHY    C1 3624  34.937  13.327   5.438
 3709ETHY    C1 3625  35.193  13.726   5.179
 3710THSLK    S 3626  33.254  12.684   7.508
 3711ETHY    C1 3627  33.708  12.706   7.513
 3712ETHY    C1 3628  34.230  12.820   7.514
 3713ETHY    C1 3629  34.713  13.029   7.511
 3714ETHY    C1 3630  35.149  13.319   7.510
 3715ETHY    C1 3631  35.528  13.686   7.510
 3716ETHY    C1 3632  35.842  14.126   7.514
 3717AUSL   AUS 3633  33.082  12.386   7.351
 3718AUSL   AUS 3634  33.082  12.059   7.654
 3719AUL    AUL 3635  33.390  12.222   7.503
 3720THSLK    S 3636  33.338  12.425   7.350
 3721ETHY    C1 3637  33.774  12.317   7.286
 3722ETHY    C1 3638  34.300  12.279   7.201
 3723ETHY    C1 3639  34.815  12.343   7.113
 3724ETHY    C1 3640  35.309  12.497   7.026
 3725ETHY    C1 3641  35.769  12.742   6.945
 3726ETHY    C1 3642  36.188  13.074   6.873
 3727THSLK    S 3643  33.309  11.919   7.663
 3728ETHY    C1 3644  33.628  11.603   7.728
 3729ETHY    C1 3645  34.061  11.299   7.807
 3730ETHY    C1 3646  34.536  11.089   7.887
 3731ETHY    C1 3647  35.039  10.968   7.971
 3732ETHY    C1 3648  35.559  10.942   8.058
 3733ETHY    C1 3649  36.087  11.012   8.147
 3734AUSL   AUS 3650  33.082  12.386   7.654
 3735AUSL   AUS 3651  32.824  12.733   7.767
 3736AUL    AUL 3652  33.202  12.713   7.806
 3737THSLK    S 3653  33.007  12.847   7.926
 3738ETHY    C1 3654  33.390  12.965   8.140
 3739ETHY    C1 3655  33.808  13.188   8.388
 3740ETHY    C1 3656  34.167  13.493   8.622
 3741ETHY    C1 3657  34.464  13.866   8.840
 3742ETHY    C1 3658  34.689  14.300   9.038
 3743ETHY    C1 3659  34.836  14.788   9.215
 3744THSLK    S 3660  33.336  12.425   7.665
 3745ETHY    C1 3661  33.771  12.317   7.740
 3746ETHY    C1 3662  34.297  12.279   7.826
 3747ETHY    C1 3663  34.812  12.342   7.910
 3748ETHY    C1 3664  35.306  12.496   7.993
 3749ETHY    C1 3665  35.767  12.741   8.075
 3750ETHY    C1 3666  36.184  13.073   8.155
 3751AUSL   AUS 3667  31.828  12.631   7.503
 3752AUSL   AUS 3668  31.898  12.487   7.919
 3753AUL    AUL 3669  31.614  12.713   7.806
 3754THSLK    S 3670  31.765  12.606   8.109
 3755ETHY    C1 3671  31.582  12.678   8.519
 3756ETHY    C1 3672  31.310  12.818   8.957
 3757ETHY    C1 3673  30.985  13.009   9.324
 3758ETHY    C1 3674  30.619  13.240   9.619
 3759ETHY    C1 3675  30.216  13.507   9.831
 3760ETHY    C1 3676  29.782  13.803   9.956
 3761THSLK    S 3677  31.617  12.772   7.508
 3762ETHY    C1 3678  31.395  13.169   7.513
 3763ETHY    C1 3679  31.059  13.584   7.514
 3764ETHY    C1 3680  30.656  13.923   7.511
 3765ETHY    C1 3681  30.202  14.184   7.510
 3766ETHY    C1 3682  29.703  14.358   7.510
 3767ETHY    C1 3683  29.170  14.442   7.514
 3768AUSL   AUS 3684  31.734  12.386   7.351
 3769AUSL   AUS 3685  31.992  12.733   7.238
 3770AUL    AUL 3686  31.614  12.713   7.199
 3771THSLK    S 3687  31.507  12.501   7.303
 3772ETHY    C1 3688  31.188  12.701   7.049
 3773ETHY    C1 3689  30.755  12.907   6.813
 3774ETHY    C1 3690  30.280  13.073   6.661
 3775ETHY    C1 3691  29.777  13.202   6.590
 3776ETHY    C1 3692  29.257  13.292   6.605
 3777ETHY    C1 3693  28.729  13.340   6.708
 3778THSLK    S 3694  31.880  12.896   7.060
 3779ETHY    C1 3695  31.801  13.206   6.737
 3780ETHY    C1 3696  31.626  13.580   6.397
 3781ETHY    C1 3697  31.372  13.948   6.120
 3782ETHY    C1 3698  31.052  14.305   5.909
 3783ETHY    C1 3699  30.671  14.643   5.770
 3784ETHY    C1 3700  30.236  14.957   5.709
 3785AUSL   AUS 3701  31.734  12.386   7.654
 3786AUSL   AUS 3702  31.734  12.059   7.351
 3787AUL    AUL 3703  31.426  12.222   7.503
 3788THSLK    S 3704  31.480  11.986   7.394
 3789ETHY    C1 3705  31.045  11.968   7.524
 3790ETHY    C1 3706  30.519  11.908   7.597
 3791ETHY    C1 3707  30.004  11.804   7.578
 3792ETHY    C1 3708  29.510  11.661   7.477
 3793ETHY    C1 3709  29.050  11.478   7.294
 3794ETHY    C1 3710  28.632  11.258   7.034
 3795THSLK    S 3711  31.506  12.492   7.707
 3796ETHY    C1 3712  31.185  12.683   7.966
 3797ETHY    C1 3713  30.752  12.887   8.202
 3798ETHY    C1 3714  30.277  13.058   8.352
 3799ETHY    C1 3715  29.775  13.190   8.422
 3800ETHY    C1 3716  29.255  13.278   8.407
 3801ETHY    C1 3717  28.726  13.319   8.308
 3802AUSL   AUS 3718  32.988  11.813   7.503
 3803AUSL   AUS 3719  32.918  11.958   7.919
 3804AUL    AUL 3720  33.202  11.732   7.806
 3805THSLK    S 3721  33.199  11.672   7.508
 3806ETHY    C1 3722  33.421  11.276   7.513
 3807ETHY    C1 3723  33.757  10.861   7.514
 3808ETHY    C1 3724  34.160  10.522   7.511
 3809ETHY    C1 3725  34.614  10.261   7.510
 3810ETHY    C1 3726  35.113  10.087   7.510
 3811ETHY    C1 3727  35.646  10.003   7.514
 3812THSLK    S 3728  33.045  11.767   8.064
 3813ETHY    C1 3729  33.222  11.402   8.270
 3814ETHY    C1 3730  33.493  11.030   8.540
 3815ETHY    C1 3731  33.820  10.741   8.834
 3816ETHY    C1 3732  34.189  10.533   9.142
 3817ETHY    C1 3733  34.591  10.415   9.462
 3818ETHY    C1 3734  35.020  10.390   9.789
 3819AUSL   AUS 3735  33.082  12.059   7.351
 3820AUSL   AUS 3736  32.824  11.712   7.238
 3821AUL    AUL 3737  33.202  11.732   7.199
 3822THSLK    S 3738  33.310  11.919   7.353
 3823ETHY    C1 3739  33.631  11.602   7.298
 3824ETHY    C1 3740  34.064  11.299   7.221
 3825ETHY    C1 3741  34.539  11.089   7.136
 3826ETHY    C1 3742  35.041  10.968   7.048
 3827ETHY    C1 3743  35.561  10.941   6.963
 3828ETHY    C1 3744  36.090  11.012   6.881
 3829THSLK    S 3745  32.940  11.523   7.108
 3830ETHY    C1 3746  33.024  11.094   6.984
 3831ETHY    C1 3747  33.199  10.622   6.803
 3832ETHY    C1 3748  33.452  10.211   6.593
 3833ETHY    C1 3749  33.770   9.863   6.366
 3834ETHY    C1 3750  34.152   9.588   6.126
 3835ETHY    C1 3751  34.590   9.391   5.880
 3836AUSL   AUS 3752  31.828  11.813   7.503
 3837AUSL   AUS 3753  31.898  11.958   7.086
 3838AUL    AUL 3754  31.614  11.732   7.199
 3839THSLK    S 3755  31.727  11.787   6.978
 3840ETHY    C1 3756  31.363  11.522   6.921
 3841ETHY    C1 3757  30.941  11.232   6.766
 3842ETHY    C1 3758  30.549  10.980   6.521
 3843ETHY    C1 3759  30.195  10.767   6.200
 3844ETHY    C1 3760  29.888  10.594   5.806
 3845ETHY    C1 3761  29.637  10.467   5.346
 3846THSLK    S 3762  31.562  11.761   7.508
 3847ETHY    C1 3763  31.108  11.739   7.513
 3848ETHY    C1 3764  30.586  11.625   7.514
 3849ETHY    C1 3765  30.104  11.416   7.511
 3850ETHY    C1 3766  29.667  11.126   7.510
 3851ETHY    C1 3767  29.288  10.759   7.510
 3852ETHY    C1 3768  28.975  10.319   7.514
 3853AUSL   AUS 3769  31.734  12.059   7.654
 3854AUSL   AUS 3770  31.992  11.712   7.767
 3855AUL    AUL 3771  31.614  11.732   7.806
 3856THSLK    S 3772  31.804  11.572   7.878
 3857ETHY    C1 3773  31.417  11.335   7.893
 3858ETHY    C1 3774  30.999  11.015   7.982
 3859ETHY    C1 3775  30.641  10.666   8.149
 3860ETHY    C1 3776  30.346  10.302   8.382
 3861ETHY    C1 3777  30.121   9.931   8.683
 3862ETHY    C1 3778  29.970   9.560   9.045
 3863THSLK    S 3779  31.478  11.996   7.616
 3864ETHY    C1 3780  31.042  11.986   7.491
 3865ETHY    C1 3781  30.516  11.927   7.419
 3866ETHY    C1 3782  30.001  11.820   7.436
 3867ETHY    C1 3783  29.507  11.674   7.535
 3868ETHY    C1 3784  29.047  11.492   7.718
 3869ETHY    C1 3785  28.628  11.279   7.983
 3870AUSL   AUS 3786  32.408  12.802   7.912
 3871AUSL   AUS 3787  31.992  12.733   7.767
 3872AUL    AUL 3788  32.105  13.017   7.993
 3873THSLK    S 3789  31.876  12.889   7.952
 3874ETHY    C1 3790  31.792  13.191   8.280
 3875ETHY    C1 3791  31.617  13.564   8.621
 3876ETHY    C1 3792  31.364  13.935   8.895
 3877ETHY    C1 3793  31.046  14.294   9.105
 3878ETHY    C1 3794  30.664  14.632   9.244
 3879ETHY    C1 3795  30.226  14.940   9.309
 3880THSLK    S 3796  32.450  13.024   8.035
 3881ETHY    C1 3797  32.634  13.299   8.347
 3882ETHY    C1 3798  32.784  13.679   8.691
 3883ETHY    C1 3799  32.850  14.102   8.998
 3884ETHY    C1 3800  32.837  14.553   9.264
 3885ETHY    C1 3801  32.740  15.022   9.485
 3886ETHY    C1 3802  32.560  15.501   9.656
 3887AUSL   AUS 3803  32.256  12.896   7.666
 3888AUSL   AUS 3804  32.560  12.896   7.339
 3889AUL    AUL 3805  32.408  13.204   7.503
 3890THSLK    S 3806  32.299  13.140   7.776
 3891ETHY    C1 3807  32.443  13.534   7.951
 3892ETHY    C1 3808  32.530  14.028   8.137
 3893ETHY    C1 3809  32.518  14.529   8.294
 3894ETHY    C1 3810  32.417  15.027   8.425
 3895ETHY    C1 3811  32.225  15.508   8.527
 3896ETHY    C1 3812  31.945  15.963   8.600
 3897THSLK    S 3813  32.615  13.127   7.243
 3898ETHY    C1 3814  32.891  13.457   7.096
 3899ETHY    C1 3815  33.141  13.898   6.927
 3900ETHY    C1 3816  33.297  14.375   6.771
 3901ETHY    C1 3817  33.366  14.877   6.635
 3902ETHY    C1 3818  33.342  15.393   6.525
 3903ETHY    C1 3819  33.225  15.913   6.443
 3904AUSL   AUS 3820  32.560  12.896   7.666
 3905AUSL   AUS 3821  32.673  12.639   8.013
 3906AUL    AUL 3822  32.711  13.017   7.993
 3907THSLK    S 3823  32.844  12.747   8.183
 3908ETHY    C1 3824  33.139  12.812   8.523
 3909ETHY    C1 3825  33.457  12.974   8.920
 3910ETHY    C1 3826  33.725  13.223   9.298
 3911ETHY    C1 3827  33.939  13.545   9.653
 3912ETHY    C1 3828  34.091  13.933   9.976
 3913ETHY    C1 3829  34.177  14.383  10.262
 3914THSLK    S 3830  32.613  13.125   7.772
 3915ETHY    C1 3831  32.885  13.453   7.929
 3916ETHY    C1 3832  33.135  13.893   8.100
 3917ETHY    C1 3833  33.293  14.372   8.251
 3918ETHY    C1 3834  33.362  14.874   8.383
 3919ETHY    C1 3835  33.338  15.389   8.494
 3920ETHY    C1 3836  33.219  15.908   8.585
 3921AUSL   AUS 3837  32.408  11.642   7.912
 3922AUSL   AUS 3838  32.824  11.712   7.767
 3923AUL    AUL 3839  32.711  11.428   7.993
 3924THSLK    S 3840  32.361  11.392   7.989
 3925ETHY    C1 3841  32.171  10.996   8.103
 3926ETHY    C1 3842  32.020  10.518   8.289
 3927ETHY    C1 3843  31.957  10.053   8.528
 3928ETHY    C1 3844  31.972   9.611   8.809
 3929ETHY    C1 3845  32.068   9.204   9.132
 3930ETHY    C1 3846  32.243   8.841   9.489
 3931THSLK    S 3847  32.936  11.525   7.907
 3932ETHY    C1 3848  33.015  11.097   8.040
 3933ETHY    C1 3849  33.190  10.627   8.222
 3934ETHY    C1 3850  33.444  10.215   8.428
 3935ETHY    C1 3851  33.764   9.866   8.652
 3936ETHY    C1 3852  34.145   9.591   8.893
 3937ETHY    C1 3853  34.580   9.395   9.147
 3938AUSL   AUS 3854  32.256  11.549   7.666
 3939AUSL   AUS 3855  32.143  11.806   8.013
 3940AUL    AUL 3856  32.105  11.428   7.993
 3941THSLK    S 3857  32.201  11.313   7.745
 3942ETHY    C1 3858  31.926  10.954   7.788
 3943ETHY    C1 3859  31.675  10.489   7.869
 3944ETHY    C1 3860  31.519   9.999   7.981
 3945ETHY    C1 3861  31.450   9.500   8.122
 3946ETHY    C1 3862  31.474   9.000   8.292
 3947ETHY    C1 3863  31.591   8.512   8.489
 3948THSLK    S 3864  31.965  11.640   8.129
 3949ETHY    C1 3865  31.663  11.322   8.248
 3950ETHY    C1 3866  31.344  10.955   8.471
 3951ETHY    C1 3867  31.079  10.618   8.776
 3952ETHY    C1 3868  30.867  10.316   9.147
 3953ETHY    C1 3869  30.714  10.058   9.582
 3954ETHY    C1 3870  30.623   9.851  10.072
 3955AUSL   AUS 3871  32.560  11.549   7.666
 3956AUSL   AUS 3872  32.256  11.549   7.339
 3957AUL    AUL 3873  32.408  11.241   7.503
 3958THSLK    S 3874  32.203  11.310   7.270
 3959ETHY    C1 3875  31.931  10.948   7.236
 3960ETHY    C1 3876  31.681  10.483   7.157
 3961ETHY    C1 3877  31.524   9.994   7.041
 3962ETHY    C1 3878  31.454   9.495   6.896
 3963ETHY    C1 3879  31.478   8.996   6.727
 3964ETHY    C1 3880  31.597   8.505   6.538
 3965THSLK    S 3881  32.514  11.297   7.749
 3966ETHY    C1 3882  32.367  10.871   7.811
 3967ETHY    C1 3883  32.281  10.353   7.906
 3968ETHY    C1 3884  32.293   9.840   8.025
 3969ETHY    C1 3885  32.395   9.345   8.165
 3970ETHY    C1 3886  32.587   8.880   8.325
 3971ETHY    C1 3887  32.865   8.454   8.504
 3972AUSL   AUS 3888  32.408  12.802   7.094
 3973AUSL   AUS 3889  32.824  12.733   7.238
 3974AUL    AUL 3890  32.711  13.017   7.012
 3975THSLK    S 3891  32.455  13.029   6.977
 3976ETHY    C1 3892  32.645  13.308   6.674
 3977ETHY    C1 3893  32.796  13.689   6.330
 3978ETHY    C1 3894  32.860  14.109   6.021
 3979ETHY    C1 3895  32.844  14.559   5.752
 3980ETHY    C1 3896  32.748  15.029   5.532
 3981ETHY    C1 3897  32.573  15.512   5.366
 3982THSLK    S 3898  33.012  12.849   7.089
 3983ETHY    C1 3899  33.399  12.969   6.883
 3984ETHY    C1 3900  33.817  13.192   6.637
 3985ETHY    C1 3901  34.175  13.496   6.400
 3986ETHY    C1 3902  34.470  13.868   6.178
 3987ETHY    C1 3903  34.695  14.303   5.981
 3988ETHY    C1 3904  34.846  14.792   5.811
 3989AUSL   AUS 3905  32.256  12.896   7.339
 3990AUSL   AUS 3906  32.143  12.639   6.992
 3991AUL    AUL 3907  32.105  13.017   7.012
 3992THSLK    S 3908  32.302  13.143   7.239
 3993ETHY    C1 3909  32.449  13.540   7.074
 3994ETHY    C1 3910  32.535  14.034   6.889
 3995ETHY    C1 3911  32.523  14.535   6.727
 3996ETHY    C1 3912  32.421  15.031   6.593
 3997ETHY    C1 3913  32.229  15.512   6.492
 3998ETHY    C1 3914  31.951  15.970   6.427
 3999THSLK    S 3915  32.033  12.771   6.805
 4000ETHY    C1 3916  31.997  12.920   6.377
 4001ETHY    C1 3917  31.887  13.146   5.906
 4002ETHY    C1 3918  31.709  13.421   5.494
 4003ETHY    C1 3919  31.475  13.734   5.145
 4004ETHY    C1 3920  31.189  14.083   4.870
 4005ETHY    C1 3921  30.858  14.461   4.675
 4006AUSL   AUS 3922  32.408  11.642   7.094
 4007AUSL   AUS 3923  31.992  11.712   7.238
 4008AUL    AUL 3924  32.105  11.428   7.012
 4009THSLK    S 3925  31.809  11.564   7.134
 4010ETHY    C1 3926  31.426  11.320   7.124
 4011ETHY    C1 3927  31.008  10.999   7.035
 4012ETHY    C1 3928  30.649  10.653   6.866
 4013ETHY    C1 3929  30.352  10.292   6.631
 4014ETHY    C1 3930  30.127   9.920   6.331
 4015ETHY    C1 3931  29.980   9.543   5.974
 4016THSLK    S 3932  32.366  11.387   7.024
 4017ETHY    C1 3933  32.182  10.986   6.917
 4018ETHY    C1 3934  32.032  10.508   6.732
 4019ETHY    C1 3935  31.966  10.045   6.491
 4020ETHY    C1 3936  31.979   9.605   6.206
 4021ETHY    C1 3937  32.076   9.198   5.885
 4022ETHY    C1 3938  32.256   8.830   5.533
 4023AUSL   AUS 3939  32.560  11.549   7.339
 4024AUSL   AUS 3940  32.673  11.806   6.992
 4025AUL    AUL 3941  32.711  11.428   7.012
 4026THSLK    S 3942  32.517  11.295   7.266
 4027ETHY    C1 3943  32.373  10.867   7.213
 4028ETHY    C1 3944  32.286  10.348   7.120
 4029ETHY    C1 3945  32.298   9.836   6.997
 4030ETHY    C1 3946  32.399   9.342   6.854
 4031ETHY    C1 3947  32.591   8.877   6.695
 4032ETHY    C1 3948  32.871   8.449   6.523
 4033THSLK    S 3949  32.790  11.616   6.859
 4034ETHY    C1 3950  32.834  11.214   6.651
 4035ETHY    C1 3951  32.944  10.783   6.355
 4036ETHY    C1 3952  33.120  10.420   6.017
 4037ETHY    C1 3953  33.351  10.126   5.651
 4038ETHY    C1 3954  33.637   9.909   5.264
 4039ETHY    C1 3955  33.974   9.773   4.865
 4040AUC    AUC 3956  12.808   3.902   7.503
 4041AUC    AUC 3957  13.053   3.902   7.351
 4042AUC    AUC 3958  13.053   3.902   7.654
 4043AUC    AUC 3959  12.563   3.902   7.351
 4044AUC    AUC 3960  12.563   3.902   7.654
 4045AUC    AUC 3961  12.656   4.148   7.503
 4046AUC    AUC 3962  12.960   4.148   7.503
 4047AUC    AUC 3963  12.656   3.657   7.503
 4048AUC    AUC 3964  12.960   3.657   7.503
 4049AUC    AUC 3965  12.808   3.751   7.748
 4050AUC    AUC 3966  12.808   4.054   7.748
 4051AUC    AUC 3967  12.808   3.751   7.257
 4052AUC    AUC 3968  12.808   4.054   7.257
 4053AUC    AUC 3969  13.299   3.902   7.199
 4054AUC    AUC 3970  13.299   3.902   7.503
 4055AUC    AUC 3971  13.299   3.902   7.806
 4056AUC    AUC 3972  12.317   3.902   7.199
 4057AUC    AUC 3973  12.317   3.902   7.503
 4058AUC    AUC 3974  12.317   3.902   7.806
 4059AUC    AUC 3975  12.505   4.393   7.503
 4060AUC    AUC 3976  12.808   4.393   7.503
 4061AUC    AUC 3977  13.111   4.393   7.503
 4062AUC    AUC 3978  12.505   3.412   7.503
 4063AUC    AUC 3979  12.808   3.412   7.503
 4064AUC    AUC 3980  13.111   3.412   7.503
 4065AUC    AUC 3981  12.808   3.599   7.993
 4066AUC    AUC 3982  12.808   3.902   7.993
 4067AUC    AUC 3983  12.808   4.206   7.993
 4068AUC    AUC 3984  12.808   3.599   7.012
 4069AUC    AUC 3985  12.808   3.902   7.012
 4070AUC    AUC 3986  12.808   4.206   7.012
 4071AUC    AUC 3987  13.053   3.751   7.900
 4072AUC    AUC 3988  13.053   4.054   7.900
 4073AUC    AUC 3989  13.053   3.751   7.106
 4074AUC    AUC 3990  13.053   4.054   7.106
 4075AUC    AUC 3991  12.563   3.751   7.900
 4076AUC    AUC 3992  12.563   4.054   7.900
 4077AUC    AUC 3993  12.563   3.751   7.106
 4078AUC    AUC 3994  12.563   4.054   7.106
 4079AUC    AUC 3995  13.205   4.148   7.351
 4080AUC    AUC 3996  13.205   4.148   7.654
 4081AUC    AUC 3997  12.411   4.148   7.351
 4082AUC    AUC 3998  12.411   4.148   7.654
 4083AUC    AUC 3999  13.205   3.657   7.351
 4084AUC    AUC 4000  13.205   3.657   7.654
 4085AUC    AUC 4001  12.411   3.657   7.351
 4086AUC    AUC 4002  12.411   3.657   7.654
 4087AUC    AUC 4003  12.656   4.300   7.748
 4088AUC    AUC 4004  12.960   4.300   7.748
 4089AUC    AUC 4005  12.656   3.505   7.748
 4090AUC    AUC 4006  12.960   3.505   7.748
 4091AUC    AUC 4007  12.656   4.300   7.257
 4092AUC    AUC 4008  12.960   4.300   7.257
 4093AUC    AUC 4009  12.656   3.505   7.257
 4094AUC    AUC 4010  12.960   3.505   7.257
 4095AUSL   AUS 4011  13.217   3.902   8.083
 4096AUSL   AUS 4012  13.073   3.486   8.013
 4097AUL    AUL 4013  13.299   3.599   8.297
 4098THSLK    S 4014  13.183   3.299   8.153
 4099ETHY    C1 4015  13.219   2.900   8.368
 4100ETHY    C1 4016  13.329   2.470   8.665
 4101ETHY    C1 4017  13.507   2.106   9.000
 4102ETHY    C1 4018  13.741   1.810   9.364
 4103ETHY    C1 4019  14.027   1.593   9.752
 4104ETHY    C1 4020  14.358   1.460  10.156
 4105THSLK    S 4021  13.310   3.850   8.324
 4106ETHY    C1 4022  13.514   3.630   8.665
 4107ETHY    C1 4023  13.778   3.453   9.094
 4108ETHY    C1 4024  14.054   3.377   9.535
 4109ETHY    C1 4025  14.331   3.394   9.980
 4110ETHY    C1 4026  14.601   3.507  10.419
 4111ETHY    C1 4027  14.860   3.716  10.845
 4112AUSL   AUS 4028  12.972   3.751   8.176
 4113AUSL   AUS 4029  12.644   4.054   8.176
 4114AUL    AUL 4030  12.808   3.902   8.484
 4115THSLK    S 4031  13.047   3.696   8.413
 4116ETHY    C1 4032  13.111   3.416   8.765
 4117ETHY    C1 4033  13.214   3.161   9.223
 4118ETHY    C1 4034  13.341   3.002   9.708
 4119ETHY    C1 4035  13.483   2.933  10.208
 4120ETHY    C1 4036  13.637   2.961  10.713
 4121ETHY    C1 4037  13.797   3.085  11.212
 4122THSLK    S 4038  12.559   4.008   8.428
 4123ETHY    C1 4039  12.485   3.858   8.850
 4124ETHY    C1 4040  12.380   3.770   9.367
 4125ETHY    C1 4041  12.258   3.782   9.878
 4126ETHY    C1 4042  12.120   3.883  10.373
 4127ETHY    C1 4043  11.965   4.076  10.840
 4128ETHY    C1 4044  11.796   4.357  11.268
 4129AUSL   AUS 4045  12.972   4.054   8.176
 4130AUSL   AUS 4046  13.318   4.167   7.919
 4131AUL    AUL 4047  13.299   4.206   8.297
 4132THSLK    S 4048  13.057   4.110   8.410
 4133ETHY    C1 4049  13.131   4.391   8.759
 4134ETHY    C1 4050  13.236   4.646   9.217
 4135ETHY    C1 4051  13.358   4.805   9.703
 4136ETHY    C1 4052  13.497   4.874  10.204
 4137ETHY    C1 4053  13.651   4.847  10.708
 4138ETHY    C1 4054  13.820   4.723  11.206
 4139THSLK    S 4055  13.490   4.265   8.080
 4140ETHY    C1 4056  13.853   4.236   8.350
 4141ETHY    C1 4057  14.275   4.292   8.673
 4142ETHY    C1 4058  14.667   4.446   8.989
 4143ETHY    C1 4059  15.021   4.684   9.293
 4144ETHY    C1 4060  15.328   5.005   9.580
 4145ETHY    C1 4061  15.579   5.402   9.844
 4146AUSL   AUS 4062  13.217   3.902   6.923
 4147AUSL   AUS 4063  13.073   4.319   6.992
 4148AUL    AUL 4064  13.299   4.206   6.708
 4149THSLK    S 4065  13.319   3.850   6.687
 4150ETHY    C1 4066  13.532   3.630   6.351
 4151ETHY    C1 4067  13.797   3.453   5.923
 4152ETHY    C1 4068  14.069   3.377   5.479
 4153ETHY    C1 4069  14.343   3.394   5.033
 4154ETHY    C1 4070  14.614   3.507   4.594
 4155ETHY    C1 4071  14.879   3.716   4.173
 4156THSLK    S 4072  13.251   4.430   6.829
 4157ETHY    C1 4073  13.553   4.498   6.497
 4158ETHY    C1 4074  13.872   4.661   6.100
 4159ETHY    C1 4075  14.137   4.908   5.719
 4160ETHY    C1 4076  14.349   5.228   5.362
 4161ETHY    C1 4077  14.502   5.618   5.039
 4162ETHY    C1 4078  14.593   6.070   4.759
 4163AUSL   AUS 4079  12.972   3.751   6.829
 4164AUSL   AUS 4080  13.318   3.638   7.086
 4165AUL    AUL 4081  13.299   3.599   6.708
 4166THSLK    S 4082  13.451   3.446   6.949
 4167ETHY    C1 4083  13.634   3.079   6.752
 4168ETHY    C1 4084  13.906   2.707   6.483
 4169ETHY    C1 4085  14.231   2.418   6.186
 4170ETHY    C1 4086  14.597   2.211   5.874
 4171ETHY    C1 4087  15.001   2.092   5.555
 4172ETHY    C1 4088  15.434   2.067   5.235
 4173THSLK    S 4089  13.057   3.695   6.596
 4174ETHY    C1 4090  13.131   3.414   6.246
 4175ETHY    C1 4091  13.236   3.158   5.788
 4176ETHY    C1 4092  13.358   3.000   5.302
 4177ETHY    C1 4093  13.497   2.931   4.801
 4178ETHY    C1 4094  13.651   2.958   4.297
 4179ETHY    C1 4095  13.820   3.082   3.799
 4180AUSL   AUS 4096  12.972   4.054   6.829
 4181AUSL   AUS 4097  12.644   3.751   6.829
 4182AUL    AUL 4098  12.808   3.902   6.521
 4183THSLK    S 4099  12.552   3.695   6.597
 4184ETHY    C1 4100  12.417   3.417   6.264
 4185ETHY    C1 4101  12.256   3.164   5.822
 4186ETHY    C1 4102  12.104   3.007   5.343
 4187ETHY    C1 4103  11.968   2.938   4.842
 4188ETHY    C1 4104  11.851   2.964   4.328
 4189ETHY    C1 4105  11.758   3.083   3.810
 4190THSLK    S 4106  13.074   4.008   6.583
 4191ETHY    C1 4107  13.220   3.858   6.179
 4192ETHY    C1 4108  13.382   3.767   5.678
 4193ETHY    C1 4109  13.529   3.777   5.173
 4194ETHY    C1 4110  13.662   3.878   4.677
 4195ETHY    C1 4111  13.779   4.073   4.200
 4196ETHY    C1 4112  13.880   4.359   3.754
 4197AUSL   AUS 4113  12.399   3.902   8.083
 4198AUSL   AUS 4114  12.543   4.319   8.013
 4199AUL    AUL 4115  12.317   4.206   8.297
 4200THSLK    S 4116  12.297   3.850   8.319
 4201ETHY    C1 4117  12.085   3.630   8.654
 4202ETHY    C1 4118  11.819   3.453   9.082
 4203ETHY    C1 4119  11.547   3.377   9.526
 4204ETHY    C1 4120  11.273   3.394   9.973
 4205ETHY    C1 4121  11.002   3.507  10.411
 4206ETHY    C1 4122  10.737   3.716  10.832
 4207THSLK    S 4123  12.426   4.443   8.202
 4208ETHY    C1 4124  12.383   4.586   8.632
 4209ETHY    C1 4125  12.272   4.811   9.104
 4210ETHY    C1 4126  12.096   5.088   9.515
 4211ETHY    C1 4127  11.865   5.404   9.863
 4212ETHY    C1 4128  11.579   5.752  10.138
 4213ETHY    C1 4129  11.242   6.125  10.334
 4214AUSL   AUS 4130  12.644   3.751   8.176
 4215AUSL   AUS 4131  12.298   3.638   7.919
 4216AUL    AUL 4132  12.317   3.599   8.297
 4217THSLK    S 4133  12.121   3.475   8.026
 4218ETHY    C1 4134  11.750   3.218   8.082
 4219ETHY    C1 4135  11.328   2.930   8.237
 4220ETHY    C1 4136  10.938   2.675   8.482
 4221ETHY    C1 4137  10.586   2.458   8.803
 4222ETHY    C1 4138  10.280   2.287   9.198
 4223ETHY    C1 4139  10.023   2.166   9.657
 4224THSLK    S 4140  12.542   3.697   8.406
 4225ETHY    C1 4141  12.396   3.421   8.736
 4226ETHY    C1 4142  12.234   3.169   9.178
 4227ETHY    C1 4143  12.087   3.011   9.658
 4228ETHY    C1 4144  11.954   2.941  10.160
 4229ETHY    C1 4145  11.837   2.967  10.674
 4230ETHY    C1 4146  11.736   3.088  11.190
 4231AUSL   AUS 4147  12.399   3.902   6.923
 4232AUSL   AUS 4148  12.543   3.486   6.992
 4233AUL    AUL 4149  12.317   3.599   6.708
 4234THSLK    S 4150  12.306   3.850   6.681
 4235ETHY    C1 4151  12.102   3.630   6.341
 4236ETHY    C1 4152  11.838   3.453   5.911
 4237ETHY    C1 4153  11.562   3.377   5.470
 4238ETHY    C1 4154  11.285   3.394   5.025
 4239ETHY    C1 4155  11.015   3.507   4.586
 4240ETHY    C1 4156  10.756   3.716   4.161
 4241THSLK    S 4157  12.372   3.313   6.878
 4242ETHY    C1 4158  12.077   2.987   6.760
 4243ETHY    C1 4159  11.759   2.620   6.538
 4244ETHY    C1 4160  11.491   2.285   6.233
 4245ETHY    C1 4161  11.277   1.985   5.861
 4246ETHY    C1 4162  11.125   1.727   5.426
 4247ETHY    C1 4163  11.039   1.515   4.937
 4248AUSL   AUS 4164  12.644   4.054   6.829
 4249AUSL   AUS 4165  12.298   4.167   7.086
 4250AUL    AUL 4166  12.317   4.206   6.708
 4251THSLK    S 4167  12.171   4.294   6.895
 4252ETHY    C1 4168  11.994   4.375   6.484
 4253ETHY    C1 4169  11.723   4.515   6.046
 4254ETHY    C1 4170  11.396   4.703   5.679
 4255ETHY    C1 4171  11.027   4.932   5.385
 4256ETHY    C1 4172  10.625   5.199   5.173
 4257ETHY    C1 4173  10.196   5.501   5.047
 4258THSLK    S 4174  12.569   4.010   6.576
 4259ETHY    C1 4175  12.505   3.863   6.150
 4260ETHY    C1 4176  12.402   3.774   5.634
 4261ETHY    C1 4177  12.275   3.785   5.123
 4262ETHY    C1 4178  12.133   3.886   4.629
 4263ETHY    C1 4179  11.980   4.079   4.162
 4264ETHY    C1 4180  11.819   4.362   3.732
 4265AUSL   AUS 4181  13.388   4.311   7.503
 4266AUSL   AUS 4182  13.318   4.167   7.086
 4267AUL    AUL 4183  13.602   4.393   7.199
 4268THSLK    S 4184  13.496   4.266   6.934
 4269ETHY    C1 4185  13.866   4.239   6.671
 4270ETHY    C1 4186  14.288   4.295   6.349
 4271ETHY    C1 4187  14.678   4.449   6.030
 4272ETHY    C1 4188  15.030   4.686   5.724
 4273ETHY    C1 4189  15.337   5.007   5.438
 4274ETHY    C1 4190  15.593   5.406   5.179
 4275THSLK    S 4191  13.654   4.364   7.508
 4276ETHY    C1 4192  14.108   4.386   7.513
 4277ETHY    C1 4193  14.630   4.500   7.514
 4278ETHY    C1 4194  15.113   4.709   7.511
 4279ETHY    C1 4195  15.549   4.999   7.510
 4280ETHY    C1 4196  15.928   5.366   7.510
 4281ETHY    C1 4197  16.242   5.806   7.514
 4282AUSL   AUS 4198  13.482   4.066   7.351
 4283AUSL   AUS 4199  13.482   3.739   7.654
 4284AUL    AUL 4200  13.790   3.902   7.503
 4285THSLK    S 4201  13.738   4.105   7.350
 4286ETHY    C1 4202  14.174   3.997   7.286
 4287ETHY    C1 4203  14.700   3.959   7.201
 4288ETHY    C1 4204  15.215   4.023   7.113
 4289ETHY    C1 4205  15.709   4.177   7.026
 4290ETHY    C1 4206  16.169   4.422   6.945
 4291ETHY    C1 4207  16.588   4.754   6.873
 4292THSLK    S 4208  13.709   3.599   7.663
 4293ETHY    C1 4209  14.028   3.283   7.728
 4294ETHY    C1 4210  14.461   2.979   7.807
 4295ETHY    C1 4211  14.936   2.769   7.887
 4296ETHY    C1 4212  15.439   2.648   7.971
 4297ETHY    C1 4213  15.959   2.622   8.058
 4298ETHY    C1 4214  16.487   2.692   8.147
 4299AUSL   AUS 4215  13.482   4.066   7.654
 4300AUSL   AUS 4216  13.224   4.413   7.767
 4301AUL    AUL 4217  13.602   4.393   7.806
 4302THSLK    S 4218  13.407   4.527   7.926
 4303ETHY    C1 4219  13.790   4.645   8.140
 4304ETHY    C1 4220  14.208   4.868   8.388
 4305ETHY    C1 4221  14.567   5.173   8.622
 4306ETHY    C1 4222  14.864   5.546   8.840
 4307ETHY    C1 4223  15.089   5.980   9.038
 4308ETHY    C1 4224  15.236   6.468   9.215
 4309THSLK    S 4225  13.736   4.105   7.665
 4310ETHY    C1 4226  14.171   3.997   7.740
 4311ETHY    C1 4227  14.697   3.959   7.826
 4312ETHY    C1 4228  15.212   4.022   7.910
 4313ETHY    C1 4229  15.706   4.176   7.993
 4314ETHY    C1 4230  16.167   4.421   8.075
 4315ETHY    C1 4231  16.584   4.753   8.155
 4316AUSL   AUS 4232  12.228   4.311   7.503
 4317AUSL   AUS 4233  12.298   4.167   7.919
 4318AUL    AUL 4234  12.014   4.393   7.806
 4319THSLK    S 4235  12.165   4.286   8.109
 4320ETHY    C1 4236  11.982   4.358   8.519
 4321ETHY    C1 4237  11.710   4.498   8.957
 4322ETHY    C1 4238  11.385   4.689   9.324
 4323ETHY    C1 4239  11.019   4.920   9.619
 4324ETHY    C1 4240  10.616   5.187   9.831
 4325ETHY    C1 4241  10.182   5.483   9.956
 4326THSLK    S 4242  12.017   4.452   7.508
 4327ETHY    C1 4243  11.795   4.849   7.513
 4328ETHY    C1 4244  11.459   5.264   7.514
 4329ETHY    C1 4245  11.056   5.603   7.511
 4330ETHY    C1 4246  10.602   5.864   7.510
 4331ETHY    C1 4247  10.103   6.038   7.510
 4332ETHY    C1 4248   9.570   6.122   7.514
 4333AUSL   AUS 4249  12.134   4.066   7.351
 4334AUSL   AUS 4250  12.392   4.413   7.238
 4335AUL    AUL 4251  12.014   4.393   7.199
 4336THSLK    S 4252  11.907   4.181   7.303
 4337ETHY    C1 4253  11.588   4.381   7.049
 4338ETHY    C1 4254  11.155   4.587   6.813
 4339ETHY    C1 4255  10.680   4.753   6.661
 4340ETHY    C1 4256  10.177   4.882   6.590
 4341ETHY    C1 4257   9.657   4.972   6.605
 4342ETHY    C1 4258   9.129   5.020   6.708
 4343THSLK    S 4259  12.280   4.576   7.060
 4344ETHY    C1 4260  12.201   4.886   6.737
 4345ETHY    C1 4261  12.026   5.260   6.397
 4346ETHY    C1 4262  11.772   5.628   6.120
 4347ETHY    C1 4263  11.452   5.985   5.909
 4348ETHY    C1 4264  11.071   6.323   5.770
 4349ETHY    C1 4265  10.636   6.637   5.709
 4350AUSL   AUS 4266  12.134   4.066   7.654
 4351AUSL   AUS 4267  12.134   3.739   7.351
 4352AUL    AUL 4268  11.826   3.902   7.503
 4353THSLK    S 4269  11.880   3.666   7.394
 4354ETHY    C1 4270  11.445   3.648   7.524
 4355ETHY    C1 4271  10.919   3.588   7.597
 4356ETHY    C1 4272  10.404   3.484   7.578
 4357ETHY    C1 4273   9.910   3.341   7.477
 4358ETHY    C1 4274   9.450   3.158   7.294
 4359ETHY    C1 4275   9.032   2.938   7.034
 4360THSLK    S 4276  11.906   4.172   7.707
 4361ETHY    C1 4277  11.585   4.363   7.966
 4362ETHY    C1 4278  11.152   4.567   8.202
 4363ETHY    C1 4279  10.677   4.738   8.352
 4364ETHY    C1 4280  10.175   4.870   8.422
 4365ETHY    C1 4281   9.655   4.958   8.407
 4366ETHY    C1 4282   9.126   4.999   8.308
 4367AUSL   AUS 4283  13.388   3.493   7.503
 4368AUSL   AUS 4284  13.318   3.638   7.919
 4369AUL    AUL 4285  13.602   3.412   7.806
 4370THSLK    S 4286  13.599   3.352   7.508
 4371ETHY    C1 4287  13.821   2.956   7.513
 4372ETHY    C1 4288  14.157   2.541   7.514
 4373ETHY    C1 4289  14.560   2.202   7.511
 4374ETHY    C1 4290  15.014   1.941   7.510
 4375ETHY    C1 4291  15.513   1.767   7.510
 4376ETHY    C1 4292  16.046   1.683   7.514
 4377THSLK    S 4293  13.445   3.447   8.064
 4378ETHY    C1 4294  13.622   3.082   8.270
 4379ETHY    C1 4295  13.893   2.710   8.540
 4380ETHY    C1 4296  14.220   2.421   8.834
 4381ETHY    C1 4297  14.589   2.213   9.142
 4382ETHY    C1 4298  14.991   2.095   9.462
 4383ETHY    C1 4299  15.420   2.070   9.789
 4384AUSL   AUS 4300  13.482   3.739   7.351
 4385AUSL   AUS 4301  13.224   3.392   7.238
 4386AUL    AUL 4302  13.602   3.412   7.199
 4387THSLK    S 4303  13.710   3.599   7.353
 4388ETHY    C1 4304  14.031   3.282   7.298
 4389ETHY    C1 4305  14.464   2.979   7.221
 4390ETHY    C1 4306  14.939   2.769   7.136
 4391ETHY    C1 4307  15.441   2.648   7.048
 4392ETHY    C1 4308  15.961   2.621   6.963
 4393ETHY    C1 4309  16.490   2.692   6.881
 4394THSLK    S 4310  13.340   3.203   7.108
 4395ETHY    C1 4311  13.424   2.774   6.984
 4396ETHY    C1 4312  13.599   2.302   6.803
 4397ETHY    C1 4313  13.852   1.891   6.593
 4398ETHY    C1 4314  14.170   1.543   6.366
 4399ETHY    C1 4315  14.552   1.268   6.126
 4400ETHY    C1 4316  14.990   1.071   5.880
 4401AUSL   AUS 4317  12.228   3.493   7.503
 4402AUSL   AUS 4318  12.298   3.638   7.086
 4403AUL    AUL 4319  12.014   3.412   7.199
 4404THSLK    S 4320  12.127   3.467   6.978
 4405ETHY    C1 4321  11.763   3.202   6.921
 4406ETHY    C1 4322  11.341   2.912   6.766
 4407ETHY    C1 4323  10.949   2.660   6.521
 4408ETHY    C1 4324  10.595   2.447   6.200
 4409ETHY    C1 4325  10.288   2.274   5.806
 4410ETHY    C1 4326  10.037   2.147   5.346
 4411THSLK    S 4327  11.962   3.441   7.508
 4412ETHY    C1 4328  11.508   3.419   7.513
 4413ETHY    C1 4329  10.986   3.305   7.514
 4414ETHY    C1 4330  10.504   3.096   7.511
 4415ETHY    C1 4331  10.067   2.806   7.510
 4416ETHY    C1 4332   9.688   2.439   7.510
 4417ETHY    C1 4333   9.375   1.999   7.514
 4418AUSL   AUS 4334  12.134   3.739   7.654
 4419AUSL   AUS 4335  12.392   3.392   7.767
 4420AUL    AUL 4336  12.014   3.412   7.806
 4421THSLK    S 4337  12.204   3.252   7.878
 4422ETHY    C1 4338  11.817   3.015   7.893
 4423ETHY    C1 4339  11.399   2.695   7.982
 4424ETHY    C1 4340  11.041   2.346   8.149
 4425ETHY    C1 4341  10.746   1.982   8.382
 4426ETHY    C1 4342  10.521   1.611   8.683
 4427ETHY    C1 4343  10.370   1.240   9.045
 4428THSLK    S 4344  11.878   3.676   7.616
 4429ETHY    C1 4345  11.442   3.666   7.491
 4430ETHY    C1 4346  10.916   3.607   7.419
 4431ETHY    C1 4347  10.401   3.500   7.436
 4432ETHY    C1 4348   9.907   3.354   7.535
 4433ETHY    C1 4349   9.447   3.172   7.718
 4434ETHY    C1 4350   9.028   2.959   7.983
 4435AUSL   AUS 4351  12.808   4.482   7.912
 4436AUSL   AUS 4352  12.392   4.413   7.767
 4437AUL    AUL 4353  12.505   4.697   7.993
 4438THSLK    S 4354  12.276   4.569   7.952
 4439ETHY    C1 4355  12.192   4.871   8.280
 4440ETHY    C1 4356  12.017   5.244   8.621
 4441ETHY    C1 4357  11.764   5.615   8.895
 4442ETHY    C1 4358  11.446   5.974   9.105
 4443ETHY    C1 4359  11.064   6.312   9.244
 4444ETHY    C1 4360  10.626   6.620   9.309
 4445THSLK    S 4361  12.850   4.704   8.035
 4446ETHY    C1 4362  13.034   4.979   8.347
 4447ETHY    C1 4363  13.184   5.359   8.691
 4448ETHY    C1 4364  13.250   5.782   8.998
 4449ETHY    C1 4365  13.237   6.233   9.264
 4450ETHY    C1 4366  13.140   6.702   9.485
 4451ETHY    C1 4367  12.960   7.181   9.656
 4452AUSL   AUS 4368  12.656   4.576   7.666
 4453AUSL   AUS 4369  12.960   4.576   7.339
 4454AUL    AUL 4370  12.808   4.884   7.503
 4455THSLK    S 4371  12.699   4.820   7.776
 4456ETHY    C1 4372  12.843   5.214   7.951
 4457ETHY    C1 4373  12.930   5.708   8.137
 4458ETHY    C1 4374  12.918   6.209   8.294
 4459ETHY    C1 4375  12.817   6.707   8.425
 4460ETHY    C1 4376  12.625   7.188   8.527
 4461ETHY    C1 4377  12.345   7.643   8.600
 4462THSLK    S 4378  13.015   4.807   7.243
 4463ETHY    C1 4379  13.291   5.137   7.096
 4464ETHY    C1 4380  13.541   5.578   6.927
 4465ETHY    C1 4381  13.697   6.055   6.771
 4466ETHY    C1 4382  13.766   6.557   6.635
 4467ETHY    C1 4383  13.742   7.073   6.525
 4468ETHY    C1 4384  13.625   7.593   6.443
 4469AUSL   AUS 4385  12.960   4.576   7.666
 4470AUSL   AUS 4386  13.073   4.319   8.013
 4471AUL    AUL 4387  13.111   4.697   7.993
 4472THSLK    S 4388  13.244   4.427   8.183
 4473ETHY    C1 4389  13.539   4.492   8.523
 4474ETHY    C1 4390  13.857   4.654   8.920
 4475ETHY    C1 4391  14.125   4.903   9.298
 4476ETHY    C1 4392  14.339   5.225   9.653
 4477ETHY    C1 4393  14.491   5.613   9.976
 4478ETHY    C1 4394  14.577   6.063  10.262
 4479THSLK    S 4395  13.013   4.805   7.772
 4480ETHY    C1 4396  13.285   5.133   7.929
 4481ETHY    C1 4397  13.535   5.573   8.100
 4482ETHY    C1 4398  13.693   6.052   8.251
 4483ETHY    C1 4399  13.762   6.554   8.383
 4484ETHY    C1 4400  13.738   7.069   8.494
 4485ETHY    C1 4401  13.619   7.588   8.585
 4486AUSL   AUS 4402  12.808   3.322   7.912
 4487AUSL   AUS 4403  13.224   3.392   7.767
 4488AUL    AUL 4404  13.111   3.108   7.993
 4489THSLK    S 4405  12.761   3.072   7.989
 4490ETHY    C1 4406  12.571   2.676   8.103
 4491ETHY    C1 4407  12.420   2.198   8.289
 4492ETHY    C1 4408  12.357   1.733   8.528
 4493ETHY    C1 4409  12.372   1.291   8.809
 4494ETHY    C1 4410  12.468   0.884   9.132
 4495ETHY    C1 4411  12.643   0.521   9.489
 4496THSLK    S 4412  13.336   3.205   7.907
 4497ETHY    C1 4413  13.415   2.777   8.040
 4498ETHY    C1 4414  13.590   2.307   8.222
 4499ETHY    C1 4415  13.844   1.895   8.428
 4500ETHY    C1 4416  14.164   1.546   8.652
 4501ETHY    C1 4417  14.545   1.271   8.893
 4502ETHY    C1 4418  14.980   1.075   9.147
 4503AUSL   AUS 4419  12.656   3.229   7.666
 4504AUSL   AUS 4420  12.543   3.486   8.013
 4505AUL    AUL 4421  12.505   3.108   7.993
 4506THSLK    S 4422  12.601   2.993   7.745
 4507ETHY    C1 4423  12.326   2.634   7.788
 4508ETHY    C1 4424  12.075   2.169   7.869
 4509ETHY    C1 4425  11.919   1.679   7.981
 4510ETHY    C1 4426  11.850   1.180   8.122
 4511ETHY    C1 4427  11.874   0.680   8.292
 4512ETHY    C1 4428  11.991   0.192   8.489
 4513THSLK    S 4429  12.365   3.320   8.129
 4514ETHY    C1 4430  12.063   3.002   8.248
 4515ETHY    C1 4431  11.744   2.635   8.471
 4516ETHY    C1 4432  11.479   2.298   8.776
 4517ETHY    C1 4433  11.267   1.996   9.147
 4518ETHY    C1 4434  11.114   1.738   9.582
 4519ETHY    C1 4435  11.023   1.531  10.072
 4520AUSL   AUS 4436  12.960   3.229   7.666
 4521AUSL   AUS 4437  12.656   3.229   7.339
 4522AUL    AUL 4438  12.808   2.921   7.503
 4523THSLK    S 4439  12.603   2.990   7.270
 4524ETHY    C1 4440  12.331   2.628   7.236
 4525ETHY    C1 4441  12.081   2.163   7.157
 4526ETHY    C1 4442  11.924   1.674   7.041
 4527ETHY    C1 4443  11.854   1.175   6.896
 4528ETHY    C1 4444  11.878   0.676   6.727
 4529ETHY    C1 4445  11.997   0.185   6.538
 4530THSLK    S 4446  12.914   2.977   7.749
 4531ETHY    C1 4447  12.767   2.551   7.811
 4532ETHY    C1 4448  12.681   2.033   7.906
 4533ETHY    C1 4449  12.693   1.520   8.025
 4534ETHY    C1 4450  12.795   1.025   8.165
 4535ETHY    C1 4451  12.987   0.560   8.325
 4536ETHY    C1 4452  13.265   0.134   8.504
 4537AUSL   AUS 4453  12.808   4.482   7.094
 4538AUSL   AUS 4454  13.224   4.413   7.238
 4539AUL    AUL 4455  13.111   4.697   7.012
 4540THSLK    S 4456  12.855   4.709   6.977
 4541ETHY    C1 4457  13.045   4.988   6.674
 4542ETHY    C1 4458  13.196   5.369   6.330
 4543ETHY    C1 4459  13.260   5.789   6.021
 4544ETHY    C1 4460  13.244   6.239   5.752
 4545ETHY    C1 4461  13.148   6.709   5.532
 4546ETHY    C1 4462  12.973   7.192   5.366
 4547THSLK    S 4463  13.412   4.529   7.089
 4548ETHY    C1 4464  13.799   4.649   6.883
 4549ETHY    C1 4465  14.217   4.872   6.637
 4550ETHY    C1 4466  14.575   5.176   6.400
 4551ETHY    C1 4467  14.870   5.548   6.178
 4552ETHY    C1 4468  15.095   5.983   5.981
 4553ETHY    C1 4469  15.246   6.472   5.811
 4554AUSL   AUS 4470  12.656   4.576   7.339
 4555AUSL   AUS 4471  12.543   4.319   6.992
 4556AUL    AUL 4472  12.505   4.697   7.012
 4557THSLK    S 4473  12.702   4.823   7.239
 4558ETHY    C1 4474  12.849   5.220   7.074
 4559ETHY    C1 4475  12.935   5.714   6.889
 4560ETHY    C1 4476  12.923   6.215   6.727
 4561ETHY    C1 4477  12.821   6.711   6.593
 4562ETHY    C1 4478  12.629   7.192   6.492
 4563ETHY    C1 4479  12.351   7.650   6.427
 4564THSLK    S 4480  12.433   4.451   6.805
 4565ETHY    C1 4481  12.397   4.600   6.377
 4566ETHY    C1 4482  12.287   4.826   5.906
 4567ETHY    C1 4483  12.109   5.101   5.494
 4568ETHY    C1 4484  11.875   5.414   5.145
 4569ETHY    C1 4485  11.589   5.763   4.870
 4570ETHY    C1 4486  11.258   6.141   4.675
 4571AUSL   AUS 4487  12.808   3.322   7.094
 4572AUSL   AUS 4488  12.392   3.392   7.238
 4573AUL    AUL 4489  12.505   3.108   7.012
 4574THSLK    S 4490  12.209   3.244   7.134
 4575ETHY    C1 4491  11.826   3.000   7.124
 4576ETHY    C1 4492  11.408   2.679   7.035
 4577ETHY    C1 4493  11.049   2.333   6.866
 4578ETHY    C1 4494  10.752   1.972   6.631
 4579ETHY    C1 4495  10.527   1.600   6.331
 4580ETHY    C1 4496  10.380   1.223   5.974
 4581THSLK    S 4497  12.766   3.067   7.024
 4582ETHY    C1 4498  12.582   2.666   6.917
 4583ETHY    C1 4499  12.432   2.188   6.732
 4584ETHY    C1 4500  12.366   1.725   6.491
 4585ETHY    C1 4501  12.379   1.285   6.206
 4586ETHY    C1 4502  12.476   0.878   5.885
 4587ETHY    C1 4503  12.656   0.510   5.533
 4588AUSL   AUS 4504  12.960   3.229   7.339
 4589AUSL   AUS 4505  13.073   3.486   6.992
 4590AUL    AUL 4506  13.111   3.108   7.012
 4591THSLK    S 4507  12.917   2.975   7.266
 4592ETHY    C1 4508  12.773   2.547   7.213
 4593ETHY    C1 4509  12.686   2.028   7.120
 4594ETHY    C1 4510  12.698   1.516   6.997
 4595ETHY    C1 4511  12.799   1.022   6.854
 4596ETHY    C1 4512  12.991   0.557   6.695
 4597ETHY    C1 4513  13.271   0.129   6.523
 4598THSLK    S 4514  13.190   3.296   6.859
 4599ETHY    C1 4515  13.234   2.894   6.651
 4600ETHY    C1 4516  13.344   2.463   6.355
 4601ETHY    C1 4517  13.520   2.100   6.017
 4602ETHY    C1 4518  13.751   1.806   5.651
 4603ETHY    C1 4519  14.037   1.589   5.264
 4604ETHY    C1 4520  14.374   1.453   4.865
 4605AUC    AUC 4521   5.592   8.794   7.503
 4606AUC    AUC 4522   5.837   8.794   7.351
 4607AUC    AUC 4523   5.837   8.794   7.654
 4608AUC    AUC 4524   5.347   8.794   7.351
 4609AUC    AUC 4525   5.347   8.794   7.654
 4610AUC    AUC 4526   5.440   9.040   7.503
 4611AUC    AUC 4527   5.744   9.040   7.503
 4612AUC    AUC 4528   5.440   8.549   7.503
 4613AUC    AUC 4529   5.744   8.549   7.503
 4614AUC    AUC 4530   5.592   8.643   7.748
 4615AUC    AUC 4531   5.592   8.946   7.748
 4616AUC    AUC 4532   5.592   8.643   7.257
 4617AUC    AUC 4533   5.592   8.946   7.257
 4618AUC    AUC 4534   6.083   8.794   7.199
 4619AUC    AUC 4535   6.083   8.794   7.503
 4620AUC    AUC 4536   6.083   8.794   7.806
 4621AUC    AUC 4537   5.101   8.794   7.199
 4622AUC    AUC 4538   5.101   8.794   7.503
 4623AUC    AUC 4539   5.101   8.794   7.806
 4624AUC    AUC 4540   5.289   9.285   7.503
 4625AUC    AUC 4541   5.592   9.285   7.503
 4626AUC    AUC 4542   5.895   9.285   7.503
 4627AUC    AUC 4543   5.289   8.304   7.503
 4628AUC    AUC 4544   5.592   8.304   7.503
 4629AUC    AUC 4545   5.895   8.304   7.503
 4630AUC    AUC 4546   5.592   8.491   7.993
 4631AUC    AUC 4547   5.592   8.794   7.993
 4632AUC    AUC 4548   5.592   9.098   7.993
 4633AUC    AUC 4549   5.592   8.491   7.012
 4634AUC    AUC 4550   5.592   8.794   7.012
 4635AUC    AUC 4551   5.592   9.098   7.012
 4636AUC    AUC 4552   5.837   8.643   7.900
 4637AUC    AUC 4553   5.837   8.946   7.900
 4638AUC    AUC 4554   5.837   8.643   7.106
 4639AUC    AUC 4555   5.837   8.946   7.106
 4640AUC    AUC 4556   5.347   8.643   7.900
 4641AUC    AUC 4557   5.347   8.946   7.900
 4642AUC    AUC 4558   5.347   8.643   7.106
 4643AUC    AUC 4559   5.347   8.946   7.106
 4644AUC    AUC 4560   5.989   9.040   7.351
 4645AUC    AUC 4561   5.989   9.040   7.654
 4646AUC    AUC 4562   5.195   9.040   7.351
 4647AUC    AUC 4563   5.195   9.040   7.654
 4648AUC    AUC 4564   5.989   8.549   7.351
 4649AUC    AUC 4565   5.989   8.549   7.654
 4650AUC    AUC 4566   5.195   8.549   7.351
 4651AUC    AUC 4567   5.195   8.549   7.654
 4652AUC    AUC 4568   5.440   9.192   7.748
 4653AUC    AUC 4569   5.744   9.192   7.748
 4654AUC    AUC 4570   5.440   8.397   7.748
 4655AUC    AUC 4571   5.744   8.397   7.748
 4656AUC    AUC 4572   5.440   9.192   7.257
 4657AUC    AUC 4573   5.744   9.192   7.257
 4658AUC    AUC 4574   5.440   8.397   7.257
 4659AUC    AUC 4575   5.744   8.397   7.257
 4660AUSL   AUS 4576   6.001   8.794   8.083
 4661AUSL   AUS 4577   5.857   8.378   8.013
 4662AUL    AUL 4578   6.083   8.491   8.297
 4663THSLK    S 4579   5.967   8.191   8.153
 4664ETHY    C1 4580   6.003   7.792   8.368
 4665ETHY    C1 4581   6.113   7.362   8.665
 4666ETHY    C1 4582   6.291   6.998   9.000
 4667ETHY    C1 4583   6.525   6.702   9.364
 4668ETHY    C1 4584   6.811   6.485   9.752
 4669ETHY    C1 4585   7.142   6.352  10.156
 4670THSLK    S 4586   6.094   8.742   8.324
 4671ETHY    C1 4587   6.298   8.522   8.665
 4672ETHY    C1 4588   6.562   8.345   9.094
 4673ETHY    C1 4589   6.838   8.269   9.535
 4674ETHY    C1 4590   7.115   8.286   9.980
 4675ETHY    C1 4591   7.385   8.399  10.419
 4676ETHY    C1 4592   7.644   8.608  10.845
 4677AUSL   AUS 4593   5.756   8.643   8.176
 4678AUSL   AUS 4594   5.428   8.946   8.176
 4679AUL    AUL 4595   5.592   8.794   8.484
 4680THSLK    S 4596   5.831   8.588   8.413
 4681ETHY    C1 4597   5.895   8.308   8.765
 4682ETHY    C1 4598   5.998   8.053   9.223
 4683ETHY    C1 4599   6.125   7.894   9.708
 4684ETHY    C1 4600   6.267   7.825  10.208
 4685ETHY    C1 4601   6.421   7.853  10.713
 4686ETHY    C1 4602   6.581   7.977  11.212
 4687THSLK    S 4603   5.343   8.900   8.428
 4688ETHY    C1 4604   5.269   8.750   8.850
 4689ETHY    C1 4605   5.164   8.662   9.367
 4690ETHY    C1 4606   5.042   8.674   9.878
 4691ETHY    C1 4607   4.904   8.775  10.373
 4692ETHY    C1 4608   4.749   8.968  10.840
 4693ETHY    C1 4609   4.580   9.249  11.268
 4694AUSL   AUS 4610   5.756   8.946   8.176
 4695AUSL   AUS 4611   6.102   9.059   7.919
 4696AUL    AUL 4612   6.083   9.098   8.297
 4697THSLK    S 4613   5.841   9.002   8.410
 4698ETHY    C1 4614   5.915   9.283   8.759
 4699ETHY    C1 4615   6.020   9.538   9.217
 4700ETHY    C1 4616   6.142   9.697   9.703
 4701ETHY    C1 4617   6.281   9.766  10.204
 4702ETHY    C1 4618   6.435   9.739  10.708
 4703ETHY    C1 4619   6.604   9.615  11.206
 4704THSLK    S 4620   6.274   9.157   8.080
 4705ETHY    C1 4621   6.637   9.128   8.350
 4706ETHY    C1 4622   7.059   9.184   8.673
 4707ETHY    C1 4623   7.451   9.338   8.989
 4708ETHY    C1 4624   7.805   9.576   9.293
 4709ETHY    C1 4625   8.112   9.897   9.580
 4710ETHY    C1 4626   8.363  10.294   9.844
 4711AUSL   AUS 4627   6.001   8.794   6.923
 4712AUSL   AUS 4628   5.857   9.211   6.992
 4713AUL    AUL 4629   6.083   9.098   6.708
 4714THSLK    S 4630   6.103   8.742   6.687
 4715ETHY    C1 4631   6.316   8.522   6.351
 4716ETHY    C1 4632   6.581   8.345   5.923
 4717ETHY    C1 4633   6.853   8.269   5.479
 4718ETHY    C1 4634   7.127   8.286   5.033
 4719ETHY    C1 4635   7.398   8.399   4.594
 4720ETHY    C1 4636   7.663   8.608   4.173
 4721THSLK    S 4637   6.035   9.322   6.829
 4722ETHY    C1 4638   6.337   9.390   6.497
 4723ETHY    C1 4639   6.656   9.553   6.100
 4724ETHY    C1 4640   6.921   9.800   5.719
 4725ETHY    C1 4641   7.133  10.120   5.362
 4726ETHY    C1 4642   7.286  10.510   5.039
 4727ETHY    C1 4643   7.377  10.962   4.759
 4728AUSL   AUS 4644   5.756   8.643   6.829
 4729AUSL   AUS 4645   6.102   8.530   7.086
 4730AUL    AUL 4646   6.083   8.491   6.708
 4731THSLK    S 4647   6.235   8.338   6.949
 4732ETHY    C1 4648   6.418   7.971   6.752
 4733ETHY    C1 4649   6.690   7.599   6.483
 4734ETHY    C1 4650   7.015   7.310   6.186
 4735ETHY    C1 4651   7.381   7.103   5.874
 4736ETHY    C1 4652   7.785   6.984   5.555
 4737ETHY    C1 4653   8.218   6.959   5.235
 4738THSLK    S 4654   5.841   8.587   6.596
 4739ETHY    C1 4655   5.915   8.306   6.246
 4740ETHY    C1 4656   6.020   8.050   5.788
 4741ETHY    C1 4657   6.142   7.892   5.302
 4742ETHY    C1 4658   6.281   7.823   4.801
 4743ETHY    C1 4659   6.435   7.850   4.297
 4744ETHY    C1 4660   6.604   7.974   3.799
 4745AUSL   AUS 4661   5.756   8.946   6.829
 4746AUSL   AUS 4662   5.428   8.643   6.829
 4747AUL    AUL 4663   5.592   8.794   6.521
 4748THSLK    S 4664   5.336   8.587   6.597
 4749ETHY    C1 4665   5.201   8.309   6.264
 4750ETHY    C1 4666   5.040   8.056   5.822
 4751ETHY    C1 4667   4.888   7.899   5.343
 4752ETHY    C1 4668   4.752   7.830   4.842
 4753ETHY    C1 4669   4.635   7.856   4.328
 4754ETHY    C1 4670   4.542   7.975   3.810
 4755THSLK    S 4671   5.858   8.900   6.583
 4756ETHY    C1 4672   6.004   8.750   6.179
 4757ETHY    C1 4673   6.166   8.659   5.678
 4758ETHY    C1 4674   6.313   8.669   5.173
 4759ETHY    C1 4675   6.446   8.770   4.677
 4760ETHY    C1 4676   6.563   8.965   4.200
 4761ETHY    C1 4677   6.664   9.251   3.754
 4762AUSL   AUS 4678   5.183   8.794   8.083
 4763AUSL   AUS 4679   5.327   9.211   8.013
 4764AUL    AUL 4680   5.101   9.098   8.297
 4765THSLK    S 4681   5.081   8.742   8.319
 4766ETHY    C1 4682   4.869   8.522   8.654
 4767ETHY    C1 4683   4.603   8.345   9.082
 4768ETHY    C1 4684   4.331   8.269   9.526
 4769ETHY    C1 4685   4.057   8.286   9.973
 4770ETHY    C1 4686   3.786   8.399  10.411
 4771ETHY    C1 4687   3.521   8.608  10.832
 4772THSLK    S 4688   5.210   9.335   8.202
 4773ETHY    C1 4689   5.167   9.478   8.632
 4774ETHY    C1 4690   5.056   9.703   9.104
 4775ETHY    C1 4691   4.880   9.980   9.515
 4776ETHY    C1 4692   4.649  10.296   9.863
 4777ETHY    C1 4693   4.363  10.644  10.138
 4778ETHY    C1 4694   4.026  11.017  10.334
 4779AUSL   AUS 4695   5.428   8.643   8.176
 4780AUSL   AUS 4696   5.082   8.530   7.919
 4781AUL    AUL 4697   5.101   8.491   8.297
 4782THSLK    S 4698   4.905   8.367   8.026
 4783ETHY    C1 4699   4.534   8.110   8.082
 4784ETHY    C1 4700   4.112   7.822   8.237
 4785ETHY    C1 4701   3.722   7.567   8.482
 4786ETHY    C1 4702   3.370   7.350   8.803
 4787ETHY    C1 4703   3.064   7.179   9.198
 4788ETHY    C1 4704   2.807   7.058   9.657
 4789THSLK    S 4705   5.326   8.589   8.406
 4790ETHY    C1 4706   5.180   8.313   8.736
 4791ETHY    C1 4707   5.018   8.061   9.178
 4792ETHY    C1 4708   4.871   7.903   9.658
 4793ETHY    C1 4709   4.738   7.833  10.160
 4794ETHY    C1 4710   4.621   7.859  10.674
 4795ETHY    C1 4711   4.520   7.980  11.190
 4796AUSL   AUS 4712   5.183   8.794   6.923
 4797AUSL   AUS 4713   5.327   8.378   6.992
 4798AUL    AUL 4714   5.101   8.491   6.708
 4799THSLK    S 4715   5.090   8.742   6.681
 4800ETHY    C1 4716   4.886   8.522   6.341
 4801ETHY    C1 4717   4.622   8.345   5.911
 4802ETHY    C1 4718   4.346   8.269   5.470
 4803ETHY    C1 4719   4.069   8.286   5.025
 4804ETHY    C1 4720   3.799   8.399   4.586
 4805ETHY    C1 4721   3.540   8.608   4.161
 4806THSLK    S 4722   5.156   8.205   6.878
 4807ETHY    C1 4723   4.861   7.879   6.760
 4808ETHY    C1 4724   4.543   7.512   6.538
 4809ETHY    C1 4725   4.275   7.177   6.233
 4810ETHY    C1 4726   4.061   6.877   5.861
 4811ETHY    C1 4727   3.909   6.619   5.426
 4812ETHY    C1 4728   3.823   6.407   4.937
 4813AUSL   AUS 4729   5.428   8.946   6.829
 4814AUSL   AUS 4730   5.082   9.059   7.086
 4815AUL    AUL 4731   5.101   9.098   6.708
 4816THSLK    S 4732   4.955   9.186   6.895
 4817ETHY    C1 4733   4.778   9.267   6.484
 4818ETHY    C1 4734   4.507   9.407   6.046
 4819ETHY    C1 4735   4.180   9.595   5.679
 4820ETHY    C1 4736   3.811   9.824   5.385
 4821ETHY    C1 4737   3.409  10.091   5.173
 4822ETHY    C1 4738   2.980  10.393   5.047
 4823THSLK    S 4739   5.353   8.902   6.576
 4824ETHY    C1 4740   5.289   8.755   6.150
 4825ETHY    C1 4741   5.186   8.666   5.634
 4826ETHY    C1 4742   5.059   8.677   5.123
 4827ETHY    C1 4743   4.917   8.778   4.629
 4828ETHY    C1 4744   4.764   8.971   4.162
 4829ETHY    C1 4745   4.603   9.254   3.732
 4830AUSL   AUS 4746   6.172   9.203   7.503
 4831AUSL   AUS 4747   6.102   9.059   7.086
 4832AUL    AUL 4748   6.386   9.285   7.199
 4833THSLK    S 4749   6.280   9.158   6.934
 4834ETHY    C1 4750   6.650   9.131   6.671
 4835ETHY    C1 4751   7.072   9.187   6.349
 4836ETHY    C1 4752   7.462   9.341   6.030
 4837ETHY    C1 4753   7.814   9.578   5.724
 4838ETHY    C1 4754   8.121   9.899   5.438
 4839ETHY    C1 4755   8.377  10.298   5.179
 4840THSLK    S 4756   6.438   9.256   7.508
 4841ETHY    C1 4757   6.892   9.278   7.513
 4842ETHY    C1 4758   7.414   9.392   7.514
 4843ETHY    C1 4759   7.897   9.601   7.511
 4844ETHY    C1 4760   8.333   9.891   7.510
 4845ETHY    C1 4761   8.712  10.258   7.510
 4846ETHY    C1 4762   9.026  10.698   7.514
 4847AUSL   AUS 4763   6.266   8.958   7.351
 4848AUSL   AUS 4764   6.266   8.631   7.654
 4849AUL    AUL 4765   6.574   8.794   7.503
 4850THSLK    S 4766   6.522   8.997   7.350
 4851ETHY    C1 4767   6.958   8.889   7.286
 4852ETHY    C1 4768   7.484   8.851   7.201
 4853ETHY    C1 4769   7.999   8.915   7.113
 4854ETHY    C1 4770   8.493   9.069   7.026
 4855ETHY    C1 4771   8.953   9.314   6.945
 4856ETHY    C1 4772   9.372   9.646   6.873
 4857THSLK    S 4773   6.493   8.491   7.663
 4858ETHY    C1 4774   6.812   8.175   7.728
 4859ETHY    C1 4775   7.245   7.871   7.807
 4860ETHY    C1 4776   7.720   7.661   7.887
 4861ETHY    C1 4777   8.223   7.540   7.971
 4862ETHY    C1 4778   8.743   7.514   8.058
 4863ETHY    C1 4779   9.271   7.584   8.147
 4864AUSL   AUS 4780   6.266   8.958   7.654
 4865AUSL   AUS 4781   6.008   9.305   7.767
 4866AUL    AUL 4782   6.386   9.285   7.806
 4867THSLK    S 4783   6.191   9.419   7.926
 4868ETHY    C1 4784   6.574   9.537   8.140
 4869ETHY    C1 4785   6.992   9.760   8.388
 4870ETHY    C1 4786   7.351  10.065   8.622
 4871ETHY    C1 4787   7.648  10.438   8.840
 4872ETHY    C1 4788   7.873  10.872   9.038
 4873ETHY    C1 4789   8.020  11.360   9.215
 4874THSLK    S 4790   6.520   8.997   7.665
 4875ETHY    C1 4791   6.955   8.889   7.740
 4876ETHY    C1 4792   7.481   8.851   7.826
 4877ETHY    C1 4793   7.996   8.914   7.910
 4878ETHY    C1 4794   8.490   9.068   7.993
 4879ETHY    C1 4795   8.951   9.313   8.075
 4880ETHY    C1 4796   9.368   9.645   8.155
 4881AUSL   AUS 4797   5.012   9.203   7.503
 4882AUSL   AUS 4798   5.082   9.059   7.919
 4883AUL    AUL 4799   4.798   9.285   7.806
 4884THSLK    S 4800   4.949   9.178   8.109
 4885ETHY    C1 4801   4.766   9.250   8.519
 4886ETHY    C1 4802   4.494   9.390   8.957
 4887ETHY    C1 4803   4.169   9.581   9.324
 4888ETHY    C1 4804   3.803   9.812   9.619
 4889ETHY    C1 4805   3.400  10.079   9.831
 4890ETHY    C1 4806   2.966  10.375   9.956
 4891THSLK    S 4807   4.801   9.344   7.508
 4892ETHY    C1 4808   4.579   9.741   7.513
 4893ETHY    C1 4809   4.243  10.156   7.514
 4894ETHY    C1 4810   3.840  10.495   7.511
 4895ETHY    C1 4811   3.386  10.756   7.510
 4896ETHY    C1 4812   2.887  10.930   7.510
 4897ETHY    C1 4813   2.354  11.014   7.514
 4898AUSL   AUS 4814   4.918   8.958   7.351
 4899AUSL   AUS 4815   5.176   9.305   7.238
 4900AUL    AUL 4816   4.798   9.285   7.199
 4901THSLK    S 4817   4.691   9.073   7.303
 4902ETHY    C1 4818   4.372   9.273   7.049
 4903ETHY    C1 4819   3.939   9.479   6.813
 4904ETHY    C1 4820   3.464   9.645   6.661
 4905ETHY    C1 4821   2.961   9.774   6.590
 4906ETHY    C1 4822   2.441   9.864   6.605
 4907ETHY    C1 4823   1.913   9.912   6.708
 4908THSLK    S 4824   5.064   9.468   7.060
 4909ETHY    C1 4825   4.985   9.778   6.737
 4910ETHY    C1 4826   4.810  10.152   6.397
 4911ETHY    C1 4827   4.556  10.520   6.120
 4912ETHY    C1 4828   4.236  10.877   5.909
 4913ETHY    C1 4829   3.855  11.215   5.770
 4914ETHY    C1 4830   3.420  11.529   5.709
 4915AUSL   AUS 4831   4.918   8.958   7.654
 4916AUSL   AUS 4832   4.918   8.631   7.351
 4917AUL    AUL 4833   4.610   8.794   7.503
 4918THSLK    S 4834   4.664   8.558   7.394
 4919ETHY    C1 4835   4.229   8.540   7.524
 4920ETHY    C1 4836   3.703   8.480   7.597
 4921ETHY    C1 4837   3.188   8.376   7.578
 4922ETHY    C1 4838   2.694   8.233   7.477
 4923ETHY    C1 4839   2.234   8.050   7.294
 4924ETHY    C1 4840   1.816   7.830   7.034
 4925THSLK    S 4841   4.690   9.064   7.707
 4926ETHY    C1 4842   4.369   9.255   7.966
 4927ETHY    C1 4843   3.936   9.459   8.202
 4928ETHY    C1 4844   3.461   9.630   8.352
 4929ETHY    C1 4845   2.959   9.762   8.422
 4930ETHY    C1 4846   2.439   9.850   8.407
 4931ETHY    C1 4847   1.910   9.891   8.308
 4932AUSL   AUS 4848   6.172   8.385   7.503
 4933AUSL   AUS 4849   6.102   8.530   7.919
 4934AUL    AUL 4850   6.386   8.304   7.806
 4935THSLK    S 4851   6.383   8.244   7.508
 4936ETHY    C1 4852   6.605   7.848   7.513
 4937ETHY    C1 4853   6.941   7.433   7.514
 4938ETHY    C1 4854   7.344   7.094   7.511
 4939ETHY    C1 4855   7.798   6.833   7.510
 4940ETHY    C1 4856   8.297   6.659   7.510
 4941ETHY    C1 4857   8.830   6.575   7.514
 4942THSLK    S 4858   6.229   8.339   8.064
 4943ETHY    C1 4859   6.406   7.974   8.270
 4944ETHY    C1 4860   6.677   7.602   8.540
 4945ETHY    C1 4861   7.004   7.313   8.834
 4946ETHY    C1 4862   7.373   7.105   9.142
 4947ETHY    C1 4863   7.775   6.987   9.462
 4948ETHY    C1 4864   8.204   6.962   9.789
 4949AUSL   AUS 4865   6.266   8.631   7.351
 4950AUSL   AUS 4866   6.008   8.284   7.238
 4951AUL    AUL 4867   6.386   8.304   7.199
 4952THSLK    S 4868   6.494   8.491   7.353
 4953ETHY    C1 4869   6.815   8.174   7.298
 4954ETHY    C1 4870   7.248   7.871   7.221
 4955ETHY    C1 4871   7.723   7.661   7.136
 4956ETHY    C1 4872   8.225   7.540   7.048
 4957ETHY    C1 4873   8.745   7.513   6.963
 4958ETHY    C1 4874   9.274   7.584   6.881
 4959THSLK    S 4875   6.124   8.095   7.108
 4960ETHY    C1 4876   6.208   7.666   6.984
 4961ETHY    C1 4877   6.383   7.194   6.803
 4962ETHY    C1 4878   6.636   6.783   6.593
 4963ETHY    C1 4879   6.954   6.435   6.366
 4964ETHY    C1 4880   7.336   6.160   6.126
 4965ETHY    C1 4881   7.774   5.963   5.880
 4966AUSL   AUS 4882   5.012   8.385   7.503
 4967AUSL   AUS 4883   5.082   8.530   7.086
 4968AUL    AUL 4884   4.798   8.304   7.199
 4969THSLK    S 4885   4.911   8.359   6.978
 4970ETHY    C1 4886   4.547   8.094   6.921
 4971ETHY    C1 4887   4.125   7.804   6.766
 4972ETHY    C1 4888   3.733   7.552   6.521
 4973ETHY    C1 4889   3.379   7.339   6.200
 4974ETHY    C1 4890   3.072   7.166   5.806
 4975ETHY    C1 4891   2.821   7.039   5.346
 4976THSLK    S 4892   4.746   8.333   7.508
 4977ETHY    C1 4893   4.292   8.311   7.513
 4978ETHY    C1 4894   3.770   8.197   7.514
 4979ETHY    C1 4895   3.288   7.988   7.511
 4980ETHY    C1 4896   2.851   7.698   7.510
 4981ETHY    C1 4897   2.472   7.331   7.510
 4982ETHY    C1 4898   2.159   6.891   7.514
 4983AUSL   AUS 4899   4.918   8.631   7.654
 4984AUSL   AUS 4900   5.176   8.284   7.767
 4985AUL    AUL 4901   4.798   8.304   7.806
 4986THSLK    S 4902   4.988   8.144   7.878
 4987ETHY    C1 4903   4.601   7.907   7.893
 4988ETHY    C1 4904   4.183   7.587   7.982
 4989ETHY    C1 4905   3.825   7.238   8.149
 4990ETHY    C1 4906   3.530   6.874   8.382
 4991ETHY    C1 4907   3.305   6.503   8.683
 4992ETHY    C1 4908   3.154   6.132   9.045
 4993THSLK    S 4909   4.662   8.568   7.616
 4994ETHY    C1 4910   4.226   8.558   7.491
 4995ETHY    C1 4911   3.700   8.499   7.419
 4996ETHY    C1 4912   3.185   8.392   7.436
 4997ETHY    C1 4913   2.691   8.246   7.535
 4998ETHY    C1 4914   2.231   8.064   7.718
 4999ETHY    C1 4915   1.812   7.851   7.983
 5000AUSL   AUS 4916   5.592   9.374   7.912
 5001AUSL   AUS 4917   5.176   9.305   7.767
 5002AUL    AUL 4918   5.289   9.589   7.993
 5003THSLK    S 4919   5.060   9.461   7.952
 5004ETHY    C1 4920   4.976   9.763   8.280
 5005ETHY    C1 4921   4.801  10.136   8.621
 5006ETHY    C1 4922   4.548  10.507   8.895
 5007ETHY    C1 4923   4.230  10.866   9.105
 5008ETHY    C1 4924   3.848  11.204   9.244
 5009ETHY    C1 4925   3.410  11.512   9.309
 5010THSLK    S 4926   5.634   9.596   8.035
 5011ETHY    C1 4927   5.818   9.871   8.347
 5012ETHY    C1 4928   5.968  10.251   8.691
 5013ETHY    C1 4929   6.034  10.674   8.998
 5014ETHY    C1 4930   6.021  11.125   9.264
 5015ETHY    C1 4931   5.924  11.594   9.485
 5016ETHY    C1 4932   5.744  12.073   9.656
 5017AUSL   AUS 4933   5.440   9.468   7.666
 5018AUSL   AUS 4934   5.744   9.468   7.339
 5019AUL    AUL 4935   5.592   9.776   7.503
 5020THSLK    S 4936   5.483   9.712   7.776
 5021ETHY    C1 4937   5.627  10.106   7.951
 5022ETHY    C1 4938   5.714  10.600   8.137
 5023ETHY    C1 4939   5.702  11.101   8.294
 5024ETHY    C1 4940   5.601  11.599   8.425
 5025ETHY    C1 4941   5.409  12.080   8.527
 5026ETHY    C1 4942   5.129  12.535   8.600
 5027THSLK    S 4943   5.799   9.699   7.243
 5028ETHY    C1 4944   6.075  10.029   7.096
 5029ETHY    C1 4945   6.325  10.470   6.927
 5030ETHY    C1 4946   6.481  10.947   6.771
 5031ETHY    C1 4947   6.550  11.449   6.635
 5032ETHY    C1 4948   6.526  11.965   6.525
 5033ETHY    C1 4949   6.409  12.485   6.443
 5034AUSL   AUS 4950   5.744   9.468   7.666
 5035AUSL   AUS 4951   5.857   9.211   8.013
 5036AUL    AUL 4952   5.895   9.589   7.993
 5037THSLK    S 4953   6.028   9.319   8.183
 5038ETHY    C1 4954   6.323   9.384   8.523
 5039ETHY    C1 4955   6.641   9.546   8.920
 5040ETHY    C1 4956   6.909   9.795   9.298
 5041ETHY    C1 4957   7.123  10.117   9.653
 5042ETHY    C1 4958   7.275  10.505   9.976
 5043ETHY    C1 4959   7.361  10.955  10.262
 5044THSLK    S 4960   5.797   9.697   7.772
 5045ETHY    C1 4961   6.069  10.025   7.929
 5046ETHY    C1 4962   6.319  10.465   8.100
 5047ETHY    C1 4963   6.477  10.944   8.251
 5048ETHY    C1 4964   6.546  11.446   8.383
 5049ETHY    C1 4965   6.522  11.961   8.494
 5050ETHY    C1 4966   6.403  12.480   8.585
 5051AUSL   AUS 4967   5.592   8.214   7.912
 5052AUSL   AUS 4968   6.008   8.284   7.767
 5053AUL    AUL 4969   5.895   8.000   7.993
 5054THSLK    S 4970   5.545   7.964   7.989
 5055ETHY    C1 4971   5.355   7.568   8.103
 5056ETHY    C1 4972   5.204   7.090   8.289
 5057ETHY    C1 4973   5.141   6.625   8.528
 5058ETHY    C1 4974   5.156   6.183   8.809
 5059ETHY    C1 4975   5.252   5.776   9.132
 5060ETHY    C1 4976   5.427   5.413   9.489
 5061THSLK    S 4977   6.120   8.097   7.907
 5062ETHY    C1 4978   6.199   7.669   8.040
 5063ETHY    C1 4979   6.374   7.199   8.222
 5064ETHY    C1 4980   6.628   6.787   8.428
 5065ETHY    C1 4981   6.948   6.438   8.652
 5066ETHY    C1 4982   7.329   6.163   8.893
 5067ETHY    C1 4983   7.764   5.967   9.147
 5068AUSL   AUS 4984   5.440   8.121   7.666
 5069AUSL   AUS 4985   5.327   8.378   8.013
 5070AUL    AUL 4986   5.289   8.000   7.993
 5071THSLK    S 4987   5.385   7.885   7.745
 5072ETHY    C1 4988   5.110   7.526   7.788
 5073ETHY    C1 4989   4.859   7.061   7.869
 5074ETHY    C1 4990   4.703   6.571   7.981
 5075ETHY    C1 4991   4.634   6.072   8.122
 5076ETHY    C1 4992   4.658   5.572   8.292
 5077ETHY    C1 4993   4.775   5.084   8.489
 5078THSLK    S 4994   5.149   8.212   8.129
 5079ETHY    C1 4995   4.847   7.894   8.248
 5080ETHY    C1 4996   4.528   7.527   8.471
 5081ETHY    C1 4997   4.263   7.190   8.776
 5082ETHY    C1 4998   4.051   6.888   9.147
 5083ETHY    C1 4999   3.898   6.630   9.582
 5084ETHY    C1 5000   3.807   6.423  10.072
 5085AUSL   AUS 5001   5.744   8.121   7.666
 5086AUSL   AUS 5002   5.440   8.121   7.339
 5087AUL    AUL 5003   5.592   7.813   7.503
 5088THSLK    S 5004   5.387   7.882   7.270
 5089ETHY    C1 5005   5.115   7.520   7.236
 5090ETHY    C1 5006   4.865   7.055   7.157
 5091ETHY    C1 5007   4.708   6.566   7.041
 5092ETHY    C1 5008   4.638   6.067   6.896
 5093ETHY    C1 5009   4.662   5.568   6.727
 5094ETHY    C1 5010   4.781   5.077   6.538
 5095THSLK    S 5011   5.698   7.869   7.749
 5096ETHY    C1 5012   5.551   7.443   7.811
 5097ETHY    C1 5013   5.465   6.925   7.906
 5098ETHY    C1 5014   5.477   6.412   8.025
 5099ETHY    C1 5015   5.579   5.917   8.165
 5100ETHY    C1 5016   5.771   5.452   8.325
 5101ETHY    C1 5017   6.049   5.026   8.504
 5102AUSL   AUS 5018   5.592   9.374   7.094
 5103AUSL   AUS 5019   6.008   9.305   7.238
 5104AUL    AUL 5020   5.895   9.589   7.012
 5105THSLK    S 5021   5.639   9.601   6.977
 5106ETHY    C1 5022   5.829   9.880   6.674
 5107ETHY    C1 5023   5.980  10.261   6.330
 5108ETHY    C1 5024   6.044  10.681   6.021
 5109ETHY    C1 5025   6.028  11.131   5.752
 5110ETHY    C1 5026   5.932  11.601   5.532
 5111ETHY    C1 5027   5.757  12.084   5.366
 5112THSLK    S 5028   6.196   9.421   7.089
 5113ETHY    C1 5029   6.583   9.541   6.883
 5114ETHY    C1 5030   7.001   9.764   6.637
 5115ETHY    C1 5031   7.359  10.068   6.400
 5116ETHY    C1 5032   7.654  10.440   6.178
 5117ETHY    C1 5033   7.879  10.875   5.981
 5118ETHY    C1 5034   8.030  11.364   5.811
 5119AUSL   AUS 5035   5.440   9.468   7.339
 5120AUSL   AUS 5036   5.327   9.211   6.992
 5121AUL    AUL 5037   5.289   9.589   7.012
 5122THSLK    S 5038   5.486   9.715   7.239
 5123ETHY    C1 5039   5.633  10.112   7.074
 5124ETHY    C1 5040   5.719  10.606   6.889
 5125ETHY    C1 5041   5.707  11.107   6.727
 5126ETHY    C1 5042   5.605  11.603   6.593
 5127ETHY    C1 5043   5.413  12.084   6.492
 5128ETHY    C1 5044   5.135  12.542   6.427
 5129THSLK    S 5045   5.217   9.343   6.805
 5130ETHY    C1 5046   5.181   9.492   6.377
 5131ETHY    C1 5047   5.071   9.718   5.906
 5132ETHY    C1 5048   4.893   9.993   5.494
 5133ETHY    C1 5049   4.659  10.306   5.145
 5134ETHY    C1 5050   4.373  10.655   4.870
 5135ETHY    C1 5051   4.042  11.033   4.675
 5136AUSL   AUS 5052   5.592   8.214   7.094
 5137AUSL   AUS 5053   5.176   8.284   7.238
 5138AUL    AUL 5054   5.289   8.000   7.012
 5139THSLK    S 5055   4.993   8.136   7.134
 5140ETHY    C1 5056   4.610   7.892   7.124
 5141ETHY    C1 5057   4.192   7.571   7.035
 5142ETHY    C1 5058   3.833   7.225   6.866
 5143ETHY    C1 5059   3.536   6.864   6.631
 5144ETHY    C1 5060   3.311   6.492   6.331
 5145ETHY    C1 5061   3.164   6.115   5.974
 5146THSLK    S 5062   5.550   7.959   7.024
 5147ETHY    C1 5063   5.366   7.558   6.917
 5148ETHY    C1 5064   5.216   7.080   6.732
 5149ETHY    C1 5065   5.150   6.617   6.491
 5150ETHY    C1 5066   5.163   6.177   6.206
 5151ETHY    C1 5067   5.260   5.770   5.885
 5152ETHY    C1 5068   5.440   5.402   5.533
 5153AUSL   AUS 5069   5.744   8.121   7.339
 5154AUSL   AUS 5070   5.857   8.378   6.992
 5155AUL    AUL 5071   5.895   8.000   7.012
 5156THSLK    S 5072   5.701   7.867   7.266
 5157ETHY    C1 5073   5.557   7.439   7.213
 5158ETHY    C1 5074   5.470   6.920   7.120
 5159ETHY    C1 5075   5.482   6.408   6.997
 5160ETHY    C1 5076   5.583   5.914   6.854
 5161ETHY    C1 5077   5.775   5.449   6.695
 5162ETHY    C1 5078   6.055   5.021   6.523
 5163THSLK    S 5079   5.974   8.188   6.859
 5164ETHY    C1 5080   6.018   7.786   6.651
 5165ETHY    C1 5081   6.128   7.355   6.355
 5166ETHY    C1 5082   6.304   6.992   6.017
 5167ETHY    C1 5083   6.535   6.698   5.651
 5168ETHY    C1 5084   6.821   6.481   5.264
 5169ETHY    C1 5085   7.158   6.345   4.865
 5170AUC    AUC 5086  16.524  28.849   7.503
 5171AUC    AUC 5087  16.769  28.849   7.351
 5172AUC    AUC 5088  16.769  28.849   7.654
 5173AUC    AUC 5089  16.279  28.849   7.351
 5174AUC    AUC 5090  16.279  28.849   7.654
 5175AUC    AUC 5091  16.372  29.095   7.503
 5176AUC    AUC 5092  16.676  29.095   7.503
 5177AUC    AUC 5093  16.372  28.604   7.503
 5178AUC    AUC 5094  16.676  28.604   7.503
 5179AUC    AUC 5095  16.524  28.698   7.748
 5180AUC    AUC 5096  16.524  29.001   7.748
 5181AUC    AUC 5097  16.524  28.698   7.257
 5182AUC    AUC 5098  16.524  29.001   7.257
 5183AUC    AUC 5099  17.015  28.849   7.199
 5184AUC    AUC 5100  17.015  28.849   7.503
 5185AUC    AUC 5101  17.015  28.849   7.806
 5186AUC    AUC 5102  16.033  28.849   7.199
 5187AUC    AUC 5103  16.033  28.849   7.503
 5188AUC    AUC 5104  16.033  28.849   7.806
 5189AUC    AUC 5105  16.221  29.340   7.503
 5190AUC    AUC 5106  16.524  29.340   7.503
 5191AUC    AUC 5107  16.827  29.340   7.503
 5192AUC    AUC 5108  16.221  28.359   7.503
 5193AUC    AUC 5109  16.524  28.359   7.503
 5194AUC    AUC 5110  16.827  28.359   7.503
 5195AUC    AUC 5111  16.524  28.546   7.993
 5196AUC    AUC 5112  16.524  28.849   7.993
 5197AUC    AUC 5113  16.524  29.153   7.993
 5198AUC    AUC 5114  16.524  28.546   7.012
 5199AUC    AUC 5115  16.524  28.849   7.012
 5200AUC    AUC 5116  16.524  29.153   7.012
 5201AUC    AUC 5117  16.769  28.698   7.900
 5202AUC    AUC 5118  16.769  29.001   7.900
 5203AUC    AUC 5119  16.769  28.698   7.106
 5204AUC    AUC 5120  16.769  29.001   7.106
 5205AUC    AUC 5121  16.279  28.698   7.900
 5206AUC    AUC 5122  16.279  29.001   7.900
 5207AUC    AUC 5123  16.279  28.698   7.106
 5208AUC    AUC 5124  16.279  29.001   7.106
 5209AUC    AUC 5125  16.921  29.095   7.351
 5210AUC    AUC 5126  16.921  29.095   7.654
 5211AUC    AUC 5127  16.127  29.095   7.351
 5212AUC    AUC 5128  16.127  29.095   7.654
 5213AUC    AUC 5129  16.921  28.604   7.351
 5214AUC    AUC 5130  16.921  28.604   7.654
 5215AUC    AUC 5131  16.127  28.604   7.351
 5216AUC    AUC 5132  16.127  28.604   7.654
 5217AUC    AUC 5133  16.372  29.247   7.748
 5218AUC    AUC 5134  16.676  29.247   7.748
 5219AUC    AUC 5135  16.372  28.452   7.748
 5220AUC    AUC 5136  16.676  28.452   7.748
 5221AUC    AUC 5137  16.372  29.247   7.257
 5222AUC    AUC 5138  16.676  29.247   7.257
 5223AUC    AUC 5139  16.372  28.452   7.257
 5224AUC    AUC 5140  16.676  28.452   7.257
 5225AUSL   AUS 5141  16.933  28.849   8.083
 5226AUSL   AUS 5142  16.789  28.433   8.013
 5227AUL    AUL 5143  17.015  28.546   8.297
 5228THSLK    S 5144  16.899  28.246   8.153
 5229ETHY    C1 5145  16.935  27.847   8.368
 5230ETHY    C1 5146  17.045  27.417   8.665
 5231ETHY    C1 5147  17.223  27.053   9.000
 5232ETHY    C1 5148  17.457  26.757   9.364
 5233ETHY    C1 5149  17.743  26.540   9.752
 5234ETHY    C1 5150  18.074  26.407  10.156
 5235THSLK    S 5151  17.026  28.797   8.324
 5236ETHY    C1 5152  17.230  28.577   8.665
 5237ETHY    C1 5153  17.494  28.400   9.094
 5238ETHY    C1 5154  17.770  28.324   9.535
 5239ETHY    C1 5155  18.047  28.341   9.980
 5240ETHY    C1 5156  18.317  28.454  10.419
 5241ETHY    C1 5157  18.576  28.663  10.845
 5242AUSL   AUS 5158  16.688  28.698   8.176
 5243AUSL   AUS 5159  16.360  29.001   8.176
 5244AUL    AUL 5160  16.524  28.849   8.484
 5245THSLK    S 5161  16.763  28.643   8.413
 5246ETHY    C1 5162  16.827  28.363   8.765
 5247ETHY    C1 5163  16.930  28.108   9.223
 5248ETHY    C1 5164  17.057  27.949   9.708
 5249ETHY    C1 5165  17.199  27.880  10.208
 5250ETHY    C1 5166  17.353  27.908  10.713
 5251ETHY    C1 5167  17.513  28.032  11.212
 5252THSLK    S 5168  16.275  28.955   8.428
 5253ETHY    C1 5169  16.201  28.805   8.850
 5254ETHY    C1 5170  16.096  28.717   9.367
 5255ETHY    C1 5171  15.974  28.729   9.878
 5256ETHY    C1 5172  15.836  28.830  10.373
 5257ETHY    C1 5173  15.681  29.023  10.840
 5258ETHY    C1 5174  15.512  29.304  11.268
 5259AUSL   AUS 5175  16.688  29.001   8.176
 5260AUSL   AUS 5176  17.034  29.114   7.919
 5261AUL    AUL 5177  17.015  29.153   8.297
 5262THSLK    S 5178  16.773  29.057   8.410
 5263ETHY    C1 5179  16.847  29.338   8.759
 5264ETHY    C1 5180  16.952  29.593   9.217
 5265ETHY    C1 5181  17.074  29.752   9.703
 5266ETHY    C1 5182  17.213  29.821  10.204
 5267ETHY    C1 5183  17.367  29.794  10.708
 5268ETHY    C1 5184  17.536  29.670  11.206
 5269THSLK    S 5185  17.206  29.212   8.080
 5270ETHY    C1 5186  17.569  29.183   8.350
 5271ETHY    C1 5187  17.991  29.239   8.673
 5272ETHY    C1 5188  18.383  29.393   8.989
 5273ETHY    C1 5189  18.737  29.631   9.293
 5274ETHY    C1 5190  19.044  29.952   9.580
 5275ETHY    C1 5191  19.295  30.349   9.844
 5276AUSL   AUS 5192  16.933  28.849   6.923
 5277AUSL   AUS 5193  16.789  29.266   6.992
 5278AUL    AUL 5194  17.015  29.153   6.708
 5279THSLK    S 5195  17.035  28.797   6.687
 5280ETHY    C1 5196  17.248  28.577   6.351
 5281ETHY    C1 5197  17.513  28.400   5.923
 5282ETHY    C1 5198  17.785  28.324   5.479
 5283ETHY    C1 5199  18.059  28.341   5.033
 5284ETHY    C1 5200  18.330  28.454   4.594
 5285ETHY    C1 5201  18.595  28.663   4.173
 5286THSLK    S 5202  16.967  29.377   6.829
 5287ETHY    C1 5203  17.269  29.445   6.497
 5288ETHY    C1 5204  17.588  29.608   6.100
 5289ETHY    C1 5205  17.853  29.855   5.719
 5290ETHY    C1 5206  18.065  30.175   5.362
 5291ETHY    C1 5207  18.218  30.565   5.039
 5292ETHY    C1 5208  18.309  31.017   4.759
 5293AUSL   AUS 5209  16.688  28.698   6.829
 5294AUSL   AUS 5210  17.034  28.585   7.086
 5295AUL    AUL 5211  17.015  28.546   6.708
 5296THSLK    S 5212  17.167  28.393   6.949
 5297ETHY    C1 5213  17.350  28.026   6.752
 5298ETHY    C1 5214  17.622  27.654   6.483
 5299ETHY    C1 5215  17.947  27.365   6.186
 5300ETHY    C1 5216  18.313  27.158   5.874
 5301ETHY    C1 5217  18.717  27.039   5.555
 5302ETHY    C1 5218  19.150  27.014   5.235
 5303THSLK    S 5219  16.773  28.642   6.596
 5304ETHY    C1 5220  16.847  28.361   6.246
 5305ETHY    C1 5221  16.952  28.105   5.788
 5306ETHY    C1 5222  17.074  27.947   5.302
 5307ETHY    C1 5223  17.213  27.878   4.801
 5308ETHY    C1 5224  17.367  27.905   4.297
 5309ETHY    C1 5225  17.536  28.029   3.799
 5310AUSL   AUS 5226  16.688  29.001   6.829
 5311AUSL   AUS 5227  16.360  28.698   6.829
 5312AUL    AUL 5228  16.524  28.849   6.521
 5313THSLK    S 5229  16.268  28.642   6.597
 5314ETHY    C1 5230  16.133  28.364   6.264
 5315ETHY    C1 5231  15.972  28.111   5.822
 5316ETHY    C1 5232  15.820  27.954   5.343
 5317ETHY    C1 5233  15.684  27.885   4.842
 5318ETHY    C1 5234  15.567  27.911   4.328
 5319ETHY    C1 5235  15.474  28.030   3.810
 5320THSLK    S 5236  16.790  28.955   6.583
 5321ETHY    C1 5237  16.936  28.805   6.179
 5322ETHY    C1 5238  17.098  28.714   5.678
 5323ETHY    C1 5239  17.245  28.724   5.173
 5324ETHY    C1 5240  17.378  28.825   4.677
 5325ETHY    C1 5241  17.495  29.020   4.200
 5326ETHY    C1 5242  17.596  29.306   3.754
 5327AUSL   AUS 5243  16.115  28.849   8.083
 5328AUSL   AUS 5244  16.259  29.266   8.013
 5329AUL    AUL 5245  16.033  29.153   8.297
 5330THSLK    S 5246  16.013  28.797   8.319
 5331ETHY    C1 5247  15.801  28.577   8.654
 5332ETHY    C1 5248  15.535  28.400   9.082
 5333ETHY    C1 5249  15.263  28.324   9.526
 5334ETHY    C1 5250  14.989  28.341   9.973
 5335ETHY    C1 5251  14.718  28.454  10.411
 5336ETHY    C1 5252  14.453  28.663  10.832
 5337THSLK    S 5253  16.142  29.390   8.202
 5338ETHY    C1 5254  16.099  29.533   8.632
 5339ETHY    C1 5255  15.988  29.758   9.104
 5340ETHY    C1 5256  15.812  30.035   9.515
 5341ETHY    C1 5257  15.581  30.351   9.863
 5342ETHY    C1 5258  15.295  30.699  10.138
 5343ETHY    C1 5259  14.958  31.072  10.334
 5344AUSL   AUS 5260  16.360  28.698   8.176
 5345AUSL   AUS 5261  16.014  28.585   7.919
 5346AUL    AUL 5262  16.033  28.546   8.297
 5347THSLK    S 5263  15.837  28.422   8.026
 5348ETHY    C1 5264  15.466  28.165   8.082
 5349ETHY    C1 5265  15.044  27.877   8.237
 5350ETHY    C1 5266  14.654  27.622   8.482
 5351ETHY    C1 5267  14.302  27.405   8.803
 5352ETHY    C1 5268  13.996  27.234   9.198
 5353ETHY    C1 5269  13.739  27.113   9.657
 5354THSLK    S 5270  16.258  28.644   8.406
 5355ETHY    C1 5271  16.112  28.368   8.736
 5356ETHY    C1 5272  15.950  28.116   9.178
 5357ETHY    C1 5273  15.803  27.958   9.658
 5358ETHY    C1 5274  15.670  27.888  10.160
 5359ETHY    C1 5275  15.553  27.914  10.674
 5360ETHY    C1 5276  15.452  28.035  11.190
 5361AUSL   AUS 5277  16.115  28.849   6.923
 5362AUSL   AUS 5278  16.259  28.433   6.992
 5363AUL    AUL 5279  16.033  28.546   6.708
 5364THSLK    S 5280  16.022  28.797   6.681
 5365ETHY    C1 5281  15.818  28.577   6.341
 5366ETHY    C1 5282  15.554  28.400   5.911
 5367ETHY    C1 5283  15.278  28.324   5.470
 5368ETHY    C1 5284  15.001  28.341   5.025
 5369ETHY    C1 5285  14.731  28.454   4.586
 5370ETHY    C1 5286  14.472  28.663   4.161
 5371THSLK    S 5287  16.088  28.260   6.878
 5372ETHY    C1 5288  15.793  27.934   6.760
 5373ETHY    C1 5289  15.475  27.567   6.538
 5374ETHY    C1 5290  15.207  27.232   6.233
 5375ETHY    C1 5291  14.993  26.932   5.861
 5376ETHY    C1 5292  14.841  26.674   5.426
 5377ETHY    C1 5293  14.755  26.462   4.937
 5378AUSL   AUS 5294  16.360  29.001   6.829
 5379AUSL   AUS 5295  16.014  29.114   7.086
 5380AUL    AUL 5296  16.033  29.153   6.708
 5381THSLK    S 5297  15.887  29.241   6.895
 5382ETHY    C1 5298  15.710  29.322   6.484
 5383ETHY    C1 5299  15.439  29.462   6.046
 5384ETHY    C1 5300  15.112  29.650   5.679
 5385ETHY    C1 5301  14.743  29.879   5.385
 5386ETHY    C1 5302  14.341  30.146   5.173
 5387ETHY    C1 5303  13.912  30.448   5.047
 5388THSLK    S 5304  16.285  28.957   6.576
 5389ETHY    C1 5305  16.221  28.810   6.150
 5390ETHY    C1 5306  16.118  28.721   5.634
 5391ETHY    C1 5307  15.991  28.732   5.123
 5392ETHY    C1 5308  15.849  28.833   4.629
 5393ETHY    C1 5309  15.696  29.026   4.162
 5394ETHY    C1 5310  15.535  29.309   3.732
 5395AUSL   AUS 5311  17.104  29.258   7.503
 5396AUSL   AUS 5312  17.034  29.114   7.086
 5397AUL    AUL 5313  17.318  29.340   7.199
 5398THSLK    S 5314  17.212  29.213   6.934
 5399ETHY    C1 5315  17.582  29.186   6.671
 5400ETHY    C1 5316  18.004  29.242   6.349
 5401ETHY    C1 5317  18.394  29.396   6.030
 5402ETHY    C1 5318  18.746  29.633   5.724
 5403ETHY    C1 5319  19.053  29.954   5.438
 5404ETHY    C1 5320  19.309  30.353   5.179
 5405THSLK    S 5321  17.370  29.311   7.508
 5406ETHY    C1 5322  17.824  29.333   7.513
 5407ETHY    C1 5323  18.346  29.447   7.514
 5408ETHY    C1 5324  18.829  29.656   7.511
 5409ETHY    C1 5325  19.265  29.946   7.510
 5410ETHY    C1 5326  19.644  30.313   7.510
 5411ETHY    C1 5327  19.958  30.753   7.514
 5412AUSL   AUS 5328  17.198  29.013   7.351
 5413AUSL   AUS 5329  17.198  28.686   7.654
 5414AUL    AUL 5330  17.506  28.849   7.503
 5415THSLK    S 5331  17.454  29.052   7.350
 5416ETHY    C1 5332  17.890  28.944   7.286
 5417ETHY    C1 5333  18.416  28.906   7.201
 5418ETHY    C1 5334  18.931  28.970   7.113
 5419ETHY    C1 5335  19.425  29.124   7.026
 5420ETHY    C1 5336  19.885  29.369   6.945
 5421ETHY    C1 5337  20.304  29.701   6.873
 5422THSLK    S 5338  17.425  28.546   7.663
 5423ETHY    C1 5339  17.744  28.230   7.728
 5424ETHY    C1 5340  18.177  27.926   7.807
 5425ETHY    C1 5341  18.652  27.716   7.887
 5426ETHY    C1 5342  19.155  27.595   7.971
 5427ETHY    C1 5343  19.675  27.569   8.058
 5428ETHY    C1 5344  20.203  27.639   8.147
 5429AUSL   AUS 5345  17.198  29.013   7.654
 5430AUSL   AUS 5346  16.940  29.360   7.767
 5431AUL    AUL 5347  17.318  29.340   7.806
 5432THSLK    S 5348  17.123  29.474   7.926
 5433ETHY    C1 5349  17.506  29.592   8.140
 5434ETHY    C1 5350  17.924  29.815   8.388
 5435ETHY    C1 5351  18.283  30.120   8.622
 5436ETHY    C1 5352  18.580  30.493   8.840
 5437ETHY    C1 5353  18.805  30.927   9.038
 5438ETHY    C1 5354  18.952  31.415   9.215
 5439THSLK    S 5355  17.452  29.052   7.665
 5440ETHY    C1 5356  17.887  28.944   7.740
 5441ETHY    C1 5357  18.413  28.906   7.826
 5442ETHY    C1 5358  18.928  28.969   7.910
 5443ETHY    C1 5359  19.422  29.123   7.993
 5444ETHY    C1 5360  19.883  29.368   8.075
 5445ETHY    C1 5361  20.300  29.700   8.155
 5446AUSL   AUS 5362  15.944  29.258   7.503
 5447AUSL   AUS 5363  16.014  29.114   7.919
 5448AUL    AUL 5364  15.730  29.340   7.806
 5449THSLK    S 5365  15.881  29.233   8.109
 5450ETHY    C1 5366  15.698  29.305   8.519
 5451ETHY    C1 5367  15.426  29.445   8.957
 5452ETHY    C1 5368  15.101  29.636   9.324
 5453ETHY    C1 5369  14.735  29.867   9.619
 5454ETHY    C1 5370  14.332  30.134   9.831
 5455ETHY    C1 5371  13.898  30.430   9.956
 5456THSLK    S 5372  15.733  29.399   7.508
 5457ETHY    C1 5373  15.511  29.796   7.513
 5458ETHY    C1 5374  15.175  30.211   7.514
 5459ETHY    C1 5375  14.772  30.550   7.511
 5460ETHY    C1 5376  14.318  30.811   7.510
 5461ETHY    C1 5377  13.819  30.985   7.510
 5462ETHY    C1 5378  13.286  31.069   7.514
 5463AUSL   AUS 5379  15.850  29.013   7.351
 5464AUSL   AUS 5380  16.108  29.360   7.238
 5465AUL    AUL 5381  15.730  29.340   7.199
 5466THSLK    S 5382  15.623  29.128   7.303
 5467ETHY    C1 5383  15.304  29.328   7.049
 5468ETHY    C1 5384  14.871  29.534   6.813
 5469ETHY    C1 5385  14.396  29.700   6.661
 5470ETHY    C1 5386  13.893  29.829   6.590
 5471ETHY    C1 5387  13.373  29.919   6.605
 5472ETHY    C1 5388  12.845  29.967   6.708
 5473THSLK    S 5389  15.996  29.523   7.060
 5474ETHY    C1 5390  15.917  29.833   6.737
 5475ETHY    C1 5391  15.742  30.207   6.397
 5476ETHY    C1 5392  15.488  30.575   6.120
 5477ETHY    C1 5393  15.168  30.932   5.909
 5478ETHY    C1 5394  14.787  31.270   5.770
 5479ETHY    C1 5395  14.352  31.584   5.709
 5480AUSL   AUS 5396  15.850  29.013   7.654
 5481AUSL   AUS 5397  15.850  28.686   7.351
 5482AUL    AUL 5398  15.542  28.849   7.503
 5483THSLK    S 5399  15.596  28.613   7.394
 5484ETHY    C1 5400  15.161  28.595   7.524
 5485ETHY    C1 5401  14.635  28.535   7.597
 5486ETHY    C1 5402  14.120  28.431   7.578
 5487ETHY    C1 5403  13.626  28.288   7.477
 5488ETHY    C1 5404  13.166  28.105   7.294
 5489ETHY    C1 5405  12.748  27.885   7.034
 5490THSLK    S 5406  15.622  29.119   7.707
 5491ETHY    C1 5407  15.301  29.310   7.966
 5492ETHY    C1 5408  14.868  29.514   8.202
 5493ETHY    C1 5409  14.393  29.685   8.352
 5494ETHY    C1 5410  13.891  29.817   8.422
 5495ETHY    C1 5411  13.371  29.905   8.407
 5496ETHY    C1 5412  12.842  29.946   8.308
 5497AUSL   AUS 5413  17.104  28.440   7.503
 5498AUSL   AUS 5414  17.034  28.585   7.919
 5499AUL    AUL 5415  17.318  28.359   7.806
 5500THSLK    S 5416  17.315  28.299   7.508
 5501ETHY    C1 5417  17.537  27.903   7.513
 5502ETHY    C1 5418  17.873  27.488   7.514
 5503ETHY    C1 5419  18.276  27.149   7.511
 5504ETHY    C1 5420  18.730  26.888   7.510
 5505ETHY    C1 5421  19.229  26.714   7.510
 5506ETHY    C1 5422  19.762  26.630   7.514
 5507THSLK    S 5423  17.161  28.394   8.064
 5508ETHY    C1 5424  17.338  28.029   8.270
 5509ETHY    C1 5425  17.609  27.657   8.540
 5510ETHY    C1 5426  17.936  27.368   8.834
 5511ETHY    C1 5427  18.305  27.160   9.142
 5512ETHY    C1 5428  18.707  27.042   9.462
 5513ETHY    C1 5429  19.136  27.017   9.789
 5514AUSL   AUS 5430  17.198  28.686   7.351
 5515AUSL   AUS 5431  16.940  28.339   7.238
 5516AUL    AUL 5432  17.318  28.359   7.199
 5517THSLK    S 5433  17.426  28.546   7.353
 5518ETHY    C1 5434  17.747  28.229   7.298
 5519ETHY    C1 5435  18.180  27.926   7.221
 5520ETHY    C1 5436  18.655  27.716   7.136
 5521ETHY    C1 5437  19.157  27.595   7.048
 5522ETHY    C1 5438  19.677  27.568   6.963
 5523ETHY    C1 5439  20.206  27.639   6.881
 5524THSLK    S 5440  17.056  28.150   7.108
 5525ETHY    C1 5441  17.140  27.721   6.984
 5526ETHY    C1 5442  17.315  27.249   6.803
 5527ETHY    C1 5443  17.568  26.838   6.593
 5528ETHY    C1 5444  17.886  26.490   6.366
 5529ETHY    C1 5445  18.268  26.215   6.126
 5530ETHY    C1 5446  18.706  26.018   5.880
 5531AUSL   AUS 5447  15.944  28.440   7.503
 5532AUSL   AUS 5448  16.014  28.585   7.086
 5533AUL    AUL 5449  15.730  28.359   7.199
 5534THSLK    S 5450  15.843  28.414   6.978
 5535ETHY    C1 5451  15.479  28.149   6.921
 5536ETHY    C1 5452  15.057  27.859   6.766
 5537ETHY    C1 5453  14.665  27.607   6.521
 5538ETHY    C1 5454  14.311  27.394   6.200
 5539ETHY    C1 5455  14.004  27.221   5.806
 5540ETHY    C1 5456  13.753  27.094   5.346
 5541THSLK    S 5457  15.678  28.388   7.508
 5542ETHY    C1 5458  15.224  28.366   7.513
 5543ETHY    C1 5459  14.702  28.252   7.514
 5544ETHY    C1 5460  14.220  28.043   7.511
 5545ETHY    C1 5461  13.783  27.753   7.510
 5546ETHY    C1 5462  13.404  27.386   7.510
 5547ETHY    C1 5463  13.091  26.946   7.514
 5548AUSL   AUS 5464  15.850  28.686   7.654
 5549AUSL   AUS 5465  16.108  28.339   7.767
 5550AUL    AUL 5466  15.730  28.359   7.806
 5551THSLK    S 5467  15.920  28.199   7.878
 5552ETHY    C1 5468  15.533  27.962   7.893
 5553ETHY    C1 5469  15.115  27.642   7.982
 5554ETHY    C1 5470  14.757  27.293   8.149
 5555ETHY    C1 5471  14.462  26.929   8.382
 5556ETHY    C1 5472  14.237  26.558   8.683
 5557ETHY    C1 5473  14.086  26.187   9.045
 5558THSLK    S 5474  15.594  28.623   7.616
 5559ETHY    C1 5475  15.158  28.613   7.491
 5560ETHY    C1 5476  14.632  28.554   7.419
 5561ETHY    C1 5477  14.117  28.447   7.436
 5562ETHY    C1 5478  13.623  28.301   7.535
 5563ETHY    C1 5479  13.163  28.119   7.718
 5564ETHY    C1 5480  12.744  27.906   7.983
 5565AUSL   AUS 5481  16.524  29.429   7.912
 5566AUSL   AUS 5482  16.108  29.360   7.767
 5567AUL    AUL 5483  16.221  29.644   7.993
 5568THSLK    S 5484  15.992  29.516   7.952
 5569ETHY    C1 5485  15.908  29.818   8.280
 5570ETHY    C1 5486  15.733  30.191   8.621
 5571ETHY    C1 5487  15.480  30.562   8.895
 5572ETHY    C1 5488  15.162  30.921   9.105
 5573ETHY    C1 5489  14.780  31.259   9.244
 5574ETHY    C1 5490  14.342  31.567   9.309
 5575THSLK    S 5491  16.566  29.651   8.035
 5576ETHY    C1 5492  16.750  29.926   8.347
 5577ETHY    C1 5493  16.900  30.306   8.691
 5578ETHY    C1 5494  16.966  30.729   8.998
 5579ETHY    C1 5495  16.953  31.180   9.264
 5580ETHY    C1 5496  16.856  31.649   9.485
 5581ETHY    C1 5497  16.676  32.128   9.656
 5582AUSL   AUS 5498  16.372  29.523   7.666
 5583AUSL   AUS 5499  16.676  29.523   7.339
 5584AUL    AUL 5500  16.524  29.831   7.503
 5585THSLK    S 5501  16.415  29.767   7.776
 5586ETHY    C1 5502  16.559  30.161   7.951
 5587ETHY    C1 5503  16.646  30.655   8.137
 5588ETHY    C1 5504  16.634  31.156   8.294
 5589ETHY    C1 5505  16.533  31.654   8.425
 5590ETHY    C1 5506  16.341  32.135   8.527
 5591ETHY    C1 5507  16.061  32.590   8.600
 5592THSLK    S 5508  16.731  29.754   7.243
 5593ETHY    C1 5509  17.007  30.084   7.096
 5594ETHY    C1 5510  17.257  30.525   6.927
 5595ETHY    C1 5511  17.413  31.002   6.771
 5596ETHY    C1 5512  17.482  31.504   6.635
 5597ETHY    C1 5513  17.458  32.020   6.525
 5598ETHY    C1 5514  17.341  32.540   6.443
 5599AUSL   AUS 5515  16.676  29.523   7.666
 5600AUSL   AUS 5516  16.789  29.266   8.013
 5601AUL    AUL 5517  16.827  29.644   7.993
 5602THSLK    S 5518  16.960  29.374   8.183
 5603ETHY    C1 5519  17.255  29.439   8.523
 5604ETHY    C1 5520  17.573  29.601   8.920
 5605ETHY    C1 5521  17.841  29.850   9.298
 5606ETHY    C1 5522  18.055  30.172   9.653
 5607ETHY    C1 5523  18.207  30.560   9.976
 5608ETHY    C1 5524  18.293  31.010  10.262
 5609THSLK    S 5525  16.729  29.752   7.772
 5610ETHY    C1 5526  17.001  30.080   7.929
 5611ETHY    C1 5527  17.251  30.520   8.100
 5612ETHY    C1 5528  17.409  30.999   8.251
 5613ETHY    C1 5529  17.478  31.501   8.383
 5614ETHY    C1 5530  17.454  32.016   8.494
 5615ETHY    C1 5531  17.335  32.535   8.585
 5616AUSL   AUS 5532  16.524  28.269   7.912
 5617AUSL   AUS 5533  16.940  28.339   7.767
 5618AUL    AUL 5534  16.827  28.055   7.993
 5619THSLK    S 5535  16.477  28.019   7.989
 5620ETHY    C1 5536  16.287  27.623   8.103
 5621ETHY    C1 5537  16.136  27.145   8.289
 5622ETHY    C1 5538  16.073  26.680   8.528
 5623ETHY    C1 5539  16.088  26.238   8.809
 5624ETHY    C1 5540  16.184  25.831   9.132
 5625ETHY    C1 5541  16.359  25.468   9.489
 5626THSLK    S 5542  17.052  28.152   7.907
 5627ETHY    C1 5543  17.131  27.724   8.040
 5628ETHY    C1 5544  17.306  27.254   8.222
 5629ETHY    C1 5545  17.560  26.842   8.428
 5630ETHY    C1 5546  17.880  26.493   8.652
 5631ETHY    C1 5547  18.261  26.218   8.893
 5632ETHY    C1 5548  18.696  26.022   9.147
 5633AUSL   AUS 5549  16.372  28.176   7.666
 5634AUSL   AUS 5550  16.259  28.433   8.013
 5635AUL    AUL 5551  16.221  28.055   7.993
 5636THSLK    S 5552  16.317  27.940   7.745
 5637ETHY    C1 5553  16.042  27.581   7.788
 5638ETHY    C1 5554  15.791  27.116   7.869
 5639ETHY    C1 5555  15.635  26.626   7.981
 5640ETHY    C1 5556  15.566  26.127   8.122
 5641ETHY    C1 5557  15.590  25.627   8.292
 5642ETHY    C1 5558  15.707  25.139   8.489
 5643THSLK    S 5559  16.081  28.267   8.129
 5644ETHY    C1 5560  15.779  27.949   8.248
 5645ETHY    C1 5561  15.460  27.582   8.471
 5646ETHY    C1 5562  15.195  27.245   8.776
 5647ETHY    C1 5563  14.983  26.943   9.147
 5648ETHY    C1 5564  14.830  26.685   9.582
 5649ETHY    C1 5565  14.739  26.478  10.072
 5650AUSL   AUS 5566  16.676  28.176   7.666
 5651AUSL   AUS 5567  16.372  28.176   7.339
 5652AUL    AUL 5568  16.524  27.868   7.503
 5653THSLK    S 5569  16.319  27.937   7.270
 5654ETHY    C1 5570  16.047  27.575   7.236
 5655ETHY    C1 5571  15.797  27.110   7.157
 5656ETHY    C1 5572  15.640  26.621   7.041
 5657ETHY    C1 5573  15.570  26.122   6.896
 5658ETHY    C1 5574  15.594  25.623   6.727
 5659ETHY    C1 5575  15.713  25.132   6.538
 5660THSLK    S 5576  16.630  27.924   7.749
 5661ETHY    C1 5577  16.483  27.498   7.811
 5662ETHY    C1 5578  16.397  26.980   7.906
 5663ETHY    C1 5579  16.409  26.467   8.025
 5664ETHY    C1 5580  16.511  25.972   8.165
 5665ETHY    C1 5581  16.703  25.507   8.325
 5666ETHY    C1 5582  16.981  25.081   8.504
 5667AUSL   AUS 5583  16.524  29.429   7.094
 5668AUSL   AUS 5584  16.940  29.360   7.238
 5669AUL    AUL 5585  16.827  29.644   7.012
 5670THSLK    S 5586  16.571  29.656   6.977
 5671ETHY    C1 5587  16.761  29.935   6.674
 5672ETHY    C1 5588  16.912  30.316   6.330
 5673ETHY    C1 5589  16.976  30.736   6.021
 5674ETHY    C1 5590  16.960  31.186   5.752
 5675ETHY    C1 5591  16.864  31.656   5.532
 5676ETHY    C1 5592  16.689  32.139   5.366
 5677THSLK    S 5593  17.128  29.476   7.089
 5678ETHY    C1 5594  17.515  29.596   6.883
 5679ETHY    C1 5595  17.933  29.819   6.637
 5680ETHY    C1 5596  18.291  30.123   6.400
 5681ETHY    C1 5597  18.586  30.495   6.178
 5682ETHY    C1 5598  18.811  30.930   5.981
 5683ETHY    C1 5599  18.962  31.419   5.811
 5684AUSL   AUS 5600  16.372  29.523   7.339
 5685AUSL   AUS 5601  16.259  29.266   6.992
 5686AUL    AUL 5602  16.221  29.644   7.012
 5687THSLK    S 5603  16.418  29.770   7.239
 5688ETHY    C1 5604  16.565  30.167   7.074
 5689ETHY    C1 5605  16.651  30.661   6.889
 5690ETHY    C1 5606  16.639  31.162   6.727
 5691ETHY    C1 5607  16.537  31.658   6.593
 5692ETHY    C1 5608  16.345  32.139   6.492
 5693ETHY    C1 5609  16.067  32.597   6.427
 5694THSLK    S 5610  16.149  29.398   6.805
 5695ETHY    C1 5611  16.113  29.547   6.377
 5696ETHY    C1 5612  16.003  29.773   5.906
 5697ETHY    C1 5613  15.825  30.048   5.494
 5698ETHY    C1 5614  15.591  30.361   5.145
 5699ETHY    C1 5615  15.305  30.710   4.870
 5700ETHY    C1 5616  14.974  31.088   4.675
 5701AUSL   AUS 5617  16.524  28.269   7.094
 5702AUSL   AUS 5618  16.108  28.339   7.238
 5703AUL    AUL 5619  16.221  28.055   7.012
 5704THSLK    S 5620  15.925  28.191   7.134
 5705ETHY    C1 5621  15.542  27.947   7.124
 5706ETHY    C1 5622  15.124  27.626   7.035
 5707ETHY    C1 5623  14.765  27.280   6.866
 5708ETHY    C1 5624  14.468  26.919   6.631
 5709ETHY    C1 5625  14.243  26.547   6.331
 5710ETHY    C1 5626  14.096  26.170   5.974
 5711THSLK    S 5627  16.482  28.014   7.024
 5712ETHY    C1 5628  16.298  27.613   6.917
 5713ETHY    C1 5629  16.148  27.135   6.732
 5714ETHY    C1 5630  16.082  26.672   6.491
 5715ETHY    C1 5631  16.095  26.232   6.206
 5716ETHY    C1 5632  16.192  25.825   5.885
 5717ETHY    C1 5633  16.372  25.457   5.533
 5718AUSL   AUS 5634  16.676  28.176   7.339
 5719AUSL   AUS 5635  16.789  28.433   6.992
 5720AUL    AUL 5636  16.827  28.055   7.012
 5721THSLK    S 5637  16.633  27.922   7.266
 5722ETHY    C1 5638  16.489  27.494   7.213
 5723ETHY    C1 5639  16.402  26.975   7.120
 5724ETHY    C1 5640  16.414  26.463   6.997
 5725ETHY    C1 5641  16.515  25.969   6.854
 5726ETHY    C1 5642  16.707  25.504   6.695
 5727ETHY    C1 5643  16.987  25.076   6.523
 5728THSLK    S 5644  16.906  28.243   6.859
 5729ETHY    C1 5645  16.950  27.841   6.651
 5730ETHY    C1 5646  17.060  27.410   6.355
 5731ETHY    C1 5647  17.236  27.047   6.017
 5732ETHY    C1 5648  17.467  26.753   5.651
 5733ETHY    C1 5649  17.753  26.536   5.264
 5734ETHY    C1 5650  18.090  26.400   4.865
 5735POPC   NC3 5651  41.590  43.898   9.455
 5735POPC   PO4 5652  41.605  43.925   9.155
 5735POPC   GL1 5653  41.550  43.911   8.855
 5735POPC   GL2 5654  41.655  44.011   8.855
 5735POPC   C1A 5655  41.555  43.915   8.555
 5735POPC   D2A 5656  41.556  43.858   8.255
 5735POPC   C3A 5657  41.591  43.884   7.955
 5735POPC   C4A 5658  41.517  43.869   7.655
 5735POPC   C1B 5659  41.643  44.083   8.555
 5735POPC   C2B 5660  41.638  44.114   8.255
 5735POPC   C3B 5661  41.685  44.117   7.955
 5735POPC   C4B 5662  41.684  44.091   7.655
 5736POPC   NC3 5663  42.359  42.320   9.455
 5736POPC   PO4 5664  42.339  42.363   9.155
 5736POPC   GL1 5665  42.361  42.355   8.855
 5736POPC   GL2 5666  42.389  42.428   8.855
 5736POPC   C1A 5667  42.316  42.305   8.555
 5736POPC   D2A 5668  42.306  42.337   8.255
 5736POPC   C3A 5669  42.304  42.315   7.955
 5736POPC   C4A 5670  42.375  42.300   7.655
 5736POPC   C1B 5671  42.370  42.544   8.555
 5736POPC   C2B 5672  42.382  42.533   8.255
 5736POPC   C3B 5673  42.323  42.573   7.955
 5736POPC   C4B 5674  42.416  42.543   7.655
 5737POPC   NC3 5675   1.184  26.084   9.455
 5737POPC   PO4 5676   1.239  26.086   9.155
 5737POPC   GL1 5677   1.236  26.070   8.855
 5737POPC   GL2 5678   1.290  26.078   8.855
 5737POPC   C1A 5679   1.225  26.063   8.555
 5737POPC   D2A 5680   1.240  26.042   8.255
 5737POPC   C3A 5681   1.255  26.090   7.955
 5737POPC   C4A 5682   1.197  26.028   7.655
 5737POPC   C1B 5683   1.403  26.160   8.555
 5737POPC   C2B 5684   1.442  26.227   8.255
 5737POPC   C3B 5685   1.391  26.207   7.955
 5737POPC   C4B 5686   1.382  26.234   7.655
 5738POPC   NC3 5687   6.640   3.550   9.455
 5738POPC   PO4 5688   6.617   3.526   9.155
 5738POPC   GL1 5689   6.610   3.551   8.855
 5738POPC   GL2 5690   6.500   3.535   8.855
 5738POPC   C1A 5691   6.638   3.545   8.555
 5738POPC   D2A 5692   6.664   3.504   8.255
 5738POPC   C3A 5693   6.658   3.501   7.955
 5738POPC   C4A 5694   6.686   3.587   7.655
 5738POPC   C1B 5695   6.411   3.504   8.555
 5738POPC   C2B 5696   6.378   3.476   8.255
 5738POPC   C3B 5697   6.387   3.450   7.955
 5738POPC   C4B 5698   6.454   3.489   7.655
 5739POPC   NC3 5699   0.452  19.098   9.455
 5739POPC   PO4 5700   0.483  19.021   9.155
 5739POPC   GL1 5701   0.455  19.035   8.855
 5739POPC   GL2 5702   0.388  18.922   8.855
 5739POPC   C1A 5703   0.415  19.078   8.555
 5739POPC   D2A 5704   0.429  19.050   8.255
 5739POPC   C3A 5705   0.388  19.021   7.955
 5739POPC   C4A 5706   0.481  19.023   7.655
 5739POPC   C1B 5707   0.422  18.843   8.555
 5739POPC   C2B 5708   0.398  18.817   8.255
 5739POPC   C3B 5709   0.463  18.850   7.955
 5739POPC   C4B 5710   0.458  18.827   7.655
 5740POPC   NC3 5711  24.501  32.284   9.455
 5740POPC   PO4 5712  24.496  32.224   9.155
 5740POPC   GL1 5713  24.466  32.281   8.855
 5740POPC   GL2 5714  24.598  32.274   8.855
 5740POPC   C1A 5715  24.503  32.226   8.555
 5740POPC   D2A 5716  24.489  32.263   8.255
 5740POPC   C3A 5717  24.504  32.224   7.955
 5740POPC   C4A 5718  24.488  32.255   7.655
 5740POPC   C1B 5719  24.759  32.314   8.555
 5740POPC   C2B 5720  24.737  32.390   8.255
 5740POPC   C3B 5721  24.666  32.326   7.955
 5740POPC   C4B 5722  24.694  32.357   7.655
 5741POPC   NC3 5723  33.024   2.807   9.455
 5741POPC   PO4 5724  33.031   2.775   9.155
 5741POPC   GL1 5725  32.984   2.763   8.855
 5741POPC   GL2 5726  32.895   2.845   8.855
 5741POPC   C1A 5727  33.017   2.794   8.555
 5741POPC   D2A 5728  32.997   2.796   8.255
 5741POPC   C3A 5729  32.978   2.772   7.955
 5741POPC   C4A 5730  33.056   2.717   7.655
 5741POPC   C1B 5731  32.849   2.880   8.555
 5741POPC   C2B 5732  32.774   2.874   8.255
 5741POPC   C3B 5733  32.820   2.912   7.955
 5741POPC   C4B 5734  32.795   2.869   7.655
 5742POPC   NC3 5735  23.753  33.838   9.455
 5742POPC   PO4 5736  23.714  33.799   9.155
 5742POPC   GL1 5737  23.671  33.786   8.855
 5742POPC   GL2 5738  23.780  33.705   8.855
 5742POPC   C1A 5739  23.715  33.809   8.555
 5742POPC   D2A 5740  23.711  33.791   8.255
 5742POPC   C3A 5741  23.733  33.798   7.955
 5742POPC   C4A 5742  23.685  33.751   7.655
 5742POPC   C1B 5743  23.973  33.686   8.555
 5742POPC   C2B 5744  23.980  33.751   8.255
 5742POPC   C3B 5745  23.907  33.672   7.955
 5742POPC   C4B 5746  23.930  33.692   7.655
 5743POPC   NC3 5747   2.779  16.697   9.455
 5743POPC   PO4 5748   2.738  16.757   9.155
 5743POPC   GL1 5749   2.781  16.762   8.855
 5743POPC   GL2 5750   2.781  16.648   8.855
 5743POPC   C1A 5751   2.725  16.758   8.555
 5743POPC   D2A 5752   2.724  16.699   8.255
 5743POPC   C3A 5753   2.727  16.780   7.955
 5743POPC   C4A 5754   2.811  16.768   7.655
 5743POPC   C1B 5755   2.717  16.524   8.555
 5743POPC   C2B 5756   2.712  16.514   8.255
 5743POPC   C3B 5757   2.760  16.499   7.955
 5743POPC   C4B 5758   2.773  16.444   7.655
 5744POPC   NC3 5759   5.904  34.556   9.455
 5744POPC   PO4 5760   5.914  34.579   9.155
 5744POPC   GL1 5761   5.890  34.535   8.855
 5744POPC   GL2 5762   5.739  34.692   8.855
 5744POPC   C1A 5763   5.871  34.623   8.555
 5744POPC   D2A 5764   5.912  34.591   8.255
 5744POPC   C3A 5765   5.911  34.619   7.955
 5744POPC   C4A 5766   5.856  34.598   7.655
 5744POPC   C1B 5767   5.687  34.680   8.555
 5744POPC   C2B 5768   5.718  34.682   8.255
 5744POPC   C3B 5769   5.694  34.700   7.955
 5744POPC   C4B 5770   5.634  34.758   7.655
 5745POPC   NC3 5771  22.939  35.333   9.455
 5745POPC   PO4 5772  22.978  35.397   9.155
 5745POPC   GL1 5773  22.900  35.368   8.855
 5745POPC   GL2 5774  22.999  35.468   8.855
 5745POPC   C1A 5775  22.930  35.396   8.555
 5745POPC   D2A 5776  22.976  35.360   8.255
 5745POPC   C3A 5777  22.919  35.339   7.955
 5745POPC   C4A 5778  22.943  35.323   7.655
 5745POPC   C1B 5779  23.060  35.600   8.555
 5745POPC   C2B 5780  23.033  35.530   8.255
 5745POPC   C3B 5781  23.010  35.527   7.955
 5745POPC   C4B 5782  23.046  35.589   7.655
 5746POPC   NC3 5783   5.871  21.432   9.455
 5746POPC   PO4 5784   5.868  21.336   9.155
 5746POPC   GL1 5785   5.845  21.347   8.855
 5746POPC   GL2 5786   5.730  21.325   8.855
 5746POPC   C1A 5787   5.900  21.379   8.555
 5746POPC   D2A 5788   5.894  21.388   8.255
 5746POPC   C3A 5789   5.832  21.399   7.955
 5746POPC   C4A 5790   5.877  21.398   7.655
 5746POPC   C1B 5791   5.587  21.245   8.555
 5746POPC   C2B 5792   5.675  21.333   8.255
 5746POPC   C3B 5793   5.619  21.324   7.955
 5746POPC   C4B 5794   5.656  21.290   7.655
 5747POPC   NC3 5795   7.448  44.674   9.455
 5747POPC   PO4 5796   7.392  44.661   9.155
 5747POPC   GL1 5797   7.401  44.633   8.855
 5747POPC   GL2 5798   7.526  44.637   8.855
 5747POPC   C1A 5799   7.434  44.681   8.555
 5747POPC   D2A 5800   7.469  44.690   8.255
 5747POPC   C3A 5801   7.416  44.618   7.955
 5747POPC   C4A 5802   7.406  44.651   7.655
 5747POPC   C1B 5803   7.631  44.714   8.555
 5747POPC   C2B 5804   7.654  44.716   8.255
 5747POPC   C3B 5805   7.641  44.718   7.955
 5747POPC   C4B 5806   7.681  44.748   7.655
 5748POPC   NC3 5807  42.384  24.487   9.455
 5748POPC   PO4 5808  42.333  24.483   9.155
 5748POPC   GL1 5809  42.291  24.502   8.855
 5748POPC   GL2 5810  42.366  24.568   8.855
 5748POPC   C1A 5811  42.295  24.470   8.555
 5748POPC   D2A 5812  42.309  24.506   8.255
 5748POPC   C3A 5813  42.368  24.454   7.955
 5748POPC   C4A 5814  42.362  24.525   7.655
 5748POPC   C1B 5815  42.505  24.726   8.555
 5748POPC   C2B 5816  42.467  24.702   8.255
 5748POPC   C3B 5817  42.498  24.753   7.955
 5748POPC   C4B 5818  42.501  24.718   7.655
 5749POPC   NC3 5819  43.131  31.436   9.455
 5749POPC   PO4 5820  43.138  31.459   9.155
 5749POPC   GL1 5821  43.116  31.512   8.855
 5749POPC   GL2 5822  43.276  31.399   8.855
 5749POPC   C1A 5823  43.111  31.468   8.555
 5749POPC   D2A 5824  43.088  31.488   8.255
 5749POPC   C3A 5825  43.140  31.460   7.955
 5749POPC   C4A 5826  43.152  31.495   7.655
 5749POPC   C1B 5827  43.389  31.426   8.555
 5749POPC   C2B 5828  43.349  31.404   8.255
 5749POPC   C3B 5829  43.328  31.404   7.955
 5749POPC   C4B 5830  43.320  31.346   7.655
 5750POPC   NC3 5831   2.777  43.150   9.455
 5750POPC   PO4 5832   2.783  43.123   9.155
 5750POPC   GL1 5833   2.753  43.064   8.855
 5750POPC   GL2 5834   2.682  43.031   8.855
 5750POPC   C1A 5835   2.811  43.093   8.555
 5750POPC   D2A 5836   2.806  43.122   8.255
 5750POPC   C3A 5837   2.716  43.147   7.955
 5750POPC   C4A 5838   2.767  43.099   7.655
 5750POPC   C1B 5839   2.555  42.958   8.555
 5750POPC   C2B 5840   2.563  42.962   8.255
 5750POPC   C3B 5841   2.530  43.017   7.955
 5750POPC   C4B 5842   2.572  42.927   7.655
 5751POPC   NC3 5843   2.007  32.241   9.455
 5751POPC   PO4 5844   2.005  32.240   9.155
 5751POPC   GL1 5845   2.015  32.245   8.855
 5751POPC   GL2 5846   1.832  32.208   8.855
 5751POPC   C1A 5847   2.031  32.210   8.555
 5751POPC   D2A 5848   1.973  32.292   8.255
 5751POPC   C3A 5849   1.962  32.223   7.955
 5751POPC   C4A 5850   1.997  32.226   7.655
 5751POPC   C1B 5851   1.750  32.243   8.555
 5751POPC   C2B 5852   1.714  32.287   8.255
 5751POPC   C3B 5853   1.756  32.248   7.955
 5751POPC   C4B 5854   1.769  32.227   7.655
 5752POPC   NC3 5855  39.209  42.334   9.455
 5752POPC   PO4 5856  39.268  42.318   9.155
 5752POPC   GL1 5857  39.224  42.291   8.855
 5752POPC   GL2 5858  39.154  42.416   8.855
 5752POPC   C1A 5859  39.278  42.294   8.555
 5752POPC   D2A 5860  39.192  42.335   8.255
 5752POPC   C3A 5861  39.193  42.306   7.955
 5752POPC   C4A 5862  39.187  42.349   7.655
 5752POPC   C1B 5863  39.043  42.433   8.555
 5752POPC   C2B 5864  39.042  42.418   8.255
 5752POPC   C3B 5865  39.045  42.439   7.955
 5752POPC   C4B 5866  38.999  42.396   7.655
 5753POPC   NC3 5867  38.500   4.303   9.455
 5753POPC   PO4 5868  38.469   4.325   9.155
 5753POPC   GL1 5869  38.476   4.338   8.855
 5753POPC   GL2 5870  38.508   4.438   8.855
 5753POPC   C1A 5871  38.412   4.357   8.555
 5753POPC   D2A 5872  38.414   4.328   8.255
 5753POPC   C3A 5873  38.449   4.304   7.955
 5753POPC   C4A 5874  38.465   4.345   7.655
 5753POPC   C1B 5875  38.668   4.477   8.555
 5753POPC   C2B 5876  38.646   4.550   8.255
 5753POPC   C3B 5877  38.657   4.541   7.955
 5753POPC   C4B 5878  38.590   4.544   7.655
 5754POPC   NC3 5879  22.159  22.942   9.455
 5754POPC   PO4 5880  22.174  22.920   9.155
 5754POPC   GL1 5881  22.193  22.916   8.855
 5754POPC   GL2 5882  22.069  22.874   8.855
 5754POPC   C1A 5883  22.113  22.970   8.555
 5754POPC   D2A 5884  22.146  22.979   8.255
 5754POPC   C3A 5885  22.139  22.960   7.955
 5754POPC   C4A 5886  22.152  22.917   7.655
 5754POPC   C1B 5887  21.963  22.929   8.555
 5754POPC   C2B 5888  21.891  22.953   8.255
 5754POPC   C3B 5889  21.912  22.895   7.955
 5754POPC   C4B 5890  21.938  22.859   7.655
 5755POPC   NC3 5891  30.702   8.156   9.455
 5755POPC   PO4 5892  30.694   8.237   9.155
 5755POPC   GL1 5893  30.701   8.243   8.855
 5755POPC   GL2 5894  30.665   8.308   8.855
 5755POPC   C1A 5895  30.745   8.150   8.555
 5755POPC   D2A 5896  30.662   8.206   8.255
 5755POPC   C3A 5897  30.652   8.246   7.955
 5755POPC   C4A 5898  30.683   8.168   7.655
 5755POPC   C1B 5899  30.639   8.472   8.555
 5755POPC   C2B 5900  30.618   8.474   8.255
 5755POPC   C3B 5901  30.655   8.405   7.955
 5755POPC   C4B 5902  30.643   8.445   7.655
 5756POPC   NC3 5903  28.418  43.868   9.455
 5756POPC   PO4 5904  28.343  43.845   9.155
 5756POPC   GL1 5905  28.321  43.857   8.855
 5756POPC   GL2 5906  28.523  43.938   8.855
 5756POPC   C1A 5907  28.365  43.884   8.555
 5756POPC   D2A 5908  28.391  43.890   8.255
 5756POPC   C3A 5909  28.338  43.934   7.955
 5756POPC   C4A 5910  28.391  43.889   7.655
 5756POPC   C1B 5911  28.664  43.862   8.555
 5756POPC   C2B 5912  28.615  43.941   8.255
 5756POPC   C3B 5913  28.592  43.921   7.955
 5756POPC   C4B 5914  28.598  43.886   7.655
 5757POPC   NC3 5915  30.706  18.321   9.455
 5757POPC   PO4 5916  30.662  18.267   9.155
 5757POPC   GL1 5917  30.647  18.294   8.855
 5757POPC   GL2 5918  30.777  18.288   8.855
 5757POPC   C1A 5919  30.703  18.259   8.555
 5757POPC   D2A 5920  30.703  18.266   8.255
 5757POPC   C3A 5921  30.709  18.313   7.955
 5757POPC   C4A 5922  30.699  18.298   7.655
 5757POPC   C1B 5923  30.910  18.308   8.555
 5757POPC   C2B 5924  30.891  18.321   8.255
 5757POPC   C3B 5925  30.979  18.370   7.955
 5757POPC   C4B 5926  30.940  18.363   7.655
 5758POPC   NC3 5927  13.676  36.107   9.455
 5758POPC   PO4 5928  13.637  36.109   9.155
 5758POPC   GL1 5929  13.637  36.139   8.855
 5758POPC   GL2 5930  13.628  36.257   8.855
 5758POPC   C1A 5931  13.664  36.168   8.555
 5758POPC   D2A 5932  13.666  36.140   8.255
 5758POPC   C3A 5933  13.612  36.085   7.955
 5758POPC   C4A 5934  13.633  36.091   7.655
 5758POPC   C1B 5935  13.514  36.336   8.555
 5758POPC   C2B 5936  13.574  36.361   8.255
 5758POPC   C3B 5937  13.529  36.348   7.955
 5758POPC   C4B 5938  13.578  36.412   7.655
 5759POPC   NC3 5939  33.837  32.257   9.455
 5759POPC   PO4 5940  33.815  32.287   9.155
 5759POPC   GL1 5941  33.814  32.292   8.855
 5759POPC   GL2 5942  33.698  32.241   8.855
 5759POPC   C1A 5943  33.848  32.229   8.555
 5759POPC   D2A 5944  33.820  32.246   8.255
 5759POPC   C3A 5945  33.795  32.235   7.955
 5759POPC   C4A 5946  33.784  32.284   7.655
 5759POPC   C1B 5947  33.515  32.356   8.555
 5759POPC   C2B 5948  33.516  32.294   8.255
 5759POPC   C3B 5949  33.604  32.268   7.955
 5759POPC   C4B 5950  33.533  32.340   7.655
 5760POPC   NC3 5951  19.835  44.662   9.455
 5760POPC   PO4 5952  19.835  44.618   9.155
 5760POPC   GL1 5953  19.874  44.690   8.855
 5760POPC   GL2 5954  19.748  44.614   8.855
 5760POPC   C1A 5955  19.823  44.657   8.555
 5760POPC   D2A 5956  19.793  44.677   8.255
 5760POPC   C3A 5957  19.826  44.638   7.955
 5760POPC   C4A 5958  19.856  44.645   7.655
 5760POPC   C1B 5959  19.631  44.687   8.555
 5760POPC   C2B 5960  19.556  44.653   8.255
 5760POPC   C3B 5961  19.542  44.646   7.955
 5760POPC   C4B 5962  19.558  44.616   7.655
 5761POPC   NC3 5963  20.636   7.467   9.455
 5761POPC   PO4 5964  20.586   7.418   9.155
 5761POPC   GL1 5965  20.630   7.384   8.855
 5761POPC   GL2 5966  20.616   7.302   8.855
 5761POPC   C1A 5967  20.636   7.423   8.555
 5761POPC   D2A 5968  20.628   7.403   8.255
 5761POPC   C3A 5969  20.594   7.406   7.955
 5761POPC   C4A 5970  20.565   7.403   7.655
 5761POPC   C1B 5971  20.673   7.162   8.555
 5761POPC   C2B 5972  20.686   7.166   8.255
 5761POPC   C3B 5973  20.669   7.143   7.955
 5761POPC   C4B 5974  20.629   7.147   7.655
 5762POPC   NC3 5975  36.139   0.466   9.455
 5762POPC   PO4 5976  36.174   0.473   9.155
 5762POPC   GL1 5977  36.137   0.459   8.855
 5762POPC   GL2 5978  36.121   0.359   8.855
 5762POPC   C1A 5979  36.159   0.455   8.555
 5762POPC   D2A 5980  36.160   0.397   8.255
 5762POPC   C3A 5981  36.111   0.421   7.955
 5762POPC   C4A 5982  36.111   0.478   7.655
 5762POPC   C1B 5983  36.064   0.175   8.555
 5762POPC   C2B 5984  36.113   0.236   8.255
 5762POPC   C3B 5985  36.064   0.207   7.955
 5762POPC   C4B 5986  36.064   0.153   7.655
 5763POPC   NC3 5987  43.929  39.199   9.455
 5763POPC   PO4 5988  43.890  39.264   9.155
 5763POPC   GL1 5989  43.872  39.238   8.855
 5763POPC   GL2 5990  43.987  39.345   8.855
 5763POPC   C1A 5991  43.927  39.216   8.555
 5763POPC   D2A 5992  43.883  39.182   8.255
 5763POPC   C3A 5993  43.928  39.189   7.955
 5763POPC   C4A 5994  43.893  39.187   7.655
 5763POPC   C1B 5995  44.000  39.448   8.555
 5763POPC   C2B 5996  43.992  39.425   8.255
 5763POPC   C3B 5997  44.044  39.399   7.955
 5763POPC   C4B 5998  44.009  39.487   7.655
 5764POPC   NC3 5999  36.162  26.793   9.455
 5764POPC   PO4 6000  36.150  26.818   9.155
 5764POPC   GL1 6001  36.093  26.866   8.855
 5764POPC   GL2 6002  36.214  26.921   8.855
 5764POPC   C1A 6003  36.110  26.846   8.555
 5764POPC   D2A 6004  36.167  26.796   8.255
 5764POPC   C3A 6005  36.120  26.821   7.955
 5764POPC   C4A 6006  36.159  26.817   7.655
 5764POPC   C1B 6007  36.370  26.920   8.555
 5764POPC   C2B 6008  36.309  26.916   8.255
 5764POPC   C3B 6009  36.368  26.970   7.955
 5764POPC   C4B 6010  36.366  27.009   7.655
 5765POPC   NC3 6011   4.311  24.451   9.455
 5765POPC   PO4 6012   4.334  24.482   9.155
 5765POPC   GL1 6013   4.300  24.492   8.855
 5765POPC   GL2 6014   4.415  24.330   8.855
 5765POPC   C1A 6015   4.351  24.527   8.555
 5765POPC   D2A 6016   4.347  24.455   8.255
 5765POPC   C3A 6017   4.361  24.497   7.955
 5765POPC   C4A 6018   4.268  24.535   7.655
 5765POPC   C1B 6019   4.447  24.283   8.555
 5765POPC   C2B 6020   4.400  24.246   8.255
 5765POPC   C3B 6021   4.395  24.272   7.955
 5765POPC   C4B 6022   4.398  24.233   7.655
 5766POPC   NC3 6023   9.796   9.015   9.455
 5766POPC   PO4 6024   9.708   8.993   9.155
 5766POPC   GL1 6025   9.762   8.949   8.855
 5766POPC   GL2 6026   9.888   8.880   8.855
 5766POPC   C1A 6027   9.793   8.984   8.555
 5766POPC   D2A 6028   9.750   8.965   8.255
 5766POPC   C3A 6029   9.734   8.950   7.955
 5766POPC   C4A 6030   9.720   8.974   7.655
 5766POPC   C1B 6031   9.951   8.814   8.555
 5766POPC   C2B 6032   9.946   8.827   8.255
 5766POPC   C3B 6033   9.958   8.853   7.955
 5766POPC   C4B 6034   9.902   8.799   7.655
 5767POPC   NC3 6035  35.335  26.788   9.455
 5767POPC   PO4 6036  35.311  26.851   9.155
 5767POPC   GL1 6037  35.356  26.831   8.855
 5767POPC   GL2 6038  35.229  26.846   8.855
 5767POPC   C1A 6039  35.342  26.785   8.555
 5767POPC   D2A 6040  35.364  26.821   8.255
 5767POPC   C3A 6041  35.379  26.829   7.955
 5767POPC   C4A 6042  35.332  26.803   7.655
 5767POPC   C1B 6043  35.134  26.835   8.555
 5767POPC   C2B 6044  35.108  26.890   8.255
 5767POPC   C3B 6045  35.136  26.827   7.955
 5767POPC   C4B 6046  35.105  26.831   7.655
 5768POPC   NC3 6047  37.698  20.629   9.455
 5768POPC   PO4 6048  37.704  20.616   9.155
 5768POPC   GL1 6049  37.681  20.635   8.855
 5768POPC   GL2 6050  37.815  20.698   8.855
 5768POPC   C1A 6051  37.651  20.653   8.555
 5768POPC   D2A 6052  37.703  20.602   8.255
 5768POPC   C3A 6053  37.726  20.602   7.955
 5768POPC   C4A 6054  37.685  20.599   7.655
 5768POPC   C1B 6055  37.897  20.772   8.555
 5768POPC   C2B 6056  37.885  20.832   8.255
 5768POPC   C3B 6057  37.902  20.784   7.955
 5768POPC   C4B 6058  37.893  20.750   7.655
 5769POPC   NC3 6059  28.411   8.231   9.455
 5769POPC   PO4 6060  28.334   8.209   9.155
 5769POPC   GL1 6061  28.347   8.181   8.855
 5769POPC   GL2 6062  28.439   8.127   8.855
 5769POPC   C1A 6063  28.361   8.199   8.555
 5769POPC   D2A 6064  28.377   8.204   8.255
 5769POPC   C3A 6065  28.343   8.232   7.955
 5769POPC   C4A 6066  28.372   8.232   7.655
 5769POPC   C1B 6067  28.581   8.120   8.555
 5769POPC   C2B 6068  28.624   8.066   8.255
 5769POPC   C3B 6069  28.604   8.054   7.955
 5769POPC   C4B 6070  28.571   8.026   7.655
 5770POPC   NC3 6071  29.889  12.850   9.455
 5770POPC   PO4 6072  29.905  12.812   9.155
 5770POPC   GL1 6073  29.872  12.829   8.855
 5770POPC   GL2 6074  30.011  12.844   8.855
 5770POPC   C1A 6075  29.960  12.876   8.555
 5770POPC   D2A 6076  29.929  12.884   8.255
 5770POPC   C3A 6077  29.922  12.882   7.955
 5770POPC   C4A 6078  29.874  12.821   7.655
 5770POPC   C1B 6079  30.153  12.832   8.555
 5770POPC   C2B 6080  30.126  12.853   8.255
 5770POPC   C3B 6081  30.186  12.855   7.955
 5770POPC   C4B 6082  30.183  12.781   7.655
 5771POPC   NC3 6083  16.720   8.962   9.455
 5771POPC   PO4 6084  16.713   8.924   9.155
 5771POPC   GL1 6085  16.775   8.952   8.855
 5771POPC   GL2 6086  16.892   9.033   8.855
 5771POPC   C1A 6087  16.773   8.928   8.555
 5771POPC   D2A 6088  16.712   9.014   8.255
 5771POPC   C3A 6089  16.725   8.983   7.955
 5771POPC   C4A 6090  16.701   8.952   7.655
 5771POPC   C1B 6091  16.937   8.996   8.555
 5771POPC   C2B 6092  16.963   8.963   8.255
 5771POPC   C3B 6093  16.999   8.983   7.955
 5771POPC   C4B 6094  16.953   8.987   7.655
 5772POPC   NC3 6095   6.686  27.566   9.455
 5772POPC   PO4 6096   6.603  27.570   9.155
 5772POPC   GL1 6097   6.664  27.558   8.855
 5772POPC   GL2 6098   6.696  27.756   8.855
 5772POPC   C1A 6099   6.645  27.643   8.555
 5772POPC   D2A 6100   6.692  27.592   8.255
 5772POPC   C3A 6101   6.624  27.600   7.955
 5772POPC   C4A 6102   6.654  27.635   7.655
 5772POPC   C1B 6103   6.693  27.868   8.555
 5772POPC   C2B 6104   6.693  27.825   8.255
 5772POPC   C3B 6105   6.740  27.814   7.955
 5772POPC   C4B 6106   6.682  27.804   7.655
 5773POPC   NC3 6107  39.208  11.333   9.455
 5773POPC   PO4 6108  39.211  11.250   9.155
 5773POPC   GL1 6109  39.198  11.276   8.855
 5773POPC   GL2 6110  39.276  11.167   8.855
 5773POPC   C1A 6111  39.252  11.260   8.555
 5773POPC   D2A 6112  39.202  11.343   8.255
 5773POPC   C3A 6113  39.213  11.328   7.955
 5773POPC   C4A 6114  39.197  11.292   7.655
 5773POPC   C1B 6115  39.244  11.007   8.555
 5773POPC   C2B 6116  39.230  11.093   8.255
 5773POPC   C3B 6117  39.237  11.098   7.955
 5773POPC   C4B 6118  39.304  11.035   7.655
 5774POPC   NC3 6119  13.653  10.504   9.455
 5774POPC   PO4 6120  13.595  10.562   9.155
 5774POPC   GL1 6121  13.669  10.524   8.855
 5774POPC   GL2 6122  13.704  10.592   8.855
 5774POPC   C1A 6123  13.630  10.502   8.555
 5774POPC   D2A 6124  13.661  10.526   8.255
 5774POPC   C3A 6125  13.635  10.519   7.955
 5774POPC   C4A 6126  13.592  10.543   7.655
 5774POPC   C1B 6127  13.725  10.677   8.555
 5774POPC   C2B 6128  13.752  10.728   8.255
 5774POPC   C3B 6129  13.731  10.756   7.955
 5774POPC   C4B 6130  13.777  10.744   7.655
 5775POPC   NC3 6131  34.545  19.095   9.455
 5775POPC   PO4 6132  34.611  19.038   9.155
 5775POPC   GL1 6133  34.581  19.035   8.855
 5775POPC   GL2 6134  34.527  18.937   8.855
 5775POPC   C1A 6135  34.569  19.087   8.555
 5775POPC   D2A 6136  34.541  19.092   8.255
 5775POPC   C3A 6137  34.567  19.085   7.955
 5775POPC   C4A 6138  34.555  19.034   7.655
 5775POPC   C1B 6139  34.541  18.836   8.555
 5775POPC   C2B 6140  34.460  18.846   8.255
 5775POPC   C3B 6141  34.541  18.818   7.955
 5775POPC   C4B 6142  34.458  18.782   7.655
 5776POPC   NC3 6143  43.122  20.639   9.455
 5776POPC   PO4 6144  43.070  20.614   9.155
 5776POPC   GL1 6145  43.130  20.659   8.855
 5776POPC   GL2 6146  43.074  20.535   8.855
 5776POPC   C1A 6147  43.159  20.632   8.555
 5776POPC   D2A 6148  43.159  20.656   8.255
 5776POPC   C3A 6149  43.067  20.632   7.955
 5776POPC   C4A 6150  43.061  20.627   7.655
 5776POPC   C1B 6151  43.112  20.383   8.555
 5776POPC   C2B 6152  43.086  20.365   8.255
 5776POPC   C3B 6153  43.105  20.355   7.955
 5776POPC   C4B 6154  43.124  20.388   7.655
 5777POPC   NC3 6155   4.312  39.194   9.455
 5777POPC   PO4 6156   4.365  39.210   9.155
 5777POPC   GL1 6157   4.365  39.259   8.855
 5777POPC   GL2 6158   4.222  39.134   8.855
 5777POPC   C1A 6159   4.307  39.193   8.555
 5777POPC   D2A 6160   4.327  39.234   8.255
 5777POPC   C3A 6161   4.343  39.245   7.955
 5777POPC   C4A 6162   4.287  39.219   7.655
 5777POPC   C1B 6163   4.054  39.076   8.555
 5777POPC   C2B 6164   4.134  39.107   8.255
 5777POPC   C3B 6165   4.124  39.160   7.955
 5777POPC   C4B 6166   4.097  39.129   7.655
 5778POPC   NC3 6167  31.434  16.739   9.455
 5778POPC   PO4 6168  31.481  16.707   9.155
 5778POPC   GL1 6169  31.494  16.728   8.855
 5778POPC   GL2 6170  31.552  16.801   8.855
 5778POPC   C1A 6171  31.515  16.706   8.555
 5778POPC   D2A 6172  31.455  16.682   8.255
 5778POPC   C3A 6173  31.438  16.773   7.955
 5778POPC   C4A 6174  31.478  16.748   7.655
 5778POPC   C1B 6175  31.595  16.988   8.555
 5778POPC   C2B 6176  31.631  16.993   8.255
 5778POPC   C3B 6177  31.570  16.959   7.955
 5778POPC   C4B 6178  31.584  16.915   7.655
 5779POPC   NC3 6179   1.190   7.442   9.455
 5779POPC   PO4 6180   1.165   7.407   9.155
 5779POPC   GL1 6181   1.189   7.465   8.855
 5779POPC   GL2 6182   1.116   7.448   8.855
 5779POPC   C1A 6183   1.184   7.431   8.555
 5779POPC   D2A 6184   1.253   7.469   8.255
 5779POPC   C3A 6185   1.192   7.427   7.955
 5779POPC   C4A 6186   1.223   7.376   7.655
 5779POPC   C1B 6187   0.968   7.380   8.555
 5779POPC   C2B 6188   0.997   7.378   8.255
 5779POPC   C3B 6189   0.975   7.359   7.955
 5779POPC   C4B 6190   1.000   7.385   7.655
 5780POPC   NC3 6191  28.330  14.453   9.455
 5780POPC   PO4 6192  28.326  14.372   9.155
 5780POPC   GL1 6193  28.360  14.383   8.855
 5780POPC   GL2 6194  28.234  14.292   8.855
 5780POPC   C1A 6195  28.346  14.386   8.555
 5780POPC   D2A 6196  28.390  14.382   8.255
 5780POPC   C3A 6197  28.357  14.385   7.955
 5780POPC   C4A 6198  28.416  14.435   7.655
 5780POPC   C1B 6199  28.199  14.226   8.555
 5780POPC   C2B 6200  28.148  14.188   8.255
 5780POPC   C3B 6201  28.195  14.273   7.955
 5780POPC   C4B 6202  28.174  14.250   7.655
 5781POPC   NC3 6203  26.047   9.781   9.455
 5781POPC   PO4 6204  26.051   9.753   9.155
 5781POPC   GL1 6205  26.026   9.790   8.855
 5781POPC   GL2 6206  25.926   9.654   8.855
 5781POPC   C1A 6207  26.061   9.736   8.555
 5781POPC   D2A 6208  26.042   9.766   8.255
 5781POPC   C3A 6209  26.072   9.732   7.955
 5781POPC   C4A 6210  26.079   9.792   7.655
 5781POPC   C1B 6211  25.807   9.641   8.555
 5781POPC   C2B 6212  25.833   9.590   8.255
 5781POPC   C3B 6213  25.832   9.656   7.955
 5781POPC   C4B 6214  25.827   9.631   7.655
 5782POPC   NC3 6215  44.710   5.863   9.455
 5782POPC   PO4 6216  44.637   5.895   9.155
 5782POPC   GL1 6217  44.710   5.838   8.855
 5782POPC   GL2 6218  44.523   5.943   8.855
 5782POPC   C1A 6219  44.661   5.822   8.555
 5782POPC   D2A 6220  44.693   5.838   8.255
 5782POPC   C3A 6221  44.619   5.849   7.955
 5782POPC   C4A 6222  44.667   5.837   7.655
 5782POPC   C1B 6223  44.427   5.987   8.555
 5782POPC   C2B 6224  44.430   5.920   8.255
 5782POPC   C3B 6225  44.413   5.973   7.955
 5782POPC   C4B 6226  44.474   5.912   7.655
 5783POPC   NC3 6227  39.227  40.761   9.455
 5783POPC   PO4 6228  39.275  40.806   9.155
 5783POPC   GL1 6229  39.276  40.824   8.855
 5783POPC   GL2 6230  39.204  40.643   8.855
 5783POPC   C1A 6231  39.244  40.828   8.555
 5783POPC   D2A 6232  39.217  40.747   8.255
 5783POPC   C3A 6233  39.261  40.827   7.955
 5783POPC   C4A 6234  39.207  40.770   7.655
 5783POPC   C1B 6235  39.238  40.578   8.555
 5783POPC   C2B 6236  39.238  40.549   8.255
 5783POPC   C3B 6237  39.232  40.545   7.955
 5783POPC   C4B 6238  39.219  40.504   7.655
 5784POPC   NC3 6239  15.961  42.343   9.455
 5784POPC   PO4 6240  15.982  42.367   9.155
 5784POPC   GL1 6241  15.951  42.314   8.855
 5784POPC   GL2 6242  16.048  42.273   8.855
 5784POPC   C1A 6243  15.970  42.354   8.555
 5784POPC   D2A 6244  15.921  42.346   8.255
 5784POPC   C3A 6245  15.941  42.359   7.955
 5784POPC   C4A 6246  15.974  42.294   7.655
 5784POPC   C1B 6247  16.178  42.233   8.555
 5784POPC   C2B 6248  16.213  42.253   8.255
 5784POPC   C3B 6249  16.203  42.224   7.955
 5784POPC   C4B 6250  16.148  42.227   7.655
 5785POPC   NC3 6251  31.438  15.946   9.455
 5785POPC   PO4 6252  31.438  15.983   9.155
 5785POPC   GL1 6253  31.496  15.936   8.855
 5785POPC   GL2 6254  31.532  15.840   8.855
 5785POPC   C1A 6255  31.468  15.978   8.555
 5785POPC   D2A 6256  31.501  15.992   8.255
 5785POPC   C3A 6257  31.512  15.937   7.955
 5785POPC   C4A 6258  31.453  15.944   7.655
 5785POPC   C1B 6259  31.601  15.768   8.555
 5785POPC   C2B 6260  31.574  15.755   8.255
 5785POPC   C3B 6261  31.578  15.765   7.955
 5785POPC   C4B 6262  31.609  15.740   7.655
 5786POPC   NC3 6263   5.074  40.740   9.455
 5786POPC   PO4 6264   5.111  40.817   9.155
 5786POPC   GL1 6265   5.106  40.740   8.855
 5786POPC   GL2 6266   4.943  40.734   8.855
 5786POPC   C1A 6267   5.079  40.817   8.555
 5786POPC   D2A 6268   5.055  40.805   8.255
 5786POPC   C3A 6269   5.119  40.782   7.955
 5786POPC   C4A 6270   5.121  40.766   7.655
 5786POPC   C1B 6271   4.803  40.757   8.555
 5786POPC   C2B 6272   4.865  40.736   8.255
 5786POPC   C3B 6273   4.899  40.722   7.955
 5786POPC   C4B 6274   4.884  40.762   7.655
 5787POPC   NC3 6275   3.543  14.447   9.455
 5787POPC   PO4 6276   3.569  14.376   9.155
 5787POPC   GL1 6277   3.492  14.387   8.855
 5787POPC   GL2 6278   3.458  14.554   8.855
 5787POPC   C1A 6279   3.546  14.442   8.555
 5787POPC   D2A 6280   3.571  14.449   8.255
 5787POPC   C3A 6281   3.539  14.399   7.955
 5787POPC   C4A 6282   3.535  14.364   7.655
 5787POPC   C1B 6283   3.442  14.661   8.555
 5787POPC   C2B 6284   3.443  14.626   8.255
 5787POPC   C3B 6285   3.395  14.629   7.955
 5787POPC   C4B 6286   3.474  14.586   7.655
 5788POPC   NC3 6287  12.876  18.297   9.455
 5788POPC   PO4 6288  12.803  18.316   9.155
 5788POPC   GL1 6289  12.861  18.259   8.855
 5788POPC   GL2 6290  12.823  18.428   8.855
 5788POPC   C1A 6291  12.853  18.254   8.555
 5788POPC   D2A 6292  12.837  18.309   8.255
 5788POPC   C3A 6293  12.851  18.291   7.955
 5788POPC   C4A 6294  12.841  18.273   7.655
 5788POPC   C1B 6295  12.741  18.533   8.555
 5788POPC   C2B 6296  12.774  18.529   8.255
 5788POPC   C3B 6297  12.737  18.496   7.955
 5788POPC   C4B 6298  12.756  18.543   7.655
 5789POPC   NC3 6299  43.882  17.491   9.455
 5789POPC   PO4 6300  43.852  17.470   9.155
 5789POPC   GL1 6301  43.874  17.475   8.855
 5789POPC   GL2 6302  43.945  17.620   8.855
 5789POPC   C1A 6303  43.897  17.520   8.555
 5789POPC   D2A 6304  43.898  17.491   8.255
 5789POPC   C3A 6305  43.854  17.486   7.955
 5789POPC   C4A 6306  43.918  17.543   7.655
 5789POPC   C1B 6307  44.005  17.684   8.555
 5789POPC   C2B 6308  44.020  17.649   8.255
 5789POPC   C3B 6309  44.092  17.709   7.955
 5789POPC   C4B 6310  44.050  17.652   7.655
 5790POPC   NC3 6311   8.239  27.597   9.455
 5790POPC   PO4 6312   8.153  27.567   9.155
 5790POPC   GL1 6313   8.218  27.598   8.855
 5790POPC   GL2 6314   8.237  27.426   8.855
 5790POPC   C1A 6315   8.208  27.611   8.555
 5790POPC   D2A 6316   8.195  27.642   8.255
 5790POPC   C3A 6317   8.194  27.610   7.955
 5790POPC   C4A 6318   8.240  27.635   7.655
 5790POPC   C1B 6319   8.206  27.308   8.555
 5790POPC   C2B 6320   8.215  27.363   8.255
 5790POPC   C3B 6321   8.267  27.378   7.955
 5790POPC   C4B 6322   8.198  27.374   7.655
 5791POPC   NC3 6323  26.050  33.038   9.455
 5791POPC   PO4 6324  26.086  33.041   9.155
 5791POPC   GL1 6325  26.007  33.052   8.855
 5791POPC   GL2 6326  25.889  33.041   8.855
 5791POPC   C1A 6327  26.011  33.074   8.555
 5791POPC   D2A 6328  26.014  32.997   8.255
 5791POPC   C3A 6329  26.025  33.065   7.955
 5791POPC   C4A 6330  26.031  33.046   7.655
 5791POPC   C1B 6331  25.770  33.094   8.555
 5791POPC   C2B 6332  25.815  33.079   8.255
 5791POPC   C3B 6333  25.854  33.139   7.955
 5791POPC   C4B 6334  25.799  33.153   7.655
 5792POPC   NC3 6335  30.684   2.722   9.455
 5792POPC   PO4 6336  30.736   2.747   9.155
 5792POPC   GL1 6337  30.705   2.756   8.855
 5792POPC   GL2 6338  30.790   2.784   8.855
 5792POPC   C1A 6339  30.647   2.741   8.555
 5792POPC   D2A 6340  30.670   2.749   8.255
 5792POPC   C3A 6341  30.685   2.780   7.955
 5792POPC   C4A 6342  30.733   2.758   7.655
 5792POPC   C1B 6343  30.915   2.793   8.555
 5792POPC   C2B 6344  30.918   2.752   8.255
 5792POPC   C3B 6345  30.915   2.799   7.955
 5792POPC   C4B 6346  30.992   2.795   7.655
 5793POPC   NC3 6347   0.419  12.863   9.455
 5793POPC   PO4 6348   0.410  12.824   9.155
 5793POPC   GL1 6349   0.435  12.895   8.855
 5793POPC   GL2 6350   0.474  12.913   8.855
 5793POPC   C1A 6351   0.417  12.897   8.555
 5793POPC   D2A 6352   0.466  12.809   8.255
 5793POPC   C3A 6353   0.418  12.849   7.955
 5793POPC   C4A 6354   0.389  12.896   7.655
 5793POPC   C1B 6355   0.656  13.066   8.555
 5793POPC   C2B 6356   0.578  13.068   8.255
 5793POPC   C3B 6357   0.658  13.031   7.955
 5793POPC   C4B 6358   0.649  12.985   7.655
 5794POPC   NC3 6359  43.859  24.510   9.455
 5794POPC   PO4 6360  43.918  24.501   9.155
 5794POPC   GL1 6361  43.897  24.452   8.855
 5794POPC   GL2 6362  43.845  24.394   8.855
 5794POPC   C1A 6363  43.859  24.479   8.555
 5794POPC   D2A 6364  43.886  24.451   8.255
 5794POPC   C3A 6365  43.920  24.534   7.955
 5794POPC   C4A 6366  43.878  24.500   7.655
 5794POPC   C1B 6367  43.879  24.265   8.555
 5794POPC   C2B 6368  43.825  24.204   8.255
 5794POPC   C3B 6369  43.884  24.279   7.955
 5794POPC   C4B 6370  43.819  24.224   7.655
 5795POPC   NC3 6371  11.268  40.736   9.455
 5795POPC   PO4 6372  11.251  40.744   9.155
 5795POPC   GL1 6373  11.252  40.829   8.855
 5795POPC   GL2 6374  11.420  40.874   8.855
 5795POPC   C1A 6375  11.322  40.771   8.555
 5795POPC   D2A 6376  11.292  40.739   8.255
 5795POPC   C3A 6377  11.336  40.823   7.955
 5795POPC   C4A 6378  11.321  40.781   7.655
 5795POPC   C1B 6379  11.428  41.020   8.555
 5795POPC   C2B 6380  11.442  41.014   8.255
 5795POPC   C3B 6381  11.435  41.010   7.955
 5795POPC   C4B 6382  11.460  41.013   7.655
 5796POPC   NC3 6383  26.777  10.566   9.455
 5796POPC   PO4 6384  26.816  10.538   9.155
 5796POPC   GL1 6385  26.843  10.478   8.855
 5796POPC   GL2 6386  26.884  10.395   8.855
 5796POPC   C1A 6387  26.839  10.569   8.555
 5796POPC   D2A 6388  26.779  10.563   8.255
 5796POPC   C3A 6389  26.807  10.514   7.955
 5796POPC   C4A 6390  26.842  10.496   7.655
 5796POPC   C1B 6391  27.033  10.296   8.555
 5796POPC   C2B 6392  26.987  10.379   8.255
 5796POPC   C3B 6393  26.981  10.297   7.955
 5796POPC   C4B 6394  27.040  10.319   7.655
 5797POPC   NC3 6395  39.188   4.314   9.455
 5797POPC   PO4 6396  39.213   4.319   9.155
 5797POPC   GL1 6397  39.215   4.291   8.855
 5797POPC   GL2 6398  39.101   4.351   8.855
 5797POPC   C1A 6399  39.233   4.287   8.555
 5797POPC   D2A 6400  39.243   4.294   8.255
 5797POPC   C3A 6401  39.192   4.274   7.955
 5797POPC   C4A 6402  39.189   4.272   7.655
 5797POPC   C1B 6403  38.941   4.333   8.555
 5797POPC   C2B 6404  39.025   4.356   8.255
 5797POPC   C3B 6405  38.945   4.279   7.955
 5797POPC   C4B 6406  38.980   4.334   7.655
 5798POPC   NC3 6407  29.164   1.969   9.455
 5798POPC   PO4 6408  29.101   2.035   9.155
 5798POPC   GL1 6409  29.160   1.990   8.855
 5798POPC   GL2 6410  29.278   1.942   8.855
 5798POPC   C1A 6411  29.096   1.986   8.555
 5798POPC   D2A 6412  29.105   1.990   8.255
 5798POPC   C3A 6413  29.181   1.941   7.955
 5798POPC   C4A 6414  29.134   1.999   7.655
 5798POPC   C1B 6415  29.277   1.845   8.555
 5798POPC   C2B 6416  29.281   1.779   8.255
 5798POPC   C3B 6417  29.285   1.806   7.955
 5798POPC   C4B 6418  29.266   1.852   7.655
 5799POPC   NC3 6419  38.433  29.955   9.455
 5799POPC   PO4 6420  38.469  29.895   9.155
 5799POPC   GL1 6421  38.428  29.932   8.855
 5799POPC   GL2 6422  38.610  29.912   8.855
 5799POPC   C1A 6423  38.456  29.961   8.555
 5799POPC   D2A 6424  38.494  29.873   8.255
 5799POPC   C3A 6425  38.469  29.965   7.955
 5799POPC   C4A 6426  38.416  29.880   7.655
 5799POPC   C1B 6427  38.654  29.875   8.555
 5799POPC   C2B 6428  38.702  29.927   8.255
 5799POPC   C3B 6429  38.704  29.929   7.955
 5799POPC   C4B 6430  38.723  29.905   7.655
 5800POPC   NC3 6431  11.283  21.351   9.455
 5800POPC   PO4 6432  11.270  21.413   9.155
 5800POPC   GL1 6433  11.327  21.347   8.855
 5800POPC   GL2 6434  11.248  21.426   8.855
 5800POPC   C1A 6435  11.264  21.376   8.555
 5800POPC   D2A 6436  11.303  21.407   8.255
 5800POPC   C3A 6437  11.331  21.423   7.955
 5800POPC   C4A 6438  11.342  21.417   7.655
 5800POPC   C1B 6439  11.094  21.613   8.555
 5800POPC   C2B 6440  11.154  21.537   8.255
 5800POPC   C3B 6441  11.146  21.524   7.955
 5800POPC   C4B 6442  11.085  21.552   7.655
 5801POPC   NC3 6443  41.553   8.225   9.455
 5801POPC   PO4 6444  41.595   8.170   9.155
 5801POPC   GL1 6445  41.558   8.230   8.855
 5801POPC   GL2 6446  41.484   8.236   8.855
 5801POPC   C1A 6447  41.588   8.156   8.555
 5801POPC   D2A 6448  41.565   8.155   8.255
 5801POPC   C3A 6449  41.528   8.148   7.955
 5801POPC   C4A 6450  41.563   8.156   7.655
 5801POPC   C1B 6451  41.305   8.315   8.555
 5801POPC   C2B 6452  41.368   8.369   8.255
 5801POPC   C3B 6453  41.368   8.324   7.955
 5801POPC   C4B 6454  41.326   8.357   7.655
 5802POPC   NC3 6455   7.444  36.921   9.455
 5802POPC   PO4 6456   7.395  36.946   9.155
 5802POPC   GL1 6457   7.455  36.893   8.855
 5802POPC   GL2 6458   7.541  37.023   8.855
 5802POPC   C1A 6459   7.448  36.877   8.555
 5802POPC   D2A 6460   7.436  36.947   8.255
 5802POPC   C3A 6461   7.462  36.914   7.955
 5802POPC   C4A 6462   7.373  36.856   7.655
 5802POPC   C1B 6463   7.599  37.059   8.555
 5802POPC   C2B 6464   7.539  37.127   8.255
 5802POPC   C3B 6465   7.530  37.057   7.955
 5802POPC   C4B 6466   7.546  37.149   7.655
 5803POPC   NC3 6467  29.958  24.527   9.455
 5803POPC   PO4 6468  29.888  24.505   9.155
 5803POPC   GL1 6469  29.971  24.486   8.855
 5803POPC   GL2 6470  30.074  24.489   8.855
 5803POPC   C1A 6471  29.963  24.463   8.555
 5803POPC   D2A 6472  29.877  24.515   8.255
 5803POPC   C3A 6473  29.927  24.495   7.955
 5803POPC   C4A 6474  29.876  24.478   7.655
 5803POPC   C1B 6475  30.187  24.365   8.555
 5803POPC   C2B 6476  30.204  24.438   8.255
 5803POPC   C3B 6477  30.198  24.362   7.955
 5803POPC   C4B 6478  30.154  24.370   7.655
 5804POPC   NC3 6479   2.001  33.764   9.455
 5804POPC   PO4 6480   2.014  33.791   9.155
 5804POPC   GL1 6481   1.995  33.775   8.855
 5804POPC   GL2 6482   1.950  33.724   8.855
 5804POPC   C1A 6483   2.026  33.837   8.555
 5804POPC   D2A 6484   2.030  33.816   8.255
 5804POPC   C3A 6485   2.022  33.826   7.955
 5804POPC   C4A 6486   2.033  33.834   7.655
 5804POPC   C1B 6487   1.983  33.567   8.555
 5804POPC   C2B 6488   1.993  33.600   8.255
 5804POPC   C3B 6489   1.999  33.572   7.955
 5804POPC   C4B 6490   1.930  33.521   7.655
 5805POPC   NC3 6491   0.444  19.835   9.455
 5805POPC   PO4 6492   0.481  19.797   9.155
 5805POPC   GL1 6493   0.483  19.848   8.855
 5805POPC   GL2 6494   0.567  19.816   8.855
 5805POPC   C1A 6495   0.432  19.870   8.555
 5805POPC   D2A 6496   0.420  19.859   8.255
 5805POPC   C3A 6497   0.477  19.868   7.955
 5805POPC   C4A 6498   0.407  19.785   7.655
 5805POPC   C1B 6499   0.712  19.770   8.555
 5805POPC   C2B 6500   0.636  19.813   8.255
 5805POPC   C3B 6501   0.642  19.735   7.955
 5805POPC   C4B 6502   0.709  19.803   7.655
 5806POPC   NC3 6503  26.820  14.412   9.455
 5806POPC   PO4 6504  26.822  14.374   9.155
 5806POPC   GL1 6505  26.784  14.372   8.855
 5806POPC   GL2 6506  26.930  14.518   8.855
 5806POPC   C1A 6507  26.775  14.362   8.555
 5806POPC   D2A 6508  26.796  14.432   8.255
 5806POPC   C3A 6509  26.835  14.377   7.955
 5806POPC   C4A 6510  26.793  14.450   7.655
 5806POPC   C1B 6511  27.001  14.601   8.555
 5806POPC   C2B 6512  26.928  14.597   8.255
 5806POPC   C3B 6513  26.946  14.637   7.955
 5806POPC   C4B 6514  26.989  14.585   7.655
 5807POPC   NC3 6515   8.152  17.554   9.455
 5807POPC   PO4 6516   8.164  17.555   9.155
 5807POPC   GL1 6517   8.171  17.466   8.855
 5807POPC   GL2 6518   8.248  17.640   8.855
 5807POPC   C1A 6519   8.153  17.473   8.555
 5807POPC   D2A 6520   8.212  17.484   8.255
 5807POPC   C3A 6521   8.232  17.471   7.955
 5807POPC   C4A 6522   8.163  17.459   7.655
 5807POPC   C1B 6523   8.270  17.787   8.555
 5807POPC   C2B 6524   8.321  17.725   8.255
 5807POPC   C3B 6525   8.255  17.732   7.955
 5807POPC   C4B 6526   8.319  17.748   7.655
 5808POPC   NC3 6527  36.891   5.821   9.455
 5808POPC   PO4 6528  36.917   5.858   9.155
 5808POPC   GL1 6529  36.918   5.905   8.855
 5808POPC   GL2 6530  37.050   5.929   8.855
 5808POPC   C1A 6531  36.930   5.905   8.555
 5808POPC   D2A 6532  36.913   5.919   8.255
 5808POPC   C3A 6533  36.948   5.911   7.955
 5808POPC   C4A 6534  36.903   5.860   7.655
 5808POPC   C1B 6535  37.093   5.995   8.555
 5808POPC   C2B 6536  37.112   5.948   8.255
 5808POPC   C3B 6537  37.160   5.925   7.955
 5808POPC   C4B 6538  37.124   5.912   7.655
 5809POPC   NC3 6539   0.389  32.289   9.455
 5809POPC   PO4 6540   0.399  32.232   9.155
 5809POPC   GL1 6541   0.406  32.250   8.855
 5809POPC   GL2 6542   0.487  32.339   8.855
 5809POPC   C1A 6543   0.455  32.277   8.555
 5809POPC   D2A 6544   0.461  32.271   8.255
 5809POPC   C3A 6545   0.410  32.233   7.955
 5809POPC   C4A 6546   0.477  32.284   7.655
 5809POPC   C1B 6547   0.513  32.537   8.555
 5809POPC   C2B 6548   0.470  32.466   8.255
 5809POPC   C3B 6549   0.462  32.539   7.955
 5809POPC   C4B 6550   0.432  32.465   7.655
 5810POPC   NC3 6551   6.637  43.066   9.455
 5810POPC   PO4 6552   6.670  43.127   9.155
 5810POPC   GL1 6553   6.630  43.099   8.855
 5810POPC   GL2 6554   6.542  42.965   8.855
 5810POPC   C1A 6555   6.632  43.150   8.555
 5810POPC   D2A 6556   6.634  43.141   8.255
 5810POPC   C3A 6557   6.678  43.079   7.955
 5810POPC   C4A 6558   6.616  43.096   7.655
 5810POPC   C1B 6559   6.463  42.907   8.555
 5810POPC   C2B 6560   6.502  42.907   8.255
 5810POPC   C3B 6561   6.503  42.969   7.955
 5810POPC   C4B 6562   6.502  42.969   7.655
 5811POPC   NC3 6563  27.567   9.722   9.455
 5811POPC   PO4 6564  27.570   9.737   9.155
 5811POPC   GL1 6565  27.545   9.726   8.855
 5811POPC   GL2 6566  27.708   9.778   8.855
 5811POPC   C1A 6567  27.632   9.700   8.555
 5811POPC   D2A 6568  27.612   9.786   8.255
 5811POPC   C3A 6569  27.573   9.772   7.955
 5811POPC   C4A 6570  27.592   9.754   7.655
 5811POPC   C1B 6571  27.861   9.729   8.555
 5811POPC   C2B 6572  27.805   9.759   8.255
 5811POPC   C3B 6573  27.870   9.744   7.955
 5811POPC   C4B 6574  27.833   9.718   7.655
 5812POPC   NC3 6575  29.138   3.577   9.455
 5812POPC   PO4 6576  29.168   3.582   9.155
 5812POPC   GL1 6577  29.184   3.589   8.855
 5812POPC   GL2 6578  29.230   3.474   8.855
 5812POPC   C1A 6579  29.163   3.500   8.555
 5812POPC   D2A 6580  29.123   3.591   8.255
 5812POPC   C3A 6581  29.121   3.515   7.955
 5812POPC   C4A 6582  29.143   3.569   7.655
 5812POPC   C1B 6583  29.309   3.358   8.555
 5812POPC   C2B 6584  29.258   3.275   8.255
 5812POPC   C3B 6585  29.292   3.357   7.955
 5812POPC   C4B 6586  29.295   3.325   7.655
 5813POPC   NC3 6587  24.453  14.424   9.455
 5813POPC   PO4 6588  24.517  14.433   9.155
 5813POPC   GL1 6589  24.503  14.440   8.855
 5813POPC   GL2 6590  24.571  14.353   8.855
 5813POPC   C1A 6591  24.475  14.390   8.555
 5813POPC   D2A 6592  24.522  14.444   8.255
 5813POPC   C3A 6593  24.484  14.372   7.955
 5813POPC   C4A 6594  24.473  14.441   7.655
 5813POPC   C1B 6595  24.712  14.284   8.555
 5813POPC   C2B 6596  24.694  14.283   8.255
 5813POPC   C3B 6597  24.674  14.258   7.955
 5813POPC   C4B 6598  24.711  14.291   7.655
 5814POPC   NC3 6599  22.122  13.613   9.455
 5814POPC   PO4 6600  22.183  13.591   9.155
 5814POPC   GL1 6601  22.136  13.635   8.855
 5814POPC   GL2 6602  21.992  13.657   8.855
 5814POPC   C1A 6603  22.170  13.593   8.555
 5814POPC   D2A 6604  22.118  13.677   8.255
 5814POPC   C3A 6605  22.143  13.622   7.955
 5814POPC   C4A 6606  22.124  13.662   7.655
 5814POPC   C1B 6607  21.895  13.618   8.555
 5814POPC   C2B 6608  21.918  13.669   8.255
 5814POPC   C3B 6609  21.930  13.662   7.955
 5814POPC   C4B 6610  21.945  13.583   7.655
 5815POPC   NC3 6611  13.602   8.189   9.455
 5815POPC   PO4 6612  13.584   8.149   9.155
 5815POPC   GL1 6613  13.614   8.230   8.855
 5815POPC   GL2 6614  13.613   8.070   8.855
 5815POPC   C1A 6615  13.585   8.218   8.555
 5815POPC   D2A 6616  13.632   8.166   8.255
 5815POPC   C3A 6617  13.616   8.161   7.955
 5815POPC   C4A 6618  13.645   8.199   7.655
 5815POPC   C1B 6619  13.645   7.908   8.555
 5815POPC   C2B 6620  13.687   7.978   8.255
 5815POPC   C3B 6621  13.723   7.994   7.955
 5815POPC   C4B 6622  13.723   7.950   7.655
 5816POPC   NC3 6623  33.838  26.866   9.455
 5816POPC   PO4 6624  33.839  26.842   9.155
 5816POPC   GL1 6625  33.843  26.862   8.855
 5816POPC   GL2 6626  33.703  26.905   8.855
 5816POPC   C1A 6627  33.828  26.856   8.555
 5816POPC   D2A 6628  33.848  26.832   8.255
 5816POPC   C3A 6629  33.800  26.816   7.955
 5816POPC   C4A 6630  33.760  26.799   7.655
 5816POPC   C1B 6631  33.648  27.053   8.555
 5816POPC   C2B 6632  33.733  27.004   8.255
 5816POPC   C3B 6633  33.644  27.058   7.955
 5816POPC   C4B 6634  33.709  27.033   7.655
 5817POPC   NC3 6635  37.650  11.256   9.455
 5817POPC   PO4 6636  37.717  11.342   9.155
 5817POPC   GL1 6637  37.686  11.308   8.855
 5817POPC   GL2 6638  37.817  11.305   8.855
 5817POPC   C1A 6639  37.646  11.277   8.555
 5817POPC   D2A 6640  37.728  11.349   8.255
 5817POPC   C3A 6641  37.683  11.336   7.955
 5817POPC   C4A 6642  37.689  11.334   7.655
 5817POPC   C1B 6643  37.881  11.208   8.555
 5817POPC   C2B 6644  37.906  11.259   8.255
 5817POPC   C3B 6645  37.889  11.177   7.955
 5817POPC   C4B 6646  37.909  11.237   7.655
 5818POPC   NC3 6647  23.688  36.928   9.455
 5818POPC   PO4 6648  23.760  36.891   9.155
 5818POPC   GL1 6649  23.713  36.862   8.855
 5818POPC   GL2 6650  23.694  36.998   8.855
 5818POPC   C1A 6651  23.671  36.941   8.555
 5818POPC   D2A 6652  23.723  36.881   8.255
 5818POPC   C3A 6653  23.755  36.870   7.955
 5818POPC   C4A 6654  23.699  36.943   7.655
 5818POPC   C1B 6655  23.584  37.142   8.555
 5818POPC   C2B 6656  23.594  37.115   8.255
 5818POPC   C3B 6657  23.603  37.133   7.955
 5818POPC   C4B 6658  23.534  37.136   7.655
 5819POPC   NC3 6659  13.673  20.649   9.455
 5819POPC   PO4 6660  13.589  20.590   9.155
 5819POPC   GL1 6661  13.669  20.601   8.855
 5819POPC   GL2 6662  13.777  20.593   8.855
 5819POPC   C1A 6663  13.642  20.647   8.555
 5819POPC   D2A 6664  13.580  20.637   8.255
 5819POPC   C3A 6665  13.619  20.586   7.955
 5819POPC   C4A 6666  13.579  20.618   7.655
 5819POPC   C1B 6667  13.855  20.479   8.555
 5819POPC   C2B 6668  13.813  20.474   8.255
 5819POPC   C3B 6669  13.886  20.518   7.955
 5819POPC   C4B 6670  13.852  20.474   7.655
 5820POPC   NC3 6671  22.171   9.740   9.455
 5820POPC   PO4 6672  22.210   9.787   9.155
 5820POPC   GL1 6673  22.169   9.741   8.855
 5820POPC   GL2 6674  22.247   9.851   8.855
 5820POPC   C1A 6675  22.174   9.712   8.555
 5820POPC   D2A 6676  22.152   9.732   8.255
 5820POPC   C3A 6677  22.141   9.742   7.955
 5820POPC   C4A 6678  22.170   9.760   7.655
 5820POPC   C1B 6679  22.269  10.013   8.555
 5820POPC   C2B 6680  22.245   9.985   8.255
 5820POPC   C3B 6681  22.266   9.960   7.955
 5820POPC   C4B 6682  22.282  10.024   7.655
 5821POPC   NC3 6683  11.338  24.471   9.455
 5821POPC   PO4 6684  11.319  24.505   9.155
 5821POPC   GL1 6685  11.348  24.502   8.855
 5821POPC   GL2 6686  11.274  24.423   8.855
 5821POPC   C1A 6687  11.250  24.468   8.555
 5821POPC   D2A 6688  11.320  24.473   8.255
 5821POPC   C3A 6689  11.307  24.529   7.955
 5821POPC   C4A 6690  11.287  24.442   7.655
 5821POPC   C1B 6691  11.118  24.315   8.555
 5821POPC   C2B 6692  11.113  24.312   8.255
 5821POPC   C3B 6693  11.156  24.300   7.955
 5821POPC   C4B 6694  11.115  24.292   7.655
 5822POPC   NC3 6695  29.916  43.876   9.455
 5822POPC   PO4 6696  29.948  43.913   9.155
 5822POPC   GL1 6697  29.883  43.892   8.855
 5822POPC   GL2 6698  29.834  43.902   8.855
 5822POPC   C1A 6699  29.907  43.889   8.555
 5822POPC   D2A 6700  29.878  43.913   8.255
 5822POPC   C3A 6701  29.890  43.892   7.955
 5822POPC   C4A 6702  29.911  43.893   7.655
 5822POPC   C1B 6703  29.684  43.984   8.555
 5822POPC   C2B 6704  29.661  43.979   8.255
 5822POPC   C3B 6705  29.669  43.964   7.955
 5822POPC   C4B 6706  29.698  43.973   7.655
 5823POPC   NC3 6707  29.958   8.980   9.455
 5823POPC   PO4 6708  29.888   8.995   9.155
 5823POPC   GL1 6709  29.879   8.986   8.855
 5823POPC   GL2 6710  30.014   9.098   8.855
 5823POPC   C1A 6711  29.924   9.010   8.555
 5823POPC   D2A 6712  29.934   8.978   8.255
 5823POPC   C3A 6713  29.902   8.977   7.955
 5823POPC   C4A 6714  29.952   8.971   7.655
 5823POPC   C1B 6715  30.078   9.219   8.555
 5823POPC   C2B 6716  30.038   9.232   8.255
 5823POPC   C3B 6717  30.003   9.225   7.955
 5823POPC   C4B 6718  30.002   9.172   7.655
 5824POPC   NC3 6719  24.519  40.810   9.455
 5824POPC   PO4 6720  24.522  40.818   9.155
 5824POPC   GL1 6721  24.474  40.822   8.855
 5824POPC   GL2 6722  24.632  40.837   8.855
 5824POPC   C1A 6723  24.512  40.738   8.555
 5824POPC   D2A 6724  24.468  40.764   8.255
 5824POPC   C3A 6725  24.528  40.799   7.955
 5824POPC   C4A 6726  24.532  40.797   7.655
 5824POPC   C1B 6727  24.660  40.971   8.555
 5824POPC   C2B 6728  24.681  40.890   8.255
 5824POPC   C3B 6729  24.693  40.911   7.955
 5824POPC   C4B 6730  24.713  40.899   7.655
 5825POPC   NC3 6731  19.012  15.204   9.455
 5825POPC   PO4 6732  19.010  15.137   9.155
 5825POPC   GL1 6733  19.108  15.173   8.855
 5825POPC   GL2 6734  19.079  15.250   8.855
 5825POPC   C1A 6735  19.025  15.141   8.555
 5825POPC   D2A 6736  19.098  15.210   8.255
 5825POPC   C3A 6737  19.108  15.213   7.955
 5825POPC   C4A 6738  19.043  15.195   7.655
 5825POPC   C1B 6739  19.181  15.410   8.555
 5825POPC   C2B 6740  19.153  15.370   8.255
 5825POPC   C3B 6741  19.233  15.390   7.955
 5825POPC   C4B 6742  19.204  15.377   7.655
 5826POPC   NC3 6743  30.745  19.079   9.455
 5826POPC   PO4 6744  30.695  19.013   9.155
 5826POPC   GL1 6745  30.662  19.031   8.855
 5826POPC   GL2 6746  30.620  19.121   8.855
 5826POPC   C1A 6747  30.721  19.094   8.555
 5826POPC   D2A 6748  30.712  19.064   8.255
 5826POPC   C3A 6749  30.700  19.061   7.955
 5826POPC   C4A 6750  30.670  19.081   7.655
 5826POPC   C1B 6751  30.498  19.141   8.555
 5826POPC   C2B 6752  30.473  19.179   8.255
 5826POPC   C3B 6753  30.453  19.211   7.955
 5826POPC   C4B 6754  30.437  19.174   7.655
 5827POPC   NC3 6755  40.781  12.818   9.455
 5827POPC   PO4 6756  40.823  12.825   9.155
 5827POPC   GL1 6757  40.794  12.809   8.855
 5827POPC   GL2 6758  40.868  12.714   8.855
 5827POPC   C1A 6759  40.822  12.879   8.555
 5827POPC   D2A 6760  40.777  12.894   8.255
 5827POPC   C3A 6761  40.802  12.803   7.955
 5827POPC   C4A 6762  40.741  12.811   7.655
 5827POPC   C1B 6763  40.821  12.625   8.555
 5827POPC   C2B 6764  40.822  12.653   8.255
 5827POPC   C3B 6765  40.868  12.640   7.955
 5827POPC   C4B 6766  40.832  12.584   7.655
 5828POPC   NC3 6767  31.501  29.167   9.455
 5828POPC   PO4 6768  31.480  29.186   9.155
 5828POPC   GL1 6769  31.480  29.109   8.855
 5828POPC   GL2 6770  31.383  29.130   8.855
 5828POPC   C1A 6771  31.461  29.170   8.555
 5828POPC   D2A 6772  31.487  29.151   8.255
 5828POPC   C3A 6773  31.461  29.189   7.955
 5828POPC   C4A 6774  31.505  29.101   7.655
 5828POPC   C1B 6775  31.272  29.075   8.555
 5828POPC   C2B 6776  31.262  29.134   8.255
 5828POPC   C3B 6777  31.273  29.086   7.955
 5828POPC   C4B 6778  31.259  29.053   7.655
 5829POPC   NC3 6779   9.733  19.858   9.455
 5829POPC   PO4 6780   9.786  19.839   9.155
 5829POPC   GL1 6781   9.730  19.855   8.855
 5829POPC   GL2 6782   9.665  19.800   8.855
 5829POPC   C1A 6783   9.717  19.807   8.555
 5829POPC   D2A 6784   9.715  19.853   8.255
 5829POPC   C3A 6785   9.797  19.833   7.955
 5829POPC   C4A 6786   9.712  19.821   7.655
 5829POPC   C1B 6787   9.532  19.827   8.555
 5829POPC   C2B 6788   9.523  19.832   8.255
 5829POPC   C3B 6789   9.475  19.792   7.955
 5829POPC   C4B 6790   9.480  19.799   7.655
 5830POPC   NC3 6791  22.145  37.720   9.455
 5830POPC   PO4 6792  22.144  37.631   9.155
 5830POPC   GL1 6793  22.163  37.717   8.855
 5830POPC   GL2 6794  22.054  37.582   8.855
 5830POPC   C1A 6795  22.203  37.708   8.555
 5830POPC   D2A 6796  22.172  37.698   8.255
 5830POPC   C3A 6797  22.123  37.694   7.955
 5830POPC   C4A 6798  22.207  37.640   7.655
 5830POPC   C1B 6799  21.978  37.493   8.555
 5830POPC   C2B 6800  21.952  37.528   8.255
 5830POPC   C3B 6801  21.994  37.463   7.955
 5830POPC   C4B 6802  21.999  37.536   7.655
 5831POPC   NC3 6803  36.158  36.857   9.455
 5831POPC   PO4 6804  36.100  36.920   9.155
 5831POPC   GL1 6805  36.107  36.929   8.855
 5831POPC   GL2 6806  36.010  36.979   8.855
 5831POPC   C1A 6807  36.112  36.948   8.555
 5831POPC   D2A 6808  36.082  36.926   8.255
 5831POPC   C3A 6809  36.105  36.860   7.955
 5831POPC   C4A 6810  36.121  36.909   7.655
 5831POPC   C1B 6811  35.990  37.053   8.555
 5831POPC   C2B 6812  35.982  37.080   8.255
 5831POPC   C3B 6813  36.001  37.072   7.955
 5831POPC   C4B 6814  35.938  37.107   7.655
 5832POPC   NC3 6815  22.171  32.292   9.455
 5832POPC   PO4 6816  22.209  32.203   9.155
 5832POPC   GL1 6817  22.202  32.282   8.855
 5832POPC   GL2 6818  22.087  32.155   8.855
 5832POPC   C1A 6819  22.138  32.271   8.555
 5832POPC   D2A 6820  22.187  32.259   8.255
 5832POPC   C3A 6821  22.137  32.275   7.955
 5832POPC   C4A 6822  22.124  32.238   7.655
 5832POPC   C1B 6823  21.953  32.104   8.555
 5832POPC   C2B 6824  21.954  32.106   8.255
 5832POPC   C3B 6825  22.004  32.052   7.955
 5832POPC   C4B 6826  22.009  32.085   7.655
 5833POPC   NC3 6827   8.230  32.297   9.455
 5833POPC   PO4 6828   8.213  32.285   9.155
 5833POPC   GL1 6829   8.217  32.258   8.855
 5833POPC   GL2 6830   8.100  32.291   8.855
 5833POPC   C1A 6831   8.170  32.288   8.555
 5833POPC   D2A 6832   8.177  32.261   8.255
 5833POPC   C3A 6833   8.244  32.271   7.955
 5833POPC   C4A 6834   8.194  32.207   7.655
 5833POPC   C1B 6835   7.977  32.400   8.555
 5833POPC   C2B 6836   7.980  32.408   8.255
 5833POPC   C3B 6837   7.957  32.396   7.955
 5833POPC   C4B 6838   7.985  32.407   7.655
 5834POPC   NC3 6839  41.552   5.918   9.455
 5834POPC   PO4 6840  41.579   5.907   9.155
 5834POPC   GL1 6841  41.600   5.887   8.855
 5834POPC   GL2 6842  41.456   5.897   8.855
 5834POPC   C1A 6843  41.530   5.861   8.555
 5834POPC   D2A 6844  41.604   5.904   8.255
 5834POPC   C3A 6845  41.555   5.827   7.955
 5834POPC   C4A 6846  41.539   5.876   7.655
 5834POPC   C1B 6847  41.328   5.891   8.555
 5834POPC   C2B 6848  41.293   5.846   8.255
 5834POPC   C3B 6849  41.358   5.854   7.955
 5834POPC   C4B 6850  41.274   5.865   7.655
 5835POPC   NC3 6851  36.934  13.594   9.455
 5835POPC   PO4 6852  36.892  13.656   9.155
 5835POPC   GL1 6853  36.914  13.629   8.855
 5835POPC   GL2 6854  36.989  13.541   8.855
 5835POPC   C1A 6855  36.854  13.580   8.555
 5835POPC   D2A 6856  36.859  13.615   8.255
 5835POPC   C3A 6857  36.854  13.614   7.955
 5835POPC   C4A 6858  36.923  13.649   7.655
 5835POPC   C1B 6859  37.004  13.402   8.555
 5835POPC   C2B 6860  37.042  13.436   8.255
 5835POPC   C3B 6861  36.987  13.435   7.955
 5835POPC   C4B 6862  37.015  13.383   7.655
 5836POPC   NC3 6863  32.264  38.494   9.455
 5836POPC   PO4 6864  32.204  38.434   9.155
 5836POPC   GL1 6865  32.242  38.492   8.855
 5836POPC   GL2 6866  32.351  38.392   8.855
 5836POPC   C1A 6867  32.266  38.433   8.555
 5836POPC   D2A 6868  32.290  38.410   8.255
 5836POPC   C3A 6869  32.245  38.465   7.955
 5836POPC   C4A 6870  32.282  38.416   7.655
 5836POPC   C1B 6871  32.439  38.227   8.555
 5836POPC   C2B 6872  32.381  38.315   8.255
 5836POPC   C3B 6873  32.472  38.254   7.955
 5836POPC   C4B 6874  32.467  38.307   7.655
 5837POPC   NC3 6875  25.224  37.666   9.455
 5837POPC   PO4 6876  25.260  37.641   9.155
 5837POPC   GL1 6877  25.264  37.708   8.855
 5837POPC   GL2 6878  25.325  37.604   8.855
 5837POPC   C1A 6879  25.243  37.703   8.555
 5837POPC   D2A 6880  25.240  37.716   8.255
 5837POPC   C3A 6881  25.294  37.657   7.955
 5837POPC   C4A 6882  25.302  37.705   7.655
 5837POPC   C1B 6883  25.333  37.481   8.555
 5837POPC   C2B 6884  25.344  37.449   8.255
 5837POPC   C3B 6885  25.365  37.462   7.955
 5837POPC   C4B 6886  25.310  37.410   7.655
 5838POPC   NC3 6887   2.788  36.881   9.455
 5838POPC   PO4 6888   2.768  36.866   9.155
 5838POPC   GL1 6889   2.762  36.873   8.855
 5838POPC   GL2 6890   2.626  36.804   8.855
 5838POPC   C1A 6891   2.808  36.857   8.555
 5838POPC   D2A 6892   2.811  36.900   8.255
 5838POPC   C3A 6893   2.804  36.931   7.955
 5838POPC   C4A 6894   2.794  36.946   7.655
 5838POPC   C1B 6895   2.544  36.802   8.555
 5838POPC   C2B 6896   2.542  36.710   8.255
 5838POPC   C3B 6897   2.599  36.728   7.955
 5838POPC   C4B 6898   2.610  36.768   7.655
 5839POPC   NC3 6899   0.389  28.373   9.455
 5839POPC   PO4 6900   0.486  28.371   9.155
 5839POPC   GL1 6901   0.388  28.336   8.855
 5839POPC   GL2 6902   0.392  28.273   8.855
 5839POPC   C1A 6903   0.486  28.387   8.555
 5839POPC   D2A 6904   0.464  28.321   8.255
 5839POPC   C3A 6905   0.480  28.328   7.955
 5839POPC   C4A 6906   0.448  28.342   7.655
 5839POPC   C1B 6907   0.277  28.201   8.555
 5839POPC   C2B 6908   0.345  28.199   8.255
 5839POPC   C3B 6909   0.304  28.137   7.955
 5839POPC   C4B 6910   0.294  28.176   7.655
 5840POPC   NC3 6911  35.352  23.682   9.455
 5840POPC   PO4 6912  35.333  23.709   9.155
 5840POPC   GL1 6913  35.374  23.729   8.855
 5840POPC   GL2 6914  35.431  23.749   8.855
 5840POPC   C1A 6915  35.397  23.704   8.555
 5840POPC   D2A 6916  35.359  23.716   8.255
 5840POPC   C3A 6917  35.394  23.678   7.955
 5840POPC   C4A 6918  35.318  23.673   7.655
 5840POPC   C1B 6919  35.560  23.737   8.555
 5840POPC   C2B 6920  35.593  23.765   8.255
 5840POPC   C3B 6921  35.588  23.801   7.955
 5840POPC   C4B 6922  35.610  23.756   7.655
 5841POPC   NC3 6923  26.077  12.854   9.455
 5841POPC   PO4 6924  26.029  12.811   9.155
 5841POPC   GL1 6925  26.005  12.823   8.855
 5841POPC   GL2 6926  25.951  12.830   8.855
 5841POPC   C1A 6927  26.050  12.896   8.555
 5841POPC   D2A 6928  26.072  12.891   8.255
 5841POPC   C3A 6929  26.008  12.864   7.955
 5841POPC   C4A 6930  26.061  12.812   7.655
 5841POPC   C1B 6931  25.787  12.703   8.555
 5841POPC   C2B 6932  25.779  12.774   8.255
 5841POPC   C3B 6933  25.864  12.729   7.955
 5841POPC   C4B 6934  25.838  12.723   7.655
 5842POPC   NC3 6935  21.435  30.666   9.455
 5842POPC   PO4 6936  21.372  30.688   9.155
 5842POPC   GL1 6937  21.347  30.728   8.855
 5842POPC   GL2 6938  21.316  30.831   8.855
 5842POPC   C1A 6939  21.428  30.706   8.555
 5842POPC   D2A 6940  21.401  30.698   8.255
 5842POPC   C3A 6941  21.432  30.714   7.955
 5842POPC   C4A 6942  21.372  30.734   7.655
 5842POPC   C1B 6943  21.225  30.862   8.555
 5842POPC   C2B 6944  21.238  30.921   8.255
 5842POPC   C3B 6945  21.249  30.937   7.955
 5842POPC   C4B 6946  21.286  30.875   7.655
 5843POPC   NC3 6947  13.644  22.192   9.455
 5843POPC   PO4 6948  13.599  22.208   9.155
 5843POPC   GL1 6949  13.663  22.140   8.855
 5843POPC   GL2 6950  13.550  22.191   8.855
 5843POPC   C1A 6951  13.642  22.201   8.555
 5843POPC   D2A 6952  13.608  22.185   8.255
 5843POPC   C3A 6953  13.652  22.132   7.955
 5843POPC   C4A 6954  13.636  22.137   7.655
 5843POPC   C1B 6955  13.384  22.188   8.555
 5843POPC   C2B 6956  13.416  22.168   8.255
 5843POPC   C3B 6957  13.427  22.192   7.955
 5843POPC   C4B 6958  13.345  22.130   7.655
 5844POPC   NC3 6959   5.134  13.598   9.455
 5844POPC   PO4 6960   5.054  13.601   9.155
 5844POPC   GL1 6961   5.087  13.594   8.855
 5844POPC   GL2 6962   5.069  13.789   8.855
 5844POPC   C1A 6963   5.101  13.615   8.555
 5844POPC   D2A 6964   5.123  13.637   8.255
 5844POPC   C3A 6965   5.101  13.644   7.955
 5844POPC   C4A 6966   5.060  13.622   7.655
 5844POPC   C1B 6967   5.110  13.920   8.555
 5844POPC   C2B 6968   5.169  13.875   8.255
 5844POPC   C3B 6969   5.109  13.908   7.955
 5844POPC   C4B 6970   5.121  13.829   7.655
 5845POPC   NC3 6971  25.281  40.759   9.455
 5845POPC   PO4 6972  25.236  40.790   9.155
 5845POPC   GL1 6973  25.261  40.776   8.855
 5845POPC   GL2 6974  25.317  40.901   8.855
 5845POPC   C1A 6975  25.269  40.761   8.555
 5845POPC   D2A 6976  25.255  40.773   8.255
 5845POPC   C3A 6977  25.286  40.782   7.955
 5845POPC   C4A 6978  25.296  40.795   7.655
 5845POPC   C1B 6979  25.383  41.020   8.555
 5845POPC   C2B 6980  25.467  40.932   8.255
 5845POPC   C3B 6981  25.408  41.006   7.955
 5845POPC   C4B 6982  25.424  40.953   7.655
 5846POPC   NC3 6983  29.130  22.132   9.455
 5846POPC   PO4 6984  29.109  22.162   9.155
 5846POPC   GL1 6985  29.129  22.196   8.855
 5846POPC   GL2 6986  29.003  22.241   8.855
 5846POPC   C1A 6987  29.096  22.171   8.555
 5846POPC   D2A 6988  29.184  22.142   8.255
 5846POPC   C3A 6989  29.104  22.193   7.955
 5846POPC   C4A 6990  29.103  22.130   7.655
 5846POPC   C1B 6991  28.923  22.260   8.555
 5846POPC   C2B 6992  28.925  22.240   8.255
 5846POPC   C3B 6993  28.889  22.238   7.955
 5846POPC   C4B 6994  28.878  22.305   7.655
 5847POPC   NC3 6995  44.678  21.374   9.455
 5847POPC   PO4 6996  44.655  21.433   9.155
 5847POPC   GL1 6997  44.665  21.391   8.855
 5847POPC   GL2 6998  44.584  21.357   8.855
 5847POPC   C1A 6999  44.616  21.424   8.555
 5847POPC   D2A 7000  44.666  21.357   8.255
 5847POPC   C3A 7001  44.645  21.355   7.955
 5847POPC   C4A 7002  44.708  21.374   7.655
 5847POPC   C1B 7003  44.381  21.330   8.555
 5847POPC   C2B 7004  44.445  21.382   8.255
 5847POPC   C3B 7005  44.402  21.334   7.955
 5847POPC   C4B 7006  44.394  21.308   7.655
 5848POPC   NC3 7007  34.621  17.498   9.455
 5848POPC   PO4 7008  34.625  17.533   9.155
 5848POPC   GL1 7009  34.589  17.513   8.855
 5848POPC   GL2 7010  34.476  17.583   8.855
 5848POPC   C1A 7011  34.550  17.539   8.555
 5848POPC   D2A 7012  34.549  17.533   8.255
 5848POPC   C3A 7013  34.526  17.477   7.955
 5848POPC   C4A 7014  34.600  17.538   7.655
 5848POPC   C1B 7015  34.403  17.744   8.555
 5848POPC   C2B 7016  34.461  17.744   8.255
 5848POPC   C3B 7017  34.409  17.694   7.955
 5848POPC   C4B 7018  34.491  17.751   7.655
 5849POPC   NC3 7019  28.362  20.634   9.455
 5849POPC   PO4 7020  28.400  20.635   9.155
 5849POPC   GL1 7021  28.384  20.653   8.855
 5849POPC   GL2 7022  28.303  20.656   8.855
 5849POPC   C1A 7023  28.386  20.624   8.555
 5849POPC   D2A 7024  28.411  20.654   8.255
 5849POPC   C3A 7025  28.354  20.640   7.955
 5849POPC   C4A 7026  28.403  20.625   7.655
 5849POPC   C1B 7027  28.156  20.743   8.555
 5849POPC   C2B 7028  28.164  20.716   8.255
 5849POPC   C3B 7029  28.155  20.769   7.955
 5849POPC   C4B 7030  28.122  20.712   7.655
 5850POPC   NC3 7031  40.003  20.602   9.455
 5850POPC   PO4 7032  40.043  20.591   9.155
 5850POPC   GL1 7033  39.963  20.605   8.855
 5850POPC   GL2 7034  39.900  20.534   8.855
 5850POPC   C1A 7035  39.982  20.582   8.555
 5850POPC   D2A 7036  40.043  20.611   8.255
 5850POPC   C3A 7037  39.969  20.599   7.955
 5850POPC   C4A 7038  39.998  20.637   7.655
 5850POPC   C1B 7039  39.832  20.424   8.555
 5850POPC   C2B 7040  39.822  20.474   8.255
 5850POPC   C3B 7041  39.801  20.454   7.955
 5850POPC   C4B 7042  39.813  20.439   7.655
 5851POPC   NC3 7043  13.590  16.687   9.455
 5851POPC   PO4 7044  13.592  16.746   9.155
 5851POPC   GL1 7045  13.612  16.777   8.855
 5851POPC   GL2 7046  13.531  16.706   8.855
 5851POPC   C1A 7047  13.594  16.753   8.555
 5851POPC   D2A 7048  13.586  16.730   8.255
 5851POPC   C3A 7049  13.637  16.731   7.955
 5851POPC   C4A 7050  13.606  16.773   7.655
 5851POPC   C1B 7051  13.416  16.730   8.555
 5851POPC   C2B 7052  13.336  16.756   8.255
 5851POPC   C3B 7053  13.377  16.687   7.955
 5851POPC   C4B 7054  13.363  16.679   7.655
 5852POPC   NC3 7055  40.747  38.436   9.455
 5852POPC   PO4 7056  40.766  38.502   9.155
 5852POPC   GL1 7057  40.792  38.463   8.855
 5852POPC   GL2 7058  40.802  38.591   8.855
 5852POPC   C1A 7059  40.770  38.484   8.555
 5852POPC   D2A 7060  40.826  38.431   8.255
 5852POPC   C3A 7061  40.799  38.410   7.955
 5852POPC   C4A 7062  40.750  38.425   7.655
 5852POPC   C1B 7063  40.874  38.685   8.555
 5852POPC   C2B 7064  40.900  38.654   8.255
 5852POPC   C3B 7065  40.878  38.653   7.955
 5852POPC   C4B 7066  40.823  38.674   7.655
 5853POPC   NC3 7067  19.826  29.947   9.455
 5853POPC   PO4 7068  19.855  29.932   9.155
 5853POPC   GL1 7069  19.807  29.904   8.855
 5853POPC   GL2 7070  19.927  29.917   8.855
 5853POPC   C1A 7071  19.831  29.927   8.555
 5853POPC   D2A 7072  19.790  29.917   8.255
 5853POPC   C3A 7073  19.867  29.947   7.955
 5853POPC   C4A 7074  19.882  29.914   7.655
 5853POPC   C1B 7075  20.092  29.981   8.555
 5853POPC   C2B 7076  20.048  30.009   8.255
 5853POPC   C3B 7077  20.036  29.982   7.955
 5853POPC   C4B 7078  20.115  29.933   7.655
 5854POPC   NC3 7079  12.026  41.534   9.455
 5854POPC   PO4 7080  12.090  41.535   9.155
 5854POPC   GL1 7081  12.080  41.585   8.855
 5854POPC   GL2 7082  12.202  41.556   8.855
 5854POPC   C1A 7083  12.091  41.549   8.555
 5854POPC   D2A 7084  12.123  41.567   8.255
 5854POPC   C3A 7085  12.124  41.564   7.955
 5854POPC   C4A 7086  12.062  41.581   7.655
 5854POPC   C1B 7087  12.361  41.583   8.555
 5854POPC   C2B 7088  12.326  41.521   8.255
 5854POPC   C3B 7089  12.309  41.516   7.955
 5854POPC   C4B 7090  12.348  41.575   7.655
 5855POPC   NC3 7091  38.491  27.575   9.455
 5855POPC   PO4 7092  38.483  27.544   9.155
 5855POPC   GL1 7093  38.488  27.604   8.855
 5855POPC   GL2 7094  38.559  27.463   8.855
 5855POPC   C1A 7095  38.429  27.622   8.555
 5855POPC   D2A 7096  38.500  27.624   8.255
 5855POPC   C3A 7097  38.425  27.578   7.955
 5855POPC   C4A 7098  38.461  27.583   7.655
 5855POPC   C1B 7099  38.600  27.467   8.555
 5855POPC   C2B 7100  38.665  27.474   8.255
 5855POPC   C3B 7101  38.674  27.399   7.955
 5855POPC   C4B 7102  38.681  27.454   7.655
 5856POPC   NC3 7103  29.915  23.702   9.455
 5856POPC   PO4 7104  29.965  23.678   9.155
 5856POPC   GL1 7105  29.950  23.749   8.855
 5856POPC   GL2 7106  29.911  23.629   8.855
 5856POPC   C1A 7107  29.934  23.724   8.555
 5856POPC   D2A 7108  29.961  23.678   8.255
 5856POPC   C3A 7109  29.922  23.673   7.955
 5856POPC   C4A 7110  29.938  23.720   7.655
 5856POPC   C1B 7111  29.786  23.490   8.555
 5856POPC   C2B 7112  29.777  23.440   8.255
 5856POPC   C3B 7113  29.831  23.496   7.955
 5856POPC   C4B 7114  29.842  23.531   7.655
 5857POPC   NC3 7115   0.420  42.332   9.455
 5857POPC   PO4 7116   0.424  42.305   9.155
 5857POPC   GL1 7117   0.425  42.325   8.855
 5857POPC   GL2 7118   0.379  42.214   8.855
 5857POPC   C1A 7119   0.409  42.377   8.555
 5857POPC   D2A 7120   0.396  42.293   8.255
 5857POPC   C3A 7121   0.392  42.342   7.955
 5857POPC   C4A 7122   0.484  42.345   7.655
 5857POPC   C1B 7123   0.330  42.064   8.555
 5857POPC   C2B 7124   0.358  42.097   8.255
 5857POPC   C3B 7125   0.301  42.110   7.955
 5857POPC   C4B 7126   0.340  42.089   7.655
 5858POPC   NC3 7127  21.424  12.070   9.455
 5858POPC   PO4 7128  21.378  12.055   9.155
 5858POPC   GL1 7129  21.388  12.050   8.855
 5858POPC   GL2 7130  21.519  12.075   8.855
 5858POPC   C1A 7131  21.434  12.061   8.555
 5858POPC   D2A 7132  21.367  12.062   8.255
 5858POPC   C3A 7133  21.416  12.031   7.955
 5858POPC   C4A 7134  21.379  12.117   7.655
 5858POPC   C1B 7135  21.590  12.083   8.555
 5858POPC   C2B 7136  21.598  12.080   8.255
 5858POPC   C3B 7137  21.667  12.052   7.955
 5858POPC   C4B 7138  21.636  12.089   7.655
 5859POPC   NC3 7139   0.448   4.342   9.455
 5859POPC   PO4 7140   0.467   4.331   9.155
 5859POPC   GL1 7141   0.461   4.284   8.855
 5859POPC   GL2 7142   0.522   4.225   8.855
 5859POPC   C1A 7143   0.465   4.332   8.555
 5859POPC   D2A 7144   0.405   4.355   8.255
 5859POPC   C3A 7145   0.402   4.283   7.955
 5859POPC   C4A 7146   0.423   4.282   7.655
 5859POPC   C1B 7147   0.716   4.244   8.555
 5859POPC   C2B 7148   0.625   4.239   8.255
 5859POPC   C3B 7149   0.673   4.237   7.955
 5859POPC   C4B 7150   0.643   4.189   7.655
 5860POPC   NC3 7151   5.046  11.322   9.455
 5860POPC   PO4 7152   5.081  11.279   9.155
 5860POPC   GL1 7153   5.083  11.278   8.855
 5860POPC   GL2 7154   5.231  11.310   8.855
 5860POPC   C1A 7155   5.060  11.343   8.555
 5860POPC   D2A 7156   5.114  11.337   8.255
 5860POPC   C3A 7157   5.090  11.277   7.955
 5860POPC   C4A 7158   5.069  11.289   7.655
 5860POPC   C1B 7159   5.385  11.319   8.555
 5860POPC   C2B 7160   5.389  11.297   8.255
 5860POPC   C3B 7161   5.326  11.300   7.955
 5860POPC   C4B 7162   5.294  11.276   7.655
 5861POPC   NC3 7163  31.429   1.215   9.455
 5861POPC   PO4 7164  31.483   1.174   9.155
 5861POPC   GL1 7165  31.464   1.222   8.855
 5861POPC   GL2 7166  31.409   1.120   8.855
 5861POPC   C1A 7167  31.463   1.250   8.555
 5861POPC   D2A 7168  31.436   1.171   8.255
 5861POPC   C3A 7169  31.515   1.242   7.955
 5861POPC   C4A 7170  31.522   1.249   7.655
 5861POPC   C1B 7171  31.305   1.032   8.555
 5861POPC   C2B 7172  31.304   1.075   8.255
 5861POPC   C3B 7173  31.286   1.073   7.955
 5861POPC   C4B 7174  31.284   1.014   7.655
 5862POPC   NC3 7175   1.944  43.936   9.455
 5862POPC   PO4 7176   1.985  43.859   9.155
 5862POPC   GL1 7177   1.985  43.903   8.855
 5862POPC   GL2 7178   2.110  43.947   8.855
 5862POPC   C1A 7179   1.965  43.889   8.555
 5862POPC   D2A 7180   2.027  43.930   8.255
 5862POPC   C3A 7181   1.985  43.929   7.955
 5862POPC   C4A 7182   1.977  43.891   7.655
 5862POPC   C1B 7183   2.176  44.069   8.555
 5862POPC   C2B 7184   2.150  44.061   8.255
 5862POPC   C3B 7185   2.220  44.070   7.955
 5862POPC   C4B 7186   2.226  44.020   7.655
 5863POPC   NC3 7187  12.883  22.900   9.455
 5863POPC   PO4 7188  12.897  22.924   9.155
 5863POPC   GL1 7189  12.822  22.961   8.855
 5863POPC   GL2 7190  12.945  22.922   8.855
 5863POPC   C1A 7191  12.804  22.979   8.555
 5863POPC   D2A 7192  12.873  22.921   8.255
 5863POPC   C3A 7193  12.898  22.920   7.955
 5863POPC   C4A 7194  12.889  22.926   7.655
 5863POPC   C1B 7195  13.088  22.881   8.555
 5863POPC   C2B 7196  13.078  22.913   8.255
 5863POPC   C3B 7197  13.084  22.830   7.955
 5863POPC   C4B 7198  13.087  22.892   7.655
 5864POPC   NC3 7199  41.607  30.662   9.455
 5864POPC   PO4 7200  41.511  30.710   9.155
 5864POPC   GL1 7201  41.551  30.678   8.855
 5864POPC   GL2 7202  41.631  30.638   8.855
 5864POPC   C1A 7203  41.558  30.662   8.555
 5864POPC   D2A 7204  41.526  30.730   8.255
 5864POPC   C3A 7205  41.573  30.743   7.955
 5864POPC   C4A 7206  41.584  30.670   7.655
 5864POPC   C1B 7207  41.824  30.637   8.555
 5864POPC   C2B 7208  41.845  30.673   8.255
 5864POPC   C3B 7209  41.773  30.639   7.955
 5864POPC   C4B 7210  41.823  30.589   7.655
 5865POPC   NC3 7211   8.176  39.993   9.455
 5865POPC   PO4 7212   8.184  39.998   9.155
 5865POPC   GL1 7213   8.215  40.017   8.855
 5865POPC   GL2 7214   8.183  39.857   8.855
 5865POPC   C1A 7215   8.157  39.965   8.555
 5865POPC   D2A 7216   8.239  40.019   8.255
 5865POPC   C3A 7217   8.157  40.024   7.955
 5865POPC   C4A 7218   8.238  39.978   7.655
 5865POPC   C1B 7219   8.127  39.792   8.555
 5865POPC   C2B 7220   8.113  39.739   8.255
 5865POPC   C3B 7221   8.136  39.762   7.955
 5865POPC   C4B 7222   8.086  39.808   7.655
 5866POPC   NC3 7223  33.783  31.435   9.455
 5866POPC   PO4 7224  33.799  31.498   9.155
 5866POPC   GL1 7225  33.764  31.471   8.855
 5866POPC   GL2 7226  33.860  31.571   8.855
 5866POPC   C1A 7227  33.839  31.475   8.555
 5866POPC   D2A 7228  33.802  31.439   8.255
 5866POPC   C3A 7229  33.804  31.503   7.955
 5866POPC   C4A 7230  33.814  31.483   7.655
 5866POPC   C1B 7231  33.947  31.613   8.555
 5866POPC   C2B 7232  33.991  31.648   8.255
 5866POPC   C3B 7233  33.976  31.629   7.955
 5866POPC   C4B 7234  33.943  31.651   7.655
 5867POPC   NC3 7235  12.046  43.105   9.455
 5867POPC   PO4 7236  12.086  43.063   9.155
 5867POPC   GL1 7237  12.123  43.149   8.855
 5867POPC   GL2 7238  12.071  43.183   8.855
 5867POPC   C1A 7239  12.080  43.132   8.555
 5867POPC   D2A 7240  12.054  43.130   8.255
 5867POPC   C3A 7241  12.072  43.086   7.955
 5867POPC   C4A 7242  12.086  43.103   7.655
 5867POPC   C1B 7243  11.977  43.390   8.555
 5867POPC   C2B 7244  12.055  43.332   8.255
 5867POPC   C3B 7245  12.054  43.379   7.955
 5867POPC   C4B 7246  12.046  43.324   7.655
 5868POPC   NC3 7247  42.298   3.576   9.455
 5868POPC   PO4 7248  42.369   3.587   9.155
 5868POPC   GL1 7249  42.354   3.567   8.855
 5868POPC   GL2 7250  42.279   3.426   8.855
 5868POPC   C1A 7251  42.318   3.562   8.555
 5868POPC   D2A 7252  42.360   3.556   8.255
 5868POPC   C3A 7253  42.348   3.499   7.955
 5868POPC   C4A 7254  42.359   3.563   7.655
 5868POPC   C1B 7255  42.185   3.339   8.555
 5868POPC   C2B 7256  42.173   3.366   8.255
 5868POPC   C3B 7257  42.198   3.334   7.955
 5868POPC   C4B 7258  42.194   3.304   7.655
 5869POPC   NC3 7259  21.393  16.767   9.455
 5869POPC   PO4 7260  21.424  16.741   9.155
 5869POPC   GL1 7261  21.368  16.743   8.855
 5869POPC   GL2 7262  21.503  16.790   8.855
 5869POPC   C1A 7263  21.403  16.728   8.555
 5869POPC   D2A 7264  21.408  16.706   8.255
 5869POPC   C3A 7265  21.351  16.704   7.955
 5869POPC   C4A 7266  21.425  16.768   7.655
 5869POPC   C1B 7267  21.664  16.860   8.555
 5869POPC   C2B 7268  21.665  16.849   8.255
 5869POPC   C3B 7269  21.642  16.860   7.955
 5869POPC   C4B 7270  21.589  16.839   7.655
 5870POPC   NC3 7271   2.767  12.852   9.455
 5870POPC   PO4 7272   2.770  12.863   9.155
 5870POPC   GL1 7273   2.782  12.841   8.855
 5870POPC   GL2 7274   2.687  12.830   8.855
 5870POPC   C1A 7275   2.749  12.807   8.555
 5870POPC   D2A 7276   2.780  12.834   8.255
 5870POPC   C3A 7277   2.735  12.899   7.955
 5870POPC   C4A 7278   2.789  12.889   7.655
 5870POPC   C1B 7279   2.528  12.737   8.555
 5870POPC   C2B 7280   2.515  12.701   8.255
 5870POPC   C3B 7281   2.582  12.682   7.955
 5870POPC   C4B 7282   2.591  12.770   7.655
 5871POPC   NC3 7283   4.339   0.456   9.455
 5871POPC   PO4 7284   4.280   0.399   9.155
 5871POPC   GL1 7285   4.339   0.453   8.855
 5871POPC   GL2 7286   4.334   0.555   8.855
 5871POPC   C1A 7287   4.292   0.410   8.555
 5871POPC   D2A 7288   4.268   0.461   8.255
 5871POPC   C3A 7289   4.292   0.428   7.955
 5871POPC   C4A 7290   4.279   0.457   7.655
 5871POPC   C1B 7291   4.320   0.668   8.555
 5871POPC   C2B 7292   4.266   0.723   8.255
 5871POPC   C3B 7293   4.336   0.729   7.955
 5871POPC   C4B 7294   4.312   0.734   7.655
 5872POPC   NC3 7295   8.957  37.639   9.455
 5872POPC   PO4 7296   8.923  37.711   9.155
 5872POPC   GL1 7297   8.934  37.728   8.855
 5872POPC   GL2 7298   9.054  37.768   8.855
 5872POPC   C1A 7299   8.974  37.729   8.555
 5872POPC   D2A 7300   8.972  37.641   8.255
 5872POPC   C3A 7301   8.937  37.715   7.955
 5872POPC   C4A 7302   8.926  37.709   7.655
 5872POPC   C1B 7303   9.097  37.848   8.555
 5872POPC   C2B 7304   9.068  37.908   8.255
 5872POPC   C3B 7305   9.151  37.916   7.955
 5872POPC   C4B 7306   9.070  37.875   7.655
 5873POPC   NC3 7307  18.239   3.582   9.455
 5873POPC   PO4 7308  18.302   3.542   9.155
 5873POPC   GL1 7309  18.268   3.587   8.855
 5873POPC   GL2 7310  18.263   3.605   8.855
 5873POPC   C1A 7311  18.298   3.572   8.555
 5873POPC   D2A 7312  18.283   3.586   8.255
 5873POPC   C3A 7313  18.246   3.553   7.955
 5873POPC   C4A 7314  18.330   3.588   7.655
 5873POPC   C1B 7315  18.173   3.767   8.555
 5873POPC   C2B 7316  18.127   3.750   8.255
 5873POPC   C3B 7317  18.139   3.797   7.955
 5873POPC   C4B 7318  18.122   3.786   7.655
 5874POPC   NC3 7319  42.315  21.379   9.455
 5874POPC   PO4 7320  42.316  21.428   9.155
 5874POPC   GL1 7321  42.294  21.341   8.855
 5874POPC   GL2 7322  42.299  21.255   8.855
 5874POPC   C1A 7323  42.321  21.383   8.555
 5874POPC   D2A 7324  42.288  21.350   8.255
 5874POPC   C3A 7325  42.335  21.359   7.955
 5874POPC   C4A 7326  42.380  21.369   7.655
 5874POPC   C1B 7327  42.340  21.183   8.555
 5874POPC   C2B 7328  42.312  21.162   8.255
 5874POPC   C3B 7329  42.373  21.103   7.955
 5874POPC   C4B 7330  42.316  21.121   7.655
 5875POPC   NC3 7331  25.994  20.634   9.455
 5875POPC   PO4 7332  26.059  20.566   9.155
 5875POPC   GL1 7333  26.019  20.593   8.855
 5875POPC   GL2 7334  25.945  20.592   8.855
 5875POPC   C1A 7335  26.046  20.616   8.555
 5875POPC   D2A 7336  26.032  20.596   8.255
 5875POPC   C3A 7337  26.000  20.580   7.955
 5875POPC   C4A 7338  26.059  20.582   7.655
 5875POPC   C1B 7339  25.769  20.612   8.555
 5875POPC   C2B 7340  25.769  20.627   8.255
 5875POPC   C3B 7341  25.760  20.619   7.955
 5875POPC   C4B 7342  25.794  20.556   7.655
 5876POPC   NC3 7343   0.388   3.566   9.455
 5876POPC   PO4 7344   0.444   3.553   9.155
 5876POPC   GL1 7345   0.441   3.522   8.855
 5876POPC   GL2 7346   0.531   3.577   8.855
 5876POPC   C1A 7347   0.391   3.575   8.555
 5876POPC   D2A 7348   0.411   3.590   8.255
 5876POPC   C3A 7349   0.439   3.562   7.955
 5876POPC   C4A 7350   0.475   3.569   7.655
 5876POPC   C1B 7351   0.665   3.691   8.555
 5876POPC   C2B 7352   0.662   3.704   8.255
 5876POPC   C3B 7353   0.581   3.750   7.955
 5876POPC   C4B 7354   0.636   3.696   7.655
 5877POPC   NC3 7355  30.647   6.616   9.455
 5877POPC   PO4 7356  30.690   6.622   9.155
 5877POPC   GL1 7357  30.657   6.666   8.855
 5877POPC   GL2 7358  30.698   6.748   8.855
 5877POPC   C1A 7359  30.673   6.656   8.555
 5877POPC   D2A 7360  30.648   6.654   8.255
 5877POPC   C3A 7361  30.725   6.644   7.955
 5877POPC   C4A 7362  30.714   6.654   7.655
 5877POPC   C1B 7363  30.600   6.877   8.555
 5877POPC   C2B 7364  30.614   6.877   8.255
 5877POPC   C3B 7365  30.633   6.903   7.955
 5877POPC   C4B 7366  30.601   6.836   7.655
 5878POPC   NC3 7367  43.103   8.988   9.455
 5878POPC   PO4 7368  43.079   8.997   9.155
 5878POPC   GL1 7369  43.070   9.000   8.855
 5878POPC   GL2 7370  43.237   8.948   8.855
 5878POPC   C1A 7371  43.091   9.009   8.555
 5878POPC   D2A 7372  43.079   8.971   8.255
 5878POPC   C3A 7373  43.081   8.940   7.955
 5878POPC   C4A 7374  43.094   9.017   7.655
 5878POPC   C1B 7375  43.390   8.873   8.555
 5878POPC   C2B 7376  43.384   8.871   8.255
 5878POPC   C3B 7377  43.315   8.926   7.955
 5878POPC   C4B 7378  43.315   8.854   7.655
 5879POPC   NC3 7379  22.918  38.437   9.455
 5879POPC   PO4 7380  22.912  38.500   9.155
 5879POPC   GL1 7381  22.954  38.421   8.855
 5879POPC   GL2 7382  22.860  38.487   8.855
 5879POPC   C1A 7383  22.909  38.458   8.555
 5879POPC   D2A 7384  22.924  38.474   8.255
 5879POPC   C3A 7385  22.966  38.488   7.955
 5879POPC   C4A 7386  22.955  38.479   7.655
 5879POPC   C1B 7387  22.720  38.545   8.555
 5879POPC   C2B 7388  22.666  38.561   8.255
 5879POPC   C3B 7389  22.691  38.494   7.955
 5879POPC   C4B 7390  22.672  38.526   7.655
 5880POPC   NC3 7391  39.239   6.595   9.455
 5880POPC   PO4 7392  39.212   6.614   9.155
 5880POPC   GL1 7393  39.254   6.623   8.855
 5880POPC   GL2 7394  39.181   6.818   8.855
 5880POPC   C1A 7395  39.184   6.642   8.555
 5880POPC   D2A 7396  39.257   6.668   8.255
 5880POPC   C3A 7397  39.192   6.672   7.955
 5880POPC   C4A 7398  39.273   6.624   7.655
 5880POPC   C1B 7399  39.222   6.926   8.555
 5880POPC   C2B 7400  39.247   6.891   8.255
 5880POPC   C3B 7401  39.225   6.890   7.955
 5880POPC   C4B 7402  39.265   6.885   7.655
 5881POPC   NC3 7403  39.964  12.805   9.455
 5881POPC   PO4 7404  39.991  12.879   9.155
 5881POPC   GL1 7405  39.978  12.822   8.855
 5881POPC   GL2 7406  40.161  12.825   8.855
 5881POPC   C1A 7407  40.050  12.865   8.555
 5881POPC   D2A 7408  39.991  12.850   8.255
 5881POPC   C3A 7409  40.056  12.819   7.955
 5881POPC   C4A 7410  40.011  12.825   7.655
 5881POPC   C1B 7411  40.274  12.796   8.555
 5881POPC   C2B 7412  40.281  12.783   8.255
 5881POPC   C3B 7413  40.235  12.784   7.955
 5881POPC   C4B 7414  40.199  12.773   7.655
 5882POPC   NC3 7415  26.867  42.305   9.455
 5882POPC   PO4 7416  26.776  42.355   9.155
 5882POPC   GL1 7417  26.854  42.373   8.855
 5882POPC   GL2 7418  26.712  42.384   8.855
 5882POPC   C1A 7419  26.823  42.352   8.555
 5882POPC   D2A 7420  26.795  42.360   8.255
 5882POPC   C3A 7421  26.807  42.382   7.955
 5882POPC   C4A 7422  26.792  42.367   7.655
 5882POPC   C1B 7423  26.564  42.337   8.555
 5882POPC   C2B 7424  26.529  42.360   8.255
 5882POPC   C3B 7425  26.569  42.315   7.955
 5882POPC   C4B 7426  26.568  42.331   7.655
 5883POPC   NC3 7427  27.551  44.664   9.455
 5883POPC   PO4 7428  27.598  44.679   9.155
 5883POPC   GL1 7429  27.553  44.627   8.855
 5883POPC   GL2 7430  27.514  44.659   8.855
 5883POPC   C1A 7431  27.614  44.672   8.555
 5883POPC   D2A 7432  27.577  44.659   8.255
 5883POPC   C3A 7433  27.606  44.675   7.955
 5883POPC   C4A 7434  27.609  44.614   7.655
 5883POPC   C1B 7435  27.372  44.701   8.555
 5883POPC   C2B 7436  27.332  44.739   8.255
 5883POPC   C3B 7437  27.362  44.726   7.955
 5883POPC   C4B 7438  27.324  44.729   7.655
 5884POPC   NC3 7439   9.738  29.925   9.455
 5884POPC   PO4 7440   9.721  29.942   9.155
 5884POPC   GL1 7441   9.767  29.900   8.855
 5884POPC   GL2 7442   9.773  29.843   8.855
 5884POPC   C1A 7443   9.754  29.895   8.555
 5884POPC   D2A 7444   9.758  29.955   8.255
 5884POPC   C3A 7445   9.710  29.956   7.955
 5884POPC   C4A 7446   9.774  29.880   7.655
 5884POPC   C1B 7447   9.802  29.686   8.555
 5884POPC   C2B 7448   9.845  29.726   8.255
 5884POPC   C3B 7449   9.788  29.694   7.955
 5884POPC   C4B 7450   9.840  29.652   7.655
 5885POPC   NC3 7451  26.073  38.469   9.455
 5885POPC   PO4 7452  26.030  38.455   9.155
 5885POPC   GL1 7453  26.078  38.442   8.855
 5885POPC   GL2 7454  26.159  38.433   8.855
 5885POPC   C1A 7455  26.087  38.450   8.555
 5885POPC   D2A 7456  26.058  38.491   8.255
 5885POPC   C3A 7457  26.037  38.483   7.955
 5885POPC   C4A 7458  26.066  38.501   7.655
 5885POPC   C1B 7459  26.308  38.448   8.555
 5885POPC   C2B 7460  26.282  38.477   8.255
 5885POPC   C3B 7461  26.291  38.439   7.955
 5885POPC   C4B 7462  26.298  38.421   7.655
 5886POPC   NC3 7463  37.701   7.451   9.455
 5886POPC   PO4 7464  37.729   7.398   9.155
 5886POPC   GL1 7465  37.711   7.384   8.855
 5886POPC   GL2 7466  37.717   7.300   8.855
 5886POPC   C1A 7467  37.701   7.419   8.555
 5886POPC   D2A 7468  37.726   7.455   8.255
 5886POPC   C3A 7469  37.695   7.451   7.955
 5886POPC   C4A 7470  37.660   7.419   7.655
 5886POPC   C1B 7471  37.852   7.270   8.555
 5886POPC   C2B 7472  37.825   7.186   8.255
 5886POPC   C3B 7473  37.867   7.191   7.955
 5886POPC   C4B 7474  37.837   7.262   7.655
 5887POPC   NC3 7475  14.386  22.140   9.455
 5887POPC   PO4 7476  14.384  22.122   9.155
 5887POPC   GL1 7477  14.448  22.185   8.855
 5887POPC   GL2 7478  14.268  22.060   8.855
 5887POPC   C1A 7479  14.374  22.157   8.555
 5887POPC   D2A 7480  14.443  22.132   8.255
 5887POPC   C3A 7481  14.434  22.120   7.955
 5887POPC   C4A 7482  14.418  22.165   7.655
 5887POPC   C1B 7483  14.164  21.994   8.555
 5887POPC   C2B 7484  14.244  22.053   8.255
 5887POPC   C3B 7485  14.159  22.033   7.955
 5887POPC   C4B 7486  14.226  22.026   7.655
 5888POPC   NC3 7487  40.829   7.454   9.455
 5888POPC   PO4 7488  40.790   7.434   9.155
 5888POPC   GL1 7489  40.742   7.372   8.855
 5888POPC   GL2 7490  40.863   7.466   8.855
 5888POPC   C1A 7491  40.766   7.439   8.555
 5888POPC   D2A 7492  40.784   7.380   8.255
 5888POPC   C3A 7493  40.770   7.429   7.955
 5888POPC   C4A 7494  40.826   7.426   7.655
 5888POPC   C1B 7495  40.944   7.548   8.555
 5888POPC   C2B 7496  40.923   7.591   8.255
 5888POPC   C3B 7497  41.000   7.586   7.955
 5888POPC   C4B 7498  40.922   7.602   7.655
 5889POPC   NC3 7499  27.591  43.925   9.455
 5889POPC   PO4 7500  27.613  43.930   9.155
 5889POPC   GL1 7501  27.576  43.934   8.855
 5889POPC   GL2 7502  27.509  43.894   8.855
 5889POPC   C1A 7503  27.557  43.890   8.555
 5889POPC   D2A 7504  27.607  43.909   8.255
 5889POPC   C3A 7505  27.590  43.847   7.955
 5889POPC   C4A 7506  27.640  43.935   7.655
 5889POPC   C1B 7507  27.298  43.836   8.555
 5889POPC   C2B 7508  27.338  43.902   8.255
 5889POPC   C3B 7509  27.296  43.821   7.955
 5889POPC   C4B 7510  27.316  43.855   7.655
 5890POPC   NC3 7511  25.249   3.549   9.455
 5890POPC   PO4 7512  25.285   3.533   9.155
 5890POPC   GL1 7513  25.239   3.535   8.855
 5890POPC   GL2 7514  25.150   3.639   8.855
 5890POPC   C1A 7515  25.286   3.537   8.555
 5890POPC   D2A 7516  25.266   3.505   8.255
 5890POPC   C3A 7517  25.294   3.504   7.955
 5890POPC   C4A 7518  25.263   3.515   7.655
 5890POPC   C1B 7519  25.071   3.649   8.555
 5890POPC   C2B 7520  25.076   3.704   8.255
 5890POPC   C3B 7521  25.066   3.647   7.955
 5890POPC   C4B 7522  25.088   3.725   7.655
 5891POPC   NC3 7523   2.764  25.255   9.455
 5891POPC   PO4 7524   2.799  25.228   9.155
 5891POPC   GL1 7525   2.719  25.267   8.855
 5891POPC   GL2 7526   2.860  25.171   8.855
 5891POPC   C1A 7527   2.747  25.234   8.555
 5891POPC   D2A 7528   2.770  25.243   8.255
 5891POPC   C3A 7529   2.805  25.283   7.955
 5891POPC   C4A 7530   2.767  25.275   7.655
 5891POPC   C1B 7531   3.024  25.215   8.555
 5891POPC   C2B 7532   3.041  25.140   8.255
 5891POPC   C3B 7533   2.957  25.169   7.955
 5891POPC   C4B 7534   3.020  25.209   7.655
 5892POPC   NC3 7535  10.496  36.175   9.455
 5892POPC   PO4 7536  10.573  36.148   9.155
 5892POPC   GL1 7537  10.499  36.143   8.855
 5892POPC   GL2 7538  10.371  36.145   8.855
 5892POPC   C1A 7539  10.524  36.150   8.555
 5892POPC   D2A 7540  10.535  36.144   8.255
 5892POPC   C3A 7541  10.513  36.172   7.955
 5892POPC   C4A 7542  10.512  36.144   7.655
 5892POPC   C1B 7543  10.238  36.064   8.555
 5892POPC   C2B 7544  10.289  36.054   8.255
 5892POPC   C3B 7545  10.253  36.075   7.955
 5892POPC   C4B 7546  10.324  36.071   7.655
 5893POPC   NC3 7547  19.834  15.929   9.455
 5893POPC   PO4 7548  19.790  15.913   9.155
 5893POPC   GL1 7549  19.833  15.993   8.855
 5893POPC   GL2 7550  19.775  16.034   8.855
 5893POPC   C1A 7551  19.865  15.976   8.555
 5893POPC   D2A 7552  19.875  15.946   8.255
 5893POPC   C3A 7553  19.842  15.975   7.955
 5893POPC   C4A 7554  19.871  15.993   7.655
 5893POPC   C1B 7555  19.795  16.242   8.555
 5893POPC   C2B 7556  19.779  16.154   8.255
 5893POPC   C3B 7557  19.776  16.243   7.955
 5893POPC   C4B 7558  19.736  16.160   7.655
 5894POPC   NC3 7559  19.805  36.155   9.455
 5894POPC   PO4 7560  19.864  36.135   9.155
 5894POPC   GL1 7561  19.814  36.139   8.855
 5894POPC   GL2 7562  19.858  36.226   8.855
 5894POPC   C1A 7563  19.793  36.144   8.555
 5894POPC   D2A 7564  19.799  36.176   8.255
 5894POPC   C3A 7565  19.838  36.099   7.955
 5894POPC   C4A 7566  19.789  36.120   7.655
 5894POPC   C1B 7567  19.829  36.361   8.555
 5894POPC   C2B 7568  19.888  36.336   8.255
 5894POPC   C3B 7569  19.876  36.379   7.955
 5894POPC   C4B 7570  19.904  36.327   7.655
 5895POPC   NC3 7571  35.381  29.953   9.455
 5895POPC   PO4 7572  35.308  29.932   9.155
 5895POPC   GL1 7573  35.394  29.897   8.855
 5895POPC   GL2 7574  35.264  29.929   8.855
 5895POPC   C1A 7575  35.371  29.906   8.555
 5895POPC   D2A 7576  35.363  29.938   8.255
 5895POPC   C3A 7577  35.392  29.931   7.955
 5895POPC   C4A 7578  35.317  29.909   7.655
 5895POPC   C1B 7579  35.163  30.049   8.555
 5895POPC   C2B 7580  35.169  29.996   8.255
 5895POPC   C3B 7581  35.127  30.069   7.955
 5895POPC   C4B 7582  35.160  30.060   7.655
 5896POPC   NC3 7583  18.288   2.032   9.455
 5896POPC   PO4 7584  18.275   1.985   9.155
 5896POPC   GL1 7585  18.271   1.944   8.855
 5896POPC   GL2 7586  18.209   1.861   8.855
 5896POPC   C1A 7587  18.297   1.977   8.555
 5896POPC   D2A 7588  18.294   2.032   8.255
 5896POPC   C3A 7589  18.253   1.985   7.955
 5896POPC   C4A 7590  18.287   1.953   7.655
 5896POPC   C1B 7591  18.240   1.730   8.555
 5896POPC   C2B 7592  18.183   1.788   8.255
 5896POPC   C3B 7593  18.179   1.729   7.955
 5896POPC   C4B 7594  18.247   1.715   7.655
 5897POPC   NC3 7595  28.393  10.487   9.455
 5897POPC   PO4 7596  28.343  10.574   9.155
 5897POPC   GL1 7597  28.412  10.483   8.855
 5897POPC   GL2 7598  28.446  10.413   8.855
 5897POPC   C1A 7599  28.398  10.496   8.555
 5897POPC   D2A 7600  28.395  10.555   8.255
 5897POPC   C3A 7601  28.384  10.564   7.955
 5897POPC   C4A 7602  28.361  10.526   7.655
 5897POPC   C1B 7603  28.503  10.296   8.555
 5897POPC   C2B 7604  28.557  10.299   8.255
 5897POPC   C3B 7605  28.523  10.344   7.955
 5897POPC   C4B 7606  28.506  10.359   7.655
 5898POPC   NC3 7607  35.369  16.702   9.455
 5898POPC   PO4 7608  35.374  16.703   9.155
 5898POPC   GL1 7609  35.307  16.715   8.855
 5898POPC   GL2 7610  35.264  16.716   8.855
 5898POPC   C1A 7611  35.312  16.742   8.555
 5898POPC   D2A 7612  35.348  16.755   8.255
 5898POPC   C3A 7613  35.396  16.684   7.955
 5898POPC   C4A 7614  35.339  16.750   7.655
 5898POPC   C1B 7615  35.073  16.648   8.555
 5898POPC   C2B 7616  35.097  16.679   8.255
 5898POPC   C3B 7617  35.098  16.667   7.955
 5898POPC   C4B 7618  35.144  16.666   7.655
 5899POPC   NC3 7619  29.931  41.562   9.455
 5899POPC   PO4 7620  29.879  41.543   9.155
 5899POPC   GL1 7621  29.924  41.559   8.855
 5899POPC   GL2 7622  29.956  41.420   8.855
 5899POPC   C1A 7623  29.893  41.526   8.555
 5899POPC   D2A 7624  29.881  41.536   8.255
 5899POPC   C3A 7625  29.948  41.547   7.955
 5899POPC   C4A 7626  29.954  41.522   7.655
 5899POPC   C1B 7627  30.002  41.297   8.555
 5899POPC   C2B 7628  29.929  41.315   8.255
 5899POPC   C3B 7629  29.929  41.357   7.955
 5899POPC   C4B 7630  29.929  41.319   7.655
 5900POPC   NC3 7631  12.882  35.354   9.455
 5900POPC   PO4 7632  12.870  35.385   9.155
 5900POPC   GL1 7633  12.852  35.383   8.855
 5900POPC   GL2 7634  12.703  35.313   8.855
 5900POPC   C1A 7635  12.858  35.330   8.555
 5900POPC   D2A 7636  12.841  35.305   8.255
 5900POPC   C3A 7637  12.883  35.321   7.955
 5900POPC   C4A 7638  12.859  35.387   7.655
 5900POPC   C1B 7639  12.599  35.217   8.555
 5900POPC   C2B 7640  12.646  35.219   8.255
 5900POPC   C3B 7641  12.606  35.284   7.955
 5900POPC   C4B 7642  12.610  35.203   7.655
 5901POPC   NC3 7643   5.076  35.389   9.455
 5901POPC   PO4 7644   5.095  35.351   9.155
 5901POPC   GL1 7645   5.129  35.351   8.855
 5901POPC   GL2 7646   4.976  35.394   8.855
 5901POPC   C1A 7647   5.047  35.315   8.555
 5901POPC   D2A 7648   5.079  35.352   8.255
 5901POPC   C3A 7649   5.119  35.393   7.955
 5901POPC   C4A 7650   5.062  35.326   7.655
 5901POPC   C1B 7651   4.808  35.317   8.555
 5901POPC   C2B 7652   4.860  35.373   8.255
 5901POPC   C3B 7653   4.837  35.334   7.955
 5901POPC   C4B 7654   4.819  35.387   7.655
 5902POPC   NC3 7655  22.899   8.988   9.455
 5902POPC   PO4 7656  22.950   9.017   9.155
 5902POPC   GL1 7657  22.901   9.010   8.855
 5902POPC   GL2 7658  22.971   9.104   8.855
 5902POPC   C1A 7659  22.981   8.948   8.555
 5902POPC   D2A 7660  22.906   8.940   8.255
 5902POPC   C3A 7661  22.976   9.001   7.955
 5902POPC   C4A 7662  22.951   8.942   7.655
 5902POPC   C1B 7663  23.089   9.183   8.555
 5902POPC   C2B 7664  23.066   9.159   8.255
 5902POPC   C3B 7665  23.063   9.210   7.955
 5902POPC   C4B 7666  23.040   9.166   7.655
 5903POPC   NC3 7667  11.258  26.009   9.455
 5903POPC   PO4 7668  11.345  26.048   9.155
 5903POPC   GL1 7669  11.301  25.995   8.855
 5903POPC   GL2 7670  11.223  25.937   8.855
 5903POPC   C1A 7671  11.254  26.089   8.555
 5903POPC   D2A 7672  11.268  26.075   8.255
 5903POPC   C3A 7673  11.281  26.007   7.955
 5903POPC   C4A 7674  11.309  26.057   7.655
 5903POPC   C1B 7675  11.186  25.858   8.555
 5903POPC   C2B 7676  11.187  25.863   8.255
 5903POPC   C3B 7677  11.150  25.786   7.955
 5903POPC   C4B 7678  11.147  25.790   7.655
 5904POPC   NC3 7679  22.984  31.490   9.455
 5904POPC   PO4 7680  22.940  31.446   9.155
 5904POPC   GL1 7681  22.961  31.512   8.855
 5904POPC   GL2 7682  23.061  31.422   8.855
 5904POPC   C1A 7683  22.940  31.492   8.555
 5904POPC   D2A 7684  22.899  31.491   8.255
 5904POPC   C3A 7685  22.890  31.423   7.955
 5904POPC   C4A 7686  22.922  31.516   7.655
 5904POPC   C1B 7687  23.185  31.406   8.555
 5904POPC   C2B 7688  23.184  31.391   8.255
 5904POPC   C3B 7689  23.171  31.391   7.955
 5904POPC   C4B 7690  23.194  31.424   7.655
 5905POPC   NC3 7691  29.890  19.838   9.455
 5905POPC   PO4 7692  29.920  19.865   9.155
 5905POPC   GL1 7693  29.954  19.848   8.855
 5905POPC   GL2 7694  29.805  19.846   8.855
 5905POPC   C1A 7695  29.894  19.840   8.555
 5905POPC   D2A 7696  29.957  19.862   8.255
 5905POPC   C3A 7697  29.936  19.865   7.955
 5905POPC   C4A 7698  29.891  19.792   7.655
 5905POPC   C1B 7699  29.677  19.980   8.555
 5905POPC   C2B 7700  29.660  19.981   8.255
 5905POPC   C3B 7701  29.661  19.940   7.955
 5905POPC   C4B 7702  29.665  19.982   7.655
 5906POPC   NC3 7703  18.242  41.575   9.455
 5906POPC   PO4 7704  18.328  41.515   9.155
 5906POPC   GL1 7705  18.268  41.598   8.855
 5906POPC   GL2 7706  18.292  41.725   8.855
 5906POPC   C1A 7707  18.265  41.545   8.555
 5906POPC   D2A 7708  18.293  41.545   8.255
 5906POPC   C3A 7709  18.246  41.561   7.955
 5906POPC   C4A 7710  18.280  41.551   7.655
 5906POPC   C1B 7711  18.335  41.854   8.555
 5906POPC   C2B 7712  18.306  41.843   8.255
 5906POPC   C3B 7713  18.269  41.851   7.955
 5906POPC   C4B 7714  18.271  41.825   7.655
 5907POPC   NC3 7715  12.077  36.874   9.455
 5907POPC   PO4 7716  12.039  36.856   9.155
 5907POPC   GL1 7717  12.029  36.906   8.855
 5907POPC   GL2 7718  11.976  36.872   8.855
 5907POPC   C1A 7719  12.033  36.944   8.555
 5907POPC   D2A 7720  12.049  36.900   8.255
 5907POPC   C3A 7721  12.083  36.941   7.955
 5907POPC   C4A 7722  12.056  36.883   7.655
 5907POPC   C1B 7723  11.820  36.828   8.555
 5907POPC   C2B 7724  11.845  36.824   8.255
 5907POPC   C3B 7725  11.793  36.872   7.955
 5907POPC   C4B 7726  11.837  36.812   7.655
 5908POPC   NC3 7727   5.890  19.057   9.455
 5908POPC   PO4 7728   5.880  19.103   9.155
 5908POPC   GL1 7729   5.897  19.074   8.855
 5908POPC   GL2 7730   5.700  19.049   8.855
 5908POPC   C1A 7731   5.852  19.109   8.555
 5908POPC   D2A 7732   5.862  19.047   8.255
 5908POPC   C3A 7733   5.823  19.024   7.955
 5908POPC   C4A 7734   5.857  19.034   7.655
 5908POPC   C1B 7735   5.626  19.134   8.555
 5908POPC   C2B 7736   5.671  19.133   8.255
 5908POPC   C3B 7737   5.625  19.127   7.955
 5908POPC   C4B 7738   5.605  19.135   7.655
 5909POPC   NC3 7739   1.183  35.346   9.455
 5909POPC   PO4 7740   1.186  35.355   9.155
 5909POPC   GL1 7741   1.215  35.383   8.855
 5909POPC   GL2 7742   1.087  35.441   8.855
 5909POPC   C1A 7743   1.241  35.317   8.555
 5909POPC   D2A 7744   1.229  35.393   8.255
 5909POPC   C3A 7745   1.215  35.371   7.955
 5909POPC   C4A 7746   1.244  35.324   7.655
 5909POPC   C1B 7747   1.021  35.507   8.555
 5909POPC   C2B 7748   1.042  35.555   8.255
 5909POPC   C3B 7749   1.016  35.487   7.955
 5909POPC   C4B 7750   0.996  35.490   7.655
 5910POPC   NC3 7751  22.946  43.885   9.455
 5910POPC   PO4 7752  22.973  43.855   9.155
 5910POPC   GL1 7753  22.938  43.893   8.855
 5910POPC   GL2 7754  22.857  43.911   8.855
 5910POPC   C1A 7755  22.935  43.920   8.555
 5910POPC   D2A 7756  22.913  43.859   8.255
 5910POPC   C3A 7757  22.890  43.908   7.955
 5910POPC   C4A 7758  22.944  43.901   7.655
 5910POPC   C1B 7759  22.682  44.040   8.555
 5910POPC   C2B 7760  22.678  44.013   8.255
 5910POPC   C3B 7761  22.715  44.017   7.955
 5910POPC   C4B 7762  22.742  43.969   7.655
 5911POPC   NC3 7763  28.356  29.136   9.455
 5911POPC   PO4 7764  28.324  29.109   9.155
 5911POPC   GL1 7765  28.386  29.125   8.855
 5911POPC   GL2 7766  28.480  29.153   8.855
 5911POPC   C1A 7767  28.408  29.126   8.555
 5911POPC   D2A 7768  28.338  29.190   8.255
 5911POPC   C3A 7769  28.323  29.130   7.955
 5911POPC   C4A 7770  28.326  29.193   7.655
 5911POPC   C1B 7771  28.604  29.228   8.555
 5911POPC   C2B 7772  28.566  29.255   8.255
 5911POPC   C3B 7773  28.594  29.197   7.955
 5911POPC   C4B 7774  28.604  29.192   7.655
 5912POPC   NC3 7775  19.830  39.964   9.455
 5912POPC   PO4 7776  19.873  40.003   9.155
 5912POPC   GL1 7777  19.846  40.036   8.855
 5912POPC   GL2 7778  19.763  39.903   8.855
 5912POPC   C1A 7779  19.800  39.972   8.555
 5912POPC   D2A 7780  19.828  40.049   8.255
 5912POPC   C3A 7781  19.879  39.967   7.955
 5912POPC   C4A 7782  19.872  40.000   7.655
 5912POPC   C1B 7783  19.700  39.827   8.555
 5912POPC   C2B 7784  19.733  39.821   8.255
 5912POPC   C3B 7785  19.688  39.766   7.955
 5912POPC   C4B 7786  19.665  39.781   7.655
 5913POPC   NC3 7787  29.184  19.865   9.455
 5913POPC   PO4 7788  29.119  19.860   9.155
 5913POPC   GL1 7789  29.175  19.797   8.855
 5913POPC   GL2 7790  29.105  19.898   8.855
 5913POPC   C1A 7791  29.175  19.834   8.555
 5913POPC   D2A 7792  29.104  19.807   8.255
 5913POPC   C3A 7793  29.190  19.845   7.955
 5913POPC   C4A 7794  29.131  19.789   7.655
 5913POPC   C1B 7795  29.053  20.091   8.555
 5913POPC   C2B 7796  28.988  20.027   8.255
 5913POPC   C3B 7797  29.050  20.069   7.955
 5913POPC   C4B 7798  29.030  20.007   7.655
 5914POPC   NC3 7799   7.442  29.947   9.455
 5914POPC   PO4 7800   7.438  29.921   9.155
 5914POPC   GL1 7801   7.385  29.960   8.855
 5914POPC   GL2 7802   7.560  29.890   8.855
 5914POPC   C1A 7803   7.403  29.931   8.555
 5914POPC   D2A 7804   7.439  29.890   8.255
 5914POPC   C3A 7805   7.430  29.885   7.955
 5914POPC   C4A 7806   7.433  29.875   7.655
 5914POPC   C1B 7807   7.713  29.896   8.555
 5914POPC   C2B 7808   7.715  29.899   8.255
 5914POPC   C3B 7809   7.648  29.901   7.955
 5914POPC   C4B 7810   7.636  29.898   7.655
 5915POPC   NC3 7811   1.982  18.309   9.455
 5915POPC   PO4 7812   2.006  18.298   9.155
 5915POPC   GL1 7813   1.964  18.280   8.855
 5915POPC   GL2 7814   1.859  18.386   8.855
 5915POPC   C1A 7815   2.000  18.322   8.555
 5915POPC   D2A 7816   2.033  18.282   8.255
 5915POPC   C3A 7817   1.968  18.331   7.955
 5915POPC   C4A 7818   2.020  18.303   7.655
 5915POPC   C1B 7819   1.830  18.496   8.555
 5915POPC   C2B 7820   1.807  18.440   8.255
 5915POPC   C3B 7821   1.790  18.478   7.955
 5915POPC   C4B 7822   1.779  18.497   7.655
 5916POPC   NC3 7823  18.288  33.797   9.455
 5916POPC   PO4 7824  18.284  33.790   9.155
 5916POPC   GL1 7825  18.236  33.820   8.855
 5916POPC   GL2 7826  18.284  33.636   8.855
 5916POPC   C1A 7827  18.311  33.768   8.555
 5916POPC   D2A 7828  18.261  33.836   8.255
 5916POPC   C3A 7829  18.313  33.756   7.955
 5916POPC   C4A 7830  18.242  33.844   7.655
 5916POPC   C1B 7831  18.287  33.524   8.555
 5916POPC   C2B 7832  18.291  33.598   8.255
 5916POPC   C3B 7833  18.292  33.519   7.955
 5916POPC   C4B 7834  18.311  33.519   7.655
 5917POPC   NC3 7835  12.861  22.178   9.455
 5917POPC   PO4 7836  12.870  22.170   9.155
 5917POPC   GL1 7837  12.866  22.211   8.855
 5917POPC   GL2 7838  12.760  22.123   8.855
 5917POPC   C1A 7839  12.883  22.184   8.555
 5917POPC   D2A 7840  12.842  22.157   8.255
 5917POPC   C3A 7841  12.839  22.187   7.955
 5917POPC   C4A 7842  12.864  22.181   7.655
 5917POPC   C1B 7843  12.599  22.109   8.555
 5917POPC   C2B 7844  12.600  22.130   8.255
 5917POPC   C3B 7845  12.615  22.159   7.955
 5917POPC   C4B 7846  12.630  22.139   7.655
 5918POPC   NC3 7847  26.792  13.611   9.455
 5918POPC   PO4 7848  26.864  13.590   9.155
 5918POPC   GL1 7849  26.835  13.637   8.855
 5918POPC   GL2 7850  26.934  13.534   8.855
 5918POPC   C1A 7851  26.867  13.641   8.555
 5918POPC   D2A 7852  26.792  13.581   8.255
 5918POPC   C3A 7853  26.812  13.601   7.955
 5918POPC   C4A 7854  26.805  13.655   7.655
 5918POPC   C1B 7855  26.974  13.396   8.555
 5918POPC   C2B 7856  26.968  13.410   8.255
 5918POPC   C3B 7857  26.981  13.399   7.955
 5918POPC   C4B 7858  27.010  13.386   7.655
 5919POPC   NC3 7859   7.425  39.251   9.455
 5919POPC   PO4 7860   7.422  39.197   9.155
 5919POPC   GL1 7861   7.445  39.242   8.855
 5919POPC   GL2 7862   7.511  39.257   8.855
 5919POPC   C1A 7863   7.441  39.236   8.555
 5919POPC   D2A 7864   7.462  39.228   8.255
 5919POPC   C3A 7865   7.468  39.250   7.955
 5919POPC   C4A 7866   7.416  39.198   7.655
 5919POPC   C1B 7867   7.701  39.269   8.555
 5919POPC   C2B 7868   7.664  39.243   8.255
 5919POPC   C3B 7869   7.671  39.238   7.955
 5919POPC   C4B 7870   7.676  39.285   7.655
 5920POPC   NC3 7871   1.218  34.562   9.455
 5920POPC   PO4 7872   1.260  34.600   9.155
 5920POPC   GL1 7873   1.227  34.548   8.855
 5920POPC   GL2 7874   1.120  34.645   8.855
 5920POPC   C1A 7875   1.202  34.604   8.555
 5920POPC   D2A 7876   1.183  34.552   8.255
 5920POPC   C3A 7877   1.226  34.585   7.955
 5920POPC   C4A 7878   1.168  34.601   7.655
 5920POPC   C1B 7879   1.039  34.795   8.555
 5920POPC   C2B 7880   1.030  34.806   8.255
 5920POPC   C3B 7881   1.064  34.786   7.955
 5920POPC   C4B 7882   1.020  34.790   7.655
 5921POPC   NC3 7883   9.741  41.519   9.455
 5921POPC   PO4 7884   9.762  41.538   9.155
 5921POPC   GL1 7885   9.758  41.555   8.855
 5921POPC   GL2 7886   9.728  41.471   8.855
 5921POPC   C1A 7887   9.796  41.607   8.555
 5921POPC   D2A 7888   9.796  41.570   8.255
 5921POPC   C3A 7889   9.740  41.586   7.955
 5921POPC   C4A 7890   9.735  41.601   7.655
 5921POPC   C1B 7891   9.608  41.383   8.555
 5921POPC   C2B 7892   9.647  41.349   8.255
 5921POPC   C3B 7893   9.653  41.323   7.955
 5921POPC   C4B 7894   9.609  41.316   7.655
 5922POPC   NC3 7895   7.449  42.303   9.455
 5922POPC   PO4 7896   7.401  42.303   9.155
 5922POPC   GL1 7897   7.420  42.322   8.855
 5922POPC   GL2 7898   7.509  42.442   8.855
 5922POPC   C1A 7899   7.463  42.322   8.555
 5922POPC   D2A 7900   7.468  42.375   8.255
 5922POPC   C3A 7901   7.459  42.296   7.955
 5922POPC   C4A 7902   7.426  42.352   7.655
 5922POPC   C1B 7903   7.636  42.553   8.555
 5922POPC   C2B 7904   7.544  42.558   8.255
 5922POPC   C3B 7905   7.594  42.518   7.955
 5922POPC   C4B 7906   7.550  42.512   7.655
 5923POPC   NC3 7907  36.123  15.962   9.455
 5923POPC   PO4 7908  36.148  15.945   9.155
 5923POPC   GL1 7909  36.102  15.991   8.855
 5923POPC   GL2 7910  36.183  15.848   8.855
 5923POPC   C1A 7911  36.144  15.971   8.555
 5923POPC   D2A 7912  36.084  15.970   8.255
 5923POPC   C3A 7913  36.133  15.973   7.955
 5923POPC   C4A 7914  36.118  15.988   7.655
 5923POPC   C1B 7915  36.275  15.773   8.555
 5923POPC   C2B 7916  36.269  15.828   8.255
 5923POPC   C3B 7917  36.310  15.787   7.955
 5923POPC   C4B 7918  36.272  15.830   7.655
 5924POPC   NC3 7919  26.828  29.167   9.455
 5924POPC   PO4 7920  26.863  29.103   9.155
 5924POPC   GL1 7921  26.840  29.129   8.855
 5924POPC   GL2 7922  26.877  29.052   8.855
 5924POPC   C1A 7923  26.863  29.145   8.555
 5924POPC   D2A 7924  26.862  29.114   8.255
 5924POPC   C3A 7925  26.845  29.129   7.955
 5924POPC   C4A 7926  26.768  29.142   7.655
 5924POPC   C1B 7927  26.947  28.998   8.555
 5924POPC   C2B 7928  26.929  28.929   8.255
 5924POPC   C3B 7929  26.935  28.993   7.955
 5924POPC   C4B 7930  27.015  28.905   7.655
 5925POPC   NC3 7931   5.075  33.032   9.455
 5925POPC   PO4 7932   5.096  33.042   9.155
 5925POPC   GL1 7933   5.061  33.002   8.855
 5925POPC   GL2 7934   4.978  32.974   8.855
 5925POPC   C1A 7935   5.091  33.035   8.555
 5925POPC   D2A 7936   5.132  33.043   8.255
 5925POPC   C3A 7937   5.093  33.052   7.955
 5925POPC   C4A 7938   5.106  33.017   7.655
 5925POPC   C1B 7939   4.799  32.943   8.555
 5925POPC   C2B 7940   4.889  32.954   8.255
 5925POPC   C3B 7941   4.880  33.014   7.955
 5925POPC   C4B 7942   4.843  32.942   7.655
 5926POPC   NC3 7943  38.483  29.168   9.455
 5926POPC   PO4 7944  38.496  29.181   9.155
 5926POPC   GL1 7945  38.405  29.129   8.855
 5926POPC   GL2 7946  38.434  29.214   8.855
 5926POPC   C1A 7947  38.480  29.177   8.555
 5926POPC   D2A 7948  38.419  29.154   8.255
 5926POPC   C3A 7949  38.438  29.187   7.955
 5926POPC   C4A 7950  38.405  29.133   7.655
 5926POPC   C1B 7951  38.349  29.400   8.555
 5926POPC   C2B 7952  38.362  29.356   8.255
 5926POPC   C3B 7953  38.381  29.415   7.955
 5926POPC   C4B 7954  38.373  29.337   7.655
 5927POPC   NC3 7955   5.850   1.958   9.455
 5927POPC   PO4 7956   5.909   1.946   9.155
 5927POPC   GL1 7957   5.825   2.038   8.855
 5927POPC   GL2 7958   5.729   1.922   8.855
 5927POPC   C1A 7959   5.895   1.948   8.555
 5927POPC   D2A 7960   5.877   2.017   8.255
 5927POPC   C3A 7961   5.839   1.971   7.955
 5927POPC   C4A 7962   5.915   2.014   7.655
 5927POPC   C1B 7963   5.677   1.844   8.555
 5927POPC   C2B 7964   5.621   1.830   8.255
 5927POPC   C3B 7965   5.669   1.899   7.955
 5927POPC   C4B 7966   5.608   1.902   7.655
 5928POPC   NC3 7967   9.706  20.588   9.455
 5928POPC   PO4 7968   9.780  20.653   9.155
 5928POPC   GL1 7969   9.786  20.644   8.855
 5928POPC   GL2 7970   9.708  20.726   8.855
 5928POPC   C1A 7971   9.704  20.592   8.555
 5928POPC   D2A 7972   9.724  20.626   8.255
 5928POPC   C3A 7973   9.764  20.631   7.955
 5928POPC   C4A 7974   9.718  20.590   7.655
 5928POPC   C1B 7975   9.758  20.898   8.555
 5928POPC   C2B 7976   9.759  20.885   8.255
 5928POPC   C3B 7977   9.708  20.852   7.955
 5928POPC   C4B 7978   9.773  20.876   7.655
 5929POPC   NC3 7979  36.901  27.576   9.455
 5929POPC   PO4 7980  36.891  27.582   9.155
 5929POPC   GL1 7981  36.921  27.625   8.855
 5929POPC   GL2 7982  37.061  27.602   8.855
 5929POPC   C1A 7983  36.878  27.597   8.555
 5929POPC   D2A 7984  36.949  27.641   8.255
 5929POPC   C3A 7985  36.930  27.574   7.955
 5929POPC   C4A 7986  36.926  27.633   7.655
 5929POPC   C1B 7987  37.095  27.659   8.555
 5929POPC   C2B 7988  37.130  27.733   8.255
 5929POPC   C3B 7989  37.168  27.740   7.955
 5929POPC   C4B 7990  37.104  27.661   7.655
 5930POPC   NC3 7991  33.772  15.913   9.455
 5930POPC   PO4 7992  33.819  15.925   9.155
 5930POPC   GL1 7993  33.837  15.985   8.855
 5930POPC   GL2 7994  33.750  15.918   8.855
 5930POPC   C1A 7995  33.820  15.977   8.555
 5930POPC   D2A 7996  33.843  15.941   8.255
 5930POPC   C3A 7997  33.840  15.962   7.955
 5930POPC   C4A 7998  33.751  15.936   7.655
 5930POPC   C1B 7999  33.667  15.805   8.555
 5930POPC   C2B 8000  33.631  15.758   8.255
 5930POPC   C3B 8001  33.614  15.793   7.955
 5930POPC   C4B 8002  33.639  15.817   7.655
 5931POPC   NC3 8003   4.322  19.075   9.455
 5931POPC   PO4 8004   4.304  19.067   9.155
 5931POPC   GL1 8005   4.308  19.071   8.855
 5931POPC   GL2 8006   4.320  18.967   8.855
 5931POPC   C1A 8007   4.361  19.085   8.555
 5931POPC   D2A 8008   4.279  19.025   8.255
 5931POPC   C3A 8009   4.349  19.092   7.955
 5931POPC   C4A 8010   4.320  19.057   7.655
 5931POPC   C1B 8011   4.373  18.819   8.555
 5931POPC   C2B 8012   4.353  18.783   8.255
 5931POPC   C3B 8013   4.340  18.823   7.955
 5931POPC   C4B 8014   4.316  18.798   7.655
 5932POPC   NC3 8015  34.574  16.717   9.455
 5932POPC   PO4 8016  34.576  16.683   9.155
 5932POPC   GL1 8017  34.553  16.725   8.855
 5932POPC   GL2 8018  34.499  16.633   8.855
 5932POPC   C1A 8019  34.558  16.714   8.555
 5932POPC   D2A 8020  34.560  16.739   8.255
 5932POPC   C3A 8021  34.581  16.696   7.955
 5932POPC   C4A 8022  34.573  16.767   7.655
 5932POPC   C1B 8023  34.483  16.490   8.555
 5932POPC   C2B 8024  34.458  16.461   8.255
 5932POPC   C3B 8025  34.469  16.518   7.955
 5932POPC   C4B 8026  34.439  16.503   7.655
 5933POPC   NC3 8027   4.328  23.668   9.455
 5933POPC   PO4 8028   4.286  23.761   9.155
 5933POPC   GL1 8029   4.320  23.748   8.855
 5933POPC   GL2 8030   4.143  23.734   8.855
 5933POPC   C1A 8031   4.358  23.705   8.555
 5933POPC   D2A 8032   4.280  23.721   8.255
 5933POPC   C3A 8033   4.275  23.719   7.955
 5933POPC   C4A 8034   4.354  23.675   7.655
 5933POPC   C1B 8035   4.115  23.779   8.555
 5933POPC   C2B 8036   4.031  23.703   8.255
 5933POPC   C3B 8037   4.090  23.790   7.955
 5933POPC   C4B 8038   4.110  23.765   7.655
 5934POPC   NC3 8039   6.640  38.481   9.455
 5934POPC   PO4 8040   6.635  38.414   9.155
 5934POPC   GL1 8041   6.631  38.496   8.855
 5934POPC   GL2 8042   6.618  38.344   8.855
 5934POPC   C1A 8043   6.648  38.487   8.555
 5934POPC   D2A 8044   6.615  38.438   8.255
 5934POPC   C3A 8045   6.608  38.450   7.955
 5934POPC   C4A 8046   6.603  38.432   7.655
 5934POPC   C1B 8047   6.661  38.214   8.555
 5934POPC   C2B 8048   6.650  38.222   8.255
 5934POPC   C3B 8049   6.693  38.235   7.955
 5934POPC   C4B 8050   6.672  38.165   7.655
 5935POPC   NC3 8051  25.242  44.635   9.455
 5935POPC   PO4 8052  25.246  44.702   9.155
 5935POPC   GL1 8053  25.309  44.634   8.855
 5935POPC   GL2 8054  25.265  44.765   8.855
 5935POPC   C1A 8055  25.264  44.625   8.555
 5935POPC   D2A 8056  25.312  44.634   8.255
 5935POPC   C3A 8057  25.264  44.699   7.955
 5935POPC   C4A 8058  25.255  44.669   7.655
 5935POPC   C1B 8059  25.309  44.939   8.555
 5935POPC   C2B 8060  25.376  44.864   8.255
 5935POPC   C3B 8061  25.366  44.864   7.955
 5935POPC   C4B 8062  25.294  44.930   7.655
 5936POPC   NC3 8063  40.777  12.070   9.455
 5936POPC   PO4 8064  40.817  12.064   9.155
 5936POPC   GL1 8065  40.805  12.032   8.855
 5936POPC   GL2 8066  40.808  11.995   8.855
 5936POPC   C1A 8067  40.788  12.113   8.555
 5936POPC   D2A 8068  40.759  12.075   8.255
 5936POPC   C3A 8069  40.778  12.048   7.955
 5936POPC   C4A 8070  40.734  12.073   7.655
 5936POPC   C1B 8071  40.892  11.909   8.555
 5936POPC   C2B 8072  40.889  11.823   8.255
 5936POPC   C3B 8073  40.885  11.824   7.955
 5936POPC   C4B 8074  40.877  11.820   7.655
 5937POPC   NC3 8075   8.942  16.735   9.455
 5937POPC   PO4 8076   8.936  16.703   9.155
 5937POPC   GL1 8077   8.946  16.695   8.855
 5937POPC   GL2 8078   8.994  16.593   8.855
 5937POPC   C1A 8079   8.962  16.766   8.555
 5937POPC   D2A 8080   8.969  16.725   8.255
 5937POPC   C3A 8081   8.950  16.692   7.955
 5937POPC   C4A 8082   8.923  16.695   7.655
 5937POPC   C1B 8083   9.049  16.450   8.555
 5937POPC   C2B 8084   9.011  16.444   8.255
 5937POPC   C3B 8085   9.024  16.491   7.955
 5937POPC   C4B 8086   9.029  16.445   7.655
 5938POPC   NC3 8087  29.917  29.885   9.455
 5938POPC   PO4 8088  29.907  29.950   9.155
 5938POPC   GL1 8089  29.891  29.943   8.855
 5938POPC   GL2 8090  29.771  29.881   8.855
 5938POPC   C1A 8091  29.889  29.930   8.555
 5938POPC   D2A 8092  29.892  29.946   8.255
 5938POPC   C3A 8093  29.904  29.881   7.955
 5938POPC   C4A 8094  29.948  29.880   7.655
 5938POPC   C1B 8095  29.685  29.761   8.555
 5938POPC   C2B 8096  29.688  29.752   8.255
 5938POPC   C3B 8097  29.687  29.770   7.955
 5938POPC   C4B 8098  29.746  29.838   7.655
 5939POPC   NC3 8099  23.695  33.065   9.455
 5939POPC   PO4 8100  23.709  33.072   9.155
 5939POPC   GL1 8101  23.736  33.026   8.855
 5939POPC   GL2 8102  23.747  33.112   8.855
 5939POPC   C1A 8103  23.729  33.057   8.555
 5939POPC   D2A 8104  23.729  33.005   8.255
 5939POPC   C3A 8105  23.751  32.982   7.955
 5939POPC   C4A 8106  23.722  33.047   7.655
 5939POPC   C1B 8107  23.805  33.272   8.555
 5939POPC   C2B 8108  23.784  33.224   8.255
 5939POPC   C3B 8109  23.801  33.237   7.955
 5939POPC   C4B 8110  23.781  33.260   7.655
 5940POPC   NC3 8111  41.528  21.353   9.455
 5940POPC   PO4 8112  41.606  21.344   9.155
 5940POPC   GL1 8113  41.528  21.394   8.855
 5940POPC   GL2 8114  41.433  21.362   8.855
 5940POPC   C1A 8115  41.549  21.406   8.555
 5940POPC   D2A 8116  41.533  21.422   8.255
 5940POPC   C3A 8117  41.514  21.391   7.955
 5940POPC   C4A 8118  41.557  21.428   7.655
 5940POPC   C1B 8119  41.293  21.325   8.555
 5940POPC   C2B 8120  41.279  21.313   8.255
 5940POPC   C3B 8121  41.278  21.332   7.955
 5940POPC   C4B 8122  41.345  21.320   7.655
 5941POPC   NC3 8123   2.004   1.992   9.455
 5941POPC   PO4 8124   1.995   2.034   9.155
 5941POPC   GL1 8125   1.989   1.975   8.855
 5941POPC   GL2 8126   1.940   1.935   8.855
 5941POPC   C1A 8127   2.036   2.022   8.555
 5941POPC   D2A 8128   1.956   1.967   8.255
 5941POPC   C3A 8129   1.963   1.951   7.955
 5941POPC   C4A 8130   1.969   1.998   7.655
 5941POPC   C1B 8131   1.799   1.750   8.555
 5941POPC   C2B 8132   1.843   1.753   8.255
 5941POPC   C3B 8133   1.891   1.831   7.955
 5941POPC   C4B 8134   1.861   1.778   7.655
 5942POPC   NC3 8135   7.391  15.986   9.455
 5942POPC   PO4 8136   7.427  16.001   9.155
 5942POPC   GL1 8137   7.434  15.971   8.855
 5942POPC   GL2 8138   7.542  16.049   8.855
 5942POPC   C1A 8139   7.420  16.000   8.555
 5942POPC   D2A 8140   7.424  15.996   8.255
 5942POPC   C3A 8141   7.408  15.969   7.955
 5942POPC   C4A 8142   7.444  15.943   7.655
 5942POPC   C1B 8143   7.617  16.084   8.555
 5942POPC   C2B 8144   7.578  16.151   8.255
 5942POPC   C3B 8145   7.610  16.127   7.955
 5942POPC   C4B 8146   7.638  16.149   7.655
 5943POPC   NC3 8147  14.359  33.818   9.455
 5943POPC   PO4 8148  14.385  33.761   9.155
 5943POPC   GL1 8149  14.413  33.779   8.855
 5943POPC   GL2 8150  14.358  33.943   8.855
 5943POPC   C1A 8151  14.402  33.806   8.555
 5943POPC   D2A 8152  14.428  33.762   8.255
 5943POPC   C3A 8153  14.441  33.815   7.955
 5943POPC   C4A 8154  14.366  33.768   7.655
 5943POPC   C1B 8155  14.365  34.058   8.555
 5943POPC   C2B 8156  14.409  34.090   8.255
 5943POPC   C3B 8157  14.365  34.022   7.955
 5943POPC   C4B 8158  14.403  34.063   7.655
 5944POPC   NC3 8159   0.397  23.698   9.455
 5944POPC   PO4 8160   0.453  23.750   9.155
 5944POPC   GL1 8161   0.400  23.684   8.855
 5944POPC   GL2 8162   0.454  23.859   8.855
 5944POPC   C1A 8163   0.435  23.748   8.555
 5944POPC   D2A 8164   0.457  23.763   8.255
 5944POPC   C3A 8165   0.424  23.705   7.955
 5944POPC   C4A 8166   0.452  23.694   7.655
 5944POPC   C1B 8167   0.386  23.952   8.555
 5944POPC   C2B 8168   0.403  23.978   8.255
 5944POPC   C3B 8169   0.374  23.906   7.955
 5944POPC   C4B 8170   0.421  23.939   7.655
 5945POPC   NC3 8171  35.358   4.347   9.455
 5945POPC   PO4 8172  35.353   4.298   9.155
 5945POPC   GL1 8173  35.309   4.334   8.855
 5945POPC   GL2 8174  35.455   4.309   8.855
 5945POPC   C1A 8175  35.322   4.317   8.555
 5945POPC   D2A 8176  35.365   4.281   8.255
 5945POPC   C3A 8177  35.385   4.314   7.955
 5945POPC   C4A 8178  35.376   4.344   7.655
 5945POPC   C1B 8179  35.621   4.215   8.555
 5945POPC   C2B 8180  35.581   4.186   8.255
 5945POPC   C3B 8181  35.624   4.240   7.955
 5945POPC   C4B 8182  35.613   4.221   7.655
 5946POPC   NC3 8183  35.357  15.151   9.455
 5946POPC   PO4 8184  35.400  15.217   9.155
 5946POPC   GL1 8185  35.376  15.207   8.855
 5946POPC   GL2 8186  35.465  15.181   8.855
 5946POPC   C1A 8187  35.342  15.201   8.555
 5946POPC   D2A 8188  35.314  15.220   8.255
 5946POPC   C3A 8189  35.382  15.158   7.955
 5946POPC   C4A 8190  35.336  15.138   7.655
 5946POPC   C1B 8191  35.632  15.228   8.555
 5946POPC   C2B 8192  35.627  15.220   8.255
 5946POPC   C3B 8193  35.627  15.292   7.955
 5946POPC   C4B 8194  35.638  15.215   7.655
 5947POPC   NC3 8195  43.876  32.236   9.455
 5947POPC   PO4 8196  43.843  32.217   9.155
 5947POPC   GL1 8197  43.917  32.279   8.855
 5947POPC   GL2 8198  43.975  32.256   8.855
 5947POPC   C1A 8199  43.838  32.273   8.555
 5947POPC   D2A 8200  43.933  32.264   8.255
 5947POPC   C3A 8201  43.935  32.251   7.955
 5947POPC   C4A 8202  43.846  32.237   7.655
 5947POPC   C1B 8203  44.106  32.212   8.555
 5947POPC   C2B 8204  44.140  32.216   8.255
 5947POPC   C3B 8205  44.103  32.234   7.955
 5947POPC   C4B 8206  44.083  32.174   7.655
 5948POPC   NC3 8207  22.206  15.989   9.455
 5948POPC   PO4 8208  22.210  15.915   9.155
 5948POPC   GL1 8209  22.137  15.928   8.855
 5948POPC   GL2 8210  22.066  15.816   8.855
 5948POPC   C1A 8211  22.151  15.951   8.555
 5948POPC   D2A 8212  22.143  15.996   8.255
 5948POPC   C3A 8213  22.141  16.004   7.955
 5948POPC   C4A 8214  22.175  15.926   7.655
 5948POPC   C1B 8215  22.015  15.787   8.555
 5948POPC   C2B 8216  22.034  15.764   8.255
 5948POPC   C3B 8217  22.013  15.766   7.955
 5948POPC   C4B 8218  22.047  15.724   7.655
 5949POPC   NC3 8219   8.239  44.659   9.455
 5949POPC   PO4 8220   8.218  44.672   9.155
 5949POPC   GL1 8221   8.223  44.638   8.855
 5949POPC   GL2 8222   8.281  44.726   8.855
 5949POPC   C1A 8223   8.236  44.658   8.555
 5949POPC   D2A 8224   8.156  44.707   8.255
 5949POPC   C3A 8225   8.165  44.636   7.955
 5949POPC   C4A 8226   8.182  44.664   7.655
 5949POPC   C1B 8227   8.423  44.729   8.555
 5949POPC   C2B 8228   8.410  44.752   8.255
 5949POPC   C3B 8229   8.431  44.793   7.955
 5949POPC   C4B 8230   8.446  44.810   7.655
 5950POPC   NC3 8231   6.617  29.123   9.455
 5950POPC   PO4 8232   6.651  29.179   9.155
 5950POPC   GL1 8233   6.641  29.187   8.855
 5950POPC   GL2 8234   6.675  29.052   8.855
 5950POPC   C1A 8235   6.613  29.118   8.555
 5950POPC   D2A 8236   6.633  29.131   8.255
 5950POPC   C3A 8237   6.695  29.193   7.955
 5950POPC   C4A 8238   6.670  29.101   7.655
 5950POPC   C1B 8239   6.679  28.915   8.555
 5950POPC   C2B 8240   6.633  28.864   8.255
 5950POPC   C3B 8241   6.687  28.853   7.955
 5950POPC   C4B 8242   6.635  28.932   7.655
 5951POPC   NC3 8243  41.584  34.610   9.455
 5951POPC   PO4 8244  41.581  34.546   9.155
 5951POPC   GL1 8245  41.558  34.535   8.855
 5951POPC   GL2 8246  41.478  34.676   8.855
 5951POPC   C1A 8247  41.591  34.600   8.555
 5951POPC   D2A 8248  41.545  34.595   8.255
 5951POPC   C3A 8249  41.541  34.624   7.955
 5951POPC   C4A 8250  41.585  34.621   7.655
 5951POPC   C1B 8251  41.350  34.644   8.555
 5951POPC   C2B 8252  41.326  34.635   8.255
 5951POPC   C3B 8253  41.311  34.664   7.955
 5951POPC   C4B 8254  41.332  34.679   7.655
 5952POPC   NC3 8255  14.365  23.721   9.455
 5952POPC   PO4 8256  14.392  23.729   9.155
 5952POPC   GL1 8257  14.448  23.709   8.855
 5952POPC   GL2 8258  14.572  23.701   8.855
 5952POPC   C1A 8259  14.387  23.686   8.555
 5952POPC   D2A 8260  14.409  23.744   8.255
 5952POPC   C3A 8261  14.442  23.696   7.955
 5952POPC   C4A 8262  14.367  23.699   7.655
 5952POPC   C1B 8263  14.659  23.781   8.555
 5952POPC   C2B 8264  14.682  23.774   8.255
 5952POPC   C3B 8265  14.610  23.803   7.955
 5952POPC   C4B 8266  14.648  23.817   7.655
 5953POPC   NC3 8267   8.178  19.077   9.455
 5953POPC   PO4 8268   8.231  19.051   9.155
 5953POPC   GL1 8269   8.180  19.032   8.855
 5953POPC   GL2 8270   8.120  19.017   8.855
 5953POPC   C1A 8271   8.198  19.064   8.555
 5953POPC   D2A 8272   8.147  19.072   8.255
 5953POPC   C3A 8273   8.204  19.012   7.955
 5953POPC   C4A 8274   8.161  19.033   7.655
 5953POPC   C1B 8275   8.019  18.843   8.555
 5953POPC   C2B 8276   8.017  18.912   8.255
 5953POPC   C3B 8277   8.018  18.859   7.955
 5953POPC   C4B 8278   7.999  18.916   7.655
 5954POPC   NC3 8279  41.509  40.831   9.455
 5954POPC   PO4 8280  41.515  40.796   9.155
 5954POPC   GL1 8281  41.587  40.787   8.855
 5954POPC   GL2 8282  41.650  40.706   8.855
 5954POPC   C1A 8283  41.550  40.830   8.555
 5954POPC   D2A 8284  41.544  40.735   8.255
 5954POPC   C3A 8285  41.513  40.782   7.955
 5954POPC   C4A 8286  41.551  40.780   7.655
 5954POPC   C1B 8287  41.766  40.683   8.555
 5954POPC   C2B 8288  41.751  40.605   8.255
 5954POPC   C3B 8289  41.815  40.672   7.955
 5954POPC   C4B 8290  41.803  40.692   7.655
 5955POPC   NC3 8291  11.269  36.894   9.455
 5955POPC   PO4 8292  11.289  36.865   9.155
 5955POPC   GL1 8293  11.330  36.926   8.855
 5955POPC   GL2 8294  11.270  36.783   8.855
 5955POPC   C1A 8295  11.305  36.900   8.555
 5955POPC   D2A 8296  11.263  36.889   8.255
 5955POPC   C3A 8297  11.316  36.866   7.955
 5955POPC   C4A 8298  11.296  36.871   7.655
 5955POPC   C1B 8299  11.266  36.617   8.555
 5955POPC   C2B 8300  11.264  36.660   8.255
 5955POPC   C3B 8301  11.301  36.691   7.955
 5955POPC   C4B 8302  11.327  36.643   7.655
 5956POPC   NC3 8303  12.859   9.722   9.455
 5956POPC   PO4 8304  12.819   9.732   9.155
 5956POPC   GL1 8305  12.893   9.759   8.855
 5956POPC   GL2 8306  12.838   9.598   8.855
 5956POPC   C1A 8307  12.831   9.746   8.555
 5956POPC   D2A 8308  12.900   9.704   8.255
 5956POPC   C3A 8309  12.880   9.790   7.955
 5956POPC   C4A 8310  12.856   9.795   7.655
 5956POPC   C1B 8311  12.911   9.505   8.555
 5956POPC   C2B 8312  12.823   9.514   8.255
 5956POPC   C3B 8313  12.885   9.474   7.955
 5956POPC   C4B 8314  12.904   9.549   7.655
 5957POPC   NC3 8315   6.613   0.469   9.455
 5957POPC   PO4 8316   6.664   0.439   9.155
 5957POPC   GL1 8317   6.676   0.446   8.855
 5957POPC   GL2 8318   6.542   0.445   8.855
 5957POPC   C1A 8319   6.645   0.403   8.555
 5957POPC   D2A 8320   6.669   0.460   8.255
 5957POPC   C3A 8321   6.625   0.451   7.955
 5957POPC   C4A 8322   6.625   0.441   7.655
 5957POPC   C1B 8323   6.393   0.401   8.555
 5957POPC   C2B 8324   6.418   0.338   8.255
 5957POPC   C3B 8325   6.440   0.327   7.955
 5957POPC   C4B 8326   6.399   0.324   7.655
 5958POPC   NC3 8327  43.869  36.142   9.455
 5958POPC   PO4 8328  43.934  36.080   9.155
 5958POPC   GL1 8329  43.924  36.122   8.855
 5958POPC   GL2 8330  44.048  36.136   8.855
 5958POPC   C1A 8331  43.924  36.079   8.555
 5958POPC   D2A 8332  43.881  36.079   8.255
 5958POPC   C3A 8333  43.838  36.161   7.955
 5958POPC   C4A 8334  43.881  36.079   7.655
 5958POPC   C1B 8335  44.125  36.164   8.555
 5958POPC   C2B 8336  44.154  36.112   8.255
 5958POPC   C3B 8337  44.105  36.115   7.955
 5958POPC   C4B 8338  44.151  36.167   7.655
 5959POPC   NC3 8339   7.391  15.164   9.455
 5959POPC   PO4 8340   7.394  15.165   9.155
 5959POPC   GL1 8341   7.384  15.157   8.855
 5959POPC   GL2 8342   7.308  15.220   8.855
 5959POPC   C1A 8343   7.459  15.151   8.555
 5959POPC   D2A 8344   7.439  15.154   8.255
 5959POPC   C3A 8345   7.421  15.152   7.955
 5959POPC   C4A 8346   7.376  15.223   7.655
 5959POPC   C1B 8347   7.244  15.276   8.555
 5959POPC   C2B 8348   7.205  15.286   8.255
 5959POPC   C3B 8349   7.187  15.249   7.955
 5959POPC   C4B 8350   7.214  15.273   7.655
 5960POPC   NC3 8351  36.130   5.841   9.455
 5960POPC   PO4 8352  36.129   5.866   9.155
 5960POPC   GL1 8353  36.114   5.872   8.855
 5960POPC   GL2 8354  36.103   5.776   8.855
 5960POPC   C1A 8355  36.165   5.840   8.555
 5960POPC   D2A 8356  36.134   5.918   8.255
 5960POPC   C3A 8357  36.093   5.858   7.955
 5960POPC   C4A 8358  36.173   5.888   7.655
 5960POPC   C1B 8359  36.023   5.659   8.555
 5960POPC   C2B 8360  36.032   5.635   8.255
 5960POPC   C3B 8361  35.972   5.605   7.955
 5960POPC   C4B 8362  36.017   5.635   7.655
 5961POPC   NC3 8363  31.458  28.405   9.455
 5961POPC   PO4 8364  31.439  28.409   9.155
 5961POPC   GL1 8365  31.436  28.411   8.855
 5961POPC   GL2 8366  31.639  28.387   8.855
 5961POPC   C1A 8367  31.447  28.332   8.555
 5961POPC   D2A 8368  31.477  28.392   8.255
 5961POPC   C3A 8369  31.444  28.329   7.955
 5961POPC   C4A 8370  31.450  28.358   7.655
 5961POPC   C1B 8371  31.672  28.311   8.555
 5961POPC   C2B 8372  31.765  28.369   8.255
 5961POPC   C3B 8373  31.753  28.288   7.955
 5961POPC   C4B 8374  31.717  28.380   7.655
 5962POPC   NC3 8375  35.311  27.599   9.455
 5962POPC   PO4 8376  35.362  27.585   9.155
 5962POPC   GL1 8377  35.316  27.593   8.855
 5962POPC   GL2 8378  35.384  27.705   8.855
 5962POPC   C1A 8379  35.400  27.602   8.555
 5962POPC   D2A 8380  35.363  27.575   8.255
 5962POPC   C3A 8381  35.331  27.579   7.955
 5962POPC   C4A 8382  35.318  27.595   7.655
 5962POPC   C1B 8383  35.439  27.861   8.555
 5962POPC   C2B 8384  35.399  27.783   8.255
 5962POPC   C3B 8385  35.440  27.829   7.955
 5962POPC   C4B 8386  35.450  27.861   7.655
 5963POPC   NC3 8387  39.185  29.124   9.455
 5963POPC   PO4 8388  39.224  29.174   9.155
 5963POPC   GL1 8389  39.253  29.184   8.855
 5963POPC   GL2 8390  39.341  29.123   8.855
 5963POPC   C1A 8391  39.269  29.120   8.555
 5963POPC   D2A 8392  39.194  29.156   8.255
 5963POPC   C3A 8393  39.185  29.136   7.955
 5963POPC   C4A 8394  39.214  29.192   7.655
 5963POPC   C1B 8395  39.443  29.190   8.555
 5963POPC   C2B 8396  39.502  29.180   8.255
 5963POPC   C3B 8397  39.473  29.157   7.955
 5963POPC   C4B 8398  39.485  29.200   7.655
 5964POPC   NC3 8399  29.146   0.435   9.455
 5964POPC   PO4 8400  29.137   0.439   9.155
 5964POPC   GL1 8401  29.146   0.392   8.855
 5964POPC   GL2 8402  29.235   0.436   8.855
 5964POPC   C1A 8403  29.195   0.401   8.555
 5964POPC   D2A 8404  29.180   0.403   8.255
 5964POPC   C3A 8405  29.106   0.394   7.955
 5964POPC   C4A 8406  29.097   0.423   7.655
 5964POPC   C1B 8407  29.347   0.499   8.555
 5964POPC   C2B 8408  29.377   0.498   8.255
 5964POPC   C3B 8409  29.386   0.554   7.955
 5964POPC   C4B 8410  29.421   0.503   7.655
 5965POPC   NC3 8411   7.407  23.709   9.455
 5965POPC   PO4 8412   7.395  23.708   9.155
 5965POPC   GL1 8413   7.449  23.670   8.855
 5965POPC   GL2 8414   7.563  23.741   8.855
 5965POPC   C1A 8415   7.415  23.713   8.555
 5965POPC   D2A 8416   7.385  23.724   8.255
 5965POPC   C3A 8417   7.453  23.677   7.955
 5965POPC   C4A 8418   7.428  23.682   7.655
 5965POPC   C1B 8419   7.696  23.701   8.555
 5965POPC   C2B 8420   7.619  23.725   8.255
 5965POPC   C3B 8421   7.657  23.739   7.955
 5965POPC   C4B 8422   7.682  23.774   7.655
 5966POPC   NC3 8423  43.913  26.830   9.455
 5966POPC   PO4 8424  43.896  26.856   9.155
 5966POPC   GL1 8425  43.923  26.839   8.855
 5966POPC   GL2 8426  43.822  26.955   8.855
 5966POPC   C1A 8427  43.904  26.857   8.555
 5966POPC   D2A 8428  43.839  26.769   8.255
 5966POPC   C3A 8429  43.889  26.823   7.955
 5966POPC   C4A 8430  43.844  26.768   7.655
 5966POPC   C1B 8431  43.845  27.074   8.555
 5966POPC   C2B 8432  43.771  27.050   8.255
 5966POPC   C3B 8433  43.796  27.041   7.955
 5966POPC   C4B 8434  43.805  27.049   7.655
 5967POPC   NC3 8435  10.519  43.881   9.455
 5967POPC   PO4 8436  10.548  43.933   9.155
 5967POPC   GL1 8437  10.491  43.916   8.855
 5967POPC   GL2 8438  10.569  43.825   8.855
 5967POPC   C1A 8439  10.507  43.881   8.555
 5967POPC   D2A 8440  10.516  43.904   8.255
 5967POPC   C3A 8441  10.558  43.897   7.955
 5967POPC   C4A 8442  10.475  43.918   7.655
 5967POPC   C1B 8443  10.706  43.715   8.555
 5967POPC   C2B 8444  10.665  43.754   8.255
 5967POPC   C3B 8445  10.720  43.721   7.955
 5967POPC   C4B 8446  10.666  43.745   7.655
 5968POPC   NC3 8447  44.688  38.418   9.455
 5968POPC   PO4 8448  44.700  38.427   9.155
 5968POPC   GL1 8449  44.694  38.484   8.855
 5968POPC   GL2 8450  44.762  38.569   8.855
 5968POPC   C1A 8451  44.653  38.438   8.555
 5968POPC   D2A 8452  44.617  38.448   8.255
 5968POPC   C3A 8453  44.669  38.414   7.955
 5968POPC   C4A 8454  44.706  38.426   7.655
 5968POPC   C1B 8455  44.909  38.556   8.555
 5968POPC   C2B 8456  44.855  38.615   8.255
 5968POPC   C3B 8457  44.873  38.608   7.955
 5968POPC   C4B 8458  44.906  38.629   7.655
 5969POPC   NC3 8459  41.546  23.668   9.455
 5969POPC   PO4 8460  41.549  23.709   9.155
 5969POPC   GL1 8461  41.563  23.741   8.855
 5969POPC   GL2 8462  41.482  23.643   8.855
 5969POPC   C1A 8463  41.588  23.687   8.555
 5969POPC   D2A 8464  41.608  23.679   8.255
 5969POPC   C3A 8465  41.573  23.712   7.955
 5969POPC   C4A 8466  41.604  23.676   7.655
 5969POPC   C1B 8467  41.373  23.596   8.555
 5969POPC   C2B 8468  41.378  23.531   8.255
 5969POPC   C3B 8469  41.350  23.534   7.955
 5969POPC   C4B 8470  41.344  23.580   7.655
 5970POPC   NC3 8471  10.564  22.183   9.455
 5970POPC   PO4 8472  10.510  22.175   9.155
 5970POPC   GL1 8473  10.489  22.157   8.855
 5970POPC   GL2 8474  10.689  22.162   8.855
 5970POPC   C1A 8475  10.530  22.160   8.555
 5970POPC   D2A 8476  10.516  22.206   8.255
 5970POPC   C3A 8477  10.478  22.179   7.955
 5970POPC   C4A 8478  10.484  22.194   7.655
 5970POPC   C1B 8479  10.790  22.199   8.555
 5970POPC   C2B 8480  10.753  22.191   8.255
 5970POPC   C3B 8481  10.813  22.137   7.955
 5970POPC   C4B 8482  10.745  22.171   7.655
 5971POPC   NC3 8483  20.579   6.630   9.455
 5971POPC   PO4 8484  20.620   6.664   9.155
 5971POPC   GL1 8485  20.637   6.673   8.855
 5971POPC   GL2 8486  20.516   6.664   8.855
 5971POPC   C1A 8487  20.618   6.601   8.555
 5971POPC   D2A 8488  20.572   6.635   8.255
 5971POPC   C3A 8489  20.629   6.628   7.955
 5971POPC   C4A 8490  20.634   6.621   7.655
 5971POPC   C1B 8491  20.417   6.725   8.555
 5971POPC   C2B 8492  20.396   6.767   8.255
 5971POPC   C3B 8493  20.375   6.724   7.955
 5971POPC   C4B 8494  20.329   6.697   7.655
 5972POPC   NC3 8495  27.543  22.177   9.455
 5972POPC   PO4 8496  27.629  22.138   9.155
 5972POPC   GL1 8497  27.635  22.146   8.855
 5972POPC   GL2 8498  27.496  22.177   8.855
 5972POPC   C1A 8499  27.603  22.160   8.555
 5972POPC   D2A 8500  27.581  22.198   8.255
 5972POPC   C3A 8501  27.551  22.202   7.955
 5972POPC   C4A 8502  27.643  22.178   7.655
 5972POPC   C1B 8503  27.297  22.204   8.555
 5972POPC   C2B 8504  27.329  22.236   8.255
 5972POPC   C3B 8505  27.322  22.230   7.955
 5972POPC   C4B 8506  27.330  22.157   7.655
 5973POPC   NC3 8507   1.206  19.021   9.455
 5973POPC   PO4 8508   1.260  19.080   9.155
 5973POPC   GL1 8509   1.240  19.100   8.855
 5973POPC   GL2 8510   1.307  19.062   8.855
 5973POPC   C1A 8511   1.214  19.087   8.555
 5973POPC   D2A 8512   1.216  19.071   8.255
 5973POPC   C3A 8513   1.204  19.040   7.955
 5973POPC   C4A 8514   1.212  19.057   7.655
 5973POPC   C1B 8515   1.471  18.979   8.555
 5973POPC   C2B 8516   1.469  19.013   8.255
 5973POPC   C3B 8517   1.472  19.020   7.955
 5973POPC   C4B 8518   1.477  18.976   7.655
 5974POPC   NC3 8519  38.480  23.715   9.455
 5974POPC   PO4 8520  38.442  23.687   9.155
 5974POPC   GL1 8521  38.468  23.719   8.855
 5974POPC   GL2 8522  38.454  23.572   8.855
 5974POPC   C1A 8523  38.429  23.696   8.555
 5974POPC   D2A 8524  38.471  23.690   8.255
 5974POPC   C3A 8525  38.487  23.676   7.955
 5974POPC   C4A 8526  38.453  23.740   7.655
 5974POPC   C1B 8527  38.431  23.495   8.555
 5974POPC   C2B 8528  38.393  23.450   8.255
 5974POPC   C3B 8529  38.421  23.512   7.955
 5974POPC   C4B 8530  38.417  23.479   7.655
 5975POPC   NC3 8531  25.222  30.654   9.455
 5975POPC   PO4 8532  25.243  30.661   9.155
 5975POPC   GL1 8533  25.238  30.685   8.855
 5975POPC   GL2 8534  25.273  30.566   8.855
 5975POPC   C1A 8535  25.280  30.647   8.555
 5975POPC   D2A 8536  25.235  30.697   8.255
 5975POPC   C3A 8537  25.241  30.673   7.955
 5975POPC   C4A 8538  25.293  30.718   7.655
 5975POPC   C1B 8539  25.375  30.489   8.555
 5975POPC   C2B 8540  25.400  30.439   8.255
 5975POPC   C3B 8541  25.389  30.460   7.955
 5975POPC   C4B 8542  25.353  30.502   7.655
 5976POPC   NC3 8543   4.347  32.252   9.455
 5976POPC   PO4 8544   4.330  32.232   9.155
 5976POPC   GL1 8545   4.295  32.252   8.855
 5976POPC   GL2 8546   4.330  32.422   8.855
 5976POPC   C1A 8547   4.359  32.204   8.555
 5976POPC   D2A 8548   4.306  32.283   8.255
 5976POPC   C3A 8549   4.322  32.262   7.955
 5976POPC   C4A 8550   4.356  32.277   7.655
 5976POPC   C1B 8551   4.379  32.523   8.555
 5976POPC   C2B 8552   4.350  32.471   8.255
 5976POPC   C3B 8553   4.312  32.455   7.955
 5976POPC   C4B 8554   4.366  32.448   7.655
 5977POPC   NC3 8555  26.778   8.235   9.455
 5977POPC   PO4 8556  26.823   8.153   9.155
 5977POPC   GL1 8557  26.819   8.168   8.855
 5977POPC   GL2 8558  26.697   8.132   8.855
 5977POPC   C1A 8559  26.770   8.227   8.555
 5977POPC   D2A 8560  26.793   8.191   8.255
 5977POPC   C3A 8561  26.840   8.147   7.955
 5977POPC   C4A 8562  26.770   8.196   7.655
 5977POPC   C1B 8563  26.634   8.016   8.555
 5977POPC   C2B 8564  26.611   8.058   8.255
 5977POPC   C3B 8565  26.609   8.045   7.955
 5977POPC   C4B 8566  26.604   8.009   7.655
 5978POPC   NC3 8567  20.583  38.505   9.455
 5978POPC   PO4 8568  20.576  38.502   9.155
 5978POPC   GL1 8569  20.616  38.462   8.855
 5978POPC   GL2 8570  20.528  38.373   8.855
 5978POPC   C1A 8571  20.567  38.501   8.555
 5978POPC   D2A 8572  20.651  38.479   8.255
 5978POPC   C3A 8573  20.600  38.414   7.955
 5978POPC   C4A 8574  20.659  38.442   7.655
 5978POPC   C1B 8575  20.389  38.273   8.555
 5978POPC   C2B 8576  20.436  38.313   8.255
 5978POPC   C3B 8577  20.404  38.288   7.955
 5978POPC   C4B 8578  20.432  38.317   7.655
 5979POPC   NC3 8579   0.430   7.457   9.455
 5979POPC   PO4 8580   0.429   7.456   9.155
 5979POPC   GL1 8581   0.486   7.419   8.855
 5979POPC   GL2 8582   0.402   7.495   8.855
 5979POPC   C1A 8583   0.412   7.378   8.555
 5979POPC   D2A 8584   0.445   7.456   8.255
 5979POPC   C3A 8585   0.443   7.437   7.955
 5979POPC   C4A 8586   0.395   7.468   7.655
 5979POPC   C1B 8587   0.371   7.625   8.555
 5979POPC   C2B 8588   0.372   7.657   8.255
 5979POPC   C3B 8589   0.396   7.623   7.955
 5979POPC   C4B 8590   0.380   7.628   7.655
 5980POPC   NC3 8591  36.145   5.104   9.455
 5980POPC   PO4 8592  36.166   5.068   9.155
 5980POPC   GL1 8593  36.173   5.108   8.855
 5980POPC   GL2 8594  36.255   5.103   8.855
 5980POPC   C1A 8595  36.163   5.075   8.555
 5980POPC   D2A 8596  36.176   5.074   8.255
 5980POPC   C3A 8597  36.152   5.097   7.955
 5980POPC   C4A 8598  36.115   5.076   7.655
 5980POPC   C1B 8599  36.337   5.013   8.555
 5980POPC   C2B 8600  36.410   5.069   8.255
 5980POPC   C3B 8601  36.379   5.100   7.955
 5980POPC   C4B 8602  36.384   5.029   7.655
 5981POPC   NC3 8603   6.603  36.902   9.455
 5981POPC   PO4 8604   6.677  36.904   9.155
 5981POPC   GL1 8605   6.675  36.939   8.855
 5981POPC   GL2 8606   6.527  36.953   8.855
 5981POPC   C1A 8607   6.610  36.893   8.555
 5981POPC   D2A 8608   6.665  36.945   8.255
 5981POPC   C3A 8609   6.690  36.891   7.955
 5981POPC   C4A 8610   6.630  36.865   7.655
 5981POPC   C1B 8611   6.465  37.091   8.555
 5981POPC   C2B 8612   6.423  37.057   8.255
 5981POPC   C3B 8613   6.500  37.094   7.955
 5981POPC   C4B 8614   6.448  37.019   7.655
 5982POPC   NC3 8615  30.700   4.332   9.455
 5982POPC   PO4 8616  30.719   4.281   9.155
 5982POPC   GL1 8617  30.727   4.360   8.855
 5982POPC   GL2 8618  30.740   4.473   8.855
 5982POPC   C1A 8619  30.714   4.366   8.555
 5982POPC   D2A 8620  30.702   4.320   8.255
 5982POPC   C3A 8621  30.707   4.276   7.955
 5982POPC   C4A 8622  30.649   4.284   7.655
 5982POPC   C1B 8623  30.841   4.571   8.555
 5982POPC   C2B 8624  30.856   4.526   8.255
 5982POPC   C3B 8625  30.816   4.560   7.955
 5982POPC   C4B 8626  30.779   4.587   7.655
 5983POPC   NC3 8627  23.737  10.481   9.455
 5983POPC   PO4 8628  23.725  10.496   9.155
 5983POPC   GL1 8629  23.732  10.528   8.855
 5983POPC   GL2 8630  23.803  10.566   8.855
 5983POPC   C1A 8631  23.718  10.563   8.555
 5983POPC   D2A 8632  23.759  10.551   8.255
 5983POPC   C3A 8633  23.666  10.515   7.955
 5983POPC   C4A 8634  23.719  10.546   7.655
 5983POPC   C1B 8635  23.866  10.637   8.555
 5983POPC   C2B 8636  23.912  10.686   8.255
 5983POPC   C3B 8637  23.922  10.657   7.955
 5983POPC   C4B 8638  23.879  10.678   7.655
 5984POPC   NC3 8639  22.920   9.747   9.455
 5984POPC   PO4 8640  22.954   9.754   9.155
 5984POPC   GL1 8641  22.908   9.702   8.855
 5984POPC   GL2 8642  22.885   9.865   8.855
 5984POPC   C1A 8643  22.940   9.786   8.555
 5984POPC   D2A 8644  22.986   9.766   8.255
 5984POPC   C3A 8645  22.959   9.757   7.955
 5984POPC   C4A 8646  22.978   9.780   7.655
 5984POPC   C1B 8647  22.837   9.992   8.555
 5984POPC   C2B 8648  22.923   9.983   8.255
 5984POPC   C3B 8649  22.892   9.992   7.955
 5984POPC   C4B 8650  22.835  10.005   7.655
 5985POPC   NC3 8651  26.844   9.010   9.455
 5985POPC   PO4 8652  26.837   9.008   9.155
 5985POPC   GL1 8653  26.830   8.985   8.855
 5985POPC   GL2 8654  26.776   9.080   8.855
 5985POPC   C1A 8655  26.849   8.960   8.555
 5985POPC   D2A 8656  26.786   8.986   8.255
 5985POPC   C3A 8657  26.824   8.968   7.955
 5985POPC   C4A 8658  26.842   8.934   7.655
 5985POPC   C1B 8659  26.773   9.240   8.555
 5985POPC   C2B 8660  26.751   9.187   8.255
 5985POPC   C3B 8661  26.729   9.175   7.955
 5985POPC   C4B 8662  26.719   9.198   7.655
 5986POPC   NC3 8663   9.015  43.867   9.455
 5986POPC   PO4 8664   8.930  43.934   9.155
 5986POPC   GL1 8665   8.930  43.849   8.855
 5986POPC   GL2 8666   8.858  43.930   8.855
 5986POPC   C1A 8667   8.984  43.845   8.555
 5986POPC   D2A 8668   8.997  43.839   8.255
 5986POPC   C3A 8669   8.967  43.906   7.955
 5986POPC   C4A 8670   8.925  43.923   7.655
 5986POPC   C1B 8671   8.767  43.905   8.555
 5986POPC   C2B 8672   8.699  43.902   8.255
 5986POPC   C3B 8673   8.714  43.990   7.955
 5986POPC   C4B 8674   8.718  43.925   7.655
 5987POPC   NC3 8675  40.830  44.670   9.455
 5987POPC   PO4 8676  40.754  44.637   9.155
 5987POPC   GL1 8677  40.770  44.635   8.855
 5987POPC   GL2 8678  40.712  44.706   8.855
 5987POPC   C1A 8679  40.831  44.711   8.555
 5987POPC   D2A 8680  40.779  44.640   8.255
 5987POPC   C3A 8681  40.782  44.674   7.955
 5987POPC   C4A 8682  40.799  44.699   7.655
 5987POPC   C1B 8683  40.550  44.780   8.555
 5987POPC   C2B 8684  40.575  44.789   8.255
 5987POPC   C3B 8685  40.618  44.824   7.955
 5987POPC   C4B 8686  40.565  44.759   7.655
 5988POPC   NC3 8687  37.674  26.823   9.455
 5988POPC   PO4 8688  37.721  26.851   9.155
 5988POPC   GL1 8689  37.717  26.798   8.855
 5988POPC   GL2 8690  37.731  26.934   8.855
 5988POPC   C1A 8691  37.660  26.855   8.555
 5988POPC   D2A 8692  37.645  26.786   8.255
 5988POPC   C3A 8693  37.680  26.769   7.955
 5988POPC   C4A 8694  37.678  26.848   7.655
 5988POPC   C1B 8695  37.755  27.080   8.555
 5988POPC   C2B 8696  37.780  27.004   8.255
 5988POPC   C3B 8697  37.757  27.037   7.955
 5988POPC   C4B 8698  37.790  27.049   7.655
 5989POPC   NC3 8699  22.943  43.068   9.455
 5989POPC   PO4 8700  22.916  43.138   9.155
 5989POPC   GL1 8701  22.894  43.114   8.855
 5989POPC   GL2 8702  23.071  43.127   8.855
 5989POPC   C1A 8703  22.949  43.112   8.555
 5989POPC   D2A 8704  22.969  43.144   8.255
 5989POPC   C3A 8705  22.897  43.136   7.955
 5989POPC   C4A 8706  22.910  43.078   7.655
 5989POPC   C1B 8707  23.195  43.183   8.555
 5989POPC   C2B 8708  23.220  43.146   8.255
 5989POPC   C3B 8709  23.197  43.160   7.955
 5989POPC   C4B 8710  23.135  43.115   7.655
 5990POPC   NC3 8711  29.943   2.809   9.455
 5990POPC   PO4 8712  29.921   2.795   9.155
 5990POPC   GL1 8713  29.874   2.749   8.855
 5990POPC   GL2 8714  29.818   2.915   8.855
 5990POPC   C1A 8715  29.875   2.737   8.555
 5990POPC   D2A 8716  29.968   2.802   8.255
 5990POPC   C3A 8717  29.952   2.783   7.955
 5990POPC   C4A 8718  29.884   2.788   7.655
 5990POPC   C1B 8719  29.769   2.965   8.555
 5990POPC   C2B 8720  29.798   2.939   8.255
 5990POPC   C3B 8721  29.825   2.950   7.955
 5990POPC   C4B 8722  29.795   2.967   7.655
 5991POPC   NC3 8723  18.271   1.249   9.455
 5991POPC   PO4 8724  18.247   1.256   9.155
 5991POPC   GL1 8725  18.296   1.186   8.855
 5991POPC   GL2 8726  18.164   1.255   8.855
 5991POPC   C1A 8727  18.303   1.234   8.555
 5991POPC   D2A 8728  18.281   1.257   8.255
 5991POPC   C3A 8729  18.312   1.253   7.955
 5991POPC   C4A 8730  18.309   1.247   7.655
 5991POPC   C1B 8731  18.094   1.283   8.555
 5991POPC   C2B 8732  18.015   1.283   8.255
 5991POPC   C3B 8733  18.068   1.331   7.955
 5991POPC   C4B 8734  18.027   1.339   7.655
 5992POPC   NC3 8735   2.006  11.350   9.455
 5992POPC   PO4 8736   2.001  11.335   9.155
 5992POPC   GL1 8737   1.978  11.264   8.855
 5992POPC   GL2 8738   2.040  11.351   8.855
 5992POPC   C1A 8739   2.039  11.275   8.555
 5992POPC   D2A 8740   1.989  11.290   8.255
 5992POPC   C3A 8741   2.014  11.280   7.955
 5992POPC   C4A 8742   2.006  11.341   7.655
 5992POPC   C1B 8743   2.160  11.435   8.555
 5992POPC   C2B 8744   2.183  11.459   8.255
 5992POPC   C3B 8745   2.152  11.465   7.955
 5992POPC   C4B 8746   2.133  11.434   7.655
 5993POPC   NC3 8747  44.682  34.552   9.455
 5993POPC   PO4 8748  44.635  34.625   9.155
 5993POPC   GL1 8749  44.702  34.573   8.855
 5993POPC   GL2 8750  44.775  34.627   8.855
 5993POPC   C1A 8751  44.630  34.546   8.555
 5993POPC   D2A 8752  44.677  34.589   8.255
 5993POPC   C3A 8753  44.632  34.623   7.955
 5993POPC   C4A 8754  44.689  34.573   7.655
 5993POPC   C1B 8755  44.844  34.767   8.555
 5993POPC   C2B 8756  44.842  34.755   8.255
 5993POPC   C3B 8757  44.862  34.707   7.955
 5993POPC   C4B 8758  44.807  34.696   7.655
 5994POPC   NC3 8759   4.336  22.951   9.455
 5994POPC   PO4 8760   4.305  22.920   9.155
 5994POPC   GL1 8761   4.267  22.974   8.855
 5994POPC   GL2 8762   4.470  22.943   8.855
 5994POPC   C1A 8763   4.314  22.894   8.555
 5994POPC   D2A 8764   4.293  22.904   8.255
 5994POPC   C3A 8765   4.316  22.891   7.955
 5994POPC   C4A 8766   4.354  22.970   7.655
 5994POPC   C1B 8767   4.534  22.890   8.555
 5994POPC   C2B 8768   4.542  22.916   8.255
 5994POPC   C3B 8769   4.556  22.824   7.955
 5994POPC   C4B 8770   4.603  22.863   7.655
 5995POPC   NC3 8771  20.618  11.290   9.455
 5995POPC   PO4 8772  20.599  11.299   9.155
 5995POPC   GL1 8773  20.570  11.271   8.855
 5995POPC   GL2 8774  20.551  11.457   8.855
 5995POPC   C1A 8775  20.577  11.339   8.555
 5995POPC   D2A 8776  20.607  11.348   8.255
 5995POPC   C3A 8777  20.644  11.285   7.955
 5995POPC   C4A 8778  20.578  11.271   7.655
 5995POPC   C1B 8779  20.477  11.495   8.555
 5995POPC   C2B 8780  20.526  11.498   8.255
 5995POPC   C3B 8781  20.553  11.519   7.955
 5995POPC   C4B 8782  20.508  11.509   7.655
 5996POPC   NC3 8783  29.905  38.416   9.455
 5996POPC   PO4 8784  29.879  38.486   9.155
 5996POPC   GL1 8785  29.949  38.468   8.855
 5996POPC   GL2 8786  29.771  38.493   8.855
 5996POPC   C1A 8787  29.914  38.448   8.555
 5996POPC   D2A 8788  29.930  38.453   8.255
 5996POPC   C3A 8789  29.876  38.414   7.955
 5996POPC   C4A 8790  29.881  38.443   7.655
 5996POPC   C1B 8791  29.636  38.463   8.555
 5996POPC   C2B 8792  29.652  38.485   8.255
 5996POPC   C3B 8793  29.712  38.454   7.955
 5996POPC   C4B 8794  29.623  38.431   7.655
 5997POPC   NC3 8795  30.711  30.686   9.455
 5997POPC   PO4 8796  30.686  30.685   9.155
 5997POPC   GL1 8797  30.713  30.649   8.855
 5997POPC   GL2 8798  30.838  30.624   8.855
 5997POPC   C1A 8799  30.711  30.678   8.555
 5997POPC   D2A 8800  30.691  30.675   8.255
 5997POPC   C3A 8801  30.699  30.698   7.955
 5997POPC   C4A 8802  30.738  30.739   7.655
 5997POPC   C1B 8803  30.974  30.657   8.555
 5997POPC   C2B 8804  30.887  30.647   8.255
 5997POPC   C3B 8805  30.899  30.576   7.955
 5997POPC   C4B 8806  30.893  30.624   7.655
 5998POPC   NC3 8807  44.705  10.538   9.455
 5998POPC   PO4 8808  44.645  10.508   9.155
 5998POPC   GL1 8809  44.639  10.558   8.855
 5998POPC   GL2 8810  44.732  10.619   8.855
 5998POPC   C1A 8811  44.676  10.523   8.555
 5998POPC   D2A 8812  44.633  10.475   8.255
 5998POPC   C3A 8813  44.639  10.497   7.955
 5998POPC   C4A 8814  44.616  10.487   7.655
 5998POPC   C1B 8815  44.811  10.701   8.555
 5998POPC   C2B 8816  44.794  10.751   8.255
 5998POPC   C3B 8817  44.777  10.792   7.955
 5998POPC   C4B 8818  44.789  10.743   7.655
 5999POPC   NC3 8819   8.212  43.846   9.455
 5999POPC   PO4 8820   8.183  43.842   9.155
 5999POPC   GL1 8821   8.246  43.875   8.855
 5999POPC   GL2 8822   8.195  43.783   8.855
 5999POPC   C1A 8823   8.236  43.915   8.555
 5999POPC   D2A 8824   8.174  43.881   8.255
 5999POPC   C3A 8825   8.213  43.928   7.955
 5999POPC   C4A 8826   8.161  43.914   7.655
 5999POPC   C1B 8827   8.283  43.659   8.555
 5999POPC   C2B 8828   8.315  43.643   8.255
 5999POPC   C3B 8829   8.300  43.627   7.955
 5999POPC   C4B 8830   8.241  43.631   7.655
 6000POPC   NC3 8831  30.666   3.496   9.455
 6000POPC   PO4 8832  30.668   3.492   9.155
 6000POPC   GL1 8833  30.721   3.587   8.855
 6000POPC   GL2 8834  30.733   3.447   8.855
 6000POPC   C1A 8835  30.743   3.528   8.555
 6000POPC   D2A 8836  30.727   3.521   8.255
 6000POPC   C3A 8837  30.684   3.537   7.955
 6000POPC   C4A 8838  30.711   3.536   7.655
 6000POPC   C1B 8839  30.801   3.364   8.555
 6000POPC   C2B 8840  30.826   3.309   8.255
 6000POPC   C3B 8841  30.844   3.325   7.955
 6000POPC   C4B 8842  30.834   3.293   7.655
 6001POPC   NC3 8843  36.903  10.523   9.455
 6001POPC   PO4 8844  36.855  10.539   9.155
 6001POPC   GL1 8845  36.910  10.566   8.855
 6001POPC   GL2 8846  36.763  10.457   8.855
 6001POPC   C1A 8847  36.861  10.558   8.555
 6001POPC   D2A 8848  36.901  10.513   8.255
 6001POPC   C3A 8849  36.944  10.520   7.955
 6001POPC   C4A 8850  36.891  10.544   7.655
 6001POPC   C1B 8851  36.745  10.414   8.555
 6001POPC   C2B 8852  36.708  10.366   8.255
 6001POPC   C3B 8853  36.707  10.401   7.955
 6001POPC   C4B 8854  36.744  10.420   7.655
 6002POPC   NC3 8855   8.171  23.693   9.455
 6002POPC   PO4 8856   8.227  23.672   9.155
 6002POPC   GL1 8857   8.193  23.719   8.855
 6002POPC   GL2 8858   8.052  23.639   8.855
 6002POPC   C1A 8859   8.225  23.698   8.555
 6002POPC   D2A 8860   8.216  23.670   8.255
 6002POPC   C3A 8861   8.173  23.666   7.955
 6002POPC   C4A 8862   8.180  23.691   7.655
 6002POPC   C1B 8863   7.956  23.596   8.555
 6002POPC   C2B 8864   8.003  23.594   8.255
 6002POPC   C3B 8865   7.989  23.643   7.955
 6002POPC   C4B 8866   7.965  23.616   7.655
 6003POPC   NC3 8867  28.338   3.505   9.455
 6003POPC   PO4 8868  28.353   3.586   9.155
 6003POPC   GL1 8869  28.385   3.569   8.855
 6003POPC   GL2 8870  28.483   3.454   8.855
 6003POPC   C1A 8871  28.412   3.544   8.555
 6003POPC   D2A 8872  28.401   3.562   8.255
 6003POPC   C3A 8873  28.329   3.540   7.955
 6003POPC   C4A 8874  28.342   3.525   7.655
 6003POPC   C1B 8875  28.498   3.294   8.555
 6003POPC   C2B 8876  28.482   3.299   8.255
 6003POPC   C3B 8877  28.515   3.300   7.955
 6003POPC   C4B 8878  28.514   3.317   7.655
 6004POPC   NC3 8879  34.593  26.789   9.455
 6004POPC   PO4 8880  34.582  26.772   9.155
 6004POPC   GL1 8881  34.554  26.775   8.855
 6004POPC   GL2 8882  34.479  26.798   8.855
 6004POPC   C1A 8883  34.615  26.810   8.555
 6004POPC   D2A 8884  34.573  26.865   8.255
 6004POPC   C3A 8885  34.584  26.811   7.955
 6004POPC   C4A 8886  34.594  26.847   7.655
 6004POPC   C1B 8887  34.371  26.779   8.555
 6004POPC   C2B 8888  34.281  26.787   8.255
 6004POPC   C3B 8889  34.298  26.761   7.955
 6004POPC   C4B 8890  34.324  26.844   7.655
 6005POPC   NC3 8891   1.183   9.719   9.455
 6005POPC   PO4 8892   1.172   9.767   9.155
 6005POPC   GL1 8893   1.202   9.779   8.855
 6005POPC   GL2 8894   1.215   9.642   8.855
 6005POPC   C1A 8895   1.231   9.759   8.555
 6005POPC   D2A 8896   1.241   9.748   8.255
 6005POPC   C3A 8897   1.226   9.736   7.955
 6005POPC   C4A 8898   1.218   9.788   7.655
 6005POPC   C1B 8899   1.174   9.460   8.555
 6005POPC   C2B 8900   1.217   9.469   8.255
 6005POPC   C3B 8901   1.194   9.526   7.955
 6005POPC   C4B 8902   1.232   9.482   7.655
 6006POPC   NC3 8903  12.066  42.303   9.455
 6006POPC   PO4 8904  12.063  42.371   9.155
 6006POPC   GL1 8905  12.113  42.303   8.855
 6006POPC   GL2 8906  12.132  42.428   8.855
 6006POPC   C1A 8907  12.114  42.359   8.555
 6006POPC   D2A 8908  12.065  42.285   8.255
 6006POPC   C3A 8909  12.054  42.316   7.955
 6006POPC   C4A 8910  12.036  42.313   7.655
 6006POPC   C1B 8911  12.173  42.498   8.555
 6006POPC   C2B 8912  12.175  42.500   8.255
 6006POPC   C3B 8913  12.176  42.524   7.955
 6006POPC   C4B 8914  12.240  42.532   7.655
 6007POPC   NC3 8915   9.788  34.563   9.455
 6007POPC   PO4 8916   9.714  34.600   9.155
 6007POPC   GL1 8917   9.743  34.555   8.855
 6007POPC   GL2 8918   9.724  34.690   8.855
 6007POPC   C1A 8919   9.733  34.552   8.555
 6007POPC   D2A 8920   9.790  34.602   8.255
 6007POPC   C3A 8921   9.706  34.624   7.955
 6007POPC   C4A 8922   9.742  34.536   7.655
 6007POPC   C1B 8923   9.623  34.773   8.555
 6007POPC   C2B 8924   9.600  34.831   8.255
 6007POPC   C3B 8925   9.645  34.755   7.955
 6007POPC   C4B 8926   9.659  34.852   7.655
 6008POPC   NC3 8927  32.213   0.442   9.455
 6008POPC   PO4 8928  32.264   0.472   9.155
 6008POPC   GL1 8929  32.234   0.457   8.855
 6008POPC   GL2 8930  32.202   0.342   8.855
 6008POPC   C1A 8931  32.220   0.399   8.555
 6008POPC   D2A 8932  32.249   0.466   8.255
 6008POPC   C3A 8933  32.222   0.479   7.955
 6008POPC   C4A 8934  32.249   0.430   7.655
 6008POPC   C1B 8935  32.226   0.162   8.555
 6008POPC   C2B 8936  32.261   0.230   8.255
 6008POPC   C3B 8937  32.248   0.229   7.955
 6008POPC   C4B 8938  32.256   0.165   7.655
 6009POPC   NC3 8939  43.120  41.544   9.455
 6009POPC   PO4 8940  43.106  41.547   9.155
 6009POPC   GL1 8941  43.154  41.546   8.855
 6009POPC   GL2 8942  43.073  41.680   8.855
 6009POPC   C1A 8943  43.115  41.565   8.555
 6009POPC   D2A 8944  43.098  41.526   8.255
 6009POPC   C3A 8945  43.140  41.523   7.955
 6009POPC   C4A 8946  43.075  41.600   7.655
 6009POPC   C1B 8947  43.076  41.789   8.555
 6009POPC   C2B 8948  43.060  41.802   8.255
 6009POPC   C3B 8949  43.092  41.776   7.955
 6009POPC   C4B 8950  43.056  41.790   7.655
 6010POPC   NC3 8951  38.454   2.755   9.455
 6010POPC   PO4 8952  38.431   2.739   9.155
 6010POPC   GL1 8953  38.459   2.759   8.855
 6010POPC   GL2 8954  38.512   2.655   8.855
 6010POPC   C1A 8955  38.473   2.746   8.555
 6010POPC   D2A 8956  38.449   2.787   8.255
 6010POPC   C3A 8957  38.496   2.727   7.955
 6010POPC   C4A 8958  38.469   2.759   7.655
 6010POPC   C1B 8959  38.568   2.536   8.555
 6010POPC   C2B 8960  38.508   2.546   8.255
 6010POPC   C3B 8961  38.501   2.482   7.955
 6010POPC   C4B 8962  38.520   2.535   7.655
 6011POPC   NC3 8963  22.959  12.812   9.455
 6011POPC   PO4 8964  22.952  12.807   9.155
 6011POPC   GL1 8965  22.979  12.883   8.855
 6011POPC   GL2 8966  22.915  12.964   8.855
 6011POPC   C1A 8967  22.899  12.875   8.555
 6011POPC   D2A 8968  22.930  12.859   8.255
 6011POPC   C3A 8969  22.916  12.871   7.955
 6011POPC   C4A 8970  22.928  12.887   7.655
 6011POPC   C1B 8971  23.022  13.092   8.555
 6011POPC   C2B 8972  22.938  13.063   8.255
 6011POPC   C3B 8973  23.003  13.107   7.955
 6011POPC   C4B 8974  23.012  13.129   7.655
 6012POPC   NC3 8975   5.070  43.156   9.455
 6012POPC   PO4 8976   5.071  43.100   9.155
 6012POPC   GL1 8977   5.121  43.109   8.855
 6012POPC   GL2 8978   5.116  43.038   8.855
 6012POPC   C1A 8979   5.096  43.095   8.555
 6012POPC   D2A 8980   5.097  43.086   8.255
 6012POPC   C3A 8981   5.077  43.154   7.955
 6012POPC   C4A 8982   5.071  43.072   7.655
 6012POPC   C1B 8983   5.240  42.881   8.555
 6012POPC   C2B 8984   5.192  42.857   8.255
 6012POPC   C3B 8985   5.178  42.905   7.955
 6012POPC   C4B 8986   5.215  42.940   7.655
 6013POPC   NC3 8987  33.765  37.727   9.455
 6013POPC   PO4 8988  33.800  37.687   9.155
 6013POPC   GL1 8989  33.815  37.648   8.855
 6013POPC   GL2 8990  33.725  37.654   8.855
 6013POPC   C1A 8991  33.783  37.723   8.555
 6013POPC   D2A 8992  33.754  37.646   8.255
 6013POPC   C3A 8993  33.799  37.724   7.955
 6013POPC   C4A 8994  33.826  37.710   7.655
 6013POPC   C1B 8995  33.538  37.689   8.555
 6013POPC   C2B 8996  33.565  37.613   8.255
 6013POPC   C3B 8997  33.579  37.676   7.955
 6013POPC   C4B 8998  33.556  37.625   7.655
 6014POPC   NC3 8999   1.987  43.062   9.455
 6014POPC   PO4 9000   1.978  43.093   9.155
 6014POPC   GL1 9001   1.966  43.152   8.855
 6014POPC   GL2 9002   1.858  43.192   8.855
 6014POPC   C1A 9003   2.023  43.066   8.555
 6014POPC   D2A 9004   1.984  43.060   8.255
 6014POPC   C3A 9005   2.003  43.124   7.955
 6014POPC   C4A 9006   2.024  43.061   7.655
 6014POPC   C1B 9007   1.817  43.260   8.555
 6014POPC   C2B 9008   1.823  43.262   8.255
 6014POPC   C3B 9009   1.847  43.286   7.955
 6014POPC   C4B 9010   1.764  43.276   7.655
 6015POPC   NC3 9011   2.721  32.296   9.455
 6015POPC   PO4 9012   2.749  32.274   9.155
 6015POPC   GL1 9013   2.789  32.211   8.855
 6015POPC   GL2 9014   2.815  32.121   8.855
 6015POPC   C1A 9015   2.760  32.259   8.555
 6015POPC   D2A 9016   2.729  32.291   8.255
 6015POPC   C3A 9017   2.717  32.216   7.955
 6015POPC   C4A 9018   2.754  32.251   7.655
 6015POPC   C1B 9019   2.888  32.063   8.555
 6015POPC   C2B 9020   2.911  32.020   8.255
 6015POPC   C3B 9021   2.908  32.003   7.955
 6015POPC   C4B 9022   2.828  32.002   7.655
 6016POPC   NC3 9023  11.339  22.978   9.455
 6016POPC   PO4 9024  11.286  22.898   9.155
 6016POPC   GL1 9025  11.295  22.962   8.855
 6016POPC   GL2 9026  11.153  22.931   8.855
 6016POPC   C1A 9027  11.250  22.900   8.555
 6016POPC   D2A 9028  11.314  22.890   8.255
 6016POPC   C3A 9029  11.302  22.913   7.955
 6016POPC   C4A 9030  11.302  22.907   7.655
 6016POPC   C1B 9031  11.016  22.952   8.555
 6016POPC   C2B 9032  11.034  23.034   8.255
 6016POPC   C3B 9033  11.093  22.946   7.955
 6016POPC   C4B 9034  11.071  23.013   7.655
 6017POPC   NC3 9035   8.980  35.362   9.455
 6017POPC   PO4 9036   8.965  35.399   9.155
 6017POPC   GL1 9037   8.936  35.346   8.855
 6017POPC   GL2 9038   9.077  35.448   8.855
 6017POPC   C1A 9039   8.940  35.336   8.555
 6017POPC   D2A 9040   8.950  35.394   8.255
 6017POPC   C3A 9041   8.989  35.396   7.955
 6017POPC   C4A 9042   8.968  35.319   7.655
 6017POPC   C1B 9043   9.158  35.507   8.555
 6017POPC   C2B 9044   9.144  35.490   8.255
 6017POPC   C3B 9045   9.150  35.501   7.955
 6017POPC   C4B 9046   9.202  35.537   7.655
 6018POPC   NC3 9047  34.559  30.667   9.455
 6018POPC   PO4 9048  34.575  30.742   9.155
 6018POPC   GL1 9049  34.549  30.651   8.855
 6018POPC   GL2 9050  34.622  30.590   8.855
 6018POPC   C1A 9051  34.599  30.716   8.555
 6018POPC   D2A 9052  34.601  30.737   8.255
 6018POPC   C3A 9053  34.562  30.736   7.955
 6018POPC   C4A 9054  34.602  30.671   7.655
 6018POPC   C1B 9055  34.721  30.533   8.555
 6018POPC   C2B 9056  34.738  30.471   8.255
 6018POPC   C3B 9057  34.749  30.492   7.955
 6018POPC   C4B 9058  34.727  30.561   7.655
 6019POPC   NC3 9059  36.116  18.320   9.455
 6019POPC   PO4 9060  36.146  18.284   9.155
 6019POPC   GL1 9061  36.139  18.308   8.855
 6019POPC   GL2 9062  36.028  18.308   8.855
 6019POPC   C1A 9063  36.089  18.280   8.555
 6019POPC   D2A 9064  36.123  18.331   8.255
 6019POPC   C3A 9065  36.078  18.319   7.955
 6019POPC   C4A 9066  36.129  18.310   7.655
 6019POPC   C1B 9067  35.913  18.333   8.555
 6019POPC   C2B 9068  35.890  18.364   8.255
 6019POPC   C3B 9069  35.873  18.335   7.955
 6019POPC   C4B 9070  35.847  18.355   7.655
 6020POPC   NC3 9071  23.732  41.576   9.455
 6020POPC   PO4 9072  23.758  41.534   9.155
 6020POPC   GL1 9073  23.670  41.555   8.855
 6020POPC   GL2 9074  23.863  41.519   8.855
 6020POPC   C1A 9075  23.720  41.595   8.555
 6020POPC   D2A 9076  23.711  41.565   8.255
 6020POPC   C3A 9077  23.687  41.511   7.955
 6020POPC   C4A 9078  23.723  41.592   7.655
 6020POPC   C1B 9079  23.977  41.438   8.555
 6020POPC   C2B 9080  23.885  41.444   8.255
 6020POPC   C3B 9081  23.950  41.447   7.955
 6020POPC   C4B 9082  23.950  41.392   7.655
 6021POPC   NC3 9083  10.565  30.695   9.455
 6021POPC   PO4 9084  10.523  30.686   9.155
 6021POPC   GL1 9085  10.528  30.661   8.855
 6021POPC   GL2 9086  10.656  30.670   8.855
 6021POPC   C1A 9087  10.520  30.710   8.555
 6021POPC   D2A 9088  10.505  30.651   8.255
 6021POPC   C3A 9089  10.485  30.657   7.955
 6021POPC   C4A 9090  10.493  30.712   7.655
 6021POPC   C1B 9091  10.774  30.666   8.555
 6021POPC   C2B 9092  10.803  30.735   8.255
 6021POPC   C3B 9093  10.770  30.739   7.955
 6021POPC   C4B 9094  10.764  30.708   7.655
 6022POPC   NC3 9095   5.044  38.451   9.455
 6022POPC   PO4 9096   5.099  38.468   9.155
 6022POPC   GL1 9097   5.139  38.416   8.855
 6022POPC   GL2 9098   5.130  38.356   8.855
 6022POPC   C1A 9099   5.046  38.483   8.555
 6022POPC   D2A 9100   5.100  38.505   8.255
 6022POPC   C3A 9101   5.082  38.501   7.955
 6022POPC   C4A 9102   5.121  38.503   7.655
 6022POPC   C1B 9103   5.201  38.228   8.555
 6022POPC   C2B 9104   5.171  38.267   8.255
 6022POPC   C3B 9105   5.176  38.198   7.955
 6022POPC   C4B 9106   5.225  38.191   7.655
 6023POPC   NC3 9107  34.563  29.100   9.455
 6023POPC   PO4 9108  34.598  29.181   9.155
 6023POPC   GL1 9109  34.604  29.164   8.855
 6023POPC   GL2 9110  34.432  29.055   8.855
 6023POPC   C1A 9111  34.530  29.192   8.555
 6023POPC   D2A 9112  34.558  29.170   8.255
 6023POPC   C3A 9113  34.608  29.099   7.955
 6023POPC   C4A 9114  34.591  29.187   7.655
 6023POPC   C1B 9115  34.346  29.067   8.555
 6023POPC   C2B 9116  34.366  29.041   8.255
 6023POPC   C3B 9117  34.331  29.008   7.955
 6023POPC   C4B 9118  34.388  29.071   7.655
 6024POPC   NC3 9119  40.775  14.366   9.455
 6024POPC   PO4 9120  40.765  14.393   9.155
 6024POPC   GL1 9121  40.825  14.390   8.855
 6024POPC   GL2 9122  40.640  14.419   8.855
 6024POPC   C1A 9123  40.814  14.361   8.555
 6024POPC   D2A 9124  40.745  14.367   8.255
 6024POPC   C3A 9125  40.811  14.397   7.955
 6024POPC   C4A 9126  40.808  14.400   7.655
 6024POPC   C1B 9127  40.569  14.423   8.555
 6024POPC   C2B 9128  40.500  14.390   8.255
 6024POPC   C3B 9129  40.541  14.474   7.955
 6024POPC   C4B 9130  40.532  14.482   7.655
 6025POPC   NC3 9131  27.598   7.460   9.455
 6025POPC   PO4 9132  27.629   7.388   9.155
 6025POPC   GL1 9133  27.557   7.373   8.855
 6025POPC   GL2 9134  27.458   7.446   8.855
 6025POPC   C1A 9135  27.634   7.419   8.555
 6025POPC   D2A 9136  27.629   7.384   8.255
 6025POPC   C3A 9137  27.620   7.391   7.955
 6025POPC   C4A 9138  27.544   7.435   7.655
 6025POPC   C1B 9139  27.353   7.511   8.555
 6025POPC   C2B 9140  27.348   7.455   8.255
 6025POPC   C3B 9141  27.328   7.431   7.955
 6025POPC   C4B 9142  27.360   7.519   7.655
 6026POPC   NC3 9143  13.655  18.314   9.455
 6026POPC   PO4 9144  13.634  18.269   9.155
 6026POPC   GL1 9145  13.596  18.248   8.855
 6026POPC   GL2 9146  13.623  18.431   8.855
 6026POPC   C1A 9147  13.595  18.307   8.555
 6026POPC   D2A 9148  13.662  18.296   8.255
 6026POPC   C3A 9149  13.653  18.242   7.955
 6026POPC   C4A 9150  13.587  18.290   7.655
 6026POPC   C1B 9151  13.602  18.529   8.555
 6026POPC   C2B 9152  13.627  18.554   8.255
 6026POPC   C3B 9153  13.632  18.550   7.955
 6026POPC   C4B 9154  13.639  18.542   7.655
 6027POPC   NC3 9155  24.535   7.421   9.455
 6027POPC   PO4 9156  24.463   7.450   9.155
 6027POPC   GL1 9157  24.522   7.389   8.855
 6027POPC   GL2 9158  24.443   7.551   8.855
 6027POPC   C1A 9159  24.537   7.400   8.555
 6027POPC   D2A 9160  24.526   7.410   8.255
 6027POPC   C3A 9161  24.529   7.377   7.955
 6027POPC   C4A 9162  24.490   7.439   7.655
 6027POPC   C1B 9163  24.496   7.637   8.555
 6027POPC   C2B 9164  24.455   7.692   8.255
 6027POPC   C3B 9165  24.428   7.642   7.955
 6027POPC   C4B 9166  24.497   7.663   7.655
 6028POPC   NC3 9167  24.507  12.110   9.455
 6028POPC   PO4 9168  24.525  12.112   9.155
 6028POPC   GL1 9169  24.455  12.055   8.855
 6028POPC   GL2 9170  24.551  11.958   8.855
 6028POPC   C1A 9171  24.500  12.122   8.555
 6028POPC   D2A 9172  24.450  12.059   8.255
 6028POPC   C3A 9173  24.521  12.103   7.955
 6028POPC   C4A 9174  24.455  12.075   7.655
 6028POPC   C1B 9175  24.640  11.814   8.555
 6028POPC   C2B 9176  24.563  11.902   8.255
 6028POPC   C3B 9177  24.563  11.855   7.955
 6028POPC   C4B 9178  24.655  11.818   7.655
 6029POPC   NC3 9179  15.986  43.841   9.455
 6029POPC   PO4 9180  15.912  43.910   9.155
 6029POPC   GL1 9181  15.983  43.882   8.855
 6029POPC   GL2 9182  15.933  43.973   8.855
 6029POPC   C1A 9183  15.920  43.875   8.555
 6029POPC   D2A 9184  15.906  43.857   8.255
 6029POPC   C3A 9185  15.995  43.861   7.955
 6029POPC   C4A 9186  15.944  43.918   7.655
 6029POPC   C1B 9187  15.940  44.142   8.555
 6029POPC   C2B 9188  16.029  44.135   8.255
 6029POPC   C3B 9189  16.003  44.104   7.955
 6029POPC   C4B 9190  15.933  44.127   7.655
 6030POPC   NC3 9191  22.201  30.657   9.455
 6030POPC   PO4 9192  22.186  30.661   9.155
 6030POPC   GL1 9193  22.182  30.735   8.855
 6030POPC   GL2 9194  22.310  30.696   8.855
 6030POPC   C1A 9195  22.165  30.664   8.555
 6030POPC   D2A 9196  22.186  30.707   8.255
 6030POPC   C3A 9197  22.147  30.721   7.955
 6030POPC   C4A 9198  22.203  30.684   7.655
 6030POPC   C1B 9199  22.356  30.648   8.555
 6030POPC   C2B 9200  22.414  30.612   8.255
 6030POPC   C3B 9201  22.444  30.595   7.955
 6030POPC   C4B 9202  22.444  30.604   7.655
 6031POPC   NC3 9203  38.471   5.841   9.455
 6031POPC   PO4 9204  38.465   5.875   9.155
 6031POPC   GL1 9205  38.443   5.824   8.855
 6031POPC   GL2 9206  38.475   5.986   8.855
 6031POPC   C1A 9207  38.470   5.915   8.555
 6031POPC   D2A 9208  38.460   5.898   8.255
 6031POPC   C3A 9209  38.415   5.821   7.955
 6031POPC   C4A 9210  38.473   5.841   7.655
 6031POPC   C1B 9211  38.557   6.060   8.555
 6031POPC   C2B 9212  38.542   6.129   8.255
 6031POPC   C3B 9213  38.518   6.130   7.955
 6031POPC   C4B 9214  38.601   6.053   7.655
 6032POPC   NC3 9215  35.327  12.096   9.455
 6032POPC   PO4 9216  35.350  12.054   9.155
 6032POPC   GL1 9217  35.375  12.076   8.855
 6032POPC   GL2 9218  35.440  11.988   8.855
 6032POPC   C1A 9219  35.353  12.043   8.555
 6032POPC   D2A 9220  35.342  12.079   8.255
 6032POPC   C3A 9221  35.339  12.085   7.955
 6032POPC   C4A 9222  35.366  12.101   7.655
 6032POPC   C1B 9223  35.459  11.860   8.555
 6032POPC   C2B 9224  35.490  11.863   8.255
 6032POPC   C3B 9225  35.453  11.819   7.955
 6032POPC   C4B 9226  35.453  11.818   7.655
 6033POPC   NC3 9227   7.387  22.196   9.455
 6033POPC   PO4 9228   7.391  22.204   9.155
 6033POPC   GL1 9229   7.425  22.127   8.855
 6033POPC   GL2 9230   7.519  22.047   8.855
 6033POPC   C1A 9231   7.444  22.113   8.555
 6033POPC   D2A 9232   7.403  22.163   8.255
 6033POPC   C3A 9233   7.468  22.147   7.955
 6033POPC   C4A 9234   7.387  22.160   7.655
 6033POPC   C1B 9235   7.622  22.043   8.555
 6033POPC   C2B 9236   7.620  22.016   8.255
 6033POPC   C3B 9237   7.613  22.053   7.955
 6033POPC   C4B 9238   7.641  22.032   7.655
 6034POPC   NC3 9239  10.481  28.358   9.455
 6034POPC   PO4 9240  10.518  28.364   9.155
 6034POPC   GL1 9241  10.479  28.319   8.855
 6034POPC   GL2 9242  10.497  28.427   8.855
 6034POPC   C1A 9243  10.480  28.385   8.555
 6034POPC   D2A 9244  10.477  28.362   8.255
 6034POPC   C3A 9245  10.573  28.361   7.955
 6034POPC   C4A 9246  10.535  28.366   7.655
 6034POPC   C1B 9247  10.427  28.629   8.555
 6034POPC   C2B 9248  10.394  28.547   8.255
 6034POPC   C3B 9249  10.440  28.585   7.955
 6034POPC   C4B 9250  10.391  28.550   7.655
 6035POPC   NC3 9251  11.282  33.786   9.455
 6035POPC   PO4 9252  11.334  33.839   9.155
 6035POPC   GL1 9253  11.342  33.775   8.855
 6035POPC   GL2 9254  11.346  33.861   8.855
 6035POPC   C1A 9255  11.286  33.848   8.555
 6035POPC   D2A 9256  11.275  33.793   8.255
 6035POPC   C3A 9257  11.276  33.806   7.955
 6035POPC   C4A 9258  11.291  33.831   7.655
 6035POPC   C1B 9259  11.419  33.963   8.555
 6035POPC   C2B 9260  11.431  34.035   8.255
 6035POPC   C3B 9261  11.449  34.048   7.955
 6035POPC   C4B 9262  11.409  34.040   7.655
 6036POPC   NC3 9263  32.993  22.179   9.455
 6036POPC   PO4 9264  32.995  22.120   9.155
 6036POPC   GL1 9265  33.056  22.205   8.855
 6036POPC   GL2 9266  33.064  22.062   8.855
 6036POPC   C1A 9267  33.072  22.132   8.555
 6036POPC   D2A 9268  32.999  22.210   8.255
 6036POPC   C3A 9269  33.038  22.143   7.955
 6036POPC   C4A 9270  33.059  22.116   7.655
 6036POPC   C1B 9271  33.194  21.966   8.555
 6036POPC   C2B 9272  33.149  21.988   8.255
 6036POPC   C3B 9273  33.128  21.984   7.955
 6036POPC   C4B 9274  33.208  21.967   7.655
 6037POPC   NC3 9275  43.845   3.503   9.455
 6037POPC   PO4 9276  43.886   3.556   9.155
 6037POPC   GL1 9277  43.840   3.506   8.855
 6037POPC   GL2 9278  43.811   3.482   8.855
 6037POPC   C1A 9279  43.881   3.549   8.555
 6037POPC   D2A 9280  43.863   3.495   8.255
 6037POPC   C3A 9281  43.922   3.590   7.955
 6037POPC   C4A 9282  43.893   3.563   7.655
 6037POPC   C1B 9283  43.649   3.448   8.555
 6037POPC   C2B 9284  43.714   3.403   8.255
 6037POPC   C3B 9285  43.674   3.385   7.955
 6037POPC   C4B 9286  43.711   3.405   7.655
 6038POPC   NC3 9287  33.800  15.160   9.455
 6038POPC   PO4 9288  33.820  15.200   9.155
 6038POPC   GL1 9289  33.821  15.195   8.855
 6038POPC   GL2 9290  33.682  15.313   8.855
 6038POPC   C1A 9291  33.849  15.183   8.555
 6038POPC   D2A 9292  33.766  15.164   8.255
 6038POPC   C3A 9293  33.850  15.212   7.955
 6038POPC   C4A 9294  33.834  15.149   7.655
 6038POPC   C1B 9295  33.628  15.398   8.555
 6038POPC   C2B 9296  33.657  15.432   8.255
 6038POPC   C3B 9297  33.664  15.387   7.955
 6038POPC   C4B 9298  33.669  15.367   7.655
 6039POPC   NC3 9299   2.032  19.053   9.455
 6039POPC   PO4 9300   1.986  19.039   9.155
 6039POPC   GL1 9301   2.005  19.059   8.855
 6039POPC   GL2 9302   1.896  19.156   8.855
 6039POPC   C1A 9303   1.956  19.092   8.555
 6039POPC   D2A 9304   1.979  19.024   8.255
 6039POPC   C3A 9305   2.011  19.061   7.955
 6039POPC   C4A 9306   2.012  19.012   7.655
 6039POPC   C1B 9307   1.821  19.220   8.555
 6039POPC   C2B 9308   1.786  19.203   8.255
 6039POPC   C3B 9309   1.777  19.197   7.955
 6039POPC   C4B 9310   1.748  19.181   7.655
 6040POPC   NC3 9311   8.168  37.695   9.455
 6040POPC   PO4 9312   8.160  37.670   9.155
 6040POPC   GL1 9313   8.212  37.659   8.855
 6040POPC   GL2 9314   8.140  37.574   8.855
 6040POPC   C1A 9315   8.238  37.699   8.555
 6040POPC   D2A 9316   8.227  37.674   8.255
 6040POPC   C3A 9317   8.219  37.673   7.955
 6040POPC   C4A 9318   8.214  37.706   7.655
 6040POPC   C1B 9319   8.185  37.460   8.555
 6040POPC   C2B 9320   8.192  37.383   8.255
 6040POPC   C3B 9321   8.120  37.467   7.955
 6040POPC   C4B 9322   8.175  37.427   7.655
 6041POPC   NC3 9323  20.564  35.304   9.455
 6041POPC   PO4 9324  20.620  35.357   9.155
 6041POPC   GL1 9325  20.652  35.361   8.855
 6041POPC   GL2 9326  20.644  35.482   8.855
 6041POPC   C1A 9327  20.603  35.373   8.555
 6041POPC   D2A 9328  20.625  35.384   8.255
 6041POPC   C3A 9329  20.630  35.330   7.955
 6041POPC   C4A 9330  20.639  35.356   7.655
 6041POPC   C1B 9331  20.774  35.579   8.555
 6041POPC   C2B 9332  20.708  35.572   8.255
 6041POPC   C3B 9333  20.764  35.541   7.955
 6041POPC   C4B 9334  20.722  35.528   7.655
 6042POPC   NC3 9335  44.670   1.953   9.455
 6042POPC   PO4 9336  44.649   1.979   9.155
 6042POPC   GL1 9337  44.650   2.020   8.855
 6042POPC   GL2 9338  44.600   1.820   8.855
 6042POPC   C1A 9339  44.683   2.028   8.555
 6042POPC   D2A 9340  44.629   1.998   8.255
 6042POPC   C3A 9341  44.703   1.944   7.955
 6042POPC   C4A 9342  44.675   2.036   7.655
 6042POPC   C1B 9343  44.604   1.707   8.555
 6042POPC   C2B 9344  44.568   1.730   8.255
 6042POPC   C3B 9345  44.597   1.734   7.955
 6042POPC   C4B 9346  44.659   1.717   7.655
 6043POPC   NC3 9347   7.410  36.125   9.455
 6043POPC   PO4 9348   7.398  36.104   9.155
 6043POPC   GL1 9349   7.455  36.108   8.855
 6043POPC   GL2 9350   7.385  35.972   8.855
 6043POPC   C1A 9351   7.407  36.173   8.555
 6043POPC   D2A 9352   7.411  36.107   8.255
 6043POPC   C3A 9353   7.419  36.089   7.955
 6043POPC   C4A 9354   7.433  36.086   7.655
 6043POPC   C1B 9355   7.278  35.907   8.555
 6043POPC   C2B 9356   7.249  35.899   8.255
 6043POPC   C3B 9357   7.317  35.962   7.955
 6043POPC   C4B 9358   7.329  35.905   7.655
 6044POPC   NC3 9359   8.998  29.098   9.455
 6044POPC   PO4 9360   9.012  29.131   9.155
 6044POPC   GL1 9361   8.965  29.146   8.855
 6044POPC   GL2 9362   8.989  29.026   8.855
 6044POPC   C1A 9363   8.987  29.100   8.555
 6044POPC   D2A 9364   8.986  29.177   8.255
 6044POPC   C3A 9365   8.999  29.168   7.955
 6044POPC   C4A 9366   8.999  29.131   7.655
 6044POPC   C1B 9367   8.997  28.879   8.555
 6044POPC   C2B 9368   8.976  28.938   8.255
 6044POPC   C3B 9369   9.043  28.880   7.955
 6044POPC   C4B 9370   9.029  28.884   7.655
 6045POPC   NC3 9371  10.546  26.025   9.455
 6045POPC   PO4 9372  10.559  26.025   9.155
 6045POPC   GL1 9373  10.568  26.033   8.855
 6045POPC   GL2 9374  10.403  26.000   8.855
 6045POPC   C1A 9375  10.479  26.014   8.555
 6045POPC   D2A 9376  10.478  26.032   8.255
 6045POPC   C3A 9377  10.558  26.089   7.955
 6045POPC   C4A 9378  10.560  26.046   7.655
 6045POPC   C1B 9379  10.347  25.950   8.555
 6045POPC   C2B 9380  10.267  25.884   8.255
 6045POPC   C3B 9381  10.301  25.912   7.955
 6045POPC   C4B 9382  10.334  25.923   7.655
 6046POPC   NC3 9383  21.407   1.943   9.455
 6046POPC   PO4 9384  21.396   1.974   9.155
 6046POPC   GL1 9385  21.430   2.026   8.855
 6046POPC   GL2 9386  21.506   1.896   8.855
 6046POPC   C1A 9387  21.384   1.964   8.555
 6046POPC   D2A 9388  21.405   2.016   8.255
 6046POPC   C3A 9389  21.426   1.986   7.955
 6046POPC   C4A 9390  21.420   2.034   7.655
 6046POPC   C1B 9391  21.626   1.804   8.555
 6046POPC   C2B 9392  21.560   1.857   8.255
 6046POPC   C3B 9393  21.553   1.855   7.955
 6046POPC   C4B 9394  21.592   1.864   7.655
 6047POPC   NC3 9395  43.071   9.709   9.455
 6047POPC   PO4 9396  43.150   9.751   9.155
 6047POPC   GL1 9397  43.099   9.701   8.855
 6047POPC   GL2 9398  43.014   9.879   8.855
 6047POPC   C1A 9399  43.116   9.784   8.555
 6047POPC   D2A 9400  43.146   9.759   8.255
 6047POPC   C3A 9401  43.114   9.718   7.955
 6047POPC   C4A 9402  43.139   9.775   7.655
 6047POPC   C1B 9403  42.974   9.974   8.555
 6047POPC   C2B 9404  42.887   9.896   8.255
 6047POPC   C3B 9405  42.905   9.897   7.955
 6047POPC   C4B 9406  42.959   9.966   7.655
 6048POPC   NC3 9407  29.185  20.581   9.455
 6048POPC   PO4 9408  29.144  20.567   9.155
 6048POPC   GL1 9409  29.099  20.621   8.855
 6048POPC   GL2 9410  29.265  20.566   8.855
 6048POPC   C1A 9411  29.194  20.560   8.555
 6048POPC   D2A 9412  29.111  20.651   8.255
 6048POPC   C3A 9413  29.145  20.638   7.955
 6048POPC   C4A 9414  29.164  20.628   7.655
 6048POPC   C1B 9415  29.312  20.461   8.555
 6048POPC   C2B 9416  29.363  20.440   8.255
 6048POPC   C3B 9417  29.371  20.496   7.955
 6048POPC   C4B 9418  29.383  20.469   7.655
 6049POPC   NC3 9419  34.616   8.994   9.455
 6049POPC   PO4 9420  34.598   9.007   9.155
 6049POPC   GL1 9421  34.595   9.003   8.855
 6049POPC   GL2 9422  34.676   8.874   8.855
 6049POPC   C1A 9423  34.571   9.015   8.555
 6049POPC   D2A 9424  34.591   8.995   8.255
 6049POPC   C3A 9425  34.619   8.951   7.955
 6049POPC   C4A 9426  34.578   8.956   7.655
 6049POPC   C1B 9427  34.843   8.864   8.555
 6049POPC   C2B 9428  34.809   8.834   8.255
 6049POPC   C3B 9429  34.790   8.898   7.955
 6049POPC   C4B 9430  34.822   8.812   7.655
 6050POPC   NC3 9431   5.824  31.468   9.455
 6050POPC   PO4 9432   5.865  31.496   9.155
 6050POPC   GL1 9433   5.826  31.472   8.855
 6050POPC   GL2 9434   5.803  31.556   8.855
 6050POPC   C1A 9435   5.886  31.436   8.555
 6050POPC   D2A 9436   5.860  31.485   8.255
 6050POPC   C3A 9437   5.836  31.430   7.955
 6050POPC   C4A 9438   5.886  31.507   7.655
 6050POPC   C1B 9439   5.730  31.680   8.555
 6050POPC   C2B 9440   5.723  31.675   8.255
 6050POPC   C3B 9441   5.725  31.719   7.955
 6050POPC   C4B 9442   5.679  31.662   7.655
 6051POPC   NC3 9443  19.877  43.928   9.455
 6051POPC   PO4 9444  19.810  43.904   9.155
 6051POPC   GL1 9445  19.840  43.853   8.855
 6051POPC   GL2 9446  19.963  43.893   8.855
 6051POPC   C1A 9447  19.812  43.876   8.555
 6051POPC   D2A 9448  19.821  43.861   8.255
 6051POPC   C3A 9449  19.857  43.850   7.955
 6051POPC   C4A 9450  19.808  43.922   7.655
 6051POPC   C1B 9451  20.101  43.915   8.555
 6051POPC   C2B 9452  20.078  43.889   8.255
 6051POPC   C3B 9453  20.066  43.853   7.955
 6051POPC   C4B 9454  20.064  43.860   7.655
 6052POPC   NC3 9455   0.423   5.863   9.455
 6052POPC   PO4 9456   0.474   5.910   9.155
 6052POPC   GL1 9457   0.465   5.901   8.855
 6052POPC   GL2 9458   0.413   5.951   8.855
 6052POPC   C1A 9459   0.432   5.913   8.555
 6052POPC   D2A 9460   0.465   5.879   8.255
 6052POPC   C3A 9461   0.455   5.872   7.955
 6052POPC   C4A 9462   0.433   5.862   7.655
 6052POPC   C1B 9463   0.279   6.117   8.555
 6052POPC   C2B 9464   0.288   6.080   8.255
 6052POPC   C3B 9465   0.308   6.029   7.955
 6052POPC   C4B 9466   0.255   6.055   7.655
 6053POPC   NC3 9467  26.039  11.265   9.455
 6053POPC   PO4 9468  26.012  11.348   9.155
 6053POPC   GL1 9469  26.020  11.254   8.855
 6053POPC   GL2 9470  25.980  11.263   8.855
 6053POPC   C1A 9471  26.081  11.335   8.555
 6053POPC   D2A 9472  26.078  11.285   8.255
 6053POPC   C3A 9473  26.031  11.325   7.955
 6053POPC   C4A 9474  26.051  11.300   7.655
 6053POPC   C1B 9475  25.818  11.099   8.555
 6053POPC   C2B 9476  25.808  11.101   8.255
 6053POPC   C3B 9477  25.805  11.128   7.955
 6053POPC   C4B 9478  25.839  11.109   7.655
 6054POPC   NC3 9479  24.500  18.234   9.455
 6054POPC   PO4 9480  24.443  18.313   9.155
 6054POPC   GL1 9481  24.481  18.237   8.855
 6054POPC   GL2 9482  24.566  18.184   8.855
 6054POPC   C1A 9483  24.495  18.249   8.555
 6054POPC   D2A 9484  24.448  18.260   8.255
 6054POPC   C3A 9485  24.487  18.314   7.955
 6054POPC   C4A 9486  24.452  18.272   7.655
 6054POPC   C1B 9487  24.601  18.110   8.555
 6054POPC   C2B 9488  24.671  18.071   8.255
 6054POPC   C3B 9489  24.621  18.077   7.955
 6054POPC   C4B 9490  24.682  18.122   7.655
 6055POPC   NC3 9491  28.371  15.130   9.455
 6055POPC   PO4 9492  28.399  15.148   9.155
 6055POPC   GL1 9493  28.365  15.135   8.855
 6055POPC   GL2 9494  28.485  15.113   8.855
 6055POPC   C1A 9495  28.367  15.158   8.555
 6055POPC   D2A 9496  28.329  15.168   8.255
 6055POPC   C3A 9497  28.415  15.173   7.955
 6055POPC   C4A 9498  28.379  15.199   7.655
 6055POPC   C1B 9499  28.531  14.976   8.555
 6055POPC   C2B 9500  28.565  14.999   8.255
 6055POPC   C3B 9501  28.560  15.044   7.955
 6055POPC   C4B 9502  28.594  14.993   7.655
 6056POPC   NC3 9503  40.050  14.446   9.455
 6056POPC   PO4 9504  39.965  14.407   9.155
 6056POPC   GL1 9505  39.983  14.380   8.855
 6056POPC   GL2 9506  39.919  14.369   8.855
 6056POPC   C1A 9507  40.018  14.373   8.555
 6056POPC   D2A 9508  40.056  14.375   8.255
 6056POPC   C3A 9509  40.056  14.429   7.955
 6056POPC   C4A 9510  40.028  14.374   7.655
 6056POPC   C1B 9511  39.790  14.383   8.555
 6056POPC   C2B 9512  39.781  14.401   8.255
 6056POPC   C3B 9513  39.777  14.393   7.955
 6056POPC   C4B 9514  39.774  14.442   7.655
 6057POPC   NC3 9515  43.849   1.952   9.455
 6057POPC   PO4 9516  43.879   1.951   9.155
 6057POPC   GL1 9517  43.931   2.015   8.855
 6057POPC   GL2 9518  43.875   2.136   8.855
 6057POPC   C1A 9519  43.840   2.015   8.555
 6057POPC   D2A 9520  43.844   2.039   8.255
 6057POPC   C3A 9521  43.918   2.005   7.955
 6057POPC   C4A 9522  43.923   2.018   7.655
 6057POPC   C1B 9523  43.866   2.193   8.555
 6057POPC   C2B 9524  43.861   2.200   8.255
 6057POPC   C3B 9525  43.952   2.253   7.955
 6057POPC   C4B 9526  43.889   2.200   7.655
 6058POPC   NC3 9527  26.778  32.245   9.455
 6058POPC   PO4 9528  26.795  32.261   9.155
 6058POPC   GL1 9529  26.769  32.248   8.855
 6058POPC   GL2 9530  26.879  32.188   8.855
 6058POPC   C1A 9531  26.847  32.249   8.555
 6058POPC   D2A 9532  26.811  32.203   8.255
 6058POPC   C3A 9533  26.817  32.244   7.955
 6058POPC   C4A 9534  26.801  32.294   7.655
 6058POPC   C1B 9535  26.994  32.058   8.555
 6058POPC   C2B 9536  26.923  32.094   8.255
 6058POPC   C3B 9537  26.949  32.017   7.955
 6058POPC   C4B 9538  26.978  32.045   7.655
 6059POPC   NC3 9539  36.923  24.478   9.455
 6059POPC   PO4 9540  36.940  24.473   9.155
 6059POPC   GL1 9541  36.886  24.527   8.855
 6059POPC   GL2 9542  36.916  24.320   8.855
 6059POPC   C1A 9543  36.941  24.536   8.555
 6059POPC   D2A 9544  36.929  24.487   8.255
 6059POPC   C3A 9545  36.928  24.448   7.955
 6059POPC   C4A 9546  36.951  24.509   7.655
 6059POPC   C1B 9547  36.875  24.274   8.555
 6059POPC   C2B 9548  36.814  24.210   8.255
 6059POPC   C3B 9549  36.893  24.292   7.955
 6059POPC   C4B 9550  36.837  24.289   7.655
 6060POPC   NC3 9551   2.793   2.721   9.455
 6060POPC   PO4 9552   2.723   2.778   9.155
 6060POPC   GL1 9553   2.787   2.809   8.855
 6060POPC   GL2 9554   2.600   2.798   8.855
 6060POPC   C1A 9555   2.763   2.758   8.555
 6060POPC   D2A 9556   2.799   2.770   8.255
 6060POPC   C3A 9557   2.787   2.749   7.955
 6060POPC   C4A 9558   2.758   2.803   7.655
 6060POPC   C1B 9559   2.528   2.754   8.555
 6060POPC   C2B 9560   2.546   2.741   8.255
 6060POPC   C3B 9561   2.563   2.738   7.955
 6060POPC   C4B 9562   2.492   2.775   7.655
 6061POPC   NC3 9563  17.493  13.621   9.455
 6061POPC   PO4 9564  17.485  13.640   9.155
 6061POPC   GL1 9565  17.534  13.578   8.855
 6061POPC   GL2 9566  17.610  13.538   8.855
 6061POPC   C1A 9567  17.545  13.583   8.555
 6061POPC   D2A 9568  17.557  13.581   8.255
 6061POPC   C3A 9569  17.511  13.672   7.955
 6061POPC   C4A 9570  17.527  13.660   7.655
 6061POPC   C1B 9571  17.637  13.378   8.555
 6061POPC   C2B 9572  17.648  13.433   8.255
 6061POPC   C3B 9573  17.660  13.425   7.955
 6061POPC   C4B 9574  17.689  13.375   7.655
 6062POPC   NC3 9575   5.878  14.419   9.455
 6062POPC   PO4 9576   5.899  14.420   9.155
 6062POPC   GL1 9577   5.862  14.379   8.855
 6062POPC   GL2 9578   6.007  14.413   8.855
 6062POPC   C1A 9579   5.878  14.428   8.555
 6062POPC   D2A 9580   5.913  14.451   8.255
 6062POPC   C3A 9581   5.880  14.378   7.955
 6062POPC   C4A 9582   5.918  14.375   7.655
 6062POPC   C1B 9583   6.093  14.466   8.555
 6062POPC   C2B 9584   6.132  14.464   8.255
 6062POPC   C3B 9585   6.057  14.524   7.955
 6062POPC   C4B 9586   6.059  14.455   7.655
 6063POPC   NC3 9587  42.384   8.987   9.455
 6063POPC   PO4 9588  42.304   8.959   9.155
 6063POPC   GL1 9589  42.331   8.939   8.855
 6063POPC   GL2 9590  42.261   8.852   8.855
 6063POPC   C1A 9591  42.371   9.014   8.555
 6063POPC   D2A 9592  42.327   8.956   8.255
 6063POPC   C3A 9593  42.370   9.016   7.955
 6063POPC   C4A 9594  42.357   8.955   7.655
 6063POPC   C1B 9595  42.186   8.790   8.555
 6063POPC   C2B 9596  42.128   8.836   8.255
 6063POPC   C3B 9597  42.134   8.844   7.955
 6063POPC   C4B 9598  42.121   8.845   7.655
 6064POPC   NC3 9599  41.567  14.365   9.455
 6064POPC   PO4 9600  41.560  14.453   9.155
 6064POPC   GL1 9601  41.592  14.414   8.855
 6064POPC   GL2 9602  41.530  14.264   8.855
 6064POPC   C1A 9603  41.533  14.371   8.555
 6064POPC   D2A 9604  41.526  14.356   8.255
 6064POPC   C3A 9605  41.522  14.361   7.955
 6064POPC   C4A 9606  41.521  14.437   7.655
 6064POPC   C1B 9607  41.430  14.126   8.555
 6064POPC   C2B 9608  41.472  14.186   8.255
 6064POPC   C3B 9609  41.418  14.138   7.955
 6064POPC   C4B 9610  41.473  14.177   7.655
 6065POPC   NC3 9611  23.709   3.496   9.455
 6065POPC   PO4 9612  23.725   3.560   9.155
 6065POPC   GL1 9613  23.677   3.517   8.855
 6065POPC   GL2 9614  23.688   3.384   8.855
 6065POPC   C1A 9615  23.679   3.540   8.555
 6065POPC   D2A 9616  23.752   3.550   8.255
 6065POPC   C3A 9617  23.740   3.552   7.955
 6065POPC   C4A 9618  23.699   3.515   7.655
 6065POPC   C1B 9619  23.753   3.250   8.555
 6065POPC   C2B 9620  23.720   3.269   8.255
 6065POPC   C3B 9621  23.687   3.309   7.955
 6065POPC   C4B 9622  23.684   3.281   7.655
 6066POPC   NC3 9623  12.858  29.192   9.455
 6066POPC   PO4 9624  12.899  29.101   9.155
 6066POPC   GL1 9625  12.804  29.122   8.855
 6066POPC   GL2 9626  12.740  29.028   8.855
 6066POPC   C1A 9627  12.862  29.120   8.555
 6066POPC   D2A 9628  12.879  29.126   8.255
 6066POPC   C3A 9629  12.863  29.188   7.955
 6066POPC   C4A 9630  12.814  29.116   7.655
 6066POPC   C1B 9631  12.633  28.958   8.555
 6066POPC   C2B 9632  12.642  28.941   8.255
 6066POPC   C3B 9633  12.635  29.011   7.955
 6066POPC   C4B 9634  12.677  29.003   7.655
 6067POPC   NC3 9635  36.132  28.384   9.455
 6067POPC   PO4 9636  36.171  28.407   9.155
 6067POPC   GL1 9637  36.172  28.371   8.855
 6067POPC   GL2 9638  36.199  28.464   8.855
 6067POPC   C1A 9639  36.144  28.368   8.555
 6067POPC   D2A 9640  36.080  28.320   8.255
 6067POPC   C3A 9641  36.149  28.359   7.955
 6067POPC   C4A 9642  36.084  28.342   7.655
 6067POPC   C1B 9643  36.363  28.496   8.555
 6067POPC   C2B 9644  36.321  28.494   8.255
 6067POPC   C3B 9645  36.331  28.442   7.955
 6067POPC   C4B 9646  36.336  28.431   7.655
 6068POPC   NC3 9647  36.108  15.140   9.455
 6068POPC   PO4 9648  36.143  15.182   9.155
 6068POPC   GL1 9649  36.161  15.209   8.855
 6068POPC   GL2 9650  36.031  15.296   8.855
 6068POPC   C1A 9651  36.081  15.161   8.555
 6068POPC   D2A 9652  36.136  15.176   8.255
 6068POPC   C3A 9653  36.177  15.130   7.955
 6068POPC   C4A 9654  36.101  15.226   7.655
 6068POPC   C1B 9655  35.940  15.343   8.555
 6068POPC   C2B 9656  35.971  15.361   8.255
 6068POPC   C3B 9657  36.002  15.399   7.955
 6068POPC   C4B 9658  35.951  15.368   7.655
 6069POPC   NC3 9659  23.734  19.842   9.455
 6069POPC   PO4 9660  23.744  19.829   9.155
 6069POPC   GL1 9661  23.689  19.822   8.855
 6069POPC   GL2 9662  23.775  19.887   8.855
 6069POPC   C1A 9663  23.694  19.872   8.555
 6069POPC   D2A 9664  23.735  19.812   8.255
 6069POPC   C3A 9665  23.738  19.823   7.955
 6069POPC   C4A 9666  23.714  19.817   7.655
 6069POPC   C1B 9667  23.838  20.071   8.555
 6069POPC   C2B 9668  23.853  20.000   8.255
 6069POPC   C3B 9669  23.895  20.070   7.955
 6069POPC   C4B 9670  23.910  20.027   7.655
 6070POPC   NC3 9671   5.879  22.178   9.455
 6070POPC   PO4 9672   5.886  22.209   9.155
 6070POPC   GL1 9673   5.882  22.189   8.855
 6070POPC   GL2 9674   5.943  22.273   8.855
 6070POPC   C1A 9675   5.822  22.176   8.555
 6070POPC   D2A 9676   5.876  22.201   8.255
 6070POPC   C3A 9677   5.885  22.190   7.955
 6070POPC   C4A 9678   5.904  22.117   7.655
 6070POPC   C1B 9679   5.973  22.431   8.555
 6070POPC   C2B 9680   5.924  22.406   8.255
 6070POPC   C3B 9681   5.951  22.358   7.955
 6070POPC   C4B 9682   5.945  22.432   7.655
 6071POPC   NC3 9683   6.656   2.802   9.455
 6071POPC   PO4 9684   6.603   2.760   9.155
 6071POPC   GL1 9685   6.646   2.767   8.855
 6071POPC   GL2 9686   6.736   2.885   8.855
 6071POPC   C1A 9687   6.617   2.804   8.555
 6071POPC   D2A 9688   6.661   2.809   8.255
 6071POPC   C3A 9689   6.615   2.731   7.955
 6071POPC   C4A 9690   6.651   2.730   7.655
 6071POPC   C1B 9691   6.750   2.972   8.555
 6071POPC   C2B 9692   6.724   2.965   8.255
 6071POPC   C3B 9693   6.767   3.021   7.955
 6071POPC   C4B 9694   6.806   2.996   7.655
 6072POPC   NC3 9695   5.883  25.272   9.455
 6072POPC   PO4 9696   5.886  25.272   9.155
 6072POPC   GL1 9697   5.826  25.254   8.855
 6072POPC   GL2 9698   5.837  25.169   8.855
 6072POPC   C1A 9699   5.862  25.297   8.555
 6072POPC   D2A 9700   5.911  25.282   8.255
 6072POPC   C3A 9701   5.821  25.275   7.955
 6072POPC   C4A 9702   5.903  25.278   7.655
 6072POPC   C1B 9703   5.692  25.067   8.555
 6072POPC   C2B 9704   5.671  25.065   8.255
 6072POPC   C3B 9705   5.751  25.077   7.955
 6072POPC   C4B 9706   5.691  25.047   7.655
 6073POPC   NC3 9707  26.852  15.210   9.455
 6073POPC   PO4 9708  26.846  15.199   9.155
 6073POPC   GL1 9709  26.796  15.140   8.855
 6073POPC   GL2 9710  26.679  15.240   8.855
 6073POPC   C1A 9711  26.834  15.226   8.555
 6073POPC   D2A 9712  26.799  15.138   8.255
 6073POPC   C3A 9713  26.789  15.209   7.955
 6073POPC   C4A 9714  26.817  15.167   7.655
 6073POPC   C1B 9715  26.605  15.213   8.555
 6073POPC   C2B 9716  26.609  15.176   8.255
 6073POPC   C3B 9717  26.617  15.208   7.955
 6073POPC   C4B 9718  26.565  15.231   7.655
 6074POPC   NC3 9719   1.955   2.802   9.455
 6074POPC   PO4 9720   1.946   2.784   9.155
 6074POPC   GL1 9721   1.978   2.813   8.855
 6074POPC   GL2 9722   2.047   2.928   8.855
 6074POPC   C1A 9723   1.956   2.814   8.555
 6074POPC   D2A 9724   1.950   2.719   8.255
 6074POPC   C3A 9725   1.958   2.767   7.955
 6074POPC   C4A 9726   2.026   2.813   7.655
 6074POPC   C1B 9727   2.030   2.969   8.555
 6074POPC   C2B 9728   2.029   3.061   8.255
 6074POPC   C3B 9729   1.983   2.978   7.955
 6074POPC   C4B 9730   1.974   3.049   7.655
 6075POPC   NC3 9731  24.512  29.893   9.455
 6075POPC   PO4 9732  24.473  29.945   9.155
 6075POPC   GL1 9733  24.472  29.932   8.855
 6075POPC   GL2 9734  24.328  29.920   8.855
 6075POPC   C1A 9735  24.507  29.956   8.555
 6075POPC   D2A 9736  24.497  29.914   8.255
 6075POPC   C3A 9737  24.458  29.931   7.955
 6075POPC   C4A 9738  24.539  29.965   7.655
 6075POPC   C1B 9739  24.269  29.978   8.555
 6075POPC   C2B 9740  24.249  29.961   8.255
 6075POPC   C3B 9741  24.281  29.925   7.955
 6075POPC   C4B 9742  24.272  29.988   7.655
 6076POPC   NC3 9743  40.820   8.226   9.455
 6076POPC   PO4 9744  40.803   8.168   9.155
 6076POPC   GL1 9745  40.760   8.213   8.855
 6076POPC   GL2 9746  40.846   8.099   8.855
 6076POPC   C1A 9747  40.757   8.156   8.555
 6076POPC   D2A 9748  40.761   8.241   8.255
 6076POPC   C3A 9749  40.810   8.196   7.955
 6076POPC   C4A 9750  40.829   8.224   7.655
 6076POPC   C1B 9751  40.953   7.994   8.555
 6076POPC   C2B 9752  40.983   8.055   8.255
 6076POPC   C3B 9753  40.920   8.065   7.955
 6076POPC   C4B 9754  40.997   8.022   7.655
 6077POPC   NC3 9755  10.499   7.447   9.455
 6077POPC   PO4 9756  10.543   7.390   9.155
 6077POPC   GL1 9757  10.572   7.424   8.855
 6077POPC   GL2 9758  10.579   7.326   8.855
 6077POPC   C1A 9759  10.546   7.379   8.555
 6077POPC   D2A 9760  10.529   7.458   8.255
 6077POPC   C3A 9761  10.496   7.385   7.955
 6077POPC   C4A 9762  10.498   7.427   7.655
 6077POPC   C1B 9763  10.653   7.214   8.555
 6077POPC   C2B 9764  10.606   7.151   8.255
 6077POPC   C3B 9765  10.681   7.209   7.955
 6077POPC   C4B 9766  10.601   7.249   7.655
 6078POPC   NC3 9767  21.384   8.245   9.455
 6078POPC   PO4 9768  21.349   8.240   9.155
 6078POPC   GL1 9769  21.407   8.203   8.855
 6078POPC   GL2 9770  21.283   8.294   8.855
 6078POPC   C1A 9771  21.405   8.184   8.555
 6078POPC   D2A 9772  21.409   8.231   8.255
 6078POPC   C3A 9773  21.359   8.201   7.955
 6078POPC   C4A 9774  21.386   8.233   7.655
 6078POPC   C1B 9775  21.256   8.362   8.555
 6078POPC   C2B 9776  21.218   8.376   8.255
 6078POPC   C3B 9777  21.179   8.418   7.955
 6078POPC   C4B 9778  21.195   8.397   7.655
 6079POPC   NC3 9779  44.622  44.631   9.455
 6079POPC   PO4 9780  44.677  44.673   9.155
 6079POPC   GL1 9781  44.622  44.659   8.855
 6079POPC   GL2 9782  44.541  44.767   8.855
 6079POPC   C1A 9783  44.675  44.645   8.555
 6079POPC   D2A 9784  44.653  44.667   8.255
 6079POPC   C3A 9785  44.624  44.681   7.955
 6079POPC   C4A 9786  44.686  44.693   7.655
 6079POPC   C1B 9787  44.513  44.773   8.555
 6079POPC   C2B 9788  44.493  44.818   8.255
 6079POPC   C3B 9789  44.493  44.851   7.955
 6079POPC   C4B 9790  44.451  44.834   7.655
 6080POPC   NC3 9791  34.594  19.855   9.455
 6080POPC   PO4 9792  34.574  19.872   9.155
 6080POPC   GL1 9793  34.569  19.795   8.855
 6080POPC   GL2 9794  34.632  19.756   8.855
 6080POPC   C1A 9795  34.619  19.792   8.555
 6080POPC   D2A 9796  34.574  19.803   8.255
 6080POPC   C3A 9797  34.616  19.828   7.955
 6080POPC   C4A 9798  34.552  19.852   7.655
 6080POPC   C1B 9799  34.658  19.644   8.555
 6080POPC   C2B 9800  34.744  19.587   8.255
 6080POPC   C3B 9801  34.692  19.585   7.955
 6080POPC   C4B 9802  34.705  19.604   7.655
 6081POPC   NC3 9803  11.337  23.696   9.455
 6081POPC   PO4 9804  11.293  23.712   9.155
 6081POPC   GL1 9805  11.332  23.714   8.855
 6081POPC   GL2 9806  11.472  23.734   8.855
 6081POPC   C1A 9807  11.253  23.692   8.555
 6081POPC   D2A 9808  11.303  23.707   8.255
 6081POPC   C3A 9809  11.335  23.726   7.955
 6081POPC   C4A 9810  11.277  23.734   7.655
 6081POPC   C1B 9811  11.526  23.717   8.555
 6081POPC   C2B 9812  11.566  23.728   8.255
 6081POPC   C3B 9813  11.506  23.740   7.955
 6081POPC   C4B 9814  11.540  23.786   7.655
 6082POPC   NC3 9815  31.452  42.359   9.455
 6082POPC   PO4 9816  31.498  42.314   9.155
 6082POPC   GL1 9817  31.505  42.290   8.855
 6082POPC   GL2 9818  31.454  42.201   8.855
 6082POPC   C1A 9819  31.453  42.336   8.555
 6082POPC   D2A 9820  31.496  42.291   8.255
 6082POPC   C3A 9821  31.496  42.330   7.955
 6082POPC   C4A 9822  31.445  42.373   7.655
 6082POPC   C1B 9823  31.406  42.040   8.555
 6082POPC   C2B 9824  31.479  42.109   8.255
 6082POPC   C3B 9825  31.408  42.106   7.955
 6082POPC   C4B 9826  31.470  42.124   7.655
 6083POPC   NC3 9827   9.780  43.144   9.455
 6083POPC   PO4 9828   9.787  43.063   9.155
 6083POPC   GL1 9829   9.763  43.144   8.855
 6083POPC   GL2 9830   9.804  43.197   8.855
 6083POPC   C1A 9831   9.782  43.075   8.555
 6083POPC   D2A 9832   9.754  43.086   8.255
 6083POPC   C3A 9833   9.726  43.117   7.955
 6083POPC   C4A 9834   9.782  43.144   7.655
 6083POPC   C1B 9835   9.828  43.307   8.555
 6083POPC   C2B 9836   9.895  43.369   8.255
 6083POPC   C3B 9837   9.874  43.334   7.955
 6083POPC   C4B 9838   9.920  43.367   7.655
 6084POPC   NC3 9839   9.012  36.079   9.455
 6084POPC   PO4 9840   9.007  36.104   9.155
 6084POPC   GL1 9841   8.983  36.084   8.855
 6084POPC   GL2 9842   9.093  36.211   8.855
 6084POPC   C1A 9843   8.957  36.167   8.555
 6084POPC   D2A 9844   8.952  36.138   8.255
 6084POPC   C3A 9845   8.927  36.144   7.955
 6084POPC   C4A 9846   9.003  36.121   7.655
 6084POPC   C1B 9847   9.113  36.314   8.555
 6084POPC   C2B 9848   9.153  36.287   8.255
 6084POPC   C3B 9849   9.102  36.297   7.955
 6084POPC   C4B 9850   9.155  36.366   7.655
 6085POPC   NC3 9851  44.643  18.239   9.455
 6085POPC   PO4 9852  44.689  18.258   9.155
 6085POPC   GL1 9853  44.649  18.240   8.855
 6085POPC   GL2 9854  44.706  18.144   8.855
 6085POPC   C1A 9855  44.708  18.252   8.555
 6085POPC   D2A 9856  44.634  18.234   8.255
 6085POPC   C3A 9857  44.653  18.239   7.955
 6085POPC   C4A 9858  44.708  18.289   7.655
 6085POPC   C1B 9859  44.781  18.106   8.555
 6085POPC   C2B 9860  44.763  18.086   8.255
 6085POPC   C3B 9861  44.839  18.025   7.955
 6085POPC   C4B 9862  44.780  18.104   7.655
 6086POPC   NC3 9863  34.580  32.994   9.455
 6086POPC   PO4 9864  34.604  32.995   9.155
 6086POPC   GL1 9865  34.572  33.064   8.855
 6086POPC   GL2 9866  34.579  32.917   8.855
 6086POPC   C1A 9867  34.575  32.984   8.555
 6086POPC   D2A 9868  34.590  33.045   8.255
 6086POPC   C3A 9869  34.564  33.067   7.955
 6086POPC   C4A 9870  34.607  33.041   7.655
 6086POPC   C1B 9871  34.685  32.814   8.555
 6086POPC   C2B 9872  34.632  32.837   8.255
 6086POPC   C3B 9873  34.705  32.804   7.955
 6086POPC   C4B 9874  34.694  32.757   7.655
 6087POPC   NC3 9875  32.216   1.992   9.455
 6087POPC   PO4 9876  32.291   2.035   9.155
 6087POPC   GL1 9877  32.207   1.993   8.855
 6087POPC   GL2 9878  32.171   1.939   8.855
 6087POPC   C1A 9879  32.277   1.966   8.555
 6087POPC   D2A 9880  32.255   1.959   8.255
 6087POPC   C3A 9881  32.261   1.943   7.955
 6087POPC   C4A 9882  32.245   2.013   7.655
 6087POPC   C1B 9883  32.011   1.876   8.555
 6087POPC   C2B 9884  31.959   1.937   8.255
 6087POPC   C3B 9885  31.991   1.899   7.955
 6087POPC   C4B 9886  31.972   1.951   7.655
 6088POPC   NC3 9887   1.207  14.361   9.455
 6088POPC   PO4 9888   1.258  14.415   9.155
 6088POPC   GL1 9889   1.226  14.402   8.855
 6088POPC   GL2 9890   1.049  14.382   8.855
 6088POPC   C1A 9891   1.187  14.433   8.555
 6088POPC   D2A 9892   1.261  14.410   8.255
 6088POPC   C3A 9893   1.173  14.438   7.955
 6088POPC   C4A 9894   1.242  14.367   7.655
 6088POPC   C1B 9895   0.935  14.343   8.555
 6088POPC   C2B 9896   0.959  14.292   8.255
 6088POPC   C3B 9897   1.008  14.305   7.955
 6088POPC   C4B 9898   0.952  14.342   7.655
 6089POPC   NC3 9899  31.459  19.031   9.455
 6089POPC   PO4 9900  31.493  19.097   9.155
 6089POPC   GL1 9901  31.499  19.037   8.855
 6089POPC   GL2 9902  31.465  18.976   8.855
 6089POPC   C1A 9903  31.499  19.092   8.555
 6089POPC   D2A 9904  31.492  19.018   8.255
 6089POPC   C3A 9905  31.435  19.036   7.955
 6089POPC   C4A 9906  31.464  19.065   7.655
 6089POPC   C1B 9907  31.539  18.848   8.555
 6089POPC   C2B 9908  31.592  18.858   8.255
 6089POPC   C3B 9909  31.547  18.774   7.955
 6089POPC   C4B 9910  31.533  18.866   7.655
 6090POPC   NC3 9911   8.972   3.578   9.455
 6090POPC   PO4 9912   9.019   3.541   9.155
 6090POPC   GL1 9913   8.940   3.587   8.855
 6090POPC   GL2 9914   9.053   3.612   8.855
 6090POPC   C1A 9915   9.014   3.589   8.555
 6090POPC   D2A 9916   8.930   3.507   8.255
 6090POPC   C3A 9917   9.001   3.555   7.955
 6090POPC   C4A 9918   8.978   3.526   7.655
 6090POPC   C1B 9919   9.206   3.749   8.555
 6090POPC   C2B 9920   9.145   3.752   8.255
 6090POPC   C3B 9921   9.189   3.758   7.955
 6090POPC   C4B 9922   9.201   3.675   7.655
 6091POPC   NC3 9923  10.572  10.481   9.455
 6091POPC   PO4 9924  10.525  10.557   9.155
 6091POPC   GL1 9925  10.480  10.488   8.855
 6091POPC   GL2 9926  10.473  10.413   8.855
 6091POPC   C1A 9927  10.493  10.543   8.555
 6091POPC   D2A 9928  10.514  10.477   8.255
 6091POPC   C3A 9929  10.495  10.543   7.955
 6091POPC   C4A 9930  10.556  10.486   7.655
 6091POPC   C1B 9931  10.401  10.322   8.555
 6091POPC   C2B 9932  10.415  10.328   8.255
 6091POPC   C3B 9933  10.412  10.268   7.955
 6091POPC   C4B 9934  10.418  10.280   7.655
 6092POPC   NC3 9935   7.446  34.568   9.455
 6092POPC   PO4 9936   7.470  34.542   9.155
 6092POPC   GL1 9937   7.469  34.604   8.855
 6092POPC   GL2 9938   7.545  34.654   8.855
 6092POPC   C1A 9939   7.456  34.596   8.555
 6092POPC   D2A 9940   7.468  34.608   8.255
 6092POPC   C3A 9941   7.464  34.549   7.955
 6092POPC   C4A 9942   7.434  34.616   7.655
 6092POPC   C1B 9943   7.646  34.736   8.555
 6092POPC   C2B 9944   7.620  34.716   8.255
 6092POPC   C3B 9945   7.600  34.755   7.955
 6092POPC   C4B 9946   7.599  34.707   7.655
 6093POPC   NC3 9947  19.850   5.875   9.455
 6093POPC   PO4 9948  19.869   5.853   9.155
 6093POPC   GL1 9949  19.793   5.842   8.855
 6093POPC   GL2 9950  19.908   6.008   8.855
 6093POPC   C1A 9951  19.827   5.873   8.555
 6093POPC   D2A 9952  19.819   5.835   8.255
 6093POPC   C3A 9953  19.846   5.820   7.955
 6093POPC   C4A 9954  19.820   5.843   7.655
 6093POPC   C1B 9955  20.014   6.101   8.555
 6093POPC   C2B 9956  20.003   6.095   8.255
 6093POPC   C3B 9957  19.930   6.103   7.955
 6093POPC   C4B 9958  20.021   6.103   7.655
 6094POPC   NC3 9959  15.938  15.959   9.455
 6094POPC   PO4 9960  16.003  15.947   9.155
 6094POPC   GL1 9961  16.003  15.970   8.855
 6094POPC   GL2 9962  15.998  15.811   8.855
 6094POPC   C1A 9963  15.997  15.950   8.555
 6094POPC   D2A 9964  15.907  15.997   8.255
 6094POPC   C3A 9965  16.002  15.954   7.955
 6094POPC   C4A 9966  15.935  15.983   7.655
 6094POPC   C1B 9967  15.974  15.736   8.555
 6094POPC   C2B 9968  15.959  15.666   8.255
 6094POPC   C3B 9969  15.941  15.694   7.955
 6094POPC   C4B 9970  15.918  15.687   7.655
 6095POPC   NC3 9971   2.785  27.603   9.455
 6095POPC   PO4 9972   2.761  27.634   9.155
 6095POPC   GL1 9973   2.719  27.643   8.855
 6095POPC   GL2 9974   2.643  27.513   8.855
 6095POPC   C1A 9975   2.747  27.585   8.555
 6095POPC   D2A 9976   2.768  27.593   8.255
 6095POPC   C3A 9977   2.773  27.638   7.955
 6095POPC   C4A 9978   2.766  27.556   7.655
 6095POPC   C1B 9979   2.573  27.429   8.555
 6095POPC   C2B 9980   2.526  27.397   8.255
 6095POPC   C3B 9981   2.559  27.467   7.955
 6095POPC   C4B 9982   2.577  27.481   7.655
 6096POPC   NC3 9983  43.063  19.074   9.455
 6096POPC   PO4 9984  43.108  19.100   9.155
 6096POPC   GL1 9985  43.159  19.103   8.855
 6096POPC   GL2 9986  43.086  19.150   8.855
 6096POPC   C1A 9987  43.125  19.020   8.555
 6096POPC   D2A 9988  43.089  19.049   8.255
 6096POPC   C3A 9989  43.098  19.108   7.955
 6096POPC   C4A 9990  43.069  19.078   7.655
 6096POPC   C1B 9991  43.091  19.311   8.555
 6096POPC   C2B 9992  43.122  19.270   8.255
 6096POPC   C3B 9993  43.077  19.327   7.955
 6096POPC   C4B 9994  43.135  19.293   7.655
 6097POPC   NC3 9995  43.131  22.159   9.455
 6097POPC   PO4 9996  43.154  22.168   9.155
 6097POPC   GL1 9997  43.116  22.207   8.855
 6097POPC   GL2 9998  43.035  22.080   8.855
 6097POPC   C1A 9999  43.126  22.127   8.555
 6097POPC   D2A10000  43.107  22.163   8.255
 6097POPC   C3A10001  43.152  22.151   7.955
 6097POPC   C4A10002  43.146  22.187   7.655
 6097POPC   C1B10003  42.917  22.009   8.555
 6097POPC   C2B10004  42.875  22.021   8.255
 6097POPC   C3B10005  42.908  22.066   7.955
 6097POPC   C4B10006  42.924  22.012   7.655
 6098POPC   NC310007   1.248  40.744   9.455
 6098POPC   PO410008   1.222  40.799   9.155
 6098POPC   GL110009   1.192  40.806   8.855
 6098POPC   GL210010   1.068  40.774   8.855
 6098POPC   C1A10011   1.172  40.746   8.555
 6098POPC   D2A10012   1.261  40.768   8.255
 6098POPC   C3A10013   1.165  40.799   7.955
 6098POPC   C4A10014   1.230  40.790   7.655
 6098POPC   C1B10015   0.937  40.813   8.555
 6098POPC   C2B10016   0.969  40.757   8.255
 6098POPC   C3B10017   1.009  40.806   7.955
 6098POPC   C4B10018   0.994  40.732   7.655
 6099POPC   NC310019  28.415   4.348   9.455
 6099POPC   PO410020  28.382   4.305   9.155
 6099POPC   GL110021  28.370   4.324   8.855
 6099POPC   GL210022  28.257   4.218   8.855
 6099POPC   C1A10023  28.332   4.323   8.555
 6099POPC   D2A10024  28.376   4.297   8.255
 6099POPC   C3A10025  28.354   4.271   7.955
 6099POPC   C4A10026  28.375   4.365   7.655
 6099POPC   C1B10027  28.208   4.078   8.555
 6099POPC   C2B10028  28.244   4.149   8.255
 6099POPC   C3B10029  28.242   4.092   7.955
 6099POPC   C4B10030  28.244   4.067   7.655
 6100POPC   NC310031  15.134   8.973   9.455
 6100POPC   PO410032  15.157   8.928   9.155
 6100POPC   GL110033  15.189   8.939   8.855
 6100POPC   GL210034  15.320   8.989   8.855
 6100POPC   C1A10035  15.146   8.979   8.555
 6100POPC   D2A10036  15.157   8.986   8.255
 6100POPC   C3A10037  15.213   9.002   7.955
 6100POPC   C4A10038  15.192   8.987   7.655
 6100POPC   C1B10039  15.392   9.051   8.555
 6100POPC   C2B10040  15.412   9.099   8.255
 6100POPC   C3B10041  15.365   9.129   7.955
 6100POPC   C4B10042  15.411   9.066   7.655
 6101POPC   NC310043  22.898  34.591   9.455
 6101POPC   PO410044  22.953  34.570   9.155
 6101POPC   GL110045  22.931  34.536   8.855
 6101POPC   GL210046  23.039  34.502   8.855
 6101POPC   C1A10047  22.983  34.567   8.555
 6101POPC   D2A10048  22.896  34.619   8.255
 6101POPC   C3A10049  22.915  34.587   7.955
 6101POPC   C4A10050  22.957  34.625   7.655
 6101POPC   C1B10051  23.203  34.423   8.555
 6101POPC   C2B10052  23.192  34.486   8.255
 6101POPC   C3B10053  23.118  34.459   7.955
 6101POPC   C4B10054  23.161  34.426   7.655
 6102POPC   NC310055   1.972  28.401   9.455
 6102POPC   PO410056   1.973  28.394   9.155
 6102POPC   GL110057   1.984  28.389   8.855
 6102POPC   GL210058   2.105  28.366   8.855
 6102POPC   C1A10059   1.977  28.392   8.555
 6102POPC   D2A10060   2.033  28.372   8.255
 6102POPC   C3A10061   2.000  28.344   7.955
 6102POPC   C4A10062   1.945  28.373   7.655
 6102POPC   C1B10063   2.185  28.239   8.555
 6102POPC   C2B10064   2.194  28.308   8.255
 6102POPC   C3B10065   2.263  28.248   7.955
 6102POPC   C4B10066   2.273  28.254   7.655
 6103POPC   NC310067  17.535  38.458   9.455
 6103POPC   PO410068  17.500  38.453   9.155
 6103POPC   GL110069  17.533  38.453   8.855
 6103POPC   GL210070  17.618  38.334   8.855
 6103POPC   C1A10071  17.464  38.468   8.555
 6103POPC   D2A10072  17.488  38.475   8.255
 6103POPC   C3A10073  17.462  38.443   7.955
 6103POPC   C4A10074  17.473  38.482   7.655
 6103POPC   C1B10075  17.666  38.327   8.555
 6103POPC   C2B10076  17.707  38.352   8.255
 6103POPC   C3B10077  17.749  38.276   7.955
 6103POPC   C4B10078  17.684  38.294   7.655
 6104POPC   NC310079   3.509  37.683   9.455
 6104POPC   PO410080   3.558  37.701   9.155
 6104POPC   GL110081   3.515  37.712   8.855
 6104POPC   GL210082   3.698  37.611   8.855
 6104POPC   C1A10083   3.494  37.676   8.555
 6104POPC   D2A10084   3.505  37.635   8.255
 6104POPC   C3A10085   3.584  37.701   7.955
 6104POPC   C4A10086   3.558  37.717   7.655
 6104POPC   C1B10087   3.806  37.565   8.555
 6104POPC   C2B10088   3.740  37.608   8.255
 6104POPC   C3B10089   3.730  37.546   7.955
 6104POPC   C4B10090   3.789  37.554   7.655
 6105POPC   NC310091   3.492  41.553   9.455
 6105POPC   PO410092   3.519  41.568   9.155
 6105POPC   GL110093   3.577  41.589   8.855
 6105POPC   GL210094   3.417  41.583   8.855
 6105POPC   C1A10095   3.516  41.556   8.555
 6105POPC   D2A10096   3.517  41.594   8.255
 6105POPC   C3A10097   3.524  41.521   7.955
 6105POPC   C4A10098   3.571  41.591   7.655
 6105POPC   C1B10099   3.372  41.690   8.555
 6105POPC   C2B10100   3.347  41.728   8.255
 6105POPC   C3B10101   3.302  41.659   7.955
 6105POPC   C4B10102   3.334  41.649   7.655
 6106POPC   NC310103  26.818  20.632   9.455
 6106POPC   PO410104  26.838  20.561   9.155
 6106POPC   GL110105  26.778  20.574   8.855
 6106POPC   GL210106  26.823  20.741   8.855
 6106POPC   C1A10107  26.816  20.611   8.555
 6106POPC   D2A10108  26.793  20.654   8.255
 6106POPC   C3A10109  26.833  20.628   7.955
 6106POPC   C4A10110  26.775  20.632   7.655
 6106POPC   C1B10111  26.954  20.861   8.555
 6106POPC   C2B10112  26.877  20.846   8.255
 6106POPC   C3B10113  26.868  20.878   7.955
 6106POPC   C4B10114  26.878  20.878   7.655
 6107POPC   NC310115  44.683  26.815   9.455
 6107POPC   PO410116  44.679  26.800   9.155
 6107POPC   GL110117  44.621  26.793   8.855
 6107POPC   GL210118  44.511  26.846   8.855
 6107POPC   C1A10119  44.624  26.792   8.555
 6107POPC   D2A10120  44.694  26.822   8.255
 6107POPC   C3A10121  44.683  26.782   7.955
 6107POPC   C4A10122  44.660  26.793   7.655
 6107POPC   C1B10123  44.456  26.844   8.555
 6107POPC   C2B10124  44.380  26.800   8.255
 6107POPC   C3B10125  44.450  26.785   7.955
 6107POPC   C4B10126  44.432  26.818   7.655
 6108POPC   NC310127   9.730  19.084   9.455
 6108POPC   PO410128   9.732  19.087   9.155
 6108POPC   GL110129   9.708  19.035   8.855
 6108POPC   GL210130   9.683  18.889   8.855
 6108POPC   C1A10131   9.782  19.088   8.555
 6108POPC   D2A10132   9.732  19.076   8.255
 6108POPC   C3A10133   9.765  19.094   7.955
 6108POPC   C4A10134   9.724  19.054   7.655
 6108POPC   C1B10135   9.727  18.807   8.555
 6108POPC   C2B10136   9.695  18.815   8.255
 6108POPC   C3B10137   9.730  18.773   7.955
 6108POPC   C4B10138   9.689  18.846   7.655
 6109POPC   NC310139  22.967   3.502   9.455
 6109POPC   PO410140  22.928   3.585   9.155
 6109POPC   GL110141  22.966   3.515   8.855
 6109POPC   GL210142  22.800   3.502   8.855
 6109POPC   C1A10143  22.971   3.565   8.555
 6109POPC   D2A10144  22.899   3.552   8.255
 6109POPC   C3A10145  22.976   3.571   7.955
 6109POPC   C4A10146  22.980   3.496   7.655
 6109POPC   C1B10147  22.666   3.511   8.555
 6109POPC   C2B10148  22.721   3.485   8.255
 6109POPC   C3B10149  22.714   3.488   7.955
 6109POPC   C4B10150  22.659   3.502   7.655
 6110POPC   NC310151  39.976  32.259   9.455
 6110POPC   PO410152  40.047  32.241   9.155
 6110POPC   GL110153  40.017  32.205   8.855
 6110POPC   GL210154  40.150  32.139   8.855
 6110POPC   C1A10155  40.009  32.292   8.555
 6110POPC   D2A10156  40.043  32.211   8.255
 6110POPC   C3A10157  39.994  32.266   7.955
 6110POPC   C4A10158  40.027  32.268   7.655
 6110POPC   C1B10159  40.173  32.112   8.555
 6110POPC   C2B10160  40.199  32.074   8.255
 6110POPC   C3B10161  40.253  32.117   7.955
 6110POPC   C4B10162  40.236  32.077   7.655
 6111POPC   NC310163   9.788  38.498   9.455
 6111POPC   PO410164   9.702  38.406   9.155
 6111POPC   GL110165   9.750  38.455   8.855
 6111POPC   GL210166   9.680  38.332   8.855
 6111POPC   C1A10167   9.749  38.482   8.555
 6111POPC   D2A10168   9.789  38.499   8.255
 6111POPC   C3A10169   9.772  38.502   7.955
 6111POPC   C4A10170   9.791  38.434   7.655
 6111POPC   C1B10171   9.532  38.274   8.555
 6111POPC   C2B10172   9.619  38.300   8.255
 6111POPC   C3B10173   9.609  38.236   7.955
 6111POPC   C4B10174   9.584  38.310   7.655
 6112POPC   NC310175   2.792  13.676   9.455
 6112POPC   PO410176   2.747  13.607   9.155
 6112POPC   GL110177   2.808  13.605   8.855
 6112POPC   GL210178   2.920  13.624   8.855
 6112POPC   C1A10179   2.759  13.673   8.555
 6112POPC   D2A10180   2.790  13.653   8.255
 6112POPC   C3A10181   2.735  13.617   7.955
 6112POPC   C4A10182   2.733  13.594   7.655
 6112POPC   C1B10183   2.979  13.730   8.555
 6112POPC   C2B10184   3.008  13.664   8.255
 6112POPC   C3B10185   3.041  13.657   7.955
 6112POPC   C4B10186   3.000  13.678   7.655
 6113POPC   NC310187  43.914  42.377   9.455
 6113POPC   PO410188  43.924  42.357   9.155
 6113POPC   GL110189  43.926  42.358   8.855
 6113POPC   GL210190  43.970  42.306   8.855
 6113POPC   C1A10191  43.871  42.322   8.555
 6113POPC   D2A10192  43.864  42.330   8.255
 6113POPC   C3A10193  43.874  42.318   7.955
 6113POPC   C4A10194  43.912  42.376   7.655
 6113POPC   C1B10195  44.144  42.219   8.555
 6113POPC   C2B10196  44.104  42.239   8.255
 6113POPC   C3B10197  44.119  42.293   7.955
 6113POPC   C4B10198  44.121  42.287   7.655
 6114POPC   NC310199   8.178  43.103   9.455
 6114POPC   PO410200   8.233  43.067   9.155
 6114POPC   GL110201   8.239  43.072   8.855
 6114POPC   GL210202   8.287  43.050   8.855
 6114POPC   C1A10203   8.170  43.114   8.555
 6114POPC   D2A10204   8.181  43.105   8.255
 6114POPC   C3A10205   8.244  43.097   7.955
 6114POPC   C4A10206   8.178  43.103   7.655
 6114POPC   C1B10207   8.452  43.079   8.555
 6114POPC   C2B10208   8.448  43.095   8.255
 6114POPC   C3B10209   8.484  43.051   7.955
 6114POPC   C4B10210   8.465  43.064   7.655
 6115POPC   NC310211  24.521  41.556   9.455
 6115POPC   PO410212  24.528  41.511   9.155
 6115POPC   GL110213  24.486  41.603   8.855
 6115POPC   GL210214  24.343  41.629   8.855
 6115POPC   C1A10215  24.486  41.557   8.555
 6115POPC   D2A10216  24.505  41.602   8.255
 6115POPC   C3A10217  24.499  41.525   7.955
 6115POPC   C4A10218  24.535  41.575   7.655
 6115POPC   C1B10219  24.219  41.680   8.555
 6115POPC   C2B10220  24.270  41.622   8.255
 6115POPC   C3B10221  24.221  41.689   7.955
 6115POPC   C4B10222  24.253  41.690   7.655
 6116POPC   NC310223  28.359  25.992   9.455
 6116POPC   PO410224  28.399  26.007   9.155
 6116POPC   GL110225  28.409  26.035   8.855
 6116POPC   GL210226  28.371  26.202   8.855
 6116POPC   C1A10227  28.325  26.003   8.555
 6116POPC   D2A10228  28.353  26.045   8.255
 6116POPC   C3A10229  28.383  26.077   7.955
 6116POPC   C4A10230  28.368  26.050   7.655
 6116POPC   C1B10231  28.307  26.228   8.555
 6116POPC   C2B10232  28.310  26.242   8.255
 6116POPC   C3B10233  28.237  26.307   7.955
 6116POPC   C4B10234  28.248  26.256   7.655
 6117POPC   NC310235  34.602  24.464   9.455
 6117POPC   PO410236  34.604  24.448   9.155
 6117POPC   GL110237  34.534  24.500   8.855
 6117POPC   GL210238  34.618  24.367   8.855
 6117POPC   C1A10239  34.581  24.513   8.555
 6117POPC   D2A10240  34.532  24.445   8.255
 6117POPC   C3A10241  34.607  24.524   7.955
 6117POPC   C4A10242  34.560  24.487   7.655
 6117POPC   C1B10243  34.669  24.204   8.555
 6117POPC   C2B10244  34.667  24.206   8.255
 6117POPC   C3B10245  34.637  24.230   7.955
 6117POPC   C4B10246  34.690  24.282   7.655
 6118POPC   NC310247  44.616  36.882   9.455
 6118POPC   PO410248  44.677  36.908   9.155
 6118POPC   GL110249  44.614  36.854   8.855
 6118POPC   GL210250  44.832  36.914   8.855
 6118POPC   C1A10251  44.645  36.937   8.555
 6118POPC   D2A10252  44.695  36.927   8.255
 6118POPC   C3A10253  44.643  36.899   7.955
 6118POPC   C4A10254  44.645  36.874   7.655
 6118POPC   C1B10255  44.961  36.858   8.555
 6118POPC   C2B10256  44.865  36.847   8.255
 6118POPC   C3B10257  44.925  36.888   7.955
 6118POPC   C4B10258  44.932  36.912   7.655
 6119POPC   NC310259  18.290   6.624   9.455
 6119POPC   PO410260  18.294   6.680   9.155
 6119POPC   GL110261  18.239   6.635   8.855
 6119POPC   GL210262  18.372   6.541   8.855
 6119POPC   C1A10263  18.283   6.619   8.555
 6119POPC   D2A10264  18.253   6.614   8.255
 6119POPC   C3A10265  18.255   6.602   7.955
 6119POPC   C4A10266  18.262   6.648   7.655
 6119POPC   C1B10267  18.397   6.404   8.555
 6119POPC   C2B10268  18.444   6.457   8.255
 6119POPC   C3B10269  18.414   6.457   7.955
 6119POPC   C4B10270  18.442   6.394   7.655
 6120POPC   NC310271  39.999  39.251   9.455
 6120POPC   PO410272  39.958  39.190   9.155
 6120POPC   GL110273  40.004  39.188   8.855
 6120POPC   GL210274  40.132  39.125   8.855
 6120POPC   C1A10275  40.032  39.242   8.555
 6120POPC   D2A10276  40.055  39.197   8.255
 6120POPC   C3A10277  39.985  39.200   7.955
 6120POPC   C4A10278  39.992  39.216   7.655
 6120POPC   C1B10279  40.227  39.120   8.555
 6120POPC   C2B10280  40.197  39.086   8.255
 6120POPC   C3B10281  40.232  39.092   7.955
 6120POPC   C4B10282  40.183  39.128   7.655
 6121POPC   NC310283  19.868  31.468   9.455
 6121POPC   PO410284  19.853  31.480   9.155
 6121POPC   GL110285  19.828  31.435   8.855
 6121POPC   GL210286  19.746  31.505   8.855
 6121POPC   C1A10287  19.789  31.503   8.555
 6121POPC   D2A10288  19.795  31.452   8.255
 6121POPC   C3A10289  19.850  31.457   7.955
 6121POPC   C4A10290  19.852  31.509   7.655
 6121POPC   C1B10291  19.629  31.492   8.555
 6121POPC   C2B10292  19.571  31.459   8.255
 6121POPC   C3B10293  19.576  31.442   7.955
 6121POPC   C4B10294  19.625  31.498   7.655
 6122POPC   NC310295  40.762   5.899   9.455
 6122POPC   PO410296  40.785   5.911   9.155
 6122POPC   GL110297  40.822   5.907   8.855
 6122POPC   GL210298  40.681   5.826   8.855
 6122POPC   C1A10299  40.821   5.855   8.555
 6122POPC   D2A10300  40.821   5.891   8.255
 6122POPC   C3A10301  40.753   5.863   7.955
 6122POPC   C4A10302  40.802   5.823   7.655
 6122POPC   C1B10303  40.529   5.781   8.555
 6122POPC   C2B10304  40.573   5.758   8.255
 6122POPC   C3B10305  40.535   5.767   7.955
 6122POPC   C4B10306  40.536   5.770   7.655
 6123POPC   NC310307  27.558  14.361   9.455
 6123POPC   PO410308  27.617  14.400   9.155
 6123POPC   GL110309  27.592  14.387   8.855
 6123POPC   GL210310  27.581  14.547   8.855
 6123POPC   C1A10311  27.595  14.359   8.555
 6123POPC   D2A10312  27.605  14.451   8.255
 6123POPC   C3A10313  27.613  14.362   7.955
 6123POPC   C4A10314  27.560  14.419   7.655
 6123POPC   C1B10315  27.477  14.670   8.555
 6123POPC   C2B10316  27.478  14.658   8.255
 6123POPC   C3B10317  27.472  14.656   7.955
 6123POPC   C4B10318  27.521  14.648   7.655
 6124POPC   NC310319   0.444  40.748   9.455
 6124POPC   PO410320   0.483  40.738   9.155
 6124POPC   GL110321   0.398  40.768   8.855
 6124POPC   GL210322   0.332  40.873   8.855
 6124POPC   C1A10323   0.397  40.784   8.555
 6124POPC   D2A10324   0.399  40.830   8.255
 6124POPC   C3A10325   0.454  40.806   7.955
 6124POPC   C4A10326   0.463  40.778   7.655
 6124POPC   C1B10327   0.226  40.889   8.555
 6124POPC   C2B10328   0.199  40.914   8.255
 6124POPC   C3B10329   0.199  40.868   7.955
 6124POPC   C4B10330   0.225  40.881   7.655
 6125POPC   NC310331  26.806  25.271   9.455
 6125POPC   PO410332  26.809  25.306   9.155
 6125POPC   GL110333  26.824  25.238   8.855
 6125POPC   GL210334  26.948  25.379   8.855
 6125POPC   C1A10335  26.846  25.298   8.555
 6125POPC   D2A10336  26.802  25.223   8.255
 6125POPC   C3A10337  26.780  25.229   7.955
 6125POPC   C4A10338  26.786  25.305   7.655
 6125POPC   C1B10339  26.965  25.490   8.555
 6125POPC   C2B10340  26.938  25.497   8.255
 6125POPC   C3B10341  26.956  25.417   7.955
 6125POPC   C4B10342  27.027  25.440   7.655
 6126POPC   NC310343   2.773  34.526   9.455
 6126POPC   PO410344   2.768  34.597   9.155
 6126POPC   GL110345   2.813  34.556   8.855
 6126POPC   GL210346   2.790  34.710   8.855
 6126POPC   C1A10347   2.750  34.531   8.555
 6126POPC   D2A10348   2.806  34.567   8.255
 6126POPC   C3A10349   2.783  34.577   7.955
 6126POPC   C4A10350   2.737  34.615   7.655
 6126POPC   C1B10351   2.825  34.822   8.555
 6126POPC   C2B10352   2.846  34.857   8.255
 6126POPC   C3B10353   2.795  34.820   7.955
 6126POPC   C4B10354   2.782  34.772   7.655
 6127POPC   NC310355  12.845  33.010   9.455
 6127POPC   PO410356  12.894  33.019   9.155
 6127POPC   GL110357  12.839  32.986   8.855
 6127POPC   GL210358  12.858  33.144   8.855
 6127POPC   C1A10359  12.887  33.010   8.555
 6127POPC   D2A10360  12.827  32.988   8.255
 6127POPC   C3A10361  12.885  33.020   7.955
 6127POPC   C4A10362  12.840  33.018   7.655
 6127POPC   C1B10363  12.918  33.301   8.555
 6127POPC   C2B10364  12.895  33.303   8.255
 6127POPC   C3B10365  12.912  33.266   7.955
 6127POPC   C4B10366  12.930  33.224   7.655
 6128POPC   NC310367  42.331   1.225   9.455
 6128POPC   PO410368  42.334   1.168   9.155
 6128POPC   GL110369  42.332   1.216   8.855
 6128POPC   GL210370  42.390   1.079   8.855
 6128POPC   C1A10371  42.325   1.198   8.555
 6128POPC   D2A10372  42.355   1.227   8.255
 6128POPC   C3A10373  42.353   1.252   7.955
 6128POPC   C4A10374  42.308   1.170   7.655
 6128POPC   C1B10375  42.370   0.951   8.555
 6128POPC   C2B10376  42.426   0.939   8.255
 6128POPC   C3B10377  42.395   0.994   7.955
 6128POPC   C4B10378  42.375   0.943   7.655
 6129POPC   NC310379  14.374  19.883   9.455
 6129POPC   PO410380  14.421  19.795   9.155
 6129POPC   GL110381  14.409  19.855   8.855
 6129POPC   GL210382  14.564  19.815   8.855
 6129POPC   C1A10383  14.355  19.825   8.555
 6129POPC   D2A10384  14.389  19.798   8.255
 6129POPC   C3A10385  14.365  19.806   7.955
 6129POPC   C4A10386  14.360  19.869   7.655
 6129POPC   C1B10387  14.657  19.769   8.555
 6129POPC   C2B10388  14.647  19.799   8.255
 6129POPC   C3B10389  14.691  19.783   7.955
 6129POPC   C4B10390  14.641  19.847   7.655
 6130POPC   NC310391  18.331  15.914   9.455
 6130POPC   PO410392  18.291  15.992   9.155
 6130POPC   GL110393  18.241  15.945   8.855
 6130POPC   GL210394  18.372  15.952   8.855
 6130POPC   C1A10395  18.313  15.949   8.555
 6130POPC   D2A10396  18.326  16.002   8.255
 6130POPC   C3A10397  18.323  15.990   7.955
 6130POPC   C4A10398  18.325  15.991   7.655
 6130POPC   C1B10399  18.518  16.032   8.555
 6130POPC   C2B10400  18.546  16.028   8.255
 6130POPC   C3B10401  18.510  15.960   7.955
 6130POPC   C4B10402  18.548  15.954   7.655
 6131POPC   NC310403  23.732  30.689   9.455
 6131POPC   PO410404  23.688  30.710   9.155
 6131POPC   GL110405  23.686  30.736   8.855
 6131POPC   GL210406  23.663  30.769   8.855
 6131POPC   C1A10407  23.699  30.706   8.555
 6131POPC   D2A10408  23.684  30.654   8.255
 6131POPC   C3A10409  23.753  30.699   7.955
 6131POPC   C4A10410  23.751  30.688   7.655
 6131POPC   C1B10411  23.557  30.837   8.555
 6131POPC   C2B10412  23.535  30.842   8.255
 6131POPC   C3B10413  23.504  30.818   7.955
 6131POPC   C4B10414  23.514  30.821   7.655
 6132POPC   NC310415  21.352   9.750   9.455
 6132POPC   PO410416  21.342   9.711   9.155
 6132POPC   GL110417  21.383   9.699   8.855
 6132POPC   GL210418  21.284   9.656   8.855
 6132POPC   C1A10419  21.374   9.772   8.555
 6132POPC   D2A10420  21.371   9.722   8.255
 6132POPC   C3A10421  21.395   9.720   7.955
 6132POPC   C4A10422  21.416   9.743   7.655
 6132POPC   C1B10423  21.199   9.647   8.555
 6132POPC   C2B10424  21.191   9.559   8.255
 6132POPC   C3B10425  21.229   9.576   7.955
 6132POPC   C4B10426  21.137   9.641   7.655
 6133POPC   NC310427  17.516  41.533   9.455
 6133POPC   PO410428  17.529  41.530   9.155
 6133POPC   GL110429  17.492  41.603   8.855
 6133POPC   GL210430  17.527  41.663   8.855
 6133POPC   C1A10431  17.555  41.530   8.555
 6133POPC   D2A10432  17.538  41.549   8.255
 6133POPC   C3A10433  17.463  41.555   7.955
 6133POPC   C4A10434  17.503  41.548   7.655
 6133POPC   C1B10435  17.573  41.813   8.555
 6133POPC   C2B10436  17.583  41.812   8.255
 6133POPC   C3B10437  17.556  41.796   7.955
 6133POPC   C4B10438  17.518  41.782   7.655
 6134POPC   NC310439  40.733  43.149   9.455
 6134POPC   PO410440  40.805  43.062   9.155
 6134POPC   GL110441  40.768  43.116   8.855
 6134POPC   GL210442  40.666  43.125   8.855
 6134POPC   C1A10443  40.802  43.065   8.555
 6134POPC   D2A10444  40.822  43.159   8.255
 6134POPC   C3A10445  40.752  43.149   7.955
 6134POPC   C4A10446  40.762  43.110   7.655
 6134POPC   C1B10447  40.572  43.052   8.555
 6134POPC   C2B10448  40.578  43.062   8.255
 6134POPC   C3B10449  40.486  43.095   7.955
 6134POPC   C4B10450  40.494  43.101   7.655
 6135POPC   NC310451  29.135   7.408   9.455
 6135POPC   PO410452  29.160   7.409   9.155
 6135POPC   GL110453  29.131   7.380   8.855
 6135POPC   GL210454  29.149   7.510   8.855
 6135POPC   C1A10455  29.169   7.447   8.555
 6135POPC   D2A10456  29.158   7.388   8.255
 6135POPC   C3A10457  29.163   7.377   7.955
 6135POPC   C4A10458  29.107   7.449   7.655
 6135POPC   C1B10459  29.059   7.697   8.555
 6135POPC   C2B10460  29.057   7.664   8.255
 6135POPC   C3B10461  29.058   7.661   7.955
 6135POPC   C4B10462  29.061   7.626   7.655
 6136POPC   NC310463  28.366  13.669   9.455
 6136POPC   PO410464  28.386  13.655   9.155
 6136POPC   GL110465  28.322  13.646   8.855
 6136POPC   GL210466  28.466  13.766   8.855
 6136POPC   C1A10467  28.405  13.590   8.555
 6136POPC   D2A10468  28.397  13.616   8.255
 6136POPC   C3A10469  28.351  13.602   7.955
 6136POPC   C4A10470  28.376  13.583   7.655
 6136POPC   C1B10471  28.587  13.793   8.555
 6136POPC   C2B10472  28.552  13.763   8.255
 6136POPC   C3B10473  28.522  13.819   7.955
 6136POPC   C4B10474  28.587  13.819   7.655
 6137POPC   NC310475  32.988  34.594   9.455
 6137POPC   PO410476  33.036  34.561   9.155
 6137POPC   GL110477  32.988  34.577   8.855
 6137POPC   GL210478  33.099  34.643   8.855
 6137POPC   C1A10479  33.050  34.537   8.555
 6137POPC   D2A10480  33.004  34.574   8.255
 6137POPC   C3A10481  33.008  34.534   7.955
 6137POPC   C4A10482  33.031  34.530   7.655
 6137POPC   C1B10483  33.300  34.669   8.555
 6137POPC   C2B10484  33.265  34.660   8.255
 6137POPC   C3B10485  33.218  34.649   7.955
 6137POPC   C4B10486  33.299  34.608   7.655
 6138POPC   NC310487   3.590  32.293   9.455
 6138POPC   PO410488   3.511  32.260   9.155
 6138POPC   GL110489   3.495  32.220   8.855
 6138POPC   GL210490   3.475  32.136   8.855
 6138POPC   C1A10491   3.507  32.252   8.555
 6138POPC   D2A10492   3.523  32.248   8.255
 6138POPC   C3A10493   3.507  32.254   7.955
 6138POPC   C4A10494   3.538  32.233   7.655
 6138POPC   C1B10495   3.459  32.062   8.555
 6138POPC   C2B10496   3.445  31.974   8.255
 6138POPC   C3B10497   3.419  32.018   7.955
 6138POPC   C4B10498   3.446  31.982   7.655
 6139POPC   NC310499  23.700   8.228   9.455
 6139POPC   PO410500  23.676   8.204   9.155
 6139POPC   GL110501  23.684   8.149   8.855
 6139POPC   GL210502  23.813   8.110   8.855
 6139POPC   C1A10503  23.734   8.150   8.555
 6139POPC   D2A10504  23.693   8.236   8.255
 6139POPC   C3A10505  23.672   8.163   7.955
 6139POPC   C4A10506  23.732   8.228   7.655
 6139POPC   C1B10507  23.866   8.010   8.555
 6139POPC   C2B10508  23.887   7.955   8.255
 6139POPC   C3B10509  23.829   7.976   7.955
 6139POPC   C4B10510  23.833   7.968   7.655
 6140POPC   NC310511  40.001  28.367   9.455
 6140POPC   PO410512  39.967  28.326   9.155
 6140POPC   GL110513  40.027  28.374   8.855
 6140POPC   GL210514  39.924  28.264   8.855
 6140POPC   C1A10515  39.962  28.397   8.555
 6140POPC   D2A10516  40.036  28.356   8.255
 6140POPC   C3A10517  40.022  28.332   7.955
 6140POPC   C4A10518  40.028  28.349   7.655
 6140POPC   C1B10519  39.922  28.109   8.555
 6140POPC   C2B10520  39.942  28.188   8.255
 6140POPC   C3B10521  39.859  28.133   7.955
 6140POPC   C4B10522  39.936  28.148   7.655
 6141POPC   NC310523  11.325  40.009   9.455
 6141POPC   PO410524  11.298  39.987   9.155
 6141POPC   GL110525  11.321  39.969   8.855
 6141POPC   GL210526  11.426  39.999   8.855
 6141POPC   C1A10527  11.280  39.970   8.555
 6141POPC   D2A10528  11.269  39.986   8.255
 6141POPC   C3A10529  11.302  39.969   7.955
 6141POPC   C4A10530  11.345  39.982   7.655
 6141POPC   C1B10531  11.573  40.053   8.555
 6141POPC   C2B10532  11.579  40.064   8.255
 6141POPC   C3B10533  11.580  40.019   7.955
 6141POPC   C4B10534  11.584  39.989   7.655
 6142POPC   NC310535   3.524  38.485   9.455
 6142POPC   PO410536   3.576  38.426   9.155
 6142POPC   GL110537   3.556  38.453   8.855
 6142POPC   GL210538   3.700  38.404   8.855
 6142POPC   C1A10539   3.497  38.503   8.555
 6142POPC   D2A10540   3.547  38.436   8.255
 6142POPC   C3A10541   3.493  38.454   7.955
 6142POPC   C4A10542   3.514  38.443   7.655
 6142POPC   C1B10543   3.822  38.466   8.555
 6142POPC   C2B10544   3.767  38.450   8.255
 6142POPC   C3B10545   3.776  38.389   7.955
 6142POPC   C4B10546   3.743  38.440   7.655
 6143POPC   NC310547  38.446  28.347   9.455
 6143POPC   PO410548  38.499  28.398   9.155
 6143POPC   GL110549  38.481  28.354   8.855
 6143POPC   GL210550  38.574  28.449   8.855
 6143POPC   C1A10551  38.467  28.385   8.555
 6143POPC   D2A10552  38.408  28.404   8.255
 6143POPC   C3A10553  38.457  28.333   7.955
 6143POPC   C4A10554  38.463  28.332   7.655
 6143POPC   C1B10555  38.610  28.557   8.555
 6143POPC   C2B10556  38.602  28.573   8.255
 6143POPC   C3B10557  38.681  28.514   7.955
 6143POPC   C4B10558  38.655  28.525   7.655
 6144POPC   NC310559  43.921   6.650   9.455
 6144POPC   PO410560  43.899   6.620   9.155
 6144POPC   GL110561  43.866   6.659   8.855
 6144POPC   GL210562  43.783   6.549   8.855
 6144POPC   C1A10563  43.925   6.693   8.555
 6144POPC   D2A10564  43.921   6.608   8.255
 6144POPC   C3A10565  43.881   6.641   7.955
 6144POPC   C4A10566  43.894   6.619   7.655
 6144POPC   C1B10567  43.659   6.496   8.555
 6144POPC   C2B10568  43.741   6.471   8.255
 6144POPC   C3B10569  43.725   6.504   7.955
 6144POPC   C4B10570  43.735   6.450   7.655
 6145POPC   NC310571  32.273   6.615   9.455
 6145POPC   PO410572  32.275   6.667   9.155
 6145POPC   GL110573  32.275   6.638   8.855
 6145POPC   GL210574  32.383   6.590   8.855
 6145POPC   C1A10575  32.248   6.619   8.555
 6145POPC   D2A10576  32.275   6.679   8.255
 6145POPC   C3A10577  32.202   6.633   7.955
 6145POPC   C4A10578  32.203   6.685   7.655
 6145POPC   C1B10579  32.453   6.470   8.555
 6145POPC   C2B10580  32.416   6.461   8.255
 6145POPC   C3B10581  32.453   6.482   7.955
 6145POPC   C4B10582  32.452   6.470   7.655
 6146POPC   NC310583  32.990  23.704   9.455
 6146POPC   PO410584  32.981  23.740   9.155
 6146POPC   GL110585  33.007  23.680   8.855
 6146POPC   GL210586  32.879  23.651   8.855
 6146POPC   C1A10587  33.059  23.743   8.555
 6146POPC   D2A10588  33.021  23.711   8.255
 6146POPC   C3A10589  33.012  23.750   7.955
 6146POPC   C4A10590  32.994  23.671   7.655
 6146POPC   C1B10591  32.820  23.598   8.555
 6146POPC   C2B10592  32.831  23.585   8.255
 6146POPC   C3B10593  32.820  23.645   7.955
 6146POPC   C4B10594  32.781  23.652   7.655
 6147POPC   NC310595  39.280  19.085   9.455
 6147POPC   PO410596  39.203  19.040   9.155
 6147POPC   GL110597  39.232  19.083   8.855
 6147POPC   GL210598  39.260  19.174   8.855
 6147POPC   C1A10599  39.208  19.021   8.555
 6147POPC   D2A10600  39.184  19.028   8.255
 6147POPC   C3A10601  39.274  19.013   7.955
 6147POPC   C4A10602  39.266  19.096   7.655
 6147POPC   C1B10603  39.236  19.275   8.555
 6147POPC   C2B10604  39.190  19.332   8.255
 6147POPC   C3B10605  39.176  19.267   7.955
 6147POPC   C4B10606  39.173  19.295   7.655
 6148POPC   NC310607  13.587  36.888   9.455
 6148POPC   PO410608  13.654  36.944   9.155
 6148POPC   GL110609  13.661  36.860   8.855
 6148POPC   GL210610  13.741  36.851   8.855
 6148POPC   C1A10611  13.662  36.909   8.555
 6148POPC   D2A10612  13.629  36.916   8.255
 6148POPC   C3A10613  13.657  36.886   7.955
 6148POPC   C4A10614  13.632  36.862   7.655
 6148POPC   C1B10615  13.784  36.777   8.555
 6148POPC   C2B10616  13.837  36.759   8.255
 6148POPC   C3B10617  13.813  36.701   7.955
 6148POPC   C4B10618  13.778  36.715   7.655
 6149POPC   NC310619  37.714  21.374   9.455
 6149POPC   PO410620  37.697  21.392   9.155
 6149POPC   GL110621  37.655  21.372   8.855
 6149POPC   GL210622  37.623  21.308   8.855
 6149POPC   C1A10623  37.681  21.393   8.555
 6149POPC   D2A10624  37.677  21.403   8.255
 6149POPC   C3A10625  37.681  21.382   7.955
 6149POPC   C4A10626  37.685  21.354   7.655
 6149POPC   C1B10627  37.653  21.183   8.555
 6149POPC   C2B10628  37.616  21.118   8.255
 6149POPC   C3B10629  37.629  21.123   7.955
 6149POPC   C4B10630  37.591  21.155   7.655
 6150POPC   NC310631  15.222  42.319   9.455
 6150POPC   PO410632  15.228  42.309   9.155
 6150POPC   GL110633  15.145  42.344   8.855
 6150POPC   GL210634  15.163  42.207   8.855
 6150POPC   C1A10635  15.150  42.309   8.555
 6150POPC   D2A10636  15.138  42.384   8.255
 6150POPC   C3A10637  15.208  42.285   7.955
 6150POPC   C4A10638  15.171  42.294   7.655
 6150POPC   C1B10639  15.183  42.063   8.555
 6150POPC   C2B10640  15.118  42.112   8.255
 6150POPC   C3B10641  15.143  42.105   7.955
 6150POPC   C4B10642  15.102  42.051   7.655
 6151POPC   NC310643  30.725  29.101   9.455
 6151POPC   PO410644  30.722  29.181   9.155
 6151POPC   GL110645  30.729  29.171   8.855
 6151POPC   GL210646  30.834  29.114   8.855
 6151POPC   C1A10647  30.743  29.141   8.555
 6151POPC   D2A10648  30.710  29.158   8.255
 6151POPC   C3A10649  30.666  29.137   7.955
 6151POPC   C4A10650  30.697  29.142   7.655
 6151POPC   C1B10651  30.979  29.069   8.555
 6151POPC   C2B10652  30.989  29.115   8.255
 6151POPC   C3B10653  30.978  29.117   7.955
 6151POPC   C4B10654  30.956  29.112   7.655
 6152POPC   NC310655  28.354  28.384   9.455
 6152POPC   PO410656  28.351  28.354   9.155
 6152POPC   GL110657  28.393  28.386   8.855
 6152POPC   GL210658  28.440  28.449   8.855
 6152POPC   C1A10659  28.321  28.332   8.555
 6152POPC   D2A10660  28.352  28.340   8.255
 6152POPC   C3A10661  28.365  28.343   7.955
 6152POPC   C4A10662  28.331  28.362   7.655
 6152POPC   C1B10663  28.458  28.555   8.555
 6152POPC   C2B10664  28.473  28.602   8.255
 6152POPC   C3B10665  28.424  28.628   7.955
 6152POPC   C4B10666  28.466  28.626   7.655
 6153POPC   NC310667  38.451  15.163   9.455
 6153POPC   PO410668  38.465  15.175   9.155
 6153POPC   GL110669  38.452  15.202   8.855
 6153POPC   GL210670  38.445  15.018   8.855
 6153POPC   C1A10671  38.427  15.229   8.555
 6153POPC   D2A10672  38.413  15.185   8.255
 6153POPC   C3A10673  38.427  15.198   7.955
 6153POPC   C4A10674  38.505  15.169   7.655
 6153POPC   C1B10675  38.493  14.945   8.555
 6153POPC   C2B10676  38.536  14.951   8.255
 6153POPC   C3B10677  38.557  14.979   7.955
 6153POPC   C4B10678  38.515  14.925   7.655
 6154POPC   NC310679   8.979  17.479   9.455
 6154POPC   PO410680   9.009  17.498   9.155
 6154POPC   GL110681   8.944  17.491   8.855
 6154POPC   GL210682   8.914  17.379   8.855
 6154POPC   C1A10683   8.990  17.460   8.555
 6154POPC   D2A10684   8.991  17.503   8.255
 6154POPC   C3A10685   9.003  17.540   7.955
 6154POPC   C4A10686   8.931  17.488   7.655
 6154POPC   C1B10687   8.921  17.234   8.555
 6154POPC   C2B10688   8.947  17.225   8.255
 6154POPC   C3B10689   8.926  17.223   7.955
 6154POPC   C4B10690   8.900  17.264   7.655
 6155POPC   NC310691  28.320  15.994   9.455
 6155POPC   PO410692  28.418  16.002   9.155
 6155POPC   GL110693  28.383  15.938   8.855
 6155POPC   GL210694  28.540  15.970   8.855
 6155POPC   C1A10695  28.380  15.978   8.555
 6155POPC   D2A10696  28.321  15.943   8.255
 6155POPC   C3A10697  28.383  15.979   7.955
 6155POPC   C4A10698  28.333  15.982   7.655
 6155POPC   C1B10699  28.602  15.989   8.555
 6155POPC   C2B10700  28.664  15.992   8.255
 6155POPC   C3B10701  28.593  15.993   7.955
 6155POPC   C4B10702  28.630  15.945   7.655
 6156POPC   NC310703  41.533  11.331   9.455
 6156POPC   PO410704  41.602  11.270   9.155
 6156POPC   GL110705  41.560  11.339   8.855
 6156POPC   GL210706  41.533  11.441   8.855
 6156POPC   C1A10707  41.608  11.307   8.555
 6156POPC   D2A10708  41.581  11.336   8.255
 6156POPC   C3A10709  41.608  11.309   7.955
 6156POPC   C4A10710  41.577  11.327   7.655
 6156POPC   C1B10711  41.461  11.476   8.555
 6156POPC   C2B10712  41.415  11.509   8.255
 6156POPC   C3B10713  41.427  11.536   7.955
 6156POPC   C4B10714  41.398  11.470   7.655
 6157POPC   NC310715  36.890   1.228   9.455
 6157POPC   PO410716  36.926   1.225   9.155
 6157POPC   GL110717  36.914   1.214   8.855
 6157POPC   GL210718  37.032   1.337   8.855
 6157POPC   C1A10719  36.889   1.207   8.555
 6157POPC   D2A10720  36.879   1.210   8.255
 6157POPC   C3A10721  36.939   1.192   7.955
 6157POPC   C4A10722  36.919   1.244   7.655
 6157POPC   C1B10723  37.085   1.353   8.555
 6157POPC   C2B10724  37.053   1.427   8.255
 6157POPC   C3B10725  37.095   1.411   7.955
 6157POPC   C4B10726  37.049   1.406   7.655
 6158POPC   NC310727  24.478  17.536   9.455
 6158POPC   PO410728  24.516  17.528   9.155
 6158POPC   GL110729  24.508  17.520   8.855
 6158POPC   GL210730  24.440  17.411   8.855
 6158POPC   C1A10731  24.496  17.531   8.555
 6158POPC   D2A10732  24.537  17.502   8.255
 6158POPC   C3A10733  24.444  17.478   7.955
 6158POPC   C4A10734  24.521  17.534   7.655
 6158POPC   C1B10735  24.493  17.306   8.555
 6158POPC   C2B10736  24.497  17.251   8.255
 6158POPC   C3B10737  24.441  17.278   7.955
 6158POPC   C4B10738  24.463  17.282   7.655
 6159POPC   NC310739  27.637  36.908   9.455
 6159POPC   PO410740  27.603  36.868   9.155
 6159POPC   GL110741  27.637  36.922   8.855
 6159POPC   GL210742  27.616  37.056   8.855
 6159POPC   C1A10743  27.619  36.856   8.555
 6159POPC   D2A10744  27.600  36.934   8.255
 6159POPC   C3A10745  27.582  36.930   7.955
 6159POPC   C4A10746  27.596  36.896   7.655
 6159POPC   C1B10747  27.712  37.172   8.555
 6159POPC   C2B10748  27.734  37.150   8.255
 6159POPC   C3B10749  27.654  37.142   7.955
 6159POPC   C4B10750  27.696  37.135   7.655
 6160POPC   NC310751   7.424  25.282   9.455
 6160POPC   PO410752   7.422  25.240   9.155
 6160POPC   GL110753   7.386  25.310   8.855
 6160POPC   GL210754   7.326  25.339   8.855
 6160POPC   C1A10755   7.456  25.227   8.555
 6160POPC   D2A10756   7.412  25.245   8.255
 6160POPC   C3A10757   7.390  25.256   7.955
 6160POPC   C4A10758   7.423  25.304   7.655
 6160POPC   C1B10759   7.190  25.412   8.555
 6160POPC   C2B10760   7.249  25.452   8.255
 6160POPC   C3B10761   7.250  25.383   7.955
 6160POPC   C4B10762   7.247  25.436   7.655
 6161POPC   NC310763   9.792  21.398   9.455
 6161POPC   PO410764   9.782  21.374   9.155
 6161POPC   GL110765   9.708  21.351   8.855
 6161POPC   GL210766   9.646  21.247   8.855
 6161POPC   C1A10767   9.792  21.363   8.555
 6161POPC   D2A10768   9.768  21.412   8.255
 6161POPC   C3A10769   9.773  21.367   7.955
 6161POPC   C4A10770   9.730  21.432   7.655
 6161POPC   C1B10771   9.592  21.231   8.555
 6161POPC   C2B10772   9.549  21.218   8.255
 6161POPC   C3B10773   9.579  21.152   7.955
 6161POPC   C4B10774   9.571  21.242   7.655
 6162POPC   NC310775  19.100   0.408   9.455
 6162POPC   PO410776  19.096   0.450   9.155
 6162POPC   GL110777  19.093   0.471   8.855
 6162POPC   GL210778  19.152   0.368   8.855
 6162POPC   C1A10779  19.108   0.410   8.555
 6162POPC   D2A10780  19.044   0.452   8.255
 6162POPC   C3A10781  19.025   0.400   7.955
 6162POPC   C4A10782  19.027   0.477   7.655
 6162POPC   C1B10783  19.304   0.345   8.555
 6162POPC   C2B10784  19.276   0.401   8.255
 6162POPC   C3B10785  19.257   0.334   7.955
 6162POPC   C4B10786  19.300   0.331   7.655
 6163POPC   NC310787  33.837   7.444   9.455
 6163POPC   PO410788  33.809   7.435   9.155
 6163POPC   GL110789  33.789   7.461   8.855
 6163POPC   GL210790  33.899   7.483   8.855
 6163POPC   C1A10791  33.837   7.419   8.555
 6163POPC   D2A10792  33.802   7.460   8.255
 6163POPC   C3A10793  33.779   7.417   7.955
 6163POPC   C4A10794  33.774   7.449   7.655
 6163POPC   C1B10795  33.995   7.612   8.555
 6163POPC   C2B10796  33.979   7.551   8.255
 6163POPC   C3B10797  33.952   7.530   7.955
 6163POPC   C4B10798  34.005   7.611   7.655
 6164POPC   NC310799   3.577  42.307   9.455
 6164POPC   PO410800   3.590  42.355   9.155
 6164POPC   GL110801   3.572  42.337   8.855
 6164POPC   GL210802   3.395  42.311   8.855
 6164POPC   C1A10803   3.508  42.332   8.555
 6164POPC   D2A10804   3.573  42.293   8.255
 6164POPC   C3A10805   3.565  42.377   7.955
 6164POPC   C4A10806   3.510  42.379   7.655
 6164POPC   C1B10807   3.296  42.268   8.555
 6164POPC   C2B10808   3.341  42.333   8.255
 6164POPC   C3B10809   3.290  42.280   7.955
 6164POPC   C4B10810   3.311  42.246   7.655
 6165POPC   NC310811  15.136  34.565   9.455
 6165POPC   PO410812  15.224  34.606   9.155
 6165POPC   GL110813  15.213  34.611   8.855
 6165POPC   GL210814  15.079  34.452   8.855
 6165POPC   C1A10815  15.183  34.549   8.555
 6165POPC   D2A10816  15.228  34.561   8.255
 6165POPC   C3A10817  15.195  34.527   7.955
 6165POPC   C4A10818  15.227  34.576   7.655
 6165POPC   C1B10819  14.996  34.389   8.555
 6165POPC   C2B10820  14.950  34.450   8.255
 6165POPC   C3B10821  14.962  34.379   7.955
 6165POPC   C4B10822  15.013  34.401   7.655
 6166POPC   NC310823  43.141  33.055   9.455
 6166POPC   PO410824  43.131  33.032   9.155
 6166POPC   GL110825  43.159  33.051   8.855
 6166POPC   GL210826  43.250  33.077   8.855
 6166POPC   C1A10827  43.067  33.070   8.555
 6166POPC   D2A10828  43.065  33.066   8.255
 6166POPC   C3A10829  43.111  33.007   7.955
 6166POPC   C4A10830  43.143  33.026   7.655
 6166POPC   C1B10831  43.335  33.083   8.555
 6166POPC   C2B10832  43.351  33.072   8.255
 6166POPC   C3B10833  43.337  33.084   7.955
 6166POPC   C4B10834  43.383  33.015   7.655
 6167POPC   NC310835  36.154  41.593   9.455
 6167POPC   PO410836  36.084  41.518   9.155
 6167POPC   GL110837  36.131  41.564   8.855
 6167POPC   GL210838  36.264  41.678   8.855
 6167POPC   C1A10839  36.161  41.520   8.555
 6167POPC   D2A10840  36.079  41.555   8.255
 6167POPC   C3A10841  36.143  41.596   7.955
 6167POPC   C4A10842  36.107  41.557   7.655
 6167POPC   C1B10843  36.284  41.702   8.555
 6167POPC   C2B10844  36.261  41.693   8.255
 6167POPC   C3B10845  36.342  41.711   7.955
 6167POPC   C4B10846  36.316  41.701   7.655
 6168POPC   NC310847  44.626   9.733   9.455
 6168POPC   PO410848  44.629   9.735   9.155
 6168POPC   GL110849  44.661   9.795   8.855
 6168POPC   GL210850  44.550   9.645   8.855
 6168POPC   C1A10851  44.688   9.728   8.555
 6168POPC   D2A10852  44.618   9.780   8.255
 6168POPC   C3A10853  44.683   9.748   7.955
 6168POPC   C4A10854  44.623   9.797   7.655
 6168POPC   C1B10855  44.509   9.595   8.555
 6168POPC   C2B10856  44.508   9.573   8.255
 6168POPC   C3B10857  44.452   9.544   7.955
 6168POPC   C4B10858  44.506   9.626   7.655
 6169POPC   NC310859  22.179   6.616   9.455
 6169POPC   PO410860  22.174   6.635   9.155
 6169POPC   GL110861  22.204   6.668   8.855
 6169POPC   GL210862  22.044   6.625   8.855
 6169POPC   C1A10863  22.180   6.657   8.555
 6169POPC   D2A10864  22.196   6.652   8.255
 6169POPC   C3A10865  22.193   6.648   7.955
 6169POPC   C4A10866  22.189   6.608   7.655
 6169POPC   C1B10867  21.952   6.562   8.555
 6169POPC   C2B10868  21.973   6.496   8.255
 6169POPC   C3B10869  21.950   6.516   7.955
 6169POPC   C4B10870  21.971   6.554   7.655
 6170POPC   NC310871  26.856  17.503   9.455
 6170POPC   PO410872  26.785  17.500   9.155
 6170POPC   GL110873  26.784  17.458   8.855
 6170POPC   GL210874  26.960  17.398   8.855
 6170POPC   C1A10875  26.839  17.471   8.555
 6170POPC   D2A10876  26.796  17.541   8.255
 6170POPC   C3A10877  26.778  17.532   7.955
 6170POPC   C4A10878  26.783  17.478   7.655
 6170POPC   C1B10879  26.976  17.336   8.555
 6170POPC   C2B10880  26.989  17.338   8.255
 6170POPC   C3B10881  27.052  17.366   7.955
 6170POPC   C4B10882  27.000  17.322   7.655
 6171POPC   NC310883  10.569  21.413   9.455
 6171POPC   PO410884  10.533  21.401   9.155
 6171POPC   GL110885  10.518  21.368   8.855
 6171POPC   GL210886  10.544  21.306   8.855
 6171POPC   C1A10887  10.515  21.415   8.555
 6171POPC   D2A10888  10.557  21.431   8.255
 6171POPC   C3A10889  10.481  21.430   7.955
 6171POPC   C4A10890  10.526  21.373   7.655
 6171POPC   C1B10891  10.592  21.171   8.555
 6171POPC   C2B10892  10.547  21.144   8.255
 6171POPC   C3B10893  10.601  21.162   7.955
 6171POPC   C4B10894  10.552  21.142   7.655
 6172POPC   NC310895  43.077  27.583   9.455
 6172POPC   PO410896  43.132  27.631   9.155
 6172POPC   GL110897  43.072  27.580   8.855
 6172POPC   GL210898  43.047  27.545   8.855
 6172POPC   C1A10899  43.122  27.579   8.555
 6172POPC   D2A10900  43.087  27.629   8.255
 6172POPC   C3A10901  43.073  27.602   7.955
 6172POPC   C4A10902  43.133  27.553   7.655
 6172POPC   C1B10903  42.938  27.467   8.555
 6172POPC   C2B10904  42.878  27.401   8.255
 6172POPC   C3B10905  42.937  27.473   7.955
 6172POPC   C4B10906  42.956  27.498   7.655
 6173POPC   NC310907  17.548  43.917   9.455
 6173POPC   PO410908  17.547  43.856   9.155
 6173POPC   GL110909  17.543  43.910   8.855
 6173POPC   GL210910  17.605  43.780   8.855
 6173POPC   C1A10911  17.518  43.909   8.555
 6173POPC   D2A10912  17.508  43.850   8.255
 6173POPC   C3A10913  17.468  43.897   7.955
 6173POPC   C4A10914  17.528  43.902   7.655
 6173POPC   C1B10915  17.653  43.723   8.555
 6173POPC   C2B10916  17.738  43.751   8.255
 6173POPC   C3B10917  17.708  43.726   7.955
 6173POPC   C4B10918  17.749  43.722   7.655
 6174POPC   NC310919  26.054   1.942   9.455
 6174POPC   PO410920  26.030   1.956   9.155
 6174POPC   GL110921  26.059   1.958   8.855
 6174POPC   GL210922  26.133   2.019   8.855
 6174POPC   C1A10923  26.002   1.971   8.555
 6174POPC   D2A10924  26.042   1.999   8.255
 6174POPC   C3A10925  26.031   1.954   7.955
 6174POPC   C4A10926  26.067   1.983   7.655
 6174POPC   C1B10927  26.213   2.103   8.555
 6174POPC   C2B10928  26.252   2.092   8.255
 6174POPC   C3B10929  26.276   2.092   7.955
 6174POPC   C4B10930  26.202   2.095   7.655
 6175POPC   NC310931   0.426  18.238   9.455
 6175POPC   PO410932   0.408  18.248   9.155
 6175POPC   GL110933   0.401  18.240   8.855
 6175POPC   GL210934   0.375  18.348   8.855
 6175POPC   C1A10935   0.405  18.296   8.555
 6175POPC   D2A10936   0.419  18.267   8.255
 6175POPC   C3A10937   0.411  18.290   7.955
 6175POPC   C4A10938   0.425  18.282   7.655
 6175POPC   C1B10939   0.227  18.448   8.555
 6175POPC   C2B10940   0.236  18.458   8.255
 6175POPC   C3B10941   0.315  18.456   7.955
 6175POPC   C4B10942   0.239  18.472   7.655
 6176POPC   NC310943  32.297  24.512   9.455
 6176POPC   PO410944  32.272  24.530   9.155
 6176POPC   GL110945  32.201  24.509   8.855
 6176POPC   GL210946  32.211  24.383   8.855
 6176POPC   C1A10947  32.258  24.494   8.555
 6176POPC   D2A10948  32.249  24.484   8.255
 6176POPC   C3A10949  32.229  24.494   7.955
 6176POPC   C4A10950  32.237  24.504   7.655
 6176POPC   C1B10951  32.245  24.226   8.555
 6176POPC   C2B10952  32.256  24.233   8.255
 6176POPC   C3B10953  32.243  24.238   7.955
 6176POPC   C4B10954  32.215  24.238   7.655
 6177POPC   NC310955  29.893   4.365   9.455
 6177POPC   PO410956  29.954   4.367   9.155
 6177POPC   GL110957  29.958   4.331   8.855
 6177POPC   GL210958  29.840   4.276   8.855
 6177POPC   C1A10959  29.959   4.343   8.555
 6177POPC   D2A10960  29.941   4.352   8.255
 6177POPC   C3A10961  29.874   4.299   7.955
 6177POPC   C4A10962  29.914   4.338   7.655
 6177POPC   C1B10963  29.756   4.155   8.555
 6177POPC   C2B10964  29.746   4.193   8.255
 6177POPC   C3B10965  29.706   4.109   7.955
 6177POPC   C4B10966  29.738   4.165   7.655
 6178POPC   NC310967   6.623  40.738   9.455
 6178POPC   PO410968   6.608  40.767   9.155
 6178POPC   GL110969   6.677  40.745   8.855
 6178POPC   GL210970   6.520  40.877   8.855
 6178POPC   C1A10971   6.638  40.825   8.555
 6178POPC   D2A10972   6.607  40.831   8.255
 6178POPC   C3A10973   6.597  40.818   7.955
 6178POPC   C4A10974   6.688  40.763   7.655
 6178POPC   C1B10975   6.474  40.894   8.555
 6178POPC   C2B10976   6.399  40.884   8.255
 6178POPC   C3B10977   6.468  40.939   7.955
 6178POPC   C4B10978   6.401  40.933   7.655
 6179POPC   NC310979  23.756  35.367   9.455
 6179POPC   PO410980  23.721  35.359   9.155
 6179POPC   GL110981  23.702  35.399   8.855
 6179POPC   GL210982  23.790  35.333   8.855
 6179POPC   C1A10983  23.703  35.349   8.555
 6179POPC   D2A10984  23.706  35.303   8.255
 6179POPC   C3A10985  23.678  35.337   7.955
 6179POPC   C4A10986  23.695  35.347   7.655
 6179POPC   C1B10987  23.972  35.287   8.555
 6179POPC   C2B10988  23.916  35.265   8.255
 6179POPC   C3B10989  23.946  35.332   7.955
 6179POPC   C4B10990  23.911  35.297   7.655
 6180POPC   NC310991  11.299  18.257   9.455
 6180POPC   PO410992  11.306  18.325   9.155
 6180POPC   GL110993  11.289  18.322   8.855
 6180POPC   GL210994  11.127  18.243   8.855
 6180POPC   C1A10995  11.348  18.273   8.555
 6180POPC   D2A10996  11.265  18.297   8.255
 6180POPC   C3A10997  11.341  18.259   7.955
 6180POPC   C4A10998  11.259  18.287   7.655
 6180POPC   C1B10999  11.035  18.311   8.555
 6180POPC   C2B11000  11.045  18.284   8.255
 6180POPC   C3B11001  11.092  18.308   7.955
 6180POPC   C4B11002  11.087  18.240   7.655
 6181POPC   NC311003  20.568  33.796   9.455
 6181POPC   PO411004  20.604  33.833   9.155
 6181POPC   GL111005  20.644  33.798   8.855
 6181POPC   GL211006  20.539  33.733   8.855
 6181POPC   C1A11007  20.601  33.800   8.555
 6181POPC   D2A11008  20.648  33.841   8.255
 6181POPC   C3A11009  20.567  33.764   7.955
 6181POPC   C4A11010  20.623  33.846   7.655
 6181POPC   C1B11011  20.426  33.635   8.555
 6181POPC   C2B11012  20.414  33.587   8.255
 6181POPC   C3B11013  20.416  33.613   7.955
 6181POPC   C4B11014  20.435  33.588   7.655
 6182POPC   NC311015  14.435  38.498   9.455
 6182POPC   PO411016  14.441  38.450   9.155
 6182POPC   GL111017  14.378  38.472   8.855
 6182POPC   GL211018  14.472  38.484   8.855
 6182POPC   C1A11019  14.447  38.440   8.555
 6182POPC   D2A11020  14.444  38.471   8.255
 6182POPC   C3A11021  14.400  38.436   7.955
 6182POPC   C4A11022  14.381  38.505   7.655
 6182POPC   C1B11023  14.652  38.602   8.555
 6182POPC   C2B11024  14.609  38.612   8.255
 6182POPC   C3B11025  14.604  38.598   7.955
 6182POPC   C4B11026  14.645  38.601   7.655
 6183POPC   NC311027   2.716   5.869   9.455
 6183POPC   PO411028   2.749   5.836   9.155
 6183POPC   GL111029   2.770   5.873   8.855
 6183POPC   GL211030   2.695   5.921   8.855
 6183POPC   C1A11031   2.724   5.894   8.555
 6183POPC   D2A11032   2.797   5.870   8.255
 6183POPC   C3A11033   2.748   5.837   7.955
 6183POPC   C4A11034   2.737   5.833   7.655
 6183POPC   C1B11035   2.627   6.026   8.555
 6183POPC   C2B11036   2.631   6.083   8.255
 6183POPC   C3B11037   2.616   6.059   7.955
 6183POPC   C4B11038   2.559   6.024   7.655
 6184POPC   NC311039  22.180   8.980   9.455
 6184POPC   PO411040  22.143   9.018   9.155
 6184POPC   GL111041  22.206   9.021   8.855
 6184POPC   GL211042  22.126   9.104   8.855
 6184POPC   C1A11043  22.182   8.968   8.555
 6184POPC   D2A11044  22.175   8.958   8.255
 6184POPC   C3A11045  22.199   8.967   7.955
 6184POPC   C4A11046  22.195   8.939   7.655
 6184POPC   C1B11047  22.139   9.191   8.555
 6184POPC   C2B11048  22.197   9.178   8.255
 6184POPC   C3B11049  22.146   9.216   7.955
 6184POPC   C4B11050  22.128   9.269   7.655
 6185POPC   NC311051  41.581  20.621   9.455
 6185POPC   PO411052  41.607  20.637   9.155
 6185POPC   GL111053  41.582  20.614   8.855
 6185POPC   GL211054  41.666  20.669   8.855
 6185POPC   C1A11055  41.570  20.619   8.555
 6185POPC   D2A11056  41.540  20.658   8.255
 6185POPC   C3A11057  41.599  20.640   7.955
 6185POPC   C4A11058  41.555  20.617   7.655
 6185POPC   C1B11059  41.767  20.681   8.555
 6185POPC   C2B11060  41.816  20.716   8.255
 6185POPC   C3B11061  41.806  20.677   7.955
 6185POPC   C4B11062  41.821  20.735   7.655
 6186POPC   NC311063  39.220  28.352   9.455
 6186POPC   PO411064  39.241  28.407   9.155
 6186POPC   GL111065  39.223  28.412   8.855
 6186POPC   GL211066  39.321  28.488   8.855
 6186POPC   C1A11067  39.262  28.336   8.555
 6186POPC   D2A11068  39.223  28.403   8.255
 6186POPC   C3A11069  39.228  28.330   7.955
 6186POPC   C4A11070  39.244  28.396   7.655
 6186POPC   C1B11071  39.418  28.600   8.555
 6186POPC   C2B11072  39.416  28.607   8.255
 6186POPC   C3B11073  39.357  28.594   7.955
 6186POPC   C4B11074  39.364  28.613   7.655
 6187POPC   NC311075  14.376  32.279   9.455
 6187POPC   PO411076  14.443  32.276   9.155
 6187POPC   GL111077  14.432  32.248   8.855
 6187POPC   GL211078  14.566  32.310   8.855
 6187POPC   C1A11079  14.409  32.264   8.555
 6187POPC   D2A11080  14.364  32.214   8.255
 6187POPC   C3A11081  14.366  32.204   7.955
 6187POPC   C4A11082  14.411  32.290   7.655
 6187POPC   C1B11083  14.659  32.324   8.555
 6187POPC   C2B11084  14.616  32.280   8.255
 6187POPC   C3B11085  14.669  32.321   7.955
 6187POPC   C4B11086  14.637  32.269   7.655
 6188POPC   NC311087   5.136   2.796   9.455
 6188POPC   PO411088   5.052   2.775   9.155
 6188POPC   GL111089   5.120   2.779   8.855
 6188POPC   GL211090   5.240   2.730   8.855
 6188POPC   C1A11091   5.134   2.761   8.555
 6188POPC   D2A11092   5.119   2.728   8.255
 6188POPC   C3A11093   5.083   2.811   7.955
 6188POPC   C4A11094   5.099   2.734   7.655
 6188POPC   C1B11095   5.269   2.633   8.555
 6188POPC   C2B11096   5.266   2.648   8.255
 6188POPC   C3B11097   5.311   2.613   7.955
 6188POPC   C4B11098   5.326   2.674   7.655
 6189POPC   NC311099  14.450  19.050   9.455
 6189POPC   PO411100  14.409  19.024   9.155
 6189POPC   GL111101  14.392  19.083   8.855
 6189POPC   GL211102  14.373  19.136   8.855
 6189POPC   C1A11103  14.369  19.085   8.555
 6189POPC   D2A11104  14.437  19.100   8.255
 6189POPC   C3A11105  14.401  19.108   7.955
 6189POPC   C4A11106  14.392  19.097   7.655
 6189POPC   C1B11107  14.377  19.283   8.555
 6189POPC   C2B11108  14.393  19.349   8.255
 6189POPC   C3B11109  14.411  19.355   7.955
 6189POPC   C4B11110  14.392  19.343   7.655
 6190POPC   NC311111  14.383   0.397   9.455
 6190POPC   PO411112  14.398   0.428   9.155
 6190POPC   GL111113  14.410   0.419   8.855
 6190POPC   GL211114  14.558   0.366   8.855
 6190POPC   C1A11115  14.443   0.432   8.555
 6190POPC   D2A11116  14.372   0.448   8.255
 6190POPC   C3A11117  14.390   0.478   7.955
 6190POPC   C4A11118  14.399   0.479   7.655
 6190POPC   C1B11119  14.611   0.289   8.555
 6190POPC   C2B11120  14.598   0.322   8.255
 6190POPC   C3B11121  14.598   0.301   7.955
 6190POPC   C4B11122  14.649   0.309   7.655
 6191POPC   NC311123  42.332  19.073   9.455
 6191POPC   PO411124  42.360  19.092   9.155
 6191POPC   GL111125  42.357  19.043   8.855
 6191POPC   GL211126  42.244  19.030   8.855
 6191POPC   C1A11127  42.357  19.064   8.555
 6191POPC   D2A11128  42.318  19.019   8.255
 6191POPC   C3A11129  42.328  19.039   7.955
 6191POPC   C4A11130  42.361  19.091   7.655
 6191POPC   C1B11131  42.080  18.945   8.555
 6191POPC   C2B11132  42.137  18.902   8.255
 6191POPC   C3B11133  42.141  18.917   7.955
 6191POPC   C4B11134  42.164  18.944   7.655
 6192POPC   NC311135  15.964   0.462   9.455
 6192POPC   PO411136  15.990   0.392   9.155
 6192POPC   GL111137  15.971   0.447   8.855
 6192POPC   GL211138  15.786   0.412   8.855
 6192POPC   C1A11139  15.963   0.413   8.555
 6192POPC   D2A11140  15.921   0.435   8.255
 6192POPC   C3A11141  15.973   0.394   7.955
 6192POPC   C4A11142  15.916   0.414   7.655
 6192POPC   C1B11143  15.669   0.405   8.555
 6192POPC   C2B11144  15.671   0.382   8.255
 6192POPC   C3B11145  15.720   0.392   7.955
 6192POPC   C4B11146  15.730   0.387   7.655
 6193POPC   NC311147  40.811  41.587   9.455
 6193POPC   PO411148  40.770  41.578   9.155
 6193POPC   GL111149  40.788  41.554   8.855
 6193POPC   GL211150  40.830  41.476   8.855
 6193POPC   C1A11151  40.826  41.574   8.555
 6193POPC   D2A11152  40.748  41.574   8.255
 6193POPC   C3A11153  40.800  41.602   7.955
 6193POPC   C4A11154  40.816  41.546   7.655
 6193POPC   C1B11155  40.938  41.330   8.555
 6193POPC   C2B11156  40.967  41.341   8.255
 6193POPC   C3B11157  40.988  41.411   7.955
 6193POPC   C4B11158  40.993  41.421   7.655
 6194POPC   NC311159  35.393   1.178   9.455
 6194POPC   PO411160  35.397   1.262   9.155
 6194POPC   GL111161  35.339   1.258   8.855
 6194POPC   GL211162  35.519   1.172   8.855
 6194POPC   C1A11163  35.324   1.202   8.555
 6194POPC   D2A11164  35.382   1.226   8.255
 6194POPC   C3A11165  35.367   1.169   7.955
 6194POPC   C4A11166  35.314   1.224   7.655
 6194POPC   C1B11167  35.650   1.178   8.555
 6194POPC   C2B11168  35.602   1.265   8.255
 6194POPC   C3B11169  35.553   1.216   7.955
 6194POPC   C4B11170  35.562   1.265   7.655
 6195POPC   NC311171  12.889  21.403   9.455
 6195POPC   PO411172  12.829  21.352   9.155
 6195POPC   GL111173  12.880  21.403   8.855
 6195POPC   GL211174  12.772  21.446   8.855
 6195POPC   C1A11175  12.839  21.370   8.555
 6195POPC   D2A11176  12.834  21.410   8.255
 6195POPC   C3A11177  12.863  21.348   7.955
 6195POPC   C4A11178  12.836  21.383   7.655
 6195POPC   C1B11179  12.615  21.410   8.555
 6195POPC   C2B11180  12.653  21.443   8.255
 6195POPC   C3B11181  12.611  21.486   7.955
 6195POPC   C4B11182  12.618  21.476   7.655
 6196POPC   NC311183   6.658  21.403   9.455
 6196POPC   PO411184   6.647  21.338   9.155
 6196POPC   GL111185   6.609  21.368   8.855
 6196POPC   GL211186   6.769  21.330   8.855
 6196POPC   C1A11187   6.597  21.345   8.555
 6196POPC   D2A11188   6.618  21.383   8.255
 6196POPC   C3A11189   6.655  21.410   7.955
 6196POPC   C4A11190   6.658  21.337   7.655
 6196POPC   C1B11191   6.853  21.248   8.555
 6196POPC   C2B11192   6.800  21.207   8.255
 6196POPC   C3B11193   6.854  21.226   7.955
 6196POPC   C4B11194   6.799  21.190   7.655
 6197POPC   NC311195  36.120  32.251   9.455
 6197POPC   PO411196  36.152  32.219   9.155
 6197POPC   GL111197  36.119  32.255   8.855
 6197POPC   GL211198  36.175  32.380   8.855
 6197POPC   C1A11199  36.142  32.218   8.555
 6197POPC   D2A11200  36.161  32.282   8.255
 6197POPC   C3A11201  36.097  32.254   7.955
 6197POPC   C4A11202  36.145  32.226   7.655
 6197POPC   C1B11203  36.164  32.492   8.555
 6197POPC   C2B11204  36.149  32.516   8.255
 6197POPC   C3B11205  36.184  32.542   7.955
 6197POPC   C4B11206  36.210  32.530   7.655
 6198POPC   NC311207  24.536   4.295   9.455
 6198POPC   PO411208  24.487   4.329   9.155
 6198POPC   GL111209  24.453   4.351   8.855
 6198POPC   GL211210  24.335   4.307   8.855
 6198POPC   C1A11211  24.508   4.292   8.555
 6198POPC   D2A11212  24.460   4.330   8.255
 6198POPC   C3A11213  24.479   4.310   7.955
 6198POPC   C4A11214  24.495   4.289   7.655
 6198POPC   C1B11215  24.231   4.337   8.555
 6198POPC   C2B11216  24.278   4.299   8.255
 6198POPC   C3B11217  24.215   4.335   7.955
 6198POPC   C4B11218  24.206   4.282   7.655
 6199POPC   NC311219   1.972   1.198   9.455
 6199POPC   PO411220   2.019   1.258   9.155
 6199POPC   GL111221   1.957   1.239   8.855
 6199POPC   GL211222   1.859   1.195   8.855
 6199POPC   C1A11223   1.950   1.225   8.555
 6199POPC   D2A11224   1.982   1.180   8.255
 6199POPC   C3A11225   1.969   1.205   7.955
 6199POPC   C4A11226   2.010   1.246   7.655
 6199POPC   C1B11227   1.736   1.228   8.555
 6199POPC   C2B11228   1.774   1.199   8.255
 6199POPC   C3B11229   1.715   1.227   7.955
 6199POPC   C4B11230   1.740   1.238   7.655
 6200POPC   NC311231   1.221  33.006   9.455
 6200POPC   PO411232   1.228  33.017   9.155
 6200POPC   GL111233   1.260  33.073   8.855
 6200POPC   GL211234   1.071  32.968   8.855
 6200POPC   C1A11235   1.203  32.982   8.555
 6200POPC   D2A11236   1.176  33.021   8.255
 6200POPC   C3A11237   1.183  32.976   7.955
 6200POPC   C4A11238   1.253  32.985   7.655
 6200POPC   C1B11239   0.945  32.919   8.555
 6200POPC   C2B11240   0.948  32.976   8.255
 6200POPC   C3B11241   0.940  32.989   7.955
 6200POPC   C4B11242   0.935  32.970   7.655
 6201POPC   NC311243  27.613  39.201   9.455
 6201POPC   PO411244  27.632  39.189   9.155
 6201POPC   GL111245  27.608  39.272   8.855
 6201POPC   GL211246  27.578  39.391   8.855
 6201POPC   C1A11247  27.569  39.253   8.555
 6201POPC   D2A11248  27.608  39.236   8.255
 6201POPC   C3A11249  27.562  39.259   7.955
 6201POPC   C4A11250  27.582  39.264   7.655
 6201POPC   C1B11251  27.460  39.432   8.555
 6201POPC   C2B11252  27.495  39.469   8.255
 6201POPC   C3B11253  27.471  39.492   7.955
 6201POPC   C4B11254  27.472  39.441   7.655
 6202POPC   NC311255   2.740  22.934   9.455
 6202POPC   PO411256   2.769  22.968   9.155
 6202POPC   GL111257   2.758  22.971   8.855
 6202POPC   GL211258   2.870  23.057   8.855
 6202POPC   C1A11259   2.790  22.985   8.555
 6202POPC   D2A11260   2.772  22.980   8.255
 6202POPC   C3A11261   2.800  22.926   7.955
 6202POPC   C4A11262   2.737  22.971   7.655
 6202POPC   C1B11263   2.920  23.141   8.555
 6202POPC   C2B11264   2.931  23.143   8.255
 6202POPC   C3B11265   2.855  23.124   7.955
 6202POPC   C4B11266   2.864  23.182   7.655
 6203POPC   NC311267  33.808   6.686   9.455
 6203POPC   PO411268  33.768   6.654   9.155
 6203POPC   GL111269  33.770   6.689   8.855
 6203POPC   GL211270  33.698   6.675   8.855
 6203POPC   C1A11271  33.769   6.607   8.555
 6203POPC   D2A11272  33.799   6.682   8.255
 6203POPC   C3A11273  33.805   6.600   7.955
 6203POPC   C4A11274  33.780   6.598   7.655
 6203POPC   C1B11275  33.551   6.776   8.555
 6203POPC   C2B11276  33.590   6.700   8.255
 6203POPC   C3B11277  33.590   6.782   7.955
 6203POPC   C4B11278  33.519   6.738   7.655
 6204POPC   NC311279   8.211  14.406   9.455
 6204POPC   PO411280   8.226  14.393   9.155
 6204POPC   GL111281   8.202  14.386   8.855
 6204POPC   GL211282   8.318  14.432   8.855
 6204POPC   C1A11283   8.194  14.375   8.555
 6204POPC   D2A11284   8.179  14.368   8.255
 6204POPC   C3A11285   8.169  14.442   7.955
 6204POPC   C4A11286   8.221  14.357   7.655
 6204POPC   C1B11287   8.425  14.446   8.555
 6204POPC   C2B11288   8.429  14.486   8.255
 6204POPC   C3B11289   8.390  14.466   7.955
 6204POPC   C4B11290   8.436  14.483   7.655
 6205POPC   NC311291   5.894   3.539   9.455
 6205POPC   PO411292   5.825   3.567   9.155
 6205POPC   GL111293   5.852   3.543   8.855
 6205POPC   GL211294   5.837   3.396   8.855
 6205POPC   C1A11295   5.887   3.547   8.555
 6205POPC   D2A11296   5.877   3.543   8.255
 6205POPC   C3A11297   5.838   3.567   7.955
 6205POPC   C4A11298   5.833   3.554   7.655
 6205POPC   C1B11299   5.795   3.280   8.555
 6205POPC   C2B11300   5.869   3.321   8.255
 6205POPC   C3B11301   5.795   3.247   7.955
 6205POPC   C4B11302   5.800   3.269   7.655
 6206POPC   NC311303   0.428  15.179   9.455
 6206POPC   PO411304   0.430  15.177   9.155
 6206POPC   GL111305   0.458  15.142   8.855
 6206POPC   GL211306   0.386  15.288   8.855
 6206POPC   C1A11307   0.417  15.209   8.555
 6206POPC   D2A11308   0.462  15.169   8.255
 6206POPC   C3A11309   0.452  15.219   7.955
 6206POPC   C4A11310   0.462  15.153   7.655
 6206POPC   C1B11311   0.367  15.384   8.555
 6206POPC   C2B11312   0.379  15.457   8.255
 6206POPC   C3B11313   0.392  15.448   7.955
 6206POPC   C4B11314   0.359  15.383   7.655
 6207POPC   NC311315  15.959  41.580   9.455
 6207POPC   PO411316  15.965  41.515   9.155
 6207POPC   GL111317  15.988  41.563   8.855
 6207POPC   GL211318  15.883  41.661   8.855
 6207POPC   C1A11319  15.909  41.596   8.555
 6207POPC   D2A11320  15.976  41.585   8.255
 6207POPC   C3A11321  16.001  41.552   7.955
 6207POPC   C4A11322  16.001  41.539   7.655
 6207POPC   C1B11323  15.763  41.676   8.555
 6207POPC   C2B11324  15.773  41.719   8.255
 6207POPC   C3B11325  15.754  41.655   7.955
 6207POPC   C4B11326  15.697  41.669   7.655
 6208POPC   NC311327  27.594   8.959   9.455
 6208POPC   PO411328  27.585   8.946   9.155
 6208POPC   GL111329  27.590   8.955   8.855
 6208POPC   GL211330  27.694   9.000   8.855
 6208POPC   C1A11331  27.594   9.014   8.555
 6208POPC   D2A11332  27.547   8.989   8.255
 6208POPC   C3A11333  27.633   9.016   7.955
 6208POPC   C4A11334  27.616   8.947   7.655
 6208POPC   C1B11335  27.867   8.923   8.555
 6208POPC   C2B11336  27.874   8.941   8.255
 6208POPC   C3B11337  27.834   8.909   7.955
 6208POPC   C4B11338  27.850   8.916   7.655
 6209POPC   NC311339  25.220  29.136   9.455
 6209POPC   PO411340  25.230  29.108   9.155
 6209POPC   GL111341  25.235  29.117   8.855
 6209POPC   GL211342  25.334  29.049   8.855
 6209POPC   C1A11343  25.294  29.102   8.555
 6209POPC   D2A11344  25.307  29.132   8.255
 6209POPC   C3A11345  25.274  29.130   7.955
 6209POPC   C4A11346  25.235  29.179   7.655
 6209POPC   C1B11347  25.326  28.862   8.555
 6209POPC   C2B11348  25.368  28.899   8.255
 6209POPC   C3B11349  25.314  28.910   7.955
 6209POPC   C4B11350  25.350  28.943   7.655
 6210POPC   NC311351  25.271  21.423   9.455
 6210POPC   PO411352  25.293  21.423   9.155
 6210POPC   GL111353  25.297  21.414   8.855
 6210POPC   GL211354  25.131  21.304   8.855
 6210POPC   C1A11355  25.216  21.411   8.555
 6210POPC   D2A11356  25.266  21.428   8.255
 6210POPC   C3A11357  25.299  21.362   7.955
 6210POPC   C4A11358  25.284  21.415   7.655
 6210POPC   C1B11359  25.051  21.228   8.555
 6210POPC   C2B11360  25.093  21.181   8.255
 6210POPC   C3B11361  25.076  21.224   7.955
 6210POPC   C4B11362  25.047  21.273   7.655
 6211POPC   NC311363  29.180  22.977   9.455
 6211POPC   PO411364  29.174  22.969   9.155
 6211POPC   GL111365  29.141  22.901   8.855
 6211POPC   GL211366  29.099  23.092   8.855
 6211POPC   C1A11367  29.133  22.981   8.555
 6211POPC   D2A11368  29.124  22.962   8.255
 6211POPC   C3A11369  29.100  22.913   7.955
 6211POPC   C4A11370  29.116  22.970   7.655
 6211POPC   C1B11371  29.031  23.175   8.555
 6211POPC   C2B11372  29.024  23.180   8.255
 6211POPC   C3B11373  29.101  23.147   7.955
 6211POPC   C4B11374  29.055  23.153   7.655
 6212POPC   NC311375  22.138   4.302   9.455
 6212POPC   PO411376  22.157   4.331   9.155
 6212POPC   GL111377  22.210   4.328   8.855
 6212POPC   GL211378  22.153   4.421   8.855
 6212POPC   C1A11379  22.123   4.276   8.555
 6212POPC   D2A11380  22.132   4.279   8.255
 6212POPC   C3A11381  22.119   4.312   7.955
 6212POPC   C4A11382  22.188   4.310   7.655
 6212POPC   C1B11383  22.032   4.591   8.555
 6212POPC   C2B11384  22.029   4.501   8.255
 6212POPC   C3B11385  22.091   4.575   7.955
 6212POPC   C4B11386  22.056   4.557   7.655
 6213POPC   NC311387  21.380  15.966   9.455
 6213POPC   PO411388  21.383  15.930   9.155
 6213POPC   GL111389  21.430  15.979   8.855
 6213POPC   GL211390  21.458  15.943   8.855
 6213POPC   C1A11391  21.426  15.985   8.555
 6213POPC   D2A11392  21.376  15.927   8.255
 6213POPC   C3A11393  21.394  15.908   7.955
 6213POPC   C4A11394  21.372  15.983   7.655
 6213POPC   C1B11395  21.627  15.880   8.555
 6213POPC   C2B11396  21.633  15.803   8.255
 6213POPC   C3B11397  21.625  15.857   7.955
 6213POPC   C4B11398  21.649  15.867   7.655
 6214POPC   NC311399  40.830  27.603   9.455
 6214POPC   PO411400  40.789  27.545   9.155
 6214POPC   GL111401  40.812  27.564   8.855
 6214POPC   GL211402  40.764  27.674   8.855
 6214POPC   C1A11403  40.768  27.570   8.555
 6214POPC   D2A11404  40.816  27.552   8.255
 6214POPC   C3A11405  40.823  27.639   7.955
 6214POPC   C4A11406  40.803  27.567   7.655
 6214POPC   C1B11407  40.723  27.807   8.555
 6214POPC   C2B11408  40.735  27.788   8.255
 6214POPC   C3B11409  40.697  27.825   7.955
 6214POPC   C4B11410  40.767  27.821   7.655
 6215POPC   NC311411   4.314   1.194   9.455
 6215POPC   PO411412   4.285   1.249   9.155
 6215POPC   GL111413   4.339   1.206   8.855
 6215POPC   GL211414   4.160   1.226   8.855
 6215POPC   C1A11415   4.291   1.214   8.555
 6215POPC   D2A11416   4.344   1.217   8.255
 6215POPC   C3A11417   4.273   1.245   7.955
 6215POPC   C4A11418   4.359   1.226   7.655
 6215POPC   C1B11419   4.051   1.110   8.555
 6215POPC   C2B11420   4.121   1.123   8.255
 6215POPC   C3B11421   4.052   1.128   7.955
 6215POPC   C4B11422   4.104   1.128   7.655
 6216POPC   NC311423   5.873  19.872   9.455
 6216POPC   PO411424   5.885  19.830   9.155
 6216POPC   GL111425   5.854  19.873   8.855
 6216POPC   GL211426   5.917  19.736   8.855
 6216POPC   C1A11427   5.839  19.800   8.555
 6216POPC   D2A11428   5.873  19.828   8.255
 6216POPC   C3A11429   5.894  19.834   7.955
 6216POPC   C4A11430   5.845  19.818   7.655
 6216POPC   C1B11431   5.850  19.593   8.555
 6216POPC   C2B11432   5.903  19.557   8.255
 6216POPC   C3B11433   5.889  19.600   7.955
 6216POPC   C4B11434   5.850  19.588   7.655
 6217POPC   NC311435   6.628  15.996   9.455
 6217POPC   PO411436   6.690  15.915   9.155
 6217POPC   GL111437   6.676  15.989   8.855
 6217POPC   GL211438   6.710  15.838   8.855
 6217POPC   C1A11439   6.661  15.988   8.555
 6217POPC   D2A11440   6.683  15.991   8.255
 6217POPC   C3A11441   6.613  15.928   7.955
 6217POPC   C4A11442   6.682  16.000   7.655
 6217POPC   C1B11443   6.660  15.727   8.555
 6217POPC   C2B11444   6.724  15.700   8.255
 6217POPC   C3B11445   6.653  15.749   7.955
 6217POPC   C4B11446   6.707  15.715   7.655
 6218POPC   NC311447  36.943  14.442   9.455
 6218POPC   PO411448  36.882  14.444   9.155
 6218POPC   GL111449  36.948  14.383   8.855
 6218POPC   GL211450  36.846  14.504   8.855
 6218POPC   C1A11451  36.940  14.397   8.555
 6218POPC   D2A11452  36.949  14.432   8.255
 6218POPC   C3A11453  36.882  14.442   7.955
 6218POPC   C4A11454  36.933  14.365   7.655
 6218POPC   C1B11455  36.773  14.647   8.555
 6218POPC   C2B11456  36.800  14.624   8.255
 6218POPC   C3B11457  36.767  14.568   7.955
 6218POPC   C4B11458  36.755  14.565   7.655
 6219POPC   NC311459  23.709  39.195   9.455
 6219POPC   PO411460  23.742  39.222   9.155
 6219POPC   GL111461  23.695  39.216   8.855
 6219POPC   GL211462  23.706  39.366   8.855
 6219POPC   C1A11463  23.730  39.191   8.555
 6219POPC   D2A11464  23.721  39.232   8.255
 6219POPC   C3A11465  23.709  39.259   7.955
 6219POPC   C4A11466  23.667  39.205   7.655
 6219POPC   C1B11467  23.669  39.451   8.555
 6219POPC   C2B11468  23.644  39.515   8.255
 6219POPC   C3B11469  23.694  39.509   7.955
 6219POPC   C4B11470  23.630  39.423   7.655
 6220POPC   NC311471  15.157  33.056   9.455
 6220POPC   PO411472  15.134  33.000   9.155
 6220POPC   GL111473  15.211  33.027   8.855
 6220POPC   GL211474  15.333  32.929   8.855
 6220POPC   C1A11475  15.207  33.029   8.555
 6220POPC   D2A11476  15.209  32.977   8.255
 6220POPC   C3A11477  15.221  33.030   7.955
 6220POPC   C4A11478  15.147  33.001   7.655
 6220POPC   C1B11479  15.452  32.920   8.555
 6220POPC   C2B11480  15.414  32.967   8.255
 6220POPC   C3B11481  15.361  32.911   7.955
 6220POPC   C4B11482  15.427  32.874   7.655
 6221POPC   NC311483  28.415  19.804   9.455
 6221POPC   PO411484  28.328  19.847   9.155
 6221POPC   GL111485  28.374  19.815   8.855
 6221POPC   GL211486  28.259  19.751   8.855
 6221POPC   C1A11487  28.395  19.835   8.555
 6221POPC   D2A11488  28.387  19.803   8.255
 6221POPC   C3A11489  28.351  19.868   7.955
 6221POPC   C4A11490  28.387  19.839   7.655
 6221POPC   C1B11491  28.167  19.724   8.555
 6221POPC   C2B11492  28.150  19.714   8.255
 6221POPC   C3B11493  28.124  19.659   7.955
 6221POPC   C4B11494  28.137  19.704   7.655
 6222POPC   NC311495  42.361   5.135   9.455
 6222POPC   PO411496  42.334   5.136   9.155
 6222POPC   GL111497  42.382   5.128   8.855
 6222POPC   GL211498  42.360   4.933   8.855
 6222POPC   C1A11499  42.351   5.078   8.555
 6222POPC   D2A11500  42.333   5.047   8.255
 6222POPC   C3A11501  42.383   5.087   7.955
 6222POPC   C4A11502  42.299   5.088   7.655
 6222POPC   C1B11503  42.343   4.800   8.555
 6222POPC   C2B11504  42.284   4.796   8.255
 6222POPC   C3B11505  42.302   4.880   7.955
 6222POPC   C4B11506  42.341   4.799   7.655
 6223POPC   NC311507  14.432  13.665   9.455
 6223POPC   PO411508  14.356  13.597   9.155
 6223POPC   GL111509  14.376  13.609   8.855
 6223POPC   GL211510  14.458  13.766   8.855
 6223POPC   C1A11511  14.428  13.611   8.555
 6223POPC   D2A11512  14.410  13.623   8.255
 6223POPC   C3A11513  14.389  13.607   7.955
 6223POPC   C4A11514  14.390  13.671   7.655
 6223POPC   C1B11515  14.449  13.904   8.555
 6223POPC   C2B11516  14.488  13.876   8.255
 6223POPC   C3B11517  14.467  13.913   7.955
 6223POPC   C4B11518  14.436  13.886   7.655
 6224POPC   NC311519   0.404  14.424   9.455
 6224POPC   PO411520   0.482  14.412   9.155
 6224POPC   GL111521   0.479  14.372   8.855
 6224POPC   GL211522   0.320  14.346   8.855
 6224POPC   C1A11523   0.407  14.358   8.555
 6224POPC   D2A11524   0.477  14.441   8.255
 6224POPC   C3A11525   0.481  14.365   7.955
 6224POPC   C4A11526   0.484  14.445   7.655
 6224POPC   C1B11527   0.212  14.217   8.555
 6224POPC   C2B11528   0.232  14.215   8.255
 6224POPC   C3B11529   0.286  14.207   7.955
 6224POPC   C4B11530   0.255  14.245   7.655
 6225POPC   NC311531  44.662  29.915   9.455
 6225POPC   PO411532  44.643  29.964   9.155
 6225POPC   GL111533  44.679  29.887   8.855
 6225POPC   GL211534  44.568  29.900   8.855
 6225POPC   C1A11535  44.640  29.872   8.555
 6225POPC   D2A11536  44.699  29.967   8.255
 6225POPC   C3A11537  44.674  29.900   7.955
 6225POPC   C4A11538  44.637  29.885   7.655
 6225POPC   C1B11539  44.447  29.947   8.555
 6225POPC   C2B11540  44.418  29.916   8.255
 6225POPC   C3B11541  44.393  29.944   7.955
 6225POPC   C4B11542  44.439  29.959   7.655
 6226POPC   NC311543   8.240  40.768   9.455
 6226POPC   PO411544   8.218  40.799   9.155
 6226POPC   GL111545   8.226  40.783   8.855
 6226POPC   GL211546   8.304  40.836   8.855
 6226POPC   C1A11547   8.206  40.755   8.555
 6226POPC   D2A11548   8.177  40.827   8.255
 6226POPC   C3A11549   8.211  40.810   7.955
 6226POPC   C4A11550   8.229  40.802   7.655
 6226POPC   C1B11551   8.440  40.968   8.555
 6226POPC   C2B11552   8.415  40.927   8.255
 6226POPC   C3B11553   8.357  40.879   7.955
 6226POPC   C4B11554   8.453  40.963   7.655
 6227POPC   NC311555  26.058  21.417   9.455
 6227POPC   PO411556  26.077  21.356   9.155
 6227POPC   GL111557  26.060  21.370   8.855
 6227POPC   GL211558  26.156  21.418   8.855
 6227POPC   C1A11559  26.081  21.381   8.555
 6227POPC   D2A11560  26.020  21.383   8.255
 6227POPC   C3A11561  26.079  21.365   7.955
 6227POPC   C4A11562  26.082  21.380   7.655
 6227POPC   C1B11563  26.324  21.415   8.555
 6227POPC   C2B11564  26.280  21.450   8.255
 6227POPC   C3B11565  26.280  21.465   7.955
 6227POPC   C4B11566  26.279  21.381   7.655
 6228POPC   NC311567   8.243  20.607   9.455
 6228POPC   PO411568   8.155  20.562   9.155
 6228POPC   GL111569   8.230  20.579   8.855
 6228POPC   GL211570   8.333  20.597   8.855
 6228POPC   C1A11571   8.178  20.623   8.555
 6228POPC   D2A11572   8.228  20.595   8.255
 6228POPC   C3A11573   8.179  20.586   7.955
 6228POPC   C4A11574   8.188  20.571   7.655
 6228POPC   C1B11575   8.484  20.634   8.555
 6228POPC   C2B11576   8.432  20.624   8.255
 6228POPC   C3B11577   8.398  20.657   7.955
 6228POPC   C4B11578   8.463  20.660   7.655
 6229POPC   NC311579  15.228  36.161   9.455
 6229POPC   PO411580  15.205  36.139   9.155
 6229POPC   GL111581  15.160  36.080   8.855
 6229POPC   GL211582  15.167  36.241   8.855
 6229POPC   C1A11583  15.152  36.119   8.555
 6229POPC   D2A11584  15.150  36.163   8.255
 6229POPC   C3A11585  15.159  36.131   7.955
 6229POPC   C4A11586  15.204  36.100   7.655
 6229POPC   C1B11587  15.162  36.416   8.555
 6229POPC   C2B11588  15.186  36.374   8.255
 6229POPC   C3B11589  15.129  36.389   7.955
 6229POPC   C4B11590  15.111  36.364   7.655
 6230POPC   NC311591  25.280   6.640   9.455
 6230POPC   PO411592  25.259   6.634   9.155
 6230POPC   GL111593  25.303   6.617   8.855
 6230POPC   GL211594  25.173   6.681   8.855
 6230POPC   C1A11595  25.306   6.616   8.555
 6230POPC   D2A11596  25.293   6.654   8.255
 6230POPC   C3A11597  25.235   6.683   7.955
 6230POPC   C4A11598  25.283   6.608   7.655
 6230POPC   C1B11599  25.015   6.816   8.555
 6230POPC   C2B11600  25.054   6.758   8.255
 6230POPC   C3B11601  25.075   6.780   7.955
 6230POPC   C4B11602  25.109   6.740   7.655
 6231POPC   NC311603  14.433   6.682   9.455
 6231POPC   PO411604  14.356   6.609   9.155
 6231POPC   GL111605  14.375   6.608   8.855
 6231POPC   GL211606  14.359   6.478   8.855
 6231POPC   C1A11607  14.361   6.691   8.555
 6231POPC   D2A11608  14.389   6.599   8.255
 6231POPC   C3A11609  14.368   6.693   7.955
 6231POPC   C4A11610  14.425   6.652   7.655
 6231POPC   C1B11611  14.442   6.348   8.555
 6231POPC   C2B11612  14.373   6.374   8.255
 6231POPC   C3B11613  14.400   6.428   7.955
 6231POPC   C4B11614  14.381   6.389   7.655
 6232POPC   NC311615  25.274   5.915   9.455
 6232POPC   PO411616  25.242   5.822   9.155
 6232POPC   GL111617  25.235   5.874   8.855
 6232POPC   GL211618  25.158   5.892   8.855
 6232POPC   C1A11619  25.230   5.891   8.555
 6232POPC   D2A11620  25.259   5.865   8.255
 6232POPC   C3A11621  25.249   5.825   7.955
 6232POPC   C4A11622  25.240   5.844   7.655
 6232POPC   C1B11623  25.088   5.978   8.555
 6232POPC   C2B11624  25.090   6.018   8.255
 6232POPC   C3B11625  25.022   6.000   7.955
 6232POPC   C4B11626  25.021   5.930   7.655
 6233POPC   NC311627  31.484  29.939   9.455
 6233POPC   PO411628  31.426  29.900   9.155
 6233POPC   GL111629  31.497  29.938   8.855
 6233POPC   GL211630  31.380  29.935   8.855
 6233POPC   C1A11631  31.465  29.916   8.555
 6233POPC   D2A11632  31.446  29.884   8.255
 6233POPC   C3A11633  31.480  29.906   7.955
 6233POPC   C4A11634  31.459  29.882   7.655
 6233POPC   C1B11635  31.243  29.954   8.555
 6233POPC   C2B11636  31.225  29.971   8.255
 6233POPC   C3B11637  31.283  29.996   7.955
 6233POPC   C4B11638  31.187  30.047   7.655
 6234POPC   NC311639  44.711  13.670   9.455
 6234POPC   PO411640  44.679  13.609   9.155
 6234POPC   GL111641  44.618  13.605   8.855
 6234POPC   GL211642  44.795  13.675   8.855
 6234POPC   C1A11643  44.625  13.652   8.555
 6234POPC   D2A11644  44.651  13.676   8.255
 6234POPC   C3A11645  44.711  13.590   7.955
 6234POPC   C4A11646  44.686  13.668   7.655
 6234POPC   C1B11647  44.875  13.757   8.555
 6234POPC   C2B11648  44.849  13.705   8.255
 6234POPC   C3B11649  44.913  13.704   7.955
 6234POPC   C4B11650  44.924  13.746   7.655
 6235POPC   NC311651  24.451  30.700   9.455
 6235POPC   PO411652  24.444  30.716   9.155
 6235POPC   GL111653  24.501  30.694   8.855
 6235POPC   GL211654  24.473  30.782   8.855
 6235POPC   C1A11655  24.528  30.729   8.555
 6235POPC   D2A11656  24.467  30.694   8.255
 6235POPC   C3A11657  24.508  30.699   7.955
 6235POPC   C4A11658  24.481  30.731   7.655
 6235POPC   C1B11659  24.432  30.928   8.555
 6235POPC   C2B11660  24.467  30.955   8.255
 6235POPC   C3B11661  24.429  30.944   7.955
 6235POPC   C4B11662  24.507  30.980   7.655
 6236POPC   NC311663  30.704  15.944   9.455
 6236POPC   PO411664  30.732  15.994   9.155
 6236POPC   GL111665  30.729  15.976   8.855
 6236POPC   GL211666  30.637  16.075   8.855
 6236POPC   C1A11667  30.741  15.970   8.555
 6236POPC   D2A11668  30.678  15.956   8.255
 6236POPC   C3A11669  30.704  15.988   7.955
 6236POPC   C4A11670  30.730  15.932   7.655
 6236POPC   C1B11671  30.458  16.139   8.555
 6236POPC   C2B11672  30.547  16.094   8.255
 6236POPC   C3B11673  30.520  16.111   7.955
 6236POPC   C4B11674  30.460  16.064   7.655
 6237POPC   NC311675  15.994  10.517   9.455
 6237POPC   PO411676  15.919  10.512   9.155
 6237POPC   GL111677  16.004  10.540   8.855
 6237POPC   GL211678  15.826  10.587   8.855
 6237POPC   C1A11679  15.968  10.483   8.555
 6237POPC   D2A11680  15.962  10.503   8.255
 6237POPC   C3A11681  15.988  10.514   7.955
 6237POPC   C4A11682  15.939  10.564   7.655
 6237POPC   C1B11683  15.834  10.713   8.555
 6237POPC   C2B11684  15.811  10.748   8.255
 6237POPC   C3B11685  15.747  10.682   7.955
 6237POPC   C4B11686  15.802  10.678   7.655
 6238POPC   NC311687  43.141  36.090   9.455
 6238POPC   PO411688  43.075  36.101   9.155
 6238POPC   GL111689  43.066  36.099   8.855
 6238POPC   GL211690  43.153  36.003   8.855
 6238POPC   C1A11691  43.074  36.087   8.555
 6238POPC   D2A11692  43.135  36.144   8.255
 6238POPC   C3A11693  43.121  36.085   7.955
 6238POPC   C4A11694  43.100  36.146   7.655
 6238POPC   C1B11695  43.247  35.926   8.555
 6238POPC   C2B11696  43.281  35.925   8.255
 6238POPC   C3B11697  43.309  36.006   7.955
 6238POPC   C4B11698  43.293  36.005   7.655
 6239POPC   NC311699   6.662  17.478   9.455
 6239POPC   PO411700   6.632  17.525   9.155
 6239POPC   GL111701   6.621  17.519   8.855
 6239POPC   GL211702   6.734  17.592   8.855
 6239POPC   C1A11703   6.629  17.522   8.555
 6239POPC   D2A11704   6.605  17.458   8.255
 6239POPC   C3A11705   6.618  17.504   7.955
 6239POPC   C4A11706   6.604  17.499   7.655
 6239POPC   C1B11707   6.828  17.738   8.555
 6239POPC   C2B11708   6.779  17.709   8.255
 6239POPC   C3B11709   6.756  17.663   7.955
 6239POPC   C4B11710   6.820  17.692   7.655
 6240POPC   NC311711  29.113  28.405   9.455
 6240POPC   PO411712  29.184  28.357   9.155
 6240POPC   GL111713  29.100  28.402   8.855
 6240POPC   GL211714  29.205  28.496   8.855
 6240POPC   C1A11715  29.144  28.414   8.555
 6240POPC   D2A11716  29.102  28.366   8.255
 6240POPC   C3A11717  29.110  28.406   7.955
 6240POPC   C4A11718  29.129  28.409   7.655
 6240POPC   C1B11719  29.362  28.527   8.555
 6240POPC   C2B11720  29.295  28.498   8.255
 6240POPC   C3B11721  29.286  28.501   7.955
 6240POPC   C4B11722  29.339  28.579   7.655
 6241POPC   NC311723  19.851   5.104   9.455
 6241POPC   PO411724  19.809   5.113   9.155
 6241POPC   GL111725  19.831   5.056   8.855
 6241POPC   GL211726  19.804   4.982   8.855
 6241POPC   C1A11727  19.792   5.122   8.555
 6241POPC   D2A11728  19.820   5.073   8.255
 6241POPC   C3A11729  19.867   5.101   7.955
 6241POPC   C4A11730  19.789   5.073   7.655
 6241POPC   C1B11731  19.759   4.806   8.555
 6241POPC   C2B11732  19.839   4.834   8.255
 6241POPC   C3B11733  19.780   4.867   7.955
 6241POPC   C4B11734  19.760   4.800   7.655
 6242POPC   NC311735   5.068  15.943   9.455
 6242POPC   PO411736   5.045  15.948   9.155
 6242POPC   GL111737   5.070  16.003   8.855
 6242POPC   GL211738   4.968  15.934   8.855
 6242POPC   C1A11739   5.048  15.909   8.555
 6242POPC   D2A11740   5.136  15.978   8.255
 6242POPC   C3A11741   5.069  15.997   7.955
 6242POPC   C4A11742   5.118  15.917   7.655
 6242POPC   C1B11743   4.903  15.802   8.555
 6242POPC   C2B11744   4.869  15.866   8.255
 6242POPC   C3B11745   4.866  15.806   7.955
 6242POPC   C4B11746   4.839  15.857   7.655
 6243POPC   NC311747   1.167  16.005   9.455
 6243POPC   PO411748   1.247  15.946   9.155
 6243POPC   GL111749   1.250  15.958   8.855
 6243POPC   GL211750   1.365  15.857   8.855
 6243POPC   C1A11751   1.192  15.978   8.555
 6243POPC   D2A11752   1.209  15.993   8.255
 6243POPC   C3A11753   1.196  15.951   7.955
 6243POPC   C4A11754   1.251  15.933   7.655
 6243POPC   C1B11755   1.455  15.807   8.555
 6243POPC   C2B11756   1.391  15.798   8.255
 6243POPC   C3B11757   1.470  15.842   7.955
 6243POPC   C4B11758   1.446  15.811   7.655
 6244POPC   NC311759   2.038  39.264   9.455
 6244POPC   PO411760   1.949  39.196   9.155
 6244POPC   GL111761   1.972  39.182   8.855
 6244POPC   GL211762   2.045  39.057   8.855
 6244POPC   C1A11763   1.984  39.181   8.555
 6244POPC   D2A11764   1.993  39.261   8.255
 6244POPC   C3A11765   2.021  39.203   7.955
 6244POPC   C4A11766   2.036  39.261   7.655
 6244POPC   C1B11767   1.997  38.941   8.555
 6244POPC   C2B11768   2.041  38.977   8.255
 6244POPC   C3B11769   2.026  39.029   7.955
 6244POPC   C4B11770   1.976  38.994   7.655
 6245POPC   NC311771  43.879   7.389   9.455
 6245POPC   PO411772  43.920   7.384   9.155
 6245POPC   GL111773  43.879   7.419   8.855
 6245POPC   GL211774  43.810   7.318   8.855
 6245POPC   C1A11775  43.872   7.462   8.555
 6245POPC   D2A11776  43.928   7.379   8.255
 6245POPC   C3A11777  43.844   7.463   7.955
 6245POPC   C4A11778  43.917   7.432   7.655
 6245POPC   C1B11779  43.756   7.276   8.555
 6245POPC   C2B11780  43.769   7.261   8.255
 6245POPC   C3B11781  43.684   7.270   7.955
 6245POPC   C4B11782  43.699   7.198   7.655
 6246POPC   NC311783  11.257  44.658   9.455
 6246POPC   PO411784  11.260  44.699   9.155
 6246POPC   GL111785  11.312  44.697   8.855
 6246POPC   GL211786  11.398  44.633   8.855
 6246POPC   C1A11787  11.261  44.664   8.555
 6246POPC   D2A11788  11.335  44.660   8.255
 6246POPC   C3A11789  11.317  44.615   7.955
 6246POPC   C4A11790  11.313  44.632   7.655
 6246POPC   C1B11791  11.506  44.481   8.555
 6246POPC   C2B11792  11.516  44.531   8.255
 6246POPC   C3B11793  11.549  44.510   7.955
 6246POPC   C4B11794  11.467  44.534   7.655
 6247POPC   NC311795   2.778  41.516   9.455
 6247POPC   PO411796   2.815  41.562   9.155
 6247POPC   GL111797   2.756  41.582   8.855
 6247POPC   GL211798   2.758  41.407   8.855
 6247POPC   C1A11799   2.756  41.597   8.555
 6247POPC   D2A11800   2.719  41.516   8.255
 6247POPC   C3A11801   2.749  41.523   7.955
 6247POPC   C4A11802   2.731  41.549   7.655
 6247POPC   C1B11803   2.749  41.331   8.555
 6247POPC   C2B11804   2.751  41.270   8.255
 6247POPC   C3B11805   2.720  41.276   7.955
 6247POPC   C4B11806   2.791  41.358   7.655
 6248POPC   NC311807   7.383  41.600   9.455
 6248POPC   PO411808   7.439  41.549   9.155
 6248POPC   GL111809   7.448  41.573   8.855
 6248POPC   GL211810   7.462  41.642   8.855
 6248POPC   C1A11811   7.379  41.517   8.555
 6248POPC   D2A11812   7.441  41.591   8.255
 6248POPC   C3A11813   7.393  41.514   7.955
 6248POPC   C4A11814   7.457  41.556   7.655
 6248POPC   C1B11815   7.432  41.761   8.555
 6248POPC   C2B11816   7.418  41.833   8.255
 6248POPC   C3B11817   7.448  41.845   7.955
 6248POPC   C4B11818   7.380  41.766   7.655
 6249POPC   NC311819  27.614  35.358   9.455
 6249POPC   PO411820  27.562  35.393   9.155
 6249POPC   GL111821  27.624  35.377   8.855
 6249POPC   GL211822  27.509  35.400   8.855
 6249POPC   C1A11823  27.603  35.339   8.555
 6249POPC   D2A11824  27.593  35.368   8.255
 6249POPC   C3A11825  27.563  35.347   7.955
 6249POPC   C4A11826  27.637  35.390   7.655
 6249POPC   C1B11827  27.377  35.550   8.555
 6249POPC   C2B11828  27.460  35.543   8.255
 6249POPC   C3B11829  27.449  35.484   7.955
 6249POPC   C4B11830  27.465  35.491   7.655
 6250POPC   NC311831  29.146  29.191   9.455
 6250POPC   PO411832  29.161  29.171   9.155
 6250POPC   GL111833  29.100  29.100   8.855
 6250POPC   GL211834  29.033  29.022   8.855
 6250POPC   C1A11835  29.109  29.131   8.555
 6250POPC   D2A11836  29.154  29.132   8.255
 6250POPC   C3A11837  29.176  29.152   7.955
 6250POPC   C4A11838  29.101  29.189   7.655
 6250POPC   C1B11839  29.015  28.919   8.555
 6250POPC   C2B11840  28.933  28.987   8.255
 6250POPC   C3B11841  29.009  28.963   7.955
 6250POPC   C4B11842  28.960  28.916   7.655
 6251POPC   NC311843   9.719   8.241   9.455
 6251POPC   PO411844   9.706   8.240   9.155
 6251POPC   GL111845   9.747   8.191   8.855
 6251POPC   GL211846   9.783   8.052   8.855
 6251POPC   C1A11847   9.782   8.178   8.555
 6251POPC   D2A11848   9.705   8.198   8.255
 6251POPC   C3A11849   9.783   8.240   7.955
 6251POPC   C4A11850   9.714   8.243   7.655
 6251POPC   C1B11851   9.788   7.991   8.555
 6251POPC   C2B11852   9.797   7.925   8.255
 6251POPC   C3B11853   9.730   7.987   7.955
 6251POPC   C4B11854   9.795   7.992   7.655
 6252POPC   NC311855  33.775  19.817   9.455
 6252POPC   PO411856  33.815  19.872   9.155
 6252POPC   GL111857  33.849  19.834   8.855
 6252POPC   GL211858  33.771  19.997   8.855
 6252POPC   C1A11859  33.822  19.859   8.555
 6252POPC   D2A11860  33.815  19.800   8.255
 6252POPC   C3A11861  33.820  19.806   7.955
 6252POPC   C4A11862  33.825  19.848   7.655
 6252POPC   C1B11863  33.754  20.051   8.555
 6252POPC   C2B11864  33.767  20.112   8.255
 6252POPC   C3B11865  33.706  20.031   7.955
 6252POPC   C4B11866  33.688  20.033   7.655
 6253POPC   NC311867   9.773  42.321   9.455
 6253POPC   PO411868   9.779  42.312   9.155
 6253POPC   GL111869   9.736  42.343   8.855
 6253POPC   GL211870   9.687  42.211   8.855
 6253POPC   C1A11871   9.718  42.341   8.555
 6253POPC   D2A11872   9.723  42.343   8.255
 6253POPC   C3A11873   9.776  42.331   7.955
 6253POPC   C4A11874   9.757  42.301   7.655
 6253POPC   C1B11875   9.552  42.158   8.555
 6253POPC   C2B11876   9.615  42.162   8.255
 6253POPC   C3B11877   9.562  42.137   7.955
 6253POPC   C4B11878   9.570  42.170   7.655
 6254POPC   NC311879   7.394   3.540   9.455
 6254POPC   PO411880   7.446   3.569   9.155
 6254POPC   GL111881   7.457   3.545   8.855
 6254POPC   GL211882   7.348   3.465   8.855
 6254POPC   C1A11883   7.402   3.581   8.555
 6254POPC   D2A11884   7.423   3.525   8.255
 6254POPC   C3A11885   7.451   3.521   7.955
 6254POPC   C4A11886   7.412   3.541   7.655
 6254POPC   C1B11887   7.184   3.421   8.555
 6254POPC   C2B11888   7.167   3.483   8.255
 6254POPC   C3B11889   7.152   3.416   7.955
 6254POPC   C4B11890   7.166   3.461   7.655
 6255POPC   NC311891  37.672  17.507   9.455
 6255POPC   PO411892  37.683  17.537   9.155
 6255POPC   GL111893  37.648  17.537   8.855
 6255POPC   GL211894  37.518  17.467   8.855
 6255POPC   C1A11895  37.641  17.541   8.555
 6255POPC   D2A11896  37.711  17.520   8.255
 6255POPC   C3A11897  37.670  17.549   7.955
 6255POPC   C4A11898  37.711  17.555   7.655
 6255POPC   C1B11899  37.432  17.429   8.555
 6255POPC   C2B11900  37.398  17.416   8.255
 6255POPC   C3B11901  37.452  17.381   7.955
 6255POPC   C4B11902  37.478  17.468   7.655
 6256POPC   NC311903  11.288  25.304   9.455
 6256POPC   PO411904  11.341  25.265   9.155
 6256POPC   GL111905  11.260  25.225   8.855
 6256POPC   GL211906  11.442  25.176   8.855
 6256POPC   C1A11907  11.339  25.267   8.555
 6256POPC   D2A11908  11.347  25.285   8.255
 6256POPC   C3A11909  11.314  25.229   7.955
 6256POPC   C4A11910  11.261  25.256   7.655
 6256POPC   C1B11911  11.455  25.111   8.555
 6256POPC   C2B11912  11.519  25.096   8.255
 6256POPC   C3B11913  11.506  25.062   7.955
 6256POPC   C4B11914  11.510  25.078   7.655
 6257POPC   NC311915  42.292  22.955   9.455
 6257POPC   PO411916  42.326  22.941   9.155
 6257POPC   GL111917  42.384  22.946   8.855
 6257POPC   GL211918  42.246  22.960   8.855
 6257POPC   C1A11919  42.321  22.934   8.555
 6257POPC   D2A11920  42.308  22.947   8.255
 6257POPC   C3A11921  42.293  22.899   7.955
 6257POPC   C4A11922  42.320  22.908   7.655
 6257POPC   C1B11923  42.063  23.061   8.555
 6257POPC   C2B11924  42.146  22.986   8.255
 6257POPC   C3B11925  42.053  23.025   7.955
 6257POPC   C4B11926  42.055  22.989   7.655
 6258POPC   NC311927  23.680  12.831   9.455
 6258POPC   PO411928  23.666  12.880   9.155
 6258POPC   GL111929  23.684  12.845   8.855
 6258POPC   GL211930  23.834  12.807   8.855
 6258POPC   C1A11931  23.693  12.893   8.555
 6258POPC   D2A11932  23.747  12.817   8.255
 6258POPC   C3A11933  23.730  12.886   7.955
 6258POPC   C4A11934  23.702  12.893   7.655
 6258POPC   C1B11935  23.956  12.881   8.555
 6258POPC   C2B11936  23.994  12.895   8.255
 6258POPC   C3B11937  23.986  12.892   7.955
 6258POPC   C4B11938  23.917  12.836   7.655
 6259POPC   NC311939   0.405  33.768   9.455
 6259POPC   PO411940   0.439  33.804   9.155
 6259POPC   GL111941   0.390  33.776   8.855
 6259POPC   GL211942   0.480  33.862   8.855
 6259POPC   C1A11943   0.424  33.845   8.555
 6259POPC   D2A11944   0.438  33.814   8.255
 6259POPC   C3A11945   0.465  33.772   7.955
 6259POPC   C4A11946   0.406  33.772   7.655
 6259POPC   C1B11947   0.549  34.061   8.555
 6259POPC   C2B11948   0.517  34.024   8.255
 6259POPC   C3B11949   0.578  34.007   7.955
 6259POPC   C4B11950   0.600  33.993   7.655
 6260POPC   NC311951  42.320  28.350   9.455
 6260POPC   PO411952  42.301  28.367   9.155
 6260POPC   GL111953  42.328  28.372   8.855
 6260POPC   GL211954  42.417  28.349   8.855
 6260POPC   C1A11955  42.338  28.387   8.555
 6260POPC   D2A11956  42.374  28.407   8.255
 6260POPC   C3A11957  42.337  28.348   7.955
 6260POPC   C4A11958  42.381  28.334   7.655
 6260POPC   C1B11959  42.534  28.201   8.555
 6260POPC   C2B11960  42.591  28.257   8.255
 6260POPC   C3B11961  42.574  28.191   7.955
 6260POPC   C4B11962  42.568  28.226   7.655
 6261POPC   NC311963  38.485   7.375   9.455
 6261POPC   PO411964  38.416   7.452   9.155
 6261POPC   GL111965  38.457   7.379   8.855
 6261POPC   GL211966  38.583   7.524   8.855
 6261POPC   C1A11967  38.439   7.416   8.555
 6261POPC   D2A11968  38.505   7.375   8.255
 6261POPC   C3A11969  38.486   7.463   7.955
 6261POPC   C4A11970  38.470   7.442   7.655
 6261POPC   C1B11971  38.613   7.559   8.555
 6261POPC   C2B11972  38.703   7.558   8.255
 6261POPC   C3B11973  38.628   7.597   7.955
 6261POPC   C4B11974  38.690   7.527   7.655
 6262POPC   NC311975  25.261   2.761   9.455
 6262POPC   PO411976  25.264   2.761   9.155
 6262POPC   GL111977  25.261   2.786   8.855
 6262POPC   GL211978  25.186   2.665   8.855
 6262POPC   C1A11979  25.312   2.735   8.555
 6262POPC   D2A11980  25.269   2.780   8.255
 6262POPC   C3A11981  25.265   2.810   7.955
 6262POPC   C4A11982  25.293   2.762   7.655
 6262POPC   C1B11983  25.158   2.569   8.555
 6262POPC   C2B11984  25.112   2.616   8.255
 6262POPC   C3B11985  25.157   2.587   7.955
 6262POPC   C4B11986  25.143   2.534   7.655
 6263POPC   NC311987  33.013   0.403   9.455
 6263POPC   PO411988  33.022   0.416   9.155
 6263POPC   GL111989  33.034   0.432   8.855
 6263POPC   GL211990  32.877   0.474   8.855
 6263POPC   C1A11991  32.993   0.396   8.555
 6263POPC   D2A11992  33.071   0.456   8.255
 6263POPC   C3A11993  33.019   0.388   7.955
 6263POPC   C4A11994  33.018   0.449   7.655
 6263POPC   C1B11995  32.773   0.435   8.555
 6263POPC   C2B11996  32.760   0.468   8.255
 6263POPC   C3B11997  32.741   0.465   7.955
 6263POPC   C4B11998  32.769   0.430   7.655
 6264POPC   NC311999  37.705  22.179   9.455
 6264POPC   PO412000  37.674  22.209   9.155
 6264POPC   GL112001  37.678  22.163   8.855
 6264POPC   GL212002  37.752  22.091   8.855
 6264POPC   C1A12003  37.662  22.171   8.555
 6264POPC   D2A12004  37.651  22.203   8.255
 6264POPC   C3A12005  37.728  22.151   7.955
 6264POPC   C4A12006  37.633  22.175   7.655
 6264POPC   C1B12007  37.923  22.121   8.555
 6264POPC   C2B12008  37.910  22.112   8.255
 6264POPC   C3B12009  37.950  22.092   7.955
 6264POPC   C4B12010  37.965  22.103   7.655
 6265POPC   NC312011  11.328  36.160   9.455
 6265POPC   PO412012  11.328  36.096   9.155
 6265POPC   GL112013  11.297  36.171   8.855
 6265POPC   GL212014  11.244  36.231   8.855
 6265POPC   C1A12015  11.287  36.154   8.555
 6265POPC   D2A12016  11.301  36.078   8.255
 6265POPC   C3A12017  11.263  36.109   7.955
 6265POPC   C4A12018  11.350  36.108   7.655
 6265POPC   C1B12019  11.227  36.401   8.555
 6265POPC   C2B12020  11.233  36.319   8.255
 6265POPC   C3B12021  11.236  36.358   7.955
 6265POPC   C4B12022  11.216  36.401   7.655
 6266POPC   NC312023  33.772  24.529   9.455
 6266POPC   PO412024  33.800  24.449   9.155
 6266POPC   GL112025  33.756  24.489   8.855
 6266POPC   GL212026  33.856  24.529   8.855
 6266POPC   C1A12027  33.843  24.520   8.555
 6266POPC   D2A12028  33.764  24.458   8.255
 6266POPC   C3A12029  33.798  24.517   7.955
 6266POPC   C4A12030  33.834  24.504   7.655
 6266POPC   C1B12031  34.024  24.619   8.555
 6266POPC   C2B12032  34.012  24.636   8.255
 6266POPC   C3B12033  33.962  24.582   7.955
 6266POPC   C4B12034  34.060  24.660   7.655
 6267POPC   NC312035  11.333   7.461   9.455
 6267POPC   PO412036  11.312   7.443   9.155
 6267POPC   GL112037  11.293   7.418   8.855
 6267POPC   GL212038  11.153   7.517   8.855
 6267POPC   C1A12039  11.298   7.439   8.555
 6267POPC   D2A12040  11.291   7.400   8.255
 6267POPC   C3A12041  11.269   7.432   7.955
 6267POPC   C4A12042  11.341   7.464   7.655
 6267POPC   C1B12043  11.119   7.542   8.555
 6267POPC   C2B12044  11.028   7.534   8.255
 6267POPC   C3B12045  11.101   7.570   7.955
 6267POPC   C4B12046  11.076   7.486   7.655
 6268POPC   NC312047  34.586   1.249   9.455
 6268POPC   PO412048  34.529   1.177   9.155
 6268POPC   GL112049  34.536   1.208   8.855
 6268POPC   GL212050  34.643   1.195   8.855
 6268POPC   C1A12051  34.557   1.255   8.555
 6268POPC   D2A12052  34.576   1.193   8.255
 6268POPC   C3A12053  34.558   1.186   7.955
 6268POPC   C4A12054  34.573   1.213   7.655
 6268POPC   C1B12055  34.789   1.123   8.555
 6268POPC   C2B12056  34.812   1.121   8.255
 6268POPC   C3B12057  34.798   1.089   7.955
 6268POPC   C4B12058  34.783   1.109   7.655
 6269POPC   NC312059  40.008   6.601   9.455
 6269POPC   PO412060  39.959   6.661   9.155
 6269POPC   GL112061  40.005   6.673   8.855
 6269POPC   GL212062  40.055   6.765   8.855
 6269POPC   C1A12063  40.041   6.635   8.555
 6269POPC   D2A12064  39.960   6.630   8.255
 6269POPC   C3A12065  40.037   6.619   7.955
 6269POPC   C4A12066  39.985   6.650   7.655
 6269POPC   C1B12067  40.059   6.893   8.555
 6269POPC   C2B12068  40.104   6.914   8.255
 6269POPC   C3B12069  40.117   6.852   7.955
 6269POPC   C4B12070  40.110   6.848   7.655
 6270POPC   NC312071  26.042   6.614   9.455
 6270POPC   PO412072  25.992   6.681   9.155
 6270POPC   GL112073  26.029   6.603   8.855
 6270POPC   GL212074  25.951   6.666   8.855
 6270POPC   C1A12075  26.014   6.668   8.555
 6270POPC   D2A12076  26.071   6.683   8.255
 6270POPC   C3A12077  26.059   6.634   7.955
 6270POPC   C4A12078  26.047   6.690   7.655
 6270POPC   C1B12079  25.775   6.683   8.555
 6270POPC   C2B12080  25.768   6.738   8.255
 6270POPC   C3B12081  25.842   6.724   7.955
 6270POPC   C4B12082  25.811   6.682   7.655
 6271POPC   NC312083  22.905   6.606   9.455
 6271POPC   PO412084  22.921   6.686   9.155
 6271POPC   GL112085  22.965   6.614   8.855
 6271POPC   GL212086  22.889   6.536   8.855
 6271POPC   C1A12087  22.948   6.628   8.555
 6271POPC   D2A12088  22.899   6.631   8.255
 6271POPC   C3A12089  22.924   6.640   7.955
 6271POPC   C4A12090  22.906   6.680   7.655
 6271POPC   C1B12091  22.789   6.450   8.555
 6271POPC   C2B12092  22.743   6.461   8.255
 6271POPC   C3B12093  22.728   6.445   7.955
 6271POPC   C4B12094  22.733   6.518   7.655
 6272POPC   NC312095  19.811  16.687   9.455
 6272POPC   PO412096  19.838  16.780   9.155
 6272POPC   GL112097  19.785  16.695   8.855
 6272POPC   GL212098  19.911  16.821   8.855
 6272POPC   C1A12099  19.862  16.779   8.555
 6272POPC   D2A12100  19.828  16.759   8.255
 6272POPC   C3A12101  19.831  16.718   7.955
 6272POPC   C4A12102  19.806  16.700   7.655
 6272POPC   C1B12103  20.063  16.922   8.555
 6272POPC   C2B12104  19.990  16.870   8.255
 6272POPC   C3B12105  20.075  16.850   7.955
 6272POPC   C4B12106  20.003  16.905   7.655
 6273POPC   NC312107  24.462  11.314   9.455
 6273POPC   PO412108  24.517  11.328   9.155
 6273POPC   GL112109  24.461  11.344   8.855
 6273POPC   GL212110  24.498  11.154   8.855
 6273POPC   C1A12111  24.454  11.307   8.555
 6273POPC   D2A12112  24.461  11.280   8.255
 6273POPC   C3A12113  24.473  11.281   7.955
 6273POPC   C4A12114  24.539  11.312   7.655
 6273POPC   C1B12115  24.439  11.050   8.555
 6273POPC   C2B12116  24.433  11.066   8.255
 6273POPC   C3B12117  24.477  11.058   7.955
 6273POPC   C4B12118  24.465  11.056   7.655
 6274POPC   NC312119  21.396  17.493   9.455
 6274POPC   PO412120  21.424  17.530   9.155
 6274POPC   GL112121  21.407  17.543   8.855
 6274POPC   GL212122  21.404  17.400   8.855
 6274POPC   C1A12123  21.345  17.496   8.555
 6274POPC   D2A12124  21.412  17.520   8.255
 6274POPC   C3A12125  21.402  17.535   7.955
 6274POPC   C4A12126  21.414  17.476   7.655
 6274POPC   C1B12127  21.387  17.292   8.555
 6274POPC   C2B12128  21.363  17.233   8.255
 6274POPC   C3B12129  21.434  17.277   7.955
 6274POPC   C4B12130  21.382  17.231   7.655
 6275POPC   NC312131   3.545   3.543   9.455
 6275POPC   PO412132   3.527   3.528   9.155
 6275POPC   GL112133   3.565   3.558   8.855
 6275POPC   GL212134   3.545   3.445   8.855
 6275POPC   C1A12135   3.533   3.579   8.555
 6275POPC   D2A12136   3.533   3.540   8.255
 6275POPC   C3A12137   3.518   3.547   7.955
 6275POPC   C4A12138   3.539   3.515   7.655
 6275POPC   C1B12139   3.475   3.276   8.555
 6275POPC   C2B12140   3.479   3.299   8.255
 6275POPC   C3B12141   3.498   3.259   7.955
 6275POPC   C4B12142   3.501   3.284   7.655
 6276POPC   NC312143  33.788   2.734   9.455
 6276POPC   PO412144  33.798   2.779   9.155
 6276POPC   GL112145  33.781   2.762   8.855
 6276POPC   GL212146  33.725   2.713   8.855
 6276POPC   C1A12147  33.804   2.727   8.555
 6276POPC   D2A12148  33.786   2.815   8.255
 6276POPC   C3A12149  33.806   2.743   7.955
 6276POPC   C4A12150  33.811   2.793   7.655
 6276POPC   C1B12151  33.600   2.679   8.555
 6276POPC   C2B12152  33.602   2.686   8.255
 6276POPC   C3B12153  33.589   2.727   7.955
 6276POPC   C4B12154  33.542   2.640   7.655
 6277POPC   NC312155  15.988   9.734   9.455
 6277POPC   PO412156  16.003   9.757   9.155
 6277POPC   GL112157  15.924   9.786   8.855
 6277POPC   GL212158  15.834   9.680   8.855
 6277POPC   C1A12159  15.996   9.795   8.555
 6277POPC   D2A12160  15.957   9.777   8.255
 6277POPC   C3A12161  15.989   9.731   7.955
 6277POPC   C4A12162  15.914   9.795   7.655
 6277POPC   C1B12163  15.746   9.653   8.555
 6277POPC   C2B12164  15.721   9.633   8.255
 6277POPC   C3B12165  15.687   9.665   7.955
 6277POPC   C4B12166  15.702   9.598   7.655
 6278POPC   NC312167  28.327  43.075   9.455
 6278POPC   PO412168  28.337  43.070   9.155
 6278POPC   GL112169  28.337  43.100   8.855
 6278POPC   GL212170  28.238  42.999   8.855
 6278POPC   C1A12171  28.389  43.144   8.555
 6278POPC   D2A12172  28.355  43.153   8.255
 6278POPC   C3A12173  28.371  43.085   7.955
 6278POPC   C4A12174  28.328  43.095   7.655
 6278POPC   C1B12175  28.156  42.941   8.555
 6278POPC   C2B12176  28.237  42.934   8.255
 6278POPC   C3B12177  28.228  42.927   7.955
 6278POPC   C4B12178  28.242  42.913   7.655
 6279POPC   NC312179   7.420  11.337   9.455
 6279POPC   PO412180   7.455  11.297   9.155
 6279POPC   GL112181   7.421  11.329   8.855
 6279POPC   GL212182   7.494  11.185   8.855
 6279POPC   C1A12183   7.407  11.266   8.555
 6279POPC   D2A12184   7.435  11.329   8.255
 6279POPC   C3A12185   7.454  11.311   7.955
 6279POPC   C4A12186   7.399  11.299   7.655
 6279POPC   C1B12187   7.654  11.142   8.555
 6279POPC   C2B12188   7.634  11.147   8.255
 6279POPC   C3B12189   7.560  11.117   7.955
 6279POPC   C4B12190   7.637  11.149   7.655
 6280POPC   NC312191   3.561   5.136   9.455
 6280POPC   PO412192   3.571   5.094   9.155
 6280POPC   GL112193   3.512   5.117   8.855
 6280POPC   GL212194   3.526   5.260   8.855
 6280POPC   C1A12195   3.571   5.134   8.555
 6280POPC   D2A12196   3.520   5.059   8.255
 6280POPC   C3A12197   3.498   5.123   7.955
 6280POPC   C4A12198   3.533   5.059   7.655
 6280POPC   C1B12199   3.551   5.297   8.555
 6280POPC   C2B12200   3.594   5.343   8.255
 6280POPC   C3B12201   3.585   5.317   7.955
 6280POPC   C4B12202   3.541   5.362   7.655
 6281POPC   NC312203  16.683  41.557   9.455
 6281POPC   PO412204  16.728  41.554   9.155
 6281POPC   GL112205  16.719  41.523   8.855
 6281POPC   GL212206  16.726  41.404   8.855
 6281POPC   C1A12207  16.766  41.591   8.555
 6281POPC   D2A12208  16.781  41.565   8.255
 6281POPC   C3A12209  16.778  41.580   7.955
 6281POPC   C4A12210  16.719  41.559   7.655
 6281POPC   C1B12211  16.723  41.309   8.555
 6281POPC   C2B12212  16.741  41.272   8.255
 6281POPC   C3B12213  16.738  41.332   7.955
 6281POPC   C4B12214  16.773  41.350   7.655
 6282POPC   NC312215  23.708   0.472   9.455
 6282POPC   PO412216  23.759   0.481   9.155
 6282POPC   GL112217  23.671   0.467   8.855
 6282POPC   GL212218  23.854   0.413   8.855
 6282POPC   C1A12219  23.749   0.483   8.555
 6282POPC   D2A12220  23.741   0.399   8.255
 6282POPC   C3A12221  23.746   0.403   7.955
 6282POPC   C4A12222  23.763   0.482   7.655
 6282POPC   C1B12223  23.981   0.306   8.555
 6282POPC   C2B12224  23.926   0.370   8.255
 6282POPC   C3B12225  23.900   0.314   7.955
 6282POPC   C4B12226  23.974   0.379   7.655
 6283POPC   NC312227  30.652  15.193   9.455
 6283POPC   PO412228  30.647  15.144   9.155
 6283POPC   GL112229  30.707  15.226   8.855
 6283POPC   GL212230  30.737  15.052   8.855
 6283POPC   C1A12231  30.708  15.130   8.555
 6283POPC   D2A12232  30.740  15.196   8.255
 6283POPC   C3A12233  30.655  15.198   7.955
 6283POPC   C4A12234  30.686  15.189   7.655
 6283POPC   C1B12235  30.790  15.005   8.555
 6283POPC   C2B12236  30.830  14.939   8.255
 6283POPC   C3B12237  30.794  14.996   7.955
 6283POPC   C4B12238  30.831  14.927   7.655
 6284POPC   NC312239   1.965  25.268   9.455
 6284POPC   PO412240   1.947  25.262   9.155
 6284POPC   GL112241   1.982  25.270   8.855
 6284POPC   GL212242   1.845  25.240   8.855
 6284POPC   C1A12243   2.008  25.223   8.555
 6284POPC   D2A12244   2.034  25.222   8.255
 6284POPC   C3A12245   2.006  25.217   7.955
 6284POPC   C4A12246   1.959  25.251   7.655
 6284POPC   C1B12247   1.726  25.215   8.555
 6284POPC   C2B12248   1.762  25.231   8.255
 6284POPC   C3B12249   1.777  25.193   7.955
 6284POPC   C4B12250   1.756  25.156   7.655
 6285POPC   NC312251  43.855  11.263   9.455
 6285POPC   PO412252  43.913  11.302   9.155
 6285POPC   GL112253  43.841  11.333   8.855
 6285POPC   GL212254  43.902  11.403   8.855
 6285POPC   C1A12255  43.886  11.265   8.555
 6285POPC   D2A12256  43.840  11.282   8.255
 6285POPC   C3A12257  43.866  11.309   7.955
 6285POPC   C4A12258  43.844  11.310   7.655
 6285POPC   C1B12259  43.875  11.567   8.555
 6285POPC   C2B12260  43.819  11.592   8.255
 6285POPC   C3B12261  43.873  11.597   7.955
 6285POPC   C4B12262  43.861  11.543   7.655
 6286POPC   NC312263   0.461   6.688   9.455
 6286POPC   PO412264   0.461   6.626   9.155
 6286POPC   GL112265   0.427   6.671   8.855
 6286POPC   GL212266   0.316   6.739   8.855
 6286POPC   C1A12267   0.439   6.656   8.555
 6286POPC   D2A12268   0.447   6.667   8.255
 6286POPC   C3A12269   0.413   6.691   7.955
 6286POPC   C4A12270   0.403   6.657   7.655
 6286POPC   C1B12271   0.282   6.868   8.555
 6286POPC   C2B12272   0.262   6.820   8.255
 6286POPC   C3B12273   0.283   6.797   7.955
 6286POPC   C4B12274   0.327   6.827   7.655
 6287POPC   NC312275  43.138  16.758   9.455
 6287POPC   PO412276  43.128  16.690   9.155
 6287POPC   GL112277  43.105  16.773   8.855
 6287POPC   GL212278  43.082  16.627   8.855
 6287POPC   C1A12279  43.111  16.755   8.555
 6287POPC   D2A12280  43.145  16.733   8.255
 6287POPC   C3A12281  43.117  16.739   7.955
 6287POPC   C4A12282  43.101  16.772   7.655
 6287POPC   C1B12283  42.966  16.549   8.555
 6287POPC   C2B12284  42.998  16.516   8.255
 6287POPC   C3B12285  42.958  16.488   7.955
 6287POPC   C4B12286  42.966  16.487   7.655
 6288POPC   NC312287  17.468  35.389   9.455
 6288POPC   PO412288  17.480  35.320   9.155
 6288POPC   GL112289  17.476  35.365   8.855
 6288POPC   GL212290  17.438  35.195   8.855
 6288POPC   C1A12291  17.486  35.357   8.555
 6288POPC   D2A12292  17.461  35.349   8.255
 6288POPC   C3A12293  17.485  35.401   7.955
 6288POPC   C4A12294  17.504  35.386   7.655
 6288POPC   C1B12295  17.410  35.114   8.555
 6288POPC   C2B12296  17.384  35.148   8.255
 6288POPC   C3B12297  17.437  35.110   7.955
 6288POPC   C4B12298  17.415  35.141   7.655
 6289POPC   NC312299  30.649  42.379   9.455
 6289POPC   PO412300  30.699  42.285   9.155
 6289POPC   GL112301  30.663  42.293   8.855
 6289POPC   GL212302  30.803  42.266   8.855
 6289POPC   C1A12303  30.690  42.337   8.555
 6289POPC   D2A12304  30.695  42.292   8.255
 6289POPC   C3A12305  30.698  42.304   7.955
 6289POPC   C4A12306  30.664  42.363   7.655
 6289POPC   C1B12307  30.798  42.153   8.555
 6289POPC   C2B12308  30.788  42.120   8.255
 6289POPC   C3B12309  30.810  42.124   7.955
 6289POPC   C4B12310  30.872  42.081   7.655
 6290POPC   NC312311  23.716   2.019   9.455
 6290POPC   PO412312  23.667   1.987   9.155
 6290POPC   GL112313  23.712   2.014   8.855
 6290POPC   GL212314  23.648   1.931   8.855
 6290POPC   C1A12315  23.745   1.992   8.555
 6290POPC   D2A12316  23.686   1.964   8.255
 6290POPC   C3A12317  23.736   2.038   7.955
 6290POPC   C4A12318  23.761   1.996   7.655
 6290POPC   C1B12319  23.553   1.808   8.555
 6290POPC   C2B12320  23.524   1.802   8.255
 6290POPC   C3B12321  23.571   1.789   7.955
 6290POPC   C4B12322  23.573   1.808   7.655
 6291POPC   NC312323  39.238  29.966   9.455
 6291POPC   PO412324  39.275  29.937   9.155
 6291POPC   GL112325  39.269  29.879   8.855
 6291POPC   GL212326  39.224  30.029   8.855
 6291POPC   C1A12327  39.273  29.921   8.555
 6291POPC   D2A12328  39.182  29.891   8.255
 6291POPC   C3A12329  39.281  29.935   7.955
 6291POPC   C4A12330  39.236  29.937   7.655
 6291POPC   C1B12331  39.296  30.127   8.555
 6291POPC   C2B12332  39.296  30.154   8.255
 6291POPC   C3B12333  39.268  30.195   7.955
 6291POPC   C4B12334  39.266  30.120   7.655
 6292POPC   NC312335  12.900  11.298   9.455
 6292POPC   PO412336  12.869  11.292   9.155
 6292POPC   GL112337  12.809  11.333   8.855
 6292POPC   GL212338  12.827  11.190   8.855
 6292POPC   C1A12339  12.851  11.279   8.555
 6292POPC   D2A12340  12.854  11.298   8.255
 6292POPC   C3A12341  12.848  11.253   7.955
 6292POPC   C4A12342  12.812  11.340   7.655
 6292POPC   C1B12343  12.840  11.098   8.555
 6292POPC   C2B12344  12.803  11.030   8.255
 6292POPC   C3B12345  12.852  11.063   7.955
 6292POPC   C4B12346  12.843  11.045   7.655
 6293POPC   NC312347  24.511   2.724   9.455
 6293POPC   PO412348  24.464   2.733   9.155
 6293POPC   GL112349  24.524   2.798   8.855
 6293POPC   GL212350  24.385   2.772   8.855
 6293POPC   C1A12351  24.525   2.761   8.555
 6293POPC   D2A12352  24.448   2.723   8.255
 6293POPC   C3A12353  24.492   2.787   7.955
 6293POPC   C4A12354  24.506   2.746   7.655
 6293POPC   C1B12355  24.256   2.800   8.555
 6293POPC   C2B12356  24.253   2.870   8.255
 6293POPC   C3B12357  24.213   2.849   7.955
 6293POPC   C4B12358  24.237   2.783   7.655
 6294POPC   NC312359  27.561  29.142   9.455
 6294POPC   PO412360  27.640  29.163   9.155
 6294POPC   GL112361  27.599  29.105   8.855
 6294POPC   GL212362  27.481  29.060   8.855
 6294POPC   C1A12363  27.576  29.184   8.555
 6294POPC   D2A12364  27.603  29.107   8.255
 6294POPC   C3A12365  27.625  29.121   7.955
 6294POPC   C4A12366  27.618  29.180   7.655
 6294POPC   C1B12367  27.488  28.883   8.555
 6294POPC   C2B12368  27.424  28.889   8.255
 6294POPC   C3B12369  27.483  28.975   7.955
 6294POPC   C4B12370  27.423  28.959   7.655
 6295POPC   NC312371  42.329  18.261   9.455
 6295POPC   PO412372  42.342  18.239   9.155
 6295POPC   GL112373  42.316  18.258   8.855
 6295POPC   GL212374  42.237  18.411   8.855
 6295POPC   C1A12375  42.333  18.245   8.555
 6295POPC   D2A12376  42.286  18.248   8.255
 6295POPC   C3A12377  42.293  18.259   7.955
 6295POPC   C4A12378  42.298  18.295   7.655
 6295POPC   C1B12379  42.205  18.469   8.555
 6295POPC   C2B12380  42.235  18.454   8.255
 6295POPC   C3B12381  42.177  18.495   7.955
 6295POPC   C4B12382  42.184  18.530   7.655
 6296POPC   NC312383  15.956  23.724   9.455
 6296POPC   PO412384  16.002  23.682   9.155
 6296POPC   GL112385  15.921  23.681   8.855
 6296POPC   GL212386  15.915  23.563   8.855
 6296POPC   C1A12387  15.962  23.725   8.555
 6296POPC   D2A12388  15.909  23.699   8.255
 6296POPC   C3A12389  15.937  23.724   7.955
 6296POPC   C4A12390  15.938  23.760   7.655
 6296POPC   C1B12391  15.865  23.505   8.555
 6296POPC   C2B12392  15.863  23.433   8.255
 6296POPC   C3B12393  15.932  23.471   7.955
 6296POPC   C4B12394  15.905  23.459   7.655
 6297POPC   NC312395  32.983   4.279   9.455
 6297POPC   PO412396  33.072   4.315   9.155
 6297POPC   GL112397  33.034   4.359   8.855
 6297POPC   GL212398  32.914   4.426   8.855
 6297POPC   C1A12399  33.046   4.310   8.555
 6297POPC   D2A12400  33.061   4.287   8.255
 6297POPC   C3A12401  33.071   4.313   7.955
 6297POPC   C4A12402  32.999   4.318   7.655
 6297POPC   C1B12403  32.814   4.415   8.555
 6297POPC   C2B12404  32.814   4.486   8.255
 6297POPC   C3B12405  32.811   4.491   7.955
 6297POPC   C4B12406  32.797   4.445   7.655
 6298POPC   NC312407  22.895   8.230   9.455
 6298POPC   PO412408  22.892   8.190   9.155
 6298POPC   GL112409  22.953   8.197   8.855
 6298POPC   GL212410  23.095   8.211   8.855
 6298POPC   C1A12411  22.946   8.203   8.555
 6298POPC   D2A12412  22.950   8.227   8.255
 6298POPC   C3A12413  22.983   8.190   7.955
 6298POPC   C4A12414  22.973   8.214   7.655
 6298POPC   C1B12415  23.175   8.262   8.555
 6298POPC   C2B12416  23.190   8.251   8.255
 6298POPC   C3B12417  23.141   8.280   7.955
 6298POPC   C4B12418  23.137   8.290   7.655
 6299POPC   NC312419  19.020  37.685   9.455
 6299POPC   PO412420  19.042  37.687   9.155
 6299POPC   GL112421  19.072  37.659   8.855
 6299POPC   GL212422  19.196  37.748   8.855
 6299POPC   C1A12423  19.009  37.634   8.555
 6299POPC   D2A12424  19.067  37.677   8.255
 6299POPC   C3A12425  19.010  37.670   7.955
 6299POPC   C4A12426  19.072  37.683   7.655
 6299POPC   C1B12427  19.253  37.720   8.555
 6299POPC   C2B12428  19.263  37.761   8.255
 6299POPC   C3B12429  19.341  37.781   7.955
 6299POPC   C4B12430  19.328  37.735   7.655
 6300POPC   NC312431   2.765  29.900   9.455
 6300POPC   PO412432   2.723  29.944   9.155
 6300POPC   GL112433   2.786  29.959   8.855
 6300POPC   GL212434   2.657  29.972   8.855
 6300POPC   C1A12435   2.725  29.888   8.555
 6300POPC   D2A12436   2.746  29.926   8.255
 6300POPC   C3A12437   2.745  29.934   7.955
 6300POPC   C4A12438   2.804  29.905   7.655
 6300POPC   C1B12439   2.547  30.050   8.555
 6300POPC   C2B12440   2.578  30.089   8.255
 6300POPC   C3B12441   2.627  30.139   7.955
 6300POPC   C4B12442   2.612  30.058   7.655
 6301POPC   NC312443  39.992   3.577   9.455
 6301POPC   PO412444  40.000   3.575   9.155
 6301POPC   GL112445  40.024   3.522   8.855
 6301POPC   GL212446  40.010   3.436   8.855
 6301POPC   C1A12447  39.964   3.523   8.555
 6301POPC   D2A12448  40.051   3.505   8.255
 6301POPC   C3A12449  39.973   3.591   7.955
 6301POPC   C4A12450  40.018   3.515   7.655
 6301POPC   C1B12451  40.086   3.305   8.555
 6301POPC   C2B12452  40.090   3.305   8.255
 6301POPC   C3B12453  40.100   3.357   7.955
 6301POPC   C4B12454  40.070   3.331   7.655
 6302POPC   NC312455  27.635  41.578   9.455
 6302POPC   PO412456  27.629  41.597   9.155
 6302POPC   GL112457  27.581  41.588   8.855
 6302POPC   GL212458  27.527  41.650   8.855
 6302POPC   C1A12459  27.599  41.593   8.555
 6302POPC   D2A12460  27.602  41.563   8.255
 6302POPC   C3A12461  27.556  41.565   7.955
 6302POPC   C4A12462  27.573  41.554   7.655
 6302POPC   C1B12463  27.398  41.680   8.555
 6302POPC   C2B12464  27.381  41.721   8.255
 6302POPC   C3B12465  27.367  41.653   7.955
 6302POPC   C4B12466  27.424  41.663   7.655
 6303POPC   NC312467   4.350  40.789   9.455
 6303POPC   PO412468   4.355  40.761   9.155
 6303POPC   GL112469   4.347  40.797   8.855
 6303POPC   GL212470   4.339  40.854   8.855
 6303POPC   C1A12471   4.363  40.785   8.555
 6303POPC   D2A12472   4.287  40.752   8.255
 6303POPC   C3A12473   4.350  40.794   7.955
 6303POPC   C4A12474   4.362  40.798   7.655
 6303POPC   C1B12475   4.446  41.044   8.555
 6303POPC   C2B12476   4.462  41.010   8.255
 6303POPC   C3B12477   4.439  41.038   7.955
 6303POPC   C4B12478   4.428  41.059   7.655
 6304POPC   NC312479  15.958  14.417   9.455
 6304POPC   PO412480  15.925  14.439   9.155
 6304POPC   GL112481  15.957  14.384   8.855
 6304POPC   GL212482  15.873  14.303   8.855
 6304POPC   C1A12483  15.910  14.420   8.555
 6304POPC   D2A12484  15.973  14.356   8.255
 6304POPC   C3A12485  15.979  14.399   7.955
 6304POPC   C4A12486  15.911  14.411   7.655
 6304POPC   C1B12487  15.738  14.240   8.555
 6304POPC   C2B12488  15.768  14.196   8.255
 6304POPC   C3B12489  15.756  14.206   7.955
 6304POPC   C4B12490  15.807  14.269   7.655
 6305POPC   NC312491  28.366   1.234   9.455
 6305POPC   PO412492  28.324   1.225   9.155
 6305POPC   GL112493  28.350   1.202   8.855
 6305POPC   GL212494  28.441   1.352   8.855
 6305POPC   C1A12495  28.331   1.236   8.555
 6305POPC   D2A12496  28.348   1.260   8.255
 6305POPC   C3A12497  28.416   1.233   7.955
 6305POPC   C4A12498  28.380   1.189   7.655
 6305POPC   C1B12499  28.525   1.428   8.555
 6305POPC   C2B12500  28.473   1.378   8.255
 6305POPC   C3B12501  28.481   1.396   7.955
 6305POPC   C4B12502  28.502   1.428   7.655
 6306POPC   NC312503  43.858   8.186   9.455
 6306POPC   PO412504  43.847   8.229   9.155
 6306POPC   GL112505  43.864   8.224   8.855
 6306POPC   GL212506  44.019   8.204   8.855
 6306POPC   C1A12507  43.866   8.196   8.555
 6306POPC   D2A12508  43.857   8.158   8.255
 6306POPC   C3A12509  43.851   8.229   7.955
 6306POPC   C4A12510  43.846   8.168   7.655
 6306POPC   C1B12511  44.147   8.273   8.555
 6306POPC   C2B12512  44.068   8.283   8.255
 6306POPC   C3B12513  44.086   8.279   7.955
 6306POPC   C4B12514  44.166   8.253   7.655
 6307POPC   NC312515  35.334  25.239   9.455
 6307POPC   PO412516  35.368  25.256   9.155
 6307POPC   GL112517  35.320  25.230   8.855
 6307POPC   GL212518  35.245  25.406   8.855
 6307POPC   C1A12519  35.304  25.295   8.555
 6307POPC   D2A12520  35.374  25.305   8.255
 6307POPC   C3A12521  35.369  25.233   7.955
 6307POPC   C4A12522  35.318  25.314   7.655
 6307POPC   C1B12523  35.172  25.465   8.555
 6307POPC   C2B12524  35.218  25.470   8.255
 6307POPC   C3B12525  35.158  25.424   7.955
 6307POPC   C4B12526  35.237  25.426   7.655
 6308POPC   NC312527  40.006  18.287   9.455
 6308POPC   PO412528  39.992  18.240   9.155
 6308POPC   GL112529  39.961  18.279   8.855
 6308POPC   GL212530  39.998  18.211   8.855
 6308POPC   C1A12531  40.022  18.261   8.555
 6308POPC   D2A12532  39.981  18.262   8.255
 6308POPC   C3A12533  40.050  18.267   7.955
 6308POPC   C4A12534  40.037  18.235   7.655
 6308POPC   C1B12535  39.974  18.074   8.555
 6308POPC   C2B12536  39.956  18.009   8.255
 6308POPC   C3B12537  39.947  18.066   7.955
 6308POPC   C4B12538  39.947  18.062   7.655
 6309POPC   NC312539   2.740  30.724   9.455
 6309POPC   PO412540   2.788  30.731   9.155
 6309POPC   GL112541   2.761  30.726   8.855
 6309POPC   GL212542   2.616  30.672   8.855
 6309POPC   C1A12543   2.801  30.726   8.555
 6309POPC   D2A12544   2.809  30.701   8.255
 6309POPC   C3A12545   2.802  30.695   7.955
 6309POPC   C4A12546   2.806  30.674   7.655
 6309POPC   C1B12547   2.563  30.564   8.555
 6309POPC   C2B12548   2.523  30.602   8.255
 6309POPC   C3B12549   2.503  30.601   7.955
 6309POPC   C4B12550   2.584  30.628   7.655
 6310POPC   NC312551  43.142   3.512   9.455
 6310POPC   PO412552  43.158   3.555   9.155
 6310POPC   GL112553  43.142   3.566   8.855
 6310POPC   GL212554  43.034   3.536   8.855
 6310POPC   C1A12555  43.082   3.514   8.555
 6310POPC   D2A12556  43.090   3.537   8.255
 6310POPC   C3A12557  43.062   3.563   7.955
 6310POPC   C4A12558  43.097   3.521   7.655
 6310POPC   C1B12559  42.863   3.465   8.555
 6310POPC   C2B12560  42.909   3.467   8.255
 6310POPC   C3B12561  42.901   3.478   7.955
 6310POPC   C4B12562  42.825   3.514   7.655
 6311POPC   NC312563  29.911  22.192   9.455
 6311POPC   PO412564  29.911  22.159   9.155
 6311POPC   GL112565  29.960  22.192   8.855
 6311POPC   GL212566  29.844  22.059   8.855
 6311POPC   C1A12567  29.945  22.140   8.555
 6311POPC   D2A12568  29.924  22.142   8.255
 6311POPC   C3A12569  29.892  22.206   7.955
 6311POPC   C4A12570  29.929  22.164   7.655
 6311POPC   C1B12571  29.799  21.905   8.555
 6311POPC   C2B12572  29.817  21.935   8.255
 6311POPC   C3B12573  29.795  21.982   7.955
 6311POPC   C4B12574  29.828  21.960   7.655
 6312POPC   NC312575  23.683  19.047   9.455
 6312POPC   PO412576  23.667  19.040   9.155
 6312POPC   GL112577  23.733  19.061   8.855
 6312POPC   GL212578  23.851  19.106   8.855
 6312POPC   C1A12579  23.722  19.089   8.555
 6312POPC   D2A12580  23.747  19.067   8.255
 6312POPC   C3A12581  23.667  19.057   7.955
 6312POPC   C4A12582  23.734  19.011   7.655
 6312POPC   C1B12583  23.886  19.233   8.555
 6312POPC   C2B12584  23.874  19.252   8.255
 6312POPC   C3B12585  23.916  19.249   7.955
 6312POPC   C4B12586  23.916  19.241   7.655
 6313POPC   NC312587  43.069   5.062   9.455
 6313POPC   PO412588  43.111   5.112   9.155
 6313POPC   GL112589  43.098   5.079   8.855
 6313POPC   GL212590  43.082   5.169   8.855
 6313POPC   C1A12591  43.124   5.045   8.555
 6313POPC   D2A12592  43.137   5.052   8.255
 6313POPC   C3A12593  43.127   5.120   7.955
 6313POPC   C4A12594  43.103   5.070   7.655
 6313POPC   C1B12595  42.965   5.280   8.555
 6313POPC   C2B12596  42.965   5.249   8.255
 6313POPC   C3B12597  42.945   5.322   7.955
 6313POPC   C4B12598  42.975   5.246   7.655
 6314POPC   NC312599  28.407  16.683   9.455
 6314POPC   PO412600  28.377  16.727   9.155
 6314POPC   GL112601  28.356  16.758   8.855
 6314POPC   GL212602  28.427  16.639   8.855
 6314POPC   C1A12603  28.338  16.702   8.555
 6314POPC   D2A12604  28.368  16.685   8.255
 6314POPC   C3A12605  28.334  16.756   7.955
 6314POPC   C4A12606  28.415  16.744   7.655
 6314POPC   C1B12607  28.453  16.523   8.555
 6314POPC   C2B12608  28.471  16.458   8.255
 6314POPC   C3B12609  28.426  16.530   7.955
 6314POPC   C4B12610  28.431  16.458   7.655
 6315POPC   NC312611   1.221  26.831   9.455
 6315POPC   PO412612   1.203  26.782   9.155
 6315POPC   GL112613   1.200  26.770   8.855
 6315POPC   GL212614   1.148  26.942   8.855
 6315POPC   C1A12615   1.239  26.833   8.555
 6315POPC   D2A12616   1.194  26.820   8.255
 6315POPC   C3A12617   1.168  26.815   7.955
 6315POPC   C4A12618   1.243  26.841   7.655
 6315POPC   C1B12619   1.073  27.064   8.555
 6315POPC   C2B12620   1.073  26.982   8.255
 6315POPC   C3B12621   1.061  27.043   7.955
 6315POPC   C4B12622   1.044  26.993   7.655
 6316POPC   NC312623   2.752  12.072   9.455
 6316POPC   PO412624   2.757  12.095   9.155
 6316POPC   GL112625   2.803  12.124   8.855
 6316POPC   GL212626   2.880  12.131   8.855
 6316POPC   C1A12627   2.762  12.105   8.555
 6316POPC   D2A12628   2.745  12.123   8.255
 6316POPC   C3A12629   2.721  12.049   7.955
 6316POPC   C4A12630   2.790  12.102   7.655
 6316POPC   C1B12631   2.965  12.286   8.555
 6316POPC   C2B12632   2.961  12.241   8.255
 6316POPC   C3B12633   2.905  12.243   7.955
 6316POPC   C4B12634   2.985  12.272   7.655
 6317POPC   NC312635  36.139  35.315   9.455
 6317POPC   PO412636  36.148  35.334   9.155
 6317POPC   GL112637  36.135  35.312   8.855
 6317POPC   GL212638  36.088  35.241   8.855
 6317POPC   C1A12639  36.111  35.372   8.555
 6317POPC   D2A12640  36.137  35.330   8.255
 6317POPC   C3A12641  36.106  35.308   7.955
 6317POPC   C4A12642  36.123  35.334   7.655
 6317POPC   C1B12643  36.177  35.103   8.555
 6317POPC   C2B12644  36.159  35.074   8.255
 6317POPC   C3B12645  36.088  35.125   7.955
 6317POPC   C4B12646  36.135  35.062   7.655
 6318POPC   NC312647   3.527   2.812   9.455
 6318POPC   PO412648   3.505   2.723   9.155
 6318POPC   GL112649   3.586   2.811   8.855
 6318POPC   GL212650   3.666   2.820   8.855
 6318POPC   C1A12651   3.553   2.736   8.555
 6318POPC   D2A12652   3.498   2.811   8.255
 6318POPC   C3A12653   3.583   2.737   7.955
 6318POPC   C4A12654   3.513   2.763   7.655
 6318POPC   C1B12655   3.804   2.793   8.555
 6318POPC   C2B12656   3.806   2.761   8.255
 6318POPC   C3B12657   3.774   2.781   7.955
 6318POPC   C4B12658   3.761   2.803   7.655
 6319POPC   NC312659  26.012   7.401   9.455
 6319POPC   PO412660  26.053   7.449   9.155
 6319POPC   GL112661  26.091   7.399   8.855
 6319POPC   GL212662  26.019   7.556   8.855
 6319POPC   C1A12663  26.043   7.426   8.555
 6319POPC   D2A12664  26.087   7.447   8.255
 6319POPC   C3A12665  26.053   7.433   7.955
 6319POPC   C4A12666  26.075   7.455   7.655
 6319POPC   C1B12667  26.100   7.710   8.555
 6319POPC   C2B12668  26.066   7.676   8.255
 6319POPC   C3B12669  26.112   7.624   7.955
 6319POPC   C4B12670  26.053   7.627   7.655
 6320POPC   NC312671  11.305  28.338   9.455
 6320POPC   PO412672  11.349  28.339   9.155
 6320POPC   GL112673  11.323  28.378   8.855
 6320POPC   GL212674  11.226  28.300   8.855
 6320POPC   C1A12675  11.326  28.375   8.555
 6320POPC   D2A12676  11.325  28.363   8.255
 6320POPC   C3A12677  11.264  28.411   7.955
 6320POPC   C4A12678  11.334  28.360   7.655
 6320POPC   C1B12679  11.099  28.221   8.555
 6320POPC   C2B12680  11.096  28.180   8.255
 6320POPC   C3B12681  11.137  28.267   7.955
 6320POPC   C4B12682  11.067  28.201   7.655
 6321POPC   NC312683  43.868  13.618   9.455
 6321POPC   PO412684  43.885  13.585   9.155
 6321POPC   GL112685  43.882  13.668   8.855
 6321POPC   GL212686  43.820  13.577   8.855
 6321POPC   C1A12687  43.899  13.633   8.555
 6321POPC   D2A12688  43.868  13.598   8.255
 6321POPC   C3A12689  43.935  13.666   7.955
 6321POPC   C4A12690  43.860  13.640   7.655
 6321POPC   C1B12691  43.739  13.487   8.555
 6321POPC   C2B12692  43.747  13.428   8.255
 6321POPC   C3B12693  43.671  13.506   7.955
 6321POPC   C4B12694  43.711  13.497   7.655
 6322POPC   NC312695  31.449  21.432   9.455
 6322POPC   PO412696  31.486  21.384   9.155
 6322POPC   GL112697  31.502  21.344   8.855
 6322POPC   GL212698  31.567  21.269   8.855
 6322POPC   C1A12699  31.490  21.427   8.555
 6322POPC   D2A12700  31.517  21.403   8.255
 6322POPC   C3A12701  31.504  21.397   7.955
 6322POPC   C4A12702  31.496  21.389   7.655
 6322POPC   C1B12703  31.607  21.116   8.555
 6322POPC   C2B12704  31.566  21.110   8.255
 6322POPC   C3B12705  31.560  21.179   7.955
 6322POPC   C4B12706  31.532  21.140   7.655
 6323POPC   NC312707  29.148  12.840   9.455
 6323POPC   PO412708  29.121  12.873   9.155
 6323POPC   GL112709  29.192  12.875   8.855
 6323POPC   GL212710  29.266  12.841   8.855
 6323POPC   C1A12711  29.111  12.852   8.555
 6323POPC   D2A12712  29.164  12.859   8.255
 6323POPC   C3A12713  29.163  12.872   7.955
 6323POPC   C4A12714  29.109  12.803   7.655
 6323POPC   C1B12715  29.431  12.762   8.555
 6323POPC   C2B12716  29.398  12.771   8.255
 6323POPC   C3B12717  29.346  12.753   7.955
 6323POPC   C4B12718  29.409  12.774   7.655
 6324POPC   NC312719  40.040  44.640   9.455
 6324POPC   PO412720  39.993  44.626   9.155
 6324POPC   GL112721  40.053  44.688   8.855
 6324POPC   GL212722  40.074  44.601   8.855
 6324POPC   C1A12723  39.975  44.672   8.555
 6324POPC   D2A12724  40.013  44.651   8.255
 6324POPC   C3A12725  39.982  44.687   7.955
 6324POPC   C4A12726  40.005  44.619   7.655
 6324POPC   C1B12727  40.166  44.473   8.555
 6324POPC   C2B12728  40.166  44.536   8.255
 6324POPC   C3B12729  40.163  44.462   7.955
 6324POPC   C4B12730  40.173  44.518   7.655
 6325POPC   NC312731   6.607  44.651   9.455
 6325POPC   PO412732   6.603  44.684   9.155
 6325POPC   GL112733   6.668  44.706   8.855
 6325POPC   GL212734   6.693  44.817   8.855
 6325POPC   C1A12735   6.595  44.668   8.555
 6325POPC   D2A12736   6.637  44.663   8.255
 6325POPC   C3A12737   6.652  44.631   7.955
 6325POPC   C4A12738   6.640  44.628   7.655
 6325POPC   C1B12739   6.737  44.932   8.555
 6325POPC   C2B12740   6.685  44.885   8.255
 6325POPC   C3B12741   6.669  44.895   7.955
 6325POPC   C4B12742   6.720  44.887   7.655
 6326POPC   NC312743  44.676  40.751   9.455
 6326POPC   PO412744  44.690  40.767   9.155
 6326POPC   GL112745  44.662  40.827   8.855
 6326POPC   GL212746  44.691  40.655   8.855
 6326POPC   C1A12747  44.639  40.737   8.555
 6326POPC   D2A12748  44.652  40.816   8.255
 6326POPC   C3A12749  44.669  40.807   7.955
 6326POPC   C4A12750  44.669  40.794   7.655
 6326POPC   C1B12751  44.752  40.564   8.555
 6326POPC   C2B12752  44.762  40.567   8.255
 6326POPC   C3B12753  44.797  40.566   7.955
 6326POPC   C4B12754  44.733  40.535   7.655
 6327POPC   NC312755   1.165   0.431   9.455
 6327POPC   PO412756   1.256   0.463   9.155
 6327POPC   GL112757   1.172   0.406   8.855
 6327POPC   GL212758   1.126   0.459   8.855
 6327POPC   C1A12759   1.206   0.437   8.555
 6327POPC   D2A12760   1.231   0.410   8.255
 6327POPC   C3A12761   1.179   0.389   7.955
 6327POPC   C4A12762   1.224   0.401   7.655
 6327POPC   C1B12763   0.981   0.517   8.555
 6327POPC   C2B12764   0.922   0.488   8.255
 6327POPC   C3B12765   0.976   0.520   7.955
 6327POPC   C4B12766   0.954   0.452   7.655
 6328POPC   NC312767   8.222   2.785   9.455
 6328POPC   PO412768   8.151   2.771   9.155
 6328POPC   GL112769   8.221   2.773   8.855
 6328POPC   GL212770   8.065   2.818   8.855
 6328POPC   C1A12771   8.231   2.805   8.555
 6328POPC   D2A12772   8.153   2.728   8.255
 6328POPC   C3A12773   8.235   2.780   7.955
 6328POPC   C4A12774   8.223   2.791   7.655
 6328POPC   C1B12775   7.949   2.810   8.555
 6328POPC   C2B12776   7.956   2.899   8.255
 6328POPC   C3B12777   7.922   2.815   7.955
 6328POPC   C4B12778   7.930   2.834   7.655
 6329POPC   NC312779  43.866  20.605   9.455
 6329POPC   PO412780  43.902  20.649   9.155
 6329POPC   GL112781  43.869  20.603   8.855
 6329POPC   GL212782  43.997  20.582   8.855
 6329POPC   C1A12783  43.856  20.612   8.555
 6329POPC   D2A12784  43.892  20.615   8.255
 6329POPC   C3A12785  43.900  20.582   7.955
 6329POPC   C4A12786  43.840  20.583   7.655
 6329POPC   C1B12787  44.097  20.493   8.555
 6329POPC   C2B12788  44.165  20.576   8.255
 6329POPC   C3B12789  44.078  20.485   7.955
 6329POPC   C4B12790  44.125  20.565   7.655
 6330POPC   NC312791  28.404  29.885   9.455
 6330POPC   PO412792  28.374  29.880   9.155
 6330POPC   GL112793  28.346  29.895   8.855
 6330POPC   GL212794  28.243  29.910   8.855
 6330POPC   C1A12795  28.379  29.887   8.555
 6330POPC   D2A12796  28.322  29.969   8.255
 6330POPC   C3A12797  28.323  29.932   7.955
 6330POPC   C4A12798  28.381  29.949   7.655
 6330POPC   C1B12799  28.084  29.927   8.555
 6330POPC   C2B12800  28.106  29.884   8.255
 6330POPC   C3B12801  28.146  29.961   7.955
 6330POPC   C4B12802  28.137  29.957   7.655
 6331POPC   NC312803  29.932  17.489   9.455
 6331POPC   PO412804  29.874  17.533   9.155
 6331POPC   GL112805  29.954  17.473   8.855
 6331POPC   GL212806  30.046  17.618   8.855
 6331POPC   C1A12807  29.954  17.498   8.555
 6331POPC   D2A12808  29.887  17.490   8.255
 6331POPC   C3A12809  29.931  17.545   7.955
 6331POPC   C4A12810  29.935  17.486   7.655
 6331POPC   C1B12811  30.051  17.652   8.555
 6331POPC   C2B12812  30.103  17.664   8.255
 6331POPC   C3B12813  30.124  17.676   7.955
 6331POPC   C4B12814  30.117  17.721   7.655
 6332POPC   NC312815  26.067  36.119   9.455
 6332POPC   PO412816  26.061  36.117   9.155
 6332POPC   GL112817  26.073  36.130   8.855
 6332POPC   GL212818  25.920  36.108   8.855
 6332POPC   C1A12819  26.075  36.089   8.555
 6332POPC   D2A12820  26.051  36.094   8.255
 6332POPC   C3A12821  26.079  36.157   7.955
 6332POPC   C4A12822  25.996  36.124   7.655
 6332POPC   C1B12823  25.845  36.078   8.555
 6332POPC   C2B12824  25.784  36.093   8.255
 6332POPC   C3B12825  25.846  36.082   7.955
 6332POPC   C4B12826  25.826  36.018   7.655
 6333POPC   NC312827  13.658  33.801   9.455
 6333POPC   PO412828  13.588  33.817   9.155
 6333POPC   GL112829  13.672  33.765   8.855
 6333POPC   GL212830  13.525  33.787   8.855
 6333POPC   C1A12831  13.617  33.817   8.555
 6333POPC   D2A12832  13.586  33.818   8.255
 6333POPC   C3A12833  13.635  33.822   7.955
 6333POPC   C4A12834  13.667  33.751   7.655
 6333POPC   C1B12835  13.343  33.881   8.555
 6333POPC   C2B12836  13.434  33.905   8.255
 6333POPC   C3B12837  13.416  33.823   7.955
 6333POPC   C4B12838  13.359  33.886   7.655
 6334POPC   NC312839   6.650  26.783   9.455
 6334POPC   PO412840   6.672  26.833   9.155
 6334POPC   GL112841   6.646  26.808   8.855
 6334POPC   GL212842   6.701  26.925   8.855
 6334POPC   C1A12843   6.639  26.826   8.555
 6334POPC   D2A12844   6.652  26.823   8.255
 6334POPC   C3A12845   6.600  26.769   7.955
 6334POPC   C4A12846   6.664  26.772   7.655
 6334POPC   C1B12847   6.667  27.077   8.555
 6334POPC   C2B12848   6.620  27.047   8.255
 6334POPC   C3B12849   6.676  27.056   7.955
 6334POPC   C4B12850   6.621  27.018   7.655
 6335POPC   NC312851  39.979  12.113   9.455
 6335POPC   PO412852  39.970  12.080   9.155
 6335POPC   GL112853  40.051  12.119   8.855
 6335POPC   GL212854  39.922  12.114   8.855
 6335POPC   C1A12855  39.996  12.065   8.555
 6335POPC   D2A12856  40.022  12.035   8.255
 6335POPC   C3A12857  40.019  12.120   7.955
 6335POPC   C4A12858  40.002  12.063   7.655
 6335POPC   C1B12859  39.773  12.030   8.555
 6335POPC   C2B12860  39.796  12.097   8.255
 6335POPC   C3B12861  39.789  12.044   7.955
 6335POPC   C4B12862  39.798  12.074   7.655
 6336POPC   NC312863   1.205  15.158   9.455
 6336POPC   PO412864   1.176  15.175   9.155
 6336POPC   GL112865   1.252  15.174   8.855
 6336POPC   GL212866   1.305  15.189   8.855
 6336POPC   C1A12867   1.183  15.135   8.555
 6336POPC   D2A12868   1.186  15.184   8.255
 6336POPC   C3A12869   1.213  15.155   7.955
 6336POPC   C4A12870   1.251  15.129   7.655
 6336POPC   C1B12871   1.493  15.105   8.555
 6336POPC   C2B12872   1.407  15.123   8.255
 6336POPC   C3B12873   1.487  15.134   7.955
 6336POPC   C4B12874   1.410  15.085   7.655
 6337POPC   NC312875   8.154   4.320   9.455
 6337POPC   PO412876   8.176   4.307   9.155
 6337POPC   GL112877   8.246   4.306   8.855
 6337POPC   GL212878   8.225   4.447   8.855
 6337POPC   C1A12879   8.149   4.355   8.555
 6337POPC   D2A12880   8.151   4.349   8.255
 6337POPC   C3A12881   8.209   4.313   7.955
 6337POPC   C4A12882   8.170   4.306   7.655
 6337POPC   C1B12883   8.296   4.528   8.555
 6337POPC   C2B12884   8.337   4.559   8.255
 6337POPC   C3B12885   8.341   4.517   7.955
 6337POPC   C4B12886   8.350   4.527   7.655
 6338POPC   NC312887  27.626  12.847   9.455
 6338POPC   PO412888  27.605  12.830   9.155
 6338POPC   GL112889  27.564  12.805   8.855
 6338POPC   GL212890  27.745  12.899   8.855
 6338POPC   C1A12891  27.628  12.851   8.555
 6338POPC   D2A12892  27.620  12.877   8.255
 6338POPC   C3A12893  27.603  12.841   7.955
 6338POPC   C4A12894  27.611  12.862   7.655
 6338POPC   C1B12895  27.847  12.967   8.555
 6338POPC   C2B12896  27.813  12.931   8.255
 6338POPC   C3B12897  27.774  12.979   7.955
 6338POPC   C4B12898  27.818  12.964   7.655
 6339POPC   NC312899  38.482  21.429   9.455
 6339POPC   PO412900  38.448  21.418   9.155
 6339POPC   GL112901  38.487  21.417   8.855
 6339POPC   GL212902  38.525  21.505   8.855
 6339POPC   C1A12903  38.456  21.338   8.555
 6339POPC   D2A12904  38.410  21.405   8.255
 6339POPC   C3A12905  38.416  21.414   7.955
 6339POPC   C4A12906  38.464  21.350   7.655
 6339POPC   C1B12907  38.593  21.634   8.555
 6339POPC   C2B12908  38.603  21.617   8.255
 6339POPC   C3B12909  38.572  21.602   7.955
 6339POPC   C4B12910  38.615  21.588   7.655
 6340POPC   NC312911  15.160  32.199   9.455
 6340POPC   PO412912  15.224  32.238   9.155
 6340POPC   GL112913  15.157  32.277   8.855
 6340POPC   GL212914  15.291  32.245   8.855
 6340POPC   C1A12915  15.140  32.287   8.555
 6340POPC   D2A12916  15.152  32.210   8.255
 6340POPC   C3A12917  15.133  32.277   7.955
 6340POPC   C4A12918  15.177  32.215   7.655
 6340POPC   C1B12919  15.468  32.263   8.555
 6340POPC   C2B12920  15.415  32.323   8.255
 6340POPC   C3B12921  15.455  32.231   7.955
 6340POPC   C4B12922  15.426  32.260   7.655
 6341POPC   NC312923  32.992  24.481   9.455
 6341POPC   PO412924  33.074  24.537   9.155
 6341POPC   GL112925  32.988  24.446   8.855
 6341POPC   GL212926  32.931  24.598   8.855
 6341POPC   C1A12927  33.042  24.451   8.555
 6341POPC   D2A12928  33.036  24.504   8.255
 6341POPC   C3A12929  32.990  24.524   7.955
 6341POPC   C4A12930  33.056  24.497   7.655
 6341POPC   C1B12931  32.908  24.724   8.555
 6341POPC   C2B12932  32.937  24.744   8.255
 6341POPC   C3B12933  32.925  24.765   7.955
 6341POPC   C4B12934  32.883  24.679   7.655
 6342POPC   NC312935   8.152  38.456   9.455
 6342POPC   PO412936   8.213  38.406   9.155
 6342POPC   GL112937   8.208  38.492   8.855
 6342POPC   GL212938   8.224  38.374   8.855
 6342POPC   C1A12939   8.187  38.435   8.555
 6342POPC   D2A12940   8.234  38.425   8.255
 6342POPC   C3A12941   8.151  38.500   7.955
 6342POPC   C4A12942   8.204  38.406   7.655
 6342POPC   C1B12943   8.260  38.198   8.555
 6342POPC   C2B12944   8.298  38.229   8.255
 6342POPC   C3B12945   8.291  38.253   7.955
 6342POPC   C4B12946   8.214  38.172   7.655
 6343POPC   NC312947   7.455   1.216   9.455
 6343POPC   PO412948   7.426   1.203   9.155
 6343POPC   GL112949   7.445   1.227   8.855
 6343POPC   GL212950   7.537   1.252   8.855
 6343POPC   C1A12951   7.411   1.260   8.555
 6343POPC   D2A12952   7.470   1.192   8.255
 6343POPC   C3A12953   7.444   1.196   7.955
 6343POPC   C4A12954   7.429   1.212   7.655
 6343POPC   C1B12955   7.644   1.276   8.555
 6343POPC   C2B12956   7.619   1.265   8.255
 6343POPC   C3B12957   7.711   1.197   7.955
 6343POPC   C4B12958   7.674   1.215   7.655
 6344POPC   NC312959  19.039   5.141   9.455
 6344POPC   PO412960  19.019   5.127   9.155
 6344POPC   GL112961  19.073   5.071   8.855
 6344POPC   GL212962  19.041   5.192   8.855
 6344POPC   C1A12963  19.021   5.051   8.555
 6344POPC   D2A12964  19.033   5.051   8.255
 6344POPC   C3A12965  19.100   5.066   7.955
 6344POPC   C4A12966  19.091   5.096   7.655
 6344POPC   C1B12967  19.030   5.315   8.555
 6344POPC   C2B12968  18.984   5.290   8.255
 6344POPC   C3B12969  19.027   5.330   7.955
 6344POPC   C4B12970  19.027   5.302   7.655
 6345POPC   NC312971  22.981  11.284   9.455
 6345POPC   PO412972  22.941  11.349   9.155
 6345POPC   GL112973  22.964  11.271   8.855
 6345POPC   GL212974  22.931  11.144   8.855
 6345POPC   C1A12975  22.927  11.287   8.555
 6345POPC   D2A12976  22.934  11.326   8.255
 6345POPC   C3A12977  22.915  11.338   7.955
 6345POPC   C4A12978  22.956  11.308   7.655
 6345POPC   C1B12979  22.791  11.100   8.555
 6345POPC   C2B12980  22.823  11.127   8.255
 6345POPC   C3B12981  22.822  11.035   7.955
 6345POPC   C4B12982  22.832  11.060   7.655
 6346POPC   NC312983   4.283  35.387   9.455
 6346POPC   PO412984   4.328  35.374   9.155
 6346POPC   GL112985   4.325  35.309   8.855
 6346POPC   GL212986   4.410  35.394   8.855
 6346POPC   C1A12987   4.303  35.335   8.555
 6346POPC   D2A12988   4.333  35.370   8.255
 6346POPC   C3A12989   4.272  35.360   7.955
 6346POPC   C4A12990   4.279  35.357   7.655
 6346POPC   C1B12991   4.599  35.401   8.555
 6346POPC   C2B12992   4.611  35.336   8.255
 6346POPC   C3B12993   4.561  35.307   7.955
 6346POPC   C4B12994   4.601  35.398   7.655
 6347POPC   NC312995  22.183  36.883   9.455
 6347POPC   PO412996  22.172  36.910   9.155
 6347POPC   GL112997  22.167  36.878   8.855
 6347POPC   GL212998  22.071  36.911   8.855
 6347POPC   C1A12999  22.149  36.887   8.555
 6347POPC   D2A13000  22.191  36.940   8.255
 6347POPC   C3A13001  22.119  36.878   7.955
 6347POPC   C4A13002  22.154  36.874   7.655
 6347POPC   C1B13003  21.886  37.053   8.555
 6347POPC   C2B13004  21.916  36.955   8.255
 6347POPC   C3B13005  21.894  37.037   7.955
 6347POPC   C4B13006  21.898  36.957   7.655
 6348POPC   NC313007  26.847  30.679   9.455
 6348POPC   PO413008  26.807  30.718   9.155
 6348POPC   GL113009  26.808  30.715   8.855
 6348POPC   GL213010  26.681  30.604   8.855
 6348POPC   C1A13011  26.836  30.668   8.555
 6348POPC   D2A13012  26.843  30.711   8.255
 6348POPC   C3A13013  26.803  30.652   7.955
 6348POPC   C4A13014  26.841  30.655   7.655
 6348POPC   C1B13015  26.558  30.623   8.555
 6348POPC   C2B13016  26.616  30.550   8.255
 6348POPC   C3B13017  26.542  30.634   7.955
 6348POPC   C4B13018  26.581  30.590   7.655
 6349POPC   NC313019  24.521  21.403   9.455
 6349POPC   PO413020  24.448  21.336   9.155
 6349POPC   GL113021  24.479  21.413   8.855
 6349POPC   GL213022  24.560  21.219   8.855
 6349POPC   C1A13023  24.496  21.404   8.555
 6349POPC   D2A13024  24.469  21.396   8.255
 6349POPC   C3A13025  24.504  21.396   7.955
 6349POPC   C4A13026  24.521  21.428   7.655
 6349POPC   C1B13027  24.534  21.160   8.555
 6349POPC   C2B13028  24.617  21.195   8.255
 6349POPC   C3B13029  24.549  21.176   7.955
 6349POPC   C4B13030  24.549  21.170   7.655
 6350POPC   NC313031  38.461   1.190   9.455
 6350POPC   PO413032  38.425   1.242   9.155
 6350POPC   GL113033  38.474   1.193   8.855
 6350POPC   GL213034  38.445   1.306   8.855
 6350POPC   C1A13035  38.428   1.256   8.555
 6350POPC   D2A13036  38.449   1.242   8.255
 6350POPC   C3A13037  38.495   1.210   7.955
 6350POPC   C4A13038  38.420   1.219   7.655
 6350POPC   C1B13039  38.345   1.438   8.555
 6350POPC   C2B13040  38.361   1.447   8.255
 6350POPC   C3B13041  38.295   1.451   7.955
 6350POPC   C4B13042  38.384   1.414   7.655
 6351POPC   NC313043  10.479  32.291   9.455
 6351POPC   PO413044  10.488  32.276   9.155
 6351POPC   GL113045  10.548  32.272   8.855
 6351POPC   GL213046  10.639  32.275   8.855
 6351POPC   C1A13047  10.500  32.206   8.555
 6351POPC   D2A13048  10.545  32.213   8.255
 6351POPC   C3A13049  10.558  32.268   7.955
 6351POPC   C4A13050  10.502  32.270   7.655
 6351POPC   C1B13051  10.767  32.275   8.555
 6351POPC   C2B13052  10.817  32.199   8.255
 6351POPC   C3B13053  10.738  32.227   7.955
 6351POPC   C4B13054  10.733  32.270   7.655
 6352POPC   NC313055  29.897  25.239   9.455
 6352POPC   PO413056  29.969  25.306   9.155
 6352POPC   GL113057  29.914  25.311   8.855
 6352POPC   GL213058  30.019  25.229   8.855
 6352POPC   C1A13059  29.946  25.263   8.555
 6352POPC   D2A13060  29.924  25.255   8.255
 6352POPC   C3A13061  29.881  25.257   7.955
 6352POPC   C4A13062  29.885  25.295   7.655
 6352POPC   C1B13063  30.117  25.164   8.555
 6352POPC   C2B13064  30.092  25.133   8.255
 6352POPC   C3B13065  30.104  25.171   7.955
 6352POPC   C4B13066  30.090  25.130   7.655
 6353POPC   NC313067  18.287  43.084   9.455
 6353POPC   PO413068  18.327  43.125   9.155
 6353POPC   GL113069  18.291  43.086   8.855
 6353POPC   GL213070  18.196  43.027   8.855
 6353POPC   C1A13071  18.299  43.100   8.555
 6353POPC   D2A13072  18.328  43.066   8.255
 6353POPC   C3A13073  18.246  43.068   7.955
 6353POPC   C4A13074  18.270  43.077   7.655
 6353POPC   C1B13075  18.143  42.895   8.555
 6353POPC   C2B13076  18.200  42.940   8.255
 6353POPC   C3B13077  18.117  42.863   7.955
 6353POPC   C4B13078  18.165  42.860   7.655
 6354POPC   NC313079   5.110  27.616   9.455
 6354POPC   PO413080   5.067  27.547   9.155
 6354POPC   GL113081   5.126  27.582   8.855
 6354POPC   GL213082   5.001  27.675   8.855
 6354POPC   C1A13083   5.097  27.601   8.555
 6354POPC   D2A13084   5.061  27.637   8.255
 6354POPC   C3A13085   5.052  27.594   7.955
 6354POPC   C4A13086   5.045  27.571   7.655
 6354POPC   C1B13087   5.036  27.825   8.555
 6354POPC   C2B13088   4.989  27.773   8.255
 6354POPC   C3B13089   4.992  27.816   7.955
 6354POPC   C4B13090   4.948  27.860   7.655
 6355POPC   NC313091  25.255   8.148   9.455
 6355POPC   PO413092  25.226   8.203   9.155
 6355POPC   GL113093  25.259   8.204   8.855
 6355POPC   GL213094  25.226   8.068   8.855
 6355POPC   C1A13095  25.228   8.221   8.555
 6355POPC   D2A13096  25.234   8.206   8.255
 6355POPC   C3A13097  25.310   8.246   7.955
 6355POPC   C4A13098  25.225   8.172   7.655
 6355POPC   C1B13099  25.237   7.944   8.555
 6355POPC   C2B13100  25.278   7.963   8.255
 6355POPC   C3B13101  25.235   7.950   7.955
 6355POPC   C4B13102  25.280   7.929   7.655
 6356POPC   NC313103   6.619  14.445   9.455
 6356POPC   PO413104   6.657  14.432   9.155
 6356POPC   GL113105   6.645  14.402   8.855
 6356POPC   GL213106   6.786  14.439   8.855
 6356POPC   C1A13107   6.660  14.383   8.555
 6356POPC   D2A13108   6.622  14.400   8.255
 6356POPC   C3A13109   6.689  14.429   7.955
 6356POPC   C4A13110   6.648  14.397   7.655
 6356POPC   C1B13111   6.919  14.537   8.555
 6356POPC   C2B13112   6.897  14.514   8.255
 6356POPC   C3B13113   6.847  14.462   7.955
 6356POPC   C4B13114   6.916  14.476   7.655
 6357POPC   NC313115  29.192  16.764   9.455
 6357POPC   PO413116  29.142  16.695   9.155
 6357POPC   GL113117  29.103  16.737   8.855
 6357POPC   GL213118  29.201  16.854   8.855
 6357POPC   C1A13119  29.138  16.728   8.555
 6357POPC   D2A13120  29.140  16.750   8.255
 6357POPC   C3A13121  29.153  16.691   7.955
 6357POPC   C4A13122  29.115  16.728   7.655
 6357POPC   C1B13123  29.168  17.019   8.555
 6357POPC   C2B13124  29.199  16.948   8.255
 6357POPC   C3B13125  29.161  16.988   7.955
 6357POPC   C4B13126  29.197  17.014   7.655
 6358POPC   NC313127  39.223  41.569   9.455
 6358POPC   PO413128  39.247  41.519   9.155
 6358POPC   GL113129  39.208  41.547   8.855
 6358POPC   GL213130  39.155  41.589   8.855
 6358POPC   C1A13131  39.215  41.550   8.555
 6358POPC   D2A13132  39.252  41.525   8.255
 6358POPC   C3A13133  39.270  41.565   7.955
 6358POPC   C4A13134  39.228  41.568   7.655
 6358POPC   C1B13135  39.001  41.612   8.555
 6358POPC   C2B13136  39.018  41.521   8.255
 6358POPC   C3B13137  39.013  41.545   7.955
 6358POPC   C4B13138  39.030  41.563   7.655
 6359POPC   NC313139  42.339  27.573   9.455
 6359POPC   PO413140  42.374  27.552   9.155
 6359POPC   GL113141  42.379  27.590   8.855
 6359POPC   GL213142  42.459  27.487   8.855
 6359POPC   C1A13143  42.306  27.546   8.555
 6359POPC   D2A13144  42.301  27.548   8.255
 6359POPC   C3A13145  42.285  27.562   7.955
 6359POPC   C4A13146  42.321  27.609   7.655
 6359POPC   C1B13147  42.535  27.419   8.555
 6359POPC   C2B13148  42.442  27.380   8.255
 6359POPC   C3B13149  42.501  27.389   7.955
 6359POPC   C4B13150  42.452  27.421   7.655
 6360POPC   NC313151  43.126  43.865   9.455
 6360POPC   PO413152  43.144  43.873   9.155
 6360POPC   GL113153  43.068  43.892   8.855
 6360POPC   GL213154  42.998  43.860   8.855
 6360POPC   C1A13155  43.150  43.859   8.555
 6360POPC   D2A13156  43.091  43.936   8.255
 6360POPC   C3A13157  43.118  43.926   7.955
 6360POPC   C4A13158  43.117  43.840   7.655
 6360POPC   C1B13159  42.836  43.799   8.555
 6360POPC   C2B13160  42.900  43.759   8.255
 6360POPC   C3B13161  42.891  43.743   7.955
 6360POPC   C4B13162  42.885  43.823   7.655
 6361POPC   NC313163  16.750  17.492   9.455
 6361POPC   PO413164  16.758  17.519   9.155
 6361POPC   GL113165  16.766  17.550   8.855
 6361POPC   GL213166  16.621  17.480   8.855
 6361POPC   C1A13167  16.690  17.510   8.555
 6361POPC   D2A13168  16.727  17.472   8.255
 6361POPC   C3A13169  16.703  17.534   7.955
 6361POPC   C4A13170  16.700  17.474   7.655
 6361POPC   C1B13171  16.479  17.400   8.555
 6361POPC   C2B13172  16.537  17.358   8.255
 6361POPC   C3B13173  16.521  17.348   7.955
 6361POPC   C4B13174  16.546  17.412   7.655
 6362POPC   NC313175   0.463  25.217   9.455
 6362POPC   PO413176   0.459  25.283   9.155
 6362POPC   GL113177   0.416  25.267   8.855
 6362POPC   GL213178   0.470  25.353   8.855
 6362POPC   C1A13179   0.476  25.274   8.555
 6362POPC   D2A13180   0.454  25.272   8.255
 6362POPC   C3A13181   0.438  25.310   7.955
 6362POPC   C4A13182   0.445  25.283   7.655
 6362POPC   C1B13183   0.566  25.504   8.555
 6362POPC   C2B13184   0.482  25.481   8.255
 6362POPC   C3B13185   0.553  25.473   7.955
 6362POPC   C4B13186   0.540  25.523   7.655
 6363POPC   NC313187   6.618  31.428   9.455
 6363POPC   PO413188   6.694  31.476   9.155
 6363POPC   GL113189   6.654  31.435   8.855
 6363POPC   GL213190   6.747  31.547   8.855
 6363POPC   C1A13191   6.629  31.423   8.555
 6363POPC   D2A13192   6.657  31.472   8.255
 6363POPC   C3A13193   6.642  31.446   7.955
 6363POPC   C4A13194   6.651  31.461   7.655
 6363POPC   C1B13195   6.755  31.676   8.555
 6363POPC   C2B13196   6.734  31.671   8.255
 6363POPC   C3B13197   6.740  31.720   7.955
 6363POPC   C4B13198   6.787  31.657   7.655
 6364POPC   NC313199  41.590   1.258   9.455
 6364POPC   PO413200  41.590   1.173   9.155
 6364POPC   GL113201  41.522   1.237   8.855
 6364POPC   GL213202  41.422   1.341   8.855
 6364POPC   C1A13203  41.521   1.209   8.555
 6364POPC   D2A13204  41.540   1.225   8.255
 6364POPC   C3A13205  41.524   1.246   7.955
 6364POPC   C4A13206  41.604   1.226   7.655
 6364POPC   C1B13207  41.409   1.355   8.555
 6364POPC   C2B13208  41.402   1.368   8.255
 6364POPC   C3B13209  41.423   1.388   7.955
 6364POPC   C4B13210  41.424   1.406   7.655
 6365POPC   NC313211  34.551  23.690   9.455
 6365POPC   PO413212  34.542  23.683   9.155
 6365POPC   GL113213  34.534  23.738   8.855
 6365POPC   GL213214  34.639  23.668   8.855
 6365POPC   C1A13215  34.556  23.749   8.555
 6365POPC   D2A13216  34.586  23.713   8.255
 6365POPC   C3A13217  34.546  23.723   7.955
 6365POPC   C4A13218  34.530  23.759   7.655
 6365POPC   C1B13219  34.752  23.564   8.555
 6365POPC   C2B13220  34.807  23.548   8.255
 6365POPC   C3B13221  34.726  23.564   7.955
 6365POPC   C4B13222  34.801  23.526   7.655
 6366POPC   NC313223  38.434  22.204   9.455
 6366POPC   PO413224  38.408  22.201   9.155
 6366POPC   GL113225  38.476  22.165   8.855
 6366POPC   GL213226  38.607  22.128   8.855
 6366POPC   C1A13227  38.497  22.197   8.555
 6366POPC   D2A13228  38.405  22.142   8.255
 6366POPC   C3A13229  38.467  22.138   7.955
 6366POPC   C4A13230  38.406  22.134   7.655
 6366POPC   C1B13231  38.646  22.072   8.555
 6366POPC   C2B13232  38.657  22.050   8.255
 6366POPC   C3B13233  38.662  22.098   7.955
 6366POPC   C4B13234  38.673  22.066   7.655
 6367POPC   NC313235  38.487  11.281   9.455
 6367POPC   PO413236  38.471  11.262   9.155
 6367POPC   GL113237  38.407  11.269   8.855
 6367POPC   GL213238  38.579  11.296   8.855
 6367POPC   C1A13239  38.444  11.311   8.555
 6367POPC   D2A13240  38.456  11.282   8.255
 6367POPC   C3A13241  38.468  11.309   7.955
 6367POPC   C4A13242  38.466  11.317   7.655
 6367POPC   C1B13243  38.674  11.289   8.555
 6367POPC   C2B13244  38.741  11.313   8.255
 6367POPC   C3B13245  38.681  11.267   7.955
 6367POPC   C4B13246  38.730  11.281   7.655
 6368POPC   NC313247  15.143  16.703   9.455
 6368POPC   PO413248  15.169  16.695   9.155
 6368POPC   GL113249  15.162  16.700   8.855
 6368POPC   GL213250  15.123  16.567   8.855
 6368POPC   C1A13251  15.223  16.722   8.555
 6368POPC   D2A13252  15.176  16.715   8.255
 6368POPC   C3A13253  15.176  16.720   7.955
 6368POPC   C4A13254  15.159  16.776   7.655
 6368POPC   C1B13255  15.080  16.525   8.555
 6368POPC   C2B13256  15.043  16.477   8.255
 6368POPC   C3B13257  15.057  16.479   7.955
 6368POPC   C4B13258  15.048  16.512   7.655
 6369POPC   NC313259  22.138  35.329   9.455
 6369POPC   PO413260  22.174  35.383   9.155
 6369POPC   GL113261  22.130  35.383   8.855
 6369POPC   GL213262  22.005  35.349   8.855
 6369POPC   C1A13263  22.208  35.377   8.555
 6369POPC   D2A13264  22.148  35.304   8.255
 6369POPC   C3A13265  22.209  35.377   7.955
 6369POPC   C4A13266  22.146  35.309   7.655
 6369POPC   C1B13267  21.911  35.424   8.555
 6369POPC   C2B13268  21.958  35.401   8.255
 6369POPC   C3B13269  21.914  35.457   7.955
 6369POPC   C4B13270  21.936  35.380   7.655
 6370POPC   NC313271  18.242  32.982   9.455
 6370POPC   PO413272  18.296  33.034   9.155
 6370POPC   GL113273  18.315  33.058   8.855
 6370POPC   GL213274  18.323  33.182   8.855
 6370POPC   C1A13275  18.280  33.014   8.555
 6370POPC   D2A13276  18.269  33.028   8.255
 6370POPC   C3A13277  18.312  33.031   7.955
 6370POPC   C4A13278  18.287  33.039   7.655
 6370POPC   C1B13279  18.346  33.301   8.555
 6370POPC   C2B13280  18.352  33.293   8.255
 6370POPC   C3B13281  18.264  33.238   7.955
 6370POPC   C4B13282  18.340  33.309   7.655
 6371POPC   NC313283  38.454  26.028   9.455
 6371POPC   PO413284  38.472  26.079   9.155
 6371POPC   GL113285  38.500  26.068   8.855
 6371POPC   GL213286  38.413  26.118   8.855
 6371POPC   C1A13287  38.432  26.084   8.555
 6371POPC   D2A13288  38.480  25.999   8.255
 6371POPC   C3A13289  38.430  26.007   7.955
 6371POPC   C4A13290  38.444  26.056   7.655
 6371POPC   C1B13291  38.262  26.275   8.555
 6371POPC   C2B13292  38.317  26.237   8.255
 6371POPC   C3B13293  38.325  26.207   7.955
 6371POPC   C4B13294  38.261  26.203   7.655
 6372POPC   NC313295   0.408  40.017   9.455
 6372POPC   PO413296   0.412  40.009   9.155
 6372POPC   GL113297   0.486  40.034   8.855
 6372POPC   GL213298   0.296  39.972   8.855
 6372POPC   C1A13299   0.391  40.043   8.555
 6372POPC   D2A13300   0.444  40.031   8.255
 6372POPC   C3A13301   0.441  39.996   7.955
 6372POPC   C4A13302   0.468  40.009   7.655
 6372POPC   C1B13303   0.186  39.858   8.555
 6372POPC   C2B13304   0.245  39.903   8.255
 6372POPC   C3B13305   0.235  39.906   7.955
 6372POPC   C4B13306   0.240  39.894   7.655
 6373POPC   NC313307   9.758  18.303   9.455
 6373POPC   PO413308   9.721  18.269   9.155
 6373POPC   GL113309   9.766  18.311   8.855
 6373POPC   GL213310   9.728  18.203   8.855
 6373POPC   C1A13311   9.788  18.311   8.555
 6373POPC   D2A13312   9.736  18.242   8.255
 6373POPC   C3A13313   9.792  18.239   7.955
 6373POPC   C4A13314   9.752  18.246   7.655
 6373POPC   C1B13315   9.672  18.005   8.555
 6373POPC   C2B13316   9.623  18.044   8.255
 6373POPC   C3B13317   9.695  18.054   7.955
 6373POPC   C4B13318   9.627  18.016   7.655
 6374POPC   NC313319  37.719  10.534   9.455
 6374POPC   PO413320  37.707  10.531   9.155
 6374POPC   GL113321  37.687  10.477   8.855
 6374POPC   GL213322  37.831  10.493   8.855
 6374POPC   C1A13323  37.651  10.520   8.555
 6374POPC   D2A13324  37.632  10.493   8.255
 6374POPC   C3A13325  37.675  10.529   7.955
 6374POPC   C4A13326  37.667  10.565   7.655
 6374POPC   C1B13327  37.925  10.526   8.555
 6374POPC   C2B13328  37.922  10.578   8.255
 6374POPC   C3B13329  37.929  10.502   7.955
 6374POPC   C4B13330  37.878  10.587   7.655
 6375POPC   NC313331  26.021  40.010   9.455
 6375POPC   PO413332  26.078  40.017   9.155
 6375POPC   GL113333  26.019  39.991   8.855
 6375POPC   GL213334  26.053  40.107   8.855
 6375POPC   C1A13335  26.030  40.016   8.555
 6375POPC   D2A13336  25.995  40.029   8.255
 6375POPC   C3A13337  26.063  40.022   7.955
 6375POPC   C4A13338  26.051  40.032   7.655
 6375POPC   C1B13339  26.008  40.263   8.555
 6375POPC   C2B13340  25.940  40.291   8.255
 6375POPC   C3B13341  25.968  40.244   7.955
 6375POPC   C4B13342  25.988  40.292   7.655
 6376POPC   NC313343  40.757  13.639   9.455
 6376POPC   PO413344  40.755  13.639   9.155
 6376POPC   GL113345  40.786  13.605   8.855
 6376POPC   GL213346  40.881  13.735   8.855
 6376POPC   C1A13347  40.820  13.655   8.555
 6376POPC   D2A13348  40.799  13.659   8.255
 6376POPC   C3A13349  40.813  13.645   7.955
 6376POPC   C4A13350  40.829  13.671   7.655
 6376POPC   C1B13351  40.961  13.776   8.555
 6376POPC   C2B13352  40.977  13.778   8.255
 6376POPC   C3B13353  40.916  13.837   7.955
 6376POPC   C4B13354  40.926  13.825   7.655
 6377POPC   NC313355  37.631  41.516   9.455
 6377POPC   PO413356  37.646  41.524   9.155
 6377POPC   GL113357  37.665  41.560   8.855
 6377POPC   GL213358  37.718  41.684   8.855
 6377POPC   C1A13359  37.648  41.553   8.555
 6377POPC   D2A13360  37.700  41.533   8.255
 6377POPC   C3A13361  37.703  41.558   7.955
 6377POPC   C4A13362  37.630  41.547   7.655
 6377POPC   C1B13363  37.863  41.773   8.555
 6377POPC   C2B13364  37.830  41.814   8.255
 6377POPC   C3B13365  37.819  41.819   7.955
 6377POPC   C4B13366  37.778  41.774   7.655
 6378POPC   NC313367  27.553  31.451   9.455
 6378POPC   PO413368  27.588  31.482   9.155
 6378POPC   GL113369  27.625  31.430   8.855
 6378POPC   GL213370  27.679  31.535   8.855
 6378POPC   C1A13371  27.565  31.442   8.555
 6378POPC   D2A13372  27.560  31.454   8.255
 6378POPC   C3A13373  27.572  31.486   7.955
 6378POPC   C4A13374  27.632  31.474   7.655
 6378POPC   C1B13375  27.765  31.687   8.555
 6378POPC   C2B13376  27.778  31.626   8.255
 6378POPC   C3B13377  27.779  31.692   7.955
 6378POPC   C4B13378  27.714  31.690   7.655
 6379POPC   NC313379   0.424   8.194   9.455
 6379POPC   PO413380   0.457   8.230   9.155
 6379POPC   GL113381   0.443   8.188   8.855
 6379POPC   GL213382   0.335   8.303   8.855
 6379POPC   C1A13383   0.410   8.153   8.555
 6379POPC   D2A13384   0.473   8.192   8.255
 6379POPC   C3A13385   0.429   8.243   7.955
 6379POPC   C4A13386   0.478   8.225   7.655
 6379POPC   C1B13387   0.228   8.359   8.555
 6379POPC   C2B13388   0.228   8.360   8.255
 6379POPC   C3B13389   0.225   8.330   7.955
 6379POPC   C4B13390   0.221   8.262   7.655
 6380POPC   NC313391  16.714  40.021   9.455
 6380POPC   PO413392  16.710  39.967   9.155
 6380POPC   GL113393  16.762  40.025   8.855
 6380POPC   GL213394  16.775  39.888   8.855
 6380POPC   C1A13395  16.736  40.052   8.555
 6380POPC   D2A13396  16.716  40.001   8.255
 6380POPC   C3A13397  16.696  40.046   7.955
 6380POPC   C4A13398  16.769  39.964   7.655
 6380POPC   C1B13399  16.913  39.788   8.555
 6380POPC   C2B13400  16.882  39.834   8.255
 6380POPC   C3B13401  16.892  39.833   7.955
 6380POPC   C4B13402  16.890  39.859   7.655
 6381POPC   NC313403  15.992  34.600   9.455
 6381POPC   PO413404  15.949  34.572   9.155
 6381POPC   GL113405  15.924  34.616   8.855
 6381POPC   GL213406  15.998  34.697   8.855
 6381POPC   C1A13407  15.995  34.572   8.555
 6381POPC   D2A13408  15.995  34.621   8.255
 6381POPC   C3A13409  15.996  34.532   7.955
 6381POPC   C4A13410  15.950  34.544   7.655
 6381POPC   C1B13411  16.143  34.777   8.555
 6381POPC   C2B13412  16.097  34.804   8.255
 6381POPC   C3B13413  16.109  34.741   7.955
 6381POPC   C4B13414  16.139  34.817   7.655
 6382POPC   NC313415   2.007  21.364   9.455
 6382POPC   PO413416   2.029  21.363   9.155
 6382POPC   GL113417   1.996  21.388   8.855
 6382POPC   GL213418   2.015  21.476   8.855
 6382POPC   C1A13419   2.021  21.348   8.555
 6382POPC   D2A13420   2.032  21.374   8.255
 6382POPC   C3A13421   1.947  21.370   7.955
 6382POPC   C4A13422   2.034  21.383   7.655
 6382POPC   C1B13423   2.185  21.561   8.555
 6382POPC   C2B13424   2.128  21.577   8.255
 6382POPC   C3B13425   2.155  21.576   7.955
 6382POPC   C4B13426   2.140  21.592   7.655
 6383POPC   NC313427  40.016  22.964   9.455
 6383POPC   PO413428  39.974  22.929   9.155
 6383POPC   GL113429  39.963  22.927   8.855
 6383POPC   GL213430  39.917  22.864   8.855
 6383POPC   C1A13431  40.013  22.986   8.555
 6383POPC   D2A13432  40.009  22.935   8.255
 6383POPC   C3A13433  39.969  22.958   7.955
 6383POPC   C4A13434  39.998  22.954   7.655
 6383POPC   C1B13435  39.883  22.753   8.555
 6383POPC   C2B13436  39.878  22.780   8.255
 6383POPC   C3B13437  39.842  22.707   7.955
 6383POPC   C4B13438  39.883  22.711   7.655
 6384POPC   NC313439  32.204  25.313   9.455
 6384POPC   PO413440  32.223  25.251   9.155
 6384POPC   GL113441  32.258  25.294   8.855
 6384POPC   GL213442  32.184  25.321   8.855
 6384POPC   C1A13443  32.229  25.234   8.555
 6384POPC   D2A13444  32.269  25.219   8.255
 6384POPC   C3A13445  32.231  25.236   7.955
 6384POPC   C4A13446  32.207  25.235   7.655
 6384POPC   C1B13447  32.060  25.408   8.555
 6384POPC   C2B13448  32.064  25.383   8.255
 6384POPC   C3B13449  32.054  25.373   7.955
 6384POPC   C4B13450  32.076  25.434   7.655
 6385POPC   NC313451  18.253  16.694   9.455
 6385POPC   PO413452  18.317  16.759   9.155
 6385POPC   GL113453  18.289  16.765   8.855
 6385POPC   GL213454  18.197  16.739   8.855
 6385POPC   C1A13455  18.323  16.734   8.555
 6385POPC   D2A13456  18.297  16.692   8.255
 6385POPC   C3A13457  18.281  16.743   7.955
 6385POPC   C4A13458  18.235  16.728   7.655
 6385POPC   C1B13459  18.027  16.811   8.555
 6385POPC   C2B13460  18.015  16.826   8.255
 6385POPC   C3B13461  18.059  16.814   7.955
 6385POPC   C4B13462  18.053  16.774   7.655
 6386POPC   NC313463  40.769  39.264   9.455
 6386POPC   PO413464  40.784  39.216   9.155
 6386POPC   GL113465  40.826  39.204   8.855
 6386POPC   GL213466  40.712  39.314   8.855
 6386POPC   C1A13467  40.805  39.184   8.555
 6386POPC   D2A13468  40.773  39.205   8.255
 6386POPC   C3A13469  40.757  39.181   7.955
 6386POPC   C4A13470  40.766  39.223   7.655
 6386POPC   C1B13471  40.645  39.424   8.555
 6386POPC   C2B13472  40.623  39.358   8.255
 6386POPC   C3B13473  40.587  39.409   7.955
 6386POPC   C4B13474  40.585  39.439   7.655
 6387POPC   NC313475  43.158   2.001   9.455
 6387POPC   PO413476  43.149   2.036   9.155
 6387POPC   GL113477  43.114   2.021   8.855
 6387POPC   GL213478  43.034   1.925   8.855
 6387POPC   C1A13479  43.099   2.018   8.555
 6387POPC   D2A13480  43.133   1.972   8.255
 6387POPC   C3A13481  43.072   1.977   7.955
 6387POPC   C4A13482  43.080   2.033   7.655
 6387POPC   C1B13483  42.933   1.783   8.555
 6387POPC   C2B13484  42.944   1.746   8.255
 6387POPC   C3B13485  42.922   1.743   7.955
 6387POPC   C4B13486  42.921   1.739   7.655
 6388POPC   NC313487  16.766  39.270   9.455
 6388POPC   PO413488  16.734  39.184   9.155
 6388POPC   GL113489  16.761  39.224   8.855
 6388POPC   GL213490  16.853  39.248   8.855
 6388POPC   C1A13491  16.714  39.217   8.555
 6388POPC   D2A13492  16.753  39.195   8.255
 6388POPC   C3A13493  16.737  39.226   7.955
 6388POPC   C4A13494  16.760  39.222   7.655
 6388POPC   C1B13495  16.998  39.325   8.555
 6388POPC   C2B13496  16.955  39.350   8.255
 6388POPC   C3B13497  16.955  39.397   7.955
 6388POPC   C4B13498  16.957  39.338   7.655
 6389POPC   NC313499  36.901   8.933   9.455
 6389POPC   PO413500  36.899   8.946   9.155
 6389POPC   GL113501  36.884   8.941   8.855
 6389POPC   GL213502  36.817   8.873   8.855
 6389POPC   C1A13503  36.938   8.942   8.555
 6389POPC   D2A13504  36.855   8.969   8.255
 6389POPC   C3A13505  36.894   8.970   7.955
 6389POPC   C4A13506  36.883   8.975   7.655
 6389POPC   C1B13507  36.783   8.766   8.555
 6389POPC   C2B13508  36.785   8.794   8.255
 6389POPC   C3B13509  36.792   8.811   7.955
 6389POPC   C4B13510  36.797   8.794   7.655
 6390POPC   NC313511  31.492   2.773   9.455
 6390POPC   PO413512  31.440   2.746   9.155
 6390POPC   GL113513  31.438   2.734   8.855
 6390POPC   GL213514  31.396   2.654   8.855
 6390POPC   C1A13515  31.479   2.816   8.555
 6390POPC   D2A13516  31.441   2.747   8.255
 6390POPC   C3A13517  31.492   2.723   7.955
 6390POPC   C4A13518  31.469   2.780   7.655
 6390POPC   C1B13519  31.258   2.627   8.555
 6390POPC   C2B13520  31.295   2.630   8.255
 6390POPC   C3B13521  31.252   2.666   7.955
 6390POPC   C4B13522  31.238   2.613   7.655
 6391POPC   NC313523   8.229   1.957   9.455
 6391POPC   PO413524   8.177   2.021   9.155
 6391POPC   GL113525   8.209   2.036   8.855
 6391POPC   GL213526   8.286   1.903   8.855
 6391POPC   C1A13527   8.158   2.025   8.555
 6391POPC   D2A13528   8.191   1.997   8.255
 6391POPC   C3A13529   8.151   1.988   7.955
 6391POPC   C4A13530   8.155   1.988   7.655
 6391POPC   C1B13531   8.301   1.769   8.555
 6391POPC   C2B13532   8.248   1.793   8.255
 6391POPC   C3B13533   8.256   1.705   7.955
 6391POPC   C4B13534   8.278   1.799   7.655
 6392POPC   NC313535   4.342   2.035   9.455
 6392POPC   PO413536   4.354   2.034   9.155
 6392POPC   GL113537   4.359   1.983   8.855
 6392POPC   GL213538   4.237   1.938   8.855
 6392POPC   C1A13539   4.332   1.956   8.555
 6392POPC   D2A13540   4.304   1.993   8.255
 6392POPC   C3A13541   4.356   1.957   7.955
 6392POPC   C4A13542   4.351   2.031   7.655
 6392POPC   C1B13543   4.104   1.834   8.555
 6392POPC   C2B13544   4.121   1.837   8.255
 6392POPC   C3B13545   4.052   1.842   7.955
 6392POPC   C4B13546   4.075   1.884   7.655
 6393POPC   NC313547  21.414  32.247   9.455
 6393POPC   PO413548  21.354  32.285   9.155
 6393POPC   GL113549  21.382  32.261   8.855
 6393POPC   GL213550  21.283  32.202   8.855
 6393POPC   C1A13551  21.429  32.228   8.555
 6393POPC   D2A13552  21.347  32.216   8.255
 6393POPC   C3A13553  21.375  32.239   7.955
 6393POPC   C4A13554  21.397  32.266   7.655
 6393POPC   C1B13555  21.207  32.059   8.555
 6393POPC   C2B13556  21.237  32.077   8.255
 6393POPC   C3B13557  21.178  32.030   7.955
 6393POPC   C4B13558  21.255  32.050   7.655
 6394POPC   NC313559  25.315   8.932   9.455
 6394POPC   PO413560  25.307   8.988   9.155
 6394POPC   GL113561  25.219   8.950   8.855
 6394POPC   GL213562  25.259   8.819   8.855
 6394POPC   C1A13563  25.255   8.933   8.555
 6394POPC   D2A13564  25.290   8.943   8.255
 6394POPC   C3A13565  25.229   8.980   7.955
 6394POPC   C4A13566  25.278   8.987   7.655
 6394POPC   C1B13567  25.156   8.708   8.555
 6394POPC   C2B13568  25.177   8.695   8.255
 6394POPC   C3B13569  25.159   8.785   7.955
 6394POPC   C4B13570  25.187   8.731   7.655
 6395POPC   NC313571  33.827   8.956   9.455
 6395POPC   PO413572  33.829   8.942   9.155
 6395POPC   GL113573  33.841   8.963   8.855
 6395POPC   GL213574  33.777   9.096   8.855
 6395POPC   C1A13575  33.841   8.998   8.555
 6395POPC   D2A13576  33.751   8.930   8.255
 6395POPC   C3A13577  33.780   8.997   7.955
 6395POPC   C4A13578  33.784   8.972   7.655
 6395POPC   C1B13579  33.662   9.211   8.555
 6395POPC   C2B13580  33.703   9.195   8.255
 6395POPC   C3B13581  33.665   9.174   7.955
 6395POPC   C4B13582  33.719   9.180   7.655
 6396POPC   NC313583   0.452  30.746   9.455
 6396POPC   PO413584   0.445  30.732   9.155
 6396POPC   GL113585   0.420  30.726   8.855
 6396POPC   GL213586   0.436  30.535   8.855
 6396POPC   C1A13587   0.455  30.706   8.555
 6396POPC   D2A13588   0.475  30.678   8.255
 6396POPC   C3A13589   0.404  30.669   7.955
 6396POPC   C4A13590   0.392  30.734   7.655
 6396POPC   C1B13591   0.378  30.491   8.555
 6396POPC   C2B13592   0.310  30.510   8.255
 6396POPC   C3B13593   0.327  30.441   7.955
 6396POPC   C4B13594   0.311  30.493   7.655
 6397POPC   NC313595  40.742  11.327   9.455
 6397POPC   PO413596  40.743  11.322   9.155
 6397POPC   GL113597  40.761  11.262   8.855
 6397POPC   GL213598  40.905  11.321   8.855
 6397POPC   C1A13599  40.759  11.341   8.555
 6397POPC   D2A13600  40.747  11.311   8.255
 6397POPC   C3A13601  40.804  11.348   7.955
 6397POPC   C4A13602  40.807  11.325   7.655
 6397POPC   C1B13603  41.009  11.362   8.555
 6397POPC   C2B13604  40.970  11.423   8.255
 6397POPC   C3B13605  41.050  11.439   7.955
 6397POPC   C4B13606  41.027  11.364   7.655
 6398POPC   NC313607  17.462  24.478   9.455
 6398POPC   PO413608  17.491  24.540   9.155
 6398POPC   GL113609  17.511  24.527   8.855
 6398POPC   GL213610  17.394  24.436   8.855
 6398POPC   C1A13611  17.504  24.506   8.555
 6398POPC   D2A13612  17.552  24.529   8.255
 6398POPC   C3A13613  17.463  24.523   7.955
 6398POPC   C4A13614  17.488  24.511   7.655
 6398POPC   C1B13615  17.302  24.469   8.555
 6398POPC   C2B13616  17.210  24.475   8.255
 6398POPC   C3B13617  17.260  24.449   7.955
 6398POPC   C4B13618  17.280  24.512   7.655
 6399POPC   NC313619  44.654  33.067   9.455
 6399POPC   PO413620  44.630  33.045   9.155
 6399POPC   GL113621  44.662  33.062   8.855
 6399POPC   GL213622  44.599  33.097   8.855
 6399POPC   C1A13623  44.702  33.044   8.555
 6399POPC   D2A13624  44.694  32.978   8.255
 6399POPC   C3A13625  44.710  32.978   7.955
 6399POPC   C4A13626  44.694  33.016   7.655
 6399POPC   C1B13627  44.461  33.123   8.555
 6399POPC   C2B13628  44.425  33.148   8.255
 6399POPC   C3B13629  44.450  33.128   7.955
 6399POPC   C4B13630  44.428  33.124   7.655
 6400POPC   NC313631  26.072   5.887   9.455
 6400POPC   PO413632  26.008   5.833   9.155
 6400POPC   GL113633  25.995   5.882   8.855
 6400POPC   GL213634  26.164   5.802   8.855
 6400POPC   C1A13635  26.012   5.912   8.555
 6400POPC   D2A13636  26.051   5.873   8.255
 6400POPC   C3A13637  26.045   5.915   7.955
 6400POPC   C4A13638  26.015   5.861   7.655
 6400POPC   C1B13639  26.196   5.729   8.555
 6400POPC   C2B13640  26.261   5.721   8.255
 6400POPC   C3B13641  26.199   5.673   7.955
 6400POPC   C4B13642  26.263   5.670   7.655
 6401POPC   NC313643  40.000   2.811   9.455
 6401POPC   PO413644  39.999   2.743   9.155
 6401POPC   GL113645  39.984   2.773   8.855
 6401POPC   GL213646  39.887   2.708   8.855
 6401POPC   C1A13647  39.976   2.797   8.555
 6401POPC   D2A13648  40.026   2.772   8.255
 6401POPC   C3A13649  39.966   2.775   7.955
 6401POPC   C4A13650  40.013   2.776   7.655
 6401POPC   C1B13651  39.790   2.615   8.555
 6401POPC   C2B13652  39.870   2.583   8.255
 6401POPC   C3B13653  39.799   2.613   7.955
 6401POPC   C4B13654  39.868   2.628   7.655
 6402POPC   NC313655  35.344   5.909   9.455
 6402POPC   PO413656  35.361   5.904   9.155
 6402POPC   GL113657  35.372   5.850   8.855
 6402POPC   GL213658  35.492   5.882   8.855
 6402POPC   C1A13659  35.342   5.850   8.555
 6402POPC   D2A13660  35.309   5.882   8.255
 6402POPC   C3A13661  35.313   5.855   7.955
 6402POPC   C4A13662  35.373   5.847   7.655
 6402POPC   C1B13663  35.586   5.822   8.555
 6402POPC   C2B13664  35.581   5.888   8.255
 6402POPC   C3B13665  35.598   5.825   7.955
 6402POPC   C4B13666  35.596   5.873   7.655
 6403POPC   NC313667  40.018  29.928   9.455
 6403POPC   PO413668  40.023  29.911   9.155
 6403POPC   GL113669  40.056  29.930   8.855
 6403POPC   GL213670  39.927  29.957   8.855
 6403POPC   C1A13671  39.991  29.969   8.555
 6403POPC   D2A13672  40.008  29.891   8.255
 6403POPC   C3A13673  39.997  29.912   7.955
 6403POPC   C4A13674  40.010  29.930   7.655
 6403POPC   C1B13675  39.764  30.112   8.555
 6403POPC   C2B13676  39.752  30.075   8.255
 6403POPC   C3B13677  39.827  30.053   7.955
 6403POPC   C4B13678  39.844  30.105   7.655
 6404POPC   NC313679   5.071  24.455   9.455
 6404POPC   PO413680   5.140  24.517   9.155
 6404POPC   GL113681   5.052  24.534   8.855
 6404POPC   GL213682   5.055  24.336   8.855
 6404POPC   C1A13683   5.101  24.477   8.555
 6404POPC   D2A13684   5.047  24.527   8.255
 6404POPC   C3A13685   5.046  24.523   7.955
 6404POPC   C4A13686   5.103  24.473   7.655
 6404POPC   C1B13687   5.030  24.224   8.555
 6404POPC   C2B13688   4.968  24.229   8.255
 6404POPC   C3B13689   4.960  24.263   7.955
 6404POPC   C4B13690   5.018  24.253   7.655
 6405POPC   NC313691  35.380  21.411   9.455
 6405POPC   PO413692  35.364  21.400   9.155
 6405POPC   GL113693  35.372  21.413   8.855
 6405POPC   GL213694  35.191  21.426   8.855
 6405POPC   C1A13695  35.396  21.371   8.555
 6405POPC   D2A13696  35.348  21.416   8.255
 6405POPC   C3A13697  35.310  21.427   7.955
 6405POPC   C4A13698  35.398  21.339   7.655
 6405POPC   C1B13699  35.127  21.450   8.555
 6405POPC   C2B13700  35.093  21.465   8.255
 6405POPC   C3B13701  35.157  21.529   7.955
 6405POPC   C4B13702  35.085  21.477   7.655
 6406POPC   NC313703  17.528  34.549   9.455
 6406POPC   PO413704  17.548  34.582   9.155
 6406POPC   GL113705  17.527  34.579   8.855
 6406POPC   GL213706  17.438  34.736   8.855
 6406POPC   C1A13707  17.491  34.615   8.555
 6406POPC   D2A13708  17.501  34.610   8.255
 6406POPC   C3A13709  17.512  34.617   7.955
 6406POPC   C4A13710  17.520  34.607   7.655
 6406POPC   C1B13711  17.463  34.778   8.555
 6406POPC   C2B13712  17.442  34.797   8.255
 6406POPC   C3B13713  17.449  34.775   7.955
 6406POPC   C4B13714  17.463  34.860   7.655
 6407POPC   NC313715  19.033   4.274   9.455
 6407POPC   PO413716  19.101   4.290   9.155
 6407POPC   GL113717  19.042   4.337   8.855
 6407POPC   GL213718  19.098   4.166   8.855
 6407POPC   C1A13719  19.039   4.274   8.555
 6407POPC   D2A13720  19.062   4.358   8.255
 6407POPC   C3A13721  19.095   4.320   7.955
 6407POPC   C4A13722  19.092   4.294   7.655
 6407POPC   C1B13723  19.193   4.133   8.555
 6407POPC   C2B13724  19.163   4.053   8.255
 6407POPC   C3B13725  19.229   4.097   7.955
 6407POPC   C4B13726  19.162   4.098   7.655
 6408POPC   NC313727  33.841   5.832   9.455
 6408POPC   PO413728  33.836   5.851   9.155
 6408POPC   GL113729  33.847   5.859   8.855
 6408POPC   GL213730  33.906   5.808   8.855
 6408POPC   C1A13731  33.768   5.897   8.555
 6408POPC   D2A13732  33.810   5.861   8.255
 6408POPC   C3A13733  33.782   5.886   7.955
 6408POPC   C4A13734  33.770   5.830   7.655
 6408POPC   C1B13735  34.045   5.754   8.555
 6408POPC   C2B13736  34.035   5.806   8.255
 6408POPC   C3B13737  34.063   5.832   7.955
 6408POPC   C4B13738  33.992   5.776   7.655
 6409POPC   NC313739  31.460  30.735   9.455
 6409POPC   PO413740  31.516  30.708   9.155
 6409POPC   GL113741  31.426  30.650   8.855
 6409POPC   GL213742  31.385  30.618   8.855
 6409POPC   C1A13743  31.487  30.720   8.555
 6409POPC   D2A13744  31.477  30.700   8.255
 6409POPC   C3A13745  31.423  30.700   7.955
 6409POPC   C4A13746  31.497  30.667   7.655
 6409POPC   C1B13747  31.272  30.639   8.555
 6409POPC   C2B13748  31.270  30.574   8.255
 6409POPC   C3B13749  31.206  30.589   7.955
 6409POPC   C4B13750  31.254  30.574   7.655
 6410POPC   NC313751   0.399  10.524   9.455
 6410POPC   PO413752   0.406  10.546   9.155
 6410POPC   GL113753   0.466  10.542   8.855
 6410POPC   GL213754   0.591  10.568   8.855
 6410POPC   C1A13755   0.439  10.521   8.555
 6410POPC   D2A13756   0.412  10.542   8.255
 6410POPC   C3A13757   0.457  10.550   7.955
 6410POPC   C4A13758   0.449  10.479   7.655
 6410POPC   C1B13759   0.687  10.500   8.555
 6410POPC   C2B13760   0.698  10.565   8.255
 6410POPC   C3B13761   0.734  10.519   7.955
 6410POPC   C4B13762   0.718  10.501   7.655
 6411POPC   NC313763  12.828  40.039   9.455
 6411POPC   PO413764  12.852  40.005   9.155
 6411POPC   GL113765  12.858  40.030   8.855
 6411POPC   GL213766  12.895  40.152   8.855
 6411POPC   C1A13767  12.854  40.052   8.555
 6411POPC   D2A13768  12.844  39.962   8.255
 6411POPC   C3A13769  12.849  39.957   7.955
 6411POPC   C4A13770  12.808  40.023   7.655
 6411POPC   C1B13771  12.936  40.226   8.555
 6411POPC   C2B13772  12.922  40.254   8.255
 6411POPC   C3B13773  12.950  40.247   7.955
 6411POPC   C4B13774  12.931  40.255   7.655
 6412POPC   NC313775  36.899  29.959   9.455
 6412POPC   PO413776  36.947  29.950   9.155
 6412POPC   GL113777  36.899  29.954   8.855
 6412POPC   GL213778  36.986  29.902   8.855
 6412POPC   C1A13779  36.860  29.949   8.555
 6412POPC   D2A13780  36.875  29.958   8.255
 6412POPC   C3A13781  36.937  29.928   7.955
 6412POPC   C4A13782  36.906  29.970   7.655
 6412POPC   C1B13783  37.143  29.812   8.555
 6412POPC   C2B13784  37.128  29.816   8.255
 6412POPC   C3B13785  37.112  29.860   7.955
 6412POPC   C4B13786  37.163  29.903   7.655
 6413POPC   NC313787  25.265  12.886   9.455
 6413POPC   PO413788  25.283  12.828   9.155
 6413POPC   GL113789  25.258  12.872   8.855
 6413POPC   GL213790  25.178  12.871   8.855
 6413POPC   C1A13791  25.265  12.824   8.555
 6413POPC   D2A13792  25.252  12.821   8.255
 6413POPC   C3A13793  25.273  12.844   7.955
 6413POPC   C4A13794  25.274  12.875   7.655
 6413POPC   C1B13795  25.020  12.865   8.555
 6413POPC   C2B13796  25.029  12.822   8.255
 6413POPC   C3B13797  25.059  12.767   7.955
 6413POPC   C4B13798  24.980  12.766   7.655
 6414POPC   NC313799   7.438  19.822   9.455
 6414POPC   PO413800   7.436  19.788   9.155
 6414POPC   GL113801   7.387  19.826   8.855
 6414POPC   GL213802   7.572  19.863   8.855
 6414POPC   C1A13803   7.419  19.876   8.555
 6414POPC   D2A13804   7.405  19.865   8.255
 6414POPC   C3A13805   7.402  19.850   7.955
 6414POPC   C4A13806   7.421  19.824   7.655
 6414POPC   C1B13807   7.676  19.902   8.555
 6414POPC   C2B13808   7.655  19.890   8.255
 6414POPC   C3B13809   7.670  19.893   7.955
 6414POPC   C4B13810   7.682  19.831   7.655
 6415POPC   NC313811  15.947   6.681   9.455
 6415POPC   PO413812  15.923   6.597   9.155
 6415POPC   GL113813  15.973   6.665   8.855
 6415POPC   GL213814  15.978   6.800   8.855
 6415POPC   C1A13815  15.946   6.689   8.555
 6415POPC   D2A13816  15.997   6.666   8.255
 6415POPC   C3A13817  16.002   6.623   7.955
 6415POPC   C4A13818  15.969   6.613   7.655
 6415POPC   C1B13819  16.051   6.820   8.555
 6415POPC   C2B13820  16.027   6.841   8.255
 6415POPC   C3B13821  16.077   6.881   7.955
 6415POPC   C4B13822  16.071   6.825   7.655
 6416POPC   NC313823  25.257  27.543   9.455
 6416POPC   PO413824  25.276  27.641   9.155
 6416POPC   GL113825  25.248  27.591   8.855
 6416POPC   GL213826  25.340  27.640   8.855
 6416POPC   C1A13827  25.273  27.637   8.555
 6416POPC   D2A13828  25.245  27.633   8.255
 6416POPC   C3A13829  25.305  27.571   7.955
 6416POPC   C4A13830  25.258  27.547   7.655
 6416POPC   C1B13831  25.445  27.733   8.555
 6416POPC   C2B13832  25.421  27.813   8.255
 6416POPC   C3B13833  25.458  27.804   7.955
 6416POPC   C4B13834  25.459  27.803   7.655
 6417POPC   NC313835  22.912  29.171   9.455
 6417POPC   PO413836  22.936  29.181   9.155
 6417POPC   GL113837  22.937  29.175   8.855
 6417POPC   GL213838  22.869  29.197   8.855
 6417POPC   C1A13839  22.983  29.145   8.555
 6417POPC   D2A13840  22.930  29.096   8.255
 6417POPC   C3A13841  22.939  29.176   7.955
 6417POPC   C4A13842  22.905  29.138   7.655
 6417POPC   C1B13843  22.726  29.212   8.555
 6417POPC   C2B13844  22.701  29.289   8.255
 6417POPC   C3B13845  22.677  29.229   7.955
 6417POPC   C4B13846  22.684  29.219   7.655
 6418POPC   NC313847  39.228  43.153   9.455
 6418POPC   PO413848  39.196  43.079   9.155
 6418POPC   GL113849  39.213  43.066   8.855
 6418POPC   GL213850  39.164  43.207   8.855
 6418POPC   C1A13851  39.273  43.134   8.555
 6418POPC   D2A13852  39.201  43.147   8.255
 6418POPC   C3A13853  39.234  43.125   7.955
 6418POPC   C4A13854  39.250  43.117   7.655
 6418POPC   C1B13855  39.033  43.275   8.555
 6418POPC   C2B13856  39.096  43.319   8.255
 6418POPC   C3B13857  39.099  43.299   7.955
 6418POPC   C4B13858  39.048  43.327   7.655
 6419POPC   NC313859  22.971  37.714   9.455
 6419POPC   PO413860  22.915  37.671   9.155
 6419POPC   GL113861  22.937  37.692   8.855
 6419POPC   GL213862  22.943  37.847   8.855
 6419POPC   C1A13863  22.910  37.703   8.555
 6419POPC   D2A13864  22.977  37.679   8.255
 6419POPC   C3A13865  22.890  37.675   7.955
 6419POPC   C4A13866  22.932  37.648   7.655
 6419POPC   C1B13867  23.034  37.880   8.555
 6419POPC   C2B13868  22.978  37.952   8.255
 6419POPC   C3B13869  23.044  37.904   7.955
 6419POPC   C4B13870  23.049  37.935   7.655
 6420POPC   NC313871  38.436  22.916   9.455
 6420POPC   PO413872  38.470  22.962   9.155
 6420POPC   GL113873  38.456  22.945   8.855
 6420POPC   GL213874  38.516  23.107   8.855
 6420POPC   C1A13875  38.500  22.959   8.555
 6420POPC   D2A13876  38.422  22.914   8.255
 6420POPC   C3A13877  38.467  22.895   7.955
 6420POPC   C4A13878  38.479  22.937   7.655
 6420POPC   C1B13879  38.511  23.212   8.555
 6420POPC   C2B13880  38.478  23.178   8.255
 6420POPC   C3B13881  38.468  23.163   7.955
 6420POPC   C4B13882  38.496  23.197   7.655
 6421POPC   NC313883  24.504  43.109   9.455
 6421POPC   PO413884  24.495  43.143   9.155
 6421POPC   GL113885  24.507  43.087   8.855
 6421POPC   GL213886  24.493  43.222   8.855
 6421POPC   C1A13887  24.494  43.130   8.555
 6421POPC   D2A13888  24.476  43.125   8.255
 6421POPC   C3A13889  24.508  43.095   7.955
 6421POPC   C4A13890  24.535  43.127   7.655
 6421POPC   C1B13891  24.448  43.380   8.555
 6421POPC   C2B13892  24.418  43.341   8.255
 6421POPC   C3B13893  24.454  43.381   7.955
 6421POPC   C4B13894  24.452  43.390   7.655
 6422POPC   NC313895   5.884  23.741   9.455
 6422POPC   PO413896   5.904  23.684   9.155
 6422POPC   GL113897   5.889  23.692   8.855
 6422POPC   GL213898   5.807  23.800   8.855
 6422POPC   C1A13899   5.833  23.724   8.555
 6422POPC   D2A13900   5.918  23.681   8.255
 6422POPC   C3A13901   5.893  23.692   7.955
 6422POPC   C4A13902   5.908  23.682   7.655
 6422POPC   C1B13903   5.756  23.905   8.555
 6422POPC   C2B13904   5.827  23.976   8.255
 6422POPC   C3B13905   5.737  23.947   7.955
 6422POPC   C4B13906   5.749  23.986   7.655
 6423POPC   NC313907  29.891  40.009   9.455
 6423POPC   PO413908  29.919  40.037   9.155
 6423POPC   GL113909  29.934  39.979   8.855
 6423POPC   GL213910  30.036  40.055   8.855
 6423POPC   C1A13911  29.913  40.015   8.555
 6423POPC   D2A13912  29.879  40.026   8.255
 6423POPC   C3A13913  29.903  40.024   7.955
 6423POPC   C4A13914  29.894  39.988   7.655
 6423POPC   C1B13915  30.142  40.224   8.555
 6423POPC   C2B13916  30.150  40.167   8.255
 6423POPC   C3B13917  30.135  40.186   7.955
 6423POPC   C4B13918  30.070  40.207   7.655
 6424POPC   NC313919  36.914  32.273   9.455
 6424POPC   PO413920  36.927  32.246   9.155
 6424POPC   GL113921  36.951  32.263   8.855
 6424POPC   GL213922  36.729  32.289   8.855
 6424POPC   C1A13923  36.869  32.275   8.555
 6424POPC   D2A13924  36.878  32.283   8.255
 6424POPC   C3A13925  36.942  32.289   7.955
 6424POPC   C4A13926  36.874  32.262   7.655
 6424POPC   C1B13927  36.605  32.232   8.555
 6424POPC   C2B13928  36.642  32.230   8.255
 6424POPC   C3B13929  36.628  32.271   7.955
 6424POPC   C4B13930  36.662  32.221   7.655
 6425POPC   NC313931  36.918   1.948   9.455
 6425POPC   PO413932  36.897   1.990   9.155
 6425POPC   GL113933  36.898   1.950   8.855
 6425POPC   GL213934  36.844   1.941   8.855
 6425POPC   C1A13935  36.933   1.999   8.555
 6425POPC   D2A13936  36.907   1.970   8.255
 6425POPC   C3A13937  36.897   2.030   7.955
 6425POPC   C4A13938  36.892   1.992   7.655
 6425POPC   C1B13939  36.700   1.863   8.555
 6425POPC   C2B13940  36.677   1.831   8.255
 6425POPC   C3B13941  36.696   1.883   7.955
 6425POPC   C4B13942  36.673   1.881   7.655
 6426POPC   NC313943  43.935  30.695   9.455
 6426POPC   PO413944  43.914  30.727   9.155
 6426POPC   GL113945  43.932  30.672   8.855
 6426POPC   GL213946  43.925  30.865   8.855
 6426POPC   C1A13947  43.873  30.670   8.555
 6426POPC   D2A13948  43.866  30.677   8.255
 6426POPC   C3A13949  43.893  30.695   7.955
 6426POPC   C4A13950  43.897  30.654   7.655
 6426POPC   C1B13951  43.983  30.915   8.555
 6426POPC   C2B13952  43.966  30.944   8.255
 6426POPC   C3B13953  44.005  30.909   7.955
 6426POPC   C4B13954  43.978  30.950   7.655
 6427POPC   NC313955  19.830  25.266   9.455
 6427POPC   PO413956  19.877  25.293   9.155
 6427POPC   GL113957  19.844  25.236   8.855
 6427POPC   GL213958  19.874  25.154   8.855
 6427POPC   C1A13959  19.873  25.257   8.555
 6427POPC   D2A13960  19.827  25.227   8.255
 6427POPC   C3A13961  19.804  25.289   7.955
 6427POPC   C4A13962  19.814  25.244   7.655
 6427POPC   C1B13963  19.982  25.083   8.555
 6427POPC   C2B13964  20.000  25.044   8.255
 6427POPC   C3B13965  19.999  25.040   7.955
 6427POPC   C4B13966  20.016  25.059   7.655
 6428POPC   NC313967  15.999  38.436   9.455
 6428POPC   PO413968  15.971  38.475   9.155
 6428POPC   GL113969  15.908  38.445   8.855
 6428POPC   GL213970  16.048  38.495   8.855
 6428POPC   C1A13971  15.951  38.450   8.555
 6428POPC   D2A13972  15.926  38.439   8.255
 6428POPC   C3A13973  15.914  38.472   7.955
 6428POPC   C4A13974  15.929  38.446   7.655
 6428POPC   C1B13975  16.173  38.463   8.555
 6428POPC   C2B13976  16.206  38.537   8.255
 6428POPC   C3B13977  16.215  38.510   7.955
 6428POPC   C4B13978  16.231  38.515   7.655
 6429POPC   NC313979  37.688  39.274   9.455
 6429POPC   PO413980  37.661  39.244   9.155
 6429POPC   GL113981  37.711  39.219   8.855
 6429POPC   GL213982  37.801  39.320   8.855
 6429POPC   C1A13983  37.709  39.197   8.555
 6429POPC   D2A13984  37.639  39.277   8.255
 6429POPC   C3A13985  37.656  39.212   7.955
 6429POPC   C4A13986  37.667  39.188   7.655
 6429POPC   C1B13987  37.889  39.322   8.555
 6429POPC   C2B13988  37.856  39.352   8.255
 6429POPC   C3B13989  37.855  39.338   7.955
 6429POPC   C4B13990  37.849  39.362   7.655
 6430POPC   NC313991  43.095   1.241   9.455
 6430POPC   PO413992  43.145   1.239   9.155
 6430POPC   GL113993  43.111   1.238   8.855
 6430POPC   GL213994  43.115   1.080   8.855
 6430POPC   C1A13995  43.090   1.212   8.555
 6430POPC   D2A13996  43.061   1.195   8.255
 6430POPC   C3A13997  43.121   1.184   7.955
 6430POPC   C4A13998  43.158   1.184   7.655
 6430POPC   C1B13999  43.193   1.010   8.555
 6430POPC   C2B14000  43.158   0.934   8.255
 6430POPC   C3B14001  43.225   1.003   7.955
 6430POPC   C4B14002  43.241   0.954   7.655
 6431POPC   NC314003  22.173  19.869   9.455
 6431POPC   PO414004  22.195  19.809   9.155
 6431POPC   GL114005  22.129  19.865   8.855
 6431POPC   GL214006  22.008  19.803   8.855
 6431POPC   C1A14007  22.136  19.817   8.555
 6431POPC   D2A14008  22.174  19.796   8.255
 6431POPC   C3A14009  22.188  19.814   7.955
 6431POPC   C4A14010  22.116  19.883   7.655
 6431POPC   C1B14011  21.898  19.772   8.555
 6431POPC   C2B14012  21.932  19.690   8.255
 6431POPC   C3B14013  21.967  19.692   7.955
 6431POPC   C4B14014  21.916  19.692   7.655
 6432POPC   NC314015  21.368  34.566   9.455
 6432POPC   PO414016  21.378  34.556   9.155
 6432POPC   GL114017  21.353  34.619   8.855
 6432POPC   GL214018  21.481  34.634   8.855
 6432POPC   C1A14019  21.339  34.545   8.555
 6432POPC   D2A14020  21.353  34.570   8.255
 6432POPC   C3A14021  21.342  34.577   7.955
 6432POPC   C4A14022  21.405  34.611   7.655
 6432POPC   C1B14023  21.600  34.612   8.555
 6432POPC   C2B14024  21.596  34.615   8.255
 6432POPC   C3B14025  21.655  34.624   7.955
 6432POPC   C4B14026  21.655  34.611   7.655
 6433POPC   NC314027   5.088  29.884   9.455
 6433POPC   PO414028   5.097  29.878   9.155
 6433POPC   GL114029   5.113  29.916   8.855
 6433POPC   GL214030   5.019  29.856   8.855
 6433POPC   C1A14031   5.126  29.952   8.555
 6433POPC   D2A14032   5.139  29.895   8.255
 6433POPC   C3A14033   5.109  29.875   7.955
 6433POPC   C4A14034   5.060  29.879   7.655
 6433POPC   C1B14035   4.955  29.774   8.555
 6433POPC   C2B14036   4.937  29.751   8.255
 6433POPC   C3B14037   4.954  29.729   7.955
 6433POPC   C4B14038   4.904  29.782   7.655
 6434POPC   NC314039   2.002  36.097   9.455
 6434POPC   PO414040   2.027  36.155   9.155
 6434POPC   GL114041   1.951  36.145   8.855
 6434POPC   GL214042   1.970  35.996   8.855
 6434POPC   C1A14043   2.018  36.170   8.555
 6434POPC   D2A14044   2.012  36.106   8.255
 6434POPC   C3A14045   2.020  36.129   7.955
 6434POPC   C4A14046   2.032  36.086   7.655
 6434POPC   C1B14047   2.035  35.871   8.555
 6434POPC   C2B14048   2.035  35.863   8.255
 6434POPC   C3B14049   2.022  35.834   7.955
 6434POPC   C4B14050   2.058  35.905   7.655
 6435POPC   NC314051   3.585  27.613   9.455
 6435POPC   PO414052   3.563  27.589   9.155
 6435POPC   GL114053   3.533  27.557   8.855
 6435POPC   GL214054   3.450  27.548   8.855
 6435POPC   C1A14055   3.526  27.559   8.555
 6435POPC   D2A14056   3.568  27.622   8.255
 6435POPC   C3A14057   3.584  27.580   7.955
 6435POPC   C4A14058   3.513  27.622   7.655
 6435POPC   C1B14059   3.343  27.397   8.555
 6435POPC   C2B14060   3.339  27.460   8.255
 6435POPC   C3B14061   3.345  27.393   7.955
 6435POPC   C4B14062   3.387  27.378   7.655
 6436POPC   NC314063  14.393  10.548   9.455
 6436POPC   PO414064  14.402  10.526   9.155
 6436POPC   GL114065  14.444  10.538   8.855
 6436POPC   GL214066  14.468  10.443   8.855
 6436POPC   C1A14067  14.365  10.529   8.555
 6436POPC   D2A14068  14.432  10.573   8.255
 6436POPC   C3A14069  14.364  10.527   7.955
 6436POPC   C4A14070  14.453  10.535   7.655
 6436POPC   C1B14071  14.587  10.348   8.555
 6436POPC   C2B14072  14.623  10.359   8.255
 6436POPC   C3B14073  14.575  10.303   7.955
 6436POPC   C4B14074  14.572  10.355   7.655
 6437POPC   NC314075   1.194  22.978   9.455
 6437POPC   PO414076   1.235  22.968   9.155
 6437POPC   GL114077   1.247  22.928   8.855
 6437POPC   GL214078   1.208  23.018   8.855
 6437POPC   C1A14079   1.203  22.986   8.555
 6437POPC   D2A14080   1.182  22.929   8.255
 6437POPC   C3A14081   1.214  22.933   7.955
 6437POPC   C4A14082   1.226  22.924   7.655
 6437POPC   C1B14083   1.295  23.163   8.555
 6437POPC   C2B14084   1.297  23.124   8.255
 6437POPC   C3B14085   1.340  23.192   7.955
 6437POPC   C4B14086   1.300  23.150   7.655
 6438POPC   NC314087  43.157  39.220   9.455
 6438POPC   PO414088  43.083  39.207   9.155
 6438POPC   GL114089  43.090  39.260   8.855
 6438POPC   GL214090  43.199  39.120   8.855
 6438POPC   C1A14091  43.108  39.271   8.555
 6438POPC   D2A14092  43.137  39.263   8.255
 6438POPC   C3A14093  43.152  39.226   7.955
 6438POPC   C4A14094  43.077  39.251   7.655
 6438POPC   C1B14095  43.152  39.043   8.555
 6438POPC   C2B14096  43.161  39.033   8.255
 6438POPC   C3B14097  43.238  39.008   7.955
 6438POPC   C4B14098  43.199  39.043   7.655
 6439POPC   NC314099   9.774  26.087   9.455
 6439POPC   PO414100   9.709  26.005   9.155
 6439POPC   GL114101   9.743  26.034   8.855
 6439POPC   GL214102   9.610  26.091   8.855
 6439POPC   C1A14103   9.761  26.052   8.555
 6439POPC   D2A14104   9.767  26.049   8.255
 6439POPC   C3A14105   9.774  26.062   7.955
 6439POPC   C4A14106   9.726  26.043   7.655
 6439POPC   C1B14107   9.519  26.090   8.555
 6439POPC   C2B14108   9.533  26.167   8.255
 6439POPC   C3B14109   9.554  26.161   7.955
 6439POPC   C4B14110   9.509  26.085   7.655
 6440POPC   NC314111  36.083  20.644   9.455
 6440POPC   PO414112  36.123  20.573   9.155
 6440POPC   GL114113  36.104  20.606   8.855
 6440POPC   GL214114  36.182  20.708   8.855
 6440POPC   C1A14115  36.134  20.640   8.555
 6440POPC   D2A14116  36.164  20.628   8.255
 6440POPC   C3A14117  36.129  20.576   7.955
 6440POPC   C4A14118  36.086  20.562   7.655
 6440POPC   C1B14119  36.243  20.852   8.555
 6440POPC   C2B14120  36.169  20.866   8.255
 6440POPC   C3B14121  36.218  20.836   7.955
 6440POPC   C4B14122  36.189  20.836   7.655
 6441POPC   NC314123   5.820  33.768   9.455
 6441POPC   PO414124   5.851  33.834   9.155
 6441POPC   GL114125   5.827  33.846   8.855
 6441POPC   GL214126   5.837  33.665   8.855
 6441POPC   C1A14127   5.857  33.784   8.555
 6441POPC   D2A14128   5.895  33.761   8.255
 6441POPC   C3A14129   5.874  33.771   7.955
 6441POPC   C4A14130   5.853  33.805   7.655
 6441POPC   C1B14131   5.781  33.530   8.555
 6441POPC   C2B14132   5.769  33.524   8.255
 6441POPC   C3B14133   5.773  33.549   7.955
 6441POPC   C4B14134   5.805  33.543   7.655
 6442POPC   NC314135  43.081  42.323   9.455
 6442POPC   PO414136  43.063  42.349   9.155
 6442POPC   GL114137  43.061  42.359   8.855
 6442POPC   GL214138  43.150  42.423   8.855
 6442POPC   C1A14139  43.127  42.330   8.555
 6442POPC   D2A14140  43.084  42.306   8.255
 6442POPC   C3A14141  43.072  42.381   7.955
 6442POPC   C4A14142  43.145  42.287   7.655
 6442POPC   C1B14143  43.254  42.572   8.555
 6442POPC   C2B14144  43.221  42.565   8.255
 6442POPC   C3B14145  43.207  42.590   7.955
 6442POPC   C4B14146  43.210  42.511   7.655
 6443POPC   NC314147   0.418  43.918   9.455
 6443POPC   PO414148   0.429  43.889   9.155
 6443POPC   GL114149   0.462  43.872   8.855
 6443POPC   GL214150   0.363  44.006   8.855
 6443POPC   C1A14151   0.397  43.882   8.555
 6443POPC   D2A14152   0.400  43.863   8.255
 6443POPC   C3A14153   0.389  43.838   7.955
 6443POPC   C4A14154   0.427  43.922   7.655
 6443POPC   C1B14155   0.252  44.091   8.555
 6443POPC   C2B14156   0.278  44.105   8.255
 6443POPC   C3B14157   0.223  44.098   7.955
 6443POPC   C4B14158   0.292  44.030   7.655
 6444POPC   NC314159  44.622  23.732   9.455
 6444POPC   PO414160  44.686  23.721   9.155
 6444POPC   GL114161  44.632  23.752   8.855
 6444POPC   GL214162  44.609  23.838   8.855
 6444POPC   C1A14163  44.645  23.713   8.555
 6444POPC   D2A14164  44.660  23.755   8.255
 6444POPC   C3A14165  44.627  23.689   7.955
 6444POPC   C4A14166  44.629  23.691   7.655
 6444POPC   C1B14167  44.491  23.827   8.555
 6444POPC   C2B14168  44.451  23.825   8.255
 6444POPC   C3B14169  44.424  23.860   7.955
 6444POPC   C4B14170  44.493  23.848   7.655
 6445POPC   NC314171  17.514  44.661   9.455
 6445POPC   PO414172  17.536  44.641   9.155
 6445POPC   GL114173  17.496  44.643   8.855
 6445POPC   GL214174  17.558  44.833   8.855
 6445POPC   C1A14175  17.477  44.657   8.555
 6445POPC   D2A14176  17.509  44.624   8.255
 6445POPC   C3A14177  17.527  44.639   7.955
 6445POPC   C4A14178  17.507  44.674   7.655
 6445POPC   C1B14179  17.517  44.879   8.555
 6445POPC   C2B14180  17.520  44.944   8.255
 6445POPC   C3B14181  17.506  44.945   7.955
 6445POPC   C4B14182  17.552  44.873   7.655
 6446POPC   NC314183  22.927  39.979   9.455
 6446POPC   PO414184  22.912  40.011   9.155
 6446POPC   GL114185  22.957  40.040   8.855
 6446POPC   GL214186  22.881  40.115   8.855
 6446POPC   C1A14187  22.919  39.997   8.555
 6446POPC   D2A14188  22.909  39.990   8.255
 6446POPC   C3A14189  22.890  40.004   7.955
 6446POPC   C4A14190  22.902  40.022   7.655
 6446POPC   C1B14191  22.800  40.172   8.555
 6446POPC   C2B14192  22.799  40.190   8.255
 6446POPC   C3B14193  22.772  40.252   7.955
 6446POPC   C4B14194  22.750  40.165   7.655
 6447POPC   NC314195  29.949   7.428   9.455
 6447POPC   PO414196  29.907   7.401   9.155
 6447POPC   GL114197  29.967   7.426   8.855
 6447POPC   GL214198  29.894   7.574   8.855
 6447POPC   C1A14199  29.906   7.467   8.555
 6447POPC   D2A14200  29.952   7.407   8.255
 6447POPC   C3A14201  29.917   7.468   7.955
 6447POPC   C4A14202  29.877   7.418   7.655
 6447POPC   C1B14203  29.885   7.720   8.555
 6447POPC   C2B14204  29.950   7.721   8.255
 6447POPC   C3B14205  29.927   7.656   7.955
 6447POPC   C4B14206  29.967   7.695   7.655
 6448POPC   NC314207  14.399  43.132   9.455
 6448POPC   PO414208  14.368  43.080   9.155
 6448POPC   GL114209  14.442  43.071   8.855
 6448POPC   GL214210  14.344  43.253   8.855
 6448POPC   C1A14211  14.426  43.073   8.555
 6448POPC   D2A14212  14.371  43.134   8.255
 6448POPC   C3A14213  14.413  43.068   7.955
 6448POPC   C4A14214  14.437  43.123   7.655
 6448POPC   C1B14215  14.312  43.367   8.555
 6448POPC   C2B14216  14.348  43.361   8.255
 6448POPC   C3B14217  14.331  43.330   7.955
 6448POPC   C4B14218  14.378  43.341   7.655
 6449POPC   NC314219  26.850  12.036   9.455
 6449POPC   PO414220  26.827  12.070   9.155
 6449POPC   GL114221  26.816  12.112   8.855
 6449POPC   GL214222  26.792  11.997   8.855
 6449POPC   C1A14223  26.855  12.039   8.555
 6449POPC   D2A14224  26.852  12.094   8.255
 6449POPC   C3A14225  26.773  12.040   7.955
 6449POPC   C4A14226  26.801  12.070   7.655
 6449POPC   C1B14227  26.681  11.843   8.555
 6449POPC   C2B14228  26.658  11.908   8.255
 6449POPC   C3B14229  26.686  11.918   7.955
 6449POPC   C4B14230  26.702  11.903   7.655
 6450POPC   NC314231  23.751  21.392   9.455
 6450POPC   PO414232  23.699  21.397   9.155
 6450POPC   GL114233  23.759  21.343   8.855
 6450POPC   GL214234  23.818  21.366   8.855
 6450POPC   C1A14235  23.722  21.419   8.555
 6450POPC   D2A14236  23.761  21.338   8.255
 6450POPC   C3A14237  23.718  21.400   7.955
 6450POPC   C4A14238  23.761  21.389   7.655
 6450POPC   C1B14239  23.949  21.286   8.555
 6450POPC   C2B14240  23.911  21.266   8.255
 6450POPC   C3B14241  23.946  21.224   7.955
 6450POPC   C4B14242  23.902  21.259   7.655
 6451POPC   NC314243  33.002  19.882   9.455
 6451POPC   PO414244  33.056  19.867   9.155
 6451POPC   GL114245  33.046  19.810   8.855
 6451POPC   GL214246  32.925  19.763   8.855
 6451POPC   C1A14247  32.989  19.866   8.555
 6451POPC   D2A14248  32.986  19.875   8.255
 6451POPC   C3A14249  33.024  19.802   7.955
 6451POPC   C4A14250  33.068  19.807   7.655
 6451POPC   C1B14251  32.812  19.620   8.555
 6451POPC   C2B14252  32.862  19.691   8.255
 6451POPC   C3B14253  32.839  19.642   7.955
 6451POPC   C4B14254  32.815  19.665   7.655
 6452POPC   NC314255  37.708  12.836   9.455
 6452POPC   PO414256  37.728  12.834   9.155
 6452POPC   GL114257  37.633  12.812   8.855
 6452POPC   GL214258  37.669  12.721   8.855
 6452POPC   C1A14259  37.690  12.834   8.555
 6452POPC   D2A14260  37.648  12.813   8.255
 6452POPC   C3A14261  37.699  12.881   7.955
 6452POPC   C4A14262  37.633  12.805   7.655
 6452POPC   C1B14263  37.640  12.554   8.555
 6452POPC   C2B14264  37.630  12.578   8.255
 6452POPC   C3B14265  37.634  12.574   7.955
 6452POPC   C4B14266  37.708  12.585   7.655
 6453POPC   NC314267  39.229  23.748   9.455
 6453POPC   PO414268  39.205  23.748   9.155
 6453POPC   GL114269  39.185  23.665   8.855
 6453POPC   GL214270  39.254  23.634   8.855
 6453POPC   C1A14271  39.243  23.682   8.555
 6453POPC   D2A14272  39.209  23.712   8.255
 6453POPC   C3A14273  39.240  23.731   7.955
 6453POPC   C4A14274  39.238  23.724   7.655
 6453POPC   C1B14275  39.153  23.442   8.555
 6453POPC   C2B14276  39.180  23.472   8.255
 6453POPC   C3B14277  39.153  23.422   7.955
 6453POPC   C4B14278  39.162  23.519   7.655
 6454POPC   NC314279  20.573  42.333   9.455
 6454POPC   PO414280  20.645  42.370   9.155
 6454POPC   GL114281  20.596  42.376   8.855
 6454POPC   GL214282  20.729  42.249   8.855
 6454POPC   C1A14283  20.629  42.292   8.555
 6454POPC   D2A14284  20.568  42.330   8.255
 6454POPC   C3A14285  20.647  42.341   7.955
 6454POPC   C4A14286  20.623  42.379   7.655
 6454POPC   C1B14287  20.777  42.127   8.555
 6454POPC   C2B14288  20.768  42.175   8.255
 6454POPC   C3B14289  20.785  42.138   7.955
 6454POPC   C4B14290  20.830  42.126   7.655
 6455POPC   NC314291  18.332  36.878   9.455
 6455POPC   PO414292  18.260  36.920   9.155
 6455POPC   GL114293  18.259  36.946   8.855
 6455POPC   GL214294  18.363  37.012   8.855
 6455POPC   C1A14295  18.251  36.901   8.555
 6455POPC   D2A14296  18.250  36.857   8.255
 6455POPC   C3A14297  18.235  36.929   7.955
 6455POPC   C4A14298  18.245  36.886   7.655
 6455POPC   C1B14299  18.467  37.026   8.555
 6455POPC   C2B14300  18.457  37.096   8.255
 6455POPC   C3B14301  18.454  37.071   7.955
 6455POPC   C4B14302  18.518  37.047   7.655
 6456POPC   NC314303  17.461   8.147   9.455
 6456POPC   PO414304  17.517   8.233   9.155
 6456POPC   GL114305  17.501   8.180   8.855
 6456POPC   GL214306  17.654   8.243   8.855
 6456POPC   C1A14307  17.501   8.157   8.555
 6456POPC   D2A14308  17.483   8.190   8.255
 6456POPC   C3A14309  17.474   8.178   7.955
 6456POPC   C4A14310  17.553   8.182   7.655
 6456POPC   C1B14311  17.777   8.213   8.555
 6456POPC   C2B14312  17.735   8.177   8.255
 6456POPC   C3B14313  17.783   8.238   7.955
 6456POPC   C4B14314  17.781   8.234   7.655
 6457POPC   NC314315   3.572  40.825   9.455
 6457POPC   PO414316   3.531  40.774   9.155
 6457POPC   GL114317   3.568  40.761   8.855
 6457POPC   GL214318   3.602  40.899   8.855
 6457POPC   C1A14319   3.497  40.752   8.555
 6457POPC   D2A14320   3.496  40.769   8.255
 6457POPC   C3A14321   3.512  40.764   7.955
 6457POPC   C4A14322   3.588  40.770   7.655
 6457POPC   C1B14323   3.695  40.883   8.555
 6457POPC   C2B14324   3.740  40.899   8.255
 6457POPC   C3B14325   3.733  40.922   7.955
 6457POPC   C4B14326   3.731  40.968   7.655
 6458POPC   NC314327  36.907  15.967   9.455
 6458POPC   PO414328  36.854  15.996   9.155
 6458POPC   GL114329  36.950  15.977   8.855
 6458POPC   GL214330  37.033  16.069   8.855
 6458POPC   C1A14331  36.927  15.980   8.555
 6458POPC   D2A14332  36.854  15.909   8.255
 6458POPC   C3A14333  36.946  15.948   7.955
 6458POPC   C4A14334  36.944  15.929   7.655
 6458POPC   C1B14335  37.087  16.090   8.555
 6458POPC   C2B14336  37.104  16.151   8.255
 6458POPC   C3B14337  37.130  16.091   7.955
 6458POPC   C4B14338  37.122  16.104   7.655
 6459POPC   NC314339  22.969  36.089   9.455
 6459POPC   PO414340  22.950  36.133   9.155
 6459POPC   GL114341  22.981  36.133   8.855
 6459POPC   GL214342  22.899  35.997   8.855
 6459POPC   C1A14343  22.948  36.159   8.555
 6459POPC   D2A14344  22.933  36.128   8.255
 6459POPC   C3A14345  22.932  36.090   7.955
 6459POPC   C4A14346  22.920  36.120   7.655
 6459POPC   C1B14347  22.874  35.856   8.555
 6459POPC   C2B14348  22.818  35.866   8.255
 6459POPC   C3B14349  22.834  35.934   7.955
 6459POPC   C4B14350  22.812  35.937   7.655
 6460POPC   NC314351   7.457  14.417   9.455
 6460POPC   PO414352   7.392  14.435   9.155
 6460POPC   GL114353   7.470  14.388   8.855
 6460POPC   GL214354   7.292  14.311   8.855
 6460POPC   C1A14355   7.400  14.445   8.555
 6460POPC   D2A14356   7.433  14.375   8.255
 6460POPC   C3A14357   7.372  14.380   7.955
 6460POPC   C4A14358   7.371  14.434   7.655
 6460POPC   C1B14359   7.251  14.258   8.555
 6460POPC   C2B14360   7.301  14.216   8.255
 6460POPC   C3B14361   7.261  14.239   7.955
 6460POPC   C4B14362   7.256  14.202   7.655
 6461POPC   NC314363  15.160  35.396   9.455
 6461POPC   PO414364  15.220  35.337   9.155
 6461POPC   GL114365  15.147  35.312   8.855
 6461POPC   GL214366  15.312  35.318   8.855
 6461POPC   C1A14367  15.159  35.313   8.555
 6461POPC   D2A14368  15.150  35.370   8.255
 6461POPC   C3A14369  15.199  35.331   7.955
 6461POPC   C4A14370  15.216  35.320   7.655
 6461POPC   C1B14371  15.403  35.194   8.555
 6461POPC   C2B14372  15.374  35.210   8.255
 6461POPC   C3B14373  15.421  35.214   7.955
 6461POPC   C4B14374  15.388  35.239   7.655
 6462POPC   NC314375  19.799  13.614   9.455
 6462POPC   PO414376  19.792  13.611   9.155
 6462POPC   GL114377  19.882  13.635   8.855
 6462POPC   GL214378  19.915  13.591   8.855
 6462POPC   C1A14379  19.811  13.642   8.555
 6462POPC   D2A14380  19.874  13.676   8.255
 6462POPC   C3A14381  19.880  13.621   7.955
 6462POPC   C4A14382  19.847  13.580   7.655
 6462POPC   C1B14383  20.082  13.641   8.555
 6462POPC   C2B14384  20.057  13.597   8.255
 6462POPC   C3B14385  20.038  13.579   7.955
 6462POPC   C4B14386  20.108  13.649   7.655
 6463POPC   NC314387   0.468  44.644   9.455
 6463POPC   PO414388   0.446  44.676   9.155
 6463POPC   GL114389   0.460  44.638   8.855
 6463POPC   GL214390   0.371  44.796   8.855
 6463POPC   C1A14391   0.417  44.658   8.555
 6463POPC   D2A14392   0.439  44.613   8.255
 6463POPC   C3A14393   0.402  44.647   7.955
 6463POPC   C4A14394   0.478  44.706   7.655
 6463POPC   C1B14395   0.340  44.936   8.555
 6463POPC   C2B14396   0.354  44.930   8.255
 6463POPC   C3B14397   0.400  44.908   7.955
 6463POPC   C4B14398   0.372  44.936   7.655
 6464POPC   NC314399  24.448  10.534   9.455
 6464POPC   PO414400  24.442  10.557   9.155
 6464POPC   GL114401  24.464  10.533   8.855
 6464POPC   GL214402  24.448  10.612   8.855
 6464POPC   C1A14403  24.462  10.524   8.555
 6464POPC   D2A14404  24.476  10.560   8.255
 6464POPC   C3A14405  24.526  10.501   7.955
 6464POPC   C4A14406  24.475  10.558   7.655
 6464POPC   C1B14407  24.464  10.786   8.555
 6464POPC   C2B14408  24.456  10.762   8.255
 6464POPC   C3B14409  24.447  10.722   7.955
 6464POPC   C4B14410  24.394  10.776   7.655
 6465POPC   NC314411  26.046  13.664   9.455
 6465POPC   PO414412  26.087  13.629   9.155
 6465POPC   GL114413  26.077  13.651   8.855
 6465POPC   GL214414  26.174  13.647   8.855
 6465POPC   C1A14415  26.060  13.606   8.555
 6465POPC   D2A14416  25.999  13.588   8.255
 6465POPC   C3A14417  25.998  13.658   7.955
 6465POPC   C4A14418  25.995  13.615   7.655
 6465POPC   C1B14419  26.284  13.658   8.555
 6465POPC   C2B14420  26.253  13.646   8.255
 6465POPC   C3B14421  26.265  13.672   7.955
 6465POPC   C4B14422  26.320  13.585   7.655
 6466POPC   NC314423  11.324  29.106   9.455
 6466POPC   PO414424  11.309  29.146   9.155
 6466POPC   GL114425  11.284  29.184   8.855
 6466POPC   GL214426  11.393  29.181   8.855
 6466POPC   C1A14427  11.308  29.183   8.555
 6466POPC   D2A14428  11.336  29.123   8.255
 6466POPC   C3A14429  11.344  29.156   7.955
 6466POPC   C4A14430  11.337  29.164   7.655
 6466POPC   C1B14431  11.503  29.189   8.555
 6466POPC   C2B14432  11.531  29.167   8.255
 6466POPC   C3B14433  11.514  29.228   7.955
 6466POPC   C4B14434  11.515  29.197   7.655
 6467POPC   NC314435  18.243  12.108   9.455
 6467POPC   PO414436  18.333  12.116   9.155
 6467POPC   GL114437  18.312  12.101   8.855
 6467POPC   GL214438  18.368  12.009   8.855
 6467POPC   C1A14439  18.316  12.118   8.555
 6467POPC   D2A14440  18.247  12.085   8.255
 6467POPC   C3A14441  18.254  12.115   7.955
 6467POPC   C4A14442  18.274  12.043   7.655
 6467POPC   C1B14443  18.478  12.039   8.555
 6467POPC   C2B14444  18.551  12.018   8.255
 6467POPC   C3B14445  18.554  11.972   7.955
 6467POPC   C4B14446  18.562  11.964   7.655
 6468POPC   NC314447   8.171  22.197   9.455
 6468POPC   PO414448   8.214  22.210   9.155
 6468POPC   GL114449   8.183  22.161   8.855
 6468POPC   GL214450   8.236  22.302   8.855
 6468POPC   C1A14451   8.149  22.131   8.555
 6468POPC   D2A14452   8.195  22.187   8.255
 6468POPC   C3A14453   8.240  22.156   7.955
 6468POPC   C4A14454   8.210  22.138   7.655
 6468POPC   C1B14455   8.176  22.431   8.555
 6468POPC   C2B14456   8.231  22.416   8.255
 6468POPC   C3B14457   8.261  22.454   7.955
 6468POPC   C4B14458   8.185  22.389   7.655
 6469POPC   NC314459  24.482  38.467   9.455
 6469POPC   PO414460  24.490  38.491   9.155
 6469POPC   GL114461  24.446  38.464   8.855
 6469POPC   GL214462  24.531  38.354   8.855
 6469POPC   C1A14463  24.490  38.430   8.555
 6469POPC   D2A14464  24.518  38.418   8.255
 6469POPC   C3A14465  24.528  38.454   7.955
 6469POPC   C4A14466  24.504  38.485   7.655
 6469POPC   C1B14467  24.643  38.235   8.555
 6469POPC   C2B14468  24.617  38.274   8.255
 6469POPC   C3B14469  24.650  38.248   7.955
 6469POPC   C4B14470  24.673  38.238   7.655
 6470POPC   NC314471  38.501   3.553   9.455
 6470POPC   PO414472  38.496   3.496   9.155
 6470POPC   GL114473  38.429   3.550   8.855
 6470POPC   GL214474  38.583   3.483   8.855
 6470POPC   C1A14475  38.448   3.548   8.555
 6470POPC   D2A14476  38.433   3.533   8.255
 6470POPC   C3A14477  38.435   3.589   7.955
 6470POPC   C4A14478  38.408   3.518   7.655
 6470POPC   C1B14479  38.651   3.373   8.555
 6470POPC   C2B14480  38.632   3.363   8.255
 6470POPC   C3B14481  38.638   3.367   7.955
 6470POPC   C4B14482  38.615   3.393   7.655
 6471POPC   NC314483  21.405  43.855   9.455
 6471POPC   PO414484  21.380  43.902   9.155
 6471POPC   GL114485  21.416  43.862   8.855
 6471POPC   GL214486  21.534  43.916   8.855
 6471POPC   C1A14487  21.430  43.908   8.555
 6471POPC   D2A14488  21.396  43.870   8.255
 6471POPC   C3A14489  21.392  43.857   7.955
 6471POPC   C4A14490  21.417  43.871   7.655
 6471POPC   C1B14491  21.625  44.018   8.555
 6471POPC   C2B14492  21.584  43.950   8.255
 6471POPC   C3B14493  21.596  43.948   7.955
 6471POPC   C4B14494  21.660  44.025   7.655
 6472POPC   NC314495   5.055  15.165   9.455
 6472POPC   PO414496   5.080  15.222   9.155
 6472POPC   GL114497   5.093  15.132   8.855
 6472POPC   GL214498   4.993  15.095   8.855
 6472POPC   C1A14499   5.061  15.165   8.555
 6472POPC   D2A14500   5.054  15.135   8.255
 6472POPC   C3A14501   5.093  15.148   7.955
 6472POPC   C4A14502   5.090  15.135   7.655
 6472POPC   C1B14503   4.944  14.926   8.555
 6472POPC   C2B14504   4.987  14.989   8.255
 6472POPC   C3B14505   4.963  14.995   7.955
 6472POPC   C4B14506   4.989  14.943   7.655
 6473POPC   NC314507  33.833  29.879   9.455
 6473POPC   PO414508  33.846  29.928   9.155
 6473POPC   GL114509  33.848  29.881   8.855
 6473POPC   GL214510  33.920  29.868   8.855
 6473POPC   C1A14511  33.838  29.931   8.555
 6473POPC   D2A14512  33.804  29.961   8.255
 6473POPC   C3A14513  33.787  29.939   7.955
 6473POPC   C4A14514  33.840  29.900   7.655
 6473POPC   C1B14515  34.058  29.869   8.555
 6473POPC   C2B14516  34.029  29.822   8.255
 6473POPC   C3B14517  34.036  29.857   7.955
 6473POPC   C4B14518  34.019  29.893   7.655
 6474POPC   NC314519  35.391   0.405   9.455
 6474POPC   PO414520  35.374   0.392   9.155
 6474POPC   GL114521  35.350   0.390   8.855
 6474POPC   GL214522  35.305   0.537   8.855
 6474POPC   C1A14523  35.353   0.401   8.555
 6474POPC   D2A14524  35.318   0.450   8.255
 6474POPC   C3A14525  35.338   0.388   7.955
 6474POPC   C4A14526  35.353   0.466   7.655
 6474POPC   C1B14527  35.253   0.697   8.555
 6474POPC   C2B14528  35.339   0.662   8.255
 6474POPC   C3B14529  35.345   0.667   7.955
 6474POPC   C4B14530  35.335   0.670   7.655
 6475POPC   NC314531  26.775  38.443   9.455
 6475POPC   PO414532  26.859  38.494   9.155
 6475POPC   GL114533  26.860  38.487   8.855
 6475POPC   GL214534  26.960  38.456   8.855
 6475POPC   C1A14535  26.833  38.442   8.555
 6475POPC   D2A14536  26.778  38.447   8.255
 6475POPC   C3A14537  26.812  38.502   7.955
 6475POPC   C4A14538  26.785  38.434   7.655
 6475POPC   C1B14539  27.011  38.419   8.555
 6475POPC   C2B14540  27.038  38.388   8.255
 6475POPC   C3B14541  27.017  38.348   7.955
 6475POPC   C4B14542  27.026  38.410   7.655
 6476POPC   NC314543  44.623  39.237   9.455
 6476POPC   PO414544  44.644  39.208   9.155
 6476POPC   GL114545  44.676  39.243   8.855
 6476POPC   GL214546  44.659  39.152   8.855
 6476POPC   C1A14547  44.676  39.183   8.555
 6476POPC   D2A14548  44.637  39.199   8.255
 6476POPC   C3A14549  44.697  39.280   7.955
 6476POPC   C4A14550  44.670  39.210   7.655
 6476POPC   C1B14551  44.697  38.956   8.555
 6476POPC   C2B14552  44.712  39.016   8.255
 6476POPC   C3B14553  44.713  38.983   7.955
 6476POPC   C4B14554  44.721  38.980   7.655
 6477POPC   NC314555  14.403  35.376   9.455
 6477POPC   PO414556  14.443  35.353   9.155
 6477POPC   GL114557  14.384  35.321   8.855
 6477POPC   GL214558  14.439  35.510   8.855
 6477POPC   C1A14559  14.449  35.350   8.555
 6477POPC   D2A14560  14.410  35.304   8.255
 6477POPC   C3A14561  14.400  35.347   7.955
 6477POPC   C4A14562  14.393  35.380   7.655
 6477POPC   C1B14563  14.455  35.614   8.555
 6477POPC   C2B14564  14.506  35.640   8.255
 6477POPC   C3B14565  14.476  35.611   7.955
 6477POPC   C4B14566  14.496  35.583   7.655
 6478POPC   NC314567   2.777  24.540   9.455
 6478POPC   PO414568   2.736  24.531   9.155
 6478POPC   GL114569   2.792  24.456   8.855
 6478POPC   GL214570   2.817  24.318   8.855
 6478POPC   C1A14571   2.738  24.534   8.555
 6478POPC   D2A14572   2.790  24.465   8.255
 6478POPC   C3A14573   2.754  24.526   7.955
 6478POPC   C4A14574   2.743  24.534   7.655
 6478POPC   C1B14575   2.782  24.211   8.555
 6478POPC   C2B14576   2.755  24.204   8.255
 6478POPC   C3B14577   2.736  24.216   7.955
 6478POPC   C4B14578   2.824  24.278   7.655
 6479POPC   NC314579   4.276   4.363   9.455
 6479POPC   PO414580   4.284   4.276   9.155
 6479POPC   GL114581   4.341   4.303   8.855
 6479POPC   GL214582   4.423   4.251   8.855
 6479POPC   C1A14583   4.357   4.270   8.555
 6479POPC   D2A14584   4.322   4.310   8.255
 6479POPC   C3A14585   4.334   4.284   7.955
 6479POPC   C4A14586   4.347   4.332   7.655
 6479POPC   C1B14587   4.439   4.110   8.555
 6479POPC   C2B14588   4.500   4.151   8.255
 6479POPC   C3B14589   4.434   4.133   7.955
 6479POPC   C4B14590   4.491   4.104   7.655
 6480POPC   NC314591  10.533  34.611   9.455
 6480POPC   PO414592  10.530  34.544   9.155
 6480POPC   GL114593  10.530  34.622   8.855
 6480POPC   GL214594  10.592  34.450   8.855
 6480POPC   C1A14595  10.484  34.607   8.555
 6480POPC   D2A14596  10.568  34.556   8.255
 6480POPC   C3A14597  10.550  34.539   7.955
 6480POPC   C4A14598  10.518  34.552   7.655
 6480POPC   C1B14599  10.553  34.324   8.555
 6480POPC   C2B14600  10.599  34.328   8.255
 6480POPC   C3B14601  10.561  34.380   7.955
 6480POPC   C4B14602  10.572  34.368   7.655
 6481POPC   NC314603   8.246  22.894   9.455
 6481POPC   PO414604   8.237  22.949   9.155
 6481POPC   GL114605   8.170  22.929   8.855
 6481POPC   GL214606   8.332  22.829   8.855
 6481POPC   C1A14607   8.187  22.974   8.555
 6481POPC   D2A14608   8.166  22.954   8.255
 6481POPC   C3A14609   8.149  22.982   7.955
 6481POPC   C4A14610   8.150  22.908   7.655
 6481POPC   C1B14611   8.374  22.788   8.555
 6481POPC   C2B14612   8.419  22.755   8.255
 6481POPC   C3B14613   8.433  22.829   7.955
 6481POPC   C4B14614   8.447  22.794   7.655
 6482POPC   NC314615   8.176  21.365   9.455
 6482POPC   PO414616   8.171  21.368   9.155
 6482POPC   GL114617   8.214  21.341   8.855
 6482POPC   GL214618   8.263  21.450   8.855
 6482POPC   C1A14619   8.153  21.380   8.555
 6482POPC   D2A14620   8.207  21.401   8.255
 6482POPC   C3A14621   8.244  21.433   7.955
 6482POPC   C4A14622   8.207  21.341   7.655
 6482POPC   C1B14623   8.438  21.498   8.555
 6482POPC   C2B14624   8.404  21.530   8.255
 6482POPC   C3B14625   8.419  21.558   7.955
 6482POPC   C4B14626   8.399  21.508   7.655
 6483POPC   NC314627  40.026  21.382   9.455
 6483POPC   PO414628  40.012  21.401   9.155
 6483POPC   GL114629  39.981  21.344   8.855
 6483POPC   GL214630  40.023  21.244   8.855
 6483POPC   C1A14631  40.002  21.386   8.555
 6483POPC   D2A14632  39.959  21.408   8.255
 6483POPC   C3A14633  39.984  21.379   7.955
 6483POPC   C4A14634  39.974  21.360   7.655
 6483POPC   C1B14635  40.116  21.116   8.555
 6483POPC   C2B14636  40.119  21.121   8.255
 6483POPC   C3B14637  40.156  21.194   7.955
 6483POPC   C4B14638  40.083  21.147   7.655
 6484POPC   NC314639  15.165  17.547   9.455
 6484POPC   PO414640  15.186  17.479   9.155
 6484POPC   GL114641  15.164  17.549   8.855
 6484POPC   GL214642  15.276  17.511   8.855
 6484POPC   C1A14643  15.170  17.503   8.555
 6484POPC   D2A14644  15.218  17.535   8.255
 6484POPC   C3A14645  15.196  17.483   7.955
 6484POPC   C4A14646  15.150  17.525   7.655
 6484POPC   C1B14647  15.428  17.526   8.555
 6484POPC   C2B14648  15.431  17.550   8.255
 6484POPC   C3B14649  15.441  17.528   7.955
 6484POPC   C4B14650  15.445  17.540   7.655
 6485POPC   NC314651  17.550  40.056   9.455
 6485POPC   PO414652  17.538  39.972   9.155
 6485POPC   GL114653  17.521  39.974   8.855
 6485POPC   GL214654  17.426  40.027   8.855
 6485POPC   C1A14655  17.487  39.989   8.555
 6485POPC   D2A14656  17.458  40.053   8.255
 6485POPC   C3A14657  17.463  40.025   7.955
 6485POPC   C4A14658  17.541  40.056   7.655
 6485POPC   C1B14659  17.283  40.154   8.555
 6485POPC   C2B14660  17.268  40.162   8.255
 6485POPC   C3B14661  17.317  40.098   7.955
 6485POPC   C4B14662  17.308  40.106   7.655
 6486POPC   NC314663  15.166   8.179   9.455
 6486POPC   PO414664  15.166   8.235   9.155
 6486POPC   GL114665  15.205   8.171   8.855
 6486POPC   GL214666  15.321   8.284   8.855
 6486POPC   C1A14667  15.202   8.214   8.555
 6486POPC   D2A14668  15.165   8.199   8.255
 6486POPC   C3A14669  15.158   8.211   7.955
 6486POPC   C4A14670  15.224   8.217   7.655
 6486POPC   C1B14671  15.369   8.284   8.555
 6486POPC   C2B14672  15.453   8.284   8.255
 6486POPC   C3B14673  15.447   8.301   7.955
 6486POPC   C4B14674  15.360   8.259   7.655
 6487POPC   NC314675  19.055  15.980   9.455
 6487POPC   PO414676  19.094  15.960   9.155
 6487POPC   GL114677  19.067  16.001   8.855
 6487POPC   GL214678  19.086  16.049   8.855
 6487POPC   C1A14679  19.046  15.935   8.555
 6487POPC   D2A14680  19.073  15.985   8.255
 6487POPC   C3A14681  19.031  15.966   7.955
 6487POPC   C4A14682  19.025  15.985   7.655
 6487POPC   C1B14683  19.173  16.239   8.555
 6487POPC   C2B14684  19.170  16.163   8.255
 6487POPC   C3B14685  19.176  16.241   7.955
 6487POPC   C4B14686  19.110  16.224   7.655
 6488POPC   NC314687  38.441   9.783   9.455
 6488POPC   PO414688  38.417   9.710   9.155
 6488POPC   GL114689  38.485   9.699   8.855
 6488POPC   GL214690  38.542   9.784   8.855
 6488POPC   C1A14691  38.407   9.776   8.555
 6488POPC   D2A14692  38.443   9.765   8.255
 6488POPC   C3A14693  38.459   9.750   7.955
 6488POPC   C4A14694  38.435   9.704   7.655
 6488POPC   C1B14695  38.682   9.898   8.555
 6488POPC   C2B14696  38.667   9.912   8.255
 6488POPC   C3B14697  38.635   9.893   7.955
 6488POPC   C4B14698  38.637   9.918   7.655
 6489POPC   NC314699  32.246  26.851   9.455
 6489POPC   PO414700  32.238  26.818   9.155
 6489POPC   GL114701  32.290  26.863   8.855
 6489POPC   GL214702  32.314  26.745   8.855
 6489POPC   C1A14703  32.290  26.851   8.555
 6489POPC   D2A14704  32.259  26.818   8.255
 6489POPC   C3A14705  32.218  26.769   7.955
 6489POPC   C4A14706  32.220  26.782   7.655
 6489POPC   C1B14707  32.472  26.692   8.555
 6489POPC   C2B14708  32.438  26.742   8.255
 6489POPC   C3B14709  32.513  26.723   7.955
 6489POPC   C4B14710  32.485  26.744   7.655
 6490POPC   NC314711  18.262   4.361   9.455
 6490POPC   PO414712  18.320   4.306   9.155
 6490POPC   GL114713  18.252   4.311   8.855
 6490POPC   GL214714  18.236   4.244   8.855
 6490POPC   C1A14715  18.322   4.295   8.555
 6490POPC   D2A14716  18.321   4.274   8.255
 6490POPC   C3A14717  18.304   4.305   7.955
 6490POPC   C4A14718  18.244   4.324   7.655
 6490POPC   C1B14719  18.152   4.089   8.555
 6490POPC   C2B14720  18.116   4.081   8.255
 6490POPC   C3B14721  18.131   4.117   7.955
 6490POPC   C4B14722  18.135   4.128   7.655
 6491POPC   NC314723  10.518  42.327   9.455
 6491POPC   PO414724  10.486  42.344   9.155
 6491POPC   GL114725  10.565  42.310   8.855
 6491POPC   GL214726  10.495  42.211   8.855
 6491POPC   C1A14727  10.482  42.311   8.555
 6491POPC   D2A14728  10.477  42.293   8.255
 6491POPC   C3A14729  10.551  42.360   7.955
 6491POPC   C4A14730  10.510  42.381   7.655
 6491POPC   C1B14731  10.547  42.074   8.555
 6491POPC   C2B14732  10.554  42.091   8.255
 6491POPC   C3B14733  10.491  42.086   7.955
 6491POPC   C4B14734  10.541  42.061   7.655
 6492POPC   NC314735  44.686  17.499   9.455
 6492POPC   PO414736  44.614  17.530   9.155
 6492POPC   GL114737  44.656  17.542   8.855
 6492POPC   GL214738  44.728  17.621   8.855
 6492POPC   C1A14739  44.699  17.505   8.555
 6492POPC   D2A14740  44.614  17.494   8.255
 6492POPC   C3A14741  44.614  17.504   7.955
 6492POPC   C4A14742  44.636  17.509   7.655
 6492POPC   C1B14743  44.868  17.654   8.555
 6492POPC   C2B14744  44.844  17.682   8.255
 6492POPC   C3B14745  44.786  17.678   7.955
 6492POPC   C4B14746  44.830  17.741   7.655
 6493POPC   NC314747  42.302  12.090   9.455
 6493POPC   PO414748  42.314  12.029   9.155
 6493POPC   GL114749  42.287  12.106   8.855
 6493POPC   GL214750  42.190  12.087   8.855
 6493POPC   C1A14751  42.313  12.038   8.555
 6493POPC   D2A14752  42.365  12.051   8.255
 6493POPC   C3A14753  42.378  12.037   7.955
 6493POPC   C4A14754  42.369  12.114   7.655
 6493POPC   C1B14755  42.092  12.083   8.555
 6493POPC   C2B14756  42.047  12.133   8.255
 6493POPC   C3B14757  42.098  12.145   7.955
 6493POPC   C4B14758  42.070  12.096   7.655
 6494POPC   NC314759   1.957  27.602   9.455
 6494POPC   PO414760   1.952  27.577   9.155
 6494POPC   GL114761   2.012  27.609   8.855
 6494POPC   GL214762   2.111  27.634   8.855
 6494POPC   C1A14763   1.975  27.636   8.555
 6494POPC   D2A14764   1.974  27.641   8.255
 6494POPC   C3A14765   2.007  27.563   7.955
 6494POPC   C4A14766   1.953  27.632   7.655
 6494POPC   C1B14767   2.227  27.719   8.555
 6494POPC   C2B14768   2.182  27.729   8.255
 6494POPC   C3B14769   2.254  27.719   7.955
 6494POPC   C4B14770   2.174  27.677   7.655
 6495POPC   NC314771  31.437  22.202   9.455
 6495POPC   PO414772  31.494  22.114   9.155
 6495POPC   GL114773  31.476  22.209   8.855
 6495POPC   GL214774  31.328  22.093   8.855
 6495POPC   C1A14775  31.464  22.177   8.555
 6495POPC   D2A14776  31.495  22.180   8.255
 6495POPC   C3A14777  31.483  22.181   7.955
 6495POPC   C4A14778  31.437  22.188   7.655
 6495POPC   C1B14779  31.276  22.036   8.555
 6495POPC   C2B14780  31.240  22.053   8.255
 6495POPC   C3B14781  31.214  22.040   7.955
 6495POPC   C4B14782  31.274  22.009   7.655
 6496POPC   NC314783  43.073  12.056   9.455
 6496POPC   PO414784  43.083  12.073   9.155
 6496POPC   GL114785  43.094  12.073   8.855
 6496POPC   GL214786  43.039  12.184   8.855
 6496POPC   C1A14787  43.065  12.043   8.555
 6496POPC   D2A14788  43.158  12.058   8.255
 6496POPC   C3A14789  43.063  12.111   7.955
 6496POPC   C4A14790  43.116  12.062   7.655
 6496POPC   C1B14791  42.988  12.343   8.555
 6496POPC   C2B14792  42.992  12.287   8.255
 6496POPC   C3B14793  42.966  12.326   7.955
 6496POPC   C4B14794  43.035  12.330   7.655
 6497POPC   NC314795  23.714  43.074   9.455
 6497POPC   PO414796  23.723  43.070   9.155
 6497POPC   GL114797  23.689  43.127   8.855
 6497POPC   GL214798  23.709  42.989   8.855
 6497POPC   C1A14799  23.716  43.113   8.555
 6497POPC   D2A14800  23.699  43.150   8.255
 6497POPC   C3A14801  23.763  43.131   7.955
 6497POPC   C4A14802  23.728  43.131   7.655
 6497POPC   C1B14803  23.670  42.836   8.555
 6497POPC   C2B14804  23.628  42.906   8.255
 6497POPC   C3B14805  23.628  42.877   7.955
 6497POPC   C4B14806  23.636  42.891   7.655
 6498POPC   NC314807  18.251  37.648   9.455
 6498POPC   PO414808  18.239  37.685   9.155
 6498POPC   GL114809  18.287  37.672   8.855
 6498POPC   GL214810  18.256  37.522   8.855
 6498POPC   C1A14811  18.323  37.728   8.555
 6498POPC   D2A14812  18.282  37.653   8.255
 6498POPC   C3A14813  18.322  37.713   7.955
 6498POPC   C4A14814  18.279  37.728   7.655
 6498POPC   C1B14815  18.274  37.461   8.555
 6498POPC   C2B14816  18.306  37.406   8.255
 6498POPC   C3B14817  18.240  37.456   7.955
 6498POPC   C4B14818  18.299  37.457   7.655
 6499POPC   NC314819  14.364  32.977   9.455
 6499POPC   PO414820  14.361  33.064   9.155
 6499POPC   GL114821  14.362  32.987   8.855
 6499POPC   GL214822  14.316  33.074   8.855
 6499POPC   C1A14823  14.375  32.984   8.555
 6499POPC   D2A14824  14.420  33.005   8.255
 6499POPC   C3A14825  14.428  33.024   7.955
 6499POPC   C4A14826  14.397  33.006   7.655
 6499POPC   C1B14827  14.135  33.102   8.555
 6499POPC   C2B14828  14.188  33.093   8.255
 6499POPC   C3B14829  14.149  33.109   7.955
 6499POPC   C4B14830  14.175  33.115   7.655
 6500POPC   NC314831  44.663  22.211   9.455
 6500POPC   PO414832  44.622  22.197   9.155
 6500POPC   GL114833  44.661  22.210   8.855
 6500POPC   GL214834  44.506  22.125   8.855
 6500POPC   C1A14835  44.636  22.207   8.555
 6500POPC   D2A14836  44.669  22.141   8.255
 6500POPC   C3A14837  44.655  22.193   7.955
 6500POPC   C4A14838  44.675  22.210   7.655
 6500POPC   C1B14839  44.386  22.078   8.555
 6500POPC   C2B14840  44.394  22.053   8.255
 6500POPC   C3B14841  44.425  22.072   7.955
 6500POPC   C4B14842  44.399  22.053   7.655
 6501POPC   NC314843  20.630  33.038   9.455
 6501POPC   PO414844  20.609  33.036   9.155
 6501POPC   GL114845  20.650  33.068   8.855
 6501POPC   GL214846  20.693  33.026   8.855
 6501POPC   C1A14847  20.655  33.044   8.555
 6501POPC   D2A14848  20.640  33.056   8.255
 6501POPC   C3A14849  20.579  32.978   7.955
 6501POPC   C4A14850  20.610  33.054   7.655
 6501POPC   C1B14851  20.836  33.106   8.555
 6501POPC   C2B14852  20.847  33.088   8.255
 6501POPC   C3B14853  20.876  33.121   7.955
 6501POPC   C4B14854  20.855  33.101   7.655
 6502POPC   NC314855   8.961  29.942   9.455
 6502POPC   PO414856   9.018  29.930   9.155
 6502POPC   GL114857   8.970  29.904   8.855
 6502POPC   GL214858   9.008  30.091   8.855
 6502POPC   C1A14859   9.001  29.933   8.555
 6502POPC   D2A14860   8.967  29.954   8.255
 6502POPC   C3A14861   8.986  29.883   7.955
 6502POPC   C4A14862   9.005  29.960   7.655
 6502POPC   C1B14863   8.983  30.181   8.555
 6502POPC   C2B14864   8.920  30.154   8.255
 6502POPC   C3B14865   8.942  30.170   7.955
 6502POPC   C4B14866   9.000  30.171   7.655
 6503POPC   NC314867   1.948  26.819   9.455
 6503POPC   PO414868   1.982  26.825   9.155
 6503POPC   GL114869   1.964  26.833   8.855
 6503POPC   GL214870   2.029  26.706   8.855
 6503POPC   C1A14871   2.034  26.800   8.555
 6503POPC   D2A14872   1.990  26.852   8.255
 6503POPC   C3A14873   2.028  26.817   7.955
 6503POPC   C4A14874   2.039  26.782   7.655
 6503POPC   C1B14875   2.025  26.550   8.555
 6503POPC   C2B14876   2.009  26.581   8.255
 6503POPC   C3B14877   2.056  26.545   7.955
 6503POPC   C4B14878   2.033  26.582   7.655
 6504POPC   NC314879   1.238   6.670   9.455
 6504POPC   PO414880   1.207   6.638   9.155
 6504POPC   GL114881   1.181   6.612   8.855
 6504POPC   GL214882   1.197   6.481   8.855
 6504POPC   C1A14883   1.246   6.603   8.555
 6504POPC   D2A14884   1.190   6.605   8.255
 6504POPC   C3A14885   1.258   6.694   7.955
 6504POPC   C4A14886   1.227   6.615   7.655
 6504POPC   C1B14887   1.218   6.381   8.555
 6504POPC   C2B14888   1.251   6.353   8.255
 6504POPC   C3B14889   1.272   6.424   7.955
 6504POPC   C4B14890   1.231   6.414   7.655
 6505POPC   NC314891  42.364  34.546   9.455
 6505POPC   PO414892  42.337  34.530   9.155
 6505POPC   GL114893  42.376  34.531   8.855
 6505POPC   GL214894  42.430  34.559   8.855
 6505POPC   C1A14895  42.324  34.564   8.555
 6505POPC   D2A14896  42.374  34.574   8.255
 6505POPC   C3A14897  42.369  34.569   7.955
 6505POPC   C4A14898  42.348  34.621   7.655
 6505POPC   C1B14899  42.602  34.467   8.555
 6505POPC   C2B14900  42.539  34.512   8.255
 6505POPC   C3B14901  42.600  34.448   7.955
 6505POPC   C4B14902  42.541  34.426   7.655
 6506POPC   NC314903  12.100  28.361   9.455
 6506POPC   PO414904  12.074  28.407   9.155
 6506POPC   GL114905  12.085  28.339   8.855
 6506POPC   GL214906  12.173  28.213   8.855
 6506POPC   C1A14907  12.112  28.347   8.555
 6506POPC   D2A14908  12.036  28.385   8.255
 6506POPC   C3A14909  12.088  28.398   7.955
 6506POPC   C4A14910  12.119  28.401   7.655
 6506POPC   C1B14911  12.166  28.120   8.555
 6506POPC   C2B14912  12.202  28.185   8.255
 6506POPC   C3B14913  12.227  28.149   7.955
 6506POPC   C4B14914  12.187  28.130   7.655
 6507POPC   NC314915   1.258  11.271   9.455
 6507POPC   PO414916   1.239  11.271   9.155
 6507POPC   GL114917   1.253  11.340   8.855
 6507POPC   GL214918   1.184  11.173   8.855
 6507POPC   C1A14919   1.183  11.290   8.555
 6507POPC   D2A14920   1.226  11.266   8.255
 6507POPC   C3A14921   1.247  11.271   7.955
 6507POPC   C4A14922   1.175  11.306   7.655
 6507POPC   C1B14923   1.039  11.071   8.555
 6507POPC   C2B14924   1.024  11.057   8.255
 6507POPC   C3B14925   1.026  11.118   7.955
 6507POPC   C4B14926   1.081  11.128   7.655
 6508POPC   NC314927  26.817  43.889   9.455
 6508POPC   PO414928  26.803  43.889   9.155
 6508POPC   GL114929  26.861  43.908   8.855
 6508POPC   GL214930  26.656  43.929   8.855
 6508POPC   C1A14931  26.849  43.870   8.555
 6508POPC   D2A14932  26.867  43.873   8.255
 6508POPC   C3A14933  26.801  43.887   7.955
 6508POPC   C4A14934  26.786  43.840   7.655
 6508POPC   C1B14935  26.598  43.870   8.555
 6508POPC   C2B14936  26.534  43.853   8.255
 6508POPC   C3B14937  26.568  43.907   7.955
 6508POPC   C4B14938  26.541  43.877   7.655
 6509POPC   NC314939  43.147  29.872   9.455
 6509POPC   PO414940  43.149  29.881   9.155
 6509POPC   GL114941  43.077  29.935   8.855
 6509POPC   GL214942  43.166  29.969   8.855
 6509POPC   C1A14943  43.156  29.923   8.555
 6509POPC   D2A14944  43.072  29.883   8.255
 6509POPC   C3A14945  43.063  29.874   7.955
 6509POPC   C4A14946  43.078  29.930   7.655
 6509POPC   C1B14947  43.309  30.071   8.555
 6509POPC   C2B14948  43.249  30.077   8.255
 6509POPC   C3B14949  43.303  30.143   7.955
 6509POPC   C4B14950  43.266  30.127   7.655
 6510POPC   NC314951  39.988  15.920   9.455
 6510POPC   PO414952  40.011  15.969   9.155
 6510POPC   GL114953  39.993  15.977   8.855
 6510POPC   GL214954  40.099  15.980   8.855
 6510POPC   C1A14955  40.035  15.923   8.555
 6510POPC   D2A14956  40.000  15.983   8.255
 6510POPC   C3A14957  39.967  15.927   7.955
 6510POPC   C4A14958  39.984  15.984   7.655
 6510POPC   C1B14959  40.228  16.132   8.555
 6510POPC   C2B14960  40.233  16.052   8.255
 6510POPC   C3B14961  40.263  16.092   7.955
 6510POPC   C4B14962  40.198  16.089   7.655
 6511POPC   NC314963  27.580  28.327   9.455
 6511POPC   PO414964  27.623  28.335   9.155
 6511POPC   GL114965  27.600  28.381   8.855
 6511POPC   GL214966  27.477  28.344   8.855
 6511POPC   C1A14967  27.601  28.348   8.555
 6511POPC   D2A14968  27.605  28.396   8.255
 6511POPC   C3A14969  27.635  28.408   7.955
 6511POPC   C4A14970  27.554  28.356   7.655
 6511POPC   C1B14971  27.389  28.313   8.555
 6511POPC   C2B14972  27.362  28.285   8.255
 6511POPC   C3B14973  27.310  28.260   7.955
 6511POPC   C4B14974  27.347  28.268   7.655
 6512POPC   NC314975  15.168   3.576   9.455
 6512POPC   PO414976  15.144   3.562   9.155
 6512POPC   GL114977  15.181   3.499   8.855
 6512POPC   GL214978  15.174   3.651   8.855
 6512POPC   C1A14979  15.171   3.580   8.555
 6512POPC   D2A14980  15.187   3.574   8.255
 6512POPC   C3A14981  15.187   3.509   7.955
 6512POPC   C4A14982  15.164   3.584   7.655
 6512POPC   C1B14983  15.084   3.806   8.555
 6512POPC   C2B14984  15.031   3.807   8.255
 6512POPC   C3B14985  15.087   3.736   7.955
 6512POPC   C4B14986  15.121   3.751   7.655
 6513POPC   NC314987   5.849  38.473   9.455
 6513POPC   PO414988   5.879  38.410   9.155
 6513POPC   GL114989   5.911  38.430   8.855
 6513POPC   GL214990   6.021  38.501   8.855
 6513POPC   C1A14991   5.853  38.464   8.555
 6513POPC   D2A14992   5.868  38.486   8.255
 6513POPC   C3A14993   5.843  38.491   7.955
 6513POPC   C4A14994   5.864  38.411   7.655
 6513POPC   C1B14995   6.082  38.449   8.555
 6513POPC   C2B14996   6.157  38.434   8.255
 6513POPC   C3B14997   6.099  38.447   7.955
 6513POPC   C4B14998   6.083  38.461   7.655
 6514POPC   NC314999  22.196  39.263   9.455
 6514POPC   PO415000  22.130  39.246   9.155
 6514POPC   GL115001  22.161  39.194   8.855
 6514POPC   GL215002  22.064  39.086   8.855
 6514POPC   C1A15003  22.176  39.256   8.555
 6514POPC   D2A15004  22.205  39.252   8.255
 6514POPC   C3A15005  22.208  39.240   7.955
 6514POPC   C4A15006  22.189  39.197   7.655
 6514POPC   C1B15007  22.032  39.044   8.555
 6514POPC   C2B15008  22.032  38.988   8.255
 6514POPC   C3B15009  22.055  38.989   7.955
 6514POPC   C4B15010  22.069  39.032   7.655
 6515POPC   NC315011  10.500   9.009   9.455
 6515POPC   PO415012  10.534   8.999   9.155
 6515POPC   GL115013  10.563   8.939   8.855
 6515POPC   GL215014  10.690   9.054   8.855
 6515POPC   C1A15015  10.563   8.976   8.555
 6515POPC   D2A15016  10.556   8.962   8.255
 6515POPC   C3A15017  10.475   8.947   7.955
 6515POPC   C4A15018  10.546   8.961   7.655
 6515POPC   C1B15019  10.726   9.055   8.555
 6515POPC   C2B15020  10.732   9.004   8.255
 6515POPC   C3B15021  10.792   9.063   7.955
 6515POPC   C4B15022  10.808   8.994   7.655
 6516POPC   NC315023   4.362  19.841   9.455
 6516POPC   PO415024   4.282  19.816   9.155
 6516POPC   GL115025   4.287  19.790   8.855
 6516POPC   GL215026   4.439  19.855   8.855
 6516POPC   C1A15027   4.311  19.801   8.555
 6516POPC   D2A15028   4.339  19.861   8.255
 6516POPC   C3A15029   4.279  19.807   7.955
 6516POPC   C4A15030   4.293  19.821   7.655
 6516POPC   C1B15031   4.552  19.953   8.555
 6516POPC   C2B15032   4.565  19.904   8.255
 6516POPC   C3B15033   4.518  19.967   7.955
 6516POPC   C4B15034   4.507  19.887   7.655
 6517POPC   NC315035  35.354   1.998   9.455
 6517POPC   PO415036  35.348   1.968   9.155
 6517POPC   GL115037  35.309   1.958   8.855
 6517POPC   GL215038  35.209   2.050   8.855
 6517POPC   C1A15039  35.358   1.970   8.555
 6517POPC   D2A15040  35.390   2.007   8.255
 6517POPC   C3A15041  35.396   1.962   7.955
 6517POPC   C4A15042  35.322   2.016   7.655
 6517POPC   C1B15043  35.128   2.000   8.555
 6517POPC   C2B15044  35.112   1.991   8.255
 6517POPC   C3B15045  35.081   1.983   7.955
 6517POPC   C4B15046  35.055   2.024   7.655
 6518POPC   NC315047  26.076  12.125   9.455
 6518POPC   PO415048  26.042  12.124   9.155
 6518POPC   GL115049  26.063  12.119   8.855
 6518POPC   GL215050  26.156  12.197   8.855
 6518POPC   C1A15051  26.034  12.113   8.555
 6518POPC   D2A15052  26.049  12.067   8.255
 6518POPC   C3A15053  26.023  12.057   7.955
 6518POPC   C4A15054  26.021  12.041   7.655
 6518POPC   C1B15055  26.259  12.204   8.555
 6518POPC   C2B15056  26.190  12.219   8.255
 6518POPC   C3B15057  26.254  12.232   7.955
 6518POPC   C4B15058  26.208  12.244   7.655
 6519POPC   NC315059  39.970  30.681   9.455
 6519POPC   PO415060  39.987  30.663   9.155
 6519POPC   GL115061  40.006  30.738   8.855
 6519POPC   GL215062  40.087  30.609   8.855
 6519POPC   C1A15063  40.049  30.696   8.555
 6519POPC   D2A15064  40.021  30.691   8.255
 6519POPC   C3A15065  40.021  30.710   7.955
 6519POPC   C4A15066  40.043  30.659   7.655
 6519POPC   C1B15067  40.098  30.423   8.555
 6519POPC   C2B15068  40.104  30.441   8.255
 6519POPC   C3B15069  40.057  30.426   7.955
 6519POPC   C4B15070  40.108  30.495   7.655
 6520POPC   NC315071  29.949  22.938   9.455
 6520POPC   PO415072  29.873  22.913   9.155
 6520POPC   GL115073  29.894  22.975   8.855
 6520POPC   GL215074  30.047  22.878   8.855
 6520POPC   C1A15075  29.876  22.938   8.555
 6520POPC   D2A15076  29.916  22.977   8.255
 6520POPC   C3A15077  29.895  22.908   7.955
 6520POPC   C4A15078  29.874  22.969   7.655
 6520POPC   C1B15079  30.143  22.765   8.555
 6520POPC   C2B15080  30.150  22.833   8.255
 6520POPC   C3B15081  30.138  22.738   7.955
 6520POPC   C4B15082  30.140  22.787   7.655
 6521POPC   NC315083  20.636  32.229   9.455
 6521POPC   PO415084  20.612  32.290   9.155
 6521POPC   GL115085  20.563  32.208   8.855
 6521POPC   GL215086  20.511  32.135   8.855
 6521POPC   C1A15087  20.577  32.255   8.555
 6521POPC   D2A15088  20.592  32.204   8.255
 6521POPC   C3A15089  20.631  32.199   7.955
 6521POPC   C4A15090  20.592  32.234   7.655
 6521POPC   C1B15091  20.404  32.062   8.555
 6521POPC   C2B15092  20.416  32.076   8.255
 6521POPC   C3B15093  20.375  32.081   7.955
 6521POPC   C4B15094  20.448  32.109   7.655
 6522POPC   NC315095  23.704   7.422   9.455
 6522POPC   PO415096  23.676   7.468   9.155
 6522POPC   GL115097  23.744   7.381   8.855
 6522POPC   GL215098  23.847   7.330   8.855
 6522POPC   C1A15099  23.675   7.465   8.555
 6522POPC   D2A15100  23.689   7.428   8.255
 6522POPC   C3A15101  23.760   7.382   7.955
 6522POPC   C4A15102  23.738   7.385   7.655
 6522POPC   C1B15103  23.995   7.375   8.555
 6522POPC   C2B15104  23.980   7.310   8.255
 6522POPC   C3B15105  23.981   7.354   7.955
 6522POPC   C4B15106  23.934   7.288   7.655
 6523POPC   NC315107  12.081  39.233   9.455
 6523POPC   PO415108  12.103  39.190   9.155
 6523POPC   GL115109  12.107  39.268   8.855
 6523POPC   GL215110  11.992  39.296   8.855
 6523POPC   C1A15111  12.032  39.208   8.555
 6523POPC   D2A15112  12.084  39.225   8.255
 6523POPC   C3A15113  12.051  39.224   7.955
 6523POPC   C4A15114  12.027  39.229   7.655
 6523POPC   C1B15115  11.884  39.398   8.555
 6523POPC   C2B15116  11.914  39.415   8.255
 6523POPC   C3B15117  11.886  39.379   7.955
 6523POPC   C4B15118  11.856  39.407   7.655
 6524POPC   NC315119  19.088  43.915   9.455
 6524POPC   PO415120  19.079  43.928   9.155
 6524POPC   GL115121  19.081  43.864   8.855
 6524POPC   GL215122  18.917  43.900   8.855
 6524POPC   C1A15123  19.039  43.921   8.555
 6524POPC   D2A15124  19.066  43.856   8.255
 6524POPC   C3A15125  19.046  43.918   7.955
 6524POPC   C4A15126  19.099  43.878   7.655
 6524POPC   C1B15127  18.781  43.986   8.555
 6524POPC   C2B15128  18.788  43.978   8.255
 6524POPC   C3B15129  18.859  43.925   7.955
 6524POPC   C4B15130  18.800  43.928   7.655
 6525POPC   NC315131  26.088  15.976   9.455
 6525POPC   PO415132  26.042  15.969   9.155
 6525POPC   GL115133  26.051  15.965   8.855
 6525POPC   GL215134  26.147  15.903   8.855
 6525POPC   C1A15135  26.056  15.922   8.555
 6525POPC   D2A15136  26.037  15.961   8.255
 6525POPC   C3A15137  26.011  15.928   7.955
 6525POPC   C4A15138  26.003  15.996   7.655
 6525POPC   C1B15139  26.243  15.940   8.555
 6525POPC   C2B15140  26.268  15.874   8.255
 6525POPC   C3B15141  26.306  15.916   7.955
 6525POPC   C4B15142  26.275  15.910   7.655
 6526POPC   NC315143   0.404  11.349   9.455
 6526POPC   PO415144   0.413  11.270   9.155
 6526POPC   GL115145   0.451  11.338   8.855
 6526POPC   GL215146   0.421  11.142   8.855
 6526POPC   C1A15147   0.452  11.276   8.555
 6526POPC   D2A15148   0.405  11.324   8.255
 6526POPC   C3A15149   0.479  11.283   7.955
 6526POPC   C4A15150   0.436  11.281   7.655
 6526POPC   C1B15151   0.327  11.112   8.555
 6526POPC   C2B15152   0.361  11.070   8.255
 6526POPC   C3B15153   0.325  11.107   7.955
 6526POPC   C4B15154   0.357  11.048   7.655
 6527POPC   NC315155  24.466   5.863   9.455
 6527POPC   PO415156  24.456   5.895   9.155
 6527POPC   GL115157  24.518   5.854   8.855
 6527POPC   GL215158  24.410   5.829   8.855
 6527POPC   C1A15159  24.452   5.894   8.555
 6527POPC   D2A15160  24.458   5.821   8.255
 6527POPC   C3A15161  24.449   5.828   7.955
 6527POPC   C4A15162  24.467   5.841   7.655
 6527POPC   C1B15163  24.286   5.744   8.555
 6527POPC   C2B15164  24.277   5.704   8.255
 6527POPC   C3B15165  24.251   5.668   7.955
 6527POPC   C4B15166  24.319   5.670   7.655
 6528POPC   NC315167   8.925  14.357   9.455
 6528POPC   PO415168   8.975  14.406   9.155
 6528POPC   GL115169   9.020  14.388   8.855
 6528POPC   GL215170   8.895  14.405   8.855
 6528POPC   C1A15171   8.944  14.355   8.555
 6528POPC   D2A15172   8.964  14.370   8.255
 6528POPC   C3A15173   8.949  14.359   7.955
 6528POPC   C4A15174   8.933  14.358   7.655
 6528POPC   C1B15175   8.771  14.425   8.555
 6528POPC   C2B15176   8.722  14.405   8.255
 6528POPC   C3B15177   8.690  14.428   7.955
 6528POPC   C4B15178   8.763  14.360   7.655
 6529POPC   NC315179  19.853  34.588   9.455
 6529POPC   PO415180  19.838  34.540   9.155
 6529POPC   GL115181  19.844  34.601   8.855
 6529POPC   GL215182  19.919  34.482   8.855
 6529POPC   C1A15183  19.879  34.580   8.555
 6529POPC   D2A15184  19.860  34.580   8.255
 6529POPC   C3A15185  19.809  34.614   7.955
 6529POPC   C4A15186  19.832  34.564   7.655
 6529POPC   C1B15187  20.015  34.466   8.555
 6529POPC   C2B15188  20.077  34.483   8.255
 6529POPC   C3B15189  20.044  34.432   7.955
 6529POPC   C4B15190  20.018  34.456   7.655
 6530POPC   NC315191  21.391   1.238   9.455
 6530POPC   PO415192  21.384   1.254   9.155
 6530POPC   GL115193  21.388   1.209   8.855
 6530POPC   GL215194  21.319   1.246   8.855
 6530POPC   C1A15195  21.392   1.168   8.555
 6530POPC   D2A15196  21.343   1.199   8.255
 6530POPC   C3A15197  21.424   1.168   7.955
 6530POPC   C4A15198  21.342   1.189   7.655
 6530POPC   C1B15199  21.154   1.375   8.555
 6530POPC   C2B15200  21.186   1.361   8.255
 6530POPC   C3B15201  21.193   1.311   7.955
 6530POPC   C4B15202  21.160   1.361   7.655
 6531POPC   NC315203  43.123   6.691   9.455
 6531POPC   PO415204  43.078   6.664   9.155
 6531POPC   GL115205  43.132   6.625   8.855
 6531POPC   GL215206  43.186   6.695   8.855
 6531POPC   C1A15207  43.130   6.624   8.555
 6531POPC   D2A15208  43.138   6.632   8.255
 6531POPC   C3A15209  43.121   6.646   7.955
 6531POPC   C4A15210  43.126   6.600   7.655
 6531POPC   C1B15211  43.250   6.790   8.555
 6531POPC   C2B15212  43.254   6.765   8.255
 6531POPC   C3B15213  43.339   6.810   7.955
 6531POPC   C4B15214  43.347   6.781   7.655
 6532POPC   NC315215  20.660   3.514   9.455
 6532POPC   PO415216  20.632   3.580   9.155
 6532POPC   GL115217  20.588   3.543   8.855
 6532POPC   GL215218  20.631   3.655   8.855
 6532POPC   C1A15219  20.617   3.540   8.555
 6532POPC   D2A15220  20.583   3.549   8.255
 6532POPC   C3A15221  20.658   3.587   7.955
 6532POPC   C4A15222  20.561   3.578   7.655
 6532POPC   C1B15223  20.644   3.761   8.555
 6532POPC   C2B15224  20.622   3.834   8.255
 6532POPC   C3B15225  20.645   3.769   7.955
 6532POPC   C4B15226  20.700   3.771   7.655
 6533POPC   NC315227  14.420  29.191   9.455
 6533POPC   PO415228  14.418  29.187   9.155
 6533POPC   GL115229  14.379  29.168   8.855
 6533POPC   GL215230  14.415  29.307   8.855
 6533POPC   C1A15231  14.364  29.118   8.555
 6533POPC   D2A15232  14.445  29.120   8.255
 6533POPC   C3A15233  14.397  29.153   7.955
 6533POPC   C4A15234  14.380  29.187   7.655
 6533POPC   C1B15235  14.446  29.429   8.555
 6533POPC   C2B15236  14.461  29.342   8.255
 6533POPC   C3B15237  14.507  29.358   7.955
 6533POPC   C4B15238  14.485  29.386   7.655
 6534POPC   NC315239   2.726   6.694   9.455
 6534POPC   PO415240   2.743   6.671   9.155
 6534POPC   GL115241   2.722   6.690   8.855
 6534POPC   GL215242   2.684   6.573   8.855
 6534POPC   C1A15243   2.741   6.614   8.555
 6534POPC   D2A15244   2.809   6.638   8.255
 6534POPC   C3A15245   2.780   6.608   7.955
 6534POPC   C4A15246   2.750   6.665   7.655
 6534POPC   C1B15247   2.663   6.468   8.555
 6534POPC   C2B15248   2.627   6.379   8.255
 6534POPC   C3B15249   2.619   6.407   7.955
 6534POPC   C4B15250   2.687   6.465   7.655
 6535POPC   NC315251   4.303  15.226   9.455
 6535POPC   PO415252   4.328  15.225   9.155
 6535POPC   GL115253   4.350  15.165   8.855
 6535POPC   GL215254   4.211  15.115   8.855
 6535POPC   C1A15255   4.347  15.191   8.555
 6535POPC   D2A15256   4.355  15.207   8.255
 6535POPC   C3A15257   4.351  15.226   7.955
 6535POPC   C4A15258   4.291  15.222   7.655
 6535POPC   C1B15259   4.133  15.027   8.555
 6535POPC   C2B15260   4.099  15.044   8.255
 6535POPC   C3B15261   4.113  15.056   7.955
 6535POPC   C4B15262   4.113  15.040   7.655
 6536POPC   NC315263  15.224  43.083   9.455
 6536POPC   PO415264  15.211  43.062   9.155
 6536POPC   GL115265  15.199  43.097   8.855
 6536POPC   GL215266  15.187  43.259   8.855
 6536POPC   C1A15267  15.167  43.084   8.555
 6536POPC   D2A15268  15.135  43.109   8.255
 6536POPC   C3A15269  15.145  43.160   7.955
 6536POPC   C4A15270  15.162  43.125   7.655
 6536POPC   C1B15271  15.274  43.318   8.555
 6536POPC   C2B15272  15.269  43.360   8.255
 6536POPC   C3B15273  15.247  43.325   7.955
 6536POPC   C4B15274  15.297  43.361   7.655
 6537POPC   NC315275  14.355  37.720   9.455
 6537POPC   PO415276  14.416  37.728   9.155
 6537POPC   GL115277  14.394  37.698   8.855
 6537POPC   GL215278  14.413  37.527   8.855
 6537POPC   C1A15279  14.359  37.714   8.555
 6537POPC   D2A15280  14.412  37.683   8.255
 6537POPC   C3A15281  14.418  37.660   7.955
 6537POPC   C4A15282  14.392  37.720   7.655
 6537POPC   C1B15283  14.317  37.421   8.555
 6537POPC   C2B15284  14.386  37.427   8.255
 6537POPC   C3B15285  14.344  37.486   7.955
 6537POPC   C4B15286  14.363  37.453   7.655
 6538POPC   NC315287  37.696  14.412   9.455
 6538POPC   PO415288  37.630  14.356   9.155
 6538POPC   GL115289  37.678  14.405   8.855
 6538POPC   GL215290  37.621  14.497   8.855
 6538POPC   C1A15291  37.642  14.388   8.555
 6538POPC   D2A15292  37.640  14.426   8.255
 6538POPC   C3A15293  37.653  14.371   7.955
 6538POPC   C4A15294  37.673  14.406   7.655
 6538POPC   C1B15295  37.680  14.606   8.555
 6538POPC   C2B15296  37.639  14.666   8.255
 6538POPC   C3B15297  37.645  14.667   7.955
 6538POPC   C4B15298  37.655  14.642   7.655
 6539POPC   NC315299   5.847  27.588   9.455
 6539POPC   PO415300   5.905  27.622   9.155
 6539POPC   GL115301   5.896  27.583   8.855
 6539POPC   GL215302   5.806  27.510   8.855
 6539POPC   C1A15303   5.833  27.573   8.555
 6539POPC   D2A15304   5.830  27.600   8.255
 6539POPC   C3A15305   5.852  27.631   7.955
 6539POPC   C4A15306   5.905  27.624   7.655
 6539POPC   C1B15307   5.749  27.362   8.555
 6539POPC   C2B15308   5.801  27.413   8.255
 6539POPC   C3B15309   5.814  27.351   7.955
 6539POPC   C4B15310   5.748  27.318   7.655
 6540POPC   NC315311   3.576  19.790   9.455
 6540POPC   PO415312   3.497  19.851   9.155
 6540POPC   GL115313   3.505  19.867   8.855
 6540POPC   GL215314   3.391  19.743   8.855
 6540POPC   C1A15315   3.540  19.872   8.555
 6540POPC   D2A15316   3.562  19.795   8.255
 6540POPC   C3A15317   3.542  19.869   7.955
 6540POPC   C4A15318   3.497  19.870   7.655
 6540POPC   C1B15319   3.313  19.696   8.555
 6540POPC   C2B15320   3.306  19.675   8.255
 6540POPC   C3B15321   3.340  19.719   7.955
 6540POPC   C4B15322   3.345  19.764   7.655
 6541POPC   NC315323  28.345  12.121   9.455
 6541POPC   PO415324  28.355  12.114   9.155
 6541POPC   GL115325  28.352  12.050   8.855
 6541POPC   GL215326  28.500  12.133   8.855
 6541POPC   C1A15327  28.396  12.079   8.555
 6541POPC   D2A15328  28.377  12.075   8.255
 6541POPC   C3A15329  28.363  12.103   7.955
 6541POPC   C4A15330  28.360  12.067   7.655
 6541POPC   C1B15331  28.619  12.111   8.555
 6541POPC   C2B15332  28.623  12.082   8.255
 6541POPC   C3B15333  28.621  12.088   7.955
 6541POPC   C4B15334  28.629  12.134   7.655
 6542POPC   NC315335   9.721  43.876   9.455
 6542POPC   PO415336   9.770  43.924   9.155
 6542POPC   GL115337   9.743  43.884   8.855
 6542POPC   GL215338   9.675  43.958   8.855
 6542POPC   C1A15339   9.789  43.921   8.555
 6542POPC   D2A15340   9.745  43.893   8.255
 6542POPC   C3A15341   9.746  43.883   7.955
 6542POPC   C4A15342   9.765  43.916   7.655
 6542POPC   C1B15343   9.635  44.152   8.555
 6542POPC   C2B15344   9.616  44.157   8.255
 6542POPC   C3B15345   9.618  44.106   7.955
 6542POPC   C4B15346   9.632  44.080   7.655
 6543POPC   NC315347   0.470  21.419   9.455
 6543POPC   PO415348   0.460  21.423   9.155
 6543POPC   GL115349   0.463  21.390   8.855
 6543POPC   GL215350   0.515  21.408   8.855
 6543POPC   C1A15351   0.441  21.433   8.555
 6543POPC   D2A15352   0.440  21.346   8.255
 6543POPC   C3A15353   0.437  21.422   7.955
 6543POPC   C4A15354   0.456  21.377   7.655
 6543POPC   C1B15355   0.619  21.445   8.555
 6543POPC   C2B15356   0.684  21.445   8.255
 6543POPC   C3B15357   0.638  21.507   7.955
 6543POPC   C4B15358   0.653  21.531   7.655
 6544POPC   NC315359   1.962  33.057   9.455
 6544POPC   PO415360   2.035  32.985   9.155
 6544POPC   GL115361   2.013  33.044   8.855
 6544POPC   GL215362   2.134  33.079   8.855
 6544POPC   C1A15363   1.954  33.003   8.555
 6544POPC   D2A15364   2.011  33.057   8.255
 6544POPC   C3A15365   1.991  33.072   7.955
 6544POPC   C4A15366   1.956  33.063   7.655
 6544POPC   C1B15367   2.241  33.066   8.555
 6544POPC   C2B15368   2.219  33.085   8.255
 6544POPC   C3B15369   2.277  33.047   7.955
 6544POPC   C4B15370   2.224  33.111   7.655
 6545POPC   NC315371  28.406  19.086   9.455
 6545POPC   PO415372  28.329  19.051   9.155
 6545POPC   GL115373  28.353  19.091   8.855
 6545POPC   GL215374  28.449  18.973   8.855
 6545POPC   C1A15375  28.345  19.057   8.555
 6545POPC   D2A15376  28.376  19.043   8.255
 6545POPC   C3A15377  28.414  19.047   7.955
 6545POPC   C4A15378  28.385  19.097   7.655
 6545POPC   C1B15379  28.527  18.877   8.555
 6545POPC   C2B15380  28.526  18.863   8.255
 6545POPC   C3B15381  28.576  18.889   7.955
 6545POPC   C4B15382  28.569  18.865   7.655
 6546POPC   NC315383  10.525  38.443   9.455
 6546POPC   PO415384  10.500  38.410   9.155
 6546POPC   GL115385  10.539  38.482   8.855
 6546POPC   GL215386  10.644  38.415   8.855
 6546POPC   C1A15387  10.491  38.436   8.555
 6546POPC   D2A15388  10.525  38.453   8.255
 6546POPC   C3A15389  10.522  38.498   7.955
 6546POPC   C4A15390  10.500  38.482   7.655
 6546POPC   C1B15391  10.794  38.423   8.555
 6546POPC   C2B15392  10.777  38.425   8.255
 6546POPC   C3B15393  10.728  38.481   7.955
 6546POPC   C4B15394  10.794  38.433   7.655
 6547POPC   NC315395  38.461  40.789   9.455
 6547POPC   PO415396  38.406  40.795   9.155
 6547POPC   GL115397  38.472  40.756   8.855
 6547POPC   GL215398  38.569  40.755   8.855
 6547POPC   C1A15399  38.497  40.749   8.555
 6547POPC   D2A15400  38.453  40.780   8.255
 6547POPC   C3A15401  38.434  40.826   7.955
 6547POPC   C4A15402  38.423  40.832   7.655
 6547POPC   C1B15403  38.740  40.793   8.555
 6547POPC   C2B15404  38.752  40.805   8.255
 6547POPC   C3B15405  38.659  40.823   7.955
 6547POPC   C4B15406  38.682  40.799   7.655
 6548POPC   NC315407   5.861   4.316   9.455
 6548POPC   PO415408   5.850   4.326   9.155
 6548POPC   GL115409   5.859   4.344   8.855
 6548POPC   GL215410   5.815   4.455   8.855
 6548POPC   C1A15411   5.902   4.327   8.555
 6548POPC   D2A15412   5.898   4.351   8.255
 6548POPC   C3A15413   5.912   4.270   7.955
 6548POPC   C4A15414   5.833   4.314   7.655
 6548POPC   C1B15415   5.817   4.501   8.555
 6548POPC   C2B15416   5.804   4.552   8.255
 6548POPC   C3B15417   5.739   4.532   7.955
 6548POPC   C4B15418   5.818   4.584   7.655
 6549POPC   NC315419   5.134  14.436   9.455
 6549POPC   PO415420   5.095  14.357   9.155
 6549POPC   GL115421   5.135  14.422   8.855
 6549POPC   GL215422   5.171  14.543   8.855
 6549POPC   C1A15423   5.073  14.436   8.555
 6549POPC   D2A15424   5.083  14.388   8.255
 6549POPC   C3A15425   5.049  14.379   7.955
 6549POPC   C4A15426   5.117  14.407   7.655
 6549POPC   C1B15427   5.220  14.668   8.555
 6549POPC   C2B15428   5.198  14.595   8.255
 6549POPC   C3B15429   5.150  14.591   7.955
 6549POPC   C4B15430   5.227  14.627   7.655
 6550POPC   NC315431   2.733   4.330   9.455
 6550POPC   PO415432   2.774   4.281   9.155
 6550POPC   GL115433   2.722   4.337   8.855
 6550POPC   GL215434   2.683   4.187   8.855
 6550POPC   C1A15435   2.762   4.283   8.555
 6550POPC   D2A15436   2.717   4.355   8.255
 6550POPC   C3A15437   2.741   4.365   7.955
 6550POPC   C4A15438   2.797   4.336   7.655
 6550POPC   C1B15439   2.657   4.118   8.555
 6550POPC   C2B15440   2.652   4.139   8.255
 6550POPC   C3B15441   2.596   4.097   7.955
 6550POPC   C4B15442   2.642   4.125   7.655
 6551POPC   NC315443  42.332  37.658   9.455
 6551POPC   PO415444  42.373  37.685   9.155
 6551POPC   GL115445  42.302  37.641   8.855
 6551POPC   GL215446  42.426  37.576   8.855
 6551POPC   C1A15447  42.331  37.645   8.555
 6551POPC   D2A15448  42.352  37.646   8.255
 6551POPC   C3A15449  42.328  37.716   7.955
 6551POPC   C4A15450  42.314  37.714   7.655
 6551POPC   C1B15451  42.560  37.581   8.555
 6551POPC   C2B15452  42.529  37.507   8.255
 6551POPC   C3B15453  42.489  37.534   7.955
 6551POPC   C4B15454  42.498  37.504   7.655
 6552POPC   NC315455  26.835  19.031   9.455
 6552POPC   PO415456  26.787  19.039   9.155
 6552POPC   GL115457  26.836  19.095   8.855
 6552POPC   GL215458  26.893  18.944   8.855
 6552POPC   C1A15459  26.867  19.040   8.555
 6552POPC   D2A15460  26.831  19.082   8.255
 6552POPC   C3A15461  26.820  19.085   7.955
 6552POPC   C4A15462  26.862  19.083   7.655
 6552POPC   C1B15463  27.012  18.962   8.555
 6552POPC   C2B15464  27.039  18.954   8.255
 6552POPC   C3B15465  27.042  18.939   7.955
 6552POPC   C4B15466  27.062  18.922   7.655
 6553POPC   NC315467  11.320  38.502   9.455
 6553POPC   PO415468  11.267  38.442   9.155
 6553POPC   GL115469  11.257  38.504   8.855
 6553POPC   GL215470  11.324  38.559   8.855
 6553POPC   C1A15471  11.343  38.407   8.555
 6553POPC   D2A15472  11.265  38.418   8.255
 6553POPC   C3A15473  11.311  38.499   7.955
 6553POPC   C4A15474  11.320  38.456   7.655
 6553POPC   C1B15475  11.401  38.684   8.555
 6553POPC   C2B15476  11.389  38.721   8.255
 6553POPC   C3B15477  11.442  38.722   7.955
 6553POPC   C4B15478  11.399  38.643   7.655
 6554POPC   NC315479   6.639  34.572   9.455
 6554POPC   PO415480   6.621  34.582   9.155
 6554POPC   GL115481   6.688  34.597   8.855
 6554POPC   GL215482   6.758  34.651   8.855
 6554POPC   C1A15483   6.655  34.600   8.555
 6554POPC   D2A15484   6.689  34.562   8.255
 6554POPC   C3A15485   6.663  34.587   7.955
 6554POPC   C4A15486   6.658  34.596   7.655
 6554POPC   C1B15487   6.797  34.682   8.555
 6554POPC   C2B15488   6.814  34.728   8.255
 6554POPC   C3B15489   6.827  34.780   7.955
 6554POPC   C4B15490   6.811  34.711   7.655
 6555POPC   NC315491  44.686  26.024   9.455
 6555POPC   PO415492  44.711  26.068   9.155
 6555POPC   GL115493  44.649  26.075   8.855
 6555POPC   GL215494  44.632  25.955   8.855
 6555POPC   C1A15495  44.699  26.017   8.555
 6555POPC   D2A15496  44.622  26.036   8.255
 6555POPC   C3A15497  44.638  26.036   7.955
 6555POPC   C4A15498  44.631  26.089   7.655
 6555POPC   C1B15499  44.540  25.881   8.555
 6555POPC   C2B15500  44.482  25.848   8.255
 6555POPC   C3B15501  44.541  25.803   7.955
 6555POPC   C4B15502  44.480  25.831   7.655
 6556POPC   NC315503  35.399  15.997   9.455
 6556POPC   PO415504  35.330  15.969   9.155
 6556POPC   GL115505  35.351  15.918   8.855
 6556POPC   GL215506  35.379  15.828   8.855
 6556POPC   C1A15507  35.303  15.975   8.555
 6556POPC   D2A15508  35.393  15.930   8.255
 6556POPC   C3A15509  35.347  15.974   7.955
 6556POPC   C4A15510  35.381  16.005   7.655
 6556POPC   C1B15511  35.378  15.706   8.555
 6556POPC   C2B15512  35.379  15.703   8.255
 6556POPC   C3B15513  35.291  15.667   7.955
 6556POPC   C4B15514  35.353  15.660   7.655
 6557POPC   NC315515  23.737  14.387   9.455
 6557POPC   PO415516  23.753  14.411   9.155
 6557POPC   GL115517  23.710  14.400   8.855
 6557POPC   GL215518  23.752  14.504   8.855
 6557POPC   C1A15519  23.681  14.356   8.555
 6557POPC   D2A15520  23.698  14.436   8.255
 6557POPC   C3A15521  23.762  14.358   7.955
 6557POPC   C4A15522  23.755  14.380   7.655
 6557POPC   C1B15523  23.841  14.649   8.555
 6557POPC   C2B15524  23.846  14.654   8.255
 6557POPC   C3B15525  23.895  14.628   7.955
 6557POPC   C4B15526  23.866  14.591   7.655
 6558POPC   NC315527  23.749   4.289   9.455
 6558POPC   PO415528  23.735   4.308   9.155
 6558POPC   GL115529  23.751   4.319   8.855
 6558POPC   GL215530  23.639   4.251   8.855
 6558POPC   C1A15531  23.710   4.283   8.555
 6558POPC   D2A15532  23.686   4.296   8.255
 6558POPC   C3A15533  23.686   4.298   7.955
 6558POPC   C4A15534  23.726   4.342   7.655
 6558POPC   C1B15535  23.494   4.140   8.555
 6558POPC   C2B15536  23.584   4.163   8.255
 6558POPC   C3B15537  23.574   4.111   7.955
 6558POPC   C4B15538  23.491   4.125   7.655
 6559POPC   NC315539  20.564   8.986   9.455
 6559POPC   PO415540  20.612   8.948   9.155
 6559POPC   GL115541  20.642   8.924   8.855
 6559POPC   GL215542  20.744   8.920   8.855
 6559POPC   C1A15543  20.660   8.983   8.555
 6559POPC   D2A15544  20.582   8.956   8.255
 6559POPC   C3A15545  20.571   8.939   7.955
 6559POPC   C4A15546  20.638   8.971   7.655
 6559POPC   C1B15547  20.728   8.834   8.555
 6559POPC   C2B15548  20.800   8.827   8.255
 6559POPC   C3B15549  20.770   8.819   7.955
 6559POPC   C4B15550  20.816   8.777   7.655
 6560POPC   NC315551  36.921   0.438   9.455
 6560POPC   PO415552  36.930   0.469   9.155
 6560POPC   GL115553  36.952   0.475   8.855
 6560POPC   GL215554  36.880   0.546   8.855
 6560POPC   C1A15555  36.927   0.393   8.555
 6560POPC   D2A15556  36.907   0.435   8.255
 6560POPC   C3A15557  36.948   0.487   7.955
 6560POPC   C4A15558  36.938   0.454   7.655
 6560POPC   C1B15559  36.824   0.661   8.555
 6560POPC   C2B15560  36.773   0.665   8.255
 6560POPC   C3B15561  36.763   0.622   7.955
 6560POPC   C4B15562  36.810   0.690   7.655
 6561POPC   NC315563  40.779   4.283   9.455
 6561POPC   PO415564  40.821   4.338   9.155
 6561POPC   GL115565  40.798   4.316   8.855
 6561POPC   GL215566  40.636   4.276   8.855
 6561POPC   C1A15567  40.793   4.343   8.555
 6561POPC   D2A15568  40.821   4.336   8.255
 6561POPC   C3A15569  40.756   4.346   7.955
 6561POPC   C4A15570  40.740   4.319   7.655
 6561POPC   C1B15571  40.503   4.276   8.555
 6561POPC   C2B15572  40.565   4.354   8.255
 6561POPC   C3B15573  40.525   4.324   7.955
 6561POPC   C4B15574  40.559   4.368   7.655
 6562POPC   NC315575  15.927  36.078   9.455
 6562POPC   PO415576  15.987  36.112   9.155
 6562POPC   GL115577  15.940  36.114   8.855
 6562POPC   GL215578  16.115  36.131   8.855
 6562POPC   C1A15579  15.952  36.164   8.555
 6562POPC   D2A15580  15.946  36.081   8.255
 6562POPC   C3A15581  16.003  36.122   7.955
 6562POPC   C4A15582  15.972  36.113   7.655
 6562POPC   C1B15583  16.185  36.072   8.555
 6562POPC   C2B15584  16.210  36.055   8.255
 6562POPC   C3B15585  16.150  36.052   7.955
 6562POPC   C4B15586  16.146  36.057   7.655
 6563POPC   NC315587  25.242  35.375   9.455
 6563POPC   PO415588  25.233  35.389   9.155
 6563POPC   GL115589  25.305  35.354   8.855
 6563POPC   GL215590  25.221  35.401   8.855
 6563POPC   C1A15591  25.216  35.306   8.555
 6563POPC   D2A15592  25.290  35.320   8.255
 6563POPC   C3A15593  25.280  35.358   7.955
 6563POPC   C4A15594  25.236  35.326   7.655
 6563POPC   C1B15595  25.087  35.492   8.555
 6563POPC   C2B15596  25.103  35.540   8.255
 6563POPC   C3B15597  25.104  35.490   7.955
 6563POPC   C4B15598  25.138  35.522   7.655
 6564POPC   NC315599  36.878  25.235   9.455
 6564POPC   PO415600  36.880  25.307   9.155
 6564POPC   GL115601  36.949  25.286   8.855
 6564POPC   GL215602  36.978  25.259   8.855
 6564POPC   C1A15603  36.934  25.309   8.555
 6564POPC   D2A15604  36.903  25.263   8.255
 6564POPC   C3A15605  36.915  25.280   7.955
 6564POPC   C4A15606  36.951  25.301   7.655
 6564POPC   C1B15607  37.169  25.284   8.555
 6564POPC   C2B15608  37.169  25.314   8.255
 6564POPC   C3B15609  37.190  25.250   7.955
 6564POPC   C4B15610  37.142  25.330   7.655
 6565POPC   NC315611   4.286  26.830   9.455
 6565POPC   PO415612   4.362  26.782   9.155
 6565POPC   GL115613   4.322  26.859   8.855
 6565POPC   GL215614   4.450  26.733   8.855
 6565POPC   C1A15615   4.350  26.818   8.555
 6565POPC   D2A15616   4.286  26.803   8.255
 6565POPC   C3A15617   4.361  26.852   7.955
 6565POPC   C4A15618   4.330  26.809   7.655
 6565POPC   C1B15619   4.533  26.744   8.555
 6565POPC   C2B15620   4.533  26.683   8.255
 6565POPC   C3B15621   4.561  26.657   7.955
 6565POPC   C4B15622   4.581  26.662   7.655
 6566POPC   NC315623  19.037  18.247   9.455
 6566POPC   PO415624  19.023  18.241   9.155
 6566POPC   GL115625  19.093  18.287   8.855
 6566POPC   GL215626  19.180  18.210   8.855
 6566POPC   C1A15627  19.097  18.265   8.555
 6566POPC   D2A15628  19.100  18.291   8.255
 6566POPC   C3A15629  19.016  18.279   7.955
 6566POPC   C4A15630  19.067  18.247   7.655
 6566POPC   C1B15631  19.284  18.127   8.555
 6566POPC   C2B15632  19.258  18.136   8.255
 6566POPC   C3B15633  19.255  18.137   7.955
 6566POPC   C4B15634  19.224  18.136   7.655
 6567POPC   NC315635  38.462  37.680   9.455
 6567POPC   PO415636  38.495  37.673   9.155
 6567POPC   GL115637  38.500  37.634   8.855
 6567POPC   GL215638  38.445  37.757   8.855
 6567POPC   C1A15639  38.419  37.721   8.555
 6567POPC   D2A15640  38.430  37.639   8.255
 6567POPC   C3A15641  38.489  37.721   7.955
 6567POPC   C4A15642  38.478  37.699   7.655
 6567POPC   C1B15643  38.543  37.937   8.555
 6567POPC   C2B15644  38.492  37.930   8.255
 6567POPC   C3B15645  38.514  37.895   7.955
 6567POPC   C4B15646  38.545  37.914   7.655
 6568POPC   NC315647   7.432  27.547   9.455
 6568POPC   PO415648   7.395  27.582   9.155
 6568POPC   GL115649   7.427  27.601   8.855
 6568POPC   GL215650   7.462  27.733   8.855
 6568POPC   C1A15651   7.424  27.577   8.555
 6568POPC   D2A15652   7.414  27.610   8.255
 6568POPC   C3A15653   7.444  27.639   7.955
 6568POPC   C4A15654   7.442  27.612   7.655
 6568POPC   C1B15655   7.576  27.812   8.555
 6568POPC   C2B15656   7.577  27.819   8.255
 6568POPC   C3B15657   7.597  27.786   7.955
 6568POPC   C4B15658   7.530  27.789   7.655
 6569POPC   NC315659  26.859  33.062   9.455
 6569POPC   PO415660  26.786  32.986   9.155
 6569POPC   GL115661  26.824  33.033   8.855
 6569POPC   GL215662  26.668  32.945   8.855
 6569POPC   C1A15663  26.797  33.000   8.555
 6569POPC   D2A15664  26.781  33.021   8.255
 6569POPC   C3A15665  26.832  33.023   7.955
 6569POPC   C4A15666  26.808  33.041   7.655
 6569POPC   C1B15667  26.613  32.944   8.555
 6569POPC   C2B15668  26.581  32.942   8.255
 6569POPC   C3B15669  26.597  32.867   7.955
 6569POPC   C4B15670  26.621  32.958   7.655
 6570POPC   NC315671  41.550  19.848   9.455
 6570POPC   PO415672  41.598  19.805   9.155
 6570POPC   GL115673  41.565  19.849   8.855
 6570POPC   GL215674  41.653  19.802   8.855
 6570POPC   C1A15675  41.561  19.840   8.555
 6570POPC   D2A15676  41.569  19.882   8.255
 6570POPC   C3A15677  41.523  19.787   7.955
 6570POPC   C4A15678  41.531  19.868   7.655
 6570POPC   C1B15679  41.857  19.835   8.555
 6570POPC   C2B15680  41.814  19.828   8.255
 6570POPC   C3B15681  41.827  19.824   7.955
 6570POPC   C4B15682  41.790  19.796   7.655
 6571POPC   NC315683  43.155  43.119   9.455
 6571POPC   PO415684  43.087  43.105   9.155
 6571POPC   GL115685  43.096  43.075   8.855
 6571POPC   GL215686  43.130  43.046   8.855
 6571POPC   C1A15687  43.080  43.086   8.555
 6571POPC   D2A15688  43.113  43.158   8.255
 6571POPC   C3A15689  43.071  43.103   7.955
 6571POPC   C4A15690  43.112  43.136   7.655
 6571POPC   C1B15691  43.246  42.855   8.555
 6571POPC   C2B15692  43.274  42.933   8.255
 6571POPC   C3B15693  43.235  42.916   7.955
 6571POPC   C4B15694  43.231  42.845   7.655
 6572POPC   NC315695  12.075  23.707   9.455
 6572POPC   PO415696  12.042  23.744   9.155
 6572POPC   GL115697  12.076  23.721   8.855
 6572POPC   GL215698  11.952  23.762   8.855
 6572POPC   C1A15699  12.029  23.758   8.555
 6572POPC   D2A15700  12.103  23.719   8.255
 6572POPC   C3A15701  12.089  23.686   7.955
 6572POPC   C4A15702  12.045  23.711   7.655
 6572POPC   C1B15703  11.822  23.804   8.555
 6572POPC   C2B15704  11.872  23.864   8.255
 6572POPC   C3B15705  11.877  23.806   7.955
 6572POPC   C4B15706  11.811  23.856   7.655
 6573POPC   NC315707   5.098  33.811   9.455
 6573POPC   PO415708   5.074  33.834   9.155
 6573POPC   GL115709   5.105  33.776   8.855
 6573POPC   GL215710   5.072  33.683   8.855
 6573POPC   C1A15711   5.070  33.770   8.555
 6573POPC   D2A15712   5.122  33.772   8.255
 6573POPC   C3A15713   5.085  33.793   7.955
 6573POPC   C4A15714   5.087  33.751   7.655
 6573POPC   C1B15715   4.998  33.573   8.555
 6573POPC   C2B15716   4.958  33.568   8.255
 6573POPC   C3B15717   4.983  33.620   7.955
 6573POPC   C4B15718   5.017  33.535   7.655
 6574POPC   NC315719  29.117  15.184   9.455
 6574POPC   PO415720  29.155  15.171   9.155
 6574POPC   GL115721  29.186  15.186   8.855
 6574POPC   GL215722  29.088  15.067   8.855
 6574POPC   C1A15723  29.187  15.165   8.555
 6574POPC   D2A15724  29.172  15.205   8.255
 6574POPC   C3A15725  29.189  15.130   7.955
 6574POPC   C4A15726  29.147  15.176   7.655
 6574POPC   C1B15727  29.143  14.962   8.555
 6574POPC   C2B15728  29.076  14.964   8.255
 6574POPC   C3B15729  29.160  14.960   7.955
 6574POPC   C4B15730  29.071  14.911   7.655
 6575POPC   NC315731  22.132  15.135   9.455
 6575POPC   PO415732  22.163  15.136   9.155
 6575POPC   GL115733  22.118  15.138   8.855
 6575POPC   GL215734  22.132  15.298   8.855
 6575POPC   C1A15735  22.166  15.155   8.555
 6575POPC   D2A15736  22.165  15.161   8.255
 6575POPC   C3A15737  22.133  15.223   7.955
 6575POPC   C4A15738  22.170  15.209   7.655
 6575POPC   C1B15739  22.095  15.367   8.555
 6575POPC   C2B15740  22.066  15.440   8.255
 6575POPC   C3B15741  22.098  15.459   7.955
 6575POPC   C4B15742  22.077  15.425   7.655
 6576POPC   NC315743  34.537  21.353   9.455
 6576POPC   PO415744  34.616  21.392   9.155
 6576POPC   GL115745  34.591  21.365   8.855
 6576POPC   GL215746  34.509  21.298   8.855
 6576POPC   C1A15747  34.608  21.417   8.555
 6576POPC   D2A15748  34.547  21.389   8.255
 6576POPC   C3A15749  34.526  21.392   7.955
 6576POPC   C4A15750  34.532  21.343   7.655
 6576POPC   C1B15751  34.519  21.151   8.555
 6576POPC   C2B15752  34.500  21.110   8.255
 6576POPC   C3B15753  34.537  21.145   7.955
 6576POPC   C4B15754  34.490  21.122   7.655
 6577POPC   NC315755  18.305   9.743   9.455
 6577POPC   PO415756  18.264   9.756   9.155
 6577POPC   GL115757  18.302   9.778   8.855
 6577POPC   GL215758  18.219   9.619   8.855
 6577POPC   C1A15759  18.300   9.714   8.555
 6577POPC   D2A15760  18.267   9.760   8.255
 6577POPC   C3A15761  18.324   9.734   7.955
 6577POPC   C4A15762  18.266   9.715   7.655
 6577POPC   C1B15763  18.122   9.587   8.555
 6577POPC   C2B15764  18.092   9.556   8.255
 6577POPC   C3B15765  18.172   9.522   7.955
 6577POPC   C4B15766  18.171   9.570   7.655
 6578POPC   NC315767   6.646  19.845   9.455
 6578POPC   PO415768   6.646  19.844   9.155
 6578POPC   GL115769   6.613  19.785   8.855
 6578POPC   GL215770   6.786  19.749   8.855
 6578POPC   C1A15771   6.662  19.877   8.555
 6578POPC   D2A15772   6.675  19.835   8.255
 6578POPC   C3A15773   6.626  19.857   7.955
 6578POPC   C4A15774   6.677  19.852   7.655
 6578POPC   C1B15775   6.813  19.689   8.555
 6578POPC   C2B15776   6.856  19.663   8.255
 6578POPC   C3B15777   6.863  19.627   7.955
 6578POPC   C4B15778   6.844  19.618   7.655
 6579POPC   NC315779  20.611   2.806   9.455
 6579POPC   PO415780  20.582   2.736   9.155
 6579POPC   GL115781  20.640   2.720   8.855
 6579POPC   GL215782  20.525   2.659   8.855
 6579POPC   C1A15783  20.614   2.787   8.555
 6579POPC   D2A15784  20.567   2.725   8.255
 6579POPC   C3A15785  20.640   2.734   7.955
 6579POPC   C4A15786  20.569   2.784   7.655
 6579POPC   C1B15787  20.436   2.541   8.555
 6579POPC   C2B15788  20.446   2.578   8.255
 6579POPC   C3B15789  20.443   2.580   7.955
 6579POPC   C4B15790  20.398   2.591   7.655
 6580POPC   NC315791   2.779  26.846   9.455
 6580POPC   PO415792   2.720  26.865   9.155
 6580POPC   GL115793   2.791  26.806   8.855
 6580POPC   GL215794   2.592  26.875   8.855
 6580POPC   C1A15795   2.788  26.847   8.555
 6580POPC   D2A15796   2.753  26.791   8.255
 6580POPC   C3A15797   2.806  26.777   7.955
 6580POPC   C4A15798   2.770  26.839   7.655
 6580POPC   C1B15799   2.503  26.872   8.555
 6580POPC   C2B15800   2.479  26.808   8.255
 6580POPC   C3B15801   2.563  26.815   7.955
 6580POPC   C4B15802   2.491  26.837   7.655
 6581POPC   NC315803   2.791  38.485   9.455
 6581POPC   PO415804   2.722  38.470   9.155
 6581POPC   GL115805   2.759  38.445   8.855
 6581POPC   GL215806   2.720  38.560   8.855
 6581POPC   C1A15807   2.754  38.417   8.555
 6581POPC   D2A15808   2.775  38.455   8.255
 6581POPC   C3A15809   2.802  38.476   7.955
 6581POPC   C4A15810   2.767  38.444   7.655
 6581POPC   C1B15811   2.583  38.670   8.555
 6581POPC   C2B15812   2.546  38.646   8.255
 6581POPC   C3B15813   2.630  38.592   7.955
 6581POPC   C4B15814   2.607  38.657   7.655
 6582POPC   NC315815  11.338  41.567   9.455
 6582POPC   PO415816  11.257  41.594   9.155
 6582POPC   GL115817  11.339  41.559   8.855
 6582POPC   GL215818  11.344  41.698   8.855
 6582POPC   C1A15819  11.258  41.519   8.555
 6582POPC   D2A15820  11.334  41.522   8.255
 6582POPC   C3A15821  11.257  41.526   7.955
 6582POPC   C4A15822  11.275  41.530   7.655
 6582POPC   C1B15823  11.333  41.761   8.555
 6582POPC   C2B15824  11.361  41.751   8.255
 6582POPC   C3B15825  11.358  41.791   7.955
 6582POPC   C4B15826  11.344  41.757   7.655
 6583POPC   NC315827  12.803  40.772   9.455
 6583POPC   PO415828  12.814  40.775   9.155
 6583POPC   GL115829  12.845  40.737   8.855
 6583POPC   GL215830  12.869  40.615   8.855
 6583POPC   C1A15831  12.819  40.806   8.555
 6583POPC   D2A15832  12.864  40.751   8.255
 6583POPC   C3A15833  12.888  40.794   7.955
 6583POPC   C4A15834  12.858  40.783   7.655
 6583POPC   C1B15835  12.879  40.537   8.555
 6583POPC   C2B15836  12.867  40.526   8.255
 6583POPC   C3B15837  12.943  40.587   7.955
 6583POPC   C4B15838  12.912  40.550   7.655
 6584POPC   NC315839  24.453  35.386   9.455
 6584POPC   PO415840  24.443  35.396   9.155
 6584POPC   GL115841  24.482  35.333   8.855
 6584POPC   GL215842  24.557  35.485   8.855
 6584POPC   C1A15843  24.488  35.361   8.555
 6584POPC   D2A15844  24.479  35.306   8.255
 6584POPC   C3A15845  24.520  35.348   7.955
 6584POPC   C4A15846  24.511  35.305   7.655
 6584POPC   C1B15847  24.600  35.545   8.555
 6584POPC   C2B15848  24.574  35.576   8.255
 6584POPC   C3B15849  24.519  35.543   7.955
 6584POPC   C4B15850  24.552  35.549   7.655
 6585POPC   NC315851   4.291  41.550   9.455
 6585POPC   PO415852   4.356  41.598   9.155
 6585POPC   GL115853   4.333  41.580   8.855
 6585POPC   GL215854   4.174  41.581   8.855
 6585POPC   C1A15855   4.311  41.587   8.555
 6585POPC   D2A15856   4.279  41.576   8.255
 6585POPC   C3A15857   4.345  41.570   7.955
 6585POPC   C4A15858   4.347  41.510   7.655
 6585POPC   C1B15859   4.045  41.652   8.555
 6585POPC   C2B15860   4.043  41.673   8.255
 6585POPC   C3B15861   4.088  41.593   7.955
 6585POPC   C4B15862   4.073  41.621   7.655
 6586POPC   NC315863  35.308  31.517   9.455
 6586POPC   PO415864  35.375  31.463   9.155
 6586POPC   GL115865  35.348  31.441   8.855
 6586POPC   GL215866  35.475  31.590   8.855
 6586POPC   C1A15867  35.391  31.494   8.555
 6586POPC   D2A15868  35.357  31.440   8.255
 6586POPC   C3A15869  35.393  31.481   7.955
 6586POPC   C4A15870  35.359  31.451   7.655
 6586POPC   C1B15871  35.499  31.621   8.555
 6586POPC   C2B15872  35.552  31.645   8.255
 6586POPC   C3B15873  35.472  31.684   7.955
 6586POPC   C4B15874  35.544  31.664   7.655
 6587POPC   NC315875   2.765   1.233   9.455
 6587POPC   PO415876   2.739   1.233   9.155
 6587POPC   GL115877   2.734   1.204   8.855
 6587POPC   GL215878   2.702   1.145   8.855
 6587POPC   C1A15879   2.748   1.259   8.555
 6587POPC   D2A15880   2.788   1.249   8.255
 6587POPC   C3A15881   2.798   1.222   7.955
 6587POPC   C4A15882   2.756   1.262   7.655
 6587POPC   C1B15883   2.553   1.085   8.555
 6587POPC   C2B15884   2.527   1.138   8.255
 6587POPC   C3B15885   2.546   1.062   7.955
 6587POPC   C4B15886   2.589   1.051   7.655
 6588POPC   NC315887  33.819   5.109   9.455
 6588POPC   PO415888  33.785   5.073   9.155
 6588POPC   GL115889  33.755   5.070   8.855
 6588POPC   GL215890  33.860   5.200   8.855
 6588POPC   C1A15891  33.846   5.085   8.555
 6588POPC   D2A15892  33.832   5.090   8.255
 6588POPC   C3A15893  33.774   5.123   7.955
 6588POPC   C4A15894  33.778   5.049   7.655
 6588POPC   C1B15895  33.909   5.302   8.555
 6588POPC   C2B15896  33.979   5.288   8.255
 6588POPC   C3B15897  33.955   5.296   7.955
 6588POPC   C4B15898  33.999   5.253   7.655
 6589POPC   NC315899  40.021  31.453   9.455
 6589POPC   PO415900  39.991  31.461   9.155
 6589POPC   GL115901  39.982  31.500   8.855
 6589POPC   GL215902  40.053  31.604   8.855
 6589POPC   C1A15903  39.967  31.440   8.555
 6589POPC   D2A15904  39.989  31.428   8.255
 6589POPC   C3A15905  39.972  31.431   7.955
 6589POPC   C4A15906  39.980  31.457   7.655
 6589POPC   C1B15907  40.039  31.730   8.555
 6589POPC   C2B15908  40.069  31.703   8.255
 6589POPC   C3B15909  40.067  31.696   7.955
 6589POPC   C4B15910  40.069  31.672   7.655
 6590POPC   NC315911  37.692  28.321   9.455
 6590POPC   PO415912  37.706  28.360   9.155
 6590POPC   GL115913  37.713  28.389   8.855
 6590POPC   GL215914  37.594  28.494   8.855
 6590POPC   C1A15915  37.660  28.418   8.555
 6590POPC   D2A15916  37.639  28.387   8.255
 6590POPC   C3A15917  37.707  28.418   7.955
 6590POPC   C4A15918  37.674  28.358   7.655
 6590POPC   C1B15919  37.574  28.623   8.555
 6590POPC   C2B15920  37.521  28.563   8.255
 6590POPC   C3B15921  37.617  28.642   7.955
 6590POPC   C4B15922  37.602  28.558   7.655
 6591POPC   NC315923  12.082  43.894   9.455
 6591POPC   PO415924  12.026  43.890   9.155
 6591POPC   GL115925  12.068  43.860   8.855
 6591POPC   GL215926  12.052  43.732   8.855
 6591POPC   C1A15927  12.098  43.864   8.555
 6591POPC   D2A15928  12.119  43.898   8.255
 6591POPC   C3A15929  12.064  43.898   7.955
 6591POPC   C4A15930  12.104  43.916   7.655
 6591POPC   C1B15931  12.007  43.657   8.555
 6591POPC   C2B15932  12.025  43.682   8.255
 6591POPC   C3B15933  12.036  43.640   7.955
 6591POPC   C4B15934  11.970  43.688   7.655
 6592POPC   NC315935  39.978  17.542   9.455
 6592POPC   PO415936  40.038  17.508   9.155
 6592POPC   GL115937  40.013  17.515   8.855
 6592POPC   GL215938  40.058  17.593   8.855
 6592POPC   C1A15939  40.009  17.485   8.555
 6592POPC   D2A15940  40.008  17.516   8.255
 6592POPC   C3A15941  39.998  17.517   7.955
 6592POPC   C4A15942  39.990  17.477   7.655
 6592POPC   C1B15943  40.152  17.718   8.555
 6592POPC   C2B15944  40.215  17.706   8.255
 6592POPC   C3B15945  40.175  17.700   7.955
 6592POPC   C4B15946  40.159  17.694   7.655
 6593POPC   NC315947  29.160  24.502   9.455
 6593POPC   PO415948  29.119  24.445   9.155
 6593POPC   GL115949  29.174  24.525   8.855
 6593POPC   GL215950  29.270  24.498   8.855
 6593POPC   C1A15951  29.192  24.442   8.555
 6593POPC   D2A15952  29.110  24.500   8.255
 6593POPC   C3A15953  29.145  24.524   7.955
 6593POPC   C4A15954  29.163  24.513   7.655
 6593POPC   C1B15955  29.354  24.507   8.555
 6593POPC   C2B15956  29.439  24.510   8.255
 6593POPC   C3B15957  29.399  24.548   7.955
 6593POPC   C4B15958  29.380  24.539   7.655
 6594POPC   NC315959  24.502   8.992   9.455
 6594POPC   PO415960  24.459   8.969   9.155
 6594POPC   GL115961  24.527   8.979   8.855
 6594POPC   GL215962  24.427   9.068   8.855
 6594POPC   C1A15963  24.492   8.943   8.555
 6594POPC   D2A15964  24.536   8.978   8.255
 6594POPC   C3A15965  24.461   8.944   7.955
 6594POPC   C4A15966  24.523   8.979   7.655
 6594POPC   C1B15967  24.302   9.175   8.555
 6594POPC   C2B15968  24.307   9.188   8.255
 6594POPC   C3B15969  24.313   9.172   7.955
 6594POPC   C4B15970  24.375   9.158   7.655
 6595POPC   NC315971  42.312  32.217   9.455
 6595POPC   PO415972  42.349  32.286   9.155
 6595POPC   GL115973  42.324  32.205   8.855
 6595POPC   GL215974  42.260  32.165   8.855
 6595POPC   C1A15975  42.304  32.291   8.555
 6595POPC   D2A15976  42.294  32.244   8.255
 6595POPC   C3A15977  42.355  32.218   7.955
 6595POPC   C4A15978  42.351  32.215   7.655
 6595POPC   C1B15979  42.232  32.016   8.555
 6595POPC   C2B15980  42.195  31.994   8.255
 6595POPC   C3B15981  42.177  32.044   7.955
 6595POPC   C4B15982  42.186  32.042   7.655
 6596POPC   NC315983   4.330  13.674   9.455
 6596POPC   PO415984   4.336  13.605   9.155
 6596POPC   GL115985   4.343  13.616   8.855
 6596POPC   GL215986   4.239  13.552   8.855
 6596POPC   C1A15987   4.364  13.592   8.555
 6596POPC   D2A15988   4.272  13.618   8.255
 6596POPC   C3A15989   4.316  13.578   7.955
 6596POPC   C4A15990   4.342  13.617   7.655
 6596POPC   C1B15991   4.153  13.409   8.555
 6596POPC   C2B15992   4.175  13.425   8.255
 6596POPC   C3B15993   4.103  13.425   7.955
 6596POPC   C4B15994   4.201  13.449   7.655
 6597POPC   NC315995  19.019  33.056   9.455
 6597POPC   PO415996  19.108  33.059   9.155
 6597POPC   GL115997  19.076  33.000   8.855
 6597POPC   GL215998  19.092  32.953   8.855
 6597POPC   C1A15999  19.068  33.002   8.555
 6597POPC   D2A16000  19.065  33.023   8.255
 6597POPC   C3A16001  19.057  32.974   7.955
 6597POPC   C4A16002  19.103  33.072   7.655
 6597POPC   C1B16003  19.255  32.785   8.555
 6597POPC   C2B16004  19.194  32.822   8.255
 6597POPC   C3B16005  19.265  32.799   7.955
 6597POPC   C4B16006  19.176  32.872   7.655
 6598POPC   NC316007  43.101  25.260   9.455
 6598POPC   PO416008  43.155  25.226   9.155
 6598POPC   GL116009  43.136  25.228   8.855
 6598POPC   GL216010  43.252  25.232   8.855
 6598POPC   C1A16011  43.074  25.314   8.555
 6598POPC   D2A16012  43.074  25.216   8.255
 6598POPC   C3A16013  43.139  25.226   7.955
 6598POPC   C4A16014  43.092  25.245   7.655
 6598POPC   C1B16015  43.323  25.251   8.555
 6598POPC   C2B16016  43.350  25.236   8.255
 6598POPC   C3B16017  43.327  25.226   7.955
 6598POPC   C4B16018  43.312  25.243   7.655
 6599POPC   NC316019   0.429  36.097   9.455
 6599POPC   PO416020   0.453  36.120   9.155
 6599POPC   GL116021   0.395  36.119   8.855
 6599POPC   GL216022   0.417  36.253   8.855
 6599POPC   C1A16023   0.395  36.169   8.555
 6599POPC   D2A16024   0.482  36.101   8.255
 6599POPC   C3A16025   0.480  36.094   7.955
 6599POPC   C4A16026   0.481  36.113   7.655
 6599POPC   C1B16027   0.368  36.376   8.555
 6599POPC   C2B16028   0.373  36.350   8.255
 6599POPC   C3B16029   0.324  36.320   7.955
 6599POPC   C4B16030   0.382  36.344   7.655
 6600POPC   NC316031  27.561  30.714   9.455
 6600POPC   PO416032  27.573  30.662   9.155
 6600POPC   GL116033  27.559  30.737   8.855
 6600POPC   GL216034  27.714  30.697   8.855
 6600POPC   C1A16035  27.601  30.713   8.555
 6600POPC   D2A16036  27.629  30.733   8.255
 6600POPC   C3A16037  27.607  30.726   7.955
 6600POPC   C4A16038  27.546  30.726   7.655
 6600POPC   C1B16039  27.839  30.722   8.555
 6600POPC   C2B16040  27.857  30.698   8.255
 6600POPC   C3B16041  27.889  30.704   7.955
 6600POPC   C4B16042  27.845  30.690   7.655
 6601POPC   NC316043  22.137  38.461   9.455
 6601POPC   PO416044  22.152  38.496   9.155
 6601POPC   GL116045  22.157  38.475   8.855
 6601POPC   GL216046  22.054  38.582   8.855
 6601POPC   C1A16047  22.197  38.480   8.555
 6601POPC   D2A16048  22.193  38.415   8.255
 6601POPC   C3A16049  22.142  38.433   7.955
 6601POPC   C4A16050  22.124  38.448   7.655
 6601POPC   C1B16051  21.932  38.655   8.555
 6601POPC   C2B16052  21.974  38.654   8.255
 6601POPC   C3B16053  21.985  38.635   7.955
 6601POPC   C4B16054  22.003  38.650   7.655
 6602POPC   NC316055   0.394  39.247   9.455
 6602POPC   PO416056   0.465  39.261   9.155
 6602POPC   GL116057   0.478  39.222   8.855
 6602POPC   GL216058   0.509  39.244   8.855
 6602POPC   C1A16059   0.394  39.228   8.555
 6602POPC   D2A16060   0.484  39.215   8.255
 6602POPC   C3A16061   0.480  39.246   7.955
 6602POPC   C4A16062   0.411  39.206   7.655
 6602POPC   C1B16063   0.633  39.311   8.555
 6602POPC   C2B16064   0.691  39.362   8.255
 6602POPC   C3B16065   0.675  39.324   7.955
 6602POPC   C4B16066   0.723  39.325   7.655
 6603POPC   NC316067  41.562  28.334   9.455
 6603POPC   PO416068  41.524  28.403   9.155
 6603POPC   GL116069  41.600  28.350   8.855
 6603POPC   GL216070  41.651  28.277   8.855
 6603POPC   C1A16071  41.587  28.353   8.555
 6603POPC   D2A16072  41.551  28.321   8.255
 6603POPC   C3A16073  41.603  28.380   7.955
 6603POPC   C4A16074  41.512  28.323   7.655
 6603POPC   C1B16075  41.757  28.250   8.555
 6603POPC   C2B16076  41.746  28.302   8.255
 6603POPC   C3B16077  41.821  28.321   7.955
 6603POPC   C4B16078  41.755  28.306   7.655
 6604POPC   NC316079  17.476  11.306   9.455
 6604POPC   PO416080  17.504  11.262   9.155
 6604POPC   GL116081  17.495  11.260   8.855
 6604POPC   GL216082  17.452  11.382   8.855
 6604POPC   C1A16083  17.487  11.306   8.555
 6604POPC   D2A16084  17.475  11.302   8.255
 6604POPC   C3A16085  17.546  11.318   7.955
 6604POPC   C4A16086  17.471  11.320   7.655
 6604POPC   C1B16087  17.322  11.512   8.555
 6604POPC   C2B16088  17.355  11.505   8.255
 6604POPC   C3B16089  17.318  11.503   7.955
 6604POPC   C4B16090  17.337  11.451   7.655
 6605POPC   NC316091   8.991  26.811   9.455
 6605POPC   PO416092   8.984  26.780   9.155
 6605POPC   GL116093   8.960  26.796   8.855
 6605POPC   GL216094   8.986  26.969   8.855
 6605POPC   C1A16095   8.978  26.814   8.555
 6605POPC   D2A16096   8.948  26.788   8.255
 6605POPC   C3A16097   9.010  26.813   7.955
 6605POPC   C4A16098   8.987  26.834   7.655
 6605POPC   C1B16099   8.964  27.031   8.555
 6605POPC   C2B16100   9.032  27.115   8.255
 6605POPC   C3B16101   8.987  27.037   7.955
 6605POPC   C4B16102   9.004  27.099   7.655
 6606POPC   NC316103  33.032   9.786   9.455
 6606POPC   PO416104  33.002   9.778   9.155
 6606POPC   GL116105  33.007   9.759   8.855
 6606POPC   GL216106  32.972   9.831   8.855
 6606POPC   C1A16107  32.979   9.775   8.555
 6606POPC   D2A16108  33.039   9.702   8.255
 6606POPC   C3A16109  33.035   9.755   7.955
 6606POPC   C4A16110  33.012   9.797   7.655
 6606POPC   C1B16111  32.861   9.895   8.555
 6606POPC   C2B16112  32.819   9.925   8.255
 6606POPC   C3B16113  32.794   9.879   7.955
 6606POPC   C4B16114  32.791   9.934   7.655
 6607POPC   NC316115   2.808  21.351   9.455
 6607POPC   PO416116   2.744  21.362   9.155
 6607POPC   GL116117   2.803  21.374   8.855
 6607POPC   GL216118   2.835  21.294   8.855
 6607POPC   C1A16119   2.744  21.422   8.555
 6607POPC   D2A16120   2.783  21.354   8.255
 6607POPC   C3A16121   2.725  21.408   7.955
 6607POPC   C4A16122   2.786  21.408   7.655
 6607POPC   C1B16123   2.902  21.184   8.555
 6607POPC   C2B16124   2.961  21.227   8.255
 6607POPC   C3B16125   2.920  21.223   7.955
 6607POPC   C4B16126   2.921  21.196   7.655
 6608POPC   NC316127   3.572  22.906   9.455
 6608POPC   PO416128   3.582  22.903   9.155
 6608POPC   GL116129   3.562  22.900   8.855
 6608POPC   GL216130   3.626  22.990   8.855
 6608POPC   C1A16131   3.589  22.906   8.555
 6608POPC   D2A16132   3.556  22.980   8.255
 6608POPC   C3A16133   3.581  22.960   7.955
 6608POPC   C4A16134   3.517  22.904   7.655
 6608POPC   C1B16135   3.738  23.068   8.555
 6608POPC   C2B16136   3.738  23.083   8.255
 6608POPC   C3B16137   3.760  23.120   7.955
 6608POPC   C4B16138   3.786  23.121   7.655
 6609POPC   NC316139  28.385  41.543   9.455
 6609POPC   PO416140  28.406  41.509   9.155
 6609POPC   GL116141  28.368  41.547   8.855
 6609POPC   GL216142  28.435  41.683   8.855
 6609POPC   C1A16143  28.337  41.608   8.555
 6609POPC   D2A16144  28.396  41.574   8.255
 6609POPC   C3A16145  28.354  41.541   7.955
 6609POPC   C4A16146  28.356  41.600   7.655
 6609POPC   C1B16147  28.406  41.760   8.555
 6609POPC   C2B16148  28.398  41.757   8.255
 6609POPC   C3B16149  28.452  41.759   7.955
 6609POPC   C4B16150  28.469  41.750   7.655
 6610POPC   NC316151   5.093   1.209   9.455
 6610POPC   PO416152   5.080   1.183   9.155
 6610POPC   GL116153   5.138   1.192   8.855
 6610POPC   GL216154   5.198   1.352   8.855
 6610POPC   C1A16155   5.138   1.186   8.555
 6610POPC   D2A16156   5.134   1.225   8.255
 6610POPC   C3A16157   5.067   1.257   7.955
 6610POPC   C4A16158   5.096   1.210   7.655
 6610POPC   C1B16159   5.258   1.399   8.555
 6610POPC   C2B16160   5.242   1.408   8.255
 6610POPC   C3B16161   5.280   1.352   7.955
 6610POPC   C4B16162   5.245   1.351   7.655
 6611POPC   NC316163   5.129  26.014   9.455
 6611POPC   PO416164   5.098  26.060   9.155
 6611POPC   GL116165   5.132  26.027   8.855
 6611POPC   GL216166   5.075  25.914   8.855
 6611POPC   C1A16167   5.096  26.079   8.555
 6611POPC   D2A16168   5.132  26.021   8.255
 6611POPC   C3A16169   5.121  26.004   7.955
 6611POPC   C4A16170   5.084  26.028   7.655
 6611POPC   C1B16171   5.049  25.846   8.555
 6611POPC   C2B16172   5.003  25.854   8.255
 6611POPC   C3B16173   5.046  25.778   7.955
 6611POPC   C4B16174   4.964  25.836   7.655
 6612POPC   NC316175  38.477  42.306   9.455
 6612POPC   PO416176  38.492  42.303   9.155
 6612POPC   GL116177  38.500  42.310   8.855
 6612POPC   GL216178  38.354  42.388   8.855
 6612POPC   C1A16179  38.436  42.373   8.555
 6612POPC   D2A16180  38.432  42.338   8.255
 6612POPC   C3A16181  38.427  42.305   7.955
 6612POPC   C4A16182  38.504  42.299   7.655
 6612POPC   C1B16183  38.246  42.326   8.555
 6612POPC   C2B16184  38.166  42.411   8.255
 6612POPC   C3B16185  38.191  42.337   7.955
 6612POPC   C4B16186  38.249  42.326   7.655
 6613POPC   NC316187  16.720  43.914   9.455
 6613POPC   PO416188  16.739  43.868   9.155
 6613POPC   GL116189  16.759  43.907   8.855
 6613POPC   GL216190  16.667  43.920   8.855
 6613POPC   C1A16191  16.711  43.865   8.555
 6613POPC   D2A16192  16.693  43.849   8.255
 6613POPC   C3A16193  16.712  43.926   7.955
 6613POPC   C4A16194  16.683  43.874   7.655
 6613POPC   C1B16195  16.503  44.071   8.555
 6613POPC   C2B16196  16.483  44.059   8.255
 6613POPC   C3B16197  16.519  44.069   7.955
 6613POPC   C4B16198  16.569  44.011   7.655
 6614POPC   NC316199  42.365  39.270   9.455
 6614POPC   PO416200  42.339  39.244   9.155
 6614POPC   GL116201  42.306  39.192   8.855
 6614POPC   GL216202  42.258  39.141   8.855
 6614POPC   C1A16203  42.340  39.281   8.555
 6614POPC   D2A16204  42.310  39.183   8.255
 6614POPC   C3A16205  42.344  39.207   7.955
 6614POPC   C4A16206  42.287  39.205   7.655
 6614POPC   C1B16207  42.269  38.980   8.555
 6614POPC   C2B16208  42.314  39.018   8.255
 6614POPC   C3B16209  42.308  38.946   7.955
 6614POPC   C4B16210  42.253  39.021   7.655
 6615POPC   NC316211  36.105   3.562   9.455
 6615POPC   PO416212  36.149   3.551   9.155
 6615POPC   GL116213  36.139   3.523   8.855
 6615POPC   GL216214  36.157   3.651   8.855
 6615POPC   C1A16215  36.130   3.496   8.555
 6615POPC   D2A16216  36.086   3.575   8.255
 6615POPC   C3A16217  36.103   3.519   7.955
 6615POPC   C4A16218  36.101   3.584   7.655
 6615POPC   C1B16219  36.190   3.832   8.555
 6615POPC   C2B16220  36.182   3.816   8.255
 6615POPC   C3B16221  36.199   3.782   7.955
 6615POPC   C4B16222  36.123   3.836   7.655
 6616POPC   NC316223  29.105   9.015   9.455
 6616POPC   PO416224  29.139   8.942   9.155
 6616POPC   GL116225  29.159   9.007   8.855
 6616POPC   GL216226  29.120   9.042   8.855
 6616POPC   C1A16227  29.162   8.940   8.555
 6616POPC   D2A16228  29.125   8.978   8.255
 6616POPC   C3A16229  29.128   8.949   7.955
 6616POPC   C4A16230  29.188   9.009   7.655
 6616POPC   C1B16231  28.999   9.173   8.555
 6616POPC   C2B16232  29.036   9.154   8.255
 6616POPC   C3B16233  29.018   9.191   7.955
 6616POPC   C4B16234  28.966   9.162   7.655
 6617POPC   NC316235  43.888  34.570   9.455
 6617POPC   PO416236  43.911  34.583   9.155
 6617POPC   GL116237  43.904  34.542   8.855
 6617POPC   GL216238  43.778  34.638   8.855
 6617POPC   C1A16239  43.845  34.606   8.555
 6617POPC   D2A16240  43.919  34.549   8.255
 6617POPC   C3A16241  43.860  34.561   7.955
 6617POPC   C4A16242  43.850  34.560   7.655
 6617POPC   C1B16243  43.642  34.688   8.555
 6617POPC   C2B16244  43.627  34.714   8.255
 6617POPC   C3B16245  43.681  34.707   7.955
 6617POPC   C4B16246  43.665  34.696   7.655
 6618POPC   NC316247  11.261  43.122   9.455
 6618POPC   PO416248  11.265  43.137   9.155
 6618POPC   GL116249  11.260  43.152   8.855
 6618POPC   GL216250  11.387  42.988   8.855
 6618POPC   C1A16251  11.255  43.128   8.555
 6618POPC   D2A16252  11.284  43.123   8.255
 6618POPC   C3A16253  11.267  43.112   7.955
 6618POPC   C4A16254  11.271  43.138   7.655
 6618POPC   C1B16255  11.517  42.999   8.555
 6618POPC   C2B16256  11.543  43.003   8.255
 6618POPC   C3B16257  11.465  42.955   7.955
 6618POPC   C4B16258  11.465  42.920   7.655
 6619POPC   NC316259   5.060  18.320   9.455
 6619POPC   PO416260   5.099  18.237   9.155
 6619POPC   GL116261   5.084  18.326   8.855
 6619POPC   GL216262   5.037  18.406   8.855
 6619POPC   C1A16263   5.098  18.234   8.555
 6619POPC   D2A16264   5.082  18.266   8.255
 6619POPC   C3A16265   5.131  18.295   7.955
 6619POPC   C4A16266   5.077  18.272   7.655
 6619POPC   C1B16267   4.880  18.410   8.555
 6619POPC   C2B16268   4.935  18.409   8.255
 6619POPC   C3B16269   4.893  18.445   7.955
 6619POPC   C4B16270   4.874  18.435   7.655
 6620POPC   NC316271  32.290   2.747   9.455
 6620POPC   PO416272  32.214   2.796   9.155
 6620POPC   GL116273  32.283   2.717   8.855
 6620POPC   GL216274  32.307   2.674   8.855
 6620POPC   C1A16275  32.236   2.784   8.555
 6620POPC   D2A16276  32.217   2.720   8.255
 6620POPC   C3A16277  32.207   2.762   7.955
 6620POPC   C4A16278  32.241   2.758   7.655
 6620POPC   C1B16279  32.355   2.585   8.555
 6620POPC   C2B16280  32.350   2.575   8.255
 6620POPC   C3B16281  32.422   2.514   7.955
 6620POPC   C4B16282  32.396   2.576   7.655
 6621POPC   NC316283  17.528  12.123   9.455
 6621POPC   PO416284  17.531  12.069   9.155
 6621POPC   GL116285  17.556  12.031   8.855
 6621POPC   GL216286  17.556  12.151   8.855
 6621POPC   C1A16287  17.464  12.101   8.555
 6621POPC   D2A16288  17.478  12.112   8.255
 6621POPC   C3A16289  17.516  12.107   7.955
 6621POPC   C4A16290  17.508  12.083   7.655
 6621POPC   C1B16291  17.680  12.311   8.555
 6621POPC   C2B16292  17.629  12.318   8.255
 6621POPC   C3B16293  17.679  12.278   7.955
 6621POPC   C4B16294  17.619  12.280   7.655
 6622POPC   NC316295   8.218  16.757   9.455
 6622POPC   PO416296   8.176  16.764   9.155
 6622POPC   GL116297   8.194  16.710   8.855
 6622POPC   GL216298   8.226  16.593   8.855
 6622POPC   C1A16299   8.219  16.757   8.555
 6622POPC   D2A16300   8.202  16.716   8.255
 6622POPC   C3A16301   8.171  16.729   7.955
 6622POPC   C4A16302   8.181  16.715   7.655
 6622POPC   C1B16303   8.310  16.520   8.555
 6622POPC   C2B16304   8.365  16.527   8.255
 6622POPC   C3B16305   8.364  16.469   7.955
 6622POPC   C4B16306   8.337  16.482   7.655
 6623POPC   NC316307  35.364  32.210   9.455
 6623POPC   PO416308  35.312  32.275   9.155
 6623POPC   GL116309  35.304  32.238   8.855
 6623POPC   GL216310  35.243  32.208   8.855
 6623POPC   C1A16311  35.365  32.290   8.555
 6623POPC   D2A16312  35.391  32.255   8.255
 6623POPC   C3A16313  35.367  32.288   7.955
 6623POPC   C4A16314  35.343  32.281   7.655
 6623POPC   C1B16315  35.129  32.234   8.555
 6623POPC   C2B16316  35.064  32.248   8.255
 6623POPC   C3B16317  35.144  32.209   7.955
 6623POPC   C4B16318  35.093  32.221   7.655
 6624POPC   NC316319  43.907  26.067   9.455
 6624POPC   PO416320  43.879  26.082   9.155
 6624POPC   GL116321  43.904  26.059   8.855
 6624POPC   GL216322  44.015  26.160   8.855
 6624POPC   C1A16323  43.895  26.011   8.555
 6624POPC   D2A16324  43.857  26.081   8.255
 6624POPC   C3A16325  43.924  26.051   7.955
 6624POPC   C4A16326  43.936  26.026   7.655
 6624POPC   C1B16327  44.031  26.233   8.555
 6624POPC   C2B16328  44.086  26.225   8.255
 6624POPC   C3B16329  44.094  26.239   7.955
 6624POPC   C4B16330  44.086  26.246   7.655
 6625POPC   NC316331   5.891  12.875   9.455
 6625POPC   PO416332   5.843  12.871   9.155
 6625POPC   GL116333   5.832  12.886   8.855
 6625POPC   GL216334   5.854  12.954   8.855
 6625POPC   C1A16335   5.841  12.833   8.555
 6625POPC   D2A16336   5.912  12.850   8.255
 6625POPC   C3A16337   5.909  12.896   7.955
 6625POPC   C4A16338   5.870  12.818   7.655
 6625POPC   C1B16339   5.842  13.094   8.555
 6625POPC   C2B16340   5.891  13.102   8.255
 6625POPC   C3B16341   5.924  13.078   7.955
 6625POPC   C4B16342   5.840  13.062   7.655
 6626POPC   NC316343  25.291  42.296   9.455
 6626POPC   PO416344  25.271  42.323   9.155
 6626POPC   GL116345  25.236  42.299   8.855
 6626POPC   GL216346  25.161  42.333   8.855
 6626POPC   C1A16347  25.242  42.308   8.555
 6626POPC   D2A16348  25.255  42.353   8.255
 6626POPC   C3A16349  25.244  42.341   7.955
 6626POPC   C4A16350  25.221  42.329   7.655
 6626POPC   C1B16351  25.019  42.429   8.555
 6626POPC   C2B16352  25.024  42.375   8.255
 6626POPC   C3B16353  25.065  42.447   7.955
 6626POPC   C4B16354  24.974  42.435   7.655
 6627POPC   NC316355  15.178   9.726   9.455
 6627POPC   PO416356  15.224   9.780   9.155
 6627POPC   GL116357  15.161   9.744   8.855
 6627POPC   GL216358  15.215   9.840   8.855
 6627POPC   C1A16359  15.208   9.753   8.555
 6627POPC   D2A16360  15.213   9.709   8.255
 6627POPC   C3A16361  15.181   9.708   7.955
 6627POPC   C4A16362  15.151   9.707   7.655
 6627POPC   C1B16363  15.193  10.041   8.555
 6627POPC   C2B16364  15.232  10.022   8.255
 6627POPC   C3B16365  15.153   9.967   7.955
 6627POPC   C4B16366  15.211   9.949   7.655
 6628POPC   NC316367   8.196  18.237   9.455
 6628POPC   PO416368   8.237  18.255   9.155
 6628POPC   GL116369   8.165  18.261   8.855
 6628POPC   GL216370   8.195  18.160   8.855
 6628POPC   C1A16371   8.203  18.256   8.555
 6628POPC   D2A16372   8.233  18.279   8.255
 6628POPC   C3A16373   8.153  18.292   7.955
 6628POPC   C4A16374   8.169  18.305   7.655
 6628POPC   C1B16375   8.107  18.030   8.555
 6628POPC   C2B16376   8.144  18.072   8.255
 6628POPC   C3B16377   8.111  18.077   7.955
 6628POPC   C4B16378   8.099  18.014   7.655
 6629POPC   NC316379  21.398  14.417   9.455
 6629POPC   PO416380  21.432  14.420   9.155
 6629POPC   GL116381  21.429  14.406   8.855
 6629POPC   GL216382  21.501  14.461   8.855
 6629POPC   C1A16383  21.434  14.444   8.555
 6629POPC   D2A16384  21.361  14.372   8.255
 6629POPC   C3A16385  21.379  14.368   7.955
 6629POPC   C4A16386  21.379  14.428   7.655
 6629POPC   C1B16387  21.630  14.568   8.555
 6629POPC   C2B16388  21.627  14.496   8.255
 6629POPC   C3B16389  21.601  14.555   7.955
 6629POPC   C4B16390  21.555  14.548   7.655
 6630POPC   NC316391  41.521  17.494   9.455
 6630POPC   PO416392  41.594  17.475   9.155
 6630POPC   GL116393  41.571  17.462   8.855
 6630POPC   GL216394  41.580  17.340   8.855
 6630POPC   C1A16395  41.567  17.496   8.555
 6630POPC   D2A16396  41.542  17.554   8.255
 6630POPC   C3A16397  41.578  17.533   7.955
 6630POPC   C4A16398  41.549  17.517   7.655
 6630POPC   C1B16399  41.571  17.236   8.555
 6630POPC   C2B16400  41.604  17.236   8.255
 6630POPC   C3B16401  41.511  17.228   7.955
 6630POPC   C4B16402  41.509  17.272   7.655
 6631POPC   NC316403  22.921  12.050   9.455
 6631POPC   PO416404  22.923  12.030   9.155
 6631POPC   GL116405  22.905  12.087   8.855
 6631POPC   GL216406  22.892  12.224   8.855
 6631POPC   C1A16407  22.891  12.096   8.555
 6631POPC   D2A16408  22.930  12.119   8.255
 6631POPC   C3A16409  22.985  12.095   7.955
 6631POPC   C4A16410  22.940  12.082   7.655
 6631POPC   C1B16411  22.778  12.298   8.555
 6631POPC   C2B16412  22.812  12.262   8.255
 6631POPC   C3B16413  22.818  12.276   7.955
 6631POPC   C4B16414  22.842  12.306   7.655
 6632POPC   NC316415  14.414  43.913   9.455
 6632POPC   PO416416  14.442  43.899   9.155
 6632POPC   GL116417  14.435  43.861   8.855
 6632POPC   GL216418  14.314  43.980   8.855
 6632POPC   C1A16419  14.415  43.934   8.555
 6632POPC   D2A16420  14.386  43.851   8.255
 6632POPC   C3A16421  14.360  43.841   7.955
 6632POPC   C4A16422  14.358  43.843   7.655
 6632POPC   C1B16423  14.335  44.076   8.555
 6632POPC   C2B16424  14.326  44.069   8.255
 6632POPC   C3B16425  14.311  44.079   7.955
 6632POPC   C4B16426  14.283  44.124   7.655
 6633POPC   NC316427  30.685  39.223   9.455
 6633POPC   PO416428  30.654  39.249   9.155
 6633POPC   GL116429  30.741  39.275   8.855
 6633POPC   GL216430  30.803  39.144   8.855
 6633POPC   C1A16431  30.732  39.259   8.555
 6633POPC   D2A16432  30.683  39.197   8.255
 6633POPC   C3A16433  30.737  39.202   7.955
 6633POPC   C4A16434  30.674  39.272   7.655
 6633POPC   C1B16435  30.832  39.044   8.555
 6633POPC   C2B16436  30.773  38.975   8.255
 6633POPC   C3B16437  30.829  39.014   7.955
 6633POPC   C4B16438  30.787  39.058   7.655
 6634POPC   NC316439  30.678  19.842   9.455
 6634POPC   PO416440  30.739  19.846   9.155
 6634POPC   GL116441  30.667  19.835   8.855
 6634POPC   GL216442  30.638  19.984   8.855
 6634POPC   C1A16443  30.704  19.830   8.555
 6634POPC   D2A16444  30.717  19.823   8.255
 6634POPC   C3A16445  30.735  19.864   7.955
 6634POPC   C4A16446  30.729  19.844   7.655
 6634POPC   C1B16447  30.611  20.022   8.555
 6634POPC   C2B16448  30.572  20.028   8.255
 6634POPC   C3B16449  30.595  20.092   7.955
 6634POPC   C4B16450  30.568  20.035   7.655
 6635POPC   NC316451   2.752   8.949   9.455
 6635POPC   PO416452   2.775   9.003   9.155
 6635POPC   GL116453   2.731   8.990   8.855
 6635POPC   GL216454   2.694   9.067   8.855
 6635POPC   C1A16455   2.808   8.948   8.555
 6635POPC   D2A16456   2.747   8.977   8.255
 6635POPC   C3A16457   2.761   8.948   7.955
 6635POPC   C4A16458   2.802   8.942   7.655
 6635POPC   C1B16459   2.740   9.227   8.555
 6635POPC   C2B16460   2.737   9.249   8.255
 6635POPC   C3B16461   2.717   9.175   7.955
 6635POPC   C4B16462   2.678   9.235   7.655
 6636POPC   NC316463  22.131  20.613   9.455
 6636POPC   PO416464  22.114  20.562   9.155
 6636POPC   GL116465  22.164  20.657   8.855
 6636POPC   GL216466  22.037  20.670   8.855
 6636POPC   C1A16467  22.126  20.623   8.555
 6636POPC   D2A16468  22.123  20.580   8.255
 6636POPC   C3A16469  22.164  20.600   7.955
 6636POPC   C4A16470  22.162  20.573   7.655
 6636POPC   C1B16471  21.980  20.834   8.555
 6636POPC   C2B16472  21.949  20.843   8.255
 6636POPC   C3B16473  22.002  20.757   7.955
 6636POPC   C4B16474  21.961  20.762   7.655
 6637POPC   NC316475  19.028  40.785   9.455
 6637POPC   PO416476  19.023  40.742   9.155
 6637POPC   GL116477  19.033  40.746   8.855
 6637POPC   GL216478  19.163  40.917   8.855
 6637POPC   C1A16479  19.030  40.761   8.555
 6637POPC   D2A16480  19.048  40.802   8.255
 6637POPC   C3A16481  19.061  40.776   7.955
 6637POPC   C4A16482  19.070  40.741   7.655
 6637POPC   C1B16483  19.200  40.987   8.555
 6637POPC   C2B16484  19.233  41.021   8.255
 6637POPC   C3B16485  19.245  40.962   7.955
 6637POPC   C4B16486  19.220  41.023   7.655
 6638POPC   NC316487   1.236  10.550   9.455
 6638POPC   PO416488   1.190  10.561   9.155
 6638POPC   GL116489   1.258  10.489   8.855
 6638POPC   GL216490   1.122  10.590   8.855
 6638POPC   C1A16491   1.174  10.535   8.555
 6638POPC   D2A16492   1.222  10.532   8.255
 6638POPC   C3A16493   1.246  10.529   7.955
 6638POPC   C4A16494   1.179  10.569   7.655
 6638POPC   C1B16495   1.023  10.638   8.555
 6638POPC   C2B16496   0.963  10.607   8.255
 6638POPC   C3B16497   0.964  10.631   7.955
 6638POPC   C4B16498   0.980  10.664   7.655
 6639POPC   NC316499  42.341   5.877   9.455
 6639POPC   PO416500  42.319   5.882   9.155
 6639POPC   GL116501  42.381   5.827   8.855
 6639POPC   GL216502  42.261   5.806   8.855
 6639POPC   C1A16503  42.378   5.834   8.555
 6639POPC   D2A16504  42.337   5.865   8.255
 6639POPC   C3A16505  42.362   5.849   7.955
 6639POPC   C4A16506  42.285   5.899   7.655
 6639POPC   C1B16507  42.173   5.718   8.555
 6639POPC   C2B16508  42.118   5.641   8.255
 6639POPC   C3B16509  42.152   5.711   7.955
 6639POPC   C4B16510  42.174   5.662   7.655
 6640POPC   NC316511  18.313  32.242   9.455
 6640POPC   PO416512  18.293  32.271   9.155
 6640POPC   GL116513  18.250  32.290   8.855
 6640POPC   GL216514  18.163  32.228   8.855
 6640POPC   C1A16515  18.309  32.233   8.555
 6640POPC   D2A16516  18.328  32.278   8.255
 6640POPC   C3A16517  18.255  32.270   7.955
 6640POPC   C4A16518  18.239  32.200   7.655
 6640POPC   C1B16519  18.047  32.135   8.555
 6640POPC   C2B16520  18.057  32.144   8.255
 6640POPC   C3B16521  18.030  32.117   7.955
 6640POPC   C4B16522  18.049  32.117   7.655
 6641POPC   NC316523  16.780  15.188   9.455
 6641POPC   PO416524  16.754  15.173   9.155
 6641POPC   GL116525  16.718  15.169   8.855
 6641POPC   GL216526  16.777  15.074   8.855
 6641POPC   C1A16527  16.694  15.179   8.555
 6641POPC   D2A16528  16.765  15.154   8.255
 6641POPC   C3A16529  16.712  15.194   7.955
 6641POPC   C4A16530  16.781  15.195   7.655
 6641POPC   C1B16531  16.746  14.967   8.555
 6641POPC   C2B16532  16.764  14.931   8.255
 6641POPC   C3B16533  16.767  14.920   7.955
 6641POPC   C4B16534  16.784  14.977   7.655
 6642POPC   NC316535  14.420  36.162   9.455
 6642POPC   PO416536  14.389  36.139   9.155
 6642POPC   GL116537  14.453  36.171   8.855
 6642POPC   GL216538  14.472  36.044   8.855
 6642POPC   C1A16539  14.399  36.121   8.555
 6642POPC   D2A16540  14.441  36.168   8.255
 6642POPC   C3A16541  14.399  36.078   7.955
 6642POPC   C4A16542  14.379  36.103   7.655
 6642POPC   C1B16543  14.629  35.960   8.555
 6642POPC   C2B16544  14.650  35.963   8.255
 6642POPC   C3B16545  14.585  36.013   7.955
 6642POPC   C4B16546  14.637  36.026   7.655
 6643POPC   NC316547  21.435  10.532   9.455
 6643POPC   PO416548  21.387  10.541   9.155
 6643POPC   GL116549  21.417  10.508   8.855
 6643POPC   GL216550  21.455  10.598   8.855
 6643POPC   C1A16551  21.357  10.519   8.555
 6643POPC   D2A16552  21.429  10.475   8.255
 6643POPC   C3A16553  21.388  10.500   7.955
 6643POPC   C4A16554  21.424  10.573   7.655
 6643POPC   C1B16555  21.631  10.649   8.555
 6643POPC   C2B16556  21.612  10.671   8.255
 6643POPC   C3B16557  21.631  10.654   7.955
 6643POPC   C4B16558  21.617  10.669   7.655
 6644POPC   NC316559   6.661  39.993   9.455
 6644POPC   PO416560   6.676  39.988   9.155
 6644POPC   GL116561   6.676  39.981   8.855
 6644POPC   GL216562   6.735  40.120   8.855
 6644POPC   C1A16563   6.679  40.046   8.555
 6644POPC   D2A16564   6.606  40.028   8.255
 6644POPC   C3A16565   6.624  39.976   7.955
 6644POPC   C4A16566   6.615  40.051   7.655
 6644POPC   C1B16567   6.746  40.261   8.555
 6644POPC   C2B16568   6.814  40.233   8.255
 6644POPC   C3B16569   6.763  40.226   7.955
 6644POPC   C4B16570   6.784  40.274   7.655
 6645POPC   NC316571  14.453   8.943   9.455
 6645POPC   PO416572  14.420   8.931   9.155
 6645POPC   GL116573  14.448   8.961   8.855
 6645POPC   GL216574  14.296   9.060   8.855
 6645POPC   C1A16575  14.432   8.967   8.555
 6645POPC   D2A16576  14.437   8.955   8.255
 6645POPC   C3A16577  14.397   8.923   7.955
 6645POPC   C4A16578  14.371   8.979   7.655
 6645POPC   C1B16579  14.134   9.049   8.555
 6645POPC   C2B16580  14.231   9.110   8.255
 6645POPC   C3B16581  14.209   9.077   7.955
 6645POPC   C4B16582  14.138   9.054   7.655
 6646POPC   NC316583  43.068  36.854   9.455
 6646POPC   PO416584  43.070  36.870   9.155
 6646POPC   GL116585  43.100  36.934   8.855
 6646POPC   GL216586  42.978  36.985   8.855
 6646POPC   C1A16587  43.159  36.918   8.555
 6646POPC   D2A16588  43.075  36.952   8.255
 6646POPC   C3A16589  43.076  36.906   7.955
 6646POPC   C4A16590  43.146  36.898   7.655
 6646POPC   C1B16591  42.860  37.015   8.555
 6646POPC   C2B16592  42.874  36.979   8.255
 6646POPC   C3B16593  42.833  37.019   7.955
 6646POPC   C4B16594  42.863  36.949   7.655
 6647POPC   NC316595   0.434  26.768   9.455
 6647POPC   PO416596   0.432  26.826   9.155
 6647POPC   GL116597   0.454  26.842   8.855
 6647POPC   GL216598   0.513  26.784   8.855
 6647POPC   C1A16599   0.419  26.782   8.555
 6647POPC   D2A16600   0.474  26.862   8.255
 6647POPC   C3A16601   0.464  26.780   7.955
 6647POPC   C4A16602   0.398  26.838   7.655
 6647POPC   C1B16603   0.682  26.753   8.555
 6647POPC   C2B16604   0.643  26.814   8.255
 6647POPC   C3B16605   0.672  26.846   7.955
 6647POPC   C4B16606   0.671  26.780   7.655
 6648POPC   NC316607  40.750  15.135   9.455
 6648POPC   PO416608  40.791  15.202   9.155
 6648POPC   GL116609  40.825  15.134   8.855
 6648POPC   GL216610  40.908  15.133   8.855
 6648POPC   C1A16611  40.779  15.179   8.555
 6648POPC   D2A16612  40.821  15.190   8.255
 6648POPC   C3A16613  40.814  15.164   7.955
 6648POPC   C4A16614  40.793  15.160   7.655
 6648POPC   C1B16615  41.020  14.978   8.555
 6648POPC   C2B16616  40.952  14.981   8.255
 6648POPC   C3B16617  40.974  15.069   7.955
 6648POPC   C4B16618  41.005  14.987   7.655
 6649POPC   NC316619   3.517  25.262   9.455
 6649POPC   PO416620   3.521  25.310   9.155
 6649POPC   GL116621   3.578  25.274   8.855
 6649POPC   GL216622   3.523  25.407   8.855
 6649POPC   C1A16623   3.578  25.273   8.555
 6649POPC   D2A16624   3.522  25.242   8.255
 6649POPC   C3A16625   3.549  25.249   7.955
 6649POPC   C4A16626   3.544  25.249   7.655
 6649POPC   C1B16627   3.516  25.540   8.555
 6649POPC   C2B16628   3.501  25.515   8.255
 6649POPC   C3B16629   3.543  25.479   7.955
 6649POPC   C4B16630   3.501  25.479   7.655
 6650POPC   NC316631   5.130  22.941   9.455
 6650POPC   PO416632   5.142  22.928   9.155
 6650POPC   GL116633   5.084  22.939   8.855
 6650POPC   GL216634   5.128  22.821   8.855
 6650POPC   C1A16635   5.051  22.977   8.555
 6650POPC   D2A16636   5.126  22.948   8.255
 6650POPC   C3A16637   5.116  22.958   7.955
 6650POPC   C4A16638   5.142  22.939   7.655
 6650POPC   C1B16639   5.106  22.736   8.555
 6650POPC   C2B16640   5.080  22.704   8.255
 6650POPC   C3B16641   5.091  22.684   7.955
 6650POPC   C4B16642   5.111  22.667   7.655
 6651POPC   NC316643  17.511  42.322   9.455
 6651POPC   PO416644  17.483  42.307   9.155
 6651POPC   GL116645  17.530  42.305   8.855
 6651POPC   GL216646  17.535  42.184   8.855
 6651POPC   C1A16647  17.464  42.342   8.555
 6651POPC   D2A16648  17.533  42.307   8.255
 6651POPC   C3A16649  17.545  42.302   7.955
 6651POPC   C4A16650  17.503  42.341   7.655
 6651POPC   C1B16651  17.619  42.087   8.555
 6651POPC   C2B16652  17.622  42.139   8.255
 6651POPC   C3B16653  17.604  42.142   7.955
 6651POPC   C4B16654  17.639  42.175   7.655
 6652POPC   NC316655   5.888   1.165   9.455
 6652POPC   PO416656   5.916   1.185   9.155
 6652POPC   GL116657   5.843   1.249   8.855
 6652POPC   GL216658   5.986   1.324   8.855
 6652POPC   C1A16659   5.856   1.164   8.555
 6652POPC   D2A16660   5.892   1.193   8.255
 6652POPC   C3A16661   5.845   1.236   7.955
 6652POPC   C4A16662   5.863   1.173   7.655
 6652POPC   C1B16663   6.082   1.354   8.555
 6652POPC   C2B16664   6.061   1.354   8.255
 6652POPC   C3B16665   6.036   1.389   7.955
 6652POPC   C4B16666   6.021   1.404   7.655
 6653POPC   NC316667  22.966   0.453   9.455
 6653POPC   PO416668  22.894   0.447   9.155
 6653POPC   GL116669  22.965   0.428   8.855
 6653POPC   GL216670  22.945   0.272   8.855
 6653POPC   C1A16671  22.919   0.473   8.555
 6653POPC   D2A16672  22.903   0.407   8.255
 6653POPC   C3A16673  22.987   0.414   7.955
 6653POPC   C4A16674  22.952   0.396   7.655
 6653POPC   C1B16675  22.968   0.146   8.555
 6653POPC   C2B16676  22.954   0.157   8.255
 6653POPC   C3B16677  22.995   0.231   7.955
 6653POPC   C4B16678  22.962   0.203   7.655
 6654POPC   NC316679  42.345  19.822   9.455
 6654POPC   PO416680  42.337  19.874   9.155
 6654POPC   GL116681  42.303  19.813   8.855
 6654POPC   GL216682  42.281  19.916   8.855
 6654POPC   C1A16683  42.373  19.869   8.555
 6654POPC   D2A16684  42.306  19.823   8.255
 6654POPC   C3A16685  42.297  19.828   7.955
 6654POPC   C4A16686  42.371  19.830   7.655
 6654POPC   C1B16687  42.097  20.036   8.555
 6654POPC   C2B16688  42.119  20.048   8.255
 6654POPC   C3B16689  42.188  19.996   7.955
 6654POPC   C4B16690  42.151  20.017   7.655
 6655POPC   NC316691  29.905  30.704   9.455
 6655POPC   PO416692  29.920  30.700   9.155
 6655POPC   GL116693  29.936  30.696   8.855
 6655POPC   GL216694  30.022  30.608   8.855
 6655POPC   C1A16695  29.872  30.741   8.555
 6655POPC   D2A16696  29.969  30.738   8.255
 6655POPC   C3A16697  29.945  30.732   7.955
 6655POPC   C4A16698  29.899  30.685   7.655
 6655POPC   C1B16699  30.050  30.508   8.555
 6655POPC   C2B16700  30.085  30.514   8.255
 6655POPC   C3B16701  30.110  30.521   7.955
 6655POPC   C4B16702  30.090  30.461   7.655
 6656POPC   NC316703  27.548  12.122   9.455
 6656POPC   PO416704  27.636  12.058   9.155
 6656POPC   GL116705  27.572  12.032   8.855
 6656POPC   GL216706  27.472  12.205   8.855
 6656POPC   C1A16707  27.633  12.043   8.555
 6656POPC   D2A16708  27.564  12.074   8.255
 6656POPC   C3A16709  27.574  12.063   7.955
 6656POPC   C4A16710  27.636  12.027   7.655
 6656POPC   C1B16711  27.432  12.318   8.555
 6656POPC   C2B16712  27.405  12.267   8.255
 6656POPC   C3B16713  27.410  12.261   7.955
 6656POPC   C4B16714  27.401  12.281   7.655
 6657POPC   NC316715  14.413   9.749   9.455
 6657POPC   PO416716  14.453   9.792   9.155
 6657POPC   GL116717  14.435   9.749   8.855
 6657POPC   GL216718  14.490   9.676   8.855
 6657POPC   C1A16719  14.386   9.783   8.555
 6657POPC   D2A16720  14.393   9.723   8.255
 6657POPC   C3A16721  14.451   9.727   7.955
 6657POPC   C4A16722  14.422   9.791   7.655
 6657POPC   C1B16723  14.542   9.623   8.555
 6657POPC   C2B16724  14.588   9.570   8.255
 6657POPC   C3B16725  14.606   9.617   7.955
 6657POPC   C4B16726  14.549   9.574   7.655
 6658POPC   NC316727  19.105   3.515   9.455
 6658POPC   PO416728  19.026   3.518   9.155
 6658POPC   GL116729  19.064   3.580   8.855
 6658POPC   GL216730  19.043   3.665   8.855
 6658POPC   C1A16731  19.100   3.572   8.555
 6658POPC   D2A16732  19.075   3.539   8.255
 6658POPC   C3A16733  19.077   3.553   7.955
 6658POPC   C4A16734  19.020   3.552   7.655
 6658POPC   C1B16735  19.041   3.830   8.555
 6658POPC   C2B16736  18.993   3.756   8.255
 6658POPC   C3B16737  19.071   3.777   7.955
 6658POPC   C4B16738  19.065   3.761   7.655
 6659POPC   NC316739  18.298   5.854   9.455
 6659POPC   PO416740  18.269   5.918   9.155
 6659POPC   GL116741  18.326   5.886   8.855
 6659POPC   GL216742  18.345   5.970   8.855
 6659POPC   C1A16743  18.271   5.901   8.555
 6659POPC   D2A16744  18.302   5.853   8.255
 6659POPC   C3A16745  18.316   5.906   7.955
 6659POPC   C4A16746  18.253   5.844   7.655
 6659POPC   C1B16747  18.386   6.090   8.555
 6659POPC   C2B16748  18.406   6.050   8.255
 6659POPC   C3B16749  18.403   6.120   7.955
 6659POPC   C4B16750  18.426   6.100   7.655
 6660POPC   NC316751  12.887  19.092   9.455
 6660POPC   PO416752  12.887  19.047   9.155
 6660POPC   GL116753  12.808  19.015   8.855
 6660POPC   GL216754  12.739  18.971   8.855
 6660POPC   C1A16755  12.892  19.082   8.555
 6660POPC   D2A16756  12.818  19.042   8.255
 6660POPC   C3A16757  12.872  19.051   7.955
 6660POPC   C4A16758  12.833  19.102   7.655
 6660POPC   C1B16759  12.693  18.890   8.555
 6660POPC   C2B16760  12.690  18.892   8.255
 6660POPC   C3B16761  12.667  18.865   7.955
 6660POPC   C4B16762  12.691  18.883   7.655
 6661POPC   NC316763  23.710   6.598   9.455
 6661POPC   PO416764  23.760   6.624   9.155
 6661POPC   GL116765  23.668   6.687   8.855
 6661POPC   GL216766  23.760   6.809   8.855
 6661POPC   C1A16767  23.687   6.635   8.555
 6661POPC   D2A16768  23.734   6.648   8.255
 6661POPC   C3A16769  23.707   6.649   7.955
 6661POPC   C4A16770  23.727   6.653   7.655
 6661POPC   C1B16771  23.770   6.901   8.555
 6661POPC   C2B16772  23.823   6.893   8.255
 6661POPC   C3B16773  23.812   6.887   7.955
 6661POPC   C4B16774  23.839   6.900   7.655
 6662POPC   NC316775  33.767  30.715   9.455
 6662POPC   PO416776  33.778  30.663   9.155
 6662POPC   GL116777  33.786  30.699   8.855
 6662POPC   GL216778  33.901  30.633   8.855
 6662POPC   C1A16779  33.831  30.702   8.555
 6662POPC   D2A16780  33.804  30.697   8.255
 6662POPC   C3A16781  33.821  30.745   7.955
 6662POPC   C4A16782  33.822  30.744   7.655
 6662POPC   C1B16783  33.914  30.464   8.555
 6662POPC   C2B16784  33.922  30.448   8.255
 6662POPC   C3B16785  33.961  30.492   7.955
 6662POPC   C4B16786  33.938  30.492   7.655
 6663POPC   NC316787   0.427  37.679   9.455
 6663POPC   PO416788   0.456  37.698   9.155
 6663POPC   GL116789   0.453  37.655   8.855
 6663POPC   GL216790   0.579  37.607   8.855
 6663POPC   C1A16791   0.394  37.710   8.555
 6663POPC   D2A16792   0.440  37.714   8.255
 6663POPC   C3A16793   0.480  37.637   7.955
 6663POPC   C4A16794   0.418  37.638   7.655
 6663POPC   C1B16795   0.650  37.540   8.555
 6663POPC   C2B16796   0.698  37.552   8.255
 6663POPC   C3B16797   0.684  37.599   7.955
 6663POPC   C4B16798   0.636  37.548   7.655
 6664POPC   NC316799  41.580  22.113   9.455
 6664POPC   PO416800  41.606  22.198   9.155
 6664POPC   GL116801  41.534  22.154   8.855
 6664POPC   GL216802  41.433  22.256   8.855
 6664POPC   C1A16803  41.553  22.160   8.555
 6664POPC   D2A16804  41.576  22.115   8.255
 6664POPC   C3A16805  41.568  22.146   7.955
 6664POPC   C4A16806  41.562  22.195   7.655
 6664POPC   C1B16807  41.376  22.325   8.555
 6664POPC   C2B16808  41.421  22.334   8.255
 6664POPC   C3B16809  41.412  22.388   7.955
 6664POPC   C4B16810  41.357  22.299   7.655
 6665POPC   NC316811  21.348  37.653   9.455
 6665POPC   PO416812  21.382  37.660   9.155
 6665POPC   GL116813  21.365  37.701   8.855
 6665POPC   GL216814  21.271  37.631   8.855
 6665POPC   C1A16815  21.356  37.652   8.555
 6665POPC   D2A16816  21.401  37.654   8.255
 6665POPC   C3A16817  21.374  37.637   7.955
 6665POPC   C4A16818  21.358  37.693   7.655
 6665POPC   C1B16819  21.173  37.643   8.555
 6665POPC   C2B16820  21.189  37.602   8.255
 6665POPC   C3B16821  21.185  37.642   7.955
 6665POPC   C4B16822  21.097  37.591   7.655
 6666POPC   NC316823   8.151  30.684   9.455
 6666POPC   PO416824   8.177  30.650   9.155
 6666POPC   GL116825   8.239  30.648   8.855
 6666POPC   GL216826   8.346  30.693   8.855
 6666POPC   C1A16827   8.243  30.707   8.555
 6666POPC   D2A16828   8.228  30.665   8.255
 6666POPC   C3A16829   8.157  30.727   7.955
 6666POPC   C4A16830   8.198  30.716   7.655
 6666POPC   C1B16831   8.446  30.742   8.555
 6666POPC   C2B16832   8.475  30.804   8.255
 6666POPC   C3B16833   8.430  30.770   7.955
 6666POPC   C4B16834   8.435  30.737   7.655
 6667POPC   NC316835  26.793   5.067   9.455
 6667POPC   PO416836  26.777   5.142   9.155
 6667POPC   GL116837  26.771   5.132   8.855
 6667POPC   GL216838  26.739   5.077   8.855
 6667POPC   C1A16839  26.866   5.067   8.555
 6667POPC   D2A16840  26.829   5.075   8.255
 6667POPC   C3A16841  26.824   5.103   7.955
 6667POPC   C4A16842  26.840   5.138   7.655
 6667POPC   C1B16843  26.570   5.017   8.555
 6667POPC   C2B16844  26.527   5.099   8.255
 6667POPC   C3B16845  26.551   5.046   7.955
 6667POPC   C4B16846  26.605   5.065   7.655
 6668POPC   NC316847  15.180  25.236   9.455
 6668POPC   PO416848  15.212  25.253   9.155
 6668POPC   GL116849  15.169  25.265   8.855
 6668POPC   GL216850  15.306  25.261   8.855
 6668POPC   C1A16851  15.213  25.271   8.555
 6668POPC   D2A16852  15.167  25.309   8.255
 6668POPC   C3A16853  15.167  25.262   7.955
 6668POPC   C4A16854  15.208  25.311   7.655
 6668POPC   C1B16855  15.434  25.298   8.555
 6668POPC   C2B16856  15.465  25.230   8.255
 6668POPC   C3B16857  15.461  25.278   7.955
 6668POPC   C4B16858  15.437  25.319   7.655
 6669POPC   NC316859  44.651   6.646   9.455
 6669POPC   PO416860  44.668   6.672   9.155
 6669POPC   GL116861  44.665   6.673   8.855
 6669POPC   GL216862  44.749   6.593   8.855
 6669POPC   C1A16863  44.650   6.633   8.555
 6669POPC   D2A16864  44.621   6.670   8.255
 6669POPC   C3A16865  44.635   6.695   7.955
 6669POPC   C4A16866  44.709   6.612   7.655
 6669POPC   C1B16867  44.889   6.479   8.555
 6669POPC   C2B16868  44.879   6.549   8.255
 6669POPC   C3B16869  44.875   6.485   7.955
 6669POPC   C4B16870  44.846   6.476   7.655
 6670POPC   NC316871   9.014  34.597   9.455
 6670POPC   PO416872   8.962  34.528   9.155
 6670POPC   GL116873   9.008  34.591   8.855
 6670POPC   GL216874   8.866  34.475   8.855
 6670POPC   C1A16875   8.981  34.563   8.555
 6670POPC   D2A16876   8.987  34.577   8.255
 6670POPC   C3A16877   8.941  34.580   7.955
 6670POPC   C4A16878   8.927  34.574   7.655
 6670POPC   C1B16879   8.839  34.340   8.555
 6670POPC   C2B16880   8.862  34.355   8.255
 6670POPC   C3B16881   8.877  34.420   7.955
 6670POPC   C4B16882   8.873  34.358   7.655
 6671POPC   NC316883  13.634  24.476   9.455
 6671POPC   PO416884  13.641  24.509   9.155
 6671POPC   GL116885  13.581  24.453   8.855
 6671POPC   GL216886  13.518  24.548   8.855
 6671POPC   C1A16887  13.607  24.486   8.555
 6671POPC   D2A16888  13.633  24.529   8.255
 6671POPC   C3A16889  13.582  24.502   7.955
 6671POPC   C4A16890  13.643  24.534   7.655
 6671POPC   C1B16891  13.361  24.601   8.555
 6671POPC   C2B16892  13.365  24.589   8.255
 6671POPC   C3B16893  13.385  24.634   7.955
 6671POPC   C4B16894  13.393  24.643   7.655
 6672POPC   NC316895   5.141  26.797   9.455
 6672POPC   PO416896   5.125  26.854   9.155
 6672POPC   GL116897   5.085  26.828   8.855
 6672POPC   GL216898   4.967  26.839   8.855
 6672POPC   C1A16899   5.111  26.845   8.555
 6672POPC   D2A16900   5.118  26.838   8.255
 6672POPC   C3A16901   5.116  26.791   7.955
 6672POPC   C4A16902   5.078  26.846   7.655
 6672POPC   C1B16903   4.837  26.757   8.555
 6672POPC   C2B16904   4.816  26.804   8.255
 6672POPC   C3B16905   4.841  26.773   7.955
 6672POPC   C4B16906   4.862  26.755   7.655
 6673POPC   NC316907  19.064   8.169   9.455
 6673POPC   PO416908  19.098   8.241   9.155
 6673POPC   GL116909  19.069   8.207   8.855
 6673POPC   GL216910  19.013   8.257   8.855
 6673POPC   C1A16911  19.067   8.211   8.555
 6673POPC   D2A16912  19.016   8.219   8.255
 6673POPC   C3A16913  19.045   8.191   7.955
 6673POPC   C4A16914  19.082   8.242   7.655
 6673POPC   C1B16915  18.893   8.349   8.555
 6673POPC   C2B16916  18.903   8.371   8.255
 6673POPC   C3B16917  18.920   8.399   7.955
 6673POPC   C4B16918  18.908   8.322   7.655
 6674POPC   NC316919  42.324  40.761   9.455
 6674POPC   PO416920  42.298  40.768   9.155
 6674POPC   GL116921  42.330  40.788   8.855
 6674POPC   GL216922  42.411  40.696   8.855
 6674POPC   C1A16923  42.365  40.766   8.555
 6674POPC   D2A16924  42.368  40.813   8.255
 6674POPC   C3A16925  42.330  40.816   7.955
 6674POPC   C4A16926  42.298  40.774   7.655
 6674POPC   C1B16927  42.434  40.593   8.555
 6674POPC   C2B16928  42.410  40.509   8.255
 6674POPC   C3B16929  42.404  40.542   7.955
 6674POPC   C4B16930  42.437  40.592   7.655
 6675POPC   NC316931  38.505  30.730   9.455
 6675POPC   PO416932  38.500  30.678   9.155
 6675POPC   GL116933  38.422  30.689   8.855
 6675POPC   GL216934  38.459  30.794   8.855
 6675POPC   C1A16935  38.492  30.681   8.555
 6675POPC   D2A16936  38.442  30.662   8.255
 6675POPC   C3A16937  38.431  30.729   7.955
 6675POPC   C4A16938  38.495  30.714   7.655
 6675POPC   C1B16939  38.462  30.976   8.555
 6675POPC   C2B16940  38.511  30.943   8.255
 6675POPC   C3B16941  38.497  30.930   7.955
 6675POPC   C4B16942  38.461  30.902   7.655
 6676POPC   NC316943  35.324  22.174   9.455
 6676POPC   PO416944  35.324  22.116   9.155
 6676POPC   GL116945  35.335  22.143   8.855
 6676POPC   GL216946  35.356  22.091   8.855
 6676POPC   C1A16947  35.375  22.143   8.555
 6676POPC   D2A16948  35.394  22.132   8.255
 6676POPC   C3A16949  35.335  22.171   7.955
 6676POPC   C4A16950  35.308  22.171   7.655
 6676POPC   C1B16951  35.309  21.933   8.555
 6676POPC   C2B16952  35.278  21.883   8.255
 6676POPC   C3B16953  35.303  21.969   7.955
 6676POPC   C4B16954  35.273  21.928   7.655
 6677POPC   NC316955   5.095  25.245   9.455
 6677POPC   PO416956   5.048  25.278   9.155
 6677POPC   GL116957   5.083  25.234   8.855
 6677POPC   GL216958   5.254  25.196   8.855
 6677POPC   C1A16959   5.059  25.310   8.555
 6677POPC   D2A16960   5.133  25.252   8.255
 6677POPC   C3A16961   5.085  25.222   7.955
 6677POPC   C4A16962   5.103  25.248   7.655
 6677POPC   C1B16963   5.336  25.162   8.555
 6677POPC   C2B16964   5.338  25.138   8.255
 6677POPC   C3B16965   5.308  25.227   7.955
 6677POPC   C4B16966   5.361  25.219   7.655
 6678POPC   NC316967  42.291  12.895   9.455
 6678POPC   PO416968  42.317  12.842   9.155
 6678POPC   GL116969  42.290  12.811   8.855
 6678POPC   GL216970  42.189  12.958   8.855
 6678POPC   C1A16971  42.375  12.841   8.555
 6678POPC   D2A16972  42.378  12.846   8.255
 6678POPC   C3A16973  42.332  12.886   7.955
 6678POPC   C4A16974  42.345  12.891   7.655
 6678POPC   C1B16975  42.087  12.989   8.555
 6678POPC   C2B16976  42.125  12.951   8.255
 6678POPC   C3B16977  42.114  12.957   7.955
 6678POPC   C4B16978  42.097  12.947   7.655
 6679POPC   NC316979  18.315  39.968   9.455
 6679POPC   PO416980  18.305  39.993   9.155
 6679POPC   GL116981  18.294  39.963   8.855
 6679POPC   GL216982  18.311  40.100   8.855
 6679POPC   C1A16983  18.244  40.017   8.555
 6679POPC   D2A16984  18.291  40.049   8.255
 6679POPC   C3A16985  18.234  39.985   7.955
 6679POPC   C4A16986  18.254  40.013   7.655
 6679POPC   C1B16987  18.278  40.295   8.555
 6679POPC   C2B16988  18.271  40.286   8.255
 6679POPC   C3B16989  18.322  40.264   7.955
 6679POPC   C4B16990  18.286  40.286   7.655
 6680POPC   NC316991  11.336   8.961   9.455
 6680POPC   PO416992  11.327   8.981   9.155
 6680POPC   GL116993  11.328   9.002   8.855
 6680POPC   GL216994  11.204   8.933   8.855
 6680POPC   C1A16995  11.306   9.008   8.555
 6680POPC   D2A16996  11.250   9.012   8.255
 6680POPC   C3A16997  11.299   8.936   7.955
 6680POPC   C4A16998  11.346   8.978   7.655
 6680POPC   C1B16999  11.033   8.857   8.555
 6680POPC   C2B17000  11.104   8.892   8.255
 6680POPC   C3B17001  11.054   8.857   7.955
 6680POPC   C4B17002  11.116   8.910   7.655
 6681POPC   NC317003  18.305  11.305   9.455
 6681POPC   PO417004  18.299  11.322   9.155
 6681POPC   GL117005  18.289  11.259   8.855
 6681POPC   GL217006  18.206  11.235   8.855
 6681POPC   C1A17007  18.285  11.289   8.555
 6681POPC   D2A17008  18.280  11.275   8.255
 6681POPC   C3A17009  18.249  11.290   7.955
 6681POPC   C4A17010  18.326  11.347   7.655
 6681POPC   C1B17011  18.034  11.253   8.555
 6681POPC   C2B17012  18.018  11.163   8.255
 6681POPC   C3B17013  18.081  11.164   7.955
 6681POPC   C4B17014  18.081  11.211   7.655
 6682POPC   NC317015  43.864  25.267   9.455
 6682POPC   PO417016  43.891  25.219   9.155
 6682POPC   GL117017  43.890  25.244   8.855
 6682POPC   GL217018  43.775  25.229   8.855
 6682POPC   C1A17019  43.849  25.259   8.555
 6682POPC   D2A17020  43.933  25.250   8.255
 6682POPC   C3A17021  43.885  25.299   7.955
 6682POPC   C4A17022  43.926  25.304   7.655
 6682POPC   C1B17023  43.662  25.140   8.555
 6682POPC   C2B17024  43.689  25.190   8.255
 6682POPC   C3B17025  43.609  25.194   7.955
 6682POPC   C4B17026  43.649  25.135   7.655
 6683POPC   NC317027   8.186   0.459   9.455
 6683POPC   PO417028   8.228   0.426   9.155
 6683POPC   GL117029   8.225   0.395   8.855
 6683POPC   GL217030   8.072   0.369   8.855
 6683POPC   C1A17031   8.185   0.391   8.555
 6683POPC   D2A17032   8.241   0.411   8.255
 6683POPC   C3A17033   8.151   0.430   7.955
 6683POPC   C4A17034   8.183   0.414   7.655
 6683POPC   C1B17035   7.945   0.264   8.555
 6683POPC   C2B17036   7.944   0.265   8.255
 6683POPC   C3B17037   8.017   0.320   7.955
 6683POPC   C4B17038   7.983   0.292   7.655
 6684POPC   NC317039  29.105  19.059   9.455
 6684POPC   PO417040  29.104  19.088   9.155
 6684POPC   GL117041  29.122  19.062   8.855
 6684POPC   GL217042  29.099  19.216   8.855
 6684POPC   C1A17043  29.128  19.075   8.555
 6684POPC   D2A17044  29.096  19.095   8.255
 6684POPC   C3A17045  29.108  19.050   7.955
 6684POPC   C4A17046  29.135  19.106   7.655
 6684POPC   C1B17047  29.013  19.269   8.555
 6684POPC   C2B17048  29.022  19.279   8.255
 6684POPC   C3B17049  29.014  19.317   7.955
 6684POPC   C4B17050  29.051  19.278   7.655
 6685POPC   NC317051   9.780  14.430   9.455
 6685POPC   PO417052   9.751  14.368   9.155
 6685POPC   GL117053   9.780  14.411   8.855
 6685POPC   GL217054   9.787  14.247   8.855
 6685POPC   C1A17055   9.767  14.399   8.555
 6685POPC   D2A17056   9.732  14.385   8.255
 6685POPC   C3A17057   9.798  14.397   7.955
 6685POPC   C4A17058   9.755  14.430   7.655
 6685POPC   C1B17059   9.822  14.137   8.555
 6685POPC   C2B17060   9.876  14.201   8.255
 6685POPC   C3B17061   9.812  14.170   7.955
 6685POPC   C4B17062   9.849  14.173   7.655
 6686POPC   NC317063  33.061  29.149   9.455
 6686POPC   PO417064  33.052  29.148   9.155
 6686POPC   GL117065  33.045  29.155   8.855
 6686POPC   GL217066  32.947  28.983   8.855
 6686POPC   C1A17067  33.046  29.194   8.555
 6686POPC   D2A17068  33.042  29.175   8.255
 6686POPC   C3A17069  33.003  29.139   7.955
 6686POPC   C4A17070  33.029  29.144   7.655
 6686POPC   C1B17071  32.959  28.880   8.555
 6686POPC   C2B17072  32.987  28.942   8.255
 6686POPC   C3B17073  32.960  28.954   7.955
 6686POPC   C4B17074  32.978  28.889   7.655
 6687POPC   NC317075   7.444   0.440   9.455
 6687POPC   PO417076   7.390   0.459   9.155
 6687POPC   GL117077   7.429   0.441   8.855
 6687POPC   GL217078   7.380   0.543   8.855
 6687POPC   C1A17079   7.438   0.427   8.555
 6687POPC   D2A17080   7.404   0.461   8.255
 6687POPC   C3A17081   7.377   0.462   7.955
 6687POPC   C4A17082   7.444   0.436   7.655
 6687POPC   C1B17083   7.422   0.718   8.555
 6687POPC   C2B17084   7.335   0.645   8.255
 6687POPC   C3B17085   7.415   0.670   7.955
 6687POPC   C4B17086   7.372   0.642   7.655
 6688POPC   NC317087  31.427  23.710   9.455
 6688POPC   PO417088  31.479  23.676   9.155
 6688POPC   GL117089  31.496  23.683   8.855
 6688POPC   GL217090  31.430  23.753   8.855
 6688POPC   C1A17091  31.521  23.709   8.555
 6688POPC   D2A17092  31.450  23.697   8.255
 6688POPC   C3A17093  31.466  23.756   7.955
 6688POPC   C4A17094  31.475  23.728   7.655
 6688POPC   C1B17095  31.294  23.865   8.555
 6688POPC   C2B17096  31.269  23.860   8.255
 6688POPC   C3B17097  31.264  23.918   7.955
 6688POPC   C4B17098  31.339  23.874   7.655
 6689POPC   NC317099  16.689   0.454   9.455
 6689POPC   PO417100  16.768   0.395   9.155
 6689POPC   GL117101  16.749   0.408   8.855
 6689POPC   GL217102  16.607   0.443   8.855
 6689POPC   C1A17103  16.778   0.450   8.555
 6689POPC   D2A17104  16.769   0.484   8.255
 6689POPC   C3A17105  16.741   0.429   7.955
 6689POPC   C4A17106  16.746   0.457   7.655
 6689POPC   C1B17107  16.514   0.408   8.555
 6689POPC   C2B17108  16.507   0.451   8.255
 6689POPC   C3B17109  16.442   0.484   7.955
 6689POPC   C4B17110  16.520   0.438   7.655
 6690POPC   NC317111  13.606  38.476   9.455
 6690POPC   PO417112  13.673  38.496   9.155
 6690POPC   GL117113  13.602  38.419   8.855
 6690POPC   GL217114  13.599  38.553   8.855
 6690POPC   C1A17115  13.610  38.428   8.555
 6690POPC   D2A17116  13.636  38.455   8.255
 6690POPC   C3A17117  13.583  38.442   7.955
 6690POPC   C4A17118  13.610  38.466   7.655
 6690POPC   C1B17119  13.644  38.743   8.555
 6690POPC   C2B17120  13.631  38.667   8.255
 6690POPC   C3B17121  13.690  38.702   7.955
 6690POPC   C4B17122  13.692  38.709   7.655
 6691POPC   NC317123  19.069  43.094   9.455
 6691POPC   PO417124  19.082  43.081   9.155
 6691POPC   GL117125  19.093  43.143   8.855
 6691POPC   GL217126  19.046  43.230   8.855
 6691POPC   C1A17127  19.107  43.149   8.555
 6691POPC   D2A17128  19.016  43.109   8.255
 6691POPC   C3A17129  19.058  43.068   7.955
 6691POPC   C4A17130  19.066  43.144   7.655
 6691POPC   C1B17131  19.059  43.379   8.555
 6691POPC   C2B17132  19.048  43.325   8.255
 6691POPC   C3B17133  19.045  43.378   7.955
 6691POPC   C4B17134  19.042  43.401   7.655
 6692POPC   NC317135  10.513  27.594   9.455
 6692POPC   PO417136  10.500  27.565   9.155
 6692POPC   GL117137  10.509  27.555   8.855
 6692POPC   GL217138  10.530  27.679   8.855
 6692POPC   C1A17139  10.556  27.565   8.555
 6692POPC   D2A17140  10.509  27.576   8.255
 6692POPC   C3A17141  10.558  27.587   7.955
 6692POPC   C4A17142  10.555  27.586   7.655
 6692POPC   C1B17143  10.466  27.832   8.555
 6692POPC   C2B17144  10.500  27.871   8.255
 6692POPC   C3B17145  10.472  27.840   7.955
 6692POPC   C4B17146  10.522  27.804   7.655
 6693POPC   NC317147   4.340  27.554   9.455
 6693POPC   PO417148   4.339  27.578   9.155
 6693POPC   GL117149   4.339  27.586   8.855
 6693POPC   GL217150   4.383  27.468   8.855
 6693POPC   C1A17151   4.343  27.597   8.555
 6693POPC   D2A17152   4.342  27.621   8.255
 6693POPC   C3A17153   4.342  27.615   7.955
 6693POPC   C4A17154   4.322  27.580   7.655
 6693POPC   C1B17155   4.398  27.416   8.555
 6693POPC   C2B17156   4.423  27.346   8.255
 6693POPC   C3B17157   4.398  27.398   7.955
 6693POPC   C4B17158   4.460  27.364   7.655
 6694POPC   NC317159  10.533  44.627   9.455
 6694POPC   PO417160  10.565  44.698   9.155
 6694POPC   GL117161  10.522  44.632   8.855
 6694POPC   GL217162  10.375  44.664   8.855
 6694POPC   C1A17163  10.504  44.680   8.555
 6694POPC   D2A17164  10.545  44.640   8.255
 6694POPC   C3A17165  10.497  44.664   7.955
 6694POPC   C4A17166  10.519  44.653   7.655
 6694POPC   C1B17167  10.266  44.645   8.555
 6694POPC   C2B17168  10.233  44.718   8.255
 6694POPC   C3B17169  10.275  44.662   7.955
 6694POPC   C4B17170  10.265  44.651   7.655
 6695POPC   NC317171  21.404   0.468   9.455
 6695POPC   PO417172  21.394   0.407   9.155
 6695POPC   GL117173  21.408   0.452   8.855
 6695POPC   GL217174  21.298   0.323   8.855
 6695POPC   C1A17175  21.379   0.453   8.555
 6695POPC   D2A17176  21.416   0.417   8.255
 6695POPC   C3A17177  21.381   0.408   7.955
 6695POPC   C4A17178  21.382   0.431   7.655
 6695POPC   C1B17179  21.260   0.173   8.555
 6695POPC   C2B17180  21.266   0.227   8.255
 6695POPC   C3B17181  21.303   0.265   7.955
 6695POPC   C4B17182  21.310   0.209   7.655
 6696POPC   NC317183   5.083   3.586   9.455
 6696POPC   PO417184   5.064   3.564   9.155
 6696POPC   GL117185   5.087   3.531   8.855
 6696POPC   GL217186   4.964   3.559   8.855
 6696POPC   C1A17187   5.055   3.543   8.555
 6696POPC   D2A17188   5.069   3.534   8.255
 6696POPC   C3A17189   5.052   3.501   7.955
 6696POPC   C4A17190   5.083   3.505   7.655
 6696POPC   C1B17191   4.855   3.530   8.555
 6696POPC   C2B17192   4.887   3.489   8.255
 6696POPC   C3B17193   4.892   3.495   7.955
 6696POPC   C4B17194   4.883   3.456   7.655
 6697POPC   NC317195  42.312  15.987   9.455
 6697POPC   PO417196  42.295  15.966   9.155
 6697POPC   GL117197  42.331  15.974   8.855
 6697POPC   GL217198  42.364  16.077   8.855
 6697POPC   C1A17199  42.285  15.920   8.555
 6697POPC   D2A17200  42.299  15.932   8.255
 6697POPC   C3A17201  42.312  15.923   7.955
 6697POPC   C4A17202  42.329  15.937   7.655
 6697POPC   C1B17203  42.372  16.236   8.555
 6697POPC   C2B17204  42.363  16.193   8.255
 6697POPC   C3B17205  42.293  16.161   7.955
 6697POPC   C4B17206  42.369  16.162   7.655
 6698POPC   NC317207  44.664  15.945   9.455
 6698POPC   PO417208  44.618  15.954   9.155
 6698POPC   GL117209  44.660  15.999   8.855
 6698POPC   GL217210  44.682  15.805   8.855
 6698POPC   C1A17211  44.643  15.912   8.555
 6698POPC   D2A17212  44.613  15.995   8.255
 6698POPC   C3A17213  44.613  15.969   7.955
 6698POPC   C4A17214  44.674  15.961   7.655
 6698POPC   C1B17215  44.623  15.662   8.555
 6698POPC   C2B17216  44.699  15.663   8.255
 6698POPC   C3B17217  44.671  15.680   7.955
 6698POPC   C4B17218  44.642  15.668   7.655
 6699POPC   NC317219  43.103  24.508   9.455
 6699POPC   PO417220  43.145  24.456   9.155
 6699POPC   GL117221  43.062  24.446   8.855
 6699POPC   GL217222  42.975  24.453   8.855
 6699POPC   C1A17223  43.080  24.533   8.555
 6699POPC   D2A17224  43.123  24.467   8.255
 6699POPC   C3A17225  43.125  24.459   7.955
 6699POPC   C4A17226  43.124  24.526   7.655
 6699POPC   C1B17227  42.845  24.409   8.555
 6699POPC   C2B17228  42.834  24.411   8.255
 6699POPC   C3B17229  42.839  24.439   7.955
 6699POPC   C4B17230  42.884  24.425   7.655
 6700POPC   NC317231  20.616   2.016   9.455
 6700POPC   PO417232  20.591   1.982   9.155
 6700POPC   GL117233  20.603   1.996   8.855
 6700POPC   GL217234  20.728   1.932   8.855
 6700POPC   C1A17235  20.624   1.948   8.555
 6700POPC   D2A17236  20.619   1.965   8.255
 6700POPC   C3A17237  20.572   1.955   7.955
 6700POPC   C4A17238  20.600   1.956   7.655
 6700POPC   C1B17239  20.722   1.791   8.555
 6700POPC   C2B17240  20.777   1.772   8.255
 6700POPC   C3B17241  20.763   1.751   7.955
 6700POPC   C4B17242  20.743   1.767   7.655
 6701POPC   NC317243  15.227  43.863   9.455
 6701POPC   PO417244  15.229  43.856   9.155
 6701POPC   GL117245  15.132  43.928   8.855
 6701POPC   GL217246  15.307  43.794   8.855
 6701POPC   C1A17247  15.160  43.916   8.555
 6701POPC   D2A17248  15.155  43.879   8.255
 6701POPC   C3A17249  15.175  43.930   7.955
 6701POPC   C4A17250  15.154  43.927   7.655
 6701POPC   C1B17251  15.336  43.706   8.555
 6701POPC   C2B17252  15.375  43.714   8.255
 6701POPC   C3B17253  15.371  43.734   7.955
 6701POPC   C4B17254  15.372  43.682   7.655
 6702POPC   NC317255   4.270  12.079   9.455
 6702POPC   PO417256   4.313  12.117   9.155
 6702POPC   GL117257   4.269  12.109   8.855
 6702POPC   GL217258   4.223  12.114   8.855
 6702POPC   C1A17259   4.344  12.095   8.555
 6702POPC   D2A17260   4.312  12.028   8.255
 6702POPC   C3A17261   4.360  12.111   7.955
 6702POPC   C4A17262   4.362  12.116   7.655
 6702POPC   C1B17263   4.120  12.216   8.555
 6702POPC   C2B17264   4.114  12.239   8.255
 6702POPC   C3B17265   4.161  12.294   7.955
 6702POPC   C4B17266   4.161  12.243   7.655
 6703POPC   NC317267  43.070  37.683   9.455
 6703POPC   PO417268  43.117  37.630   9.155
 6703POPC   GL117269  43.069  37.689   8.855
 6703POPC   GL217270  43.034  37.587   8.855
 6703POPC   C1A17271  43.125  37.728   8.555
 6703POPC   D2A17272  43.160  37.717   8.255
 6703POPC   C3A17273  43.139  37.673   7.955
 6703POPC   C4A17274  43.064  37.668   7.655
 6703POPC   C1B17275  42.917  37.602   8.555
 6703POPC   C2B17276  42.929  37.608   8.255
 6703POPC   C3B17277  42.859  37.597   7.955
 6703POPC   C4B17278  42.886  37.581   7.655
 6704POPC   NC317279  33.008   7.396   9.455
 6704POPC   PO417280  33.050   7.448   9.155
 6704POPC   GL117281  33.063   7.422   8.855
 6704POPC   GL217282  32.914   7.429   8.855
 6704POPC   C1A17283  33.053   7.420   8.555
 6704POPC   D2A17284  33.063   7.395   8.255
 6704POPC   C3A17285  33.019   7.382   7.955
 6704POPC   C4A17286  33.057   7.393   7.655
 6704POPC   C1B17287  32.812   7.446   8.555
 6704POPC   C2B17288  32.815   7.471   8.255
 6704POPC   C3B17289  32.802   7.474   7.955
 6704POPC   C4B17290  32.779   7.449   7.655
 6705POPC   NC317291  15.220  24.468   9.455
 6705POPC   PO417292  15.143  24.521   9.155
 6705POPC   GL117293  15.135  24.480   8.855
 6705POPC   GL217294  15.245  24.628   8.855
 6705POPC   C1A17295  15.209  24.452   8.555
 6705POPC   D2A17296  15.173  24.494   8.255
 6705POPC   C3A17297  15.216  24.461   7.955
 6705POPC   C4A17298  15.198  24.485   7.655
 6705POPC   C1B17299  15.210  24.727   8.555
 6705POPC   C2B17300  15.233  24.694   8.255
 6705POPC   C3B17301  15.217  24.708   7.955
 6705POPC   C4B17302  15.221  24.750   7.655
 6706POPC   NC317303  43.879  43.115   9.455
 6706POPC   PO417304  43.878  43.102   9.155
 6706POPC   GL117305  43.870  43.075   8.855
 6706POPC   GL217306  43.807  42.992   8.855
 6706POPC   C1A17307  43.900  43.079   8.555
 6706POPC   D2A17308  43.904  43.089   8.255
 6706POPC   C3A17309  43.934  43.074   7.955
 6706POPC   C4A17310  43.860  43.096   7.655
 6706POPC   C1B17311  43.695  42.965   8.555
 6706POPC   C2B17312  43.723  42.928   8.255
 6706POPC   C3B17313  43.761  42.965   7.955
 6706POPC   C4B17314  43.774  42.929   7.655
 6707POPC   NC317315   2.765  36.080   9.455
 6707POPC   PO417316   2.793  36.148   9.155
 6707POPC   GL117317   2.799  36.089   8.855
 6707POPC   GL217318   2.895  36.118   8.855
 6707POPC   C1A17319   2.790  36.175   8.555
 6707POPC   D2A17320   2.786  36.151   8.255
 6707POPC   C3A17321   2.735  36.168   7.955
 6707POPC   C4A17322   2.772  36.172   7.655
 6707POPC   C1B17323   2.985  36.090   8.555
 6707POPC   C2B17324   2.972  36.108   8.255
 6707POPC   C3B17325   3.041  36.080   7.955
 6707POPC   C4B17326   3.052  36.131   7.655
 6708POPC   NC317327  10.537  41.600   9.455
 6708POPC   PO417328  10.568  41.598   9.155
 6708POPC   GL117329  10.513  41.528   8.855
 6708POPC   GL217330  10.480  41.639   8.855
 6708POPC   C1A17331  10.574  41.561   8.555
 6708POPC   D2A17332  10.480  41.516   8.255
 6708POPC   C3A17333  10.547  41.576   7.955
 6708POPC   C4A17334  10.540  41.533   7.655
 6708POPC   C1B17335  10.500  41.776   8.555
 6708POPC   C2B17336  10.458  41.784   8.255
 6708POPC   C3B17337  10.492  41.761   7.955
 6708POPC   C4B17338  10.474  41.783   7.655
 6709POPC   NC317339  35.340  19.793   9.455
 6709POPC   PO417340  35.399  19.813   9.155
 6709POPC   GL117341  35.347  19.791   8.855
 6709POPC   GL217342  35.262  19.890   8.855
 6709POPC   C1A17343  35.334  19.825   8.555
 6709POPC   D2A17344  35.392  19.817   8.255
 6709POPC   C3A17345  35.361  19.815   7.955
 6709POPC   C4A17346  35.381  19.836   7.655
 6709POPC   C1B17347  35.091  19.832   8.555
 6709POPC   C2B17348  35.098  19.850   8.255
 6709POPC   C3B17349  35.141  19.889   7.955
 6709POPC   C4B17350  35.112  19.850   7.655
 6710POPC   NC317351  16.704   9.743   9.455
 6710POPC   PO417352  16.708   9.785   9.155
 6710POPC   GL117353  16.762   9.720   8.855
 6710POPC   GL217354  16.707   9.602   8.855
 6710POPC   C1A17355  16.714   9.723   8.555
 6710POPC   D2A17356  16.768   9.720   8.255
 6710POPC   C3A17357  16.687   9.735   7.955
 6710POPC   C4A17358  16.772   9.718   7.655
 6710POPC   C1B17359  16.661   9.550   8.555
 6710POPC   C2B17360  16.633   9.489   8.255
 6710POPC   C3B17361  16.592   9.535   7.955
 6710POPC   C4B17362  16.650   9.508   7.655
 6711POPC   NC317363  25.283  43.916   9.455
 6711POPC   PO417364  25.247  43.858   9.155
 6711POPC   GL117365  25.246  43.922   8.855
 6711POPC   GL217366  25.382  43.815   8.855
 6711POPC   C1A17367  25.247  43.888   8.555
 6711POPC   D2A17368  25.286  43.880   8.255
 6711POPC   C3A17369  25.308  43.839   7.955
 6711POPC   C4A17370  25.271  43.930   7.655
 6711POPC   C1B17371  25.543  43.836   8.555
 6711POPC   C2B17372  25.544  43.775   8.255
 6711POPC   C3B17373  25.472  43.841   7.955
 6711POPC   C4B17374  25.492  43.833   7.655
 6712POPC   NC317375  18.325  44.618   9.455
 6712POPC   PO417376  18.280  44.624   9.155
 6712POPC   GL117377  18.257  44.616   8.855
 6712POPC   GL217378  18.127  44.581   8.855
 6712POPC   C1A17379  18.263  44.688   8.555
 6712POPC   D2A17380  18.290  44.712   8.255
 6712POPC   C3A17381  18.318  44.712   7.955
 6712POPC   C4A17382  18.284  44.701   7.655
 6712POPC   C1B17383  18.112  44.545   8.555
 6712POPC   C2B17384  18.091  44.558   8.255
 6712POPC   C3B17385  18.019  44.535   7.955
 6712POPC   C4B17386  18.024  44.579   7.655
 6713POPC   NC317387  29.885  26.834   9.455
 6713POPC   PO417388  29.904  26.814   9.155
 6713POPC   GL117389  29.927  26.779   8.855
 6713POPC   GL217390  29.787  26.825   8.855
 6713POPC   C1A17391  29.924  26.805   8.555
 6713POPC   D2A17392  29.961  26.854   8.255
 6713POPC   C3A17393  29.871  26.865   7.955
 6713POPC   C4A17394  29.886  26.841   7.655
 6713POPC   C1B17395  29.634  26.848   8.555
 6713POPC   C2B17396  29.623  26.819   8.255
 6713POPC   C3B17397  29.630  26.764   7.955
 6713POPC   C4B17398  29.700  26.811   7.655
 6714POPC   NC317399  40.825  30.699   9.455
 6714POPC   PO417400  40.783  30.667   9.155
 6714POPC   GL117401  40.765  30.672   8.855
 6714POPC   GL217402  40.926  30.723   8.855
 6714POPC   C1A17403  40.794  30.720   8.555
 6714POPC   D2A17404  40.778  30.694   8.255
 6714POPC   C3A17405  40.744  30.673   7.955
 6714POPC   C4A17406  40.753  30.704   7.655
 6714POPC   C1B17407  41.055  30.701   8.555
 6714POPC   C2B17408  41.055  30.696   8.255
 6714POPC   C3B17409  41.072  30.701   7.955
 6714POPC   C4B17410  41.078  30.699   7.655
 6715POPC   NC317411   3.582  44.688   9.455
 6715POPC   PO417412   3.492  44.636   9.155
 6715POPC   GL117413   3.506  44.679   8.855
 6715POPC   GL217414   3.540  44.765   8.855
 6715POPC   C1A17415   3.572  44.682   8.555
 6715POPC   D2A17416   3.561  44.661   8.255
 6715POPC   C3A17417   3.498  44.618   7.955
 6715POPC   C4A17418   3.525  44.674   7.655
 6715POPC   C1B17419   3.526  44.955   8.555
 6715POPC   C2B17420   3.536  44.949   8.255
 6715POPC   C3B17421   3.537  44.949   7.955
 6715POPC   C4B17422   3.567  44.940   7.655
 6716POPC   NC317423   1.193  20.607   9.455
 6716POPC   PO417424   1.164  20.648   9.155
 6716POPC   GL117425   1.181  20.619   8.855
 6716POPC   GL217426   1.082  20.578   8.855
 6716POPC   C1A17427   1.246  20.613   8.555
 6716POPC   D2A17428   1.247  20.610   8.255
 6716POPC   C3A17429   1.191  20.599   7.955
 6716POPC   C4A17430   1.181  20.590   7.655
 6716POPC   C1B17431   1.021  20.499   8.555
 6716POPC   C2B17432   1.034  20.474   8.255
 6716POPC   C3B17433   1.059  20.455   7.955
 6716POPC   C4B17434   0.978  20.432   7.655
 6717POPC   NC317435  12.098  29.122   9.455
 6717POPC   PO417436  12.063  29.103   9.155
 6717POPC   GL117437  12.026  29.106   8.855
 6717POPC   GL217438  11.962  29.294   8.855
 6717POPC   C1A17439  12.047  29.169   8.555
 6717POPC   D2A17440  12.048  29.112   8.255
 6717POPC   C3A17441  12.038  29.193   7.955
 6717POPC   C4A17442  12.121  29.173   7.655
 6717POPC   C1B17443  11.947  29.336   8.555
 6717POPC   C2B17444  11.957  29.387   8.255
 6717POPC   C3B17445  11.941  29.350   7.955
 6717POPC   C4B17446  11.910  29.382   7.655
 6718POPC   NC317447  33.762   2.018   9.455
 6718POPC   PO417448  33.820   1.943   9.155
 6718POPC   GL117449  33.813   1.945   8.855
 6718POPC   GL217450  33.738   2.067   8.855
 6718POPC   C1A17451  33.767   1.950   8.555
 6718POPC   D2A17452  33.812   2.033   8.255
 6718POPC   C3A17453  33.784   1.989   7.955
 6718POPC   C4A17454  33.765   1.943   7.655
 6718POPC   C1B17455  33.596   2.168   8.555
 6718POPC   C2B17456  33.545   2.125   8.255
 6718POPC   C3B17457  33.544   2.090   7.955
 6718POPC   C4B17458  33.588   2.149   7.655
 6719POPC   NC317459  38.423  12.819   9.455
 6719POPC   PO417460  38.476  12.850   9.155
 6719POPC   GL117461  38.484  12.844   8.855
 6719POPC   GL217462  38.589  12.923   8.855
 6719POPC   C1A17463  38.487  12.888   8.555
 6719POPC   D2A17464  38.474  12.840   8.255
 6719POPC   C3A17465  38.410  12.885   7.955
 6719POPC   C4A17466  38.409  12.803   7.655
 6719POPC   C1B17467  38.646  12.983   8.555
 6719POPC   C2B17468  38.624  13.006   8.255
 6719POPC   C3B17469  38.641  12.963   7.955
 6719POPC   C4B17470  38.701  13.002   7.655
 6720POPC   NC317471   8.942  23.728   9.455
 6720POPC   PO417472   8.951  23.754   9.155
 6720POPC   GL117473   8.983  23.676   8.855
 6720POPC   GL217474   9.052  23.866   8.855
 6720POPC   C1A17475   8.938  23.721   8.555
 6720POPC   D2A17476   9.015  23.711   8.255
 6720POPC   C3A17477   8.946  23.687   7.955
 6720POPC   C4A17478   9.005  23.760   7.655
 6720POPC   C1B17479   9.057  23.907   8.555
 6720POPC   C2B17480   9.092  23.889   8.255
 6720POPC   C3B17481   9.118  23.892   7.955
 6720POPC   C4B17482   9.118  23.890   7.655
 6721POPC   NC317483  14.412   5.829   9.455
 6721POPC   PO417484  14.452   5.863   9.155
 6721POPC   GL117485  14.398   5.857   8.855
 6721POPC   GL217486  14.325   5.975   8.855
 6721POPC   C1A17487  14.379   5.917   8.555
 6721POPC   D2A17488  14.407   5.841   8.255
 6721POPC   C3A17489  14.371   5.901   7.955
 6721POPC   C4A17490  14.376   5.833   7.655
 6721POPC   C1B17491  14.245   6.114   8.555
 6721POPC   C2B17492  14.250   6.057   8.255
 6721POPC   C3B17493  14.254   6.098   7.955
 6721POPC   C4B17494  14.246   6.050   7.655
 6722POPC   NC317495  26.824  22.914   9.455
 6722POPC   PO417496  26.866  22.951   9.155
 6722POPC   GL117497  26.841  22.901   8.855
 6722POPC   GL217498  26.926  22.892   8.855
 6722POPC   C1A17499  26.815  22.980   8.555
 6722POPC   D2A17500  26.823  22.901   8.255
 6722POPC   C3A17501  26.855  22.965   7.955
 6722POPC   C4A17502  26.773  22.933   7.655
 6722POPC   C1B17503  27.107  22.959   8.555
 6722POPC   C2B17504  27.085  22.916   8.255
 6722POPC   C3B17505  27.055  22.930   7.955
 6722POPC   C4B17506  27.074  22.927   7.655
 6723POPC   NC317507   4.345  26.035   9.455
 6723POPC   PO417508   4.293  25.993   9.155
 6723POPC   GL117509   4.295  25.997   8.855
 6723POPC   GL217510   4.434  26.115   8.855
 6723POPC   C1A17511   4.332  26.016   8.555
 6723POPC   D2A17512   4.283  26.090   8.255
 6723POPC   C3A17513   4.363  26.006   7.955
 6723POPC   C4A17514   4.349  26.078   7.655
 6723POPC   C1B17515   4.508  26.222   8.555
 6723POPC   C2B17516   4.504  26.230   8.255
 6723POPC   C3B17517   4.470  26.221   7.955
 6723POPC   C4B17518   4.560  26.181   7.655
 6724POPC   NC317519  38.486  17.497   9.455
 6724POPC   PO417520  38.406  17.517   9.155
 6724POPC   GL117521  38.417  17.494   8.855
 6724POPC   GL217522  38.397  17.569   8.855
 6724POPC   C1A17523  38.461  17.477   8.555
 6724POPC   D2A17524  38.464  17.501   8.255
 6724POPC   C3A17525  38.420  17.483   7.955
 6724POPC   C4A17526  38.456  17.535   7.655
 6724POPC   C1B17527  38.331  17.714   8.555
 6724POPC   C2B17528  38.293  17.721   8.255
 6724POPC   C3B17529  38.263  17.711   7.955
 6724POPC   C4B17530  38.347  17.687   7.655
 6725POPC   NC317531  26.018   4.330   9.455
 6725POPC   PO417532  26.088   4.317   9.155
 6725POPC   GL117533  26.002   4.305   8.855
 6725POPC   GL217534  26.140   4.339   8.855
 6725POPC   C1A17535  26.039   4.280   8.555
 6725POPC   D2A17536  26.066   4.297   8.255
 6725POPC   C3A17537  26.065   4.328   7.955
 6725POPC   C4A17538  25.998   4.333   7.655
 6725POPC   C1B17539  26.264   4.300   8.555
 6725POPC   C2B17540  26.268   4.295   8.255
 6725POPC   C3B17541  26.297   4.354   7.955
 6725POPC   C4B17542  26.295   4.307   7.655
 6726POPC   NC317543  39.233  15.954   9.455
 6726POPC   PO417544  39.232  16.001   9.155
 6726POPC   GL117545  39.246  15.973   8.855
 6726POPC   GL217546  39.313  15.849   8.855
 6726POPC   C1A17547  39.268  15.932   8.555
 6726POPC   D2A17548  39.253  15.917   8.255
 6726POPC   C3A17549  39.280  15.944   7.955
 6726POPC   C4A17550  39.232  15.943   7.655
 6726POPC   C1B17551  39.437  15.798   8.555
 6726POPC   C2B17552  39.365  15.813   8.255
 6726POPC   C3B17553  39.419  15.773   7.955
 6726POPC   C4B17554  39.393  15.733   7.655
 6727POPC   NC317555   5.125  39.991   9.455
 6727POPC   PO417556   5.127  39.975   9.155
 6727POPC   GL117557   5.072  40.032   8.855
 6727POPC   GL217558   5.088  39.864   8.855
 6727POPC   C1A17559   5.115  39.985   8.555
 6727POPC   D2A17560   5.059  39.976   8.255
 6727POPC   C3A17561   5.061  40.048   7.955
 6727POPC   C4A17562   5.140  40.056   7.655
 6727POPC   C1B17563   5.119  39.745   8.555
 6727POPC   C2B17564   5.161  39.803   8.255
 6727POPC   C3B17565   5.148  39.726   7.955
 6727POPC   C4B17566   5.100  39.743   7.655
 6728POPC   NC317567  42.298  14.372   9.455
 6728POPC   PO417568  42.318  14.452   9.155
 6728POPC   GL117569  42.371  14.370   8.855
 6728POPC   GL217570  42.471  14.338   8.855
 6728POPC   C1A17571  42.291  14.356   8.555
 6728POPC   D2A17572  42.305  14.452   8.255
 6728POPC   C3A17573  42.380  14.435   7.955
 6728POPC   C4A17574  42.308  14.411   7.655
 6728POPC   C1B17575  42.593  14.286   8.555
 6728POPC   C2B17576  42.606  14.353   8.255
 6728POPC   C3B17577  42.610  14.348   7.955
 6728POPC   C4B17578  42.525  14.359   7.655
 6729POPC   NC317579  28.418  12.866   9.455
 6729POPC   PO417580  28.327  12.812   9.155
 6729POPC   GL117581  28.416  12.850   8.855
 6729POPC   GL217582  28.266  12.924   8.855
 6729POPC   C1A17583  28.388  12.886   8.555
 6729POPC   D2A17584  28.329  12.884   8.255
 6729POPC   C3A17585  28.333  12.838   7.955
 6729POPC   C4A17586  28.324  12.803   7.655
 6729POPC   C1B17587  28.163  13.017   8.555
 6729POPC   C2B17588  28.210  12.978   8.255
 6729POPC   C3B17589  28.179  13.018   7.955
 6729POPC   C4B17590  28.176  12.977   7.655
 6730POPC   NC317591  23.684  31.425   9.455
 6730POPC   PO417592  23.679  31.509   9.155
 6730POPC   GL117593  23.723  31.485   8.855
 6730POPC   GL217594  23.799  31.589   8.855
 6730POPC   C1A17595  23.682  31.442   8.555
 6730POPC   D2A17596  23.665  31.513   8.255
 6730POPC   C3A17597  23.668  31.517   7.955
 6730POPC   C4A17598  23.701  31.496   7.655
 6730POPC   C1B17599  23.871  31.643   8.555
 6730POPC   C2B17600  23.798  31.699   8.255
 6730POPC   C3B17601  23.797  31.652   7.955
 6730POPC   C4B17602  23.841  31.699   7.655
 6731POPC   NC317603  42.328  41.534   9.455
 6731POPC   PO417604  42.361  41.576   9.155
 6731POPC   GL117605  42.369  41.596   8.855
 6731POPC   GL217606  42.433  41.529   8.855
 6731POPC   C1A17607  42.321  41.563   8.555
 6731POPC   D2A17608  42.329  41.530   8.255
 6731POPC   C3A17609  42.337  41.591   7.955
 6731POPC   C4A17610  42.349  41.543   7.655
 6731POPC   C1B17611  42.557  41.421   8.555
 6731POPC   C2B17612  42.564  41.437   8.255
 6731POPC   C3B17613  42.575  41.450   7.955
 6731POPC   C4B17614  42.487  41.442   7.655
 6732POPC   NC317615   8.993   5.867   9.455
 6732POPC   PO417616   8.953   5.900   9.155
 6732POPC   GL117617   8.925   5.824   8.855
 6732POPC   GL217618   9.140   5.827   8.855
 6732POPC   C1A17619   8.952   5.841   8.555
 6732POPC   D2A17620   8.985   5.914   8.255
 6732POPC   C3A17621   9.017   5.861   7.955
 6732POPC   C4A17622   8.941   5.839   7.655
 6732POPC   C1B17623   9.198   5.759   8.555
 6732POPC   C2B17624   9.238   5.821   8.255
 6732POPC   C3B17625   9.174   5.762   7.955
 6732POPC   C4B17626   9.195   5.759   7.655
 6733POPC   NC317627  15.988  24.474   9.455
 6733POPC   PO417628  15.930  24.484   9.155
 6733POPC   GL117629  15.992  24.461   8.855
 6733POPC   GL217630  15.885  24.407   8.855
 6733POPC   C1A17631  15.916  24.450   8.555
 6733POPC   D2A17632  15.990  24.537   8.255
 6733POPC   C3A17633  15.966  24.453   7.955
 6733POPC   C4A17634  15.957  24.498   7.655
 6733POPC   C1B17635  15.747  24.442   8.555
 6733POPC   C2B17636  15.729  24.392   8.255
 6733POPC   C3B17637  15.670  24.364   7.955
 6733POPC   C4B17638  15.705  24.441   7.655
 6734POPC   NC317639  15.979   1.219   9.455
 6734POPC   PO417640  16.001   1.174   9.155
 6734POPC   GL117641  15.993   1.165   8.855
 6734POPC   GL217642  15.818   1.311   8.855
 6734POPC   C1A17643  15.912   1.205   8.555
 6734POPC   D2A17644  15.969   1.226   8.255
 6734POPC   C3A17645  15.925   1.198   7.955
 6734POPC   C4A17646  15.944   1.201   7.655
 6734POPC   C1B17647  15.714   1.333   8.555
 6734POPC   C2B17648  15.742   1.341   8.255
 6734POPC   C3B17649  15.760   1.392   7.955
 6734POPC   C4B17650  15.776   1.343   7.655
 6735POPC   NC317651  19.794  37.672   9.455
 6735POPC   PO417652  19.800  37.658   9.155
 6735POPC   GL117653  19.882  37.641   8.855
 6735POPC   GL217654  19.743  37.731   8.855
 6735POPC   C1A17655  19.839  37.729   8.555
 6735POPC   D2A17656  19.872  37.640   8.255
 6735POPC   C3A17657  19.884  37.727   7.955
 6735POPC   C4A17658  19.873  37.724   7.655
 6735POPC   C1B17659  19.657  37.809   8.555
 6735POPC   C2B17660  19.597  37.880   8.255
 6735POPC   C3B17661  19.627  37.837   7.955
 6735POPC   C4B17662  19.623  37.866   7.655
 6736POPC   NC317663  26.813  18.331   9.455
 6736POPC   PO417664  26.804  18.282   9.155
 6736POPC   GL117665  26.789  18.284   8.855
 6736POPC   GL217666  26.718  18.195   8.855
 6736POPC   C1A17667  26.867  18.301   8.555
 6736POPC   D2A17668  26.829  18.330   8.255
 6736POPC   C3A17669  26.776  18.287   7.955
 6736POPC   C4A17670  26.844  18.283   7.655
 6736POPC   C1B17671  26.672  18.098   8.555
 6736POPC   C2B17672  26.686  18.097   8.255
 6736POPC   C3B17673  26.635  18.043   7.955
 6736POPC   C4B17674  26.678  18.072   7.655
 6737POPC   NC317675  33.754  23.756   9.455
 6737POPC   PO417676  33.829  23.757   9.155
 6737POPC   GL117677  33.752  23.737   8.855
 6737POPC   GL217678  33.697  23.649   8.855
 6737POPC   C1A17679  33.775  23.696   8.555
 6737POPC   D2A17680  33.820  23.731   8.255
 6737POPC   C3A17681  33.831  23.708   7.955
 6737POPC   C4A17682  33.759  23.719   7.655
 6737POPC   C1B17683  33.718  23.459   8.555
 6737POPC   C2B17684  33.707  23.457   8.255
 6737POPC   C3B17685  33.651  23.479   7.955
 6737POPC   C4B17686  33.645  23.539   7.655
 6738POPC   NC317687  39.212   9.780   9.455
 6738POPC   PO417688  39.275   9.793   9.155
 6738POPC   GL117689  39.200   9.785   8.855
 6738POPC   GL217690  39.301   9.844   8.855
 6738POPC   C1A17691  39.194   9.778   8.555
 6738POPC   D2A17692  39.220   9.786   8.255
 6738POPC   C3A17693  39.205   9.745   7.955
 6738POPC   C4A17694  39.240   9.711   7.655
 6738POPC   C1B17695  39.322   9.946   8.555
 6738POPC   C2B17696  39.325   9.984   8.255
 6738POPC   C3B17697  39.265  10.016   7.955
 6738POPC   C4B17698  39.276  10.017   7.655
 6739POPC   NC317699  31.505  27.592   9.455
 6739POPC   PO417700  31.441  27.585   9.155
 6739POPC   GL117701  31.502  27.571   8.855
 6739POPC   GL217702  31.466  27.731   8.855
 6739POPC   C1A17703  31.429  27.608   8.555
 6739POPC   D2A17704  31.495  27.607   8.255
 6739POPC   C3A17705  31.431  27.562   7.955
 6739POPC   C4A17706  31.484  27.605   7.655
 6739POPC   C1B17707  31.321  27.790   8.555
 6739POPC   C2B17708  31.322  27.818   8.255
 6739POPC   C3B17709  31.316  27.807   7.955
 6739POPC   C4B17710  31.341  27.824   7.655
 6740POPC   NC317711  15.922   9.020   9.455
 6740POPC   PO417712  15.968   8.964   9.155
 6740POPC   GL117713  15.991   8.992   8.855
 6740POPC   GL217714  16.048   8.849   8.855
 6740POPC   C1A17715  15.937   9.016   8.555
 6740POPC   D2A17716  15.929   8.944   8.255
 6740POPC   C3A17717  15.976   8.925   7.955
 6740POPC   C4A17718  15.953   9.002   7.655
 6740POPC   C1B17719  16.066   8.727   8.555
 6740POPC   C2B17720  16.104   8.708   8.255
 6740POPC   C3B17721  16.059   8.771   7.955
 6740POPC   C4B17722  16.068   8.758   7.655
 6741POPC   NC317723  41.523  27.548   9.455
 6741POPC   PO417724  41.531  27.626   9.155
 6741POPC   GL117725  41.533  27.605   8.855
 6741POPC   GL217726  41.598  27.461   8.855
 6741POPC   C1A17727  41.579  27.544   8.555
 6741POPC   D2A17728  41.520  27.567   8.255
 6741POPC   C3A17729  41.535  27.606   7.955
 6741POPC   C4A17730  41.549  27.639   7.655
 6741POPC   C1B17731  41.647  27.330   8.555
 6741POPC   C2B17732  41.571  27.351   8.255
 6741POPC   C3B17733  41.605  27.360   7.955
 6741POPC   C4B17734  41.595  27.298   7.655
 6742POPC   NC317735  33.038   5.083   9.455
 6742POPC   PO417736  32.993   5.074   9.155
 6742POPC   GL117737  33.003   5.056   8.855
 6742POPC   GL217738  33.015   4.929   8.855
 6742POPC   C1A17739  33.016   5.076   8.555
 6742POPC   D2A17740  32.980   5.142   8.255
 6742POPC   C3A17741  33.022   5.123   7.955
 6742POPC   C4A17742  33.004   5.105   7.655
 6742POPC   C1B17743  33.005   4.832   8.555
 6742POPC   C2B17744  33.002   4.878   8.255
 6742POPC   C3B17745  32.973   4.833   7.955
 6742POPC   C4B17746  33.055   4.860   7.655
 6743POPC   NC317747   0.469  16.701   9.455
 6743POPC   PO417748   0.434  16.703   9.155
 6743POPC   GL117749   0.424  16.770   8.855
 6743POPC   GL217750   0.502  16.790   8.855
 6743POPC   C1A17751   0.453  16.767   8.555
 6743POPC   D2A17752   0.458  16.709   8.255
 6743POPC   C3A17753   0.456  16.688   7.955
 6743POPC   C4A17754   0.466  16.755   7.655
 6743POPC   C1B17755   0.619  16.917   8.555
 6743POPC   C2B17756   0.545  16.889   8.255
 6743POPC   C3B17757   0.630  16.897   7.955
 6743POPC   C4B17758   0.590  16.957   7.655
 6744POPC   NC317759  30.651   5.849   9.455
 6744POPC   PO417760  30.660   5.826   9.155
 6744POPC   GL117761  30.670   5.864   8.855
 6744POPC   GL217762  30.763   5.999   8.855
 6744POPC   C1A17763  30.703   5.889   8.555
 6744POPC   D2A17764  30.668   5.844   8.255
 6744POPC   C3A17765  30.688   5.849   7.955
 6744POPC   C4A17766  30.651   5.848   7.655
 6744POPC   C1B17767  30.845   6.044   8.555
 6744POPC   C2B17768  30.896   6.095   8.255
 6744POPC   C3B17769  30.900   6.005   7.955
 6744POPC   C4B17770  30.913   6.090   7.655
 6745POPC   NC317771  19.079  39.182   9.455
 6745POPC   PO417772  19.050  39.184   9.155
 6745POPC   GL117773  19.083  39.251   8.855
 6745POPC   GL217774  19.036  39.122   8.855
 6745POPC   C1A17775  19.013  39.199   8.555
 6745POPC   D2A17776  19.029  39.190   8.255
 6745POPC   C3A17777  19.035  39.247   7.955
 6745POPC   C4A17778  19.046  39.182   7.655
 6745POPC   C1B17779  18.920  39.052   8.555
 6745POPC   C2B17780  18.871  39.050   8.255
 6745POPC   C3B17781  18.963  38.997   7.955
 6745POPC   C4B17782  18.963  39.050   7.655
 6746POPC   NC317783  30.658   5.079   9.455
 6746POPC   PO417784  30.715   5.091   9.155
 6746POPC   GL117785  30.686   5.096   8.855
 6746POPC   GL217786  30.536   5.150   8.855
 6746POPC   C1A17787  30.669   5.058   8.555
 6746POPC   D2A17788  30.704   5.137   8.255
 6746POPC   C3A17789  30.726   5.075   7.955
 6746POPC   C4A17790  30.692   5.143   7.655
 6746POPC   C1B17791  30.438   5.234   8.555
 6746POPC   C2B17792  30.474   5.236   8.255
 6746POPC   C3B17793  30.484   5.258   7.955
 6746POPC   C4B17794  30.434   5.241   7.655
 6747POPC   NC317795   8.246  26.058   9.455
 6747POPC   PO417796   8.197  26.029   9.155
 6747POPC   GL117797   8.194  26.068   8.855
 6747POPC   GL217798   8.113  25.932   8.855
 6747POPC   C1A17799   8.162  26.010   8.555
 6747POPC   D2A17800   8.188  26.090   8.255
 6747POPC   C3A17801   8.149  26.010   7.955
 6747POPC   C4A17802   8.202  26.073   7.655
 6747POPC   C1B17803   8.007  25.835   8.555
 6747POPC   C2B17804   8.003  25.827   8.255
 6747POPC   C3B17805   8.011  25.846   7.955
 6747POPC   C4B17806   8.069  25.879   7.655
 6748POPC   NC317807  43.115  22.930   9.455
 6748POPC   PO417808  43.144  22.957   9.155
 6748POPC   GL117809  43.121  22.942   8.855
 6748POPC   GL217810  43.244  22.971   8.855
 6748POPC   C1A17811  43.066  22.889   8.555
 6748POPC   D2A17812  43.117  22.931   8.255
 6748POPC   C3A17813  43.098  22.910   7.955
 6748POPC   C4A17814  43.117  22.967   7.655
 6748POPC   C1B17815  43.384  23.022   8.555
 6748POPC   C2B17816  43.298  23.018   8.255
 6748POPC   C3B17817  43.318  22.995   7.955
 6748POPC   C4B17818  43.390  22.973   7.655
 6749POPC   NC317819   5.098  31.496   9.455
 6749POPC   PO417820   5.049  31.439   9.155
 6749POPC   GL117821   5.058  31.510   8.855
 6749POPC   GL217822   5.177  31.449   8.855
 6749POPC   C1A17823   5.100  31.521   8.555
 6749POPC   D2A17824   5.122  31.425   8.255
 6749POPC   C3A17825   5.110  31.433   7.955
 6749POPC   C4A17826   5.060  31.504   7.655
 6749POPC   C1B17827   5.316  31.387   8.555
 6749POPC   C2B17828   5.283  31.373   8.255
 6749POPC   C3B17829   5.332  31.329   7.955
 6749POPC   C4B17830   5.356  31.329   7.655
 6750POPC   NC317831  31.468  18.258   9.455
 6750POPC   PO417832  31.513  18.326   9.155
 6750POPC   GL117833  31.510  18.260   8.855
 6750POPC   GL217834  31.380  18.198   8.855
 6750POPC   C1A17835  31.480  18.258   8.555
 6750POPC   D2A17836  31.441  18.248   8.255
 6750POPC   C3A17837  31.458  18.287   7.955
 6750POPC   C4A17838  31.437  18.265   7.655
 6750POPC   C1B17839  31.385  18.092   8.555
 6750POPC   C2B17840  31.374  18.040   8.255
 6750POPC   C3B17841  31.403  18.032   7.955
 6750POPC   C4B17842  31.339  18.021   7.655
 6751POPC   NC317843  18.273  35.386   9.455
 6751POPC   PO417844  18.247  35.321   9.155
 6751POPC   GL117845  18.313  35.319   8.855
 6751POPC   GL217846  18.385  35.292   8.855
 6751POPC   C1A17847  18.288  35.370   8.555
 6751POPC   D2A17848  18.324  35.349   8.255
 6751POPC   C3A17849  18.303  35.369   7.955
 6751POPC   C4A17850  18.326  35.400   7.655
 6751POPC   C1B17851  18.431  35.184   8.555
 6751POPC   C2B17852  18.490  35.165   8.255
 6751POPC   C3B17853  18.444  35.154   7.955
 6751POPC   C4B17854  18.488  35.159   7.655
 6752POPC   NC317855  36.870   2.797   9.455
 6752POPC   PO417856  36.908   2.807   9.155
 6752POPC   GL117857  36.909   2.787   8.855
 6752POPC   GL217858  36.785   2.726   8.855
 6752POPC   C1A17859  36.874   2.787   8.555
 6752POPC   D2A17860  36.919   2.755   8.255
 6752POPC   C3A17861  36.913   2.807   7.955
 6752POPC   C4A17862  36.872   2.746   7.655
 6752POPC   C1B17863  36.690   2.627   8.555
 6752POPC   C2B17864  36.692   2.668   8.255
 6752POPC   C3B17865  36.666   2.628   7.955
 6752POPC   C4B17866  36.671   2.601   7.655
 6753POPC   NC317867   5.878  37.679   9.455
 6753POPC   PO417868   5.824  37.694   9.155
 6753POPC   GL117869   5.841  37.678   8.855
 6753POPC   GL217870   5.963  37.690   8.855
 6753POPC   C1A17871   5.881  37.725   8.555
 6753POPC   D2A17872   5.897  37.700   8.255
 6753POPC   C3A17873   5.905  37.712   7.955
 6753POPC   C4A17874   5.842  37.707   7.655
 6753POPC   C1B17875   6.065  37.671   8.555
 6753POPC   C2B17876   6.065  37.634   8.255
 6753POPC   C3B17877   6.153  37.598   7.955
 6753POPC   C4B17878   6.160  37.639   7.655
 6754POPC   NC317879   8.200   3.501   9.455
 6754POPC   PO417880   8.240   3.508   9.155
 6754POPC   GL117881   8.222   3.513   8.855
 6754POPC   GL217882   8.255   3.410   8.855
 6754POPC   C1A17883   8.171   3.508   8.555
 6754POPC   D2A17884   8.178   3.567   8.255
 6754POPC   C3A17885   8.172   3.492   7.955
 6754POPC   C4A17886   8.162   3.528   7.655
 6754POPC   C1B17887   8.380   3.352   8.555
 6754POPC   C2B17888   8.360   3.372   8.255
 6754POPC   C3B17889   8.377   3.410   7.955
 6754POPC   C4B17890   8.354   3.388   7.655
 6755POPC   NC317891  25.259   4.349   9.455
 6755POPC   PO417892  25.227   4.293   9.155
 6755POPC   GL117893  25.311   4.306   8.855
 6755POPC   GL217894  25.377   4.340   8.855
 6755POPC   C1A17895  25.231   4.358   8.555
 6755POPC   D2A17896  25.307   4.320   8.255
 6755POPC   C3A17897  25.308   4.309   7.955
 6755POPC   C4A17898  25.294   4.348   7.655
 6755POPC   C1B17899  25.538   4.282   8.555
 6755POPC   C2B17900  25.510   4.304   8.255
 6755POPC   C3B17901  25.497   4.345   7.955
 6755POPC   C4B17902  25.483   4.342   7.655
 6756POPC   NC317903  32.218   4.317   9.455
 6756POPC   PO417904  32.247   4.275   9.155
 6756POPC   GL117905  32.262   4.286   8.855
 6756POPC   GL217906  32.394   4.295   8.855
 6756POPC   C1A17907  32.277   4.289   8.555
 6756POPC   D2A17908  32.209   4.273   8.255
 6756POPC   C3A17909  32.233   4.305   7.955
 6756POPC   C4A17910  32.275   4.315   7.655
 6756POPC   C1B17911  32.471   4.321   8.555
 6756POPC   C2B17912  32.515   4.300   8.255
 6756POPC   C3B17913  32.476   4.317   7.955
 6756POPC   C4B17914  32.501   4.267   7.655
 6757POPC   NC317915   4.337  22.134   9.455
 6757POPC   PO417916   4.310  22.196   9.155
 6757POPC   GL117917   4.356  22.211   8.855
 6757POPC   GL217918   4.306  22.043   8.855
 6757POPC   C1A17919   4.284  22.165   8.555
 6757POPC   D2A17920   4.340  22.197   8.255
 6757POPC   C3A17921   4.269  22.121   7.955
 6757POPC   C4A17922   4.362  22.207   7.655
 6757POPC   C1B17923   4.179  21.973   8.555
 6757POPC   C2B17924   4.205  21.907   8.255
 6757POPC   C3B17925   4.169  21.925   7.955
 6757POPC   C4B17926   4.247  21.973   7.655
 6758POPC   NC317927  26.036  14.363   9.455
 6758POPC   PO417928  26.028  14.387   9.155
 6758POPC   GL117929  26.006  14.424   8.855
 6758POPC   GL217930  25.966  14.489   8.855
 6758POPC   C1A17931  26.011  14.382   8.555
 6758POPC   D2A17932  26.052  14.413   8.255
 6758POPC   C3A17933  26.070  14.443   7.955
 6758POPC   C4A17934  26.073  14.361   7.655
 6758POPC   C1B17935  25.899  14.559   8.555
 6758POPC   C2B17936  25.850  14.634   8.255
 6758POPC   C3B17937  25.896  14.618   7.955
 6758POPC   C4B17938  25.847  14.625   7.655
 6759POPC   NC317939  20.634  30.663   9.455
 6759POPC   PO417940  20.561  30.652   9.155
 6759POPC   GL117941  20.656  30.680   8.855
 6759POPC   GL217942  20.689  30.618   8.855
 6759POPC   C1A17943  20.590  30.696   8.555
 6759POPC   D2A17944  20.618  30.656   8.255
 6759POPC   C3A17945  20.633  30.671   7.955
 6759POPC   C4A17946  20.585  30.648   7.655
 6759POPC   C1B17947  20.728  30.508   8.555
 6759POPC   C2B17948  20.726  30.455   8.255
 6759POPC   C3B17949  20.715  30.462   7.955
 6759POPC   C4B17950  20.756  30.488   7.655
 6760POPC   NC317951   7.469  13.631   9.455
 6760POPC   PO417952   7.400  13.584   9.155
 6760POPC   GL117953   7.463  13.607   8.855
 6760POPC   GL217954   7.550  13.710   8.855
 6760POPC   C1A17955   7.408  13.595   8.555
 6760POPC   D2A17956   7.395  13.654   8.255
 6760POPC   C3A17957   7.432  13.598   7.955
 6760POPC   C4A17958   7.464  13.605   7.655
 6760POPC   C1B17959   7.663  13.724   8.555
 6760POPC   C2B17960   7.656  13.686   8.255
 6760POPC   C3B17961   7.634  13.699   7.955
 6760POPC   C4B17962   7.663  13.734   7.655
 6761POPC   NC317963  23.715  38.478   9.455
 6761POPC   PO417964  23.709  38.457   9.155
 6761POPC   GL117965  23.756  38.478   8.855
 6761POPC   GL217966  23.642  38.544   8.855
 6761POPC   C1A17967  23.743  38.449   8.555
 6761POPC   D2A17968  23.717  38.496   8.255
 6761POPC   C3A17969  23.751  38.433   7.955
 6761POPC   C4A17970  23.728  38.449   7.655
 6761POPC   C1B17971  23.577  38.705   8.555
 6761POPC   C2B17972  23.600  38.641   8.255
 6761POPC   C3B17973  23.659  38.685   7.955
 6761POPC   C4B17974  23.647  38.661   7.655
 6762POPC   NC317975  32.237  26.019   9.455
 6762POPC   PO417976  32.236  26.083   9.155
 6762POPC   GL117977  32.204  26.062   8.855
 6762POPC   GL217978  32.194  26.110   8.855
 6762POPC   C1A17979  32.200  26.080   8.555
 6762POPC   D2A17980  32.266  25.995   8.255
 6762POPC   C3A17981  32.283  26.055   7.955
 6762POPC   C4A17982  32.223  26.082   7.655
 6762POPC   C1B17983  32.043  26.206   8.555
 6762POPC   C2B17984  32.005  26.166   8.255
 6762POPC   C3B17985  32.039  26.187   7.955
 6762POPC   C4B17986  31.996  26.217   7.655
 6763POPC   NC317987  35.360  38.453   9.455
 6763POPC   PO417988  35.345  38.442   9.155
 6763POPC   GL117989  35.355  38.424   8.855
 6763POPC   GL217990  35.388  38.355   8.855
 6763POPC   C1A17991  35.394  38.413   8.555
 6763POPC   D2A17992  35.362  38.475   8.255
 6763POPC   C3A17993  35.349  38.493   7.955
 6763POPC   C4A17994  35.338  38.452   7.655
 6763POPC   C1B17995  35.488  38.258   8.555
 6763POPC   C2B17996  35.485  38.262   8.255
 6763POPC   C3B17997  35.458  38.218   7.955
 6763POPC   C4B17998  35.450  38.247   7.655
 6764POPC   NC317999  28.417   2.794   9.455
 6764POPC   PO418000  28.351   2.801   9.155
 6764POPC   GL118001  28.363   2.760   8.855
 6764POPC   GL218002  28.493   2.743   8.855
 6764POPC   C1A18003  28.408   2.765   8.555
 6764POPC   D2A18004  28.357   2.723   8.255
 6764POPC   C3A18005  28.372   2.786   7.955
 6764POPC   C4A18006  28.416   2.770   7.655
 6764POPC   C1B18007  28.610   2.742   8.555
 6764POPC   C2B18008  28.619   2.666   8.255
 6764POPC   C3B18009  28.626   2.745   7.955
 6764POPC   C4B18010  28.565   2.754   7.655
 6765POPC   NC318011  36.883   7.462   9.455
 6765POPC   PO418012  36.951   7.429   9.155
 6765POPC   GL118013  36.906   7.445   8.855
 6765POPC   GL218014  36.869   7.497   8.855
 6765POPC   C1A18015  36.917   7.414   8.555
 6765POPC   D2A18016  36.898   7.409   8.255
 6765POPC   C3A18017  36.938   7.425   7.955
 6765POPC   C4A18018  36.870   7.460   7.655
 6765POPC   C1B18019  36.704   7.666   8.555
 6765POPC   C2B18020  36.745   7.664   8.255
 6765POPC   C3B18021  36.769   7.604   7.955
 6765POPC   C4B18022  36.736   7.570   7.655
 6766POPC   NC318023  26.069  44.645   9.455
 6766POPC   PO418024  26.060  44.684   9.155
 6766POPC   GL118025  26.074  44.621   8.855
 6766POPC   GL218026  26.120  44.535   8.855
 6766POPC   C1A18027  25.998  44.655   8.555
 6766POPC   D2A18028  26.057  44.617   8.255
 6766POPC   C3A18029  26.008  44.702   7.955
 6766POPC   C4A18030  26.054  44.674   7.655
 6766POPC   C1B18031  26.231  44.482   8.555
 6766POPC   C2B18032  26.191  44.495   8.255
 6766POPC   C3B18033  26.153  44.479   7.955
 6766POPC   C4B18034  26.204  44.503   7.655
 6767POPC   NC318035  42.353  11.350   9.455
 6767POPC   PO418036  42.382  11.314   9.155
 6767POPC   GL118037  42.337  11.328   8.855
 6767POPC   GL218038  42.455  11.373   8.855
 6767POPC   C1A18039  42.286  11.332   8.555
 6767POPC   D2A18040  42.289  11.266   8.255
 6767POPC   C3A18041  42.343  11.341   7.955
 6767POPC   C4A18042  42.321  11.251   7.655
 6767POPC   C1B18043  42.594  11.406   8.555
 6767POPC   C2B18044  42.559  11.334   8.255
 6767POPC   C3B18045  42.566  11.347   7.955
 6767POPC   C4B18046  42.541  11.346   7.655
 6768POPC   NC318047  19.881   0.390   9.455
 6768POPC   PO418048  19.866   0.451   9.155
 6768POPC   GL118049  19.869   0.398   8.855
 6768POPC   GL218050  19.899   0.457   8.855
 6768POPC   C1A18051  19.880   0.462   8.555
 6768POPC   D2A18052  19.816   0.461   8.255
 6768POPC   C3A18053  19.814   0.450   7.955
 6768POPC   C4A18054  19.834   0.413   7.655
 6768POPC   C1B18055  20.026   0.590   8.555
 6768POPC   C2B18056  20.080   0.520   8.255
 6768POPC   C3B18057  20.049   0.611   7.955
 6768POPC   C4B18058  20.070   0.567   7.655
 6769POPC   NC318059  25.270  32.989   9.455
 6769POPC   PO418060  25.248  32.998   9.155
 6769POPC   GL118061  25.278  33.017   8.855
 6769POPC   GL218062  25.292  32.875   8.855
 6769POPC   C1A18063  25.259  33.009   8.555
 6769POPC   D2A18064  25.251  33.009   8.255
 6769POPC   C3A18065  25.274  33.032   7.955
 6769POPC   C4A18066  25.304  33.007   7.655
 6769POPC   C1B18067  25.339  32.808   8.555
 6769POPC   C2B18068  25.363  32.778   8.255
 6769POPC   C3B18069  25.328  32.780   7.955
 6769POPC   C4B18070  25.384  32.782   7.655
 6770POPC   NC318071  32.273  22.175   9.455
 6770POPC   PO418072  32.249  22.209   9.155
 6770POPC   GL118073  32.285  22.160   8.855
 6770POPC   GL218074  32.109  22.209   8.855
 6770POPC   C1A18075  32.272  22.206   8.555
 6770POPC   D2A18076  32.269  22.163   8.255
 6770POPC   C3A18077  32.240  22.131   7.955
 6770POPC   C4A18078  32.228  22.159   7.655
 6770POPC   C1B18079  32.006  22.158   8.555
 6770POPC   C2B18080  31.993  22.241   8.255
 6770POPC   C3B18081  32.050  22.203   7.955
 6770POPC   C4B18082  32.030  22.203   7.655
 6771POPC   NC318083  11.276  37.632   9.455
 6771POPC   PO418084  11.282  37.631   9.155
 6771POPC   GL118085  11.272  37.726   8.855
 6771POPC   GL218086  11.289  37.754   8.855
 6771POPC   C1A18087  11.314  37.722   8.555
 6771POPC   D2A18088  11.331  37.716   8.255
 6771POPC   C3A18089  11.273  37.716   7.955
 6771POPC   C4A18090  11.290  37.683   7.655
 6771POPC   C1B18091  11.175  37.902   8.555
 6771POPC   C2B18092  11.185  37.889   8.255
 6771POPC   C3B18093  11.206  37.946   7.955
 6771POPC   C4B18094  11.211  37.891   7.655
 6772POPC   NC318095   1.964  12.862   9.455
 6772POPC   PO418096   1.961  12.888   9.155
 6772POPC   GL118097   1.998  12.832   8.855
 6772POPC   GL218098   2.125  12.910   8.855
 6772POPC   C1A18099   1.956  12.802   8.555
 6772POPC   D2A18100   1.958  12.802   8.255
 6772POPC   C3A18101   2.018  12.890   7.955
 6772POPC   C4A18102   2.002  12.883   7.655
 6772POPC   C1B18103   2.186  12.869   8.555
 6772POPC   C2B18104   2.213  12.896   8.255
 6772POPC   C3B18105   2.211  12.943   7.955
 6772POPC   C4B18106   2.271  12.921   7.655
 6773POPC   NC318107  12.839  26.044   9.455
 6773POPC   PO418108  12.846  26.020   9.155
 6773POPC   GL118109  12.866  26.000   8.855
 6773POPC   GL218110  12.932  26.113   8.855
 6773POPC   C1A18111  12.840  26.015   8.555
 6773POPC   D2A18112  12.815  26.040   8.255
 6773POPC   C3A18113  12.892  26.073   7.955
 6773POPC   C4A18114  12.883  26.018   7.655
 6773POPC   C1B18115  13.036  26.176   8.555
 6773POPC   C2B18116  12.993  26.167   8.255
 6773POPC   C3B18117  13.019  26.235   7.955
 6773POPC   C4B18118  13.079  26.193   7.655
 6774POPC   NC318119  37.682  38.429   9.455
 6774POPC   PO418120  37.728  38.426   9.155
 6774POPC   GL118121  37.682  38.452   8.855
 6774POPC   GL218122  37.744  38.566   8.855
 6774POPC   C1A18123  37.671  38.410   8.555
 6774POPC   D2A18124  37.654  38.487   8.255
 6774POPC   C3A18125  37.679  38.410   7.955
 6774POPC   C4A18126  37.701  38.429   7.655
 6774POPC   C1B18127  37.694  38.699   8.555
 6774POPC   C2B18128  37.715  38.711   8.255
 6774POPC   C3B18129  37.740  38.671   7.955
 6774POPC   C4B18130  37.727  38.671   7.655
 6775POPC   NC318131   2.038  42.331   9.455
 6775POPC   PO418132   2.030  42.304   9.155
 6775POPC   GL118133   2.022  42.367   8.855
 6775POPC   GL218134   2.162  42.369   8.855
 6775POPC   C1A18135   1.976  42.347   8.555
 6775POPC   D2A18136   2.023  42.317   8.255
 6775POPC   C3A18137   1.974  42.364   7.955
 6775POPC   C4A18138   2.021  42.382   7.655
 6775POPC   C1B18139   2.244  42.418   8.555
 6775POPC   C2B18140   2.268  42.344   8.255
 6775POPC   C3B18141   2.186  42.395   7.955
 6775POPC   C4B18142   2.223  42.366   7.655
 6776POPC   NC318143  39.217  30.729   9.455
 6776POPC   PO418144  39.247  30.671   9.155
 6776POPC   GL118145  39.245  30.673   8.855
 6776POPC   GL218146  39.219  30.605   8.855
 6776POPC   C1A18147  39.221  30.704   8.555
 6776POPC   D2A18148  39.274  30.718   8.255
 6776POPC   C3A18149  39.253  30.714   7.955
 6776POPC   C4A18150  39.278  30.732   7.655
 6776POPC   C1B18151  39.172  30.457   8.555
 6776POPC   C2B18152  39.138  30.445   8.255
 6776POPC   C3B18153  39.085  30.448   7.955
 6776POPC   C4B18154  39.158  30.439   7.655
 6777POPC   NC318155  26.051  16.732   9.455
 6777POPC   PO418156  26.009  16.777   9.155
 6777POPC   GL118157  26.016  16.765   8.855
 6777POPC   GL218158  26.148  16.781   8.855
 6777POPC   C1A18159  26.077  16.758   8.555
 6777POPC   D2A18160  26.005  16.751   8.255
 6777POPC   C3A18161  26.046  16.773   7.955
 6777POPC   C4A18162  26.020  16.734   7.655
 6777POPC   C1B18163  26.255  16.835   8.555
 6777POPC   C2B18164  26.260  16.872   8.255
 6777POPC   C3B18165  26.275  16.848   7.955
 6777POPC   C4B18166  26.258  16.815   7.655
 6778POPC   NC318167  32.270   5.118   9.455
 6778POPC   PO418168  32.274   5.120   9.155
 6778POPC   GL118169  32.264   5.136   8.855
 6778POPC   GL218170  32.300   5.177   8.855
 6778POPC   C1A18171  32.267   5.103   8.555
 6778POPC   D2A18172  32.210   5.103   8.255
 6778POPC   C3A18173  32.222   5.137   7.955
 6778POPC   C4A18174  32.241   5.055   7.655
 6778POPC   C1B18175  32.375   5.313   8.555
 6778POPC   C2B18176  32.376   5.246   8.255
 6778POPC   C3B18177  32.438   5.263   7.955
 6778POPC   C4B18178  32.458   5.323   7.655
 6779POPC   NC318179  36.146  19.030   9.455
 6779POPC   PO418180  36.089  19.026   9.155
 6779POPC   GL118181  36.149  19.081   8.855
 6779POPC   GL218182  36.054  19.017   8.855
 6779POPC   C1A18183  36.097  19.070   8.555
 6779POPC   D2A18184  36.145  19.018   8.255
 6779POPC   C3A18185  36.166  19.091   7.955
 6779POPC   C4A18186  36.147  19.038   7.655
 6779POPC   C1B18187  35.860  18.989   8.555
 6779POPC   C2B18188  35.880  18.949   8.255
 6779POPC   C3B18189  35.873  19.021   7.955
 6779POPC   C4B18190  35.918  19.043   7.655
 6780POPC   NC318191  30.664  26.071   9.455
 6780POPC   PO418192  30.665  26.031   9.155
 6780POPC   GL118193  30.692  25.992   8.855
 6780POPC   GL218194  30.608  26.155   8.855
 6780POPC   C1A18195  30.723  26.047   8.555
 6780POPC   D2A18196  30.670  26.033   8.255
 6780POPC   C3A18197  30.711  26.085   7.955
 6780POPC   C4A18198  30.732  25.994   7.655
 6780POPC   C1B18199  30.622  26.291   8.555
 6780POPC   C2B18200  30.628  26.229   8.255
 6780POPC   C3B18201  30.582  26.262   7.955
 6780POPC   C4B18202  30.583  26.304   7.655
 6781POPC   NC318203   5.877  39.249   9.455
 6781POPC   PO418204   5.837  39.201   9.155
 6781POPC   GL118205   5.845  39.242   8.855
 6781POPC   GL218206   6.021  39.220   8.855
 6781POPC   C1A18207   5.875  39.183   8.555
 6781POPC   D2A18208   5.899  39.235   8.255
 6781POPC   C3A18209   5.894  39.258   7.955
 6781POPC   C4A18210   5.841  39.189   7.655
 6781POPC   C1B18211   6.146  39.170   8.555
 6781POPC   C2B18212   6.142  39.140   8.255
 6781POPC   C3B18213   6.074  39.145   7.955
 6781POPC   C4B18214   6.098  39.146   7.655
 6782POPC   NC318215  21.354   7.391   9.455
 6782POPC   PO418216  21.388   7.384   9.155
 6782POPC   GL118217  21.371   7.426   8.855
 6782POPC   GL218218  21.491   7.277   8.855
 6782POPC   C1A18219  21.402   7.460   8.555
 6782POPC   D2A18220  21.376   7.452   8.255
 6782POPC   C3A18221  21.406   7.422   7.955
 6782POPC   C4A18222  21.417   7.389   7.655
 6782POPC   C1B18223  21.530   7.226   8.555
 6782POPC   C2B18224  21.546   7.201   8.255
 6782POPC   C3B18225  21.492   7.157   7.955
 6782POPC   C4B18226  21.537   7.183   7.655
 6783POPC   NC318227  25.224  14.388   9.455
 6783POPC   PO418228  25.230  14.367   9.155
 6783POPC   GL118229  25.306  14.411   8.855
 6783POPC   GL218230  25.211  14.306   8.855
 6783POPC   C1A18231  25.277  14.416   8.555
 6783POPC   D2A18232  25.273  14.382   8.255
 6783POPC   C3A18233  25.314  14.449   7.955
 6783POPC   C4A18234  25.246  14.445   7.655
 6783POPC   C1B18235  25.156  14.168   8.555
 6783POPC   C2B18236  25.123  14.193   8.255
 6783POPC   C3B18237  25.175  14.218   7.955
 6783POPC   C4B18238  25.115  14.180   7.655
 6784POPC   NC318239  19.880   1.205   9.455
 6784POPC   PO418240  19.816   1.188   9.155
 6784POPC   GL118241  19.877   1.264   8.855
 6784POPC   GL218242  19.949   1.252   8.855
 6784POPC   C1A18243  19.858   1.200   8.555
 6784POPC   D2A18244  19.867   1.258   8.255
 6784POPC   C3A18245  19.793   1.178   7.955
 6784POPC   C4A18246  19.838   1.263   7.655
 6784POPC   C1B18247  20.122   1.228   8.555
 6784POPC   C2B18248  20.097   1.225   8.255
 6784POPC   C3B18249  20.079   1.236   7.955
 6784POPC   C4B18250  20.102   1.293   7.655
 6785POPC   NC318251  41.522  29.099   9.455
 6785POPC   PO418252  41.541  29.149   9.155
 6785POPC   GL118253  41.585  29.128   8.855
 6785POPC   GL218254  41.559  29.038   8.855
 6785POPC   C1A18255  41.541  29.140   8.555
 6785POPC   D2A18256  41.557  29.192   8.255
 6785POPC   C3A18257  41.560  29.177   7.955
 6785POPC   C4A18258  41.600  29.161   7.655
 6785POPC   C1B18259  41.556  28.930   8.555
 6785POPC   C2B18260  41.528  28.859   8.255
 6785POPC   C3B18261  41.544  28.938   7.955
 6785POPC   C4B18262  41.559  28.923   7.655
 6786POPC   NC318263   4.309  33.760   9.455
 6786POPC   PO418264   4.350  33.765   9.155
 6786POPC   GL118265   4.365  33.785   8.855
 6786POPC   GL218266   4.400  33.951   8.855
 6786POPC   C1A18267   4.316  33.751   8.555
 6786POPC   D2A18268   4.359  33.800   8.255
 6786POPC   C3A18269   4.330  33.840   7.955
 6786POPC   C4A18270   4.312  33.836   7.655
 6786POPC   C1B18271   4.379  34.049   8.555
 6786POPC   C2B18272   4.413  34.003   8.255
 6786POPC   C3B18273   4.389  33.984   7.955
 6786POPC   C4B18274   4.445  34.000   7.655
 6787POPC   NC318275   1.259  39.270   9.455
 6787POPC   PO418276   1.219  39.252   9.155
 6787POPC   GL118277   1.207  39.204   8.855
 6787POPC   GL218278   1.196  39.135   8.855
 6787POPC   C1A18279   1.223  39.252   8.555
 6787POPC   D2A18280   1.225  39.198   8.255
 6787POPC   C3A18281   1.204  39.183   7.955
 6787POPC   C4A18282   1.169  39.194   7.655
 6787POPC   C1B18283   1.133  38.993   8.555
 6787POPC   C2B18284   1.091  39.007   8.255
 6787POPC   C3B18285   1.101  39.043   7.955
 6787POPC   C4B18286   1.165  38.970   7.655
 6788POPC   NC318287   8.243  35.329   9.455
 6788POPC   PO418288   8.185  35.372   9.155
 6788POPC   GL118289   8.193  35.397   8.855
 6788POPC   GL218290   8.248  35.229   8.855
 6788POPC   C1A18291   8.153  35.324   8.555
 6788POPC   D2A18292   8.221  35.381   8.255
 6788POPC   C3A18293   8.147  35.401   7.955
 6788POPC   C4A18294   8.157  35.356   7.655
 6788POPC   C1B18295   8.354  35.185   8.555
 6788POPC   C2B18296   8.439  35.198   8.255
 6788POPC   C3B18297   8.379  35.172   7.955
 6788POPC   C4B18298   8.410  35.200   7.655
 6789POPC   NC318299   9.010  40.765   9.455
 6789POPC   PO418300   9.007  40.819   9.155
 6789POPC   GL118301   8.977  40.818   8.855
 6789POPC   GL218302   9.068  40.679   8.855
 6789POPC   C1A18303   8.960  40.826   8.555
 6789POPC   D2A18304   8.972  40.741   8.255
 6789POPC   C3A18305   8.961  40.744   7.955
 6789POPC   C4A18306   9.021  40.780   7.655
 6789POPC   C1B18307   9.153  40.597   8.555
 6789POPC   C2B18308   9.153  40.607   8.255
 6789POPC   C3B18309   9.159  40.605   7.955
 6789POPC   C4B18310   9.158  40.646   7.655
 6790POPC   NC318311   5.864  44.671   9.455
 6790POPC   PO418312   5.913  44.676   9.155
 6790POPC   GL118313   5.868  44.698   8.855
 6790POPC   GL218314   5.899  44.776   8.855
 6790POPC   C1A18315   5.903  44.656   8.555
 6790POPC   D2A18316   5.859  44.652   8.255
 6790POPC   C3A18317   5.889  44.700   7.955
 6790POPC   C4A18318   5.833  44.711   7.655
 6790POPC   C1B18319   5.918  44.940   8.555
 6790POPC   C2B18320   5.922  44.896   8.255
 6790POPC   C3B18321   5.941  44.871   7.955
 6790POPC   C4B18322   5.943  44.940   7.655
 6791POPC   NC318323  36.929  26.033   9.455
 6791POPC   PO418324  36.896  26.038   9.155
 6791POPC   GL118325  36.854  26.070   8.855
 6791POPC   GL218326  36.817  26.089   8.855
 6791POPC   C1A18327  36.895  26.056   8.555
 6791POPC   D2A18328  36.909  26.086   8.255
 6791POPC   C3A18329  36.859  26.036   7.955
 6791POPC   C4A18330  36.884  26.065   7.655
 6791POPC   C1B18331  36.671  26.161   8.555
 6791POPC   C2B18332  36.712  26.146   8.255
 6791POPC   C3B18333  36.714  26.086   7.955
 6791POPC   C4B18334  36.684  26.125   7.655
 6792POPC   NC318335  27.630  10.543   9.455
 6792POPC   PO418336  27.551  10.551   9.155
 6792POPC   GL118337  27.604  10.532   8.855
 6792POPC   GL218338  27.672  10.407   8.855
 6792POPC   C1A18339  27.544  10.484   8.555
 6792POPC   D2A18340  27.637  10.543   8.255
 6792POPC   C3A18341  27.585  10.545   7.955
 6792POPC   C4A18342  27.564  10.482   7.655
 6792POPC   C1B18343  27.708  10.333   8.555
 6792POPC   C2B18344  27.651  10.311   8.255
 6792POPC   C3B18345  27.722  10.302   7.955
 6792POPC   C4B18346  27.691  10.322   7.655
 6793POPC   NC318347  24.465  22.896   9.455
 6793POPC   PO418348  24.488  22.960   9.155
 6793POPC   GL118349  24.518  22.934   8.855
 6793POPC   GL218350  24.534  22.814   8.855
 6793POPC   C1A18351  24.518  22.983   8.555
 6793POPC   D2A18352  24.499  22.906   8.255
 6793POPC   C3A18353  24.442  22.969   7.955
 6793POPC   C4A18354  24.539  22.974   7.655
 6793POPC   C1B18355  24.600  22.773   8.555
 6793POPC   C2B18356  24.618  22.744   8.255
 6793POPC   C3B18357  24.671  22.738   7.955
 6793POPC   C4B18358  24.656  22.697   7.655
 6794POPC   NC318359  12.807  34.577   9.455
 6794POPC   PO418360  12.884  34.565   9.155
 6794POPC   GL118361  12.894  34.584   8.855
 6794POPC   GL218362  12.758  34.710   8.855
 6794POPC   C1A18363  12.857  34.616   8.555
 6794POPC   D2A18364  12.881  34.625   8.255
 6794POPC   C3A18365  12.873  34.544   7.955
 6794POPC   C4A18366  12.888  34.554   7.655
 6794POPC   C1B18367  12.695  34.801   8.555
 6794POPC   C2B18368  12.679  34.727   8.255
 6794POPC   C3B18369  12.637  34.738   7.955
 6794POPC   C4B18370  12.636  34.726   7.655
 6795POPC   NC318371  28.395   0.474   9.455
 6795POPC   PO418372  28.367   0.486   9.155
 6795POPC   GL118373  28.418   0.461   8.855
 6795POPC   GL218374  28.458   0.434   8.855
 6795POPC   C1A18375  28.327   0.416   8.555
 6795POPC   D2A18376  28.359   0.413   8.255
 6795POPC   C3A18377  28.359   0.417   7.955
 6795POPC   C4A18378  28.347   0.396   7.655
 6795POPC   C1B18379  28.587   0.448   8.555
 6795POPC   C2B18380  28.609   0.502   8.255
 6795POPC   C3B18381  28.647   0.487   7.955
 6795POPC   C4B18382  28.592   0.440   7.655
 6796POPC   NC318383   4.278  25.284   9.455
 6796POPC   PO418384   4.305  25.224   9.155
 6796POPC   GL118385   4.350  25.271   8.855
 6796POPC   GL218386   4.276  25.123   8.855
 6796POPC   C1A18387   4.336  25.248   8.555
 6796POPC   D2A18388   4.316  25.257   8.255
 6796POPC   C3A18389   4.338  25.291   7.955
 6796POPC   C4A18390   4.336  25.269   7.655
 6796POPC   C1B18391   4.234  25.047   8.555
 6796POPC   C2B18392   4.235  24.983   8.255
 6796POPC   C3B18393   4.233  25.040   7.955
 6796POPC   C4B18394   4.296  25.062   7.655
 6797POPC   NC318395  40.023   0.465   9.455
 6797POPC   PO418396  40.055   0.420   9.155
 6797POPC   GL118397  39.992   0.481   8.855
 6797POPC   GL218398  39.837   0.423   8.855
 6797POPC   C1A18399  40.012   0.477   8.555
 6797POPC   D2A18400  39.966   0.473   8.255
 6797POPC   C3A18401  39.972   0.446   7.955
 6797POPC   C4A18402  39.957   0.470   7.655
 6797POPC   C1B18403  39.795   0.512   8.555
 6797POPC   C2B18404  39.725   0.530   8.255
 6797POPC   C3B18405  39.760   0.525   7.955
 6797POPC   C4B18406  39.784   0.456   7.655
 6798POPC   NC318407  12.100  40.783   9.455
 6798POPC   PO418408  12.056  40.772   9.155
 6798POPC   GL118409  12.113  40.807   8.855
 6798POPC   GL218410  12.198  40.708   8.855
 6798POPC   C1A18411  12.063  40.755   8.555
 6798POPC   D2A18412  12.123  40.765   8.255
 6798POPC   C3A18413  12.102  40.744   7.955
 6798POPC   C4A18414  12.058  40.807   7.655
 6798POPC   C1B18415  12.341  40.702   8.555
 6798POPC   C2B18416  12.342  40.693   8.255
 6798POPC   C3B18417  12.270  40.684   7.955
 6798POPC   C4B18418  12.366  40.684   7.655
 6799POPC   NC318419  21.364   8.988   9.455
 6799POPC   PO418420  21.429   9.020   9.155
 6799POPC   GL118421  21.387   8.931   8.855
 6799POPC   GL218422  21.430   8.830   8.855
 6799POPC   C1A18423  21.409   9.001   8.555
 6799POPC   D2A18424  21.388   9.019   8.255
 6799POPC   C3A18425  21.412   8.948   7.955
 6799POPC   C4A18426  21.378   9.014   7.655
 6799POPC   C1B18427  21.511   8.761   8.555
 6799POPC   C2B18428  21.445   8.686   8.255
 6799POPC   C3B18429  21.466   8.782   7.955
 6799POPC   C4B18430  21.424   8.778   7.655
 6800POPC   NC318431   1.226  21.399   9.455
 6800POPC   PO418432   1.169  21.429   9.155
 6800POPC   GL118433   1.262  21.348   8.855
 6800POPC   GL218434   1.272  21.510   8.855
 6800POPC   C1A18435   1.216  21.416   8.555
 6800POPC   D2A18436   1.170  21.404   8.255
 6800POPC   C3A18437   1.219  21.404   7.955
 6800POPC   C4A18438   1.181  21.432   7.655
 6800POPC   C1B18439   1.370  21.617   8.555
 6800POPC   C2B18440   1.313  21.607   8.255
 6800POPC   C3B18441   1.309  21.639   7.955
 6800POPC   C4B18442   1.298  21.602   7.655
 6801POPC   NC318443  26.795  44.702   9.455
 6801POPC   PO418444  26.802  44.624   9.155
 6801POPC   GL118445  26.786  44.614   8.855
 6801POPC   GL218446  26.729  44.730   8.855
 6801POPC   C1A18447  26.786  44.614   8.555
 6801POPC   D2A18448  26.772  44.664   8.255
 6801POPC   C3A18449  26.818  44.652   7.955
 6801POPC   C4A18450  26.841  44.690   7.655
 6801POPC   C1B18451  26.677  44.875   8.555
 6801POPC   C2B18452  26.739  44.893   8.255
 6801POPC   C3B18453  26.754  44.929   7.955
 6801POPC   C4B18454  26.692  44.901   7.655
 6802POPC   NC318455  10.545  43.130   9.455
 6802POPC   PO418456  10.560  43.143   9.155
 6802POPC   GL118457  10.546  43.061   8.855
 6802POPC   GL218458  10.487  42.943   8.855
 6802POPC   C1A18459  10.548  43.151   8.555
 6802POPC   D2A18460  10.487  43.071   8.255
 6802POPC   C3A18461  10.572  43.141   7.955
 6802POPC   C4A18462  10.483  43.070   7.655
 6802POPC   C1B18463  10.537  42.852   8.555
 6802POPC   C2B18464  10.471  42.812   8.255
 6802POPC   C3B18465  10.517  42.811   7.955
 6802POPC   C4B18466  10.513  42.874   7.655
 6803POPC   NC318467  43.926   9.010   9.455
 6803POPC   PO418468  43.839   8.981   9.155
 6803POPC   GL118469  43.929   8.957   8.855
 6803POPC   GL218470  43.844   8.904   8.855
 6803POPC   C1A18471  43.898   9.022   8.555
 6803POPC   D2A18472  43.884   8.991   8.255
 6803POPC   C3A18473  43.930   8.940   7.955
 6803POPC   C4A18474  43.891   9.010   7.655
 6803POPC   C1B18475  43.780   8.756   8.555
 6803POPC   C2B18476  43.832   8.746   8.255
 6803POPC   C3B18477  43.827   8.764   7.955
 6803POPC   C4B18478  43.818   8.705   7.655
 6804POPC   NC318479  32.276  29.115   9.455
 6804POPC   PO418480  32.267  29.107   9.155
 6804POPC   GL118481  32.290  29.181   8.855
 6804POPC   GL218482  32.163  29.173   8.855
 6804POPC   C1A18483  32.266  29.164   8.555
 6804POPC   D2A18484  32.204  29.122   8.255
 6804POPC   C3A18485  32.286  29.158   7.955
 6804POPC   C4A18486  32.285  29.179   7.655
 6804POPC   C1B18487  31.994  29.216   8.555
 6804POPC   C2B18488  32.009  29.133   8.255
 6804POPC   C3B18489  31.954  29.194   7.955
 6804POPC   C4B18490  31.966  29.178   7.655
 6805POPC   NC318491  39.962  26.832   9.455
 6805POPC   PO418492  40.041  26.773   9.155
 6805POPC   GL118493  39.973  26.814   8.855
 6805POPC   GL218494  39.979  26.707   8.855
 6805POPC   C1A18495  40.030  26.780   8.555
 6805POPC   D2A18496  40.002  26.808   8.255
 6805POPC   C3A18497  39.998  26.768   7.955
 6805POPC   C4A18498  40.004  26.772   7.655
 6805POPC   C1B18499  39.898  26.619   8.555
 6805POPC   C2B18500  39.890  26.620   8.255
 6805POPC   C3B18501  39.911  26.597   7.955
 6805POPC   C4B18502  39.931  26.633   7.655
 6806POPC   NC318503   1.171  12.898   9.455
 6806POPC   PO418504   1.167  12.836   9.155
 6806POPC   GL118505   1.239  12.874   8.855
 6806POPC   GL218506   1.326  12.909   8.855
 6806POPC   C1A18507   1.228  12.857   8.555
 6806POPC   D2A18508   1.196  12.847   8.255
 6806POPC   C3A18509   1.235  12.860   7.955
 6806POPC   C4A18510   1.218  12.859   7.655
 6806POPC   C1B18511   1.418  13.027   8.555
 6806POPC   C2B18512   1.443  13.016   8.255
 6806POPC   C3B18513   1.411  13.031   7.955
 6806POPC   C4B18514   1.456  12.972   7.655
 6807POPC   NC318515  24.514  34.564   9.455
 6807POPC   PO418516  24.460  34.578   9.155
 6807POPC   GL118517  24.537  34.537   8.855
 6807POPC   GL218518  24.402  34.677   8.855
 6807POPC   C1A18519  24.525  34.564   8.555
 6807POPC   D2A18520  24.449  34.589   8.255
 6807POPC   C3A18521  24.501  34.610   7.955
 6807POPC   C4A18522  24.514  34.583   7.655
 6807POPC   C1B18523  24.249  34.711   8.555
 6807POPC   C2B18524  24.260  34.675   8.255
 6807POPC   C3B18525  24.280  34.731   7.955
 6807POPC   C4B18526  24.305  34.680   7.655
 6808POPC   NC318527  43.879  12.878   9.455
 6808POPC   PO418528  43.910  12.841   9.155
 6808POPC   GL118529  43.878  12.816   8.855
 6808POPC   GL218530  43.821  12.738   8.855
 6808POPC   C1A18531  43.838  12.862   8.555
 6808POPC   D2A18532  43.853  12.889   8.255
 6808POPC   C3A18533  43.837  12.843   7.955
 6808POPC   C4A18534  43.841  12.845   7.655
 6808POPC   C1B18535  43.753  12.632   8.555
 6808POPC   C2B18536  43.738  12.678   8.255
 6808POPC   C3B18537  43.674  12.660   7.955
 6808POPC   C4B18538  43.666  12.664   7.655
 6809POPC   NC318539  18.306  39.204   9.455
 6809POPC   PO418540  18.261  39.200   9.155
 6809POPC   GL118541  18.275  39.238   8.855
 6809POPC   GL218542  18.155  39.126   8.855
 6809POPC   C1A18543  18.277  39.223   8.555
 6809POPC   D2A18544  18.243  39.251   8.255
 6809POPC   C3A18545  18.241  39.206   7.955
 6809POPC   C4A18546  18.326  39.216   7.655
 6809POPC   C1B18547  18.110  39.141   8.555
 6809POPC   C2B18548  18.102  39.112   8.255
 6809POPC   C3B18549  18.111  39.140   7.955
 6809POPC   C4B18550  18.092  39.110   7.655
 6810POPC   NC318551  36.171   8.943   9.455
 6810POPC   PO418552  36.147   9.001   9.155
 6810POPC   GL118553  36.113   8.983   8.855
 6810POPC   GL218554  36.066   8.884   8.855
 6810POPC   C1A18555  36.103   8.955   8.555
 6810POPC   D2A18556  36.139   9.012   8.255
 6810POPC   C3A18557  36.114   8.952   7.955
 6810POPC   C4A18558  36.141   8.952   7.655
 6810POPC   C1B18559  36.030   8.781   8.555
 6810POPC   C2B18560  35.955   8.816   8.255
 6810POPC   C3B18561  35.959   8.780   7.955
 6810POPC   C4B18562  36.031   8.780   7.655
 6811POPC   NC318563  17.508   3.517   9.455
 6811POPC   PO418564  17.547   3.513   9.155
 6811POPC   GL118565  17.489   3.506   8.855
 6811POPC   GL218566  17.594   3.615   8.855
 6811POPC   C1A18567  17.496   3.564   8.555
 6811POPC   D2A18568  17.533   3.509   8.255
 6811POPC   C3A18569  17.549   3.574   7.955
 6811POPC   C4A18570  17.462   3.571   7.655
 6811POPC   C1B18571  17.702   3.731   8.555
 6811POPC   C2B18572  17.674   3.688   8.255
 6811POPC   C3B18573  17.656   3.710   7.955
 6811POPC   C4B18574  17.629   3.681   7.655
 6812POPC   NC318575  22.199  43.920   9.455
 6812POPC   PO418576  22.121  43.873   9.155
 6812POPC   GL118577  22.147  43.850   8.855
 6812POPC   GL218578  22.271  43.862   8.855
 6812POPC   C1A18579  22.138  43.918   8.555
 6812POPC   D2A18580  22.164  43.893   8.255
 6812POPC   C3A18581  22.165  43.851   7.955
 6812POPC   C4A18582  22.198  43.861   7.655
 6812POPC   C1B18583  22.412  43.919   8.555
 6812POPC   C2B18584  22.425  43.925   8.255
 6812POPC   C3B18585  22.420  43.936   7.955
 6812POPC   C4B18586  22.384  43.949   7.655
 6813POPC   NC318587   5.843  36.875   9.455
 6813POPC   PO418588   5.838  36.870   9.155
 6813POPC   GL118589   5.918  36.939   8.855
 6813POPC   GL218590   5.992  36.993   8.855
 6813POPC   C1A18591   5.907  36.895   8.555
 6813POPC   D2A18592   5.837  36.903   8.255
 6813POPC   C3A18593   5.856  36.872   7.955
 6813POPC   C4A18594   5.912  36.923   7.655
 6813POPC   C1B18595   6.019  37.145   8.555
 6813POPC   C2B18596   6.051  37.059   8.255
 6813POPC   C3B18597   5.983  37.065   7.955
 6813POPC   C4B18598   6.048  37.094   7.655
 6814POPC   NC318599   0.394  35.332   9.455
 6814POPC   PO418600   0.406  35.309   9.155
 6814POPC   GL118601   0.405  35.318   8.855
 6814POPC   GL218602   0.462  35.204   8.855
 6814POPC   C1A18603   0.431  35.312   8.555
 6814POPC   D2A18604   0.414  35.388   8.255
 6814POPC   C3A18605   0.473  35.391   7.955
 6814POPC   C4A18606   0.447  35.348   7.655
 6814POPC   C1B18607   0.506  35.138   8.555
 6814POPC   C2B18608   0.512  35.088   8.255
 6814POPC   C3B18609   0.571  35.095   7.955
 6814POPC   C4B18610   0.535  35.127   7.655
 6815POPC   NC318611  39.997  26.082   9.455
 6815POPC   PO418612  40.026  26.037   9.155
 6815POPC   GL118613  39.970  26.068   8.855
 6815POPC   GL218614  40.092  26.024   8.855
 6815POPC   C1A18615  39.981  26.037   8.555
 6815POPC   D2A18616  40.033  26.020   8.255
 6815POPC   C3A18617  39.964  26.089   7.955
 6815POPC   C4A18618  39.961  26.009   7.655
 6815POPC   C1B18619  40.282  26.034   8.555
 6815POPC   C2B18620  40.272  26.045   8.255
 6815POPC   C3B18621  40.270  26.058   7.955
 6815POPC   C4B18622  40.240  26.052   7.655
 6816POPC   NC318623  24.440  15.174   9.455
 6816POPC   PO418624  24.487  15.222   9.155
 6816POPC   GL118625  24.457  15.143   8.855
 6816POPC   GL218626  24.451  15.038   8.855
 6816POPC   C1A18627  24.441  15.152   8.555
 6816POPC   D2A18628  24.511  15.190   8.255
 6816POPC   C3A18629  24.468  15.183   7.955
 6816POPC   C4A18630  24.506  15.208   7.655
 6816POPC   C1B18631  24.380  14.950   8.555
 6816POPC   C2B18632  24.406  14.969   8.255
 6816POPC   C3B18633  24.333  14.968   7.955
 6816POPC   C4B18634  24.310  14.960   7.655
 6817POPC   NC318635   2.793  33.816   9.455
 6817POPC   PO418636   2.767  33.799   9.155
 6817POPC   GL118637   2.800  33.770   8.855
 6817POPC   GL218638   2.729  33.723   8.855
 6817POPC   C1A18639   2.784  33.806   8.555
 6817POPC   D2A18640   2.752  33.775   8.255
 6817POPC   C3A18641   2.735  33.803   7.955
 6817POPC   C4A18642   2.769  33.794   7.655
 6817POPC   C1B18643   2.797  33.574   8.555
 6817POPC   C2B18644   2.737  33.593   8.255
 6817POPC   C3B18645   2.746  33.538   7.955
 6817POPC   C4B18646   2.741  33.518   7.655
 6818POPC   NC318647  21.382  29.121   9.455
 6818POPC   PO418648  21.427  29.194   9.155
 6818POPC   GL118649  21.360  29.120   8.855
 6818POPC   GL218650  21.538  29.122   8.855
 6818POPC   C1A18651  21.368  29.171   8.555
 6818POPC   D2A18652  21.379  29.157   8.255
 6818POPC   C3A18653  21.434  29.158   7.955
 6818POPC   C4A18654  21.342  29.159   7.655
 6818POPC   C1B18655  21.619  29.181   8.555
 6818POPC   C2B18656  21.659  29.185   8.255
 6818POPC   C3B18657  21.593  29.171   7.955
 6818POPC   C4B18658  21.675  29.115   7.655
 6819POPC   NC318659   3.566  43.898   9.455
 6819POPC   PO418660   3.494  43.848   9.155
 6819POPC   GL118661   3.539  43.897   8.855
 6819POPC   GL218662   3.408  43.801   8.855
 6819POPC   C1A18663   3.525  43.923   8.555
 6819POPC   D2A18664   3.567  43.854   8.255
 6819POPC   C3A18665   3.497  43.904   7.955
 6819POPC   C4A18666   3.528  43.929   7.655
 6819POPC   C1B18667   3.308  43.722   8.555
 6819POPC   C2B18668   3.318  43.727   8.255
 6819POPC   C3B18669   3.339  43.750   7.955
 6819POPC   C4B18670   3.370  43.723   7.655
 6820POPC   NC318671  19.011  33.832   9.455
 6820POPC   PO418672  19.093  33.772   9.155
 6820POPC   GL118673  19.028  33.780   8.855
 6820POPC   GL218674  19.020  33.873   8.855
 6820POPC   C1A18675  19.056  33.803   8.555
 6820POPC   D2A18676  19.088  33.759   8.255
 6820POPC   C3A18677  19.070  33.807   7.955
 6820POPC   C4A18678  19.015  33.782   7.655
 6820POPC   C1B18679  19.023  34.084   8.555
 6820POPC   C2B18680  18.988  33.996   8.255
 6820POPC   C3B18681  19.035  34.035   7.955
 6820POPC   C4B18682  19.030  34.068   7.655
 6821POPC   NC318683  44.689  33.841   9.455
 6821POPC   PO418684  44.662  33.845   9.155
 6821POPC   GL118685  44.696  33.816   8.855
 6821POPC   GL218686  44.647  33.641   8.855
 6821POPC   C1A18687  44.665  33.796   8.555
 6821POPC   D2A18688  44.613  33.802   8.255
 6821POPC   C3A18689  44.708  33.781   7.955
 6821POPC   C4A18690  44.623  33.823   7.655
 6821POPC   C1B18691  44.744  33.552   8.555
 6821POPC   C2B18692  44.723  33.523   8.255
 6821POPC   C3B18693  44.719  33.539   7.955
 6821POPC   C4B18694  44.709  33.577   7.655
 6822POPC   NC318695  39.229  12.112   9.455
 6822POPC   PO418696  39.254  12.062   9.155
 6822POPC   GL118697  39.205  12.049   8.855
 6822POPC   GL218698  39.315  12.209   8.855
 6822POPC   C1A18699  39.251  12.104   8.555
 6822POPC   D2A18700  39.251  12.065   8.255
 6822POPC   C3A18701  39.232  12.109   7.955
 6822POPC   C4A18702  39.281  12.072   7.655
 6822POPC   C1B18703  39.318  12.318   8.555
 6822POPC   C2B18704  39.318  12.297   8.255
 6822POPC   C3B18705  39.342  12.292   7.955
 6822POPC   C4B18706  39.337  12.342   7.655
 6823POPC   NC318707  30.707  21.406   9.455
 6823POPC   PO418708  30.728  21.412   9.155
 6823POPC   GL118709  30.684  21.417   8.855
 6823POPC   GL218710  30.781  21.281   8.855
 6823POPC   C1A18711  30.704  21.435   8.555
 6823POPC   D2A18712  30.739  21.362   8.255
 6823POPC   C3A18713  30.701  21.436   7.955
 6823POPC   C4A18714  30.673  21.357   7.655
 6823POPC   C1B18715  30.771  21.158   8.555
 6823POPC   C2B18716  30.780  21.105   8.255
 6823POPC   C3B18717  30.773  21.162   7.955
 6823POPC   C4B18718  30.772  21.177   7.655
 6824POPC   NC318719  44.640  28.351   9.455
 6824POPC   PO418720  44.620  28.392   9.155
 6824POPC   GL118721  44.636  28.336   8.855
 6824POPC   GL218722  44.810  28.477   8.855
 6824POPC   C1A18723  44.681  28.345   8.555
 6824POPC   D2A18724  44.653  28.403   8.255
 6824POPC   C3A18725  44.679  28.322   7.955
 6824POPC   C4A18726  44.693  28.378   7.655
 6824POPC   C1B18727  44.886  28.496   8.555
 6824POPC   C2B18728  44.895  28.524   8.255
 6824POPC   C3B18729  44.879  28.491   7.955
 6824POPC   C4B18730  44.884  28.516   7.655
 6825POPC   NC318731  42.312  15.185   9.455
 6825POPC   PO418732  42.380  15.168   9.155
 6825POPC   GL118733  42.295  15.136   8.855
 6825POPC   GL218734  42.291  15.312   8.855
 6825POPC   C1A18735  42.315  15.194   8.555
 6825POPC   D2A18736  42.295  15.229   8.255
 6825POPC   C3A18737  42.318  15.130   7.955
 6825POPC   C4A18738  42.324  15.188   7.655
 6825POPC   C1B18739  42.175  15.322   8.555
 6825POPC   C2B18740  42.114  15.318   8.255
 6825POPC   C3B18741  42.135  15.304   7.955
 6825POPC   C4B18742  42.112  15.373   7.655
 6826POPC   NC318743  21.336  33.836   9.455
 6826POPC   PO418744  21.427  33.848   9.155
 6826POPC   GL118745  21.429  33.813   8.855
 6826POPC   GL218746  21.377  33.947   8.855
 6826POPC   C1A18747  21.409  33.799   8.555
 6826POPC   D2A18748  21.436  33.782   8.255
 6826POPC   C3A18749  21.433  33.807   7.955
 6826POPC   C4A18750  21.435  33.769   7.655
 6826POPC   C1B18751  21.357  34.018   8.555
 6826POPC   C2B18752  21.387  34.084   8.255
 6826POPC   C3B18753  21.379  34.041   7.955
 6826POPC   C4B18754  21.408  34.012   7.655
 6827POPC   NC318755   7.428  32.199   9.455
 6827POPC   PO418756   7.386  32.215   9.155
 6827POPC   GL118757   7.436  32.243   8.855
 6827POPC   GL218758   7.543  32.320   8.855
 6827POPC   C1A18759   7.469  32.233   8.555
 6827POPC   D2A18760   7.439  32.265   8.255
 6827POPC   C3A18761   7.458  32.229   7.955
 6827POPC   C4A18762   7.446  32.234   7.655
 6827POPC   C1B18763   7.536  32.474   8.555
 6827POPC   C2B18764   7.561  32.424   8.255
 6827POPC   C3B18765   7.606  32.479   7.955
 6827POPC   C4B18766   7.525  32.490   7.655
 6828POPC   NC318767  43.146   5.894   9.455
 6828POPC   PO418768  43.100   5.877   9.155
 6828POPC   GL118769  43.147   5.821   8.855
 6828POPC   GL218770  43.064   5.790   8.855
 6828POPC   C1A18771  43.116   5.868   8.555
 6828POPC   D2A18772  43.076   5.820   8.255
 6828POPC   C3A18773  43.094   5.865   7.955
 6828POPC   C4A18774  43.133   5.826   7.655
 6828POPC   C1B18775  42.976   5.638   8.555
 6828POPC   C2B18776  42.942   5.676   8.255
 6828POPC   C3B18777  42.926   5.655   7.955
 6828POPC   C4B18778  43.004   5.679   7.655
 6829POPC   NC318779  43.911  22.897   9.455
 6829POPC   PO418780  43.879  22.977   9.155
 6829POPC   GL118781  43.847  22.896   8.855
 6829POPC   GL218782  44.031  22.949   8.855
 6829POPC   C1A18783  43.924  22.893   8.555
 6829POPC   D2A18784  43.859  22.906   8.255
 6829POPC   C3A18785  43.868  22.928   7.955
 6829POPC   C4A18786  43.903  22.957   7.655
 6829POPC   C1B18787  44.142  22.966   8.555
 6829POPC   C2B18788  44.105  22.917   8.255
 6829POPC   C3B18789  44.178  22.921   7.955
 6829POPC   C4B18790  44.169  22.974   7.655
 6830POPC   NC318791  22.921  29.947   9.455
 6830POPC   PO418792  22.889  29.907   9.155
 6830POPC   GL118793  22.900  29.906   8.855
 6830POPC   GL218794  22.773  29.960   8.855
 6830POPC   C1A18795  22.970  29.873   8.555
 6830POPC   D2A18796  22.905  29.935   8.255
 6830POPC   C3A18797  22.952  29.941   7.955
 6830POPC   C4A18798  22.905  29.967   7.655
 6830POPC   C1B18799  22.712  29.937   8.555
 6830POPC   C2B18800  22.731  29.883   8.255
 6830POPC   C3B18801  22.693  29.943   7.955
 6830POPC   C4B18802  22.730  29.930   7.655
 6831POPC   NC318803  22.181   8.195   9.455
 6831POPC   PO418804  22.158   8.224   9.155
 6831POPC   GL118805  22.187   8.198   8.855
 6831POPC   GL218806  22.222   8.102   8.855
 6831POPC   C1A18807  22.144   8.148   8.555
 6831POPC   D2A18808  22.197   8.186   8.255
 6831POPC   C3A18809  22.209   8.186   7.955
 6831POPC   C4A18810  22.182   8.181   7.655
 6831POPC   C1B18811  22.183   7.985   8.555
 6831POPC   C2B18812  22.258   7.999   8.255
 6831POPC   C3B18813  22.226   7.989   7.955
 6831POPC   C4B18814  22.261   7.964   7.655
 6832POPC   NC318815  33.822  25.274   9.455
 6832POPC   PO418816  33.770  25.245   9.155
 6832POPC   GL118817  33.780  25.227   8.855
 6832POPC   GL218818  33.881  25.227   8.855
 6832POPC   C1A18819  33.828  25.265   8.555
 6832POPC   D2A18820  33.818  25.255   8.255
 6832POPC   C3A18821  33.828  25.228   7.955
 6832POPC   C4A18822  33.837  25.221   7.655
 6832POPC   C1B18823  34.095  25.232   8.555
 6832POPC   C2B18824  34.060  25.207   8.255
 6832POPC   C3B18825  34.025  25.219   7.955
 6832POPC   C4B18826  34.083  25.240   7.655
 6833POPC   NC318827  36.878  44.632   9.455
 6833POPC   PO418828  36.882  44.687   9.155
 6833POPC   GL118829  36.922  44.655   8.855
 6833POPC   GL218830  36.983  44.698   8.855
 6833POPC   C1A18831  36.915  44.631   8.555
 6833POPC   D2A18832  36.884  44.620   8.255
 6833POPC   C3A18833  36.890  44.648   7.955
 6833POPC   C4A18834  36.921  44.703   7.655
 6833POPC   C1B18835  37.066  44.770   8.555
 6833POPC   C2B18836  37.134  44.828   8.255
 6833POPC   C3B18837  37.104  44.810   7.955
 6833POPC   C4B18838  37.088  44.820   7.655
 6834POPC   NC318839  13.594  26.082   9.455
 6834POPC   PO418840  13.640  26.057   9.155
 6834POPC   GL118841  13.596  26.075   8.855
 6834POPC   GL218842  13.535  25.921   8.855
 6834POPC   C1A18843  13.599  26.063   8.555
 6834POPC   D2A18844  13.594  26.074   8.255
 6834POPC   C3A18845  13.630  26.024   7.955
 6834POPC   C4A18846  13.623  26.029   7.655
 6834POPC   C1B18847  13.497  25.859   8.555
 6834POPC   C2B18848  13.455  25.875   8.255
 6834POPC   C3B18849  13.497  25.865   7.955
 6834POPC   C4B18850  13.466  25.859   7.655
 6835POPC   NC318851  11.280   1.173   9.455
 6835POPC   PO418852  11.271   1.258   9.155
 6835POPC   GL118853  11.327   1.245   8.855
 6835POPC   GL218854  11.256   1.376   8.855
 6835POPC   C1A18855  11.275   1.254   8.555
 6835POPC   D2A18856  11.276   1.168   8.255
 6835POPC   C3A18857  11.333   1.233   7.955
 6835POPC   C4A18858  11.270   1.206   7.655
 6835POPC   C1B18859  11.297   1.460   8.555
 6835POPC   C2B18860  11.230   1.483   8.255
 6835POPC   C3B18861  11.238   1.472   7.955
 6835POPC   C4B18862  11.291   1.509   7.655
 6836POPC   NC318863  44.612  25.250   9.455
 6836POPC   PO418864  44.639  25.283   9.155
 6836POPC   GL118865  44.687  25.260   8.855
 6836POPC   GL218866  44.501  25.224   8.855
 6836POPC   C1A18867  44.686  25.243   8.555
 6836POPC   D2A18868  44.640  25.293   8.255
 6836POPC   C3A18869  44.709  25.290   7.955
 6836POPC   C4A18870  44.651  25.249   7.655
 6836POPC   C1B18871  44.386  25.198   8.555
 6836POPC   C2B18872  44.387  25.198   8.255
 6836POPC   C3B18873  44.405  25.154   7.955
 6836POPC   C4B18874  44.451  25.200   7.655
 6837POPC   NC318875   2.009  14.435   9.455
 6837POPC   PO418876   2.015  14.417   9.155
 6837POPC   GL118877   2.022  14.357   8.855
 6837POPC   GL218878   2.146  14.425   8.855
 6837POPC   C1A18879   1.943  14.368   8.555
 6837POPC   D2A18880   2.001  14.402   8.255
 6837POPC   C3A18881   1.969  14.354   7.955
 6837POPC   C4A18882   1.950  14.390   7.655
 6837POPC   C1B18883   2.231  14.480   8.555
 6837POPC   C2B18884   2.215  14.553   8.255
 6837POPC   C3B18885   2.199  14.544   7.955
 6837POPC   C4B18886   2.166  14.475   7.655
 6838POPC   NC318887  28.415  25.239   9.455
 6838POPC   PO418888  28.391  25.311   9.155
 6838POPC   GL118889  28.355  25.278   8.855
 6838POPC   GL218890  28.265  25.295   8.855
 6838POPC   C1A18891  28.323  25.253   8.555
 6838POPC   D2A18892  28.327  25.272   8.255
 6838POPC   C3A18893  28.321  25.241   7.955
 6838POPC   C4A18894  28.352  25.246   7.655
 6838POPC   C1B18895  28.149  25.382   8.555
 6838POPC   C2B18896  28.147  25.424   8.255
 6838POPC   C3B18897  28.207  25.433   7.955
 6838POPC   C4B18898  28.185  25.384   7.655
 6839POPC   NC318899  13.581  22.934   9.455
 6839POPC   PO418900  13.619  22.973   9.155
 6839POPC   GL118901  13.593  22.928   8.855
 6839POPC   GL218902  13.500  23.074   8.855
 6839POPC   C1A18903  13.634  22.937   8.555
 6839POPC   D2A18904  13.637  22.959   8.255
 6839POPC   C3A18905  13.644  22.987   7.955
 6839POPC   C4A18906  13.630  22.890   7.655
 6839POPC   C1B18907  13.501  23.102   8.555
 6839POPC   C2B18908  13.498  23.168   8.255
 6839POPC   C3B18909  13.474  23.126   7.955
 6839POPC   C4B18910  13.469  23.144   7.655
 6840POPC   NC318911   1.995  36.873   9.455
 6840POPC   PO418912   1.962  36.906   9.155
 6840POPC   GL118913   2.036  36.908   8.855
 6840POPC   GL218914   1.915  36.993   8.855
 6840POPC   C1A18915   1.988  36.870   8.555
 6840POPC   D2A18916   1.965  36.942   8.255
 6840POPC   C3A18917   2.010  36.866   7.955
 6840POPC   C4A18918   2.034  36.859   7.655
 6840POPC   C1B18919   1.859  37.127   8.555
 6840POPC   C2B18920   1.845  37.150   8.255
 6840POPC   C3B18921   1.824  37.109   7.955
 6840POPC   C4B18922   1.881  37.148   7.655
 6841POPC   NC318923  12.089  34.568   9.455
 6841POPC   PO418924  12.075  34.560   9.155
 6841POPC   GL118925  12.101  34.578   8.855
 6841POPC   GL218926  12.117  34.472   8.855
 6841POPC   C1A18927  12.077  34.533   8.555
 6841POPC   D2A18928  12.066  34.545   8.255
 6841POPC   C3A18929  12.108  34.575   7.955
 6841POPC   C4A18930  12.123  34.568   7.655
 6841POPC   C1B18931  12.182  34.299   8.555
 6841POPC   C2B18932  12.159  34.303   8.255
 6841POPC   C3B18933  12.172  34.351   7.955
 6841POPC   C4B18934  12.128  34.383   7.655
 6842POPC   NC318935  37.693  13.618   9.455
 6842POPC   PO418936  37.708  13.675   9.155
 6842POPC   GL118937  37.630  13.624   8.855
 6842POPC   GL218938  37.773  13.653   8.855
 6842POPC   C1A18939  37.717  13.590   8.555
 6842POPC   D2A18940  37.727  13.668   8.255
 6842POPC   C3A18941  37.638  13.625   7.955
 6842POPC   C4A18942  37.696  13.675   7.655
 6842POPC   C1B18943  37.878  13.667   8.555
 6842POPC   C2B18944  37.939  13.667   8.255
 6842POPC   C3B18945  37.878  13.722   7.955
 6842POPC   C4B18946  37.956  13.737   7.655
 6843POPC   NC318947  21.427  33.055   9.455
 6843POPC   PO418948  21.418  33.073   9.155
 6843POPC   GL118949  21.394  33.028   8.855
 6843POPC   GL218950  21.484  33.164   8.855
 6843POPC   C1A18951  21.387  32.998   8.555
 6843POPC   D2A18952  21.339  33.032   8.255
 6843POPC   C3A18953  21.398  32.993   7.955
 6843POPC   C4A18954  21.355  32.982   7.655
 6843POPC   C1B18955  21.567  33.185   8.555
 6843POPC   C2B18956  21.557  33.240   8.255
 6843POPC   C3B18957  21.571  33.270   7.955
 6843POPC   C4B18958  21.557  33.187   7.655
 6844POPC   NC318959  22.942  15.966   9.455
 6844POPC   PO418960  22.903  15.955   9.155
 6844POPC   GL118961  22.937  15.909   8.855
 6844POPC   GL218962  22.809  15.822   8.855
 6844POPC   C1A18963  22.936  16.002   8.555
 6844POPC   D2A18964  22.986  15.988   8.255
 6844POPC   C3A18965  22.915  15.983   7.955
 6844POPC   C4A18966  22.964  15.973   7.655
 6844POPC   C1B18967  22.761  15.782   8.555
 6844POPC   C2B18968  22.755  15.825   8.255
 6844POPC   C3B18969  22.707  15.800   7.955
 6844POPC   C4B18970  22.710  15.785   7.655
 6845POPC   NC318971  10.556   4.311   9.455
 6845POPC   PO418972  10.555   4.286   9.155
 6845POPC   GL118973  10.527   4.349   8.855
 6845POPC   GL218974  10.687   4.330   8.855
 6845POPC   C1A18975  10.526   4.268   8.555
 6845POPC   D2A18976  10.565   4.289   8.255
 6845POPC   C3A18977  10.532   4.298   7.955
 6845POPC   C4A18978  10.566   4.345   7.655
 6845POPC   C1B18979  10.810   4.382   8.555
 6845POPC   C2B18980  10.736   4.424   8.255
 6845POPC   C3B18981  10.781   4.370   7.955
 6845POPC   C4B18982  10.721   4.362   7.655
 6846POPC   NC318983  15.975  31.429   9.455
 6846POPC   PO418984  15.957  31.430   9.155
 6846POPC   GL118985  15.976  31.439   8.855
 6846POPC   GL218986  16.077  31.476   8.855
 6846POPC   C1A18987  15.989  31.498   8.555
 6846POPC   D2A18988  15.981  31.459   8.255
 6846POPC   C3A18989  15.940  31.465   7.955
 6846POPC   C4A18990  15.940  31.447   7.655
 6846POPC   C1B18991  16.204  31.541   8.555
 6846POPC   C2B18992  16.230  31.568   8.255
 6846POPC   C3B18993  16.143  31.507   7.955
 6846POPC   C4B18994  16.190  31.558   7.655
 6847POPC   NC318995  19.089  38.427   9.455
 6847POPC   PO418996  19.036  38.496   9.155
 6847POPC   GL118997  19.015  38.474   8.855
 6847POPC   GL218998  19.057  38.572   8.855
 6847POPC   C1A18999  19.066  38.493   8.555
 6847POPC   D2A19000  19.037  38.491   8.255
 6847POPC   C3A19001  19.059  38.498   7.955
 6847POPC   C4A19002  19.013  38.415   7.655
 6847POPC   C1B19003  18.955  38.651   8.555
 6847POPC   C2B19004  18.934  38.680   8.255
 6847POPC   C3B19005  19.030  38.699   7.955
 6847POPC   C4B19006  19.002  38.737   7.655
 6848POPC   NC319007   0.454  22.920   9.455
 6848POPC   PO419008   0.416  22.914   9.155
 6848POPC   GL119009   0.455  22.917   8.855
 6848POPC   GL219010   0.306  22.953   8.855
 6848POPC   C1A19011   0.433  22.961   8.555
 6848POPC   D2A19012   0.409  22.957   8.255
 6848POPC   C3A19013   0.478  22.924   7.955
 6848POPC   C4A19014   0.422  22.973   7.655
 6848POPC   C1B19015   0.161  22.984   8.555
 6848POPC   C2B19016   0.192  22.913   8.255
 6848POPC   C3B19017   0.160  22.961   7.955
 6848POPC   C4B19018   0.197  22.980   7.655
 6849POPC   NC319019  24.459   9.791   9.455
 6849POPC   PO419020  24.539   9.719   9.155
 6849POPC   GL119021  24.485   9.755   8.855
 6849POPC   GL219022  24.640   9.801   8.855
 6849POPC   C1A19023  24.537   9.772   8.555
 6849POPC   D2A19024  24.529   9.759   8.255
 6849POPC   C3A19025  24.444   9.788   7.955
 6849POPC   C4A19026  24.460   9.731   7.655
 6849POPC   C1B19027  24.691   9.770   8.555
 6849POPC   C2B19028  24.756   9.815   8.255
 6849POPC   C3B19029  24.736   9.810   7.955
 6849POPC   C4B19030  24.781   9.789   7.655
 6850POPC   NC319031  20.572  13.611   9.455
 6850POPC   PO419032  20.587  13.641   9.155
 6850POPC   GL119033  20.652  13.607   8.855
 6850POPC   GL219034  20.663  13.751   8.855
 6850POPC   C1A19035  20.561  13.631   8.555
 6850POPC   D2A19036  20.561  13.599   8.255
 6850POPC   C3A19037  20.611  13.666   7.955
 6850POPC   C4A19038  20.620  13.581   7.655
 6850POPC   C1B19039  20.816  13.839   8.555
 6850POPC   C2B19040  20.732  13.791   8.255
 6850POPC   C3B19041  20.786  13.813   7.955
 6850POPC   C4B19042  20.822  13.771   7.655
 6851POPC   NC319043  12.850  43.068   9.455
 6851POPC   PO419044  12.897  43.150   9.155
 6851POPC   GL119045  12.878  43.069   8.855
 6851POPC   GL219046  12.860  43.279   8.855
 6851POPC   C1A19047  12.885  43.095   8.555
 6851POPC   D2A19048  12.816  43.097   8.255
 6851POPC   C3A19049  12.850  43.108   7.955
 6851POPC   C4A19050  12.805  43.095   7.655
 6851POPC   C1B19051  12.806  43.391   8.555
 6851POPC   C2B19052  12.826  43.317   8.255
 6851POPC   C3B19053  12.823  43.361   7.955
 6851POPC   C4B19054  12.824  43.395   7.655
 6852POPC   NC319055  19.876  26.005   9.455
 6852POPC   PO419056  19.865  26.075   9.155
 6852POPC   GL119057  19.874  26.009   8.855
 6852POPC   GL219058  19.928  25.946   8.855
 6852POPC   C1A19059  19.846  26.076   8.555
 6852POPC   D2A19060  19.876  25.995   8.255
 6852POPC   C3A19061  19.801  25.996   7.955
 6852POPC   C4A19062  19.841  26.052   7.655
 6852POPC   C1B19063  19.936  25.809   8.555
 6852POPC   C2B19064  19.956  25.836   8.255
 6852POPC   C3B19065  19.933  25.816   7.955
 6852POPC   C4B19066  19.999  25.788   7.655
 6853POPC   NC319067  11.289  27.579   9.455
 6853POPC   PO419068  11.288  27.643   9.155
 6853POPC   GL119069  11.294  27.632   8.855
 6853POPC   GL219070  11.133  27.599   8.855
 6853POPC   C1A19071  11.312  27.547   8.555
 6853POPC   D2A19072  11.295  27.569   8.255
 6853POPC   C3A19073  11.327  27.572   7.955
 6853POPC   C4A19074  11.251  27.626   7.655
 6853POPC   C1B19075  11.034  27.478   8.555
 6853POPC   C2B19076  11.105  27.566   8.255
 6853POPC   C3B19077  11.033  27.548   7.955
 6853POPC   C4B19078  11.086  27.510   7.655
 6854POPC   NC319079  29.174  29.890   9.455
 6854POPC   PO419080  29.189  29.881   9.155
 6854POPC   GL119081  29.140  29.908   8.855
 6854POPC   GL219082  29.162  30.046   8.855
 6854POPC   C1A19083  29.119  29.920   8.555
 6854POPC   D2A19084  29.120  29.886   8.255
 6854POPC   C3A19085  29.181  29.886   7.955
 6854POPC   C4A19086  29.105  29.873   7.655
 6854POPC   C1B19087  29.092  30.209   8.555
 6854POPC   C2B19088  29.125  30.181   8.255
 6854POPC   C3B19089  29.122  30.190   7.955
 6854POPC   C4B19090  29.119  30.202   7.655
 6855POPC   NC319091  39.978  15.174   9.455
 6855POPC   PO419092  40.033  15.190   9.155
 6855POPC   GL119093  40.007  15.167   8.855
 6855POPC   GL219094  39.859  15.144   8.855
 6855POPC   C1A19095  39.988  15.205   8.555
 6855POPC   D2A19096  39.976  15.168   8.255
 6855POPC   C3A19097  39.967  15.206   7.955
 6855POPC   C4A19098  39.985  15.216   7.655
 6855POPC   C1B19099  39.847  15.037   8.555
 6855POPC   C2B19100  39.776  15.068   8.255
 6855POPC   C3B19101  39.852  15.021   7.955
 6855POPC   C4B19102  39.762  15.035   7.655
 6856POPC   NC319103  33.024  44.699   9.455
 6856POPC   PO419104  33.073  44.652   9.155
 6856POPC   GL119105  33.005  44.673   8.855
 6856POPC   GL219106  32.913  44.716   8.855
 6856POPC   C1A19107  33.059  44.689   8.555
 6856POPC   D2A19108  33.050  44.623   8.255
 6856POPC   C3A19109  33.042  44.632   7.955
 6856POPC   C4A19110  33.038  44.688   7.655
 6856POPC   C1B19111  32.870  44.866   8.555
 6856POPC   C2B19112  32.858  44.866   8.255
 6856POPC   C3B19113  32.874  44.793   7.955
 6856POPC   C4B19114  32.861  44.870   7.655
 6857POPC   NC319115  34.552   1.960   9.455
 6857POPC   PO419116  34.599   2.019   9.155
 6857POPC   GL119117  34.607   1.949   8.855
 6857POPC   GL219118  34.561   1.837   8.855
 6857POPC   C1A19119  34.549   2.040   8.555
 6857POPC   D2A19120  34.604   1.957   8.255
 6857POPC   C3A19121  34.625   2.033   7.955
 6857POPC   C4A19122  34.557   2.008   7.655
 6857POPC   C1B19123  34.545   1.711   8.555
 6857POPC   C2B19124  34.607   1.693   8.255
 6857POPC   C3B19125  34.594   1.769   7.955
 6857POPC   C4B19126  34.539   1.705   7.655
 6858POPC   NC319127  25.297  29.930   9.455
 6858POPC   PO419128  25.269  29.910   9.155
 6858POPC   GL119129  25.289  29.934   8.855
 6858POPC   GL219130  25.268  29.793   8.855
 6858POPC   C1A19131  25.267  29.937   8.555
 6858POPC   D2A19132  25.296  29.931   8.255
 6858POPC   C3A19133  25.304  29.879   7.955
 6858POPC   C4A19134  25.274  29.889   7.655
 6858POPC   C1B19135  25.240  29.712   8.555
 6858POPC   C2B19136  25.214  29.656   8.255
 6858POPC   C3B19137  25.241  29.704   7.955
 6858POPC   C4B19138  25.156  29.668   7.655
 6859POPC   NC319139  32.263   1.211   9.455
 6859POPC   PO419140  32.243   1.203   9.155
 6859POPC   GL119141  32.232   1.232   8.855
 6859POPC   GL219142  32.154   1.169   8.855
 6859POPC   C1A19143  32.290   1.247   8.555
 6859POPC   D2A19144  32.201   1.243   8.255
 6859POPC   C3A19145  32.246   1.243   7.955
 6859POPC   C4A19146  32.246   1.226   7.655
 6859POPC   C1B19147  31.976   1.171   8.555
 6859POPC   C2B19148  31.997   1.096   8.255
 6859POPC   C3B19149  32.036   1.109   7.955
 6859POPC   C4B19150  31.994   1.124   7.655
 6860POPC   NC319151  29.149  43.885   9.455
 6860POPC   PO419152  29.175  43.859   9.155
 6860POPC   GL119153  29.124  43.881   8.855
 6860POPC   GL219154  29.125  43.742   8.855
 6860POPC   C1A19155  29.156  43.850   8.555
 6860POPC   D2A19156  29.154  43.837   8.255
 6860POPC   C3A19157  29.148  43.896   7.955
 6860POPC   C4A19158  29.113  43.838   7.655
 6860POPC   C1B19159  29.018  43.675   8.555
 6860POPC   C2B19160  28.970  43.704   8.255
 6860POPC   C3B19161  28.971  43.637   7.955
 6860POPC   C4B19162  29.015  43.661   7.655
 6861POPC   NC319163   0.437   5.135   9.455
 6861POPC   PO419164   0.432   5.141   9.155
 6861POPC   GL119165   0.396   5.075   8.855
 6861POPC   GL219166   0.486   4.972   8.855
 6861POPC   C1A19167   0.422   5.134   8.555
 6861POPC   D2A19168   0.472   5.068   8.255
 6861POPC   C3A19169   0.469   5.059   7.955
 6861POPC   C4A19170   0.414   5.106   7.655
 6861POPC   C1B19171   0.417   4.876   8.555
 6861POPC   C2B19172   0.442   4.849   8.255
 6861POPC   C3B19173   0.440   4.813   7.955
 6861POPC   C4B19174   0.473   4.849   7.655
 6862POPC   NC319175  16.724   8.239   9.455
 6862POPC   PO419176  16.709   8.171   9.155
 6862POPC   GL119177  16.769   8.207   8.855
 6862POPC   GL219178  16.754   8.116   8.855
 6862POPC   C1A19179  16.772   8.207   8.555
 6862POPC   D2A19180  16.772   8.200   8.255
 6862POPC   C3A19181  16.747   8.199   7.955
 6862POPC   C4A19182  16.773   8.209   7.655
 6862POPC   C1B19183  16.683   7.977   8.555
 6862POPC   C2B19184  16.678   7.952   8.255
 6862POPC   C3B19185  16.680   7.939   7.955
 6862POPC   C4B19186  16.762   7.949   7.655
 6863POPC   NC319187  26.000  19.881   9.455
 6863POPC   PO419188  26.010  19.871   9.155
 6863POPC   GL119189  26.059  19.804   8.855
 6863POPC   GL219190  25.980  19.747   8.855
 6863POPC   C1A19191  26.055  19.828   8.555
 6863POPC   D2A19192  26.019  19.810   8.255
 6863POPC   C3A19193  26.053  19.844   7.955
 6863POPC   C4A19194  25.999  19.852   7.655
 6863POPC   C1B19195  25.892  19.657   8.555
 6863POPC   C2B19196  25.815  19.704   8.255
 6863POPC   C3B19197  25.875  19.635   7.955
 6863POPC   C4B19198  25.832  19.645   7.655
 6864POPC   NC319199  14.432  21.433   9.455
 6864POPC   PO419200  14.450  21.418   9.155
 6864POPC   GL119201  14.364  21.375   8.855
 6864POPC   GL219202  14.514  21.372   8.855
 6864POPC   C1A19203  14.452  21.395   8.555
 6864POPC   D2A19204  14.435  21.416   8.255
 6864POPC   C3A19205  14.380  21.354   7.955
 6864POPC   C4A19206  14.370  21.421   7.655
 6864POPC   C1B19207  14.661  21.369   8.555
 6864POPC   C2B19208  14.647  21.400   8.255
 6864POPC   C3B19209  14.632  21.378   7.955
 6864POPC   C4B19210  14.612  21.371   7.655
 6865POPC   NC319211  29.878  43.100   9.455
 6865POPC   PO419212  29.933  43.078   9.155
 6865POPC   GL119213  29.944  43.069   8.855
 6865POPC   GL219214  29.993  43.188   8.855
 6865POPC   C1A19215  29.916  43.125   8.555
 6865POPC   D2A19216  29.906  43.078   8.255
 6865POPC   C3A19217  29.934  43.136   7.955
 6865POPC   C4A19218  29.929  43.158   7.655
 6865POPC   C1B19219  30.206  43.166   8.555
 6865POPC   C2B19220  30.158  43.145   8.255
 6865POPC   C3B19221  30.147  43.229   7.955
 6865POPC   C4B19222  30.197  43.204   7.655
 6866POPC   NC319223   1.242  43.086   9.455
 6866POPC   PO419224   1.203  43.135   9.155
 6866POPC   GL119225   1.200  43.099   8.855
 6866POPC   GL219226   1.207  42.956   8.855
 6866POPC   C1A19227   1.217  43.065   8.555
 6866POPC   D2A19228   1.177  43.118   8.255
 6866POPC   C3A19229   1.210  43.065   7.955
 6866POPC   C4A19230   1.248  43.135   7.655
 6866POPC   C1B19231   1.229  42.899   8.555
 6866POPC   C2B19232   1.231  42.900   8.255
 6866POPC   C3B19233   1.226  42.844   7.955
 6866POPC   C4B19234   1.181  42.828   7.655
 6867POPC   NC319235   6.688  23.759   9.455
 6867POPC   PO419236   6.678  23.759   9.155
 6867POPC   GL119237   6.687  23.699   8.855
 6867POPC   GL219238   6.567  23.818   8.855
 6867POPC   C1A19239   6.610  23.700   8.555
 6867POPC   D2A19240   6.664  23.676   8.255
 6867POPC   C3A19241   6.695  23.759   7.955
 6867POPC   C4A19242   6.683  23.673   7.655
 6867POPC   C1B19243   6.538  23.928   8.555
 6867POPC   C2B19244   6.453  23.955   8.255
 6867POPC   C3B19245   6.502  23.903   7.955
 6867POPC   C4B19246   6.530  23.938   7.655
 6868POPC   NC319247  36.089  13.648   9.455
 6868POPC   PO419248  36.148  13.618   9.155
 6868POPC   GL119249  36.111  13.661   8.855
 6868POPC   GL219250  35.997  13.596   8.855
 6868POPC   C1A19251  36.150  13.634   8.555
 6868POPC   D2A19252  36.128  13.579   8.255
 6868POPC   C3A19253  36.160  13.648   7.955
 6868POPC   C4A19254  36.165  13.632   7.655
 6868POPC   C1B19255  35.952  13.505   8.555
 6868POPC   C2B19256  35.939  13.521   8.255
 6868POPC   C3B19257  35.886  13.502   7.955
 6868POPC   C4B19258  35.869  13.471   7.655
 6869POPC   NC319259  18.319  14.377   9.455
 6869POPC   PO419260  18.242  14.407   9.155
 6869POPC   GL119261  18.259  14.438   8.855
 6869POPC   GL219262  18.206  14.513   8.855
 6869POPC   C1A19263  18.323  14.411   8.555
 6869POPC   D2A19264  18.274  14.439   8.255
 6869POPC   C3A19265  18.233  14.390   7.955
 6869POPC   C4A19266  18.326  14.427   7.655
 6869POPC   C1B19267  18.096  14.611   8.555
 6869POPC   C2B19268  18.119  14.616   8.255
 6869POPC   C3B19269  18.076  14.604   7.955
 6869POPC   C4B19270  18.073  14.621   7.655
 6870POPC   NC319271  31.517  19.833   9.455
 6870POPC   PO419272  31.485  19.810   9.155
 6870POPC   GL119273  31.515  19.839   8.855
 6870POPC   GL219274  31.607  19.811   8.855
 6870POPC   C1A19275  31.432  19.802   8.555
 6870POPC   D2A19276  31.438  19.822   8.255
 6870POPC   C3A19277  31.500  19.866   7.955
 6870POPC   C4A19278  31.460  19.817   7.655
 6870POPC   C1B19279  31.663  19.749   8.555
 6870POPC   C2B19280  31.682  19.748   8.255
 6870POPC   C3B19281  31.732  19.759   7.955
 6870POPC   C4B19282  31.676  19.682   7.655
 6871POPC   NC319283  17.507  40.785   9.455
 6871POPC   PO419284  17.485  40.784   9.155
 6871POPC   GL119285  17.499  40.736   8.855
 6871POPC   GL219286  17.555  40.698   8.855
 6871POPC   C1A19287  17.472  40.767   8.555
 6871POPC   D2A19288  17.505  40.770   8.255
 6871POPC   C3A19289  17.480  40.799   7.955
 6871POPC   C4A19290  17.489  40.777   7.655
 6871POPC   C1B19291  17.719  40.575   8.555
 6871POPC   C2B19292  17.636  40.595   8.255
 6871POPC   C3B19293  17.672  40.582   7.955
 6871POPC   C4B19294  17.697  40.623   7.655
 6872POPC   NC319295  32.979   3.512   9.455
 6872POPC   PO419296  33.041   3.502   9.155
 6872POPC   GL119297  33.039   3.508   8.855
 6872POPC   GL219298  32.963   3.471   8.855
 6872POPC   C1A19299  33.036   3.508   8.555
 6872POPC   D2A19300  33.033   3.525   8.255
 6872POPC   C3A19301  32.993   3.532   7.955
 6872POPC   C4A19302  33.049   3.538   7.655
 6872POPC   C1B19303  32.882   3.349   8.555
 6872POPC   C2B19304  32.910   3.358   8.255
 6872POPC   C3B19305  32.890   3.397   7.955
 6872POPC   C4B19306  32.907   3.393   7.655
 6873POPC   NC319307  40.041  40.809   9.455
 6873POPC   PO419308  40.015  40.807   9.155
 6873POPC   GL119309  39.990  40.805   8.855
 6873POPC   GL219310  40.131  40.715   8.855
 6873POPC   C1A19311  40.020  40.789   8.555
 6873POPC   D2A19312  40.025  40.811   8.255
 6873POPC   C3A19313  40.010  40.756   7.955
 6873POPC   C4A19314  39.980  40.753   7.655
 6873POPC   C1B19315  40.238  40.759   8.555
 6873POPC   C2B19316  40.260  40.704   8.255
 6873POPC   C3B19317  40.236  40.723   7.955
 6873POPC   C4B19318  40.222  40.712   7.655
 6874POPC   NC319319   7.402  33.759   9.455
 6874POPC   PO419320   7.455  33.821   9.155
 6874POPC   GL119321   7.434  33.786   8.855
 6874POPC   GL219322   7.437  33.714   8.855
 6874POPC   C1A19323   7.372  33.775   8.555
 6874POPC   D2A19324   7.412  33.820   8.255
 6874POPC   C3A19325   7.456  33.754   7.955
 6874POPC   C4A19326   7.453  33.756   7.655
 6874POPC   C1B19327   7.553  33.552   8.555
 6874POPC   C2B19328   7.543  33.550   8.255
 6874POPC   C3B19329   7.575  33.566   7.955
 6874POPC   C4B19330   7.520  33.596   7.655
 6875POPC   NC319331  26.818  37.636   9.455
 6875POPC   PO419332  26.864  37.684   9.155
 6875POPC   GL119333  26.810  37.682   8.855
 6875POPC   GL219334  26.841  37.809   8.855
 6875POPC   C1A19335  26.843  37.685   8.555
 6875POPC   D2A19336  26.860  37.709   8.255
 6875POPC   C3A19337  26.814  37.659   7.955
 6875POPC   C4A19338  26.787  37.640   7.655
 6875POPC   C1B19339  26.790  37.943   8.555
 6875POPC   C2B19340  26.752  37.954   8.255
 6875POPC   C3B19341  26.808  37.937   7.955
 6875POPC   C4B19342  26.778  37.974   7.655
 6876POPC   NC319343  44.626  43.084   9.455
 6876POPC   PO419344  44.661  43.124   9.155
 6876POPC   GL119345  44.673  43.154   8.855
 6876POPC   GL219346  44.745  43.143   8.855
 6876POPC   C1A19347  44.636  43.108   8.555
 6876POPC   D2A19348  44.641  43.080   8.255
 6876POPC   C3A19349  44.618  43.100   7.955
 6876POPC   C4A19350  44.681  43.108   7.655
 6876POPC   C1B19351  44.838  43.215   8.555
 6876POPC   C2B19352  44.899  43.240   8.255
 6876POPC   C3B19353  44.839  43.236   7.955
 6876POPC   C4B19354  44.899  43.247   7.655
 6877POPC   NC319355   9.008  36.892   9.455
 6877POPC   PO419356   9.016  36.947   9.155
 6877POPC   GL119357   8.934  36.938   8.855
 6877POPC   GL219358   9.053  37.046   8.855
 6877POPC   C1A19359   8.935  36.897   8.555
 6877POPC   D2A19360   8.947  36.901   8.255
 6877POPC   C3A19361   8.979  36.941   7.955
 6877POPC   C4A19362   8.939  36.927   7.655
 6877POPC   C1B19363   9.112  37.128   8.555
 6877POPC   C2B19364   9.154  37.067   8.255
 6877POPC   C3B19365   9.110  37.143   7.955
 6877POPC   C4B19366   9.111  37.098   7.655
 6878POPC   NC319367  20.582  37.666   9.455
 6878POPC   PO419368  20.637  37.638   9.155
 6878POPC   GL119369  20.649  37.726   8.855
 6878POPC   GL219370  20.542  37.758   8.855
 6878POPC   C1A19371  20.603  37.693   8.555
 6878POPC   D2A19372  20.648  37.701   8.255
 6878POPC   C3A19373  20.575  37.701   7.955
 6878POPC   C4A19374  20.561  37.677   7.655
 6878POPC   C1B19375  20.467  37.941   8.555
 6878POPC   C2B19376  20.521  37.906   8.255
 6878POPC   C3B19377  20.458  37.951   7.955
 6878POPC   C4B19378  20.500  37.886   7.655
 6879POPC   NC319379  26.808  22.114   9.455
 6879POPC   PO419380  26.829  22.201   9.155
 6879POPC   GL119381  26.823  22.208   8.855
 6879POPC   GL219382  26.844  22.262   8.855
 6879POPC   C1A19383  26.857  22.170   8.555
 6879POPC   D2A19384  26.847  22.157   8.255
 6879POPC   C3A19385  26.822  22.171   7.955
 6879POPC   C4A19386  26.769  22.174   7.655
 6879POPC   C1B19387  26.849  22.375   8.555
 6879POPC   C2B19388  26.826  22.387   8.255
 6879POPC   C3B19389  26.803  22.396   7.955
 6879POPC   C4B19390  26.770  22.397   7.655
 6880POPC   NC319391  26.789   4.278   9.455
 6880POPC   PO419392  26.772   4.269   9.155
 6880POPC   GL119393  26.809   4.311   8.855
 6880POPC   GL219394  26.844   4.405   8.855
 6880POPC   C1A19395  26.829   4.322   8.555
 6880POPC   D2A19396  26.830   4.360   8.255
 6880POPC   C3A19397  26.821   4.302   7.955
 6880POPC   C4A19398  26.814   4.271   7.655
 6880POPC   C1B19399  26.920   4.482   8.555
 6880POPC   C2B19400  26.984   4.524   8.255
 6880POPC   C3B19401  27.006   4.542   7.955
 6880POPC   C4B19402  26.929   4.513   7.655
 6881POPC   NC319403  15.963  16.693   9.455
 6881POPC   PO419404  15.973  16.726   9.155
 6881POPC   GL119405  15.941  16.691   8.855
 6881POPC   GL219406  16.073  16.621   8.855
 6881POPC   C1A19407  15.940  16.760   8.555
 6881POPC   D2A19408  15.951  16.742   8.255
 6881POPC   C3A19409  15.949  16.761   7.955
 6881POPC   C4A19410  15.967  16.743   7.655
 6881POPC   C1B19411  16.156  16.582   8.555
 6881POPC   C2B19412  16.103  16.583   8.255
 6881POPC   C3B19413  16.136  16.593   7.955
 6881POPC   C4B19414  16.127  16.496   7.655
 6882POPC   NC319415  40.008   5.057   9.455
 6882POPC   PO419416  40.003   5.102   9.155
 6882POPC   GL119417  40.001   5.103   8.855
 6882POPC   GL219418  40.098   5.082   8.855
 6882POPC   C1A19419  40.005   5.071   8.555
 6882POPC   D2A19420  39.983   5.094   8.255
 6882POPC   C3A19421  39.990   5.048   7.955
 6882POPC   C4A19422  40.048   5.120   7.655
 6882POPC   C1B19423  40.249   4.993   8.555
 6882POPC   C2B19424  40.198   5.023   8.255
 6882POPC   C3B19425  40.191   4.942   7.955
 6882POPC   C4B19426  40.191   5.000   7.655
 6883POPC   NC319427   5.078   0.467   9.455
 6883POPC   PO419428   5.071   0.467   9.155
 6883POPC   GL119429   5.094   0.433   8.855
 6883POPC   GL219430   5.159   0.351   8.855
 6883POPC   C1A19431   5.079   0.397   8.555
 6883POPC   D2A19432   5.066   0.486   8.255
 6883POPC   C3A19433   5.055   0.395   7.955
 6883POPC   C4A19434   5.128   0.427   7.655
 6883POPC   C1B19435   5.245   0.295   8.555
 6883POPC   C2B19436   5.288   0.257   8.255
 6883POPC   C3B19437   5.293   0.236   7.955
 6883POPC   C4B19438   5.283   0.298   7.655
 6884POPC   NC319439   9.770  39.207   9.455
 6884POPC   PO419440   9.736  39.264   9.155
 6884POPC   GL119441   9.724  39.260   8.855
 6884POPC   GL219442   9.698  39.393   8.855
 6884POPC   C1A19443   9.771  39.223   8.555
 6884POPC   D2A19444   9.732  39.191   8.255
 6884POPC   C3A19445   9.699  39.245   7.955
 6884POPC   C4A19446   9.728  39.226   7.655
 6884POPC   C1B19447   9.702  39.491   8.555
 6884POPC   C2B19448   9.699  39.436   8.255
 6884POPC   C3B19449   9.761  39.482   7.955
 6884POPC   C4B19450   9.758  39.512   7.655
 6885POPC   NC319451  40.813  42.377   9.455
 6885POPC   PO419452  40.810  42.311   9.155
 6885POPC   GL119453  40.810  42.301   8.855
 6885POPC   GL219454  40.918  42.286   8.855
 6885POPC   C1A19455  40.788  42.315   8.555
 6885POPC   D2A19456  40.797  42.349   8.255
 6885POPC   C3A19457  40.817  42.305   7.955
 6885POPC   C4A19458  40.830  42.357   7.655
 6885POPC   C1B19459  40.999  42.231   8.555
 6885POPC   C2B19460  40.979  42.277   8.255
 6885POPC   C3B19461  41.038  42.239   7.955
 6885POPC   C4B19462  41.016  42.252   7.655
 6886POPC   NC319463  28.390  24.525   9.455
 6886POPC   PO419464  28.387  24.479   9.155
 6886POPC   GL119465  28.401  24.459   8.855
 6886POPC   GL219466  28.395  24.570   8.855
 6886POPC   C1A19467  28.383  24.470   8.555
 6886POPC   D2A19468  28.413  24.516   8.255
 6886POPC   C3A19469  28.326  24.451   7.955
 6886POPC   C4A19470  28.411  24.456   7.655
 6886POPC   C1B19471  28.360  24.772   8.555
 6886POPC   C2B19472  28.380  24.704   8.255
 6886POPC   C3B19473  28.343  24.748   7.955
 6886POPC   C4B19474  28.345  24.699   7.655
 6887POPC   NC319475   1.164  32.203   9.455
 6887POPC   PO419476   1.231  32.277   9.155
 6887POPC   GL119477   1.184  32.295   8.855
 6887POPC   GL219478   1.091  32.301   8.855
 6887POPC   C1A19479   1.235  32.291   8.555
 6887POPC   D2A19480   1.238  32.243   8.255
 6887POPC   C3A19481   1.215  32.293   7.955
 6887POPC   C4A19482   1.237  32.209   7.655
 6887POPC   C1B19483   0.935  32.225   8.555
 6887POPC   C2B19484   0.963  32.261   8.255
 6887POPC   C3B19485   0.976  32.280   7.955
 6887POPC   C4B19486   1.006  32.251   7.655
 6888POPC   NC319487  25.250  16.705   9.455
 6888POPC   PO419488  25.308  16.707   9.155
 6888POPC   GL119489  25.225  16.686   8.855
 6888POPC   GL219490  25.288  16.558   8.855
 6888POPC   C1A19491  25.230  16.753   8.555
 6888POPC   D2A19492  25.248  16.765   8.255
 6888POPC   C3A19493  25.258  16.765   7.955
 6888POPC   C4A19494  25.224  16.722   7.655
 6888POPC   C1B19495  25.219  16.489   8.555
 6888POPC   C2B19496  25.240  16.454   8.255
 6888POPC   C3B19497  25.290  16.433   7.955
 6888POPC   C4B19498  25.206  16.455   7.655
 6889POPC   NC319499  29.106  38.433   9.455
 6889POPC   PO419500  29.156  38.503   9.155
 6889POPC   GL119501  29.117  38.432   8.855
 6889POPC   GL219502  29.134  38.289   8.855
 6889POPC   C1A19503  29.106  38.443   8.555
 6889POPC   D2A19504  29.180  38.452   8.255
 6889POPC   C3A19505  29.135  38.422   7.955
 6889POPC   C4A19506  29.172  38.442   7.655
 6889POPC   C1B19507  29.140  38.226   8.555
 6889POPC   C2B19508  29.212  38.169   8.255
 6889POPC   C3B19509  29.127  38.247   7.955
 6889POPC   C4B19510  29.209  38.243   7.655
 6890POPC   NC319511  41.579  10.482   9.455
 6890POPC   PO419512  41.511  10.475   9.155
 6890POPC   GL119513  41.601  10.508   8.855
 6890POPC   GL219514  41.623  10.439   8.855
 6890POPC   C1A19515  41.561  10.549   8.555
 6890POPC   D2A19516  41.515  10.481   8.255
 6890POPC   C3A19517  41.523  10.520   7.955
 6890POPC   C4A19518  41.560  10.546   7.655
 6890POPC   C1B19519  41.771  10.382   8.555
 6890POPC   C2B19520  41.773  10.359   8.255
 6890POPC   C3B19521  41.770  10.363   7.955
 6890POPC   C4B19522  41.800  10.359   7.655
 6891POPC   NC319523  12.856  32.222   9.455
 6891POPC   PO419524  12.866  32.251   9.155
 6891POPC   GL119525  12.850  32.204   8.855
 6891POPC   GL219526  12.889  32.422   8.855
 6891POPC   C1A19527  12.822  32.212   8.555
 6891POPC   D2A19528  12.842  32.298   8.255
 6891POPC   C3A19529  12.803  32.208   7.955
 6891POPC   C4A19530  12.857  32.224   7.655
 6891POPC   C1B19531  12.859  32.542   8.555
 6891POPC   C2B19532  12.922  32.540   8.255
 6891POPC   C3B19533  12.883  32.536   7.955
 6891POPC   C4B19534  12.865  32.467   7.655
 6892POPC   NC319535  19.842  33.043   9.455
 6892POPC   PO419536  19.800  32.998   9.155
 6892POPC   GL119537  19.867  33.042   8.855
 6892POPC   GL219538  19.746  33.069   8.855
 6892POPC   C1A19539  19.792  32.985   8.555
 6892POPC   D2A19540  19.836  32.996   8.255
 6892POPC   C3A19541  19.872  33.050   7.955
 6892POPC   C4A19542  19.863  33.014   7.655
 6892POPC   C1B19543  19.578  32.992   8.555
 6892POPC   C2B19544  19.614  33.053   8.255
 6892POPC   C3B19545  19.573  32.975   7.955
 6892POPC   C4B19546  19.586  33.057   7.655
 6893POPC   NC319547   5.072  16.695   9.455
 6893POPC   PO419548   5.132  16.687   9.155
 6893POPC   GL119549   5.076  16.726   8.855
 6893POPC   GL219550   5.232  16.706   8.855
 6893POPC   C1A19551   5.091  16.741   8.555
 6893POPC   D2A19552   5.140  16.690   8.255
 6893POPC   C3A19553   5.105  16.743   7.955
 6893POPC   C4A19554   5.055  16.722   7.655
 6893POPC   C1B19555   5.359  16.600   8.555
 6893POPC   C2B19556   5.351  16.688   8.255
 6893POPC   C3B19557   5.280  16.639   7.955
 6893POPC   C4B19558   5.346  16.600   7.655
 6894POPC   NC319559  40.771  19.877   9.455
 6894POPC   PO419560  40.755  19.822   9.155
 6894POPC   GL119561  40.756  19.856   8.855
 6894POPC   GL219562  40.812  19.902   8.855
 6894POPC   C1A19563  40.741  19.834   8.555
 6894POPC   D2A19564  40.752  19.800   8.255
 6894POPC   C3A19565  40.750  19.787   7.955
 6894POPC   C4A19566  40.791  19.856   7.655
 6894POPC   C1B19567  40.828  20.021   8.555
 6894POPC   C2B19568  40.848  20.082   8.255
 6894POPC   C3B19569  40.833  20.072   7.955
 6894POPC   C4B19570  40.841  20.108   7.655
 6895POPC   NC319571  29.192  43.123   9.455
 6895POPC   PO419572  29.175  43.159   9.155
 6895POPC   GL119573  29.110  43.112   8.855
 6895POPC   GL219574  29.027  43.171   8.855
 6895POPC   C1A19575  29.125  43.095   8.555
 6895POPC   D2A19576  29.146  43.077   8.255
 6895POPC   C3A19577  29.176  43.085   7.955
 6895POPC   C4A19578  29.148  43.073   7.655
 6895POPC   C1B19579  28.918  43.180   8.555
 6895POPC   C2B19580  28.933  43.132   8.255
 6895POPC   C3B19581  28.942  43.172   7.955
 6895POPC   C4B19582  28.876  43.130   7.655
 6896POPC   NC319583  12.844  43.838   9.455
 6896POPC   PO419584  12.892  43.899   9.155
 6896POPC   GL119585  12.863  43.881   8.855
 6896POPC   GL219586  12.761  43.891   8.855
 6896POPC   C1A19587  12.814  43.930   8.555
 6896POPC   D2A19588  12.838  43.926   8.255
 6896POPC   C3A19589  12.892  43.856   7.955
 6896POPC   C4A19590  12.901  43.922   7.655
 6896POPC   C1B19591  12.583  43.942   8.555
 6896POPC   C2B19592  12.585  43.970   8.255
 6896POPC   C3B19593  12.652  43.890   7.955
 6896POPC   C4B19594  12.594  43.952   7.655
 6897POPC   NC319595  25.250  31.497   9.455
 6897POPC   PO419596  25.282  31.461   9.155
 6897POPC   GL119597  25.301  31.439   8.855
 6897POPC   GL219598  25.201  31.505   8.855
 6897POPC   C1A19599  25.298  31.517   8.555
 6897POPC   D2A19600  25.278  31.508   8.255
 6897POPC   C3A19601  25.243  31.495   7.955
 6897POPC   C4A19602  25.253  31.516   7.655
 6897POPC   C1B19603  25.097  31.668   8.555
 6897POPC   C2B19604  25.114  31.651   8.255
 6897POPC   C3B19605  25.096  31.651   7.955
 6897POPC   C4B19606  25.090  31.613   7.655
 6898POPC   NC319607  16.777  23.733   9.455
 6898POPC   PO419608  16.740  23.758   9.155
 6898POPC   GL119609  16.738  23.699   8.855
 6898POPC   GL219610  16.653  23.610   8.855
 6898POPC   C1A19611  16.692  23.686   8.555
 6898POPC   D2A19612  16.778  23.692   8.255
 6898POPC   C3A19613  16.695  23.710   7.955
 6898POPC   C4A19614  16.736  23.709   7.655
 6898POPC   C1B19615  16.529  23.546   8.555
 6898POPC   C2B19616  16.534  23.549   8.255
 6898POPC   C3B19617  16.564  23.556   7.955
 6898POPC   C4B19618  16.503  23.596   7.655
 6899POPC   NC319619  44.646  37.678   9.455
 6899POPC   PO419620  44.689  37.728   9.155
 6899POPC   GL119621  44.701  37.678   8.855
 6899POPC   GL219622  44.803  37.620   8.855
 6899POPC   C1A19623  44.619  37.682   8.555
 6899POPC   D2A19624  44.679  37.663   8.255
 6899POPC   C3A19625  44.622  37.718   7.955
 6899POPC   C4A19626  44.654  37.642   7.655
 6899POPC   C1B19627  44.851  37.519   8.555
 6899POPC   C2B19628  44.821  37.531   8.255
 6899POPC   C3B19629  44.897  37.534   7.955
 6899POPC   C4B19630  44.902  37.501   7.655
 6900POPC   NC319631  37.641  15.976   9.455
 6900POPC   PO419632  37.643  15.948   9.155
 6900POPC   GL119633  37.646  15.919   8.855
 6900POPC   GL219634  37.722  16.096   8.855
 6900POPC   C1A19635  37.679  15.990   8.555
 6900POPC   D2A19636  37.637  15.965   8.255
 6900POPC   C3A19637  37.701  15.932   7.955
 6900POPC   C4A19638  37.711  15.958   7.655
 6900POPC   C1B19639  37.788  16.166   8.555
 6900POPC   C2B19640  37.797  16.154   8.255
 6900POPC   C3B19641  37.765  16.171   7.955
 6900POPC   C4B19642  37.735  16.204   7.655
 6901POPC   NC319643  19.810   8.978   9.455
 6901POPC   PO419644  19.826   8.932   9.155
 6901POPC   GL119645  19.851   8.964   8.855
 6901POPC   GL219646  19.880   9.108   8.855
 6901POPC   C1A19647  19.785   8.971   8.555
 6901POPC   D2A19648  19.807   8.984   8.255
 6901POPC   C3A19649  19.846   8.960   7.955
 6901POPC   C4A19650  19.870   8.974   7.655
 6901POPC   C1B19651  19.971   9.197   8.555
 6901POPC   C2B19652  19.926   9.143   8.255
 6901POPC   C3B19653  20.004   9.213   7.955
 6901POPC   C4B19654  19.918   9.219   7.655
 6902POPC   NC319655   1.235  18.326   9.455
 6902POPC   PO419656   1.235  18.329   9.155
 6902POPC   GL119657   1.244  18.275   8.855
 6902POPC   GL219658   1.288  18.386   8.855
 6902POPC   C1A19659   1.201  18.249   8.555
 6902POPC   D2A19660   1.255  18.249   8.255
 6902POPC   C3A19661   1.199  18.310   7.955
 6902POPC   C4A19662   1.225  18.240   7.655
 6902POPC   C1B19663   1.317  18.559   8.555
 6902POPC   C2B19664   1.309  18.488   8.255
 6902POPC   C3B19665   1.270  18.495   7.955
 6902POPC   C4B19666   1.284  18.479   7.655
 6903POPC   NC319667  27.622  29.906   9.455
 6903POPC   PO419668  27.619  29.963   9.155
 6903POPC   GL119669  27.587  29.929   8.855
 6903POPC   GL219670  27.636  30.007   8.855
 6903POPC   C1A19671  27.608  29.875   8.555
 6903POPC   D2A19672  27.587  29.953   8.255
 6903POPC   C3A19673  27.586  29.970   7.955
 6903POPC   C4A19674  27.593  29.909   7.655
 6903POPC   C1B19675  27.697  30.149   8.555
 6903POPC   C2B19676  27.695  30.085   8.255
 6903POPC   C3B19677  27.738  30.123   7.955
 6903POPC   C4B19678  27.752  30.125   7.655
 6904POPC   NC319679  35.309  14.367   9.455
 6904POPC   PO419680  35.343  14.365   9.155
 6904POPC   GL119681  35.380  14.371   8.855
 6904POPC   GL219682  35.287  14.317   8.855
 6904POPC   C1A19683  35.364  14.385   8.555
 6904POPC   D2A19684  35.310  14.397   8.255
 6904POPC   C3A19685  35.315  14.360   7.955
 6904POPC   C4A19686  35.346  14.384   7.655
 6904POPC   C1B19687  35.164  14.267   8.555
 6904POPC   C2B19688  35.128  14.259   8.255
 6904POPC   C3B19689  35.102  14.248   7.955
 6904POPC   C4B19690  35.104  14.284   7.655
 6905POPC   NC319691   1.243   8.157   9.455
 6905POPC   PO419692   1.260   8.167   9.155
 6905POPC   GL119693   1.204   8.184   8.855
 6905POPC   GL219694   1.183   8.073   8.855
 6905POPC   C1A19695   1.176   8.163   8.555
 6905POPC   D2A19696   1.177   8.208   8.255
 6905POPC   C3A19697   1.194   8.218   7.955
 6905POPC   C4A19698   1.256   8.168   7.655
 6905POPC   C1B19699   1.183   7.912   8.555
 6905POPC   C2B19700   1.174   7.973   8.255
 6905POPC   C3B19701   1.183   7.999   7.955
 6905POPC   C4B19702   1.119   7.920   7.655
 6906POPC   NC319703   0.397  36.891   9.455
 6906POPC   PO419704   0.471  36.930   9.155
 6906POPC   GL119705   0.448  36.927   8.855
 6906POPC   GL219706   0.589  36.817   8.855
 6906POPC   C1A19707   0.446  36.923   8.555
 6906POPC   D2A19708   0.486  36.943   8.255
 6906POPC   C3A19709   0.425  36.898   7.955
 6906POPC   C4A19710   0.474  36.860   7.655
 6906POPC   C1B19711   0.643  36.728   8.555
 6906POPC   C2B19712   0.637  36.731   8.255
 6906POPC   C3B19713   0.659  36.798   7.955
 6906POPC   C4B19714   0.635  36.722   7.655
 6907POPC   NC319715   7.410  29.175   9.455
 6907POPC   PO419716   7.462  29.106   9.155
 6907POPC   GL119717   7.415  29.096   8.855
 6907POPC   GL219718   7.340  29.087   8.855
 6907POPC   C1A19719   7.397  29.129   8.555
 6907POPC   D2A19720   7.383  29.177   8.255
 6907POPC   C3A19721   7.450  29.130   7.955
 6907POPC   C4A19722   7.467  29.103   7.655
 6907POPC   C1B19723   7.210  29.030   8.555
 6907POPC   C2B19724   7.197  29.012   8.255
 6907POPC   C3B19725   7.188  28.984   7.955
 6907POPC   C4B19726   7.186  29.073   7.655
 6908POPC   NC319727  22.957  33.024   9.455
 6908POPC   PO419728  22.950  33.005   9.155
 6908POPC   GL119729  22.922  33.025   8.855
 6908POPC   GL219730  22.854  33.070   8.855
 6908POPC   C1A19731  22.960  32.994   8.555
 6908POPC   D2A19732  22.903  33.035   8.255
 6908POPC   C3A19733  22.911  33.064   7.955
 6908POPC   C4A19734  22.984  33.059   7.655
 6908POPC   C1B19735  22.675  33.058   8.555
 6908POPC   C2B19736  22.650  33.051   8.255
 6908POPC   C3B19737  22.720  33.080   7.955
 6908POPC   C4B19738  22.643  33.028   7.655
 6909POPC   NC319739   8.185   1.236   9.455
 6909POPC   PO419740   8.192   1.182   9.155
 6909POPC   GL119741   8.201   1.223   8.855
 6909POPC   GL219742   8.088   1.138   8.855
 6909POPC   C1A19743   8.147   1.257   8.555
 6909POPC   D2A19744   8.195   1.221   8.255
 6909POPC   C3A19745   8.205   1.201   7.955
 6909POPC   C4A19746   8.198   1.222   7.655
 6909POPC   C1B19747   8.035   1.027   8.555
 6909POPC   C2B19748   8.059   0.997   8.255
 6909POPC   C3B19749   8.006   1.066   7.955
 6909POPC   C4B19750   7.991   1.049   7.655
 6910POPC   NC319751  26.081   5.056   9.455
 6910POPC   PO419752  26.073   5.142   9.155
 6910POPC   GL119753  26.013   5.105   8.855
 6910POPC   GL219754  25.997   4.930   8.855
 6910POPC   C1A19755  26.086   5.090   8.555
 6910POPC   D2A19756  26.011   5.140   8.255
 6910POPC   C3A19757  26.025   5.139   7.955
 6910POPC   C4A19758  26.008   5.135   7.655
 6910POPC   C1B19759  26.068   4.844   8.555
 6910POPC   C2B19760  26.041   4.800   8.255
 6910POPC   C3B19761  26.079   4.863   7.955
 6910POPC   C4B19762  26.018   4.871   7.655
 6911POPC   NC319763  39.259  17.495   9.455
 6911POPC   PO419764  39.248  17.555   9.155
 6911POPC   GL119765  39.197  17.475   8.855
 6911POPC   GL219766  39.335  17.448   8.855
 6911POPC   C1A19767  39.186  17.473   8.555
 6911POPC   D2A19768  39.262  17.535   8.255
 6911POPC   C3A19769  39.265  17.485   7.955
 6911POPC   C4A19770  39.189  17.536   7.655
 6911POPC   C1B19771  39.424  17.458   8.555
 6911POPC   C2B19772  39.492  17.398   8.255
 6911POPC   C3B19773  39.506  17.387   7.955
 6911POPC   C4B19774  39.436  17.410   7.655
 6912POPC   NC319775  37.656   1.168   9.455
 6912POPC   PO419776  37.697   1.172   9.155
 6912POPC   GL119777  37.713   1.213   8.855
 6912POPC   GL219778  37.805   1.236   8.855
 6912POPC   C1A19779  37.673   1.243   8.555
 6912POPC   D2A19780  37.679   1.248   8.255
 6912POPC   C3A19781  37.658   1.215   7.955
 6912POPC   C4A19782  37.643   1.181   7.655
 6912POPC   C1B19783  37.918   1.213   8.555
 6912POPC   C2B19784  37.918   1.203   8.255
 6912POPC   C3B19785  37.922   1.181   7.955
 6912POPC   C4B19786  37.913   1.271   7.655
 6913POPC   NC319787  26.053  41.575   9.455
 6913POPC   PO419788  26.044  41.514   9.155
 6913POPC   GL119789  25.994  41.520   8.855
 6913POPC   GL219790  25.918  41.434   8.855
 6913POPC   C1A19791  26.083  41.516   8.555
 6913POPC   D2A19792  26.022  41.517   8.255
 6913POPC   C3A19793  26.088  41.563   7.955
 6913POPC   C4A19794  26.069  41.579   7.655
 6913POPC   C1B19795  25.844  41.316   8.555
 6913POPC   C2B19796  25.898  41.320   8.255
 6913POPC   C3B19797  25.863  41.336   7.955
 6913POPC   C4B19798  25.871  41.363   7.655
 6914POPC   NC319799   7.378  40.815   9.455
 6914POPC   PO419800   7.468  40.766   9.155
 6914POPC   GL119801   7.469  40.758   8.855
 6914POPC   GL219802   7.394  40.890   8.855
 6914POPC   C1A19803   7.381  40.742   8.555
 6914POPC   D2A19804   7.380  40.823   8.255
 6914POPC   C3A19805   7.454  40.743   7.955
 6914POPC   C4A19806   7.420  40.802   7.655
 6914POPC   C1B19807   7.378  41.044   8.555
 6914POPC   C2B19808   7.412  41.063   8.255
 6914POPC   C3B19809   7.347  41.009   7.955
 6914POPC   C4B19810   7.392  41.028   7.655
 6915POPC   NC319811   9.787   6.665   9.455
 6915POPC   PO419812   9.788   6.612   9.155
 6915POPC   GL119813   9.739   6.691   8.855
 6915POPC   GL219814   9.783   6.727   8.855
 6915POPC   C1A19815   9.717   6.613   8.555
 6915POPC   D2A19816   9.781   6.694   8.255
 6915POPC   C3A19817   9.739   6.658   7.955
 6915POPC   C4A19818   9.784   6.681   7.655
 6915POPC   C1B19819   9.850   6.828   8.555
 6915POPC   C2B19820   9.864   6.829   8.255
 6915POPC   C3B19821   9.891   6.855   7.955
 6915POPC   C4B19822   9.857   6.846   7.655
 6916POPC   NC319823  38.449   0.408   9.455
 6916POPC   PO419824  38.493   0.400   9.155
 6916POPC   GL119825  38.410   0.438   8.855
 6916POPC   GL219826  38.366   0.533   8.855
 6916POPC   C1A19827  38.410   0.416   8.555
 6916POPC   D2A19828  38.500   0.400   8.255
 6916POPC   C3A19829  38.450   0.407   7.955
 6916POPC   C4A19830  38.453   0.447   7.655
 6916POPC   C1B19831  38.329   0.640   8.555
 6916POPC   C2B19832  38.391   0.712   8.255
 6916POPC   C3B19833  38.376   0.665   7.955
 6916POPC   C4B19834  38.350   0.684   7.655
 6917POPC   NC319835  26.815   0.406   9.455
 6917POPC   PO419836  26.810   0.405   9.155
 6917POPC   GL119837  26.811   0.397   8.855
 6917POPC   GL219838  26.835   0.297   8.855
 6917POPC   C1A19839  26.818   0.440   8.555
 6917POPC   D2A19840  26.769   0.419   8.255
 6917POPC   C3A19841  26.809   0.447   7.955
 6917POPC   C4A19842  26.773   0.421   7.655
 6917POPC   C1B19843  26.799   0.232   8.555
 6917POPC   C2B19844  26.765   0.210   8.255
 6917POPC   C3B19845  26.748   0.169   7.955
 6917POPC   C4B19846  26.820   0.149   7.655
 6918POPC   NC319847  39.275   3.568   9.455
 6918POPC   PO419848  39.240   3.587   9.155
 6918POPC   GL119849  39.232   3.548   8.855
 6918POPC   GL219850  39.227   3.708   8.855
 6918POPC   C1A19851  39.274   3.553   8.555
 6918POPC   D2A19852  39.217   3.581   8.255
 6918POPC   C3A19853  39.211   3.500   7.955
 6918POPC   C4A19854  39.260   3.551   7.655
 6918POPC   C1B19855  39.342   3.763   8.555
 6918POPC   C2B19856  39.289   3.813   8.255
 6918POPC   C3B19857  39.277   3.775   7.955
 6918POPC   C4B19858  39.312   3.824   7.655
 6919POPC   NC319859   9.006  32.245   9.455
 6919POPC   PO419860   8.925  32.242   9.155
 6919POPC   GL119861   9.005  32.232   8.855
 6919POPC   GL219862   9.012  32.357   8.855
 6919POPC   C1A19863   9.019  32.262   8.555
 6919POPC   D2A19864   8.958  32.218   8.255
 6919POPC   C3A19865   8.935  32.296   7.955
 6919POPC   C4A19866   8.988  32.298   7.655
 6919POPC   C1B19867   9.096  32.432   8.555
 6919POPC   C2B19868   9.102  32.415   8.255
 6919POPC   C3B19869   9.140  32.503   7.955
 6919POPC   C4B19870   9.102  32.498   7.655
 6920POPC   NC319871  24.505  32.980   9.455
 6920POPC   PO419872  24.533  33.002   9.155
 6920POPC   GL119873  24.448  33.032   8.855
 6920POPC   GL219874  24.498  32.920   8.855
 6920POPC   C1A19875  24.470  33.045   8.555
 6920POPC   D2A19876  24.459  33.072   8.255
 6920POPC   C3A19877  24.441  33.035   7.955
 6920POPC   C4A19878  24.452  32.992   7.655
 6920POPC   C1B19879  24.407  32.808   8.555
 6920POPC   C2B19880  24.447  32.759   8.255
 6920POPC   C3B19881  24.439  32.745   7.955
 6920POPC   C4B19882  24.401  32.760   7.655
 6921POPC   NC319883  21.404  36.163   9.455
 6921POPC   PO419884  21.387  36.151   9.155
 6921POPC   GL119885  21.415  36.162   8.855
 6921POPC   GL219886  21.305  36.193   8.855
 6921POPC   C1A19887  21.364  36.172   8.555
 6921POPC   D2A19888  21.399  36.145   8.255
 6921POPC   C3A19889  21.408  36.112   7.955
 6921POPC   C4A19890  21.363  36.101   7.655
 6921POPC   C1B19891  21.255  36.344   8.555
 6921POPC   C2B19892  21.215  36.350   8.255
 6921POPC   C3B19893  21.227  36.336   7.955
 6921POPC   C4B19894  21.215  36.370   7.655
 6922POPC   NC319895  16.764   4.271   9.455
 6922POPC   PO419896  16.762   4.321   9.155
 6922POPC   GL119897  16.687   4.275   8.855
 6922POPC   GL219898  16.761   4.445   8.855
 6922POPC   C1A19899  16.748   4.339   8.555
 6922POPC   D2A19900  16.703   4.285   8.255
 6922POPC   C3A19901  16.707   4.307   7.955
 6922POPC   C4A19902  16.760   4.296   7.655
 6922POPC   C1B19903  16.892   4.576   8.555
 6922POPC   C2B19904  16.878   4.510   8.255
 6922POPC   C3B19905  16.825   4.552   7.955
 6922POPC   C4B19906  16.910   4.567   7.655
 6923POPC   NC319907   8.240  25.296   9.455
 6923POPC   PO419908   8.173  25.309   9.155
 6923POPC   GL119909   8.176  25.279   8.855
 6923POPC   GL219910   8.363  25.206   8.855
 6923POPC   C1A19911   8.237  25.267   8.555
 6923POPC   D2A19912   8.204  25.310   8.255
 6923POPC   C3A19913   8.213  25.309   7.955
 6923POPC   C4A19914   8.208  25.216   7.655
 6923POPC   C1B19915   8.469  25.240   8.555
 6923POPC   C2B19916   8.421  25.200   8.255
 6923POPC   C3B19917   8.488  25.252   7.955
 6923POPC   C4B19918   8.411  25.216   7.655
 6924POPC   NC319919  43.120  15.954   9.455
 6924POPC   PO419920  43.102  15.919   9.155
 6924POPC   GL119921  43.137  15.936   8.855
 6924POPC   GL219922  43.143  15.792   8.855
 6924POPC   C1A19923  43.114  15.991   8.555
 6924POPC   D2A19924  43.158  15.919   8.255
 6924POPC   C3A19925  43.078  15.911   7.955
 6924POPC   C4A19926  43.094  15.999   7.655
 6924POPC   C1B19927  43.120  15.751   8.555
 6924POPC   C2B19928  43.122  15.754   8.255
 6924POPC   C3B19929  43.214  15.738   7.955
 6924POPC   C4B19930  43.156  15.753   7.655
 6925POPC   NC319931  27.588   2.741   9.455
 6925POPC   PO419932  27.554   2.763   9.155
 6925POPC   GL119933  27.547   2.796   8.855
 6925POPC   GL219934  27.425   2.762   8.855
 6925POPC   C1A19935  27.591   2.754   8.555
 6925POPC   D2A19936  27.618   2.720   8.255
 6925POPC   C3A19937  27.585   2.803   7.955
 6925POPC   C4A19938  27.589   2.805   7.655
 6925POPC   C1B19939  27.298   2.700   8.555
 6925POPC   C2B19940  27.300   2.758   8.255
 6925POPC   C3B19941  27.390   2.746   7.955
 6925POPC   C4B19942  27.362   2.758   7.655
 6926POPC   NC319943  23.744  44.697   9.455
 6926POPC   PO419944  23.685  44.644   9.155
 6926POPC   GL119945  23.730  44.661   8.855
 6926POPC   GL219946  23.818  44.542   8.855
 6926POPC   C1A19947  23.664  44.696   8.555
 6926POPC   D2A19948  23.725  44.693   8.255
 6926POPC   C3A19949  23.666  44.694   7.955
 6926POPC   C4A19950  23.756  44.679   7.655
 6926POPC   C1B19951  23.820  44.429   8.555
 6926POPC   C2B19952  23.865  44.479   8.255
 6926POPC   C3B19953  23.820  44.497   7.955
 6926POPC   C4B19954  23.898  44.489   7.655
 6927POPC   NC319955  26.007  32.226   9.455
 6927POPC   PO419956  26.033  32.270   9.155
 6927POPC   GL119957  26.047  32.212   8.855
 6927POPC   GL219958  26.037  32.074   8.855
 6927POPC   C1A19959  26.043  32.233   8.555
 6927POPC   D2A19960  26.004  32.202   8.255
 6927POPC   C3A19961  26.063  32.259   7.955
 6927POPC   C4A19962  25.995  32.207   7.655
 6927POPC   C1B19963  26.044  31.987   8.555
 6927POPC   C2B19964  26.068  32.037   8.255
 6927POPC   C3B19965  26.067  32.049   7.955
 6927POPC   C4B19966  26.044  31.998   7.655
 6928POPC   NC319967   2.771  15.177   9.455
 6928POPC   PO419968   2.814  15.187   9.155
 6928POPC   GL119969   2.746  15.206   8.855
 6928POPC   GL219970   2.844  15.044   8.855
 6928POPC   C1A19971   2.733  15.200   8.555
 6928POPC   D2A19972   2.716  15.155   8.255
 6928POPC   C3A19973   2.803  15.208   7.955
 6928POPC   C4A19974   2.788  15.132   7.655
 6928POPC   C1B19975   2.847  14.948   8.555
 6928POPC   C2B19976   2.843  15.002   8.255
 6928POPC   C3B19977   2.867  14.933   7.955
 6928POPC   C4B19978   2.926  14.925   7.655
 6929POPC   NC319979  27.579  38.427   9.455
 6929POPC   PO419980  27.558  38.466   9.155
 6929POPC   GL119981  27.603  38.432   8.855
 6929POPC   GL219982  27.443  38.513   8.855
 6929POPC   C1A19983  27.640  38.482   8.555
 6929POPC   D2A19984  27.611  38.417   8.255
 6929POPC   C3A19985  27.552  38.475   7.955
 6929POPC   C4A19986  27.566  38.440   7.655
 6929POPC   C1B19987  27.357  38.463   8.555
 6929POPC   C2B19988  27.300  38.462   8.255
 6929POPC   C3B19989  27.372  38.503   7.955
 6929POPC   C4B19990  27.345  38.514   7.655
 6930POPC   NC319991  39.257  13.645   9.455
 6930POPC   PO419992  39.187  13.621   9.155
 6930POPC   GL119993  39.184  13.601   8.855
 6930POPC   GL219994  39.075  13.584   8.855
 6930POPC   C1A19995  39.269  13.657   8.555
 6930POPC   D2A19996  39.194  13.579   8.255
 6930POPC   C3A19997  39.255  13.623   7.955
 6930POPC   C4A19998  39.233  13.651   7.655
 6930POPC   C1B19999  38.942  13.575   8.555
 6930POPC   C2B20000  38.979  13.579   8.255
 6930POPC   C3B20001  38.991  13.613   7.955
 6930POPC   C4B20002  39.023  13.587   7.655
 6931POPC   NC320003  33.046   5.828   9.455
 6931POPC   PO420004  33.061   5.838   9.155
 6931POPC   GL120005  33.074   5.830   8.855
 6931POPC   GL220006  32.958   5.767   8.855
 6931POPC   C1A20007  33.016   5.879   8.555
 6931POPC   D2A20008  33.071   5.881   8.255
 6931POPC   C3A20009  33.036   5.852   7.955
 6931POPC   C4A20010  32.993   5.881   7.655
 6931POPC   C1B20011  32.912   5.684   8.555
 6931POPC   C2B20012  32.927   5.625   8.255
 6931POPC   C3B20013  32.872   5.632   7.955
 6931POPC   C4B20014  32.905   5.623   7.655
 6932POPC   NC320015   3.528  17.536   9.455
 6932POPC   PO420016   3.568  17.516   9.155
 6932POPC   GL120017   3.573  17.507   8.855
 6932POPC   GL220018   3.431  17.516   8.855
 6932POPC   C1A20019   3.494  17.545   8.555
 6932POPC   D2A20020   3.498  17.544   8.255
 6932POPC   C3A20021   3.579  17.484   7.955
 6932POPC   C4A20022   3.577  17.552   7.655
 6932POPC   C1B20023   3.304  17.551   8.555
 6932POPC   C2B20024   3.335  17.602   8.255
 6932POPC   C3B20025   3.302  17.572   7.955
 6932POPC   C4B20026   3.337  17.609   7.655
 6933POPC   NC320027   1.986  12.052   9.455
 6933POPC   PO420028   1.963  12.033   9.155
 6933POPC   GL120029   2.012  12.055   8.855
 6933POPC   GL220030   2.136  12.122   8.855
 6933POPC   C1A20031   1.951  12.080   8.555
 6933POPC   D2A20032   1.977  12.081   8.255
 6933POPC   C3A20033   2.021  12.068   7.955
 6933POPC   C4A20034   2.004  12.028   7.655
 6933POPC   C1B20035   2.264  12.172   8.555
 6933POPC   C2B20036   2.198  12.122   8.255
 6933POPC   C3B20037   2.204  12.097   7.955
 6933POPC   C4B20038   2.233  12.186   7.655
 6934POPC   NC320039  16.722   5.850   9.455
 6934POPC   PO420040  16.735   5.852   9.155
 6934POPC   GL120041  16.703   5.842   8.855
 6934POPC   GL220042  16.762   5.726   8.855
 6934POPC   C1A20043  16.713   5.884   8.555
 6934POPC   D2A20044  16.740   5.859   8.255
 6934POPC   C3A20045  16.775   5.869   7.955
 6934POPC   C4A20046  16.746   5.864   7.655
 6934POPC   C1B20047  16.734   5.645   8.555
 6934POPC   C2B20048  16.744   5.577   8.255
 6934POPC   C3B20049  16.721   5.640   7.955
 6934POPC   C4B20050  16.707   5.659   7.655
 6935POPC   NC320051  15.149  20.591   9.455
 6935POPC   PO420052  15.169  20.590   9.155
 6935POPC   GL120053  15.209  20.600   8.855
 6935POPC   GL220054  15.058  20.634   8.855
 6935POPC   C1A20055  15.225  20.603   8.555
 6935POPC   D2A20056  15.143  20.570   8.255
 6935POPC   C3A20057  15.156  20.599   7.955
 6935POPC   C4A20058  15.180  20.574   7.655
 6935POPC   C1B20059  14.918  20.672   8.555
 6935POPC   C2B20060  14.936  20.679   8.255
 6935POPC   C3B20061  14.966  20.737   7.955
 6935POPC   C4B20062  14.955  20.709   7.655
 6936POPC   NC320063  32.986  27.604   9.455
 6936POPC   PO420064  33.051  27.614   9.155
 6936POPC   GL120065  32.991  27.639   8.855
 6936POPC   GL220066  33.077  27.736   8.855
 6936POPC   C1A20067  33.030  27.563   8.555
 6936POPC   D2A20068  32.997  27.591   8.255
 6936POPC   C3A20069  32.982  27.637   7.955
 6936POPC   C4A20070  33.022  27.553   7.655
 6936POPC   C1B20071  33.118  27.800   8.555
 6936POPC   C2B20072  33.102  27.858   8.255
 6936POPC   C3B20073  33.053  27.865   7.955
 6936POPC   C4B20074  33.122  27.849   7.655
 6937POPC   NC320075  20.601   1.253   9.455
 6937POPC   PO420076  20.624   1.260   9.155
 6937POPC   GL120077  20.643   1.257   8.855
 6937POPC   GL220078  20.559   1.080   8.855
 6937POPC   C1A20079  20.608   1.186   8.555
 6937POPC   D2A20080  20.628   1.173   8.255
 6937POPC   C3A20081  20.637   1.226   7.955
 6937POPC   C4A20082  20.620   1.251   7.655
 6937POPC   C1B20083  20.628   1.004   8.555
 6937POPC   C2B20084  20.613   1.004   8.255
 6937POPC   C3B20085  20.622   0.977   7.955
 6937POPC   C4B20086  20.622   1.002   7.655
 6938POPC   NC320087  23.698   1.177   9.455
 6938POPC   PO420088  23.724   1.230   9.155
 6938POPC   GL120089  23.760   1.262   8.855
 6938POPC   GL220090  23.709   1.346   8.855
 6938POPC   C1A20091  23.755   1.180   8.555
 6938POPC   D2A20092  23.699   1.182   8.255
 6938POPC   C3A20093  23.719   1.228   7.955
 6938POPC   C4A20094  23.758   1.201   7.655
 6938POPC   C1B20095  23.586   1.410   8.555
 6938POPC   C2B20096  23.634   1.410   8.255
 6938POPC   C3B20097  23.605   1.480   7.955
 6938POPC   C4B20098  23.642   1.410   7.655
 6939POPC   NC320099  41.569  25.309   9.455
 6939POPC   PO420100  41.607  25.254   9.155
 6939POPC   GL120101  41.511  25.263   8.855
 6939POPC   GL220102  41.443  25.218   8.855
 6939POPC   C1A20103  41.575  25.246   8.555
 6939POPC   D2A20104  41.573  25.279   8.255
 6939POPC   C3A20105  41.553  25.308   7.955
 6939POPC   C4A20106  41.572  25.262   7.655
 6939POPC   C1B20107  41.348  25.085   8.555
 6939POPC   C2B20108  41.339  25.137   8.255
 6939POPC   C3B20109  41.388  25.072   7.955
 6939POPC   C4B20110  41.308  25.139   7.655
 6940POPC   NC320111   9.747  31.509   9.455
 6940POPC   PO420112   9.753  31.423   9.155
 6940POPC   GL120113   9.759  31.489   8.855
 6940POPC   GL220114   9.846  31.518   8.855
 6940POPC   C1A20115   9.725  31.471   8.555
 6940POPC   D2A20116   9.754  31.499   8.255
 6940POPC   C3A20117   9.794  31.481   7.955
 6940POPC   C4A20118   9.790  31.461   7.655
 6940POPC   C1B20119   9.988  31.493   8.555
 6940POPC   C2B20120  10.021  31.477   8.255
 6940POPC   C3B20121  10.018  31.446   7.955
 6940POPC   C4B20122   9.961  31.446   7.655
 6941POPC   NC320123  26.011  15.149   9.455
 6941POPC   PO420124  26.064  15.162   9.155
 6941POPC   GL120125  26.019  15.192   8.855
 6941POPC   GL220126  25.893  15.228   8.855
 6941POPC   C1A20127  26.004  15.137   8.555
 6941POPC   D2A20128  26.057  15.221   8.255
 6941POPC   C3A20129  26.084  15.148   7.955
 6941POPC   C4A20130  26.071  15.145   7.655
 6941POPC   C1B20131  25.774  15.327   8.555
 6941POPC   C2B20132  25.826  15.331   8.255
 6941POPC   C3B20133  25.849  15.269   7.955
 6941POPC   C4B20134  25.835  15.342   7.655
 6942POPC   NC320135   0.478  33.072   9.455
 6942POPC   PO420136   0.473  33.007   9.155
 6942POPC   GL120137   0.467  33.052   8.855
 6942POPC   GL220138   0.314  32.929   8.855
 6942POPC   C1A20139   0.423  33.074   8.555
 6942POPC   D2A20140   0.405  33.029   8.255
 6942POPC   C3A20141   0.421  33.025   7.955
 6942POPC   C4A20142   0.391  33.001   7.655
 6942POPC   C1B20143   0.222  32.836   8.555
 6942POPC   C2B20144   0.274  32.829   8.255
 6942POPC   C3B20145   0.258  32.834   7.955
 6942POPC   C4B20146   0.230  32.834   7.655
 6943POPC   NC320147  29.149  26.050   9.455
 6943POPC   PO420148  29.154  26.088   9.155
 6943POPC   GL120149  29.109  26.032   8.855
 6943POPC   GL220150  29.192  26.163   8.855
 6943POPC   C1A20151  29.132  25.996   8.555
 6943POPC   D2A20152  29.097  26.032   8.255
 6943POPC   C3A20153  29.163  26.073   7.955
 6943POPC   C4A20154  29.183  26.008   7.655
 6943POPC   C1B20155  29.249  26.225   8.555
 6943POPC   C2B20156  29.274  26.300   8.255
 6943POPC   C3B20157  29.274  26.226   7.955
 6943POPC   C4B20158  29.297  26.268   7.655
 6944POPC   NC320159  13.610  37.662   9.455
 6944POPC   PO420160  13.646  37.667   9.155
 6944POPC   GL120161  13.618  37.661   8.855
 6944POPC   GL220162  13.595  37.781   8.855
 6944POPC   C1A20163  13.606  37.713   8.555
 6944POPC   D2A20164  13.605  37.705   8.255
 6944POPC   C3A20165  13.637  37.636   7.955
 6944POPC   C4A20166  13.672  37.679   7.655
 6944POPC   C1B20167  13.651  37.972   8.555
 6944POPC   C2B20168  13.625  37.975   8.255
 6944POPC   C3B20169  13.624  37.893   7.955
 6944POPC   C4B20170  13.669  37.971   7.655
 6945POPC   NC320171  43.897  27.577   9.455
 6945POPC   PO420172  43.847  27.592   9.155
 6945POPC   GL120173  43.902  27.629   8.855
 6945POPC   GL220174  43.882  27.468   8.855
 6945POPC   C1A20175  43.915  27.630   8.555
 6945POPC   D2A20176  43.919  27.627   8.255
 6945POPC   C3A20177  43.842  27.557   7.955
 6945POPC   C4A20178  43.882  27.639   7.655
 6945POPC   C1B20179  43.834  27.350   8.555
 6945POPC   C2B20180  43.865  27.298   8.255
 6945POPC   C3B20181  43.799  27.309   7.955
 6945POPC   C4B20182  43.813  27.310   7.655
 6946POPC   NC320183  25.250  17.540   9.455
 6946POPC   PO420184  25.236  17.532   9.155
 6946POPC   GL120185  25.228  17.511   8.855
 6946POPC   GL220186  25.372  17.527   8.855
 6946POPC   C1A20187  25.301  17.547   8.555
 6946POPC   D2A20188  25.234  17.462   8.255
 6946POPC   C3A20189  25.279  17.506   7.955
 6946POPC   C4A20190  25.273  17.511   7.655
 6946POPC   C1B20191  25.491  17.459   8.555
 6946POPC   C2B20192  25.516  17.458   8.255
 6946POPC   C3B20193  25.462  17.479   7.955
 6946POPC   C4B20194  25.560  17.493   7.655
 6947POPC   NC320195  32.243  36.881   9.455
 6947POPC   PO420196  32.290  36.866   9.155
 6947POPC   GL120197  32.263  36.884   8.855
 6947POPC   GL220198  32.416  36.974   8.855
 6947POPC   C1A20199  32.227  36.913   8.555
 6947POPC   D2A20200  32.277  36.945   8.255
 6947POPC   C3A20201  32.210  36.858   7.955
 6947POPC   C4A20202  32.232  36.924   7.655
 6947POPC   C1B20203  32.443  36.984   8.555
 6947POPC   C2B20204  32.535  36.919   8.255
 6947POPC   C3B20205  32.542  37.007   7.955
 6947POPC   C4B20206  32.502  36.973   7.655
 6948POPC   NC320207   2.745   0.473   9.455
 6948POPC   PO420208   2.750   0.418   9.155
 6948POPC   GL120209   2.727   0.478   8.855
 6948POPC   GL220210   2.674   0.476   8.855
 6948POPC   C1A20211   2.805   0.403   8.555
 6948POPC   D2A20212   2.794   0.444   8.255
 6948POPC   C3A20213   2.754   0.407   7.955
 6948POPC   C4A20214   2.734   0.463   7.655
 6948POPC   C1B20215   2.482   0.410   8.555
 6948POPC   C2B20216   2.512   0.440   8.255
 6948POPC   C3B20217   2.529   0.430   7.955
 6948POPC   C4B20218   2.540   0.432   7.655
 6949POPC   NC320219  20.588  43.093   9.455
 6949POPC   PO420220  20.652  43.095   9.155
 6949POPC   GL120221  20.624  43.106   8.855
 6949POPC   GL220222  20.564  42.945   8.855
 6949POPC   C1A20223  20.563  43.110   8.555
 6949POPC   D2A20224  20.617  43.115   8.255
 6949POPC   C3A20225  20.572  43.124   7.955
 6949POPC   C4A20226  20.632  43.086   7.655
 6949POPC   C1B20227  20.579  42.909   8.555
 6949POPC   C2B20228  20.580  42.912   8.255
 6949POPC   C3B20229  20.528  42.898   7.955
 6949POPC   C4B20230  20.552  42.828   7.655
 6950POPC   NC320231  21.338   3.509   9.455
 6950POPC   PO420232  21.402   3.579   9.155
 6950POPC   GL120233  21.399   3.519   8.855
 6950POPC   GL220234  21.470   3.475   8.855
 6950POPC   C1A20235  21.347   3.511   8.555
 6950POPC   D2A20236  21.404   3.530   8.255
 6950POPC   C3A20237  21.413   3.512   7.955
 6950POPC   C4A20238  21.418   3.495   7.655
 6950POPC   C1B20239  21.598   3.371   8.555
 6950POPC   C2B20240  21.551   3.364   8.255
 6950POPC   C3B20241  21.590   3.315   7.955
 6950POPC   C4B20242  21.565   3.337   7.655
 6951POPC   NC320243   1.210   2.781   9.455
 6951POPC   PO420244   1.242   2.760   9.155
 6951POPC   GL120245   1.219   2.740   8.855
 6951POPC   GL220246   1.051   2.795   8.855
 6951POPC   C1A20247   1.263   2.798   8.555
 6951POPC   D2A20248   1.213   2.807   8.255
 6951POPC   C3A20249   1.172   2.787   7.955
 6951POPC   C4A20250   1.206   2.751   7.655
 6951POPC   C1B20251   0.992   2.851   8.555
 6951POPC   C2B20252   0.943   2.861   8.255
 6951POPC   C3B20253   0.969   2.768   7.955
 6951POPC   C4B20254   1.017   2.815   7.655
 6952POPC   NC320255  26.079  42.373   9.455
 6952POPC   PO420256  26.044  42.315   9.155
 6952POPC   GL120257  26.033  42.326   8.855
 6952POPC   GL220258  26.041  42.235   8.855
 6952POPC   C1A20259  26.054  42.301   8.555
 6952POPC   D2A20260  26.003  42.315   8.255
 6952POPC   C3A20261  26.065  42.361   7.955
 6952POPC   C4A20262  26.033  42.300   7.655
 6952POPC   C1B20263  26.122  42.101   8.555
 6952POPC   C2B20264  26.062  42.081   8.255
 6952POPC   C3B20265  26.135  42.117   7.955
 6952POPC   C4B20266  26.082  42.047   7.655
 6953POPC   NC320267  22.963  18.323   9.455
 6953POPC   PO420268  22.898  18.297   9.155
 6953POPC   GL120269  22.893  18.270   8.855
 6953POPC   GL220270  22.853  18.208   8.855
 6953POPC   C1A20271  22.960  18.281   8.555
 6953POPC   D2A20272  22.962  18.312   8.255
 6953POPC   C3A20273  22.926  18.296   7.955
 6953POPC   C4A20274  22.971  18.254   7.655
 6953POPC   C1B20275  22.875  18.062   8.555
 6953POPC   C2B20276  22.836  18.015   8.255
 6953POPC   C3B20277  22.896  18.098   7.955
 6953POPC   C4B20278  22.825  18.054   7.655
 6954POPC   NC320279   1.989  35.312   9.455
 6954POPC   PO420280   2.033  35.351   9.155
 6954POPC   GL120281   2.036  35.356   8.855
 6954POPC   GL220282   1.875  35.352   8.855
 6954POPC   C1A20283   1.945  35.312   8.555
 6954POPC   D2A20284   2.034  35.318   8.255
 6954POPC   C3A20285   2.003  35.388   7.955
 6954POPC   C4A20286   2.001  35.302   7.655
 6954POPC   C1B20287   1.710  35.369   8.555
 6954POPC   C2B20288   1.697  35.442   8.255
 6954POPC   C3B20289   1.785  35.414   7.955
 6954POPC   C4B20290   1.724  35.401   7.655
 6955POPC   NC320291  24.528  15.974   9.455
 6955POPC   PO420292  24.474  16.002   9.155
 6955POPC   GL120293  24.519  15.954   8.855
 6955POPC   GL220294  24.478  16.050   8.855
 6955POPC   C1A20295  24.444  15.972   8.555
 6955POPC   D2A20296  24.537  15.975   8.255
 6955POPC   C3A20297  24.446  15.931   7.955
 6955POPC   C4A20298  24.479  15.973   7.655
 6955POPC   C1B20299  24.493  16.179   8.555
 6955POPC   C2B20300  24.526  16.210   8.255
 6955POPC   C3B20301  24.546  16.171   7.955
 6955POPC   C4B20302  24.534  16.246   7.655
 6956POPC   NC320303  29.188   4.274   9.455
 6956POPC   PO420304  29.100   4.354   9.155
 6956POPC   GL120305  29.096   4.358   8.855
 6956POPC   GL220306  29.047   4.323   8.855
 6956POPC   C1A20307  29.146   4.302   8.555
 6956POPC   D2A20308  29.102   4.278   8.255
 6956POPC   C3A20309  29.099   4.366   7.955
 6956POPC   C4A20310  29.111   4.308   7.655
 6956POPC   C1B20311  28.938   4.376   8.555
 6956POPC   C2B20312  28.871   4.383   8.255
 6956POPC   C3B20313  28.916   4.451   7.955
 6956POPC   C4B20314  28.932   4.466   7.655
 6957POPC   NC320315   6.602  19.090   9.455
 6957POPC   PO420316   6.667  19.041   9.155
 6957POPC   GL120317   6.679  19.010   8.855
 6957POPC   GL220318   6.563  19.058   8.855
 6957POPC   C1A20319   6.669  19.074   8.555
 6957POPC   D2A20320   6.604  19.022   8.255
 6957POPC   C3A20321   6.625  19.033   7.955
 6957POPC   C4A20322   6.634  19.027   7.655
 6957POPC   C1B20323   6.389  19.079   8.555
 6957POPC   C2B20324   6.423  19.029   8.255
 6957POPC   C3B20325   6.397  19.108   7.955
 6957POPC   C4B20326   6.399  19.074   7.655
 6958POPC   NC320327   0.420  34.542   9.455
 6958POPC   PO420328   0.455  34.609   9.155
 6958POPC   GL120329   0.422  34.534   8.855
 6958POPC   GL220330   0.475  34.505   8.855
 6958POPC   C1A20331   0.420  34.584   8.555
 6958POPC   D2A20332   0.444  34.593   8.255
 6958POPC   C3A20333   0.427  34.571   7.955
 6958POPC   C4A20334   0.482  34.605   7.655
 6958POPC   C1B20335   0.514  34.350   8.555
 6958POPC   C2B20336   0.563  34.306   8.255
 6958POPC   C3B20337   0.516  34.298   7.955
 6958POPC   C4B20338   0.552  34.346   7.655
 6959POPC   NC320339  29.871  28.419   9.455
 6959POPC   PO420340  29.904  28.390   9.155
 6959POPC   GL120341  29.954  28.401   8.855
 6959POPC   GL220342  30.038  28.307   8.855
 6959POPC   C1A20343  29.872  28.410   8.555
 6959POPC   D2A20344  29.919  28.396   8.255
 6959POPC   C3A20345  29.910  28.361   7.955
 6959POPC   C4A20346  29.915  28.358   7.655
 6959POPC   C1B20347  30.199  28.284   8.555
 6959POPC   C2B20348  30.125  28.235   8.255
 6959POPC   C3B20349  30.190  28.246   7.955
 6959POPC   C4B20350  30.165  28.222   7.655
 6960POPC   NC320351  25.268   2.029   9.455
 6960POPC   PO420352  25.263   1.975   9.155
 6960POPC   GL120353  25.291   1.962   8.855
 6960POPC   GL220354  25.121   1.901   8.855
 6960POPC   C1A20355  25.303   2.008   8.555
 6960POPC   D2A20356  25.284   1.974   8.255
 6960POPC   C3A20357  25.271   1.988   7.955
 6960POPC   C4A20358  25.230   2.026   7.655
 6960POPC   C1B20359  25.087   1.865   8.555
 6960POPC   C2B20360  25.059   1.823   8.255
 6960POPC   C3B20361  25.033   1.886   7.955
 6960POPC   C4B20362  25.083   1.812   7.655
 6961POPC   NC320363  12.086   8.974   9.455
 6961POPC   PO420364  12.042   8.956   9.155
 6961POPC   GL120365  12.040   8.934   8.855
 6961POPC   GL220366  12.116   9.020   8.855
 6961POPC   C1A20367  12.096   9.017   8.555
 6961POPC   D2A20368  12.082   8.972   8.255
 6961POPC   C3A20369  12.061   8.923   7.955
 6961POPC   C4A20370  12.082   8.991   7.655
 6961POPC   C1B20371  12.288   9.144   8.555
 6961POPC   C2B20372  12.292   9.140   8.255
 6961POPC   C3B20373  12.291   9.128   7.955
 6961POPC   C4B20374  12.219   9.143   7.655
 6962POPC   NC320375   9.765  35.324   9.455
 6962POPC   PO420376   9.738  35.370   9.155
 6962POPC   GL120377   9.745  35.305   8.855
 6962POPC   GL220378   9.825  35.367   8.855
 6962POPC   C1A20379   9.714  35.365   8.555
 6962POPC   D2A20380   9.701  35.375   8.255
 6962POPC   C3A20381   9.738  35.400   7.955
 6962POPC   C4A20382   9.709  35.344   7.655
 6962POPC   C1B20383   9.996  35.351   8.555
 6962POPC   C2B20384  10.043  35.309   8.255
 6962POPC   C3B20385   9.985  35.324   7.955
 6962POPC   C4B20386   9.982  35.314   7.655
 6963POPC   NC320387  38.495  12.043   9.455
 6963POPC   PO420388  38.465  12.037   9.155
 6963POPC   GL120389  38.494  12.103   8.855
 6963POPC   GL220390  38.422  12.231   8.855
 6963POPC   C1A20391  38.441  12.029   8.555
 6963POPC   D2A20392  38.410  12.037   8.255
 6963POPC   C3A20393  38.411  12.114   7.955
 6963POPC   C4A20394  38.447  12.056   7.655
 6963POPC   C1B20395  38.440  12.336   8.555
 6963POPC   C2B20396  38.419  12.320   8.255
 6963POPC   C3B20397  38.347  12.287   7.955
 6963POPC   C4B20398  38.376  12.353   7.655
 6964POPC   NC320399  11.295  22.125   9.455
 6964POPC   PO420400  11.349  22.196   9.155
 6964POPC   GL120401  11.309  22.113   8.855
 6964POPC   GL220402  11.304  22.094   8.855
 6964POPC   C1A20403  11.329  22.123   8.555
 6964POPC   D2A20404  11.265  22.211   8.255
 6964POPC   C3A20405  11.335  22.134   7.955
 6964POPC   C4A20406  11.278  22.211   7.655
 6964POPC   C1B20407  11.399  21.923   8.555
 6964POPC   C2B20408  11.342  21.943   8.255
 6964POPC   C3B20409  11.403  21.978   7.955
 6964POPC   C4B20410  11.353  21.886   7.655
 6965POPC   NC320411   1.972  29.172   9.455
 6965POPC   PO420412   2.005  29.105   9.155
 6965POPC   GL120413   1.951  29.102   8.855
 6965POPC   GL220414   1.849  29.093   8.855
 6965POPC   C1A20415   1.944  29.156   8.555
 6965POPC   D2A20416   2.012  29.158   8.255
 6965POPC   C3A20417   2.032  29.102   7.955
 6965POPC   C4A20418   1.965  29.099   7.655
 6965POPC   C1B20419   1.742  29.099   8.555
 6965POPC   C2B20420   1.718  29.175   8.255
 6965POPC   C3B20421   1.733  29.142   7.955
 6965POPC   C4B20422   1.714  29.099   7.655
 6966POPC   NC320423  42.332  43.924   9.455
 6966POPC   PO420424  42.356  43.887   9.155
 6966POPC   GL120425  42.373  43.838   8.855
 6966POPC   GL220426  42.275  43.798   8.855
 6966POPC   C1A20427  42.291  43.899   8.555
 6966POPC   D2A20428  42.371  43.865   8.255
 6966POPC   C3A20429  42.373  43.856   7.955
 6966POPC   C4A20430  42.289  43.905   7.655
 6966POPC   C1B20431  42.281  43.605   8.555
 6966POPC   C2B20432  42.267  43.625   8.255
 6966POPC   C3B20433  42.266  43.696   7.955
 6966POPC   C4B20434  42.255  43.607   7.655
 6967POPC   NC320435   3.591  20.581   9.455
 6967POPC   PO420436   3.493  20.614   9.155
 6967POPC   GL120437   3.567  20.648   8.855
 6967POPC   GL220438   3.560  20.448   8.855
 6967POPC   C1A20439   3.519  20.619   8.555
 6967POPC   D2A20440   3.513  20.651   8.255
 6967POPC   C3A20441   3.565  20.586   7.955
 6967POPC   C4A20442   3.492  20.656   7.655
 6967POPC   C1B20443   3.665  20.389   8.555
 6967POPC   C2B20444   3.622  20.380   8.255
 6967POPC   C3B20445   3.625  20.351   7.955
 6967POPC   C4B20446   3.610  20.387   7.655
 6968POPC   NC320447   1.232  41.522   9.455
 6968POPC   PO420448   1.179  41.553   9.155
 6968POPC   GL120449   1.227  41.513   8.855
 6968POPC   GL220450   1.176  41.652   8.855
 6968POPC   C1A20451   1.211  41.557   8.555
 6968POPC   D2A20452   1.191  41.561   8.255
 6968POPC   C3A20453   1.207  41.516   7.955
 6968POPC   C4A20454   1.214  41.533   7.655
 6968POPC   C1B20455   1.165  41.764   8.555
 6968POPC   C2B20456   1.215  41.801   8.255
 6968POPC   C3B20457   1.221  41.782   7.955
 6968POPC   C4B20458   1.183  41.794   7.655
 6969POPC   NC320459  43.892  19.024   9.455
 6969POPC   PO420460  43.863  19.051   9.155
 6969POPC   GL120461  43.897  19.063   8.855
 6969POPC   GL220462  43.886  18.900   8.855
 6969POPC   C1A20463  43.846  19.019   8.555
 6969POPC   D2A20464  43.913  19.071   8.255
 6969POPC   C3A20465  43.845  19.083   7.955
 6969POPC   C4A20466  43.930  19.011   7.655
 6969POPC   C1B20467  43.773  18.800   8.555
 6969POPC   C2B20468  43.795  18.842   8.255
 6969POPC   C3B20469  43.788  18.867   7.955
 6969POPC   C4B20470  43.837  18.831   7.655
 6970POPC   NC320471  12.078  21.352   9.455
 6970POPC   PO420472  12.090  21.394   9.155
 6970POPC   GL120473  12.114  21.394   8.855
 6970POPC   GL220474  12.045  21.475   8.855
 6970POPC   C1A20475  12.073  21.379   8.555
 6970POPC   D2A20476  12.086  21.342   8.255
 6970POPC   C3A20477  12.125  21.390   7.955
 6970POPC   C4A20478  12.042  21.431   7.655
 6970POPC   C1B20479  12.019  21.659   8.555
 6970POPC   C2B20480  12.024  21.627   8.255
 6970POPC   C3B20481  11.985  21.659   7.955
 6970POPC   C4B20482  11.998  21.630   7.655
 6971POPC   NC320483  38.407  18.269   9.455
 6971POPC   PO420484  38.477  18.301   9.155
 6971POPC   GL120485  38.491  18.291   8.855
 6971POPC   GL220486  38.464  18.395   8.855
 6971POPC   C1A20487  38.484  18.274   8.555
 6971POPC   D2A20488  38.415  18.259   8.255
 6971POPC   C3A20489  38.418  18.257   7.955
 6971POPC   C4A20490  38.501  18.265   7.655
 6971POPC   C1B20491  38.396  18.553   8.555
 6971POPC   C2B20492  38.340  18.567   8.255
 6971POPC   C3B20493  38.361  18.476   7.955
 6971POPC   C4B20494  38.365  18.477   7.655
 6972POPC   NC320495   1.193  28.400   9.455
 6972POPC   PO420496   1.221  28.337   9.155
 6972POPC   GL120497   1.166  28.380   8.855
 6972POPC   GL220498   1.345  28.307   8.855
 6972POPC   C1A20499   1.227  28.322   8.555
 6972POPC   D2A20500   1.239  28.354   8.255
 6972POPC   C3A20501   1.260  28.320   7.955
 6972POPC   C4A20502   1.188  28.373   7.655
 6972POPC   C1B20503   1.389  28.245   8.555
 6972POPC   C2B20504   1.410  28.244   8.255
 6972POPC   C3B20505   1.421  28.230   7.955
 6972POPC   C4B20506   1.408  28.215   7.655
 6973POPC   NC320507  19.849  12.895   9.455
 6973POPC   PO420508  19.814  12.843   9.155
 6973POPC   GL120509  19.842  12.808   8.855
 6973POPC   GL220510  19.929  12.783   8.855
 6973POPC   C1A20511  19.834  12.836   8.555
 6973POPC   D2A20512  19.878  12.812   8.255
 6973POPC   C3A20513  19.800  12.862   7.955
 6973POPC   C4A20514  19.837  12.805   7.655
 6973POPC   C1B20515  19.919  12.589   8.555
 6973POPC   C2B20516  19.932  12.625   8.255
 6973POPC   C3B20517  19.958  12.620   7.955
 6973POPC   C4B20518  19.939  12.604   7.655
 6974POPC   NC320519  18.330  22.932   9.455
 6974POPC   PO420520  18.246  22.894   9.155
 6974POPC   GL120521  18.299  22.932   8.855
 6974POPC   GL220522  18.301  22.823   8.855
 6974POPC   C1A20523  18.239  22.930   8.555
 6974POPC   D2A20524  18.270  22.947   8.255
 6974POPC   C3A20525  18.311  22.986   7.955
 6974POPC   C4A20526  18.239  22.901   7.655
 6974POPC   C1B20527  18.435  22.739   8.555
 6974POPC   C2B20528  18.430  22.691   8.255
 6974POPC   C3B20529  18.440  22.717   7.955
 6974POPC   C4B20530  18.371  22.727   7.655
 6975POPC   NC320531  30.657  23.763   9.455
 6975POPC   PO420532  30.719  23.735   9.155
 6975POPC   GL120533  30.739  23.677   8.855
 6975POPC   GL220534  30.750  23.831   8.855
 6975POPC   C1A20535  30.729  23.694   8.555
 6975POPC   D2A20536  30.735  23.699   8.255
 6975POPC   C3A20537  30.656  23.692   7.955
 6975POPC   C4A20538  30.660  23.748   7.655
 6975POPC   C1B20539  30.756  23.987   8.555
 6975POPC   C2B20540  30.815  23.975   8.255
 6975POPC   C3B20541  30.769  23.987   7.955
 6975POPC   C4B20542  30.764  23.952   7.655
 6976POPC   NC320543  19.053   2.735   9.455
 6976POPC   PO420544  19.099   2.742   9.155
 6976POPC   GL120545  19.035   2.795   8.855
 6976POPC   GL220546  19.059   2.879   8.855
 6976POPC   C1A20547  19.058   2.757   8.555
 6976POPC   D2A20548  19.102   2.775   8.255
 6976POPC   C3A20549  19.066   2.763   7.955
 6976POPC   C4A20550  19.050   2.728   7.655
 6976POPC   C1B20551  19.073   2.978   8.555
 6976POPC   C2B20552  19.112   2.968   8.255
 6976POPC   C3B20553  19.125   3.027   7.955
 6976POPC   C4B20554  19.088   3.016   7.655
 6977POPC   NC320555  29.895   6.651   9.455
 6977POPC   PO420556  29.875   6.649   9.155
 6977POPC   GL120557  29.909   6.635   8.855
 6977POPC   GL220558  29.771   6.583   8.855
 6977POPC   C1A20559  29.897   6.628   8.555
 6977POPC   D2A20560  29.918   6.646   8.255
 6977POPC   C3A20561  29.900   6.678   7.955
 6977POPC   C4A20562  29.928   6.610   7.655
 6977POPC   C1B20563  29.713   6.553   8.555
 6977POPC   C2B20564  29.628   6.625   8.255
 6977POPC   C3B20565  29.720   6.640   7.955
 6977POPC   C4B20566  29.719   6.578   7.655
 6978POPC   NC320567  12.830  23.759   9.455
 6978POPC   PO420568  12.898  23.695   9.155
 6978POPC   GL120569  12.834  23.701   8.855
 6978POPC   GL220570  12.853  23.814   8.855
 6978POPC   C1A20571  12.824  23.701   8.555
 6978POPC   D2A20572  12.807  23.688   8.255
 6978POPC   C3A20573  12.836  23.697   7.955
 6978POPC   C4A20574  12.844  23.755   7.655
 6978POPC   C1B20575  12.871  23.946   8.555
 6978POPC   C2B20576  12.872  23.987   8.255
 6978POPC   C3B20577  12.804  23.932   7.955
 6978POPC   C4B20578  12.795  23.968   7.655
 6979POPC   NC320579  43.137  40.792   9.455
 6979POPC   PO420580  43.116  40.737   9.155
 6979POPC   GL120581  43.143  40.775   8.855
 6979POPC   GL220582  43.059  40.701   8.855
 6979POPC   C1A20583  43.088  40.744   8.555
 6979POPC   D2A20584  43.105  40.754   8.255
 6979POPC   C3A20585  43.080  40.819   7.955
 6979POPC   C4A20586  43.148  40.785   7.655
 6979POPC   C1B20587  42.985  40.619   8.555
 6979POPC   C2B20588  42.927  40.566   8.255
 6979POPC   C3B20589  42.987  40.613   7.955
 6979POPC   C4B20590  42.993  40.637   7.655
 6980POPC   NC320591  40.789  19.081   9.455
 6980POPC   PO420592  40.824  19.058   9.155
 6980POPC   GL120593  40.817  19.085   8.855
 6980POPC   GL220594  40.636  19.032   8.855
 6980POPC   C1A20595  40.809  19.044   8.555
 6980POPC   D2A20596  40.771  19.011   8.255
 6980POPC   C3A20597  40.807  19.025   7.955
 6980POPC   C4A20598  40.782  19.059   7.655
 6980POPC   C1B20599  40.554  19.079   8.555
 6980POPC   C2B20600  40.579  19.039   8.255
 6980POPC   C3B20601  40.525  19.096   7.955
 6980POPC   C4B20602  40.533  19.032   7.655
 6981POPC   NC320603  31.455  32.259   9.455
 6981POPC   PO420604  31.488  32.234   9.155
 6981POPC   GL120605  31.473  32.290   8.855
 6981POPC   GL220606  31.379  32.159   8.855
 6981POPC   C1A20607  31.505  32.264   8.555
 6981POPC   D2A20608  31.495  32.256   8.255
 6981POPC   C3A20609  31.439  32.245   7.955
 6981POPC   C4A20610  31.462  32.217   7.655
 6981POPC   C1B20611  31.209  32.115   8.555
 6981POPC   C2B20612  31.285  32.122   8.255
 6981POPC   C3B20613  31.243  32.128   7.955
 6981POPC   C4B20614  31.277  32.127   7.655
 6982POPC   NC320615  20.631  36.946   9.455
 6982POPC   PO420616  20.635  36.878   9.155
 6982POPC   GL120617  20.575  36.903   8.855
 6982POPC   GL220618  20.721  36.952   8.855
 6982POPC   C1A20619  20.563  36.945   8.555
 6982POPC   D2A20620  20.638  36.906   8.255
 6982POPC   C3A20621  20.627  36.857   7.955
 6982POPC   C4A20622  20.586  36.883   7.655
 6982POPC   C1B20623  20.813  37.056   8.555
 6982POPC   C2B20624  20.809  37.032   8.255
 6982POPC   C3B20625  20.787  37.093   7.955
 6982POPC   C4B20626  20.770  37.009   7.655
 6983POPC   NC320627  28.386   6.625   9.455
 6983POPC   PO420628  28.333   6.666   9.155
 6983POPC   GL120629  28.338   6.612   8.855
 6983POPC   GL220630  28.271   6.790   8.855
 6983POPC   C1A20631  28.370   6.617   8.555
 6983POPC   D2A20632  28.402   6.639   8.255
 6983POPC   C3A20633  28.406   6.660   7.955
 6983POPC   C4A20634  28.358   6.616   7.655
 6983POPC   C1B20635  28.261   6.909   8.555
 6983POPC   C2B20636  28.217   6.917   8.255
 6983POPC   C3B20637  28.309   6.825   7.955
 6983POPC   C4B20638  28.239   6.918   7.655
 6984POPC   NC320639  32.234  20.592   9.455
 6984POPC   PO420640  32.234  20.567   9.155
 6984POPC   GL120641  32.236  20.653   8.855
 6984POPC   GL220642  32.302  20.677   8.855
 6984POPC   C1A20643  32.256  20.575   8.555
 6984POPC   D2A20644  32.214  20.567   8.255
 6984POPC   C3A20645  32.229  20.592   7.955
 6984POPC   C4A20646  32.213  20.634   7.655
 6984POPC   C1B20647  32.389  20.796   8.555
 6984POPC   C2B20648  32.355  20.795   8.255
 6984POPC   C3B20649  32.403  20.838   7.955
 6984POPC   C4B20650  32.363  20.828   7.655
 6985POPC   NC320651   9.774  23.691   9.455
 6985POPC   PO420652   9.725  23.730   9.155
 6985POPC   GL120653   9.782  23.737   8.855
 6985POPC   GL220654   9.700  23.826   8.855
 6985POPC   C1A20655   9.791  23.752   8.555
 6985POPC   D2A20656   9.792  23.711   8.255
 6985POPC   C3A20657   9.711  23.703   7.955
 6985POPC   C4A20658   9.741  23.714   7.655
 6985POPC   C1B20659   9.518  23.903   8.555
 6985POPC   C2B20660   9.557  23.865   8.255
 6985POPC   C3B20661   9.563  23.865   7.955
 6985POPC   C4B20662   9.527  23.861   7.655
 6986POPC   NC320663  15.923  13.628   9.455
 6986POPC   PO420664  16.005  13.632   9.155
 6986POPC   GL120665  15.907  13.598   8.855
 6986POPC   GL220666  15.877  13.488   8.855
 6986POPC   C1A20667  15.907  13.616   8.555
 6986POPC   D2A20668  15.911  13.586   8.255
 6986POPC   C3A20669  15.975  13.614   7.955
 6986POPC   C4A20670  15.912  13.580   7.655
 6986POPC   C1B20671  15.850  13.365   8.555
 6986POPC   C2B20672  15.881  13.378   8.255
 6986POPC   C3B20673  15.865  13.418   7.955
 6986POPC   C4B20674  15.942  13.339   7.655
 6987POPC   NC320675  39.248  21.337   9.455
 6987POPC   PO420676  39.256  21.353   9.155
 6987POPC   GL120677  39.200  21.396   8.855
 6987POPC   GL220678  39.193  21.304   8.855
 6987POPC   C1A20679  39.265  21.363   8.555
 6987POPC   D2A20680  39.228  21.366   8.255
 6987POPC   C3A20681  39.221  21.377   7.955
 6987POPC   C4A20682  39.230  21.429   7.655
 6987POPC   C1B20683  39.246  21.109   8.555
 6987POPC   C2B20684  39.273  21.123   8.255
 6987POPC   C3B20685  39.293  21.114   7.955
 6987POPC   C4B20686  39.244  21.114   7.655
 6988POPC   NC320687   5.096  22.114   9.455
 6988POPC   PO420688   5.103  22.123   9.155
 6988POPC   GL120689   5.118  22.198   8.855
 6988POPC   GL220690   5.127  22.056   8.855
 6988POPC   C1A20691   5.113  22.200   8.555
 6988POPC   D2A20692   5.141  22.153   8.255
 6988POPC   C3A20693   5.107  22.151   7.955
 6988POPC   C4A20694   5.084  22.186   7.655
 6988POPC   C1B20695   5.120  21.953   8.555
 6988POPC   C2B20696   5.135  21.895   8.255
 6988POPC   C3B20697   5.126  21.874   7.955
 6988POPC   C4B20698   5.124  21.932   7.655
 6989POPC   NC320699   8.232  41.602   9.455
 6989POPC   PO420700   8.175  41.510   9.155
 6989POPC   GL120701   8.237  41.587   8.855
 6989POPC   GL220702   8.113  41.581   8.855
 6989POPC   C1A20703   8.192  41.604   8.555
 6989POPC   D2A20704   8.246  41.520   8.255
 6989POPC   C3A20705   8.172  41.533   7.955
 6989POPC   C4A20706   8.243  41.529   7.655
 6989POPC   C1B20707   7.982  41.641   8.555
 6989POPC   C2B20708   7.968  41.661   8.255
 6989POPC   C3B20709   7.915  41.584   7.955
 6989POPC   C4B20710   7.915  41.622   7.655
 6990POPC   NC320711  43.079   7.421   9.455
 6990POPC   PO420712  43.104   7.451   9.155
 6990POPC   GL120713  43.151   7.447   8.855
 6990POPC   GL220714  43.181   7.519   8.855
 6990POPC   C1A20715  43.140   7.466   8.555
 6990POPC   D2A20716  43.108   7.393   8.255
 6990POPC   C3A20717  43.160   7.448   7.955
 6990POPC   C4A20718  43.091   7.448   7.655
 6990POPC   C1B20719  43.200   7.637   8.555
 6990POPC   C2B20720  43.175   7.689   8.255
 6990POPC   C3B20721  43.193   7.692   7.955
 6990POPC   C4B20722  43.195   7.652   7.655
 6991POPC   NC320723  36.092  22.140   9.455
 6991POPC   PO420724  36.111  22.149   9.155
 6991POPC   GL120725  36.161  22.197   8.855
 6991POPC   GL220726  36.083  22.078   8.855
 6991POPC   C1A20727  36.087  22.164   8.555
 6991POPC   D2A20728  36.156  22.133   8.255
 6991POPC   C3A20729  36.137  22.121   7.955
 6991POPC   C4A20730  36.111  22.202   7.655
 6991POPC   C1B20731  36.152  21.895   8.555
 6991POPC   C2B20732  36.123  21.929   8.255
 6991POPC   C3B20733  36.129  21.934   7.955
 6991POPC   C4B20734  36.126  21.949   7.655
 6992POPC   NC320735  24.528  43.883   9.455
 6992POPC   PO420736  24.510  43.905   9.155
 6992POPC   GL120737  24.464  43.924   8.855
 6992POPC   GL220738  24.346  43.869   8.855
 6992POPC   C1A20739  24.464  43.863   8.555
 6992POPC   D2A20740  24.485  43.853   8.255
 6992POPC   C3A20741  24.509  43.854   7.955
 6992POPC   C4A20742  24.473  43.889   7.655
 6992POPC   C1B20743  24.262  43.748   8.555
 6992POPC   C2B20744  24.298  43.778   8.255
 6992POPC   C3B20745  24.307  43.779   7.955
 6992POPC   C4B20746  24.250  43.800   7.655
 6993POPC   NC320747   9.773  22.967   9.455
 6993POPC   PO420748   9.788  22.937   9.155
 6993POPC   GL120749   9.781  22.919   8.855
 6993POPC   GL220750   9.682  22.855   8.855
 6993POPC   C1A20751   9.741  22.968   8.555
 6993POPC   D2A20752   9.751  22.914   8.255
 6993POPC   C3A20753   9.754  22.952   7.955
 6993POPC   C4A20754   9.734  22.956   7.655
 6993POPC   C1B20755   9.554  22.739   8.555
 6993POPC   C2B20756   9.546  22.731   8.255
 6993POPC   C3B20757   9.514  22.746   7.955
 6993POPC   C4B20758   9.611  22.744   7.655
 6994POPC   NC320759  11.333  33.024   9.455
 6994POPC   PO420760  11.341  33.050   9.155
 6994POPC   GL120761  11.303  32.982   8.855
 6994POPC   GL220762  11.303  33.172   8.855
 6994POPC   C1A20763  11.332  33.020   8.555
 6994POPC   D2A20764  11.313  32.979   8.255
 6994POPC   C3A20765  11.278  33.000   7.955
 6994POPC   C4A20766  11.277  33.018   7.655
 6994POPC   C1B20767  11.247  33.258   8.555
 6994POPC   C2B20768  11.222  33.286   8.255
 6994POPC   C3B20769  11.218  33.279   7.955
 6994POPC   C4B20770  11.258  33.305   7.655
 6995POPC   NC320771  38.451  31.441   9.455
 6995POPC   PO420772  38.458  31.486   9.155
 6995POPC   GL120773  38.455  31.492   8.855
 6995POPC   GL220774  38.290  31.449   8.855
 6995POPC   C1A20775  38.465  31.441   8.555
 6995POPC   D2A20776  38.447  31.517   8.255
 6995POPC   C3A20777  38.421  31.478   7.955
 6995POPC   C4A20778  38.417  31.459   7.655
 6995POPC   C1B20779  38.243  31.547   8.555
 6995POPC   C2B20780  38.190  31.485   8.255
 6995POPC   C3B20781  38.216  31.486   7.955
 6995POPC   C4B20782  38.203  31.513   7.655
 6996POPC   NC320783  19.849  41.581   9.455
 6996POPC   PO420784  19.791  41.544   9.155
 6996POPC   GL120785  19.871  41.587   8.855
 6996POPC   GL220786  19.736  41.463   8.855
 6996POPC   C1A20787  19.884  41.580   8.555
 6996POPC   D2A20788  19.826  41.535   8.255
 6996POPC   C3A20789  19.858  41.568   7.955
 6996POPC   C4A20790  19.810  41.585   7.655
 6996POPC   C1B20791  19.631  41.350   8.555
 6996POPC   C2B20792  19.669  41.373   8.255
 6996POPC   C3B20793  19.669  41.369   7.955
 6996POPC   C4B20794  19.659  41.413   7.655
 6997POPC   NC320795  22.910   4.363   9.455
 6997POPC   PO420796  22.906   4.290   9.155
 6997POPC   GL120797  22.968   4.306   8.855
 6997POPC   GL220798  22.941   4.222   8.855
 6997POPC   C1A20799  22.891   4.326   8.555
 6997POPC   D2A20800  22.928   4.326   8.255
 6997POPC   C3A20801  22.917   4.310   7.955
 6997POPC   C4A20802  22.896   4.276   7.655
 6997POPC   C1B20803  22.843   4.044   8.555
 6997POPC   C2B20804  22.905   4.129   8.255
 6997POPC   C3B20805  22.907   4.100   7.955
 6997POPC   C4B20806  22.898   4.068   7.655
 6998POPC   NC320807  14.373  42.313   9.455
 6998POPC   PO420808  14.451  42.378   9.155
 6998POPC   GL120809  14.387  42.298   8.855
 6998POPC   GL220810  14.335  42.305   8.855
 6998POPC   C1A20811  14.445  42.344   8.555
 6998POPC   D2A20812  14.412  42.294   8.255
 6998POPC   C3A20813  14.418  42.321   7.955
 6998POPC   C4A20814  14.413  42.292   7.655
 6998POPC   C1B20815  14.175  42.260   8.555
 6998POPC   C2B20816  14.188  42.285   8.255
 6998POPC   C3B20817  14.196  42.203   7.955
 6998POPC   C4B20818  14.169  42.224   7.655
 6999POPC   NC320819  44.640  41.510   9.455
 6999POPC   PO420820  44.697  41.547   9.155
 6999POPC   GL120821  44.618  41.577   8.855
 6999POPC   GL220822  44.727  41.448   8.855
 6999POPC   C1A20823  44.692  41.586   8.555
 6999POPC   D2A20824  44.616  41.586   8.255
 6999POPC   C3A20825  44.613  41.564   7.955
 6999POPC   C4A20826  44.667  41.536   7.655
 6999POPC   C1B20827  44.871  41.411   8.555
 6999POPC   C2B20828  44.866  41.397   8.255
 6999POPC   C3B20829  44.831  41.371   7.955
 6999POPC   C4B20830  44.843  41.403   7.655
 7000POPC   NC320831   1.216  13.652   9.455
 7000POPC   PO420832   1.213  13.621   9.155
 7000POPC   GL120833   1.246  13.609   8.855
 7000POPC   GL220834   1.199  13.534   8.855
 7000POPC   C1A20835   1.234  13.644   8.555
 7000POPC   D2A20836   1.252  13.639   8.255
 7000POPC   C3A20837   1.227  13.639   7.955
 7000POPC   C4A20838   1.226  13.647   7.655
 7000POPC   C1B20839   1.150  13.389   8.555
 7000POPC   C2B20840   1.096  13.400   8.255
 7000POPC   C3B20841   1.103  13.379   7.955
 7000POPC   C4B20842   1.112  13.413   7.655
 7001POPC   NC320843   2.814  14.413   9.455
 7001POPC   PO420844   2.797  14.403   9.155
 7001POPC   GL120845   2.740  14.449   8.855
 7001POPC   GL220846   2.822  14.541   8.855
 7001POPC   C1A20847   2.735  14.372   8.555
 7001POPC   D2A20848   2.788  14.355   8.255
 7001POPC   C3A20849   2.739  14.365   7.955
 7001POPC   C4A20850   2.730  14.414   7.655
 7001POPC   C1B20851   2.793  14.645   8.555
 7001POPC   C2B20852   2.793  14.601   8.255
 7001POPC   C3B20853   2.817  14.679   7.955
 7001POPC   C4B20854   2.782  14.670   7.655
 7002POPC   NC320855  19.033  32.243   9.455
 7002POPC   PO420856  19.039  32.283   9.155
 7002POPC   GL120857  19.102  32.227   8.855
 7002POPC   GL220858  18.937  32.200   8.855
 7002POPC   C1A20859  19.066  32.220   8.555
 7002POPC   D2A20860  19.093  32.297   8.255
 7002POPC   C3A20861  19.067  32.210   7.955
 7002POPC   C4A20862  19.081  32.285   7.655
 7002POPC   C1B20863  18.866  32.130   8.555
 7002POPC   C2B20864  18.844  32.118   8.255
 7002POPC   C3B20865  18.862  32.145   7.955
 7002POPC   C4B20866  18.806  32.132   7.655
 7003POPC   NC320867   5.050   1.945   9.455
 7003POPC   PO420868   5.135   1.973   9.155
 7003POPC   GL120869   5.069   2.017   8.855
 7003POPC   GL220870   4.987   1.924   8.855
 7003POPC   C1A20871   5.124   1.987   8.555
 7003POPC   D2A20872   5.058   2.023   8.255
 7003POPC   C3A20873   5.112   1.976   7.955
 7003POPC   C4A20874   5.054   1.953   7.655
 7003POPC   C1B20875   4.918   1.796   8.555
 7003POPC   C2B20876   4.870   1.809   8.255
 7003POPC   C3B20877   4.870   1.827   7.955
 7003POPC   C4B20878   4.889   1.805   7.655
 7004POPC   NC320879  38.436  43.898   9.455
 7004POPC   PO420880  38.496  43.850   9.155
 7004POPC   GL120881  38.408  43.925   8.855
 7004POPC   GL220882  38.573  43.789   8.855
 7004POPC   C1A20883  38.460  43.904   8.555
 7004POPC   D2A20884  38.434  43.869   8.255
 7004POPC   C3A20885  38.495  43.862   7.955
 7004POPC   C4A20886  38.407  43.926   7.655
 7004POPC   C1B20887  38.626  43.673   8.555
 7004POPC   C2B20888  38.580  43.674   8.255
 7004POPC   C3B20889  38.553  43.661   7.955
 7004POPC   C4B20890  38.544  43.629   7.655
 7005POPC   NC320891  29.907   1.248   9.455
 7005POPC   PO420892  29.931   1.244   9.155
 7005POPC   GL120893  29.946   1.170   8.855
 7005POPC   GL220894  29.791   1.114   8.855
 7005POPC   C1A20895  29.940   1.227   8.555
 7005POPC   D2A20896  29.883   1.188   8.255
 7005POPC   C3A20897  29.871   1.245   7.955
 7005POPC   C4A20898  29.924   1.254   7.655
 7005POPC   C1B20899  29.751   1.097   8.555
 7005POPC   C2B20900  29.698   1.039   8.255
 7005POPC   C3B20901  29.662   1.117   7.955
 7005POPC   C4B20902  29.744   1.039   7.655
 7006POPC   NC320903  25.229  19.013   9.455
 7006POPC   PO420904  25.245  19.056   9.155
 7006POPC   GL120905  25.238  19.097   8.855
 7006POPC   GL220906  25.365  19.045   8.855
 7006POPC   C1A20907  25.297  19.105   8.555
 7006POPC   D2A20908  25.224  19.042   8.255
 7006POPC   C3A20909  25.297  19.037   7.955
 7006POPC   C4A20910  25.294  19.022   7.655
 7006POPC   C1B20911  25.502  19.073   8.555
 7006POPC   C2B20912  25.533  19.079   8.255
 7006POPC   C3B20913  25.469  19.134   7.955
 7006POPC   C4B20914  25.472  19.084   7.655
 7007POPC   NC320915   9.730  24.481   9.455
 7007POPC   PO420916   9.702  24.476   9.155
 7007POPC   GL120917   9.709  24.495   8.855
 7007POPC   GL220918   9.799  24.423   8.855
 7007POPC   C1A20919   9.741  24.473   8.555
 7007POPC   D2A20920   9.791  24.497   8.255
 7007POPC   C3A20921   9.792  24.466   7.955
 7007POPC   C4A20922   9.718  24.486   7.655
 7007POPC   C1B20923   9.965  24.351   8.555
 7007POPC   C2B20924   9.962  24.284   8.255
 7007POPC   C3B20925   9.900  24.342   7.955
 7007POPC   C4B20926   9.943  24.356   7.655
 7008POPC   NC320927  19.811  15.172   9.455
 7008POPC   PO420928  19.853  15.185   9.155
 7008POPC   GL120929  19.799  15.157   8.855
 7008POPC   GL220930  19.745  15.278   8.855
 7008POPC   C1A20931  19.875  15.224   8.555
 7008POPC   D2A20932  19.796  15.211   8.255
 7008POPC   C3A20933  19.875  15.201   7.955
 7008POPC   C4A20934  19.811  15.183   7.655
 7008POPC   C1B20935  19.625  15.340   8.555
 7008POPC   C2B20936  19.634  15.393   8.255
 7008POPC   C3B20937  19.653  15.352   7.955
 7008POPC   C4B20938  19.658  15.330   7.655
 7009POPC   NC320939   6.617  22.888   9.455
 7009POPC   PO420940   6.618  22.907   9.155
 7009POPC   GL120941   6.604  22.922   8.855
 7009POPC   GL220942   6.746  22.927   8.855
 7009POPC   C1A20943   6.671  22.907   8.555
 7009POPC   D2A20944   6.669  22.968   8.255
 7009POPC   C3A20945   6.652  22.906   7.955
 7009POPC   C4A20946   6.670  22.911   7.655
 7009POPC   C1B20947   6.932  23.007   8.555
 7009POPC   C2B20948   6.896  23.060   8.255
 7009POPC   C3B20949   6.932  22.996   7.955
 7009POPC   C4B20950   6.896  23.007   7.655
 7010POPC   NC320951  36.875  17.487   9.455
 7010POPC   PO420952  36.935  17.471   9.155
 7010POPC   GL120953  36.903  17.474   8.855
 7010POPC   GL220954  36.808  17.412   8.855
 7010POPC   C1A20955  36.920  17.519   8.555
 7010POPC   D2A20956  36.854  17.543   8.255
 7010POPC   C3A20957  36.866  17.543   7.955
 7010POPC   C4A20958  36.890  17.521   7.655
 7010POPC   C1B20959  36.730  17.319   8.555
 7010POPC   C2B20960  36.686  17.358   8.255
 7010POPC   C3B20961  36.708  17.373   7.955
 7010POPC   C4B20962  36.681  17.329   7.655
 7011POPC   NC320963  21.341   5.082   9.455
 7011POPC   PO420964  21.371   5.085   9.155
 7011POPC   GL120965  21.424   5.088   8.855
 7011POPC   GL220966  21.459   4.939   8.855
 7011POPC   C1A20967  21.353   5.054   8.555
 7011POPC   D2A20968  21.338   5.052   8.255
 7011POPC   C3A20969  21.427   5.069   7.955
 7011POPC   C4A20970  21.425   5.102   7.655
 7011POPC   C1B20971  21.431   4.821   8.555
 7011POPC   C2B20972  21.437   4.837   8.255
 7011POPC   C3B20973  21.399   4.885   7.955
 7011POPC   C4B20974  21.403   4.830   7.655
 7012POPC   NC320975   6.625  16.740   9.455
 7012POPC   PO420976   6.614  16.741   9.155
 7012POPC   GL120977   6.639  16.691   8.855
 7012POPC   GL220978   6.655  16.811   8.855
 7012POPC   C1A20979   6.652  16.750   8.555
 7012POPC   D2A20980   6.609  16.730   8.255
 7012POPC   C3A20981   6.625  16.736   7.955
 7012POPC   C4A20982   6.680  16.729   7.655
 7012POPC   C1B20983   6.705  16.960   8.555
 7012POPC   C2B20984   6.630  16.968   8.255
 7012POPC   C3B20985   6.674  16.971   7.955
 7012POPC   C4B20986   6.627  17.014   7.655
 7013POPC   NC320987  40.055   5.861   9.455
 7013POPC   PO420988  39.984   5.885   9.155
 7013POPC   GL120989  40.017   5.877   8.855
 7013POPC   GL220990  40.141   5.874   8.855
 7013POPC   C1A20991  40.040   5.899   8.555
 7013POPC   D2A20992  40.032   5.840   8.255
 7013POPC   C3A20993  39.990   5.819   7.955
 7013POPC   C4A20994  40.021   5.884   7.655
 7013POPC   C1B20995  40.225   5.917   8.555
 7013POPC   C2B20996  40.242   5.925   8.255
 7013POPC   C3B20997  40.260   5.884   7.955
 7013POPC   C4B20998  40.213   5.932   7.655
 7014POPC   NC320999  34.550  20.652   9.455
 7014POPC   PO421000  34.529  20.566   9.155
 7014POPC   GL121001  34.623  20.632   8.855
 7014POPC   GL221002  34.571  20.511   8.855
 7014POPC   C1A21003  34.566  20.648   8.555
 7014POPC   D2A21004  34.549  20.652   8.255
 7014POPC   C3A21005  34.619  20.608   7.955
 7014POPC   C4A21006  34.573  20.597   7.655
 7014POPC   C1B21007  34.566  20.368   8.555
 7014POPC   C2B21008  34.549  20.352   8.255
 7014POPC   C3B21009  34.527  20.350   7.955
 7014POPC   C4B21010  34.525  20.326   7.655
 7015POPC   NC321011  42.309  17.516   9.455
 7015POPC   PO421012  42.297  17.494   9.155
 7015POPC   GL121013  42.292  17.457   8.855
 7015POPC   GL221014  42.442  17.421   8.855
 7015POPC   C1A21015  42.352  17.523   8.555
 7015POPC   D2A21016  42.327  17.549   8.255
 7015POPC   C3A21017  42.382  17.527   7.955
 7015POPC   C4A21018  42.362  17.465   7.655
 7015POPC   C1B21019  42.610  17.446   8.555
 7015POPC   C2B21020  42.563  17.371   8.255
 7015POPC   C3B21021  42.524  17.401   7.955
 7015POPC   C4B21022  42.567  17.378   7.655
 7016POPC   NC321023  33.756  27.558   9.455
 7016POPC   PO421024  33.846  27.551   9.155
 7016POPC   GL121025  33.829  27.592   8.855
 7016POPC   GL221026  33.930  27.525   8.855
 7016POPC   C1A21027  33.770  27.637   8.555
 7016POPC   D2A21028  33.821  27.616   8.255
 7016POPC   C3A21029  33.842  27.552   7.955
 7016POPC   C4A21030  33.817  27.629   7.655
 7016POPC   C1B21031  34.065  27.482   8.555
 7016POPC   C2B21032  34.017  27.436   8.255
 7016POPC   C3B21033  34.008  27.518   7.955
 7016POPC   C4B21034  34.041  27.517   7.655
 7017POPC   NC321035   7.428  26.776   9.455
 7017POPC   PO421036   7.384  26.771   9.155
 7017POPC   GL121037   7.406  26.809   8.855
 7017POPC   GL221038   7.562  26.846   8.855
 7017POPC   C1A21039   7.445  26.839   8.555
 7017POPC   D2A21040   7.394  26.800   8.255
 7017POPC   C3A21041   7.445  26.777   7.955
 7017POPC   C4A21042   7.434  26.797   7.655
 7017POPC   C1B21043   7.640  26.793   8.555
 7017POPC   C2B21044   7.714  26.738   8.255
 7017POPC   C3B21045   7.702  26.793   7.955
 7017POPC   C4B21046   7.682  26.825   7.655
 7018POPC   NC321047  31.477   5.080   9.455
 7018POPC   PO421048  31.435   5.126   9.155
 7018POPC   GL121049  31.446   5.140   8.855
 7018POPC   GL221050  31.329   5.148   8.855
 7018POPC   C1A21051  31.507   5.117   8.555
 7018POPC   D2A21052  31.428   5.075   8.255
 7018POPC   C3A21053  31.503   5.062   7.955
 7018POPC   C4A21054  31.465   5.106   7.655
 7018POPC   C1B21055  31.258   5.265   8.555
 7018POPC   C2B21056  31.311   5.251   8.255
 7018POPC   C3B21057  31.295   5.214   7.955
 7018POPC   C4B21058  31.276   5.231   7.655
 7019POPC   NC321059  26.815  12.867   9.455
 7019POPC   PO421060  26.810  12.856   9.155
 7019POPC   GL121061  26.792  12.854   8.855
 7019POPC   GL221062  26.945  12.801   8.855
 7019POPC   C1A21063  26.795  12.808   8.555
 7019POPC   D2A21064  26.822  12.897   8.255
 7019POPC   C3A21065  26.800  12.869   7.955
 7019POPC   C4A21066  26.811  12.860   7.655
 7019POPC   C1B21067  27.033  12.876   8.555
 7019POPC   C2B21068  27.103  12.816   8.255
 7019POPC   C3B21069  27.111  12.812   7.955
 7019POPC   C4B21070  27.103  12.803   7.655
 7020POPC   NC321071   1.971  15.227   9.455
 7020POPC   PO421072   1.985  15.169   9.155
 7020POPC   GL121073   1.964  15.199   8.855
 7020POPC   GL221074   2.089  15.183   8.855
 7020POPC   C1A21075   2.026  15.220   8.555
 7020POPC   D2A21076   2.026  15.208   8.255
 7020POPC   C3A21077   2.005  15.186   7.955
 7020POPC   C4A21078   2.027  15.202   7.655
 7020POPC   C1B21079   2.195  15.223   8.555
 7020POPC   C2B21080   2.212  15.212   8.255
 7020POPC   C3B21081   2.261  15.204   7.955
 7020POPC   C4B21082   2.251  15.210   7.655
 7021POPC   NC321083  34.588   2.815   9.455
 7021POPC   PO421084  34.614   2.781   9.155
 7021POPC   GL121085  34.606   2.794   8.855
 7021POPC   GL221086  34.493   2.705   8.855
 7021POPC   C1A21087  34.573   2.790   8.555
 7021POPC   D2A21088  34.591   2.803   8.255
 7021POPC   C3A21089  34.540   2.716   7.955
 7021POPC   C4A21090  34.536   2.759   7.655
 7021POPC   C1B21091  34.332   2.611   8.555
 7021POPC   C2B21092  34.418   2.576   8.255
 7021POPC   C3B21093  34.383   2.613   7.955
 7021POPC   C4B21094  34.400   2.613   7.655
 7022POPC   NC321095  13.618  29.162   9.455
 7022POPC   PO421096  13.664  29.161   9.155
 7022POPC   GL121097  13.599  29.154   8.855
 7022POPC   GL221098  13.596  29.039   8.855
 7022POPC   C1A21099  13.642  29.173   8.555
 7022POPC   D2A21100  13.582  29.180   8.255
 7022POPC   C3A21101  13.623  29.138   7.955
 7022POPC   C4A21102  13.589  29.183   7.655
 7022POPC   C1B21103  13.502  28.947   8.555
 7022POPC   C2B21104  13.574  28.946   8.255
 7022POPC   C3B21105  13.560  28.895   7.955
 7022POPC   C4B21106  13.521  28.918   7.655
 7023POPC   NC321107   2.743  44.709   9.455
 7023POPC   PO421108   2.737  44.617   9.155
 7023POPC   GL121109   2.810  44.680   8.855
 7023POPC   GL221110   2.858  44.556   8.855
 7023POPC   C1A21111   2.758  44.671   8.555
 7023POPC   D2A21112   2.741  44.629   8.255
 7023POPC   C3A21113   2.748  44.659   7.955
 7023POPC   C4A21114   2.735  44.630   7.655
 7023POPC   C1B21115   2.887  44.434   8.555
 7023POPC   C2B21116   2.955  44.507   8.255
 7023POPC   C3B21117   2.885  44.504   7.955
 7023POPC   C4B21118   2.907  44.493   7.655
 7024POPC   NC321119  17.500  43.063   9.455
 7024POPC   PO421120  17.488  43.105   9.155
 7024POPC   GL121121  17.532  43.063   8.855
 7024POPC   GL221122  17.477  42.951   8.855
 7024POPC   C1A21123  17.501  43.129   8.555
 7024POPC   D2A21124  17.495  43.068   8.255
 7024POPC   C3A21125  17.543  43.133   7.955
 7024POPC   C4A21126  17.547  43.129   7.655
 7024POPC   C1B21127  17.504  42.857   8.555
 7024POPC   C2B21128  17.501  42.826   8.255
 7024POPC   C3B21129  17.503  42.882   7.955
 7024POPC   C4B21130  17.470  42.908   7.655
 7025POPC   NC321131  33.061  21.365   9.455
 7025POPC   PO421132  32.997  21.366   9.155
 7025POPC   GL121133  33.048  21.406   8.855
 7025POPC   GL221134  32.941  21.500   8.855
 7025POPC   C1A21135  33.027  21.381   8.555
 7025POPC   D2A21136  32.983  21.350   8.255
 7025POPC   C3A21137  33.052  21.428   7.955
 7025POPC   C4A21138  33.068  21.412   7.655
 7025POPC   C1B21139  32.857  21.530   8.555
 7025POPC   C2B21140  32.850  21.583   8.255
 7025POPC   C3B21141  32.827  21.566   7.955
 7025POPC   C4B21142  32.877  21.577   7.655
 7026POPC   NC321143  16.754  34.583   9.455
 7026POPC   PO421144  16.781  34.617   9.155
 7026POPC   GL121145  16.687  34.571   8.855
 7026POPC   GL221146  16.722  34.484   8.855
 7026POPC   C1A21147  16.703  34.600   8.555
 7026POPC   D2A21148  16.731  34.550   8.255
 7026POPC   C3A21149  16.758  34.623   7.955
 7026POPC   C4A21150  16.752  34.590   7.655
 7026POPC   C1B21151  16.683  34.387   8.555
 7026POPC   C2B21152  16.658  34.374   8.255
 7026POPC   C3B21153  16.616  34.391   7.955
 7026POPC   C4B21154  16.669  34.392   7.655
 7027POPC   NC321155  29.925   5.919   9.455
 7027POPC   PO421156  29.914   5.822   9.155
 7027POPC   GL121157  29.906   5.901   8.855
 7027POPC   GL221158  29.986   5.970   8.855
 7027POPC   C1A21159  29.914   5.833   8.555
 7027POPC   D2A21160  29.911   5.827   8.255
 7027POPC   C3A21161  29.910   5.890   7.955
 7027POPC   C4A21162  29.930   5.848   7.655
 7027POPC   C1B21163  29.969   6.118   8.555
 7027POPC   C2B21164  29.928   6.142   8.255
 7027POPC   C3B21165  29.955   6.159   7.955
 7027POPC   C4B21166  29.939   6.066   7.655
 7028POPC   NC321167  28.354  39.966   9.455
 7028POPC   PO421168  28.393  40.000   9.155
 7028POPC   GL121169  28.346  40.047   8.855
 7028POPC   GL221170  28.260  40.056   8.855
 7028POPC   C1A21171  28.355  40.048   8.555
 7028POPC   D2A21172  28.341  40.002   8.255
 7028POPC   C3A21173  28.399  40.022   7.955
 7028POPC   C4A21174  28.403  39.989   7.655
 7028POPC   C1B21175  28.150  40.079   8.555
 7028POPC   C2B21176  28.112  40.106   8.255
 7028POPC   C3B21177  28.084  40.111   7.955
 7028POPC   C4B21178  28.161  40.043   7.655
 7029POPC   NC321179  43.904   0.394   9.455
 7029POPC   PO421180  43.885   0.468   9.155
 7029POPC   GL121181  43.903   0.448   8.855
 7029POPC   GL221182  43.730   0.463   8.855
 7029POPC   C1A21183  43.912   0.424   8.555
 7029POPC   D2A21184  43.911   0.480   8.255
 7029POPC   C3A21185  43.902   0.410   7.955
 7029POPC   C4A21186  43.933   0.447   7.655
 7029POPC   C1B21187  43.636   0.387   8.555
 7029POPC   C2B21188  43.611   0.399   8.255
 7029POPC   C3B21189  43.664   0.421   7.955
 7029POPC   C4B21190  43.658   0.367   7.655
 7030POPC   NC321191   7.394   5.064   9.455
 7030POPC   PO421192   7.409   5.086   9.155
 7030POPC   GL121193   7.393   5.088   8.855
 7030POPC   GL221194   7.509   5.059   8.855
 7030POPC   C1A21195   7.457   5.101   8.555
 7030POPC   D2A21196   7.401   5.080   8.255
 7030POPC   C3A21197   7.407   5.114   7.955
 7030POPC   C4A21198   7.400   5.105   7.655
 7030POPC   C1B21199   7.699   4.956   8.555
 7030POPC   C2B21200   7.615   4.991   8.255
 7030POPC   C3B21201   7.629   4.982   7.955
 7030POPC   C4B21202   7.669   4.984   7.655
 7031POPC   NC321203  10.508  25.274   9.455
 7031POPC   PO421204  10.495  25.290   9.155
 7031POPC   GL121205  10.553  25.310   8.855
 7031POPC   GL221206  10.418  25.395   8.855
 7031POPC   C1A21207  10.510  25.243   8.555
 7031POPC   D2A21208  10.549  25.314   8.255
 7031POPC   C3A21209  10.563  25.237   7.955
 7031POPC   C4A21210  10.552  25.253   7.655
 7031POPC   C1B21211  10.309  25.421   8.555
 7031POPC   C2B21212  10.322  25.456   8.255
 7031POPC   C3B21213  10.332  25.434   7.955
 7031POPC   C4B21214  10.380  25.486   7.655
 7032POPC   NC321215  39.987  43.855   9.455
 7032POPC   PO421216  39.996  43.909   9.155
 7032POPC   GL121217  39.959  43.926   8.855
 7032POPC   GL221218  40.118  43.971   8.855
 7032POPC   C1A21219  39.975  43.919   8.555
 7032POPC   D2A21220  40.038  43.924   8.255
 7032POPC   C3A21221  39.972  43.869   7.955
 7032POPC   C4A21222  39.983  43.867   7.655
 7032POPC   C1B21223  40.257  43.977   8.555
 7032POPC   C2B21224  40.225  43.964   8.255
 7032POPC   C3B21225  40.207  43.929   7.955
 7032POPC   C4B21226  40.284  43.969   7.655
 7033POPC   NC321227  42.351  16.735   9.455
 7033POPC   PO421228  42.359  16.697   9.155
 7033POPC   GL121229  42.367  16.703   8.855
 7033POPC   GL221230  42.216  16.735   8.855
 7033POPC   C1A21231  42.300  16.768   8.555
 7033POPC   D2A21232  42.375  16.764   8.255
 7033POPC   C3A21233  42.353  16.729   7.955
 7033POPC   C4A21234  42.346  16.699   7.655
 7033POPC   C1B21235  42.068  16.786   8.555
 7033POPC   C2B21236  42.117  16.784   8.255
 7033POPC   C3B21237  42.120  16.791   7.955
 7033POPC   C4B21238  42.076  16.826   7.655
 7034POPC   NC321239  43.877  28.339   9.455
 7034POPC   PO421240  43.863  28.343   9.155
 7034POPC   GL121241  43.853  28.398   8.855
 7034POPC   GL221242  43.993  28.351   8.855
 7034POPC   C1A21243  43.863  28.345   8.555
 7034POPC   D2A21244  43.883  28.356   8.255
 7034POPC   C3A21245  43.867  28.385   7.955
 7034POPC   C4A21246  43.884  28.346   7.655
 7034POPC   C1B21247  44.163  28.322   8.555
 7034POPC   C2B21248  44.109  28.319   8.255
 7034POPC   C3B21249  44.123  28.370   7.955
 7034POPC   C4B21250  44.181  28.376   7.655
 7035POPC   NC321251  40.777   1.210   9.455
 7035POPC   PO421252  40.803   1.175   9.155
 7035POPC   GL121253  40.734   1.204   8.855
 7035POPC   GL221254  40.955   1.251   8.855
 7035POPC   C1A21255  40.801   1.231   8.555
 7035POPC   D2A21256  40.744   1.190   8.255
 7035POPC   C3A21257  40.819   1.169   7.955
 7035POPC   C4A21258  40.792   1.221   7.655
 7035POPC   C1B21259  41.025   1.222   8.555
 7035POPC   C2B21260  41.036   1.236   8.255
 7035POPC   C3B21261  41.070   1.271   7.955
 7035POPC   C4B21262  41.007   1.241   7.655
 7036POPC   NC321263  32.231   3.543   9.455
 7036POPC   PO421264  32.283   3.514   9.155
 7036POPC   GL121265  32.232   3.501   8.855
 7036POPC   GL221266  32.164   3.508   8.855
 7036POPC   C1A21267  32.227   3.531   8.555
 7036POPC   D2A21268  32.242   3.495   8.255
 7036POPC   C3A21269  32.228   3.494   7.955
 7036POPC   C4A21270  32.247   3.590   7.655
 7036POPC   C1B21271  32.002   3.503   8.555
 7036POPC   C2B21272  31.956   3.508   8.255
 7036POPC   C3B21273  32.039   3.524   7.955
 7036POPC   C4B21274  31.983   3.468   7.655
 7037POPC   NC321275  19.813   4.335   9.455
 7037POPC   PO421276  19.809   4.317   9.155
 7037POPC   GL121277  19.833   4.272   8.855
 7037POPC   GL221278  19.752   4.375   8.855
 7037POPC   C1A21279  19.794   4.299   8.555
 7037POPC   D2A21280  19.841   4.332   8.255
 7037POPC   C3A21281  19.827   4.324   7.955
 7037POPC   C4A21282  19.793   4.367   7.655
 7037POPC   C1B21283  19.598   4.513   8.555
 7037POPC   C2B21284  19.651   4.481   8.255
 7037POPC   C3B21285  19.660   4.494   7.955
 7037POPC   C4B21286  19.621   4.499   7.655
 7038POPC   NC321287  42.322   2.801   9.455
 7038POPC   PO421288  42.313   2.766   9.155
 7038POPC   GL121289  42.309   2.736   8.855
 7038POPC   GL221290  42.409   2.799   8.855
 7038POPC   C1A21291  42.350   2.724   8.555
 7038POPC   D2A21292  42.357   2.779   8.255
 7038POPC   C3A21293  42.311   2.721   7.955
 7038POPC   C4A21294  42.338   2.813   7.655
 7038POPC   C1B21295  42.533   2.887   8.555
 7038POPC   C2B21296  42.525   2.903   8.255
 7038POPC   C3B21297  42.515   2.876   7.955
 7038POPC   C4B21298  42.513   2.923   7.655
 7039POPC   NC321299  43.123  26.012   9.455
 7039POPC   PO421300  43.141  26.025   9.155
 7039POPC   GL121301  43.154  26.053   8.855
 7039POPC   GL221302  43.196  26.102   8.855
 7039POPC   C1A21303  43.154  26.069   8.555
 7039POPC   D2A21304  43.103  26.047   8.255
 7039POPC   C3A21305  43.110  26.009   7.955
 7039POPC   C4A21306  43.099  26.029   7.655
 7039POPC   C1B21307  43.362  26.142   8.555
 7039POPC   C2B21308  43.293  26.181   8.255
 7039POPC   C3B21309  43.321  26.110   7.955
 7039POPC   C4B21310  43.371  26.168   7.655
 7040POPC   NC321311  12.812  25.269   9.455
 7040POPC   PO421312  12.869  25.277   9.155
 7040POPC   GL121313  12.848  25.289   8.855
 7040POPC   GL221314  12.800  25.116   8.855
 7040POPC   C1A21315  12.849  25.277   8.555
 7040POPC   D2A21316  12.869  25.290   8.255
 7040POPC   C3A21317  12.822  25.291   7.955
 7040POPC   C4A21318  12.868  25.216   7.655
 7040POPC   C1B21319  12.682  25.076   8.555
 7040POPC   C2B21320  12.707  25.084   8.255
 7040POPC   C3B21321  12.707  25.012   7.955
 7040POPC   C4B21322  12.681  25.092   7.655
 7041POPC   NC321323   5.060  37.667   9.455
 7041POPC   PO421324   5.115  37.641   9.155
 7041POPC   GL121325   5.046  37.699   8.855
 7041POPC   GL221326   5.043  37.583   8.855
 7041POPC   C1A21327   5.123  37.656   8.555
 7041POPC   D2A21328   5.085  37.721   8.255
 7041POPC   C3A21329   5.073  37.647   7.955
 7041POPC   C4A21330   5.056  37.652   7.655
 7041POPC   C1B21331   4.988  37.494   8.555
 7041POPC   C2B21332   4.936  37.503   8.255
 7041POPC   C3B21333   4.983  37.438   7.955
 7041POPC   C4B21334   4.993  37.439   7.655
 7042POPC   NC321335  32.262  23.701   9.455
 7042POPC   PO421336  32.271  23.761   9.155
 7042POPC   GL121337  32.283  23.747   8.855
 7042POPC   GL221338  32.362  23.819   8.855
 7042POPC   C1A21339  32.283  23.695   8.555
 7042POPC   D2A21340  32.271  23.693   8.255
 7042POPC   C3A21341  32.231  23.762   7.955
 7042POPC   C4A21342  32.210  23.693   7.655
 7042POPC   C1B21343  32.457  23.919   8.555
 7042POPC   C2B21344  32.394  23.850   8.255
 7042POPC   C3B21345  32.447  23.851   7.955
 7042POPC   C4B21346  32.432  23.917   7.655
 7043POPC   NC321347  27.597  42.350   9.455
 7043POPC   PO421348  27.544  42.372   9.155
 7043POPC   GL121349  27.622  42.337   8.855
 7043POPC   GL221350  27.431  42.411   8.855
 7043POPC   C1A21351  27.565  42.380   8.555
 7043POPC   D2A21352  27.626  42.334   8.255
 7043POPC   C3A21353  27.576  42.287   7.955
 7043POPC   C4A21354  27.551  42.301   7.655
 7043POPC   C1B21355  27.400  42.417   8.555
 7043POPC   C2B21356  27.375  42.408   8.255
 7043POPC   C3B21357  27.412  42.434   7.955
 7043POPC   C4B21358  27.385  42.404   7.655
 7044POPC   NC321359   1.994  41.529   9.455
 7044POPC   PO421360   1.953  41.567   9.155
 7044POPC   GL121361   2.018  41.520   8.855
 7044POPC   GL221362   1.844  41.560   8.855
 7044POPC   C1A21363   1.971  41.590   8.555
 7044POPC   D2A21364   2.013  41.597   8.255
 7044POPC   C3A21365   2.019  41.535   7.955
 7044POPC   C4A21366   1.945  41.584   7.655
 7044POPC   C1B21367   1.746  41.551   8.555
 7044POPC   C2B21368   1.762  41.511   8.255
 7044POPC   C3B21369   1.749  41.574   7.955
 7044POPC   C4B21370   1.777  41.528   7.655
 7045POPC   NC321371   1.973  30.699   9.455
 7045POPC   PO421372   2.035  30.725   9.155
 7045POPC   GL121373   2.005  30.660   8.855
 7045POPC   GL221374   1.971  30.786   8.855
 7045POPC   C1A21375   2.034  30.723   8.555
 7045POPC   D2A21376   1.970  30.701   8.255
 7045POPC   C3A21377   2.019  30.718   7.955
 7045POPC   C4A21378   2.003  30.714   7.655
 7045POPC   C1B21379   1.829  30.904   8.555
 7045POPC   C2B21380   1.870  30.908   8.255
 7045POPC   C3B21381   1.898  30.860   7.955
 7045POPC   C4B21382   1.895  30.921   7.655
 7046POPC   NC321383  36.871  16.706   9.455
 7046POPC   PO421384  36.872  16.745   9.155
 7046POPC   GL121385  36.863  16.740   8.855
 7046POPC   GL221386  36.794  16.817   8.855
 7046POPC   C1A21387  36.921  16.749   8.555
 7046POPC   D2A21388  36.914  16.716   8.255
 7046POPC   C3A21389  36.885  16.739   7.955
 7046POPC   C4A21390  36.913  16.779   7.655
 7046POPC   C1B21391  36.683  16.804   8.555
 7046POPC   C2B21392  36.663  16.790   8.255
 7046POPC   C3B21393  36.707  16.818   7.955
 7046POPC   C4B21394  36.632  16.794   7.655
 7047POPC   NC321395  35.397  19.071   9.455
 7047POPC   PO421396  35.400  19.021   9.155
 7047POPC   GL121397  35.339  19.038   8.855
 7047POPC   GL221398  35.501  19.061   8.855
 7047POPC   C1A21399  35.306  19.046   8.555
 7047POPC   D2A21400  35.345  19.043   8.255
 7047POPC   C3A21401  35.324  19.105   7.955
 7047POPC   C4A21402  35.386  19.029   7.655
 7047POPC   C1B21403  35.569  19.074   8.555
 7047POPC   C2B21404  35.637  19.087   8.255
 7047POPC   C3B21405  35.636  19.098   7.955
 7047POPC   C4B21406  35.561  19.111   7.655
 7048POPC   NC321407  39.200   5.085   9.455
 7048POPC   PO421408  39.264   5.074   9.155
 7048POPC   GL121409  39.195   5.055   8.855
 7048POPC   GL221410  39.222   4.943   8.855
 7048POPC   C1A21411  39.253   5.067   8.555
 7048POPC   D2A21412  39.273   5.063   8.255
 7048POPC   C3A21413  39.196   5.079   7.955
 7048POPC   C4A21414  39.209   5.055   7.655
 7048POPC   C1B21415  39.277   4.827   8.555
 7048POPC   C2B21416  39.253   4.812   8.255
 7048POPC   C3B21417  39.241   4.834   7.955
 7048POPC   C4B21418  39.264   4.894   7.655
 7049POPC   NC321419  32.224  31.432   9.455
 7049POPC   PO421420  32.254  31.425   9.155
 7049POPC   GL121421  32.230  31.512   8.855
 7049POPC   GL221422  32.258  31.549   8.855
 7049POPC   C1A21423  32.205  31.503   8.555
 7049POPC   D2A21424  32.270  31.476   8.255
 7049POPC   C3A21425  32.261  31.504   7.955
 7049POPC   C4A21426  32.274  31.428   7.655
 7049POPC   C1B21427  32.328  31.677   8.555
 7049POPC   C2B21428  32.308  31.769   8.255
 7049POPC   C3B21429  32.300  31.714   7.955
 7049POPC   C4B21430  32.326  31.750   7.655
 7050POPC   NC321431   1.960  29.937   9.455
 7050POPC   PO421432   1.964  29.902   9.155
 7050POPC   GL121433   1.959  29.930   8.855
 7050POPC   GL221434   1.911  29.876   8.855
 7050POPC   C1A21435   1.997  29.948   8.555
 7050POPC   D2A21436   2.003  29.945   8.255
 7050POPC   C3A21437   2.016  29.951   7.955
 7050POPC   C4A21438   1.991  29.877   7.655
 7050POPC   C1B21439   1.757  29.894   8.555
 7050POPC   C2B21440   1.783  29.899   8.255
 7050POPC   C3B21441   1.764  29.897   7.955
 7050POPC   C4B21442   1.757  29.958   7.655
 7051POPC   NC321443  24.477  42.285   9.455
 7051POPC   PO421444  24.479  42.325   9.155
 7051POPC   GL121445  24.494  42.351   8.855
 7051POPC   GL221446  24.367  42.360   8.855
 7051POPC   C1A21447  24.465  42.302   8.555
 7051POPC   D2A21448  24.448  42.309   8.255
 7051POPC   C3A21449  24.477  42.344   7.955
 7051POPC   C4A21450  24.499  42.373   7.655
 7051POPC   C1B21451  24.247  42.423   8.555
 7051POPC   C2B21452  24.300  42.411   8.255
 7051POPC   C3B21453  24.248  42.415   7.955
 7051POPC   C4B21454  24.301  42.443   7.655
 7052POPC   NC321455   1.976  37.664   9.455
 7052POPC   PO421456   1.989  37.653   9.155
 7052POPC   GL121457   1.969  37.703   8.855
 7052POPC   GL221458   2.072  37.795   8.855
 7052POPC   C1A21459   2.003  37.642   8.555
 7052POPC   D2A21460   2.010  37.695   8.255
 7052POPC   C3A21461   1.952  37.666   7.955
 7052POPC   C4A21462   2.026  37.698   7.655
 7052POPC   C1B21463   2.163  37.878   8.555
 7052POPC   C2B21464   2.113  37.877   8.255
 7052POPC   C3B21465   2.138  37.891   7.955
 7052POPC   C4B21466   2.193  37.835   7.655
 7053POPC   NC321467  23.664  29.895   9.455
 7053POPC   PO421468  23.692  29.948   9.155
 7053POPC   GL121469  23.723  29.886   8.855
 7053POPC   GL221470  23.764  29.767   8.855
 7053POPC   C1A21471  23.732  29.901   8.555
 7053POPC   D2A21472  23.752  29.912   8.255
 7053POPC   C3A21473  23.709  29.878   7.955
 7053POPC   C4A21474  23.708  29.876   7.655
 7053POPC   C1B21475  23.719  29.630   8.555
 7053POPC   C2B21476  23.801  29.644   8.255
 7053POPC   C3B21477  23.782  29.647   7.955
 7053POPC   C4B21478  23.713  29.682   7.655
 7054POPC   NC321479  44.650   0.484   9.455
 7054POPC   PO421480  44.681   0.426   9.155
 7054POPC   GL121481  44.689   0.414   8.855
 7054POPC   GL221482  44.517   0.386   8.855
 7054POPC   C1A21483  44.700   0.438   8.555
 7054POPC   D2A21484  44.667   0.448   8.255
 7054POPC   C3A21485  44.709   0.411   7.955
 7054POPC   C4A21486  44.663   0.393   7.655
 7054POPC   C1B21487  44.395   0.354   8.555
 7054POPC   C2B21488  44.465   0.347   8.255
 7054POPC   C3B21489  44.483   0.303   7.955
 7054POPC   C4B21490  44.437   0.377   7.655
 7055POPC   NC321491   2.002   5.132   9.455
 7055POPC   PO421492   1.981   5.085   9.155
 7055POPC   GL121493   2.022   5.132   8.855
 7055POPC   GL221494   2.130   5.057   8.855
 7055POPC   C1A21495   1.990   5.116   8.555
 7055POPC   D2A21496   1.991   5.136   8.255
 7055POPC   C3A21497   2.030   5.091   7.955
 7055POPC   C4A21498   1.985   5.079   7.655
 7055POPC   C1B21499   2.265   5.119   8.555
 7055POPC   C2B21500   2.192   5.060   8.255
 7055POPC   C3B21501   2.237   5.103   7.955
 7055POPC   C4B21502   2.279   5.100   7.655
 7056POPC   NC321503  16.763  42.367   9.455
 7056POPC   PO421504  16.712  42.359   9.155
 7056POPC   GL121505  16.682  42.310   8.855
 7056POPC   GL221506  16.695  42.226   8.855
 7056POPC   C1A21507  16.704  42.289   8.555
 7056POPC   D2A21508  16.743  42.320   8.255
 7056POPC   C3A21509  16.697  42.323   7.955
 7056POPC   C4A21510  16.774  42.355   7.655
 7056POPC   C1B21511  16.608  42.114   8.555
 7056POPC   C2B21512  16.642  42.110   8.255
 7056POPC   C3B21513  16.653  42.142   7.955
 7056POPC   C4B21514  16.623  42.073   7.655
 7057POPC   NC321515   5.113  44.710   9.455
 7057POPC   PO421516   5.117  44.627   9.155
 7057POPC   GL121517   5.132  44.689   8.855
 7057POPC   GL221518   5.028  44.779   8.855
 7057POPC   C1A21519   5.107  44.688   8.555
 7057POPC   D2A21520   5.105  44.659   8.255
 7057POPC   C3A21521   5.125  44.618   7.955
 7057POPC   C4A21522   5.057  44.680   7.655
 7057POPC   C1B21523   4.888  44.807   8.555
 7057POPC   C2B21524   4.843  44.752   8.255
 7057POPC   C3B21525   4.880  44.839   7.955
 7057POPC   C4B21526   4.873  44.836   7.655
 7058POPC   NC321527   7.449   4.331   9.455
 7058POPC   PO421528   7.421   4.308   9.155
 7058POPC   GL121529   7.389   4.323   8.855
 7058POPC   GL221530   7.591   4.357   8.855
 7058POPC   C1A21531   7.386   4.274   8.555
 7058POPC   D2A21532   7.393   4.296   8.255
 7058POPC   C3A21533   7.407   4.339   7.955
 7058POPC   C4A21534   7.398   4.349   7.655
 7058POPC   C1B21535   7.708   4.286   8.555
 7058POPC   C2B21536   7.677   4.281   8.255
 7058POPC   C3B21537   7.651   4.286   7.955
 7058POPC   C4B21538   7.677   4.294   7.655
 7059POPC   NC321539   5.124  19.852   9.455
 7059POPC   PO421540   5.127  19.865   9.155
 7059POPC   GL121541   5.127  19.810   8.855
 7059POPC   GL221542   4.924  19.856   8.855
 7059POPC   C1A21543   5.115  19.832   8.555
 7059POPC   D2A21544   5.143  19.816   8.255
 7059POPC   C3A21545   5.101  19.833   7.955
 7059POPC   C4A21546   5.141  19.826   7.655
 7059POPC   C1B21547   4.877  19.894   8.555
 7059POPC   C2B21548   4.845  19.940   8.255
 7059POPC   C3B21549   4.857  19.935   7.955
 7059POPC   C4B21550   4.818  19.863   7.655
 7060POPC   NC321551  22.155  16.682   9.455
 7060POPC   PO421552  22.169  16.685   9.155
 7060POPC   GL121553  22.153  16.738   8.855
 7060POPC   GL221554  22.231  16.770   8.855
 7060POPC   C1A21555  22.185  16.704   8.555
 7060POPC   D2A21556  22.206  16.699   8.255
 7060POPC   C3A21557  22.119  16.731   7.955
 7060POPC   C4A21558  22.207  16.727   7.655
 7060POPC   C1B21559  22.395  16.825   8.555
 7060POPC   C2B21560  22.366  16.896   8.255
 7060POPC   C3B21561  22.402  16.813   7.955
 7060POPC   C4B21562  22.357  16.886   7.655
 7061POPC   NC321563  37.697  29.114   9.455
 7061POPC   PO421564  37.722  29.096   9.155
 7061POPC   GL121565  37.690  29.194   8.855
 7061POPC   GL221566  37.642  29.008   8.855
 7061POPC   C1A21567  37.633  29.167   8.555
 7061POPC   D2A21568  37.691  29.104   8.255
 7061POPC   C3A21569  37.684  29.109   7.955
 7061POPC   C4A21570  37.710  29.131   7.655
 7061POPC   C1B21571  37.631  28.935   8.555
 7061POPC   C2B21572  37.588  28.901   8.255
 7061POPC   C3B21573  37.660  28.913   7.955
 7061POPC   C4B21574  37.629  28.944   7.655
 7062POPC   NC321575  20.652  39.197   9.455
 7062POPC   PO421576  20.588  39.253   9.155
 7062POPC   GL121577  20.588  39.234   8.855
 7062POPC   GL221578  20.545  39.125   8.855
 7062POPC   C1A21579  20.594  39.220   8.555
 7062POPC   D2A21580  20.603  39.198   8.255
 7062POPC   C3A21581  20.569  39.262   7.955
 7062POPC   C4A21582  20.570  39.182   7.655
 7062POPC   C1B21583  20.363  39.101   8.555
 7062POPC   C2B21584  20.351  39.091   8.255
 7062POPC   C3B21585  20.373  39.133   7.955
 7062POPC   C4B21586  20.383  39.108   7.655
 7063POPC   NC321587  26.775   3.499   9.455
 7063POPC   PO421588  26.844   3.504   9.155
 7063POPC   GL121589  26.816   3.556   8.855
 7063POPC   GL221590  26.679   3.565   8.855
 7063POPC   C1A21591  26.860   3.571   8.555
 7063POPC   D2A21592  26.865   3.533   8.255
 7063POPC   C3A21593  26.811   3.557   7.955
 7063POPC   C4A21594  26.857   3.545   7.655
 7063POPC   C1B21595  26.610   3.453   8.555
 7063POPC   C2B21596  26.527   3.460   8.255
 7063POPC   C3B21597  26.614   3.516   7.955
 7063POPC   C4B21598  26.543   3.480   7.655
 7064POPC   NC321599  43.934  44.680   9.455
 7064POPC   PO421600  43.847  44.694   9.155
 7064POPC   GL121601  43.857  44.617   8.855
 7064POPC   GL221602  44.016  44.677   8.855
 7064POPC   C1A21603  43.919  44.699   8.555
 7064POPC   D2A21604  43.865  44.633   8.255
 7064POPC   C3A21605  43.873  44.644   7.955
 7064POPC   C4A21606  43.871  44.706   7.655
 7064POPC   C1B21607  44.148  44.672   8.555
 7064POPC   C2B21608  44.098  44.584   8.255
 7064POPC   C3B21609  44.125  44.648   7.955
 7064POPC   C4B21610  44.119  44.596   7.655
 7065POPC   NC321611  39.971  24.463   9.455
 7065POPC   PO421612  39.985  24.469   9.155
 7065POPC   GL121613  39.991  24.528   8.855
 7065POPC   GL221614  40.070  24.580   8.855
 7065POPC   C1A21615  40.042  24.535   8.555
 7065POPC   D2A21616  39.970  24.468   8.255
 7065POPC   C3A21617  40.013  24.509   7.955
 7065POPC   C4A21618  39.990  24.506   7.655
 7065POPC   C1B21619  40.073  24.754   8.555
 7065POPC   C2B21620  40.123  24.771   8.255
 7065POPC   C3B21621  40.068  24.697   7.955
 7065POPC   C4B21622  40.108  24.764   7.655
 7066POPC   NC321623  30.746   1.235   9.455
 7066POPC   PO421624  30.736   1.237   9.155
 7066POPC   GL121625  30.666   1.207   8.855
 7066POPC   GL221626  30.659   1.139   8.855
 7066POPC   C1A21627  30.712   1.251   8.555
 7066POPC   D2A21628  30.685   1.220   8.255
 7066POPC   C3A21629  30.735   1.256   7.955
 7066POPC   C4A21630  30.686   1.246   7.655
 7066POPC   C1B21631  30.603   1.023   8.555
 7066POPC   C2B21632  30.590   0.987   8.255
 7066POPC   C3B21633  30.522   0.994   7.955
 7066POPC   C4B21634  30.597   1.011   7.655
 7067POPC   NC321635  15.208  38.495   9.455
 7067POPC   PO421636  15.147  38.479   9.155
 7067POPC   GL121637  15.178  38.421   8.855
 7067POPC   GL221638  15.091  38.439   8.855
 7067POPC   C1A21639  15.224  38.431   8.555
 7067POPC   D2A21640  15.196  38.408   8.255
 7067POPC   C3A21641  15.220  38.500   7.955
 7067POPC   C4A21642  15.225  38.486   7.655
 7067POPC   C1B21643  14.939  38.450   8.555
 7067POPC   C2B21644  14.899  38.432   8.255
 7067POPC   C3B21645  14.962  38.410   7.955
 7067POPC   C4B21646  14.965  38.509   7.655
 7068POPC   NC321647  30.690   8.991   9.455
 7068POPC   PO421648  30.677   8.970   9.155
 7068POPC   GL121649  30.692   8.943   8.855
 7068POPC   GL221650  30.692   9.126   8.855
 7068POPC   C1A21651  30.678   8.942   8.555
 7068POPC   D2A21652  30.721   8.956   8.255
 7068POPC   C3A21653  30.710   8.949   7.955
 7068POPC   C4A21654  30.681   9.015   7.655
 7068POPC   C1B21655  30.640   9.175   8.555
 7068POPC   C2B21656  30.624   9.211   8.255
 7068POPC   C3B21657  30.633   9.221   7.955
 7068POPC   C4B21658  30.615   9.221   7.655
 7069POPC   NC321659   4.339  43.120   9.455
 7069POPC   PO421660   4.307  43.157   9.155
 7069POPC   GL121661   4.319  43.112   8.855
 7069POPC   GL221662   4.313  43.199   8.855
 7069POPC   C1A21663   4.335  43.151   8.555
 7069POPC   D2A21664   4.295  43.140   8.255
 7069POPC   C3A21665   4.359  43.109   7.955
 7069POPC   C4A21666   4.335  43.064   7.655
 7069POPC   C1B21667   4.394  43.347   8.555
 7069POPC   C2B21668   4.413  43.386   8.255
 7069POPC   C3B21669   4.377  43.335   7.955
 7069POPC   C4B21670   4.353  43.352   7.655
 7070POPC   NC321671   0.471   2.773   9.455
 7070POPC   PO421672   0.403   2.793   9.155
 7070POPC   GL121673   0.418   2.725   8.855
 7070POPC   GL221674   0.316   2.856   8.855
 7070POPC   C1A21675   0.397   2.785   8.555
 7070POPC   D2A21676   0.468   2.722   8.255
 7070POPC   C3A21677   0.459   2.728   7.955
 7070POPC   C4A21678   0.455   2.746   7.655
 7070POPC   C1B21679   0.218   2.937   8.555
 7070POPC   C2B21680   0.275   2.886   8.255
 7070POPC   C3B21681   0.233   2.946   7.955
 7070POPC   C4B21682   0.268   2.963   7.655
 7071POPC   NC321683  21.389  44.615   9.455
 7071POPC   PO421684  21.337  44.680   9.155
 7071POPC   GL121685  21.400  44.612   8.855
 7071POPC   GL221686  21.538  44.625   8.855
 7071POPC   C1A21687  21.371  44.656   8.555
 7071POPC   D2A21688  21.421  44.641   8.255
 7071POPC   C3A21689  21.422  44.709   7.955
 7071POPC   C4A21690  21.379  44.629   7.655
 7071POPC   C1B21691  21.619  44.519   8.555
 7071POPC   C2B21692  21.581  44.506   8.255
 7071POPC   C3B21693  21.600  44.509   7.955
 7071POPC   C4B21694  21.616  44.505   7.655
 7072POPC   NC321695  16.744  38.417   9.455
 7072POPC   PO421696  16.696  38.478   9.155
 7072POPC   GL121697  16.697  38.420   8.855
 7072POPC   GL221698  16.827  38.389   8.855
 7072POPC   C1A21699  16.731  38.410   8.555
 7072POPC   D2A21700  16.716  38.483   8.255
 7072POPC   C3A21701  16.707  38.421   7.955
 7072POPC   C4A21702  16.706  38.488   7.655
 7072POPC   C1B21703  16.897  38.301   8.555
 7072POPC   C2B21704  16.870  38.256   8.255
 7072POPC   C3B21705  16.895  38.332   7.955
 7072POPC   C4B21706  16.929  38.259   7.655
 7073POPC   NC321707  44.662   7.385   9.455
 7073POPC   PO421708  44.654   7.435   9.155
 7073POPC   GL121709  44.688   7.418   8.855
 7073POPC   GL221710  44.747   7.441   8.855
 7073POPC   C1A21711  44.704   7.414   8.555
 7073POPC   D2A21712  44.647   7.398   8.255
 7073POPC   C3A21713  44.664   7.419   7.955
 7073POPC   C4A21714  44.688   7.407   7.655
 7073POPC   C1B21715  44.865   7.477   8.555
 7073POPC   C2B21716  44.866   7.509   8.255
 7073POPC   C3B21717  44.871   7.517   7.955
 7073POPC   C4B21718  44.857   7.470   7.655
 7074POPC   NC321719  19.063  10.561   9.455
 7074POPC   PO421720  19.015  10.544   9.155
 7074POPC   GL121721  19.059  10.571   8.855
 7074POPC   GL221722  19.190  10.510   8.855
 7074POPC   C1A21723  19.037  10.507   8.555
 7074POPC   D2A21724  19.093  10.503   8.255
 7074POPC   C3A21725  19.070  10.506   7.955
 7074POPC   C4A21726  19.076  10.500   7.655
 7074POPC   C1B21727  19.309  10.536   8.555
 7074POPC   C2B21728  19.357  10.503   8.255
 7074POPC   C3B21729  19.306  10.455   7.955
 7074POPC   C4B21730  19.294  10.464   7.655
 7075POPC   NC321731   3.542  35.382   9.455
 7075POPC   PO421732   3.585  35.374   9.155
 7075POPC   GL121733   3.587  35.398   8.855
 7075POPC   GL221734   3.468  35.274   8.855
 7075POPC   C1A21735   3.524  35.334   8.555
 7075POPC   D2A21736   3.532  35.370   8.255
 7075POPC   C3A21737   3.503  35.382   7.955
 7075POPC   C4A21738   3.492  35.313   7.655
 7075POPC   C1B21739   3.391  35.108   8.555
 7075POPC   C2B21740   3.412  35.134   8.255
 7075POPC   C3B21741   3.454  35.092   7.955
 7075POPC   C4B21742   3.395  35.163   7.655
 7076POPC   NC321743   9.016  38.410   9.455
 7076POPC   PO421744   9.008  38.419   9.155
 7076POPC   GL121745   8.949  38.414   8.855
 7076POPC   GL221746   8.936  38.541   8.855
 7076POPC   C1A21747   8.995  38.413   8.555
 7076POPC   D2A21748   8.942  38.418   8.255
 7076POPC   C3A21749   8.955  38.483   7.955
 7076POPC   C4A21750   8.968  38.420   7.655
 7076POPC   C1B21751   8.905  38.671   8.555
 7076POPC   C2B21752   8.912  38.698   8.255
 7076POPC   C3B21753   8.907  38.717   7.955
 7076POPC   C4B21754   8.915  38.711   7.655
 7077POPC   NC321755  31.470  24.469   9.455
 7077POPC   PO421756  31.500  24.453   9.155
 7077POPC   GL121757  31.462  24.498   8.855
 7077POPC   GL221758  31.523  24.602   8.855
 7077POPC   C1A21759  31.446  24.518   8.555
 7077POPC   D2A21760  31.473  24.518   8.255
 7077POPC   C3A21761  31.463  24.468   7.955
 7077POPC   C4A21762  31.482  24.529   7.655
 7077POPC   C1B21763  31.621  24.688   8.555
 7077POPC   C2B21764  31.599  24.753   8.255
 7077POPC   C3B21765  31.589  24.712   7.955
 7077POPC   C4B21766  31.547  24.683   7.655
 7078POPC   NC321767  33.773  34.553   9.455
 7078POPC   PO421768  33.769  34.548   9.155
 7078POPC   GL121769  33.817  34.528   8.855
 7078POPC   GL221770  33.788  34.672   8.855
 7078POPC   C1A21771  33.766  34.579   8.555
 7078POPC   D2A21772  33.843  34.563   8.255
 7078POPC   C3A21773  33.848  34.588   7.955
 7078POPC   C4A21774  33.847  34.546   7.655
 7078POPC   C1B21775  33.849  34.781   8.555
 7078POPC   C2B21776  33.843  34.788   8.255
 7078POPC   C3B21777  33.822  34.839   7.955
 7078POPC   C4B21778  33.855  34.796   7.655
 7079POPC   NC321779  29.192  27.555   9.455
 7079POPC   PO421780  29.133  27.622   9.155
 7079POPC   GL121781  29.099  27.607   8.855
 7079POPC   GL221782  29.076  27.504   8.855
 7079POPC   C1A21783  29.112  27.553   8.555
 7079POPC   D2A21784  29.172  27.574   8.255
 7079POPC   C3A21785  29.109  27.575   7.955
 7079POPC   C4A21786  29.098  27.594   7.655
 7079POPC   C1B21787  29.096  27.325   8.555
 7079POPC   C2B21788  29.083  27.350   8.255
 7079POPC   C3B21789  29.084  27.331   7.955
 7079POPC   C4B21790  29.144  27.353   7.655
 7080POPC   NC321791  28.383  39.237   9.455
 7080POPC   PO421792  28.399  39.268   9.155
 7080POPC   GL121793  28.339  39.202   8.855
 7080POPC   GL221794  28.202  39.221   8.855
 7080POPC   C1A21795  28.382  39.251   8.555
 7080POPC   D2A21796  28.414  39.274   8.255
 7080POPC   C3A21797  28.373  39.229   7.955
 7080POPC   C4A21798  28.350  39.208   7.655
 7080POPC   C1B21799  28.133  39.255   8.555
 7080POPC   C2B21800  28.109  39.200   8.255
 7080POPC   C3B21801  28.094  39.253   7.955
 7080POPC   C4B21802  28.077  39.171   7.655
 7081POPC   NC321803  34.584  18.296   9.455
 7081POPC   PO421804  34.576  18.282   9.155
 7081POPC   GL121805  34.534  18.273   8.855
 7081POPC   GL221806  34.693  18.192   8.855
 7081POPC   C1A21807  34.574  18.243   8.555
 7081POPC   D2A21808  34.553  18.289   8.255
 7081POPC   C3A21809  34.595  18.274   7.955
 7081POPC   C4A21810  34.600  18.293   7.655
 7081POPC   C1B21811  34.762  18.135   8.555
 7081POPC   C2B21812  34.801  18.139   8.255
 7081POPC   C3B21813  34.787  18.173   7.955
 7081POPC   C4B21814  34.844  18.179   7.655
 7082POPC   NC321815   5.870  22.953   9.455
 7082POPC   PO421816   5.840  22.945   9.155
 7082POPC   GL121817   5.905  22.941   8.855
 7082POPC   GL221818   5.918  22.879   8.855
 7082POPC   C1A21819   5.911  22.958   8.555
 7082POPC   D2A21820   5.826  22.892   8.255
 7082POPC   C3A21821   5.869  22.939   7.955
 7082POPC   C4A21822   5.908  22.960   7.655
 7082POPC   C1B21823   6.000  22.726   8.555
 7082POPC   C2B21824   5.968  22.702   8.255
 7082POPC   C3B21825   6.034  22.708   7.955
 7082POPC   C4B21826   5.972  22.686   7.655
 7083POPC   NC321827   2.768  29.119   9.455
 7083POPC   PO421828   2.802  29.103   9.155
 7083POPC   GL121829   2.812  29.096   8.855
 7083POPC   GL221830   2.738  29.059   8.855
 7083POPC   C1A21831   2.776  29.161   8.555
 7083POPC   D2A21832   2.811  29.182   8.255
 7083POPC   C3A21833   2.748  29.189   7.955
 7083POPC   C4A21834   2.771  29.140   7.655
 7083POPC   C1B21835   2.634  28.874   8.555
 7083POPC   C2B21836   2.654  28.909   8.255
 7083POPC   C3B21837   2.669  28.909   7.955
 7083POPC   C4B21838   2.634  28.889   7.655
 7084POPC   NC321839  11.265  42.316   9.455
 7084POPC   PO421840  11.297  42.366   9.155
 7084POPC   GL121841  11.264  42.374   8.855
 7084POPC   GL221842  11.281  42.432   8.855
 7084POPC   C1A21843  11.254  42.341   8.555
 7084POPC   D2A21844  11.334  42.307   8.255
 7084POPC   C3A21845  11.309  42.312   7.955
 7084POPC   C4A21846  11.339  42.345   7.655
 7084POPC   C1B21847  11.364  42.566   8.555
 7084POPC   C2B21848  11.394  42.616   8.255
 7084POPC   C3B21849  11.367  42.553   7.955
 7084POPC   C4B21850  11.346  42.575   7.655
 7085POPC   NC321851  18.235  25.270   9.455
 7085POPC   PO421852  18.307  25.229   9.155
 7085POPC   GL121853  18.264  25.297   8.855
 7085POPC   GL221854  18.259  25.111   8.855
 7085POPC   C1A21855  18.292  25.277   8.555
 7085POPC   D2A21856  18.270  25.237   8.255
 7085POPC   C3A21857  18.253  25.287   7.955
 7085POPC   C4A21858  18.320  25.227   7.655
 7085POPC   C1B21859  18.210  25.015   8.555
 7085POPC   C2B21860  18.296  24.996   8.255
 7085POPC   C3B21861  18.298  25.020   7.955
 7085POPC   C4B21862  18.251  25.003   7.655
 7086POPC   NC321863  26.840  15.976   9.455
 7086POPC   PO421864  26.771  15.907   9.155
 7086POPC   GL121865  26.861  15.949   8.855
 7086POPC   GL221866  26.738  15.820   8.855
 7086POPC   C1A21867  26.806  15.920   8.555
 7086POPC   D2A21868  26.774  15.953   8.255
 7086POPC   C3A21869  26.803  15.942   7.955
 7086POPC   C4A21870  26.840  15.941   7.655
 7086POPC   C1B21871  26.700  15.730   8.555
 7086POPC   C2B21872  26.634  15.764   8.255
 7086POPC   C3B21873  26.668  15.735   7.955
 7086POPC   C4B21874  26.655  15.795   7.655
 7087POPC   NC321875  38.469   8.192   9.455
 7087POPC   PO421876  38.502   8.195   9.155
 7087POPC   GL121877  38.443   8.183   8.855
 7087POPC   GL221878  38.282   8.208   8.855
 7087POPC   C1A21879  38.423   8.172   8.555
 7087POPC   D2A21880  38.413   8.166   8.255
 7087POPC   C3A21881  38.497   8.153   7.955
 7087POPC   C4A21882  38.483   8.233   7.655
 7087POPC   C1B21883  38.159   8.216   8.555
 7087POPC   C2B21884  38.195   8.205   8.255
 7087POPC   C3B21885  38.184   8.216   7.955
 7087POPC   C4B21886  38.237   8.198   7.655
 7088POPC   NC321887  15.174  41.517   9.455
 7088POPC   PO421888  15.160  41.566   9.155
 7088POPC   GL121889  15.171  41.607   8.855
 7088POPC   GL221890  15.059  41.526   8.855
 7088POPC   C1A21891  15.153  41.590   8.555
 7088POPC   D2A21892  15.203  41.604   8.255
 7088POPC   C3A21893  15.172  41.605   7.955
 7088POPC   C4A21894  15.208  41.580   7.655
 7088POPC   C1B21895  14.978  41.473   8.555
 7088POPC   C2B21896  14.928  41.511   8.255
 7088POPC   C3B21897  14.959  41.459   7.955
 7088POPC   C4B21898  14.914  41.541   7.655
 7089POPC   NC321899  33.848   4.304   9.455
 7089POPC   PO421900  33.759   4.290   9.155
 7089POPC   GL121901  33.846   4.319   8.855
 7089POPC   GL221902  33.889   4.399   8.855
 7089POPC   C1A21903  33.849   4.302   8.555
 7089POPC   D2A21904  33.829   4.279   8.255
 7089POPC   C3A21905  33.840   4.300   7.955
 7089POPC   C4A21906  33.837   4.280   7.655
 7089POPC   C1B21907  33.932   4.554   8.555
 7089POPC   C2B21908  33.928   4.565   8.255
 7089POPC   C3B21909  33.896   4.588   7.955
 7089POPC   C4B21910  33.938   4.573   7.655
 7090POPC   NC321911  26.783  39.978   9.455
 7090POPC   PO421912  26.823  39.961   9.155
 7090POPC   GL121913  26.791  39.994   8.855
 7090POPC   GL221914  26.864  39.888   8.855
 7090POPC   C1A21915  26.788  39.972   8.555
 7090POPC   D2A21916  26.843  40.033   8.255
 7090POPC   C3A21917  26.867  39.967   7.955
 7090POPC   C4A21918  26.771  39.977   7.655
 7090POPC   C1B21919  26.991  39.808   8.555
 7090POPC   C2B21920  26.965  39.806   8.255
 7090POPC   C3B21921  27.019  39.856   7.955
 7090POPC   C4B21922  26.977  39.810   7.655
 7091POPC   NC321923   4.364  12.876   9.455
 7091POPC   PO421924   4.320  12.859   9.155
 7091POPC   GL121925   4.357  12.855   8.855
 7091POPC   GL221926   4.214  12.738   8.855
 7091POPC   C1A21927   4.285  12.883   8.555
 7091POPC   D2A21928   4.306  12.860   8.255
 7091POPC   C3A21929   4.294  12.808   7.955
 7091POPC   C4A21930   4.326  12.860   7.655
 7091POPC   C1B21931   4.179  12.671   8.555
 7091POPC   C2B21932   4.087  12.723   8.255
 7091POPC   C3B21933   4.090  12.708   7.955
 7091POPC   C4B21934   4.091  12.635   7.655
 7092POPC   NC321935  43.907  41.532   9.455
 7092POPC   PO421936  43.864  41.579   9.155
 7092POPC   GL121937  43.922  41.582   8.855
 7092POPC   GL221938  43.815  41.414   8.855
 7092POPC   C1A21939  43.863  41.562   8.555
 7092POPC   D2A21940  43.907  41.543   8.255
 7092POPC   C3A21941  43.900  41.605   7.955
 7092POPC   C4A21942  43.845  41.584   7.655
 7092POPC   C1B21943  43.788  41.331   8.555
 7092POPC   C2B21944  43.784  41.353   8.255
 7092POPC   C3B21945  43.828  41.271   7.955
 7092POPC   C4B21946  43.772  41.279   7.655
 7093POPC   NC321947  17.479   7.379   9.455
 7093POPC   PO421948  17.544   7.427   9.155
 7093POPC   GL121949  17.510   7.414   8.855
 7093POPC   GL221950  17.574   7.514   8.855
 7093POPC   C1A21951  17.461   7.450   8.555
 7093POPC   D2A21952  17.505   7.445   8.255
 7093POPC   C3A21953  17.466   7.376   7.955
 7093POPC   C4A21954  17.485   7.422   7.655
 7093POPC   C1B21955  17.599   7.659   8.555
 7093POPC   C2B21956  17.560   7.683   8.255
 7093POPC   C3B21957  17.615   7.647   7.955
 7093POPC   C4B21958  17.639   7.649   7.655
 7094POPC   NC321959   8.191  29.103   9.455
 7094POPC   PO421960   8.186  29.112   9.155
 7094POPC   GL121961   8.148  29.147   8.855
 7094POPC   GL221962   8.154  29.022   8.855
 7094POPC   C1A21963   8.235  29.107   8.555
 7094POPC   D2A21964   8.208  29.168   8.255
 7094POPC   C3A21965   8.233  29.134   7.955
 7094POPC   C4A21966   8.161  29.114   7.655
 7094POPC   C1B21967   8.065  28.882   8.555
 7094POPC   C2B21968   8.128  28.891   8.255
 7094POPC   C3B21969   8.045  28.972   7.955
 7094POPC   C4B21970   8.086  28.914   7.655
 7095POPC   NC321971  18.272   2.732   9.455
 7095POPC   PO421972  18.325   2.779   9.155
 7095POPC   GL121973  18.254   2.777   8.855
 7095POPC   GL221974  18.228   2.691   8.855
 7095POPC   C1A21975  18.297   2.757   8.555
 7095POPC   D2A21976  18.315   2.735   8.255
 7095POPC   C3A21977  18.322   2.787   7.955
 7095POPC   C4A21978  18.234   2.737   7.655
 7095POPC   C1B21979  18.251   2.517   8.555
 7095POPC   C2B21980  18.237   2.552   8.255
 7095POPC   C3B21981  18.254   2.548   7.955
 7095POPC   C4B21982  18.205   2.509   7.655
 7096POPC   NC321983  27.643  32.290   9.455
 7096POPC   PO421984  27.622  32.280   9.155
 7096POPC   GL121985  27.625  32.284   8.855
 7096POPC   GL221986  27.507  32.169   8.855
 7096POPC   C1A21987  27.555  32.205   8.555
 7096POPC   D2A21988  27.569  32.204   8.255
 7096POPC   C3A21989  27.611  32.244   7.955
 7096POPC   C4A21990  27.634  32.238   7.655
 7096POPC   C1B21991  27.522  32.041   8.555
 7096POPC   C2B21992  27.490  32.017   8.255
 7096POPC   C3B21993  27.506  32.003   7.955
 7096POPC   C4B21994  27.486  32.064   7.655
 7097POPC   NC321995  44.682  16.772   9.455
 7097POPC   PO421996  44.613  16.758   9.155
 7097POPC   GL121997  44.669  16.717   8.855
 7097POPC   GL221998  44.680  16.819   8.855
 7097POPC   C1A21999  44.691  16.722   8.555
 7097POPC   D2A22000  44.699  16.757   8.255
 7097POPC   C3A22001  44.703  16.696   7.955
 7097POPC   C4A22002  44.666  16.696   7.655
 7097POPC   C1B22003  44.824  16.975   8.555
 7097POPC   C2B22004  44.737  16.958   8.255
 7097POPC   C3B22005  44.823  16.933   7.955
 7097POPC   C4B22006  44.762  16.965   7.655
 7098POPC   NC322007   5.046  19.069   9.455
 7098POPC   PO422008   5.100  19.050   9.155
 7098POPC   GL122009   5.126  19.021   8.855
 7098POPC   GL222010   5.182  19.016   8.855
 7098POPC   C1A22011   5.138  19.090   8.555
 7098POPC   D2A22012   5.078  19.038   8.255
 7098POPC   C3A22013   5.063  19.041   7.955
 7098POPC   C4A22014   5.134  19.097   7.655
 7098POPC   C1B22015   5.298  18.973   8.555
 7098POPC   C2B22016   5.356  18.926   8.255
 7098POPC   C3B22017   5.306  18.934   7.955
 7098POPC   C4B22018   5.291  18.913   7.655
 7099POPC   NC322019  25.290  33.752   9.455
 7099POPC   PO422020  25.233  33.830   9.155
 7099POPC   GL122021  25.292  33.848   8.855
 7099POPC   GL222022  25.338  33.690   8.855
 7099POPC   C1A22023  25.294  33.823   8.555
 7099POPC   D2A22024  25.218  33.775   8.255
 7099POPC   C3A22025  25.303  33.830   7.955
 7099POPC   C4A22026  25.257  33.768   7.655
 7099POPC   C1B22027  25.365  33.570   8.555
 7099POPC   C2B22028  25.348  33.544   8.255
 7099POPC   C3B22029  25.368  33.555   7.955
 7099POPC   C4B22030  25.429  33.568   7.655
 7100POPC   NC322031   7.442  38.481   9.455
 7100POPC   PO422032   7.401  38.451   9.155
 7100POPC   GL122033   7.391  38.425   8.855
 7100POPC   GL222034   7.290  38.404   8.855
 7100POPC   C1A22035   7.422  38.480   8.555
 7100POPC   D2A22036   7.408  38.411   8.255
 7100POPC   C3A22037   7.397  38.472   7.955
 7100POPC   C4A22038   7.453  38.462   7.655
 7100POPC   C1B22039   7.228  38.406   8.555
 7100POPC   C2B22040   7.174  38.340   8.255
 7100POPC   C3B22041   7.233  38.339   7.955
 7100POPC   C4B22042   7.141  38.330   7.655
 7101POPC   NC322043  17.458  14.444   9.455
 7101POPC   PO422044  17.515  14.369   9.155
 7101POPC   GL122045  17.533  14.362   8.855
 7101POPC   GL222046  17.459  14.484   8.855
 7101POPC   C1A22047  17.531  14.434   8.555
 7101POPC   D2A22048  17.546  14.396   8.255
 7101POPC   C3A22049  17.537  14.413   7.955
 7101POPC   C4A22050  17.555  14.423   7.655
 7101POPC   C1B22051  17.486  14.682   8.555
 7101POPC   C2B22052  17.524  14.626   8.255
 7101POPC   C3B22053  17.515  14.681   7.955
 7101POPC   C4B22054  17.501  14.650   7.655
 7102POPC   NC322055  36.887  41.604   9.455
 7102POPC   PO422056  36.890  41.574   9.155
 7102POPC   GL122057  36.868  41.512   8.855
 7102POPC   GL222058  36.978  41.544   8.855
 7102POPC   C1A22059  36.920  41.570   8.555
 7102POPC   D2A22060  36.863  41.556   8.255
 7102POPC   C3A22061  36.887  41.541   7.955
 7102POPC   C4A22062  36.866  41.514   7.655
 7102POPC   C1B22063  37.102  41.616   8.555
 7102POPC   C2B22064  37.145  41.594   8.255
 7102POPC   C3B22065  37.130  41.593   7.955
 7102POPC   C4B22066  37.191  41.548   7.655
 7103POPC   NC322067  23.729   2.754   9.455
 7103POPC   PO422068  23.694   2.730   9.155
 7103POPC   GL122069  23.692   2.811   8.855
 7103POPC   GL222070  23.766   2.672   8.855
 7103POPC   C1A22071  23.703   2.799   8.555
 7103POPC   D2A22072  23.687   2.781   8.255
 7103POPC   C3A22073  23.739   2.798   7.955
 7103POPC   C4A22074  23.732   2.754   7.655
 7103POPC   C1B22075  23.878   2.531   8.555
 7103POPC   C2B22076  23.918   2.618   8.255
 7103POPC   C3B22077  23.864   2.607   7.955
 7103POPC   C4B22078  23.830   2.610   7.655
 7104POPC   NC322079  41.522  15.965   9.455
 7104POPC   PO422080  41.520  15.951   9.155
 7104POPC   GL122081  41.596  15.984   8.855
 7104POPC   GL222082  41.669  16.006   8.855
 7104POPC   C1A22083  41.583  15.980   8.555
 7104POPC   D2A22084  41.522  15.906   8.255
 7104POPC   C3A22085  41.590  15.993   7.955
 7104POPC   C4A22086  41.582  15.921   7.655
 7104POPC   C1B22087  41.815  16.100   8.555
 7104POPC   C2B22088  41.723  16.098   8.255
 7104POPC   C3B22089  41.751  16.046   7.955
 7104POPC   C4B22090  41.735  16.105   7.655
 7105POPC   NC322091  41.513  40.013   9.455
 7105POPC   PO422092  41.518  40.055   9.155
 7105POPC   GL122093  41.586  40.056   8.855
 7105POPC   GL222094  41.420  40.054   8.855
 7105POPC   C1A22095  41.542  40.043   8.555
 7105POPC   D2A22096  41.520  39.990   8.255
 7105POPC   C3A22097  41.543  39.977   7.955
 7105POPC   C4A22098  41.578  39.993   7.655
 7105POPC   C1B22099  41.285  40.135   8.555
 7105POPC   C2B22100  41.355  40.096   8.255
 7105POPC   C3B22101  41.317  40.067   7.955
 7105POPC   C4B22102  41.348  40.095   7.655
 7106POPC   NC322103   8.987  21.385   9.455
 7106POPC   PO422104   9.017  21.346   9.155
 7106POPC   GL122105   9.004  21.360   8.855
 7106POPC   GL222106   8.896  21.308   8.855
 7106POPC   C1A22107   8.980  21.431   8.555
 7106POPC   D2A22108   8.976  21.341   8.255
 7106POPC   C3A22109   8.996  21.342   7.955
 7106POPC   C4A22110   8.948  21.403   7.655
 7106POPC   C1B22111   8.940  21.170   8.555
 7106POPC   C2B22112   8.930  21.140   8.255
 7106POPC   C3B22113   8.901  21.138   7.955
 7106POPC   C4B22114   8.949  21.119   7.655
 7107POPC   NC322115  16.775  12.847   9.455
 7107POPC   PO422116  16.695  12.857   9.155
 7107POPC   GL122117  16.711  12.897   8.855
 7107POPC   GL222118  16.558  12.861   8.855
 7107POPC   C1A22119  16.748  12.874   8.555
 7107POPC   D2A22120  16.769  12.812   8.255
 7107POPC   C3A22121  16.756  12.838   7.955
 7107POPC   C4A22122  16.698  12.830   7.655
 7107POPC   C1B22123  16.436  12.829   8.555
 7107POPC   C2B22124  16.483  12.845   8.255
 7107POPC   C3B22125  16.478  12.828   7.955
 7107POPC   C4B22126  16.519  12.859   7.655
 7108POPC   NC322127  31.465  26.050   9.455
 7108POPC   PO422128  31.473  26.014   9.155
 7108POPC   GL122129  31.445  26.044   8.855
 7108POPC   GL222130  31.419  26.152   8.855
 7108POPC   C1A22131  31.519  26.008   8.555
 7108POPC   D2A22132  31.450  26.053   8.255
 7108POPC   C3A22133  31.470  25.999   7.955
 7108POPC   C4A22134  31.451  26.030   7.655
 7108POPC   C1B22135  31.250  26.179   8.555
 7108POPC   C2B22136  31.238  26.231   8.255
 7108POPC   C3B22137  31.245  26.197   7.955
 7108POPC   C4B22138  31.323  26.207   7.655
 7109POPC   NC322139  22.889  20.622   9.455
 7109POPC   PO422140  22.931  20.595   9.155
 7109POPC   GL122141  22.924  20.621   8.855
 7109POPC   GL222142  22.960  20.703   8.855
 7109POPC   C1A22143  22.986  20.582   8.555
 7109POPC   D2A22144  22.947  20.635   8.255
 7109POPC   C3A22145  22.952  20.619   7.955
 7109POPC   C4A22146  22.939  20.571   7.655
 7109POPC   C1B22147  23.051  20.793   8.555
 7109POPC   C2B22148  23.090  20.776   8.255
 7109POPC   C3B22149  23.081  20.795   7.955
 7109POPC   C4B22150  23.085  20.846   7.655
 7110POPC   NC322151  22.151   2.761   9.455
 7110POPC   PO422152  22.141   2.797   9.155
 7110POPC   GL122153  22.134   2.740   8.855
 7110POPC   GL222154  22.054   2.712   8.855
 7110POPC   C1A22155  22.150   2.797   8.555
 7110POPC   D2A22156  22.179   2.723   8.255
 7110POPC   C3A22157  22.201   2.804   7.955
 7110POPC   C4A22158  22.167   2.807   7.655
 7110POPC   C1B22159  21.936   2.742   8.555
 7110POPC   C2B22160  21.939   2.722   8.255
 7110POPC   C3B22161  21.911   2.755   7.955
 7110POPC   C4B22162  21.886   2.797   7.655
 7111POPC   NC322163   8.949  41.582   9.455
 7111POPC   PO422164   8.943  41.595   9.155
 7111POPC   GL122165   9.017  41.597   8.855
 7111POPC   GL222166   8.880  41.437   8.855
 7111POPC   C1A22167   8.946  41.576   8.555
 7111POPC   D2A22168   9.000  41.546   8.255
 7111POPC   C3A22169   8.997  41.606   7.955
 7111POPC   C4A22170   9.003  41.509   7.655
 7111POPC   C1B22171   8.836  41.370   8.555
 7111POPC   C2B22172   8.899  41.299   8.255
 7111POPC   C3B22173   8.899  41.368   7.955
 7111POPC   C4B22174   8.842  41.332   7.655
 7112POPC   NC322175  17.472  37.728   9.455
 7112POPC   PO422176  17.508  37.675   9.155
 7112POPC   GL122177  17.506  37.688   8.855
 7112POPC   GL222178  17.635  37.726   8.855
 7112POPC   C1A22179  17.479  37.691   8.555
 7112POPC   D2A22180  17.508  37.723   8.255
 7112POPC   C3A22181  17.547  37.674   7.955
 7112POPC   C4A22182  17.460  37.665   7.655
 7112POPC   C1B22183  17.768  37.676   8.555
 7112POPC   C2B22184  17.722  37.761   8.255
 7112POPC   C3B22185  17.776  37.742   7.955
 7112POPC   C4B22186  17.804  37.702   7.655
 7113POPC   NC322187  36.142  27.630   9.455
 7113POPC   PO422188  36.160  27.564   9.155
 7113POPC   GL122189  36.123  27.638   8.855
 7113POPC   GL222190  36.264  27.614   8.855
 7113POPC   C1A22191  36.155  27.629   8.555
 7113POPC   D2A22192  36.147  27.579   8.255
 7113POPC   C3A22193  36.170  27.620   7.955
 7113POPC   C4A22194  36.097  27.592   7.655
 7113POPC   C1B22195  36.328  27.584   8.555
 7113POPC   C2B22196  36.328  27.513   8.255
 7113POPC   C3B22197  36.360  27.522   7.955
 7113POPC   C4B22198  36.352  27.567   7.655
 7114POPC   NC322199  35.314  29.119   9.455
 7114POPC   PO422200  35.393  29.116   9.155
 7114POPC   GL122201  35.303  29.159   8.855
 7114POPC   GL222202  35.468  29.126   8.855
 7114POPC   C1A22203  35.346  29.149   8.555
 7114POPC   D2A22204  35.391  29.177   8.255
 7114POPC   C3A22205  35.311  29.187   7.955
 7114POPC   C4A22206  35.302  29.178   7.655
 7114POPC   C1B22207  35.575  29.095   8.555
 7114POPC   C2B22208  35.572  29.085   8.255
 7114POPC   C3B22209  35.613  29.043   7.955
 7114POPC   C4B22210  35.580  29.118   7.655
 7115POPC   NC322211  18.332  38.459   9.455
 7115POPC   PO422212  18.304  38.484   9.155
 7115POPC   GL122213  18.329  38.447   8.855
 7115POPC   GL222214  18.436  38.445   8.855
 7115POPC   C1A22215  18.311  38.482   8.555
 7115POPC   D2A22216  18.327  38.483   8.255
 7115POPC   C3A22217  18.315  38.497   7.955
 7115POPC   C4A22218  18.241  38.415   7.655
 7115POPC   C1B22219  18.505  38.487   8.555
 7115POPC   C2B22220  18.490  38.519   8.255
 7115POPC   C3B22221  18.540  38.510   7.955
 7115POPC   C4B22222  18.522  38.462   7.655
 7116POPC   NC322223  27.571  18.314   9.455
 7116POPC   PO422224  27.643  18.294   9.155
 7116POPC   GL122225  27.620  18.261   8.855
 7116POPC   GL222226  27.715  18.392   8.855
 7116POPC   C1A22227  27.612  18.263   8.555
 7116POPC   D2A22228  27.603  18.287   8.255
 7116POPC   C3A22229  27.568  18.234   7.955
 7116POPC   C4A22230  27.573  18.293   7.655
 7116POPC   C1B22231  27.821  18.452   8.555
 7116POPC   C2B22232  27.774  18.484   8.255
 7116POPC   C3B22233  27.771  18.480   7.955
 7116POPC   C4B22234  27.779  18.423   7.655
 7117POPC   NC322235  35.382   7.398   9.455
 7117POPC   PO422236  35.306   7.463   9.155
 7117POPC   GL122237  35.343   7.457   8.855
 7117POPC   GL222238  35.281   7.527   8.855
 7117POPC   C1A22239  35.325   7.436   8.555
 7117POPC   D2A22240  35.379   7.417   8.255
 7117POPC   C3A22241  35.323   7.383   7.955
 7117POPC   C4A22242  35.401   7.456   7.655
 7117POPC   C1B22243  35.155   7.609   8.555
 7117POPC   C2B22244  35.181   7.578   8.255
 7117POPC   C3B22245  35.153   7.649   7.955
 7117POPC   C4B22246  35.160   7.640   7.655
 7118POPC   NC322247  15.980  35.324   9.455
 7118POPC   PO422248  15.910  35.397   9.155
 7118POPC   GL122249  15.917  35.322   8.855
 7118POPC   GL222250  15.904  35.249   8.855
 7118POPC   C1A22251  15.977  35.369   8.555
 7118POPC   D2A22252  15.948  35.307   8.255
 7118POPC   C3A22253  15.927  35.316   7.955
 7118POPC   C4A22254  15.983  35.318   7.655
 7118POPC   C1B22255  15.852  35.066   8.555
 7118POPC   C2B22256  15.898  35.139   8.255
 7118POPC   C3B22257  15.899  35.113   7.955
 7118POPC   C4B22258  15.898  35.082   7.655
 7119POPC   NC322259  17.550  10.498   9.455
 7119POPC   PO422260  17.509  10.529   9.155
 7119POPC   GL122261  17.457  10.551   8.855
 7119POPC   GL222262  17.599  10.613   8.855
 7119POPC   C1A22263  17.534  10.493   8.555
 7119POPC   D2A22264  17.542  10.504   8.255
 7119POPC   C3A22265  17.555  10.475   7.955
 7119POPC   C4A22266  17.469  10.511   7.655
 7119POPC   C1B22267  17.611  10.777   8.555
 7119POPC   C2B22268  17.567  10.736   8.255
 7119POPC   C3B22269  17.610  10.784   7.955
 7119POPC   C4B22270  17.605  10.727   7.655
 7120POPC   NC322271  20.591   9.770   9.455
 7120POPC   PO422272  20.579   9.761   9.155
 7120POPC   GL122273  20.589   9.777   8.855
 7120POPC   GL222274  20.752   9.755   8.855
 7120POPC   C1A22275  20.567   9.756   8.555
 7120POPC   D2A22276  20.634   9.754   8.255
 7120POPC   C3A22277  20.622   9.747   7.955
 7120POPC   C4A22278  20.570   9.741   7.655
 7120POPC   C1B22279  20.811   9.857   8.555
 7120POPC   C2B22280  20.867   9.831   8.255
 7120POPC   C3B22281  20.835   9.789   7.955
 7120POPC   C4B22282  20.809   9.774   7.655
 7121POPC   NC322283  33.839   3.498   9.455
 7121POPC   PO422284  33.767   3.500   9.155
 7121POPC   GL122285  33.812   3.554   8.855
 7121POPC   GL222286  33.702   3.598   8.855
 7121POPC   C1A22287  33.844   3.545   8.555
 7121POPC   D2A22288  33.751   3.579   8.255
 7121POPC   C3A22289  33.766   3.558   7.955
 7121POPC   C4A22290  33.814   3.587   7.655
 7121POPC   C1B22291  33.612   3.702   8.555
 7121POPC   C2B22292  33.598   3.704   8.255
 7121POPC   C3B22293  33.599   3.663   7.955
 7121POPC   C4B22294  33.621   3.741   7.655
 7122POPC   NC322295  19.015  13.601   9.455
 7122POPC   PO422296  19.016  13.659   9.155
 7122POPC   GL122297  19.097  13.620   8.855
 7122POPC   GL222298  19.018  13.767   8.855
 7122POPC   C1A22299  19.050  13.612   8.555
 7122POPC   D2A22300  19.066  13.610   8.255
 7122POPC   C3A22301  19.018  13.588   7.955
 7122POPC   C4A22302  19.025  13.645   7.655
 7122POPC   C1B22303  18.870  13.794   8.555
 7122POPC   C2B22304  18.841  13.787   8.255
 7122POPC   C3B22305  18.874  13.768   7.955
 7122POPC   C4B22306  18.923  13.766   7.655
 7123POPC   NC322307  41.568  39.228   9.455
 7123POPC   PO422308  41.519  39.190   9.155
 7123POPC   GL122309  41.596  39.210   8.855
 7123POPC   GL222310  41.577  39.379   8.855
 7123POPC   C1A22311  41.523  39.199   8.555
 7123POPC   D2A22312  41.593  39.191   8.255
 7123POPC   C3A22313  41.564  39.219   7.955
 7123POPC   C4A22314  41.561  39.227   7.655
 7123POPC   C1B22315  41.584  39.503   8.555
 7123POPC   C2B22316  41.552  39.484   8.255
 7123POPC   C3B22317  41.615  39.456   7.955
 7123POPC   C4B22318  41.629  39.445   7.655
 7124POPC   NC322319  32.271  37.713   9.455
 7124POPC   PO422320  32.282  37.635   9.155
 7124POPC   GL122321  32.266  37.666   8.855
 7124POPC   GL222322  32.179  37.710   8.855
 7124POPC   C1A22323  32.249  37.635   8.555
 7124POPC   D2A22324  32.210  37.650   8.255
 7124POPC   C3A22325  32.260  37.648   7.955
 7124POPC   C4A22326  32.239  37.685   7.655
 7124POPC   C1B22327  32.004  37.783   8.555
 7124POPC   C2B22328  32.091  37.873   8.255
 7124POPC   C3B22329  32.088  37.803   7.955
 7124POPC   C4B22330  32.090  37.804   7.655
 7125POPC   NC322331  33.837  16.709   9.455
 7125POPC   PO422332  33.819  16.721   9.155
 7125POPC   GL122333  33.771  16.699   8.855
 7125POPC   GL222334  33.702  16.675   8.855
 7125POPC   C1A22335  33.783  16.716   8.555
 7125POPC   D2A22336  33.823  16.721   8.255
 7125POPC   C3A22337  33.779  16.775   7.955
 7125POPC   C4A22338  33.819  16.743   7.655
 7125POPC   C1B22339  33.549  16.671   8.555
 7125POPC   C2B22340  33.607  16.678   8.255
 7125POPC   C3B22341  33.603  16.648   7.955
 7125POPC   C4B22342  33.590  16.608   7.655
 7126POPC   NC322343  43.083  23.762   9.455
 7126POPC   PO422344  43.068  23.711   9.155
 7126POPC   GL122345  43.070  23.674   8.855
 7126POPC   GL222346  43.060  23.572   8.855
 7126POPC   C1A22347  43.107  23.679   8.555
 7126POPC   D2A22348  43.128  23.700   8.255
 7126POPC   C3A22349  43.151  23.718   7.955
 7126POPC   C4A22350  43.086  23.674   7.655
 7126POPC   C1B22351  43.032  23.524   8.555
 7126POPC   C2B22352  42.986  23.526   8.255
 7126POPC   C3B22353  43.039  23.481   7.955
 7126POPC   C4B22354  43.026  23.514   7.655
 7127POPC   NC322355  26.045  36.864   9.455
 7127POPC   PO422356  26.015  36.931   9.155
 7127POPC   GL122357  25.993  36.910   8.855
 7127POPC   GL222358  25.946  36.837   8.855
 7127POPC   C1A22359  26.049  36.928   8.555
 7127POPC   D2A22360  26.039  36.873   8.255
 7127POPC   C3A22361  26.003  36.948   7.955
 7127POPC   C4A22362  26.069  36.896   7.655
 7127POPC   C1B22363  25.881  36.712   8.555
 7127POPC   C2B22364  25.965  36.717   8.255
 7127POPC   C3B22365  25.901  36.690   7.955
 7127POPC   C4B22366  25.922  36.642   7.655
 7128POPC   NC322367  12.871   8.991   9.455
 7128POPC   PO422368  12.849   9.011   9.155
 7128POPC   GL122369  12.865   8.989   8.855
 7128POPC   GL222370  12.772   8.983   8.855
 7128POPC   C1A22371  12.897   8.986   8.555
 7128POPC   D2A22372  12.836   8.967   8.255
 7128POPC   C3A22373  12.854   9.014   7.955
 7128POPC   C4A22374  12.862   8.997   7.655
 7128POPC   C1B22375  12.593   9.017   8.555
 7128POPC   C2B22376  12.640   9.031   8.255
 7128POPC   C3B22377  12.596   9.006   7.955
 7128POPC   C4B22378  12.580   9.066   7.655
 7129POPC   NC322379   5.881  28.347   9.455
 7129POPC   PO422380   5.880  28.393   9.155
 7129POPC   GL122381   5.829  28.407   8.855
 7129POPC   GL222382   5.767  28.350   8.855
 7129POPC   C1A22383   5.881  28.381   8.555
 7129POPC   D2A22384   5.894  28.373   8.255
 7129POPC   C3A22385   5.881  28.394   7.955
 7129POPC   C4A22386   5.904  28.397   7.655
 7129POPC   C1B22387   5.610  28.351   8.555
 7129POPC   C2B22388   5.590  28.406   8.255
 7129POPC   C3B22389   5.595  28.391   7.955
 7129POPC   C4B22390   5.588  28.379   7.655
 7130POPC   NC322391  33.846  22.932   9.455
 7130POPC   PO422392  33.843  22.937   9.155
 7130POPC   GL122393  33.795  22.929   8.855
 7130POPC   GL222394  33.652  22.854   8.855
 7130POPC   C1A22395  33.782  22.978   8.555
 7130POPC   D2A22396  33.786  22.911   8.255
 7130POPC   C3A22397  33.776  22.959   7.955
 7130POPC   C4A22398  33.773  22.890   7.655
 7130POPC   C1B22399  33.598  22.798   8.555
 7130POPC   C2B22400  33.563  22.864   8.255
 7130POPC   C3B22401  33.537  22.822   7.955
 7130POPC   C4B22402  33.594  22.811   7.655
 7131POPC   NC322403   5.093  17.468   9.455
 7131POPC   PO422404   5.131  17.469   9.155
 7131POPC   GL122405   5.049  17.550   8.855
 7131POPC   GL222406   5.095  17.370   8.855
 7131POPC   C1A22407   5.076  17.514   8.555
 7131POPC   D2A22408   5.142  17.457   8.255
 7131POPC   C3A22409   5.094  17.468   7.955
 7131POPC   C4A22410   5.113  17.479   7.655
 7131POPC   C1B22411   5.181  17.250   8.555
 7131POPC   C2B22412   5.217  17.239   8.255
 7131POPC   C3B22413   5.209  17.245   7.955
 7131POPC   C4B22414   5.183  17.284   7.655
 7132POPC   NC322415  35.359  17.478   9.455
 7132POPC   PO422416  35.392  17.529   9.155
 7132POPC   GL122417  35.392  17.527   8.855
 7132POPC   GL222418  35.434  17.533   8.855
 7132POPC   C1A22419  35.370  17.542   8.555
 7132POPC   D2A22420  35.332  17.510   8.255
 7132POPC   C3A22421  35.309  17.555   7.955
 7132POPC   C4A22422  35.365  17.470   7.655
 7132POPC   C1B22423  35.542  17.572   8.555
 7132POPC   C2B22424  35.618  17.620   8.255
 7132POPC   C3B22425  35.593  17.615   7.955
 7132POPC   C4B22426  35.567  17.582   7.655
 7133POPC   NC322427  43.914  33.760   9.455
 7133POPC   PO422428  43.872  33.786   9.155
 7133POPC   GL122429  43.932  33.788   8.855
 7133POPC   GL222430  43.804  33.728   8.855
 7133POPC   C1A22431  43.885  33.761   8.555
 7133POPC   D2A22432  43.885  33.800   8.255
 7133POPC   C3A22433  43.922  33.774   7.955
 7133POPC   C4A22434  43.872  33.786   7.655
 7133POPC   C1B22435  43.862  33.511   8.555
 7133POPC   C2B22436  43.835  33.515   8.255
 7133POPC   C3B22437  43.862  33.574   7.955
 7133POPC   C4B22438  43.805  33.605   7.655
 7134POPC   NC322439  34.572  15.937   9.455
 7134POPC   PO422440  34.558  15.989   9.155
 7134POPC   GL122441  34.568  15.913   8.855
 7134POPC   GL222442  34.440  15.915   8.855
 7134POPC   C1A22443  34.591  15.960   8.555
 7134POPC   D2A22444  34.552  15.909   8.255
 7134POPC   C3A22445  34.602  16.000   7.955
 7134POPC   C4A22446  34.591  15.942   7.655
 7134POPC   C1B22447  34.307  15.935   8.555
 7134POPC   C2B22448  34.351  15.973   8.255
 7134POPC   C3B22449  34.348  15.921   7.955
 7134POPC   C4B22450  34.326  15.921   7.655
 7135POPC   NC322451  19.858  36.876   9.455
 7135POPC   PO422452  19.834  36.859   9.155
 7135POPC   GL122453  19.816  36.894   8.855
 7135POPC   GL222454  19.824  36.757   8.855
 7135POPC   C1A22455  19.797  36.883   8.555
 7135POPC   D2A22456  19.815  36.948   8.255
 7135POPC   C3A22457  19.861  36.937   7.955
 7135POPC   C4A22458  19.794  36.904   7.655
 7135POPC   C1B22459  19.797  36.655   8.555
 7135POPC   C2B22460  19.764  36.676   8.255
 7135POPC   C3B22461  19.798  36.664   7.955
 7135POPC   C4B22462  19.798  36.666   7.655
 7136POPC   NC322463  25.999   8.953   9.455
 7136POPC   PO422464  26.050   8.928   9.155
 7136POPC   GL122465  26.042   8.946   8.855
 7136POPC   GL222466  26.152   8.889   8.855
 7136POPC   C1A22467  25.993   8.938   8.555
 7136POPC   D2A22468  26.058   8.928   8.255
 7136POPC   C3A22469  26.085   8.974   7.955
 7136POPC   C4A22470  26.038   8.986   7.655
 7136POPC   C1B22471  26.298   8.806   8.555
 7136POPC   C2B22472  26.296   8.830   8.255
 7136POPC   C3B22473  26.252   8.833   7.955
 7136POPC   C4B22474  26.232   8.839   7.655
 7137POPC   NC322475  17.554   2.762   9.455
 7137POPC   PO422476  17.491   2.754   9.155
 7137POPC   GL122477  17.511   2.747   8.855
 7137POPC   GL222478  17.554   2.938   8.855
 7137POPC   C1A22479  17.481   2.752   8.555
 7137POPC   D2A22480  17.523   2.719   8.255
 7137POPC   C3A22481  17.553   2.724   7.955
 7137POPC   C4A22482  17.534   2.809   7.655
 7137POPC   C1B22483  17.553   3.052   8.555
 7137POPC   C2B22484  17.551   2.985   8.255
 7137POPC   C3B22485  17.530   2.970   7.955
 7137POPC   C4B22486  17.510   3.017   7.655
 7138POPC   NC322487  15.153   7.434   9.455
 7138POPC   PO422488  15.179   7.400   9.155
 7138POPC   GL122489  15.189   7.446   8.855
 7138POPC   GL222490  15.292   7.405   8.855
 7138POPC   C1A22491  15.146   7.422   8.555
 7138POPC   D2A22492  15.160   7.463   8.255
 7138POPC   C3A22493  15.131   7.444   7.955
 7138POPC   C4A22494  15.155   7.459   7.655
 7138POPC   C1B22495  15.360   7.270   8.555
 7138POPC   C2B22496  15.431   7.362   8.255
 7138POPC   C3B22497  15.363   7.298   7.955
 7138POPC   C4B22498  15.377   7.275   7.655
 7139POPC   NC322499  19.829  40.781   9.455
 7139POPC   PO422500  19.791  40.778   9.155
 7139POPC   GL122501  19.869  40.773   8.855
 7139POPC   GL222502  19.806  40.921   8.855
 7139POPC   C1A22503  19.879  40.750   8.555
 7139POPC   D2A22504  19.824  40.762   8.255
 7139POPC   C3A22505  19.851  40.757   7.955
 7139POPC   C4A22506  19.790  40.753   7.655
 7139POPC   C1B22507  19.833  40.981   8.555
 7139POPC   C2B22508  19.786  41.065   8.255
 7139POPC   C3B22509  19.799  41.013   7.955
 7139POPC   C4B22510  19.733  41.052   7.655
 7140POPC   NC322511  15.947  20.655   9.455
 7140POPC   PO422512  15.915  20.601   9.155
 7140POPC   GL122513  15.932  20.646   8.855
 7140POPC   GL222514  15.899  20.490   8.855
 7140POPC   C1A22515  15.973  20.563   8.555
 7140POPC   D2A22516  15.953  20.581   8.255
 7140POPC   C3A22517  15.990  20.623   7.955
 7140POPC   C4A22518  15.935  20.652   7.655
 7140POPC   C1B22519  15.903  20.387   8.555
 7140POPC   C2B22520  15.938  20.343   8.255
 7140POPC   C3B22521  15.930  20.398   7.955
 7140POPC   C4B22522  15.951  20.345   7.655
 7141POPC   NC322523   8.203   5.095   9.455
 7141POPC   PO422524   8.236   5.113   9.155
 7141POPC   GL122525   8.244   5.117   8.855
 7141POPC   GL222526   8.219   4.934   8.855
 7141POPC   C1A22527   8.200   5.090   8.555
 7141POPC   D2A22528   8.236   5.138   8.255
 7141POPC   C3A22529   8.178   5.139   7.955
 7141POPC   C4A22530   8.239   5.054   7.655
 7141POPC   C1B22531   8.307   4.880   8.555
 7141POPC   C2B22532   8.236   4.877   8.255
 7141POPC   C3B22533   8.244   4.876   7.955
 7141POPC   C4B22534   8.284   4.894   7.655
 7142POPC   NC322535  12.028  19.799   9.455
 7142POPC   PO422536  12.122  19.806   9.155
 7142POPC   GL122537  12.113  19.820   8.855
 7142POPC   GL222538  12.196  19.727   8.855
 7142POPC   C1A22539  12.083  19.833   8.555
 7142POPC   D2A22540  12.099  19.830   8.255
 7142POPC   C3A22541  12.049  19.876   7.955
 7142POPC   C4A22542  12.080  19.825   7.655
 7142POPC   C1B22543  12.286  19.613   8.555
 7142POPC   C2B22544  12.282  19.676   8.255
 7142POPC   C3B22545  12.218  19.609   7.955
 7142POPC   C4B22546  12.286  19.595   7.655
 7143POPC   NC322547   6.608  13.615   9.455
 7143POPC   PO422548   6.674  13.652   9.155
 7143POPC   GL122549   6.601  13.598   8.855
 7143POPC   GL222550   6.711  13.666   8.855
 7143POPC   C1A22551   6.654  13.619   8.555
 7143POPC   D2A22552   6.643  13.614   8.255
 7143POPC   C3A22553   6.659  13.605   7.955
 7143POPC   C4A22554   6.675  13.615   7.655
 7143POPC   C1B22555   6.896  13.717   8.555
 7143POPC   C2B22556   6.861  13.801   8.255
 7143POPC   C3B22557   6.905  13.765   7.955
 7143POPC   C4B22558   6.839  13.795   7.655
 7144POPC   NC322559  16.763  10.526   9.455
 7144POPC   PO422560  16.729  10.556   9.155
 7144POPC   GL122561  16.705  10.567   8.855
 7144POPC   GL222562  16.808  10.602   8.855
 7144POPC   C1A22563  16.763  10.565   8.555
 7144POPC   D2A22564  16.718  10.549   8.255
 7144POPC   C3A22565  16.779  10.488   7.955
 7144POPC   C4A22566  16.744  10.562   7.655
 7144POPC   C1B22567  16.780  10.777   8.555
 7144POPC   C2B22568  16.796  10.752   8.255
 7144POPC   C3B22569  16.823  10.718   7.955
 7144POPC   C4B22570  16.844  10.749   7.655
 7145POPC   NC322571  26.016  22.136   9.455
 7145POPC   PO422572  26.031  22.187   9.155
 7145POPC   GL122573  26.042  22.147   8.855
 7145POPC   GL222574  26.034  22.009   8.855
 7145POPC   C1A22575  26.003  22.162   8.555
 7145POPC   D2A22576  26.038  22.132   8.255
 7145POPC   C3A22577  26.076  22.202   7.955
 7145POPC   C4A22578  26.053  22.184   7.655
 7145POPC   C1B22579  26.010  21.928   8.555
 7145POPC   C2B22580  26.016  21.929   8.255
 7145POPC   C3B22581  26.036  21.904   7.955
 7145POPC   C4B22582  26.022  21.873   7.655
 7146POPC   NC322583  32.260  30.704   9.455
 7146POPC   PO422584  32.259  30.682   9.155
 7146POPC   GL122585  32.294  30.717   8.855
 7146POPC   GL222586  32.130  30.573   8.855
 7146POPC   C1A22587  32.264  30.689   8.555
 7146POPC   D2A22588  32.254  30.723   8.255
 7146POPC   C3A22589  32.271  30.648   7.955
 7146POPC   C4A22590  32.245  30.648   7.655
 7146POPC   C1B22591  32.092  30.459   8.555
 7146POPC   C2B22592  32.084  30.505   8.255
 7146POPC   C3B22593  32.128  30.496   7.955
 7146POPC   C4B22594  32.104  30.476   7.655
 7147POPC   NC322595  25.286  34.620   9.455
 7147POPC   PO422596  25.286  34.568   9.155
 7147POPC   GL122597  25.283  34.619   8.855
 7147POPC   GL222598  25.433  34.560   8.855
 7147POPC   C1A22599  25.216  34.619   8.555
 7147POPC   D2A22600  25.232  34.584   8.255
 7147POPC   C3A22601  25.309  34.600   7.955
 7147POPC   C4A22602  25.233  34.618   7.655
 7147POPC   C1B22603  25.512  34.540   8.555
 7147POPC   C2B22604  25.511  34.566   8.255
 7147POPC   C3B22605  25.521  34.536   7.955
 7147POPC   C4B22606  25.520  34.539   7.655
 7148POPC   NC322607   3.557  23.756   9.455
 7148POPC   PO422608   3.519  23.705   9.155
 7148POPC   GL122609   3.511  23.664   8.855
 7148POPC   GL222610   3.638  23.817   8.855
 7148POPC   C1A22611   3.524  23.699   8.555
 7148POPC   D2A22612   3.544  23.745   8.255
 7148POPC   C3A22613   3.544  23.716   7.955
 7148POPC   C4A22614   3.578  23.720   7.655
 7148POPC   C1B22615   3.679  23.881   8.555
 7148POPC   C2B22616   3.660  23.909   8.255
 7148POPC   C3B22617   3.710  23.943   7.955
 7148POPC   C4B22618   3.716  23.930   7.655
 7149POPC   NC322619  36.152  24.465   9.455
 7149POPC   PO422620  36.111  24.466   9.155
 7149POPC   GL122621  36.151  24.507   8.855
 7149POPC   GL222622  36.258  24.488   8.855
 7149POPC   C1A22623  36.128  24.505   8.555
 7149POPC   D2A22624  36.134  24.498   8.255
 7149POPC   C3A22625  36.153  24.508   7.955
 7149POPC   C4A22626  36.134  24.497   7.655
 7149POPC   C1B22627  36.340  24.548   8.555
 7149POPC   C2B22628  36.319  24.588   8.255
 7149POPC   C3B22629  36.363  24.578   7.955
 7149POPC   C4B22630  36.377  24.572   7.655
 7150POPC   NC322631  33.804  14.411   9.455
 7150POPC   PO422632  33.797  14.418   9.155
 7150POPC   GL122633  33.836  14.371   8.855
 7150POPC   GL222634  33.826  14.524   8.855
 7150POPC   C1A22635  33.846  14.369   8.555
 7150POPC   D2A22636  33.792  14.384   8.255
 7150POPC   C3A22637  33.763  14.364   7.955
 7150POPC   C4A22638  33.751  14.369   7.655
 7150POPC   C1B22639  33.956  14.580   8.555
 7150POPC   C2B22640  33.863  14.647   8.255
 7150POPC   C3B22641  33.949  14.613   7.955
 7150POPC   C4B22642  33.940  14.596   7.655
 7151POPC   NC322643  23.695  34.585   9.455
 7151POPC   PO422644  23.711  34.587   9.155
 7151POPC   GL122645  23.763  34.537   8.855
 7151POPC   GL222646  23.602  34.506   8.855
 7151POPC   C1A22647  23.693  34.564   8.555
 7151POPC   D2A22648  23.699  34.551   8.255
 7151POPC   C3A22649  23.689  34.614   7.955
 7151POPC   C4A22650  23.729  34.624   7.655
 7151POPC   C1B22651  23.589  34.347   8.555
 7151POPC   C2B22652  23.599  34.400   8.255
 7151POPC   C3B22653  23.530  34.362   7.955
 7151POPC   C4B22654  23.561  34.380   7.655
 7152POPC   NC322655  29.125  12.030   9.455
 7152POPC   PO422656  29.145  12.069   9.155
 7152POPC   GL122657  29.134  12.091   8.855
 7152POPC   GL222658  29.182  11.941   8.855
 7152POPC   C1A22659  29.186  12.027   8.555
 7152POPC   D2A22660  29.148  12.076   8.255
 7152POPC   C3A22661  29.168  12.093   7.955
 7152POPC   C4A22662  29.126  12.119   7.655
 7152POPC   C1B22663  29.322  11.923   8.555
 7152POPC   C2B22664  29.344  11.908   8.255
 7152POPC   C3B22665  29.333  11.852   7.955
 7152POPC   C4B22666  29.344  11.880   7.655
 7153POPC   NC322667  16.689   7.404   9.455
 7153POPC   PO422668  16.765   7.393   9.155
 7153POPC   GL122669  16.767   7.445   8.855
 7153POPC   GL222670  16.640   7.466   8.855
 7153POPC   C1A22671  16.753   7.434   8.555
 7153POPC   D2A22672  16.697   7.393   8.255
 7153POPC   C3A22673  16.754   7.375   7.955
 7153POPC   C4A22674  16.690   7.410   7.655
 7153POPC   C1B22675  16.468   7.479   8.555
 7153POPC   C2B22676  16.486   7.514   8.255
 7153POPC   C3B22677  16.540   7.507   7.955
 7153POPC   C4B22678  16.456   7.560   7.655
 7154POPC   NC322679  23.697  15.205   9.455
 7154POPC   PO422680  23.666  15.159   9.155
 7154POPC   GL122681  23.755  15.182   8.855
 7154POPC   GL222682  23.872  15.250   8.855
 7154POPC   C1A22683  23.698  15.161   8.555
 7154POPC   D2A22684  23.728  15.138   8.255
 7154POPC   C3A22685  23.733  15.211   7.955
 7154POPC   C4A22686  23.705  15.198   7.655
 7154POPC   C1B22687  23.921  15.273   8.555
 7154POPC   C2B22688  23.966  15.193   8.255
 7154POPC   C3B22689  23.956  15.253   7.955
 7154POPC   C4B22690  23.987  15.264   7.655
 7155POPC   NC322691   6.683  20.641   9.455
 7155POPC   PO422692   6.689  20.640   9.155
 7155POPC   GL122693   6.678  20.608   8.855
 7155POPC   GL222694   6.587  20.692   8.855
 7155POPC   C1A22695   6.653  20.624   8.555
 7155POPC   D2A22696   6.691  20.608   8.255
 7155POPC   C3A22697   6.618  20.564   7.955
 7155POPC   C4A22698   6.668  20.610   7.655
 7155POPC   C1B22699   6.621  20.839   8.555
 7155POPC   C2B22700   6.614  20.821   8.255
 7155POPC   C3B22701   6.601  20.871   7.955
 7155POPC   C4B22702   6.623  20.817   7.655
 7156POPC   NC322703   4.305  29.938   9.455
 7156POPC   PO422704   4.363  29.914   9.155
 7156POPC   GL122705   4.341  29.953   8.855
 7156POPC   GL222706   4.349  30.038   8.855
 7156POPC   C1A22707   4.350  29.917   8.555
 7156POPC   D2A22708   4.324  29.949   8.255
 7156POPC   C3A22709   4.340  29.933   7.955
 7156POPC   C4A22710   4.273  29.918   7.655
 7156POPC   C1B22711   4.405  30.154   8.555
 7156POPC   C2B22712   4.437  30.132   8.255
 7156POPC   C3B22713   4.447  30.143   7.955
 7156POPC   C4B22714   4.418  30.100   7.655
 7157POPC   NC322715   5.864  42.303   9.455
 7157POPC   PO422716   5.905  42.334   9.155
 7157POPC   GL122717   5.823  42.302   8.855
 7157POPC   GL222718   5.924  42.390   8.855
 7157POPC   C1A22719   5.908  42.303   8.555
 7157POPC   D2A22720   5.894  42.303   8.255
 7157POPC   C3A22721   5.845  42.363   7.955
 7157POPC   C4A22722   5.870  42.304   7.655
 7157POPC   C1B22723   6.042  42.458   8.555
 7157POPC   C2B22724   6.072  42.523   8.255
 7157POPC   C3B22725   6.108  42.469   7.955
 7157POPC   C4B22726   6.065  42.533   7.655
 7158POPC   NC322727  12.809  36.913   9.455
 7158POPC   PO422728  12.834  36.880   9.155
 7158POPC   GL122729  12.878  36.869   8.855
 7158POPC   GL222730  12.971  36.898   8.855
 7158POPC   C1A22731  12.842  36.911   8.555
 7158POPC   D2A22732  12.888  36.857   8.255
 7158POPC   C3A22733  12.878  36.881   7.955
 7158POPC   C4A22734  12.885  36.859   7.655
 7158POPC   C1B22735  13.076  36.861   8.555
 7158POPC   C2B22736  13.136  36.902   8.255
 7158POPC   C3B22737  13.094  36.917   7.955
 7158POPC   C4B22738  13.087  36.894   7.655
 7159POPC   NC322739  39.959  19.036   9.455
 7159POPC   PO422740  40.053  19.039   9.155
 7159POPC   GL122741  39.996  19.048   8.855
 7159POPC   GL222742  39.980  18.908   8.855
 7159POPC   C1A22743  40.051  19.054   8.555
 7159POPC   D2A22744  39.992  19.009   8.255
 7159POPC   C3A22745  40.010  19.014   7.955
 7159POPC   C4A22746  39.983  19.071   7.655
 7159POPC   C1B22747  40.021  18.809   8.555
 7159POPC   C2B22748  40.053  18.804   8.255
 7159POPC   C3B22749  40.020  18.793   7.955
 7159POPC   C4B22750  40.019  18.857   7.655
 7160POPC   NC322751  42.368  26.060   9.455
 7160POPC   PO422752  42.348  26.029   9.155
 7160POPC   GL122753  42.337  26.016   8.855
 7160POPC   GL222754  42.339  26.131   8.855
 7160POPC   C1A22755  42.337  26.066   8.555
 7160POPC   D2A22756  42.330  26.023   8.255
 7160POPC   C3A22757  42.355  26.042   7.955
 7160POPC   C4A22758  42.374  26.089   7.655
 7160POPC   C1B22759  42.334  26.266   8.555
 7160POPC   C2B22760  42.356  26.252   8.255
 7160POPC   C3B22761  42.333  26.293   7.955
 7160POPC   C4B22762  42.405  26.240   7.655
 7161POPC   NC322763  44.643   8.965   9.455
 7161POPC   PO422764  44.707   8.972   9.155
 7161POPC   GL122765  44.642   8.962   8.855
 7161POPC   GL222766  44.631   9.134   8.855
 7161POPC   C1A22767  44.675   8.964   8.555
 7161POPC   D2A22768  44.641   8.947   8.255
 7161POPC   C3A22769  44.709   8.998   7.955
 7161POPC   C4A22770  44.632   8.924   7.655
 7161POPC   C1B22771  44.706   9.190   8.555
 7161POPC   C2B22772  44.718   9.217   8.255
 7161POPC   C3B22773  44.702   9.227   7.955
 7161POPC   C4B22774  44.668   9.227   7.655
 7162POPC   NC322775  37.718  24.481   9.455
 7162POPC   PO422776  37.678  24.520   9.155
 7162POPC   GL122777  37.656  24.454   8.855
 7162POPC   GL222778  37.829  24.532   8.855
 7162POPC   C1A22779  37.641  24.480   8.555
 7162POPC   D2A22780  37.721  24.515   8.255
 7162POPC   C3A22781  37.726  24.471   7.955
 7162POPC   C4A22782  37.703  24.466   7.655
 7162POPC   C1B22783  37.896  24.519   8.555
 7162POPC   C2B22784  37.963  24.438   8.255
 7162POPC   C3B22785  37.953  24.483   7.955
 7162POPC   C4B22786  37.945  24.478   7.655
 7163POPC   NC322787  19.047   6.688   9.455
 7163POPC   PO422788  19.074   6.633   9.155
 7163POPC   GL122789  19.101   6.674   8.855
 7163POPC   GL222790  19.173   6.679   8.855
 7163POPC   C1A22791  19.094   6.660   8.555
 7163POPC   D2A22792  19.101   6.649   8.255
 7163POPC   C3A22793  19.086   6.683   7.955
 7163POPC   C4A22794  19.034   6.631   7.655
 7163POPC   C1B22795  19.225   6.778   8.555
 7163POPC   C2B22796  19.320   6.817   8.255
 7163POPC   C3B22797  19.223   6.774   7.955
 7163POPC   C4B22798  19.287   6.739   7.655
 7164POPC   NC322799  36.949  18.294   9.455
 7164POPC   PO422800  36.908  18.292   9.155
 7164POPC   GL122801  36.857  18.252   8.855
 7164POPC   GL222802  36.841  18.405   8.855
 7164POPC   C1A22803  36.887  18.247   8.555
 7164POPC   D2A22804  36.883  18.321   8.255
 7164POPC   C3A22805  36.941  18.253   7.955
 7164POPC   C4A22806  36.921  18.249   7.655
 7164POPC   C1B22807  36.800  18.493   8.555
 7164POPC   C2B22808  36.841  18.476   8.255
 7164POPC   C3B22809  36.872  18.525   7.955
 7164POPC   C4B22810  36.823  18.486   7.655
 7165POPC   NC322811  40.028  10.490   9.455
 7165POPC   PO422812  40.008  10.543   9.155
 7165POPC   GL122813  40.052  10.553   8.855
 7165POPC   GL222814  40.089  10.555   8.855
 7165POPC   C1A22815  39.990  10.535   8.555
 7165POPC   D2A22816  39.960  10.491   8.255
 7165POPC   C3A22817  39.980  10.497   7.955
 7165POPC   C4A22818  39.959  10.564   7.655
 7165POPC   C1B22819  40.260  10.561   8.555
 7165POPC   C2B22820  40.297  10.570   8.255
 7165POPC   C3B22821  40.262  10.606   7.955
 7165POPC   C4B22822  40.243  10.576   7.655
 7166POPC   NC322823  21.338  39.273   9.455
 7166POPC   PO422824  21.371  39.234   9.155
 7166POPC   GL122825  21.419  39.242   8.855
 7166POPC   GL222826  21.460  39.111   8.855
 7166POPC   C1A22827  21.383  39.241   8.555
 7166POPC   D2A22828  21.372  39.267   8.255
 7166POPC   C3A22829  21.386  39.194   7.955
 7166POPC   C4A22830  21.418  39.196   7.655
 7166POPC   C1B22831  21.492  39.044   8.555
 7166POPC   C2B22832  21.519  38.990   8.255
 7166POPC   C3B22833  21.534  38.959   7.955
 7166POPC   C4B22834  21.463  39.052   7.655
 7167POPC   NC322835  18.284  42.302   9.455
 7167POPC   PO422836  18.304  42.350   9.155
 7167POPC   GL122837  18.257  42.317   8.855
 7167POPC   GL222838  18.193  42.258   8.855
 7167POPC   C1A22839  18.258  42.291   8.555
 7167POPC   D2A22840  18.288  42.348   8.255
 7167POPC   C3A22841  18.264  42.305   7.955
 7167POPC   C4A22842  18.275  42.352   7.655
 7167POPC   C1B22843  18.186  42.100   8.555
 7167POPC   C2B22844  18.213  42.095   8.255
 7167POPC   C3B22845  18.213  42.151   7.955
 7167POPC   C4B22846  18.142  42.079   7.655
 7168POPC   NC322847  36.908  12.075   9.455
 7168POPC   PO422848  36.874  12.056   9.155
 7168POPC   GL122849  36.927  12.098   8.855
 7168POPC   GL222850  36.856  12.205   8.855
 7168POPC   C1A22851  36.862  12.102   8.555
 7168POPC   D2A22852  36.908  12.123   8.255
 7168POPC   C3A22853  36.855  12.097   7.955
 7168POPC   C4A22854  36.883  12.120   7.655
 7168POPC   C1B22855  36.846  12.328   8.555
 7168POPC   C2B22856  36.845  12.286   8.255
 7168POPC   C3B22857  36.831  12.302   7.955
 7168POPC   C4B22858  36.781  12.317   7.655
 7169POPC   NC322859   5.071  30.684   9.455
 7169POPC   PO422860   5.121  30.679   9.155
 7169POPC   GL122861   5.091  30.664   8.855
 7169POPC   GL222862   5.212  30.600   8.855
 7169POPC   C1A22863   5.099  30.673   8.555
 7169POPC   D2A22864   5.070  30.674   8.255
 7169POPC   C3A22865   5.119  30.655   7.955
 7169POPC   C4A22866   5.092  30.706   7.655
 7169POPC   C1B22867   5.270  30.584   8.555
 7169POPC   C2B22868   5.325  30.566   8.255
 7169POPC   C3B22869   5.325  30.577   7.955
 7169POPC   C4B22870   5.362  30.623   7.655
 7170POPC   NC322871  21.417  40.031   9.455
 7170POPC   PO422872  21.358  40.013   9.155
 7170POPC   GL122873  21.371  40.029   8.855
 7170POPC   GL222874  21.425  39.910   8.855
 7170POPC   C1A22875  21.429  40.028   8.555
 7170POPC   D2A22876  21.365  40.054   8.255
 7170POPC   C3A22877  21.392  40.021   7.955
 7170POPC   C4A22878  21.411  40.012   7.655
 7170POPC   C1B22879  21.471  39.735   8.555
 7170POPC   C2B22880  21.415  39.721   8.255
 7170POPC   C3B22881  21.447  39.786   7.955
 7170POPC   C4B22882  21.424  39.800   7.655
 7171POPC   NC322883  43.907  39.964   9.455
 7171POPC   PO422884  43.912  40.024   9.155
 7171POPC   GL122885  43.930  40.010   8.855
 7171POPC   GL222886  43.909  40.174   8.855
 7171POPC   C1A22887  43.849  39.988   8.555
 7171POPC   D2A22888  43.924  40.044   8.255
 7171POPC   C3A22889  43.841  40.005   7.955
 7171POPC   C4A22890  43.851  39.991   7.655
 7171POPC   C1B22891  43.982  40.266   8.555
 7171POPC   C2B22892  43.944  40.231   8.255
 7171POPC   C3B22893  43.932  40.235   7.955
 7171POPC   C4B22894  43.984  40.265   7.655
 7172POPC   NC322895  36.120   1.959   9.455
 7172POPC   PO422896  36.157   1.966   9.155
 7172POPC   GL122897  36.161   1.978   8.855
 7172POPC   GL222898  36.010   1.892   8.855
 7172POPC   C1A22899  36.146   2.026   8.555
 7172POPC   D2A22900  36.161   1.955   8.255
 7172POPC   C3A22901  36.101   1.951   7.955
 7172POPC   C4A22902  36.083   2.011   7.655
 7172POPC   C1B22903  35.965   1.837   8.555
 7172POPC   C2B22904  35.943   1.802   8.255
 7172POPC   C3B22905  35.995   1.753   7.955
 7172POPC   C4B22906  35.998   1.740   7.655
 7173POPC   NC322907  12.887  19.806   9.455
 7173POPC   PO422908  12.803  19.871   9.155
 7173POPC   GL122909  12.830  19.847   8.855
 7173POPC   GL222910  12.964  19.962   8.855
 7173POPC   C1A22911  12.871  19.842   8.555
 7173POPC   D2A22912  12.898  19.806   8.255
 7173POPC   C3A22913  12.802  19.840   7.955
 7173POPC   C4A22914  12.886  19.830   7.655
 7173POPC   C1B22915  12.981  20.020   8.555
 7173POPC   C2B22916  13.009  20.020   8.255
 7173POPC   C3B22917  13.044  20.036   7.955
 7173POPC   C4B22918  12.982  20.035   7.655
 7174POPC   NC322919  40.823  26.770   9.455
 7174POPC   PO422920  40.782  26.799   9.155
 7174POPC   GL122921  40.805  26.845   8.855
 7174POPC   GL222922  40.676  26.871   8.855
 7174POPC   C1A22923  40.737  26.781   8.555
 7174POPC   D2A22924  40.775  26.815   8.255
 7174POPC   C3A22925  40.777  26.831   7.955
 7174POPC   C4A22926  40.814  26.786   7.655
 7174POPC   C1B22927  40.523  26.926   8.555
 7174POPC   C2B22928  40.566  26.833   8.255
 7174POPC   C3B22929  40.552  26.882   7.955
 7174POPC   C4B22930  40.518  26.902   7.655
 7175POPC   NC322931  30.742  16.713   9.455
 7175POPC   PO422932  30.745  16.686   9.155
 7175POPC   GL122933  30.662  16.760   8.855
 7175POPC   GL222934  30.804  16.681   8.855
 7175POPC   C1A22935  30.653  16.745   8.555
 7175POPC   D2A22936  30.695  16.737   8.255
 7175POPC   C3A22937  30.703  16.717   7.955
 7175POPC   C4A22938  30.650  16.724   7.655
 7175POPC   C1B22939  30.862  16.579   8.555
 7175POPC   C2B22940  30.918  16.553   8.255
 7175POPC   C3B22941  30.913  16.550   7.955
 7175POPC   C4B22942  30.881  16.551   7.655
 7176POPC   NC322943  29.127  41.563   9.455
 7176POPC   PO422944  29.096  41.582   9.155
 7176POPC   GL122945  29.144  41.524   8.855
 7176POPC   GL222946  29.034  41.549   8.855
 7176POPC   C1A22947  29.183  41.515   8.555
 7176POPC   D2A22948  29.169  41.560   8.255
 7176POPC   C3A22949  29.142  41.563   7.955
 7176POPC   C4A22950  29.136  41.560   7.655
 7176POPC   C1B22951  28.916  41.627   8.555
 7176POPC   C2B22952  28.915  41.651   8.255
 7176POPC   C3B22953  28.920  41.642   7.955
 7176POPC   C4B22954  28.945  41.613   7.655
 7177POPC   NC322955  30.670  22.115   9.455
 7177POPC   PO422956  30.667  22.208   9.155
 7177POPC   GL122957  30.712  22.113   8.855
 7177POPC   GL222958  30.756  22.292   8.855
 7177POPC   C1A22959  30.719  22.116   8.555
 7177POPC   D2A22960  30.702  22.133   8.255
 7177POPC   C3A22961  30.729  22.186   7.955
 7177POPC   C4A22962  30.721  22.167   7.655
 7177POPC   C1B22963  30.809  22.416   8.555
 7177POPC   C2B22964  30.837  22.339   8.255
 7177POPC   C3B22965  30.826  22.356   7.955
 7177POPC   C4B22966  30.835  22.422   7.655
 7178POPC   NC322967  22.187  10.489   9.455
 7178POPC   PO422968  22.126  10.487   9.155
 7178POPC   GL122969  22.197  10.546   8.855
 7178POPC   GL222970  22.172  10.663   8.855
 7178POPC   C1A22971  22.193  10.541   8.555
 7178POPC   D2A22972  22.197  10.540   8.255
 7178POPC   C3A22973  22.180  10.565   7.955
 7178POPC   C4A22974  22.172  10.522   7.655
 7178POPC   C1B22975  22.173  10.796   8.555
 7178POPC   C2B22976  22.092  10.741   8.255
 7178POPC   C3B22977  22.104  10.751   7.955
 7178POPC   C4B22978  22.161  10.796   7.655
 7179POPC   NC322979  38.434  41.522   9.455
 7179POPC   PO422980  38.447  41.608   9.155
 7179POPC   GL122981  38.415  41.535   8.855
 7179POPC   GL222982  38.368  41.601   8.855
 7179POPC   C1A22983  38.405  41.570   8.555
 7179POPC   D2A22984  38.450  41.599   8.255
 7179POPC   C3A22985  38.436  41.545   7.955
 7179POPC   C4A22986  38.434  41.571   7.655
 7179POPC   C1B22987  38.280  41.673   8.555
 7179POPC   C2B22988  38.273  41.640   8.255
 7179POPC   C3B22989  38.262  41.718   7.955
 7179POPC   C4B22990  38.235  41.677   7.655
 7180POPC   NC322991  17.544  12.851   9.455
 7180POPC   PO422992  17.495  12.870   9.155
 7180POPC   GL122993  17.485  12.828   8.855
 7180POPC   GL222994  17.431  12.855   8.855
 7180POPC   C1A22995  17.489  12.805   8.555
 7180POPC   D2A22996  17.535  12.890   8.255
 7180POPC   C3A22997  17.520  12.852   7.955
 7180POPC   C4A22998  17.513  12.846   7.655
 7180POPC   C1B22999  17.306  12.812   8.555
 7180POPC   C2B23000  17.214  12.802   8.255
 7180POPC   C3B23001  17.257  12.817   7.955
 7180POPC   C4B23002  17.243  12.844   7.655
 7181POPC   NC323003  43.880  29.893   9.455
 7181POPC   PO423004  43.907  29.902   9.155
 7181POPC   GL123005  43.908  29.896   8.855
 7181POPC   GL223006  43.785  29.856   8.855
 7181POPC   C1A23007  43.915  29.882   8.555
 7181POPC   D2A23008  43.874  29.902   8.255
 7181POPC   C3A23009  43.852  29.938   7.955
 7181POPC   C4A23010  43.841  29.915   7.655
 7181POPC   C1B23011  43.732  29.661   8.555
 7181POPC   C2B23012  43.820  29.739   8.255
 7181POPC   C3B23013  43.764  29.686   7.955
 7181POPC   C4B23014  43.739  29.661   7.655
 7182POPC   NC323015  40.779  20.604   9.455
 7182POPC   PO423016  40.787  20.623   9.155
 7182POPC   GL123017  40.783  20.649   8.855
 7182POPC   GL223018  40.665  20.757   8.855
 7182POPC   C1A23019  40.758  20.652   8.555
 7182POPC   D2A23020  40.832  20.626   8.255
 7182POPC   C3A23021  40.806  20.583   7.955
 7182POPC   C4A23022  40.783  20.634   7.655
 7182POPC   C1B23023  40.673  20.855   8.555
 7182POPC   C2B23024  40.599  20.841   8.255
 7182POPC   C3B23025  40.620  20.796   7.955
 7182POPC   C4B23026  40.634  20.773   7.655
 7183POPC   NC323027  34.530  32.236   9.455
 7183POPC   PO423028  34.532  32.250   9.155
 7183POPC   GL123029  34.563  32.237   8.855
 7183POPC   GL223030  34.579  32.372   8.855
 7183POPC   C1A23031  34.577  32.275   8.555
 7183POPC   D2A23032  34.624  32.273   8.255
 7183POPC   C3A23033  34.589  32.207   7.955
 7183POPC   C4A23034  34.557  32.288   7.655
 7183POPC   C1B23035  34.593  32.466   8.555
 7183POPC   C2B23036  34.520  32.466   8.255
 7183POPC   C3B23037  34.560  32.476   7.955
 7183POPC   C4B23038  34.577  32.534   7.655
 7184POPC   NC323039   5.133  39.226   9.455
 7184POPC   PO423040   5.057  39.262   9.155
 7184POPC   GL123041   5.122  39.256   8.855
 7184POPC   GL223042   4.979  39.157   8.855
 7184POPC   C1A23043   5.105  39.218   8.555
 7184POPC   D2A23044   5.136  39.266   8.255
 7184POPC   C3A23045   5.120  39.250   7.955
 7184POPC   C4A23046   5.136  39.266   7.655
 7184POPC   C1B23047   4.922  39.051   8.555
 7184POPC   C2B23048   4.847  39.050   8.255
 7184POPC   C3B23049   4.872  39.130   7.955
 7184POPC   C4B23050   4.896  39.097   7.655
 7185POPC   NC323051  26.792   2.777   9.455
 7185POPC   PO423052  26.778   2.795   9.155
 7185POPC   GL123053  26.773   2.777   8.855
 7185POPC   GL223054  26.877   2.876   8.855
 7185POPC   C1A23055  26.817   2.727   8.555
 7185POPC   D2A23056  26.833   2.722   8.255
 7185POPC   C3A23057  26.850   2.813   7.955
 7185POPC   C4A23058  26.846   2.812   7.655
 7185POPC   C1B23059  26.853   3.056   8.555
 7185POPC   C2B23060  26.884   2.973   8.255
 7185POPC   C3B23061  26.910   2.975   7.955
 7185POPC   C4B23062  26.902   3.013   7.655
 7186POPC   NC323063  17.495   5.099   9.455
 7186POPC   PO423064  17.536   5.139   9.155
 7186POPC   GL123065  17.525   5.073   8.855
 7186POPC   GL223066  17.439   5.144   8.855
 7186POPC   C1A23067  17.492   5.067   8.555
 7186POPC   D2A23068  17.524   5.058   8.255
 7186POPC   C3A23069  17.528   5.096   7.955
 7186POPC   C4A23070  17.539   5.091   7.655
 7186POPC   C1B23071  17.348   5.190   8.555
 7186POPC   C2B23072  17.349   5.271   8.255
 7186POPC   C3B23073  17.271   5.236   7.955
 7186POPC   C4B23074  17.312   5.202   7.655
 7187POPC   NC323075  38.406  20.582   9.455
 7187POPC   PO423076  38.429  20.620   9.155
 7187POPC   GL123077  38.423  20.598   8.855
 7187POPC   GL223078  38.535  20.534   8.855
 7187POPC   C1A23079  38.417  20.576   8.555
 7187POPC   D2A23080  38.481  20.648   8.255
 7187POPC   C3A23081  38.429  20.614   7.955
 7187POPC   C4A23082  38.477  20.603   7.655
 7187POPC   C1B23083  38.672  20.437   8.555
 7187POPC   C2B23084  38.683  20.482   8.255
 7187POPC   C3B23085  38.715  20.457   7.955
 7187POPC   C4B23086  38.654  20.517   7.655
 7188POPC   NC323087   3.573  21.336   9.455
 7188POPC   PO423088   3.563  21.409   9.155
 7188POPC   GL123089   3.580  21.375   8.855
 7188POPC   GL223090   3.491  21.537   8.855
 7188POPC   C1A23091   3.590  21.406   8.555
 7188POPC   D2A23092   3.529  21.408   8.255
 7188POPC   C3A23093   3.502  21.399   7.955
 7188POPC   C4A23094   3.547  21.376   7.655
 7188POPC   C1B23095   3.430  21.644   8.555
 7188POPC   C2B23096   3.395  21.582   8.255
 7188POPC   C3B23097   3.439  21.600   7.955
 7188POPC   C4B23098   3.377  21.617   7.655
 7189POPC   NC323099  24.533  12.889   9.455
 7189POPC   PO423100  24.507  12.861   9.155
 7189POPC   GL123101  24.510  12.839   8.855
 7189POPC   GL223102  24.427  12.743   8.855
 7189POPC   C1A23103  24.516  12.811   8.555
 7189POPC   D2A23104  24.506  12.828   8.255
 7189POPC   C3A23105  24.461  12.824   7.955
 7189POPC   C4A23106  24.506  12.811   7.655
 7189POPC   C1B23107  24.332  12.724   8.555
 7189POPC   C2B23108  24.345  12.738   8.255
 7189POPC   C3B23109  24.279  12.670   7.955
 7189POPC   C4B23110  24.259  12.727   7.655
 7190POPC   NC323111  10.560  39.279   9.455
 7190POPC   PO423112  10.533  39.227   9.155
 7190POPC   GL123113  10.492  39.217   8.855
 7190POPC   GL223114  10.590  39.137   8.855
 7190POPC   C1A23115  10.482  39.263   8.555
 7190POPC   D2A23116  10.496  39.255   8.255
 7190POPC   C3A23117  10.553  39.185   7.955
 7190POPC   C4A23118  10.484  39.203   7.655
 7190POPC   C1B23119  10.655  39.006   8.555
 7190POPC   C2B23120  10.605  39.036   8.255
 7190POPC   C3B23121  10.617  39.021   7.955
 7190POPC   C4B23122  10.671  39.007   7.655
 7191POPC   NC323123  34.562  25.233   9.455
 7191POPC   PO423124  34.551  25.276   9.155
 7191POPC   GL123125  34.556  25.234   8.855
 7191POPC   GL223126  34.567  25.377   8.855
 7191POPC   C1A23127  34.576  25.240   8.555
 7191POPC   D2A23128  34.557  25.295   8.255
 7191POPC   C3A23129  34.562  25.244   7.955
 7191POPC   C4A23130  34.557  25.279   7.655
 7191POPC   C1B23131  34.451  25.451   8.555
 7191POPC   C2B23132  34.460  25.475   8.255
 7191POPC   C3B23133  34.494  25.488   7.955
 7191POPC   C4B23134  34.485  25.547   7.655
 7192POPC   NC323135  39.205  26.790   9.455
 7192POPC   PO423136  39.246  26.808   9.155
 7192POPC   GL123137  39.198  26.812   8.855
 7192POPC   GL223138  39.169  26.936   8.855
 7192POPC   C1A23139  39.228  26.821   8.555
 7192POPC   D2A23140  39.206  26.790   8.255
 7192POPC   C3A23141  39.262  26.811   7.955
 7192POPC   C4A23142  39.250  26.821   7.655
 7192POPC   C1B23143  39.130  27.014   8.555
 7192POPC   C2B23144  39.149  27.038   8.255
 7192POPC   C3B23145  39.194  27.060   7.955
 7192POPC   C4B23146  39.166  27.070   7.655
 7193POPC   NC323147  19.857  11.340   9.455
 7193POPC   PO423148  19.871  11.293   9.155
 7193POPC   GL123149  19.789  11.268   8.855
 7193POPC   GL223150  19.832  11.417   8.855
 7193POPC   C1A23151  19.796  11.326   8.555
 7193POPC   D2A23152  19.791  11.275   8.255
 7193POPC   C3A23153  19.823  11.322   7.955
 7193POPC   C4A23154  19.819  11.268   7.655
 7193POPC   C1B23155  19.946  11.548   8.555
 7193POPC   C2B23156  19.962  11.544   8.255
 7193POPC   C3B23157  19.944  11.513   7.955
 7193POPC   C4B23158  19.912  11.553   7.655
 7194POPC   NC323159  29.889   0.475   9.455
 7194POPC   PO423160  29.955   0.472   9.155
 7194POPC   GL123161  29.960   0.447   8.855
 7194POPC   GL223162  29.853   0.266   8.855
 7194POPC   C1A23163  29.919   0.477   8.555
 7194POPC   D2A23164  29.895   0.457   8.255
 7194POPC   C3A23165  29.911   0.421   7.955
 7194POPC   C4A23166  29.897   0.468   7.655
 7194POPC   C1B23167  29.909   0.186   8.555
 7194POPC   C2B23168  29.888   0.198   8.255
 7194POPC   C3B23169  29.855   0.146   7.955
 7194POPC   C4B23170  29.875   0.226   7.655
 7195POPC   NC323171  12.030   6.641   9.455
 7195POPC   PO423172  12.111   6.609   9.155
 7195POPC   GL123173  12.039   6.676   8.855
 7195POPC   GL223174  11.994   6.807   8.855
 7195POPC   C1A23175  12.073   6.603   8.555
 7195POPC   D2A23176  12.106   6.684   8.255
 7195POPC   C3A23177  12.065   6.687   7.955
 7195POPC   C4A23178  12.112   6.600   7.655
 7195POPC   C1B23179  11.996   6.896   8.555
 7195POPC   C2B23180  11.988   6.925   8.255
 7195POPC   C3B23181  12.025   6.851   7.955
 7195POPC   C4B23182  11.974   6.842   7.655
 7196POPC   NC323183  21.375  13.628   9.455
 7196POPC   PO423184  21.378  13.583   9.155
 7196POPC   GL123185  21.422  13.650   8.855
 7196POPC   GL223186  21.280  13.591   8.855
 7196POPC   C1A23187  21.356  13.602   8.555
 7196POPC   D2A23188  21.419  13.659   8.255
 7196POPC   C3A23189  21.380  13.642   7.955
 7196POPC   C4A23190  21.346  13.666   7.655
 7196POPC   C1B23191  21.087  13.611   8.555
 7196POPC   C2B23192  21.096  13.599   8.255
 7196POPC   C3B23193  21.111  13.620   7.955
 7196POPC   C4B23194  21.164  13.670   7.655
 7197POPC   NC323195  44.676  20.576   9.455
 7197POPC   PO423196  44.690  20.628   9.155
 7197POPC   GL123197  44.711  20.615   8.855
 7197POPC   GL223198  44.547  20.682   8.855
 7197POPC   C1A23199  44.669  20.608   8.555
 7197POPC   D2A23200  44.627  20.657   8.255
 7197POPC   C3A23201  44.638  20.576   7.955
 7197POPC   C4A23202  44.672  20.576   7.655
 7197POPC   C1B23203  44.494  20.733   8.555
 7197POPC   C2B23204  44.495  20.781   8.255
 7197POPC   C3B23205  44.462  20.729   7.955
 7197POPC   C4B23206  44.423  20.786   7.655
 7198POPC   NC323207  20.580  29.192   9.455
 7198POPC   PO423208  20.639  29.188   9.155
 7198POPC   GL123209  20.639  29.121   8.855
 7198POPC   GL223210  20.460  29.209   8.855
 7198POPC   C1A23211  20.577  29.135   8.555
 7198POPC   D2A23212  20.571  29.171   8.255
 7198POPC   C3A23213  20.657  29.185   7.955
 7198POPC   C4A23214  20.652  29.178   7.655
 7198POPC   C1B23215  20.396  29.214   8.555
 7198POPC   C2B23216  20.334  29.235   8.255
 7198POPC   C3B23217  20.325  29.208   7.955
 7198POPC   C4B23218  20.399  29.221   7.655
 7199POPC   NC323219  28.403  17.536   9.455
 7199POPC   PO423220  28.418  17.520   9.155
 7199POPC   GL123221  28.391  17.519   8.855
 7199POPC   GL223222  28.233  17.497   8.855
 7199POPC   C1A23223  28.380  17.550   8.555
 7199POPC   D2A23224  28.384  17.542   8.255
 7199POPC   C3A23225  28.367  17.458   7.955
 7199POPC   C4A23226  28.410  17.527   7.655
 7199POPC   C1B23227  28.096  17.420   8.555
 7199POPC   C2B23228  28.148  17.433   8.255
 7199POPC   C3B23229  28.143  17.468   7.955
 7199POPC   C4B23230  28.134  17.455   7.655
 7200POPC   NC323231  22.160  11.256   9.455
 7200POPC   PO423232  22.117  11.350   9.155
 7200POPC   GL123233  22.158  11.290   8.855
 7200POPC   GL223234  22.291  11.305   8.855
 7200POPC   C1A23235  22.200  11.296   8.555
 7200POPC   D2A23236  22.167  11.287   8.255
 7200POPC   C3A23237  22.141  11.329   7.955
 7200POPC   C4A23238  22.168  11.337   7.655
 7200POPC   C1B23239  22.379  11.388   8.555
 7200POPC   C2B23240  22.439  11.370   8.255
 7200POPC   C3B23241  22.385  11.422   7.955
 7200POPC   C4B23242  22.384  11.347   7.655
 7201POPC   NC323243  33.047  20.607   9.455
 7201POPC   PO423244  33.034  20.659   9.155
 7201POPC   GL123245  32.983  20.647   8.855
 7201POPC   GL223246  33.153  20.511   8.855
 7201POPC   C1A23247  33.012  20.609   8.555
 7201POPC   D2A23248  33.002  20.650   8.255
 7201POPC   C3A23249  32.994  20.568   7.955
 7201POPC   C4A23250  33.041  20.614   7.655
 7201POPC   C1B23251  33.177  20.466   8.555
 7201POPC   C2B23252  33.208  20.469   8.255
 7201POPC   C3B23253  33.175  20.472   7.955
 7201POPC   C4B23254  33.190  20.499   7.655
 7202POPC   NC323255  18.273   7.420   9.455
 7202POPC   PO423256  18.306   7.454   9.155
 7202POPC   GL123257  18.308   7.410   8.855
 7202POPC   GL223258  18.222   7.270   8.855
 7202POPC   C1A23259  18.253   7.406   8.555
 7202POPC   D2A23260  18.275   7.443   8.255
 7202POPC   C3A23261  18.298   7.399   7.955
 7202POPC   C4A23262  18.283   7.441   7.655
 7202POPC   C1B23263  18.191   7.185   8.555
 7202POPC   C2B23264  18.231   7.176   8.255
 7202POPC   C3B23265  18.272   7.169   7.955
 7202POPC   C4B23266  18.285   7.179   7.655
 7203POPC   NC323267  26.086  34.591   9.455
 7203POPC   PO423268  26.088  34.549   9.155
 7203POPC   GL123269  26.005  34.581   8.855
 7203POPC   GL223270  26.105  34.656   8.855
 7203POPC   C1A23271  26.046  34.566   8.555
 7203POPC   D2A23272  26.039  34.610   8.255
 7203POPC   C3A23273  26.055  34.554   7.955
 7203POPC   C4A23274  26.058  34.593   7.655
 7203POPC   C1B23275  26.108  34.817   8.555
 7203POPC   C2B23276  26.159  34.774   8.255
 7203POPC   C3B23277  26.151  34.790   7.955
 7203POPC   C4B23278  26.073  34.857   7.655
 7204POPC   NC323279  22.200  31.446   9.455
 7204POPC   PO423280  22.199  31.441   9.155
 7204POPC   GL123281  22.194  31.447   8.855
 7204POPC   GL223282  22.175  31.635   8.855
 7204POPC   C1A23283  22.173  31.487   8.555
 7204POPC   D2A23284  22.163  31.490   8.255
 7204POPC   C3A23285  22.126  31.488   7.955
 7204POPC   C4A23286  22.193  31.433   7.655
 7204POPC   C1B23287  22.100  31.692   8.555
 7204POPC   C2B23288  22.185  31.737   8.255
 7204POPC   C3B23289  22.139  31.712   7.955
 7204POPC   C4B23290  22.148  31.705   7.655
 7205POPC   NC323291  40.790   1.979   9.455
 7205POPC   PO423292  40.733   1.980   9.155
 7205POPC   GL123293  40.750   1.992   8.855
 7205POPC   GL223294  40.782   1.847   8.855
 7205POPC   C1A23295  40.778   1.989   8.555
 7205POPC   D2A23296  40.828   1.993   8.255
 7205POPC   C3A23297  40.799   1.943   7.955
 7205POPC   C4A23298  40.805   2.002   7.655
 7205POPC   C1B23299  40.892   1.752   8.555
 7205POPC   C2B23300  40.889   1.755   8.255
 7205POPC   C3B23301  40.858   1.757   7.955
 7205POPC   C4B23302  40.892   1.790   7.655
 7206POPC   NC323303   3.575  36.871   9.455
 7206POPC   PO423304   3.530  36.881   9.155
 7206POPC   GL123305   3.582  36.890   8.855
 7206POPC   GL223306   3.440  36.812   8.855
 7206POPC   C1A23307   3.591  36.890   8.555
 7206POPC   D2A23308   3.524  36.873   8.255
 7206POPC   C3A23309   3.509  36.892   7.955
 7206POPC   C4A23310   3.497  36.868   7.655
 7206POPC   C1B23311   3.325  36.764   8.555
 7206POPC   C2B23312   3.318  36.727   8.255
 7206POPC   C3B23313   3.330  36.823   7.955
 7206POPC   C4B23314   3.348  36.723   7.655
 7207POPC   NC323315  12.082   9.753   9.455
 7207POPC   PO423316  12.054   9.767   9.155
 7207POPC   GL123317  12.069   9.732   8.855
 7207POPC   GL223318  11.994   9.822   8.855
 7207POPC   C1A23319  12.118   9.706   8.555
 7207POPC   D2A23320  12.045   9.705   8.255
 7207POPC   C3A23321  12.103   9.757   7.955
 7207POPC   C4A23322  12.027   9.742   7.655
 7207POPC   C1B23323  11.868   9.822   8.555
 7207POPC   C2B23324  11.789   9.805   8.255
 7207POPC   C3B23325  11.791   9.767   7.955
 7207POPC   C4B23326  11.807   9.759   7.655
 7208POPC   NC323327  26.826  40.796   9.455
 7208POPC   PO423328  26.829  40.802   9.155
 7208POPC   GL123329  26.787  40.794   8.855
 7208POPC   GL223330  26.883  40.692   8.855
 7208POPC   C1A23331  26.860  40.812   8.555
 7208POPC   D2A23332  26.830  40.785   8.255
 7208POPC   C3A23333  26.830  40.789   7.955
 7208POPC   C4A23334  26.862  40.750   7.655
 7208POPC   C1B23335  26.909  40.543   8.555
 7208POPC   C2B23336  26.909  40.564   8.255
 7208POPC   C3B23337  26.893  40.553   7.955
 7208POPC   C4B23338  26.922  40.530   7.655
 7209POPC   NC323339  41.598   2.811   9.455
 7209POPC   PO423340  41.528   2.763   9.155
 7209POPC   GL123341  41.538   2.728   8.855
 7209POPC   GL223342  41.639   2.691   8.855
 7209POPC   C1A23343  41.598   2.754   8.555
 7209POPC   D2A23344  41.523   2.806   8.255
 7209POPC   C3A23345  41.577   2.774   7.955
 7209POPC   C4A23346  41.534   2.721   7.655
 7209POPC   C1B23347  41.604   2.554   8.555
 7209POPC   C2B23348  41.629   2.516   8.255
 7209POPC   C3B23349  41.628   2.536   7.955
 7209POPC   C4B23350  41.630   2.573   7.655
 7210POPC   NC323351  39.246  10.516   9.455
 7210POPC   PO423352  39.202  10.564   9.155
 7210POPC   GL123353  39.251  10.500   8.855
 7210POPC   GL223354  39.330  10.406   8.855
 7210POPC   C1A23355  39.195  10.532   8.555
 7210POPC   D2A23356  39.220  10.563   8.255
 7210POPC   C3A23357  39.193  10.562   7.955
 7210POPC   C4A23358  39.222  10.535   7.655
 7210POPC   C1B23359  39.353  10.324   8.555
 7210POPC   C2B23360  39.437  10.307   8.255
 7210POPC   C3B23361  39.375  10.341   7.955
 7210POPC   C4B23362  39.370  10.348   7.655
 7211POPC   NC323363   8.979  31.426   9.455
 7211POPC   PO423364   8.927  31.461   9.155
 7211POPC   GL123365   8.988  31.505   8.855
 7211POPC   GL223366   8.863  31.495   8.855
 7211POPC   C1A23367   8.926  31.455   8.555
 7211POPC   D2A23368   8.945  31.470   8.255
 7211POPC   C3A23369   8.930  31.474   7.955
 7211POPC   C4A23370   8.983  31.433   7.655
 7211POPC   C1B23371   8.762  31.603   8.555
 7211POPC   C2B23372   8.804  31.624   8.255
 7211POPC   C3B23373   8.767  31.614   7.955
 7211POPC   C4B23374   8.810  31.612   7.655
 7212POPC   NC323375  32.288  16.702   9.455
 7212POPC   PO423376  32.218  16.745   9.155
 7212POPC   GL123377  32.214  16.762   8.855
 7212POPC   GL223378  32.313  16.897   8.855
 7212POPC   C1A23379  32.244  16.681   8.555
 7212POPC   D2A23380  32.213  16.682   8.255
 7212POPC   C3A23381  32.218  16.773   7.955
 7212POPC   C4A23382  32.225  16.687   7.655
 7212POPC   C1B23383  32.283  17.016   8.555
 7212POPC   C2B23384  32.339  16.985   8.255
 7212POPC   C3B23385  32.284  16.935   7.955
 7212POPC   C4B23386  32.289  17.000   7.655
 7213POPC   NC323387  38.442  24.528   9.455
 7213POPC   PO423388  38.465  24.469   9.155
 7213POPC   GL123389  38.462  24.453   8.855
 7213POPC   GL223390  38.383  24.541   8.855
 7213POPC   C1A23391  38.442  24.495   8.555
 7213POPC   D2A23392  38.479  24.516   8.255
 7213POPC   C3A23393  38.466  24.455   7.955
 7213POPC   C4A23394  38.498  24.461   7.655
 7213POPC   C1B23395  38.281  24.568   8.555
 7213POPC   C2B23396  38.279  24.597   8.255
 7213POPC   C3B23397  38.213  24.569   7.955
 7213POPC   C4B23398  38.184  24.598   7.655
 7214POPC   NC323399  12.026  35.373   9.455
 7214POPC   PO423400  12.051  35.386   9.155
 7214POPC   GL123401  12.047  35.353   8.855
 7214POPC   GL223402  11.978  35.403   8.855
 7214POPC   C1A23403  12.093  35.316   8.555
 7214POPC   D2A23404  12.038  35.312   8.255
 7214POPC   C3A23405  12.079  35.388   7.955
 7214POPC   C4A23406  12.102  35.327   7.655
 7214POPC   C1B23407  11.908  35.477   8.555
 7214POPC   C2B23408  11.922  35.482   8.255
 7214POPC   C3B23409  11.847  35.509   7.955
 7214POPC   C4B23410  11.898  35.493   7.655
 7215POPC   NC323411  20.563  15.935   9.455
 7215POPC   PO423412  20.567  15.923   9.155
 7215POPC   GL123413  20.611  15.914   8.855
 7215POPC   GL223414  20.773  15.937   8.855
 7215POPC   C1A23415  20.647  15.914   8.555
 7215POPC   D2A23416  20.637  15.966   8.255
 7215POPC   C3A23417  20.608  15.993   7.955
 7215POPC   C4A23418  20.643  15.913   7.655
 7215POPC   C1B23419  20.818  15.880   8.555
 7215POPC   C2B23420  20.886  15.810   8.255
 7215POPC   C3B23421  20.879  15.880   7.955
 7215POPC   C4B23422  20.889  15.877   7.655
 7216POPC   NC323423  38.475  10.530   9.455
 7216POPC   PO423424  38.462  10.541   9.155
 7216POPC   GL123425  38.416  10.498   8.855
 7216POPC   GL223426  38.611  10.536   8.855
 7216POPC   C1A23427  38.479  10.545   8.555
 7216POPC   D2A23428  38.453  10.513   8.255
 7216POPC   C3A23429  38.504  10.520   7.955
 7216POPC   C4A23430  38.423  10.530   7.655
 7216POPC   C1B23431  38.688  10.608   8.555
 7216POPC   C2B23432  38.746  10.585   8.255
 7216POPC   C3B23433  38.701  10.592   7.955
 7216POPC   C4B23434  38.687  10.539   7.655
 7217POPC   NC323435  41.529  12.034   9.455
 7217POPC   PO423436  41.567  12.093   9.155
 7217POPC   GL123437  41.576  12.103   8.855
 7217POPC   GL223438  41.636  12.130   8.855
 7217POPC   C1A23439  41.581  12.104   8.555
 7217POPC   D2A23440  41.571  12.125   8.255
 7217POPC   C3A23441  41.513  12.065   7.955
 7217POPC   C4A23442  41.529  12.113   7.655
 7217POPC   C1B23443  41.753  12.179   8.555
 7217POPC   C2B23444  41.753  12.132   8.255
 7217POPC   C3B23445  41.801  12.219   7.955
 7217POPC   C4B23446  41.763  12.192   7.655
 7218POPC   NC323447  39.233  19.877   9.455
 7218POPC   PO423448  39.194  19.811   9.155
 7218POPC   GL123449  39.216  19.818   8.855
 7218POPC   GL223450  39.145  19.829   8.855
 7218POPC   C1A23451  39.249  19.873   8.555
 7218POPC   D2A23452  39.205  19.815   8.255
 7218POPC   C3A23453  39.231  19.820   7.955
 7218POPC   C4A23454  39.217  19.809   7.655
 7218POPC   C1B23455  39.025  19.893   8.555
 7218POPC   C2B23456  38.966  19.871   8.255
 7218POPC   C3B23457  39.012  19.871   7.955
 7218POPC   C4B23458  38.967  19.841   7.655
 7219POPC   NC323459  43.881   1.208   9.455
 7219POPC   PO423460  43.878   1.235   9.155
 7219POPC   GL123461  43.840   1.263   8.855
 7219POPC   GL223462  43.885   1.356   8.855
 7219POPC   C1A23463  43.872   1.219   8.555
 7219POPC   D2A23464  43.861   1.244   8.255
 7219POPC   C3A23465  43.855   1.251   7.955
 7219POPC   C4A23466  43.877   1.166   7.655
 7219POPC   C1B23467  43.972   1.405   8.555
 7219POPC   C2B23468  43.961   1.406   8.255
 7219POPC   C3B23469  43.989   1.427   7.955
 7219POPC   C4B23470  43.989   1.407   7.655
 7220POPC   NC323471  40.799   0.411   9.455
 7220POPC   PO423472  40.760   0.430   9.155
 7220POPC   GL123473  40.755   0.447   8.855
 7220POPC   GL223474  40.866   0.400   8.855
 7220POPC   C1A23475  40.794   0.408   8.555
 7220POPC   D2A23476  40.751   0.442   8.255
 7220POPC   C3A23477  40.832   0.406   7.955
 7220POPC   C4A23478  40.827   0.478   7.655
 7220POPC   C1B23479  41.012   0.376   8.555
 7220POPC   C2B23480  41.062   0.424   8.255
 7220POPC   C3B23481  41.060   0.420   7.955
 7220POPC   C4B23482  41.002   0.348   7.655
 7221POPC   NC323483  15.915  40.024   9.455
 7221POPC   PO423484  15.967  39.995   9.155
 7221POPC   GL123485  16.004  40.029   8.855
 7221POPC   GL223486  16.033  39.911   8.855
 7221POPC   C1A23487  15.983  39.972   8.555
 7221POPC   D2A23488  15.971  39.981   8.255
 7221POPC   C3A23489  15.990  39.960   7.955
 7221POPC   C4A23490  15.973  40.007   7.655
 7221POPC   C1B23491  16.201  39.919   8.555
 7221POPC   C2B23492  16.168  39.850   8.255
 7221POPC   C3B23493  16.222  39.870   7.955
 7221POPC   C4B23494  16.217  39.905   7.655
 7222POPC   NC323495  43.933  10.493   9.455
 7222POPC   PO423496  43.894  10.493   9.155
 7222POPC   GL123497  43.906  10.521   8.855
 7222POPC   GL223498  43.960  10.616   8.855
 7222POPC   C1A23499  43.936  10.556   8.555
 7222POPC   D2A23500  43.884  10.511   8.255
 7222POPC   C3A23501  43.913  10.475   7.955
 7222POPC   C4A23502  43.884  10.515   7.655
 7222POPC   C1B23503  43.991  10.799   8.555
 7222POPC   C2B23504  44.004  10.722   8.255
 7222POPC   C3B23505  43.971  10.770   7.955
 7222POPC   C4B23506  43.971  10.813   7.655
 7223POPC   NC323507  43.132  35.308   9.455
 7223POPC   PO423508  43.148  35.352   9.155
 7223POPC   GL123509  43.154  35.401   8.855
 7223POPC   GL223510  43.280  35.401   8.855
 7223POPC   C1A23511  43.155  35.377   8.555
 7223POPC   D2A23512  43.072  35.351   8.255
 7223POPC   C3A23513  43.110  35.373   7.955
 7223POPC   C4A23514  43.144  35.399   7.655
 7223POPC   C1B23515  43.324  35.394   8.555
 7223POPC   C2B23516  43.367  35.327   8.255
 7223POPC   C3B23517  43.356  35.410   7.955
 7223POPC   C4B23518  43.405  35.330   7.655
 7224POPC   NC323519   3.558  29.185   9.455
 7224POPC   PO423520   3.532  29.175   9.155
 7224POPC   GL123521   3.552  29.149   8.855
 7224POPC   GL223522   3.437  29.181   8.855
 7224POPC   C1A23523   3.578  29.145   8.555
 7224POPC   D2A23524   3.534  29.187   8.255
 7224POPC   C3A23525   3.574  29.101   7.955
 7224POPC   C4A23526   3.582  29.137   7.655
 7224POPC   C1B23527   3.341  29.278   8.555
 7224POPC   C2B23528   3.347  29.297   8.255
 7224POPC   C3B23529   3.286  29.249   7.955
 7224POPC   C4B23530   3.287  29.205   7.655
 7225POPC   NC323531   4.332  16.780   9.455
 7225POPC   PO423532   4.347  16.702   9.155
 7225POPC   GL123533   4.362  16.732   8.855
 7225POPC   GL223534   4.420  16.684   8.855
 7225POPC   C1A23535   4.321  16.709   8.555
 7225POPC   D2A23536   4.299  16.685   8.255
 7225POPC   C3A23537   4.299  16.778   7.955
 7225POPC   C4A23538   4.304  16.780   7.655
 7225POPC   C1B23539   4.534  16.559   8.555
 7225POPC   C2B23540   4.526  16.541   8.255
 7225POPC   C3B23541   4.498  16.510   7.955
 7225POPC   C4B23542   4.457  16.529   7.655
 7226POPC   NC323543  31.466   2.022   9.455
 7226POPC   PO423544  31.425   2.017   9.155
 7226POPC   GL123545  31.450   1.984   8.855
 7226POPC   GL223546  31.605   2.055   8.855
 7226POPC   C1A23547  31.478   1.987   8.555
 7226POPC   D2A23548  31.501   2.000   8.255
 7226POPC   C3A23549  31.432   1.948   7.955
 7226POPC   C4A23550  31.431   1.989   7.655
 7226POPC   C1B23551  31.692   2.080   8.555
 7226POPC   C2B23552  31.732   2.142   8.255
 7226POPC   C3B23553  31.681   2.155   7.955
 7226POPC   C4B23554  31.680   2.103   7.655
 7227POPC   NC323555  37.707  18.318   9.455
 7227POPC   PO423556  37.680  18.332   9.155
 7227POPC   GL123557  37.664  18.263   8.855
 7227POPC   GL223558  37.801  18.197   8.855
 7227POPC   C1A23559  37.642  18.285   8.555
 7227POPC   D2A23560  37.726  18.282   8.255
 7227POPC   C3A23561  37.630  18.244   7.955
 7227POPC   C4A23562  37.660  18.307   7.655
 7227POPC   C1B23563  37.913  18.169   8.555
 7227POPC   C2B23564  37.825  18.143   8.255
 7227POPC   C3B23565  37.901  18.169   7.955
 7227POPC   C4B23566  37.863  18.153   7.655
 7228POPC   NC323567  13.642  32.222   9.455
 7228POPC   PO423568  13.613  32.258   9.155
 7228POPC   GL123569  13.607  32.243   8.855
 7228POPC   GL223570  13.698  32.303   8.855
 7228POPC   C1A23571  13.600  32.230   8.555
 7228POPC   D2A23572  13.625  32.231   8.255
 7228POPC   C3A23573  13.592  32.264   7.955
 7228POPC   C4A23574  13.618  32.224   7.655
 7228POPC   C1B23575  13.858  32.372   8.555
 7228POPC   C2B23576  13.828  32.359   8.255
 7228POPC   C3B23577  13.792  32.437   7.955
 7228POPC   C4B23578  13.845  32.352   7.655
 7229POPC   NC323579   3.539  12.084   9.455
 7229POPC   PO423580   3.563  12.066   9.155
 7229POPC   GL123581   3.500  12.081   8.855
 7229POPC   GL223582   3.601  12.167   8.855
 7229POPC   C1A23583   3.496  12.068   8.555
 7229POPC   D2A23584   3.584  12.051   8.255
 7229POPC   C3A23585   3.553  12.065   7.955
 7229POPC   C4A23586   3.510  12.039   7.655
 7229POPC   C1B23587   3.611  12.287   8.555
 7229POPC   C2B23588   3.580  12.336   8.255
 7229POPC   C3B23589   3.614  12.357   7.955
 7229POPC   C4B23590   3.580  12.334   7.655
 7230POPC   NC323591  44.688   1.260   9.455
 7230POPC   PO423592  44.652   1.194   9.155
 7230POPC   GL123593  44.687   1.203   8.855
 7230POPC   GL223594  44.588   1.154   8.855
 7230POPC   C1A23595  44.638   1.225   8.555
 7230POPC   D2A23596  44.647   1.174   8.255
 7230POPC   C3A23597  44.621   1.244   7.955
 7230POPC   C4A23598  44.667   1.253   7.655
 7230POPC   C1B23599  44.578   0.976   8.555
 7230POPC   C2B23600  44.498   0.968   8.255
 7230POPC   C3B23601  44.516   1.000   7.955
 7230POPC   C4B23602  44.582   1.014   7.655
 7231POPC   NC323603  36.931   4.318   9.455
 7231POPC   PO423604  36.948   4.305   9.155
 7231POPC   GL123605  36.922   4.336   8.855
 7231POPC   GL223606  36.835   4.211   8.855
 7231POPC   C1A23607  36.862   4.291   8.555
 7231POPC   D2A23608  36.920   4.361   8.255
 7231POPC   C3A23609  36.882   4.330   7.955
 7231POPC   C4A23610  36.906   4.333   7.655
 7231POPC   C1B23611  36.763   4.099   8.555
 7231POPC   C2B23612  36.721   4.193   8.255
 7231POPC   C3B23613  36.757   4.133   7.955
 7231POPC   C4B23614  36.752   4.187   7.655
 7232POPC   NC323615  29.174   2.721   9.455
 7232POPC   PO423616  29.143   2.758   9.155
 7232POPC   GL123617  29.130   2.767   8.855
 7232POPC   GL223618  29.046   2.716   8.855
 7232POPC   C1A23619  29.147   2.815   8.555
 7232POPC   D2A23620  29.146   2.810   8.255
 7232POPC   C3A23621  29.138   2.805   7.955
 7232POPC   C4A23622  29.131   2.724   7.655
 7232POPC   C1B23623  29.001   2.552   8.555
 7232POPC   C2B23624  28.956   2.554   8.255
 7232POPC   C3B23625  28.948   2.545   7.955
 7232POPC   C4B23626  28.995   2.630   7.655
 7233POPC   NC323627  14.390  22.894   9.455
 7233POPC   PO423628  14.418  22.939   9.155
 7233POPC   GL123629  14.388  22.982   8.855
 7233POPC   GL223630  14.295  22.831   8.855
 7233POPC   C1A23631  14.356  22.893   8.555
 7233POPC   D2A23632  14.402  22.899   8.255
 7233POPC   C3A23633  14.404  22.908   7.955
 7233POPC   C4A23634  14.452  22.978   7.655
 7233POPC   C1B23635  14.171  22.824   8.555
 7233POPC   C2B23636  14.228  22.844   8.255
 7233POPC   C3B23637  14.139  22.786   7.955
 7233POPC   C4B23638  14.170  22.788   7.655
 7234POPC   NC323639  40.748  29.963   9.455
 7234POPC   PO423640  40.779  29.882   9.155
 7234POPC   GL123641  40.811  29.882   8.855
 7234POPC   GL223642  40.655  29.927   8.855
 7234POPC   C1A23643  40.826  29.922   8.555
 7234POPC   D2A23644  40.745  29.915   8.255
 7234POPC   C3A23645  40.793  29.918   7.955
 7234POPC   C4A23646  40.785  29.961   7.655
 7234POPC   C1B23647  40.487  29.853   8.555
 7234POPC   C2B23648  40.538  29.872   8.255
 7234POPC   C3B23649  40.562  29.926   7.955
 7234POPC   C4B23650  40.508  29.886   7.655
 7235POPC   NC323651  41.515  43.067   9.455
 7235POPC   PO423652  41.511  43.086   9.155
 7235POPC   GL123653  41.540  43.142   8.855
 7235POPC   GL223654  41.556  43.203   8.855
 7235POPC   C1A23655  41.602  43.135   8.555
 7235POPC   D2A23656  41.513  43.155   8.255
 7235POPC   C3A23657  41.585  43.122   7.955
 7235POPC   C4A23658  41.558  43.144   7.655
 7235POPC   C1B23659  41.642  43.298   8.555
 7235POPC   C2B23660  41.646  43.359   8.255
 7235POPC   C3B23661  41.618  43.308   7.955
 7235POPC   C4B23662  41.676  43.334   7.655
 7236POPC   NC323663  43.847  12.110   9.455
 7236POPC   PO423664  43.884  12.037   9.155
 7236POPC   GL123665  43.879  12.068   8.855
 7236POPC   GL223666  43.825  12.134   8.855
 7236POPC   C1A23667  43.861  12.062   8.555
 7236POPC   D2A23668  43.871  12.113   8.255
 7236POPC   C3A23669  43.853  12.104   7.955
 7236POPC   C4A23670  43.851  12.029   7.655
 7236POPC   C1B23671  43.688  12.271   8.555
 7236POPC   C2B23672  43.741  12.255   8.255
 7236POPC   C3B23673  43.739  12.279   7.955
 7236POPC   C4B23674  43.729  12.274   7.655
 7237POPC   NC323675  39.199  12.896   9.455
 7237POPC   PO423676  39.210  12.880   9.155
 7237POPC   GL123677  39.276  12.855   8.855
 7237POPC   GL223678  39.293  12.953   8.855
 7237POPC   C1A23679  39.242  12.850   8.555
 7237POPC   D2A23680  39.197  12.881   8.255
 7237POPC   C3A23681  39.246  12.811   7.955
 7237POPC   C4A23682  39.201  12.884   7.655
 7237POPC   C1B23683  39.326  13.108   8.555
 7237POPC   C2B23684  39.319  13.068   8.255
 7237POPC   C3B23685  39.270  13.051   7.955
 7237POPC   C4B23686  39.287  13.134   7.655
 7238POPC   NC323687  10.512  19.858   9.455
 7238POPC   PO423688  10.488  19.854   9.155
 7238POPC   GL123689  10.512  19.839   8.855
 7238POPC   GL223690  10.449  19.953   8.855
 7238POPC   C1A23691  10.544  19.826   8.555
 7238POPC   D2A23692  10.542  19.803   8.255
 7238POPC   C3A23693  10.529  19.835   7.955
 7238POPC   C4A23694  10.495  19.816   7.655
 7238POPC   C1B23695  10.392  19.999   8.555
 7238POPC   C2B23696  10.359  20.051   8.255
 7238POPC   C3B23697  10.361  20.058   7.955
 7238POPC   C4B23698  10.407  20.037   7.655
 7239POPC   NC323699   7.466  21.391   9.455
 7239POPC   PO423700   7.403  21.345   9.155
 7239POPC   GL123701   7.407  21.422   8.855
 7239POPC   GL223702   7.327  21.504   8.855
 7239POPC   C1A23703   7.439  21.346   8.555
 7239POPC   D2A23704   7.384  21.388   8.255
 7239POPC   C3A23705   7.446  21.363   7.955
 7239POPC   C4A23706   7.427  21.374   7.655
 7239POPC   C1B23707   7.338  21.563   8.555
 7239POPC   C2B23708   7.333  21.625   8.255
 7239POPC   C3B23709   7.282  21.577   7.955
 7239POPC   C4B23710   7.249  21.635   7.655
 7240POPC   NC323711   1.963   4.319   9.455
 7240POPC   PO423712   1.956   4.321   9.155
 7240POPC   GL123713   1.957   4.359   8.855
 7240POPC   GL223714   2.095   4.449   8.855
 7240POPC   C1A23715   2.006   4.297   8.555
 7240POPC   D2A23716   1.956   4.363   8.255
 7240POPC   C3A23717   1.951   4.323   7.955
 7240POPC   C4A23718   2.017   4.316   7.655
 7240POPC   C1B23719   2.188   4.511   8.555
 7240POPC   C2B23720   2.182   4.508   8.255
 7240POPC   C3B23721   2.162   4.467   7.955
 7240POPC   C4B23722   2.124   4.551   7.655
 7241POPC   NC323723  29.926   2.009   9.455
 7241POPC   PO423724  29.930   1.946   9.155
 7241POPC   GL123725  29.918   1.972   8.855
 7241POPC   GL223726  30.027   2.094   8.855
 7241POPC   C1A23727  29.942   1.995   8.555
 7241POPC   D2A23728  29.953   2.015   8.255
 7241POPC   C3A23729  29.950   2.039   7.955
 7241POPC   C4A23730  29.873   1.999   7.655
 7241POPC   C1B23731  30.113   2.141   8.555
 7241POPC   C2B23732  30.090   2.184   8.255
 7241POPC   C3B23733  30.113   2.120   7.955
 7241POPC   C4B23734  30.082   2.146   7.655
 7242POPC   NC323735  19.024   9.733   9.455
 7242POPC   PO423736  19.072   9.748   9.155
 7242POPC   GL123737  19.025   9.792   8.855
 7242POPC   GL223738  19.075   9.867   8.855
 7242POPC   C1A23739  19.056   9.704   8.555
 7242POPC   D2A23740  19.061   9.742   8.255
 7242POPC   C3A23741  19.048   9.734   7.955
 7242POPC   C4A23742  19.077   9.702   7.655
 7242POPC   C1B23743  19.144  10.010   8.555
 7242POPC   C2B23744  19.179   9.969   8.255
 7242POPC   C3B23745  19.144  10.001   7.955
 7242POPC   C4B23746  19.177   9.926   7.655
 7243POPC   NC323747  34.589  36.873   9.455
 7243POPC   PO423748  34.606  36.930   9.155
 7243POPC   GL123749  34.600  36.894   8.855
 7243POPC   GL223750  34.454  36.785   8.855
 7243POPC   C1A23751  34.570  36.869   8.555
 7243POPC   D2A23752  34.591  36.886   8.255
 7243POPC   C3A23753  34.556  36.913   7.955
 7243POPC   C4A23754  34.605  36.904   7.655
 7243POPC   C1B23755  34.377  36.733   8.555
 7243POPC   C2B23756  34.363  36.728   8.255
 7243POPC   C3B23757  34.351  36.777   7.955
 7243POPC   C4B23758  34.397  36.776   7.655
 7244POPC   NC323759  39.967   1.178   9.455
 7244POPC   PO423760  39.985   1.253   9.155
 7244POPC   GL123761  40.012   1.232   8.855
 7244POPC   GL223762  40.099   1.284   8.855
 7244POPC   C1A23763  39.974   1.186   8.555
 7244POPC   D2A23764  40.038   1.215   8.255
 7244POPC   C3A23765  40.038   1.247   7.955
 7244POPC   C4A23766  40.032   1.179   7.655
 7244POPC   C1B23767  40.137   1.362   8.555
 7244POPC   C2B23768  40.208   1.368   8.255
 7244POPC   C3B23769  40.208   1.431   7.955
 7244POPC   C4B23770  40.132   1.359   7.655
 7245POPC   NC323771  39.995  16.748   9.455
 7245POPC   PO423772  40.053  16.777   9.155
 7245POPC   GL123773  39.985  16.731   8.855
 7245POPC   GL223774  39.928  16.759   8.855
 7245POPC   C1A23775  39.958  16.748   8.555
 7245POPC   D2A23776  39.999  16.694   8.255
 7245POPC   C3A23777  39.975  16.728   7.955
 7245POPC   C4A23778  40.039  16.764   7.655
 7245POPC   C1B23779  39.708  16.692   8.555
 7245POPC   C2B23780  39.731  16.690   8.255
 7245POPC   C3B23781  39.759  16.732   7.955
 7245POPC   C4B23782  39.804  16.769   7.655
 7246POPC   NC323783  23.735  12.045   9.455
 7246POPC   PO423784  23.677  12.111   9.155
 7246POPC   GL123785  23.721  12.101   8.855
 7246POPC   GL223786  23.546  12.073   8.855
 7246POPC   C1A23787  23.737  12.122   8.555
 7246POPC   D2A23788  23.694  12.102   8.255
 7246POPC   C3A23789  23.684  12.040   7.955
 7246POPC   C4A23790  23.753  12.088   7.655
 7246POPC   C1B23791  23.489  12.049   8.555
 7246POPC   C2B23792  23.494  12.095   8.255
 7246POPC   C3B23793  23.512  12.119   7.955
 7246POPC   C4B23794  23.427  12.089   7.655
 7247POPC   NC323795  15.145  11.300   9.455
 7247POPC   PO423796  15.175  11.300   9.155
 7247POPC   GL123797  15.156  11.295   8.855
 7247POPC   GL223798  15.200  11.397   8.855
 7247POPC   C1A23799  15.164  11.339   8.555
 7247POPC   D2A23800  15.208  11.257   8.255
 7247POPC   C3A23801  15.133  11.271   7.955
 7247POPC   C4A23802  15.163  11.343   7.655
 7247POPC   C1B23803  15.235  11.510   8.555
 7247POPC   C2B23804  15.301  11.564   8.255
 7247POPC   C3B23805  15.271  11.508   7.955
 7247POPC   C4B23806  15.229  11.547   7.655
 7248POPC   NC323807  29.875  29.131   9.455
 7248POPC   PO423808  29.945  29.126   9.155
 7248POPC   GL123809  29.968  29.142   8.855
 7248POPC   GL223810  29.810  29.034   8.855
 7248POPC   C1A23811  29.909  29.096   8.555
 7248POPC   D2A23812  29.871  29.170   8.255
 7248POPC   C3A23813  29.872  29.192   7.955
 7248POPC   C4A23814  29.966  29.116   7.655
 7248POPC   C1B23815  29.768  28.982   8.555
 7248POPC   C2B23816  29.753  28.960   8.255
 7248POPC   C3B23817  29.762  28.958   7.955
 7248POPC   C4B23818  29.721  29.039   7.655
 7249POPC   NC323819  37.716   3.518   9.455
 7249POPC   PO423820  37.719   3.563   9.155
 7249POPC   GL123821  37.706   3.496   8.855
 7249POPC   GL223822  37.598   3.428   8.855
 7249POPC   C1A23823  37.723   3.493   8.555
 7249POPC   D2A23824  37.687   3.586   8.255
 7249POPC   C3A23825  37.647   3.558   7.955
 7249POPC   C4A23826  37.680   3.506   7.655
 7249POPC   C1B23827  37.473   3.416   8.555
 7249POPC   C2B23828  37.498   3.364   8.255
 7249POPC   C3B23829  37.496   3.396   7.955
 7249POPC   C4B23830  37.491   3.391   7.655
 7250POPC   NC323831   8.169  29.966   9.455
 7250POPC   PO423832   8.150  29.955   9.155
 7250POPC   GL123833   8.223  29.875   8.855
 7250POPC   GL223834   8.113  29.797   8.855
 7250POPC   C1A23835   8.228  29.939   8.555
 7250POPC   D2A23836   8.218  29.925   8.255
 7250POPC   C3A23837   8.151  29.931   7.955
 7250POPC   C4A23838   8.186  29.957   7.655
 7250POPC   C1B23839   8.095  29.718   8.555
 7250POPC   C2B23840   8.085  29.749   8.255
 7250POPC   C3B23841   8.065  29.677   7.955
 7250POPC   C4B23842   8.094  29.666   7.655
 7251POPC   NC323843  25.300  11.294   9.455
 7251POPC   PO423844  25.272  11.291   9.155
 7251POPC   GL123845  25.226  11.325   8.855
 7251POPC   GL223846  25.188  11.403   8.855
 7251POPC   C1A23847  25.248  11.285   8.555
 7251POPC   D2A23848  25.243  11.312   8.255
 7251POPC   C3A23849  25.290  11.277   7.955
 7251POPC   C4A23850  25.297  11.259   7.655
 7251POPC   C1B23851  25.090  11.438   8.555
 7251POPC   C2B23852  25.016  11.376   8.255
 7251POPC   C3B23853  25.070  11.375   7.955
 7251POPC   C4B23854  25.035  11.429   7.655
 7252POPC   NC323855   5.908  20.610   9.455
 7252POPC   PO423856   5.896  20.603   9.155
 7252POPC   GL123857   5.908  20.567   8.855
 7252POPC   GL223858   6.027  20.711   8.855
 7252POPC   C1A23859   5.881  20.585   8.555
 7252POPC   D2A23860   5.831  20.618   8.255
 7252POPC   C3A23861   5.870  20.640   7.955
 7252POPC   C4A23862   5.821  20.646   7.655
 7252POPC   C1B23863   6.048  20.686   8.555
 7252POPC   C2B23864   6.066  20.727   8.255
 7252POPC   C3B23865   6.053  20.689   7.955
 7252POPC   C4B23866   6.131  20.708   7.655
 7253POPC   NC323867  26.003  19.018   9.455
 7253POPC   PO423868  25.993  19.085   9.155
 7253POPC   GL123869  26.078  19.045   8.855
 7253POPC   GL223870  25.911  18.986   8.855
 7253POPC   C1A23871  25.996  19.101   8.555
 7253POPC   D2A23872  26.024  19.011   8.255
 7253POPC   C3A23873  26.051  19.044   7.955
 7253POPC   C4A23874  26.056  19.027   7.655
 7253POPC   C1B23875  25.766  19.023   8.555
 7253POPC   C2B23876  25.806  18.980   8.255
 7253POPC   C3B23877  25.792  19.002   7.955
 7253POPC   C4B23878  25.778  18.977   7.655
 7254POPC   NC323879  12.847  24.470   9.455
 7254POPC   PO423880  12.818  24.467   9.155
 7254POPC   GL123881  12.873  24.480   8.855
 7254POPC   GL223882  12.958  24.523   8.855
 7254POPC   C1A23883  12.872  24.491   8.555
 7254POPC   D2A23884  12.887  24.454   8.255
 7254POPC   C3A23885  12.806  24.510   7.955
 7254POPC   C4A23886  12.869  24.503   7.655
 7254POPC   C1B23887  13.125  24.546   8.555
 7254POPC   C2B23888  13.105  24.543   8.255
 7254POPC   C3B23889  13.139  24.513   7.955
 7254POPC   C4B23890  13.045  24.587   7.655
 7255POPC   NC323891  44.672  22.983   9.455
 7255POPC   PO423892  44.653  22.914   9.155
 7255POPC   GL123893  44.696  22.930   8.855
 7255POPC   GL223894  44.585  22.864   8.855
 7255POPC   C1A23895  44.663  22.892   8.555
 7255POPC   D2A23896  44.663  22.966   8.255
 7255POPC   C3A23897  44.703  22.960   7.955
 7255POPC   C4A23898  44.613  22.947   7.655
 7255POPC   C1B23899  44.609  22.688   8.555
 7255POPC   C2B23900  44.638  22.732   8.255
 7255POPC   C3B23901  44.599  22.704   7.955
 7255POPC   C4B23902  44.571  22.725   7.655
 7256POPC   NC323903  26.828   9.737   9.455
 7256POPC   PO423904  26.792   9.778   9.155
 7256POPC   GL123905  26.809   9.797   8.855
 7256POPC   GL223906  26.926   9.694   8.855
 7256POPC   C1A23907  26.837   9.747   8.555
 7256POPC   D2A23908  26.812   9.767   8.255
 7256POPC   C3A23909  26.803   9.740   7.955
 7256POPC   C4A23910  26.777   9.719   7.655
 7256POPC   C1B23911  27.034   9.543   8.555
 7256POPC   C2B23912  26.992   9.596   8.255
 7256POPC   C3B23913  27.036   9.560   7.955
 7256POPC   C4B23914  26.983   9.551   7.655
 7257POPC   NC323915   8.150  15.912   9.455
 7257POPC   PO423916   8.185  15.940   9.155
 7257POPC   GL123917   8.194  15.968   8.855
 7257POPC   GL223918   8.200  15.836   8.855
 7257POPC   C1A23919   8.176  15.975   8.555
 7257POPC   D2A23920   8.155  15.948   8.255
 7257POPC   C3A23921   8.205  15.966   7.955
 7257POPC   C4A23922   8.159  15.913   7.655
 7257POPC   C1B23923   8.232  15.665   8.555
 7257POPC   C2B23924   8.199  15.676   8.255
 7257POPC   C3B23925   8.159  15.725   7.955
 7257POPC   C4B23926   8.216  15.738   7.655
 7258POPC   NC323927  43.898  40.788   9.455
 7258POPC   PO423928  43.894  40.821   9.155
 7258POPC   GL123929  43.879  40.748   8.855
 7258POPC   GL223930  44.032  40.831   8.855
 7258POPC   C1A23931  43.903  40.776   8.555
 7258POPC   D2A23932  43.911  40.827   8.255
 7258POPC   C3A23933  43.857  40.782   7.955
 7258POPC   C4A23934  43.929  40.746   7.655
 7258POPC   C1B23935  44.084  40.839   8.555
 7258POPC   C2B23936  44.089  40.780   8.255
 7258POPC   C3B23937  44.129  40.809   7.955
 7258POPC   C4B23938  44.107  40.799   7.655
 7259POPC   NC323939  38.411  44.682   9.455
 7259POPC   PO423940  38.450  44.680   9.155
 7259POPC   GL123941  38.498  44.649   8.855
 7259POPC   GL223942  38.413  44.517   8.855
 7259POPC   C1A23943  38.470  44.679   8.555
 7259POPC   D2A23944  38.493  44.702   8.255
 7259POPC   C3A23945  38.454  44.645   7.955
 7259POPC   C4A23946  38.418  44.683   7.655
 7259POPC   C1B23947  38.408  44.374   8.555
 7259POPC   C2B23948  38.404  44.422   8.255
 7259POPC   C3B23949  38.405  44.385   7.955
 7259POPC   C4B23950  38.396  44.442   7.655
 7260POPC   NC323951   9.013   9.000   9.455
 7260POPC   PO423952   8.940   8.934   9.155
 7260POPC   GL123953   8.973   9.014   8.855
 7260POPC   GL223954   8.940   8.871   8.855
 7260POPC   C1A23955   8.944   9.003   8.555
 7260POPC   D2A23956   8.965   8.987   8.255
 7260POPC   C3A23957   8.975   8.970   7.955
 7260POPC   C4A23958   8.925   8.958   7.655
 7260POPC   C1B23959   8.843   8.757   8.555
 7260POPC   C2B23960   8.764   8.782   8.255
 7260POPC   C3B23961   8.784   8.811   7.955
 7260POPC   C4B23962   8.840   8.809   7.655
 7261POPC   NC323963  25.998  43.849   9.455
 7261POPC   PO423964  26.051  43.932   9.155
 7261POPC   GL123965  26.005  43.899   8.855
 7261POPC   GL223966  26.009  44.032   8.855
 7261POPC   C1A23967  26.005  43.909   8.555
 7261POPC   D2A23968  26.054  43.908   8.255
 7261POPC   C3A23969  26.018  43.894   7.955
 7261POPC   C4A23970  26.083  43.921   7.655
 7261POPC   C1B23971  26.002  44.163   8.555
 7261POPC   C2B23972  25.986  44.095   8.255
 7261POPC   C3B23973  25.952  44.147   7.955
 7261POPC   C4B23974  26.014  44.142   7.655
 7262POPC   NC323975   4.334  20.624   9.455
 7262POPC   PO423976   4.333  20.615   9.155
 7262POPC   GL123977   4.351  20.599   8.855
 7262POPC   GL223978   4.395  20.626   8.855
 7262POPC   C1A23979   4.303  20.589   8.555
 7262POPC   D2A23980   4.307  20.573   8.255
 7262POPC   C3A23981   4.278  20.572   7.955
 7262POPC   C4A23982   4.362  20.648   7.655
 7262POPC   C1B23983   4.513  20.669   8.555
 7262POPC   C2B23984   4.533  20.664   8.255
 7262POPC   C3B23985   4.581  20.707   7.955
 7262POPC   C4B23986   4.563  20.660   7.655
 7263POPC   NC323987  15.935  44.691   9.455
 7263POPC   PO423988  15.939  44.639   9.155
 7263POPC   GL123989  15.942  44.653   8.855
 7263POPC   GL223990  15.841  44.583   8.855
 7263POPC   C1A23991  15.922  44.703   8.555
 7263POPC   D2A23992  15.975  44.637   8.255
 7263POPC   C3A23993  15.959  44.626   7.955
 7263POPC   C4A23994  15.925  44.685   7.655
 7263POPC   C1B23995  15.805  44.473   8.555
 7263POPC   C2B23996  15.723  44.500   8.255
 7263POPC   C3B23997  15.783  44.538   7.955
 7263POPC   C4B23998  15.798  44.460   7.655
 7264POPC   NC323999  17.502   9.757   9.455
 7264POPC   PO424000  17.507   9.791   9.155
 7264POPC   GL124001  17.457   9.749   8.855
 7264POPC   GL224002  17.427   9.586   8.855
 7264POPC   C1A24003  17.475   9.758   8.555
 7264POPC   D2A24004  17.485   9.770   8.255
 7264POPC   C3A24005  17.493   9.788   7.955
 7264POPC   C4A24006  17.493   9.769   7.655
 7264POPC   C1B24007  17.404   9.553   8.555
 7264POPC   C2B24008  17.440   9.526   8.255
 7264POPC   C3B24009  17.462   9.497   7.955
 7264POPC   C4B24010  17.429   9.465   7.655
 7265POPC   NC324011  36.173  38.462   9.455
 7265POPC   PO424012  36.092  38.463   9.155
 7265POPC   GL124013  36.126  38.472   8.855
 7265POPC   GL224014  36.073  38.385   8.855
 7265POPC   C1A24015  36.093  38.413   8.555
 7265POPC   D2A24016  36.118  38.479   8.255
 7265POPC   C3A24017  36.119  38.449   7.955
 7265POPC   C4A24018  36.120  38.446   7.655
 7265POPC   C1B24019  35.987  38.201   8.555
 7265POPC   C2B24020  35.979  38.278   8.255
 7265POPC   C3B24021  36.057  38.201   7.955
 7265POPC   C4B24022  36.060  38.251   7.655
 7266POPC   NC324023  13.607  23.691   9.455
 7266POPC   PO424024  13.677  23.733   9.155
 7266POPC   GL124025  13.588  23.692   8.855
 7266POPC   GL224026  13.561  23.817   8.855
 7266POPC   C1A24027  13.599  23.687   8.555
 7266POPC   D2A24028  13.618  23.755   8.255
 7266POPC   C3A24029  13.637  23.757   7.955
 7266POPC   C4A24030  13.620  23.721   7.655
 7266POPC   C1B24031  13.561  23.945   8.555
 7266POPC   C2B24032  13.568  23.901   8.255
 7266POPC   C3B24033  13.552  23.905   7.955
 7266POPC   C4B24034  13.497  23.936   7.655
 7267POPC   NC324035   3.501  33.017   9.455
 7267POPC   PO424036   3.531  33.052   9.155
 7267POPC   GL124037   3.511  32.985   8.855
 7267POPC   GL224038   3.514  32.935   8.855
 7267POPC   C1A24039   3.540  33.056   8.555
 7267POPC   D2A24040   3.518  33.059   8.255
 7267POPC   C3A24041   3.586  32.991   7.955
 7267POPC   C4A24042   3.506  33.064   7.655
 7267POPC   C1B24043   3.529  32.787   8.555
 7267POPC   C2B24044   3.530  32.770   8.255
 7267POPC   C3B24045   3.507  32.735   7.955
 7267POPC   C4B24046   3.491  32.820   7.655
 7268POPC   NC324047  43.887  37.683   9.455
 7268POPC   PO424048  43.840  37.693   9.155
 7268POPC   GL124049  43.903  37.711   8.855
 7268POPC   GL224050  43.731  37.649   8.855
 7268POPC   C1A24051  43.869  37.702   8.555
 7268POPC   D2A24052  43.853  37.679   8.255
 7268POPC   C3A24053  43.891  37.706   7.955
 7268POPC   C4A24054  43.858  37.689   7.655
 7268POPC   C1B24055  43.697  37.609   8.555
 7268POPC   C2B24056  43.681  37.578   8.255
 7268POPC   C3B24057  43.609  37.618   7.955
 7268POPC   C4B24058  43.634  37.553   7.655
 7269POPC   NC324059   4.339   5.124   9.455
 7269POPC   PO424060   4.286   5.069   9.155
 7269POPC   GL124061   4.311   5.082   8.855
 7269POPC   GL224062   4.373   5.222   8.855
 7269POPC   C1A24063   4.362   5.100   8.555
 7269POPC   D2A24064   4.295   5.068   8.255
 7269POPC   C3A24065   4.352   5.100   7.955
 7269POPC   C4A24066   4.326   5.138   7.655
 7269POPC   C1B24067   4.475   5.259   8.555
 7269POPC   C2B24068   4.463   5.320   8.255
 7269POPC   C3B24069   4.444   5.262   7.955
 7269POPC   C4B24070   4.484   5.317   7.655
 7270POPC   NC324071  35.372   6.650   9.455
 7270POPC   PO424072  35.326   6.671   9.155
 7270POPC   GL124073  35.397   6.686   8.855
 7270POPC   GL224074  35.438   6.660   8.855
 7270POPC   C1A24075  35.367   6.623   8.555
 7270POPC   D2A24076  35.314   6.671   8.255
 7270POPC   C3A24077  35.389   6.625   7.955
 7270POPC   C4A24078  35.303   6.674   7.655
 7270POPC   C1B24079  35.612   6.602   8.555
 7270POPC   C2B24080  35.621   6.595   8.255
 7270POPC   C3B24081  35.590   6.628   7.955
 7270POPC   C4B24082  35.626   6.633   7.655
 7271POPC   NC324083  30.684  43.888   9.455
 7271POPC   PO424084  30.744  43.921   9.155
 7271POPC   GL124085  30.694  43.868   8.855
 7271POPC   GL224086  30.771  43.798   8.855
 7271POPC   C1A24087  30.707  43.857   8.555
 7271POPC   D2A24088  30.650  43.886   8.255
 7271POPC   C3A24089  30.660  43.881   7.955
 7271POPC   C4A24090  30.743  43.896   7.655
 7271POPC   C1B24091  30.895  43.707   8.555
 7271POPC   C2B24092  30.901  43.749   8.255
 7271POPC   C3B24093  30.921  43.769   7.955
 7271POPC   C4B24094  30.884  43.764   7.655
 7272POPC   NC324095  43.132  19.813   9.455
 7272POPC   PO424096  43.069  19.871   9.155
 7272POPC   GL124097  43.141  19.818   8.855
 7272POPC   GL224098  43.033  19.800   8.855
 7272POPC   C1A24099  43.102  19.792   8.555
 7272POPC   D2A24100  43.143  19.830   8.255
 7272POPC   C3A24101  43.102  19.805   7.955
 7272POPC   C4A24102  43.114  19.794   7.655
 7272POPC   C1B24103  42.817  19.802   8.555
 7272POPC   C2B24104  42.854  19.806   8.255
 7272POPC   C3B24105  42.899  19.790   7.955
 7272POPC   C4B24106  42.837  19.821   7.655
 7273POPC   NC324107  22.145   5.056   9.455
 7273POPC   PO424108  22.186   5.107   9.155
 7273POPC   GL124109  22.193   5.063   8.855
 7273POPC   GL224110  22.120   5.226   8.855
 7273POPC   C1A24111  22.176   5.058   8.555
 7273POPC   D2A24112  22.158   5.100   8.255
 7273POPC   C3A24113  22.150   5.067   7.955
 7273POPC   C4A24114  22.187   5.077   7.655
 7273POPC   C1B24115  22.178   5.382   8.555
 7273POPC   C2B24116  22.183   5.382   8.255
 7273POPC   C3B24117  22.164   5.355   7.955
 7273POPC   C4B24118  22.132   5.350   7.655
 7274POPC   NC324119   0.430  13.611   9.455
 7274POPC   PO424120   0.439  13.635   9.155
 7274POPC   GL124121   0.424  13.587   8.855
 7274POPC   GL224122   0.371  13.525   8.855
 7274POPC   C1A24123   0.451  13.638   8.555
 7274POPC   D2A24124   0.474  13.634   8.255
 7274POPC   C3A24125   0.465  13.667   7.955
 7274POPC   C4A24126   0.455  13.641   7.655
 7274POPC   C1B24127   0.300  13.378   8.555
 7274POPC   C2B24128   0.349  13.364   8.255
 7274POPC   C3B24129   0.260  13.391   7.955
 7274POPC   C4B24130   0.339  13.372   7.655
 7275POPC   NC324131  15.962  33.763   9.455
 7275POPC   PO424132  15.956  33.817   9.155
 7275POPC   GL124133  15.984  33.753   8.855
 7275POPC   GL224134  16.076  33.761   8.855
 7275POPC   C1A24135  15.960  33.763   8.555
 7275POPC   D2A24136  15.955  33.812   8.255
 7275POPC   C3A24137  15.945  33.800   7.955
 7275POPC   C4A24138  15.994  33.825   7.655
 7275POPC   C1B24139  16.204  33.631   8.555
 7275POPC   C2B24140  16.190  33.648   8.255
 7275POPC   C3B24141  16.206  33.684   7.955
 7275POPC   C4B24142  16.191  33.616   7.655
 7276POPC   NC324143  15.196  39.223   9.455
 7276POPC   PO424144  15.140  39.195   9.155
 7276POPC   GL124145  15.212  39.218   8.855
 7276POPC   GL224146  15.086  39.206   8.855
 7276POPC   C1A24147  15.148  39.244   8.555
 7276POPC   D2A24148  15.149  39.244   8.255
 7276POPC   C3A24149  15.178  39.230   7.955
 7276POPC   C4A24150  15.210  39.182   7.655
 7276POPC   C1B24151  14.922  39.145   8.555
 7276POPC   C2B24152  14.939  39.109   8.255
 7276POPC   C3B24153  14.989  39.076   7.955
 7276POPC   C4B24154  14.999  39.092   7.655
 7277POPC   NC324155   8.200  28.410   9.455
 7277POPC   PO424156   8.229  28.359   9.155
 7277POPC   GL124157   8.153  28.401   8.855
 7277POPC   GL224158   8.300  28.404   8.855
 7277POPC   C1A24159   8.173  28.397   8.555
 7277POPC   D2A24160   8.184  28.367   8.255
 7277POPC   C3A24161   8.215  28.415   7.955
 7277POPC   C4A24162   8.242  28.333   7.655
 7277POPC   C1B24163   8.380  28.485   8.555
 7277POPC   C2B24164   8.407  28.505   8.255
 7277POPC   C3B24165   8.342  28.548   7.955
 7277POPC   C4B24166   8.387  28.528   7.655
 7278POPC   NC324167   8.151  42.334   9.455
 7278POPC   PO424168   8.186  42.323   9.155
 7278POPC   GL124169   8.235  42.365   8.855
 7278POPC   GL224170   8.130  42.221   8.855
 7278POPC   C1A24171   8.186  42.363   8.555
 7278POPC   D2A24172   8.220  42.296   8.255
 7278POPC   C3A24173   8.245  42.329   7.955
 7278POPC   C4A24174   8.214  42.360   7.655
 7278POPC   C1B24175   8.155  42.094   8.555
 7278POPC   C2B24176   8.125  42.064   8.255
 7278POPC   C3B24177   8.101  42.082   7.955
 7278POPC   C4B24178   8.173  42.056   7.655
 7279POPC   NC324179  30.717   7.414   9.455
 7279POPC   PO424180  30.726   7.437   9.155
 7279POPC   GL124181  30.738   7.467   8.855
 7279POPC   GL224182  30.599   7.346   8.855
 7279POPC   C1A24183  30.698   7.414   8.555
 7279POPC   D2A24184  30.721   7.395   8.255
 7279POPC   C3A24185  30.651   7.378   7.955
 7279POPC   C4A24186  30.733   7.449   7.655
 7279POPC   C1B24187  30.515   7.214   8.555
 7279POPC   C2B24188  30.516   7.260   8.255
 7279POPC   C3B24189  30.477   7.246   7.955
 7279POPC   C4B24190  30.457   7.257   7.655
 7280POPC   NC324191  27.543   2.027   9.455
 7280POPC   PO424192  27.589   1.957   9.155
 7280POPC   GL124193  27.623   1.969   8.855
 7280POPC   GL224194  27.642   2.084   8.855
 7280POPC   C1A24195  27.597   2.029   8.555
 7280POPC   D2A24196  27.607   1.991   8.255
 7280POPC   C3A24197  27.556   2.038   7.955
 7280POPC   C4A24198  27.639   1.940   7.655
 7280POPC   C1B24199  27.798   2.233   8.555
 7280POPC   C2B24200  27.788   2.221   8.255
 7280POPC   C3B24201  27.709   2.193   7.955
 7280POPC   C4B24202  27.727   2.150   7.655
 7281POPC   NC324203  21.357  36.898   9.455
 7281POPC   PO424204  21.359  36.912   9.155
 7281POPC   GL124205  21.377  36.864   8.855
 7281POPC   GL224206  21.546  36.938   8.855
 7281POPC   C1A24207  21.404  36.886   8.555
 7281POPC   D2A24208  21.409  36.913   8.255
 7281POPC   C3A24209  21.339  36.857   7.955
 7281POPC   C4A24210  21.364  36.927   7.655
 7281POPC   C1B24211  21.598  36.976   8.555
 7281POPC   C2B24212  21.602  37.018   8.255
 7281POPC   C3B24213  21.595  36.977   7.955
 7281POPC   C4B24214  21.654  37.005   7.655
 7282POPC   NC324215  35.389  18.253   9.455
 7282POPC   PO424216  35.384  18.272   9.155
 7282POPC   GL124217  35.329  18.269   8.855
 7282POPC   GL224218  35.486  18.291   8.855
 7282POPC   C1A24219  35.307  18.326   8.555
 7282POPC   D2A24220  35.366  18.306   8.255
 7282POPC   C3A24221  35.344  18.238   7.955
 7282POPC   C4A24222  35.316  18.303   7.655
 7282POPC   C1B24223  35.554  18.286   8.555
 7282POPC   C2B24224  35.616  18.273   8.255
 7282POPC   C3B24225  35.628  18.228   7.955
 7282POPC   C4B24226  35.616  18.225   7.655
 7283POPC   NC324227  25.248   1.192   9.455
 7283POPC   PO424228  25.266   1.189   9.155
 7283POPC   GL124229  25.248   1.183   8.855
 7283POPC   GL224230  25.269   1.077   8.855
 7283POPC   C1A24231  25.303   1.166   8.555
 7283POPC   D2A24232  25.260   1.169   8.255
 7283POPC   C3A24233  25.221   1.238   7.955
 7283POPC   C4A24234  25.231   1.263   7.655
 7283POPC   C1B24235  25.351   0.959   8.555
 7283POPC   C2B24236  25.274   0.966   8.255
 7283POPC   C3B24237  25.340   0.933   7.955
 7283POPC   C4B24238  25.289   0.998   7.655
 7284POPC   NC324239   0.483  22.118   9.455
 7284POPC   PO424240   0.456  22.206   9.155
 7284POPC   GL124241   0.470  22.206   8.855
 7284POPC   GL224242   0.312  22.070   8.855
 7284POPC   C1A24243   0.404  22.201   8.555
 7284POPC   D2A24244   0.403  22.153   8.255
 7284POPC   C3A24245   0.463  22.179   7.955
 7284POPC   C4A24246   0.393  22.139   7.655
 7284POPC   C1B24247   0.261  21.954   8.555
 7284POPC   C2B24248   0.216  21.960   8.255
 7284POPC   C3B24249   0.284  22.031   7.955
 7284POPC   C4B24250   0.209  21.947   7.655
 7285POPC   NC324251  24.537  36.164   9.455
 7285POPC   PO424252  24.474  36.113   9.155
 7285POPC   GL124253  24.464  36.160   8.855
 7285POPC   GL224254  24.410  36.046   8.855
 7285POPC   C1A24255  24.458  36.087   8.555
 7285POPC   D2A24256  24.486  36.112   8.255
 7285POPC   C3A24257  24.537  36.108   7.955
 7285POPC   C4A24258  24.446  36.148   7.655
 7285POPC   C1B24259  24.290  36.061   8.555
 7285POPC   C2B24260  24.306  35.992   8.255
 7285POPC   C3B24261  24.232  36.006   7.955
 7285POPC   C4B24262  24.241  36.039   7.655
 7286POPC   NC324263  37.655  12.059   9.455
 7286POPC   PO424264  37.676  12.096   9.155
 7286POPC   GL124265  37.679  12.104   8.855
 7286POPC   GL224266  37.625  11.983   8.855
 7286POPC   C1A24267  37.647  12.125   8.555
 7286POPC   D2A24268  37.633  12.101   8.255
 7286POPC   C3A24269  37.701  12.113   7.955
 7286POPC   C4A24270  37.708  12.051   7.655
 7286POPC   C1B24271  37.496  11.928   8.555
 7286POPC   C2B24272  37.478  11.892   8.255
 7286POPC   C3B24273  37.490  11.899   7.955
 7286POPC   C4B24274  37.520  11.856   7.655
 7287POPC   NC324275   2.770  22.180   9.455
 7287POPC   PO424276   2.741  22.186   9.155
 7287POPC   GL124277   2.732  22.183   8.855
 7287POPC   GL224278   2.805  22.306   8.855
 7287POPC   C1A24279   2.791  22.120   8.555
 7287POPC   D2A24280   2.768  22.209   8.255
 7287POPC   C3A24281   2.787  22.174   7.955
 7287POPC   C4A24282   2.798  22.136   7.655
 7287POPC   C1B24283   2.927  22.402   8.555
 7287POPC   C2B24284   2.879  22.357   8.255
 7287POPC   C3B24285   2.897  22.386   7.955
 7287POPC   C4B24286   2.907  22.388   7.655
 7288POPC   NC324287   9.711  40.784   9.455
 7288POPC   PO424288   9.785  40.749   9.155
 7288POPC   GL124289   9.733  40.798   8.855
 7288POPC   GL224290   9.709  40.890   8.855
 7288POPC   C1A24291   9.767  40.798   8.555
 7288POPC   D2A24292   9.719  40.822   8.255
 7288POPC   C3A24293   9.746  40.791   7.955
 7288POPC   C4A24294   9.705  40.831   7.655
 7288POPC   C1B24295   9.661  41.047   8.555
 7288POPC   C2B24296   9.608  40.988   8.255
 7288POPC   C3B24297   9.660  41.059   7.955
 7288POPC   C4B24298   9.683  41.058   7.655
 7289POPC   NC324299  44.644   8.194   9.455
 7289POPC   PO424300  44.680   8.215   9.155
 7289POPC   GL124301  44.648   8.213   8.855
 7289POPC   GL224302  44.761   8.233   8.855
 7289POPC   C1A24303  44.650   8.166   8.555
 7289POPC   D2A24304  44.651   8.229   8.255
 7289POPC   C3A24305  44.638   8.219   7.955
 7289POPC   C4A24306  44.687   8.176   7.655
 7289POPC   C1B24307  44.960   8.168   8.555
 7289POPC   C2B24308  44.891   8.189   8.255
 7289POPC   C3B24309  44.893   8.248   7.955
 7289POPC   C4B24310  44.957   8.207   7.655
 7290POPC   NC324311  24.449  37.704   9.455
 7290POPC   PO424312  24.488  37.655   9.155
 7290POPC   GL124313  24.458  37.697   8.855
 7290POPC   GL224314  24.388  37.662   8.855
 7290POPC   C1A24315  24.496  37.639   8.555
 7290POPC   D2A24316  24.518  37.646   8.255
 7290POPC   C3A24317  24.446  37.675   7.955
 7290POPC   C4A24318  24.473  37.718   7.655
 7290POPC   C1B24319  24.235  37.587   8.555
 7290POPC   C2B24320  24.256  37.587   8.255
 7290POPC   C3B24321  24.265  37.575   7.955
 7290POPC   C4B24322  24.208  37.603   7.655
 7291POPC   NC324323   9.000   4.304   9.455
 7291POPC   PO424324   8.931   4.348   9.155
 7291POPC   GL124325   8.937   4.324   8.855
 7291POPC   GL224326   9.040   4.347   8.855
 7291POPC   C1A24327   9.013   4.282   8.555
 7291POPC   D2A24328   8.971   4.352   8.255
 7291POPC   C3A24329   8.952   4.275   7.955
 7291POPC   C4A24330   8.934   4.277   7.655
 7291POPC   C1B24331   9.212   4.377   8.555
 7291POPC   C2B24332   9.159   4.400   8.255
 7291POPC   C3B24333   9.239   4.383   7.955
 7291POPC   C4B24334   9.184   4.366   7.655
 7292POPC   NC324335  16.690  13.632   9.455
 7292POPC   PO424336  16.682  13.645   9.155
 7292POPC   GL124337  16.718  13.620   8.855
 7292POPC   GL224338  16.904  13.599   8.855
 7292POPC   C1A24339  16.770  13.663   8.555
 7292POPC   D2A24340  16.739  13.677   8.255
 7292POPC   C3A24341  16.684  13.583   7.955
 7292POPC   C4A24342  16.776  13.668   7.655
 7292POPC   C1B24343  16.994  13.597   8.555
 7292POPC   C2B24344  16.989  13.625   8.255
 7292POPC   C3B24345  16.992  13.614   7.955
 7292POPC   C4B24346  17.001  13.630   7.655
 7293POPC   NC324347  42.313  20.656   9.455
 7293POPC   PO424348  42.373  20.628   9.155
 7293POPC   GL124349  42.351  20.619   8.855
 7293POPC   GL224350  42.398  20.575   8.855
 7293POPC   C1A24351  42.315  20.659   8.555
 7293POPC   D2A24352  42.348  20.630   8.255
 7293POPC   C3A24353  42.348  20.596   7.955
 7293POPC   C4A24354  42.302  20.619   7.655
 7293POPC   C1B24355  42.529  20.462   8.555
 7293POPC   C2B24356  42.581  20.463   8.255
 7293POPC   C3B24357  42.566  20.458   7.955
 7293POPC   C4B24358  42.548  20.508   7.655
 7294POPC   NC324359  19.101  41.538   9.455
 7294POPC   PO424360  19.078  41.571   9.155
 7294POPC   GL124361  19.031  41.529   8.855
 7294POPC   GL224362  19.031  41.474   8.855
 7294POPC   C1A24363  19.098  41.588   8.555
 7294POPC   D2A24364  19.080  41.575   8.255
 7294POPC   C3A24365  19.042  41.564   7.955
 7294POPC   C4A24366  19.088  41.561   7.655
 7294POPC   C1B24367  19.082  41.353   8.555
 7294POPC   C2B24368  19.046  41.297   8.255
 7294POPC   C3B24369  19.072  41.328   7.955
 7294POPC   C4B24370  19.018  41.352   7.655
 7295POPC   NC324371  31.453   0.455   9.455
 7295POPC   PO424372  31.507   0.414   9.155
 7295POPC   GL124373  31.488   0.420   8.855
 7295POPC   GL224374  31.327   0.514   8.855
 7295POPC   C1A24375  31.513   0.457   8.555
 7295POPC   D2A24376  31.448   0.487   8.255
 7295POPC   C3A24377  31.519   0.425   7.955
 7295POPC   C4A24378  31.458   0.484   7.655
 7295POPC   C1B24379  31.257   0.569   8.555
 7295POPC   C2B24380  31.283   0.531   8.255
 7295POPC   C3B24381  31.280   0.506   7.955
 7295POPC   C4B24382  31.269   0.582   7.655
 7296POPC   NC324383  18.284  36.082   9.455
 7296POPC   PO424384  18.246  36.155   9.155
 7296POPC   GL124385  18.251  36.176   8.855
 7296POPC   GL224386  18.334  35.984   8.855
 7296POPC   C1A24387  18.265  36.092   8.555
 7296POPC   D2A24388  18.316  36.115   8.255
 7296POPC   C3A24389  18.250  36.078   7.955
 7296POPC   C4A24390  18.241  36.102   7.655
 7296POPC   C1B24391  18.435  35.970   8.555
 7296POPC   C2B24392  18.430  35.878   8.255
 7296POPC   C3B24393  18.476  35.938   7.955
 7296POPC   C4B24394  18.413  35.883   7.655
 7297POPC   NC324395  40.745  29.192   9.455
 7297POPC   PO424396  40.777  29.170   9.155
 7297POPC   GL124397  40.828  29.172   8.855
 7297POPC   GL224398  40.690  29.279   8.855
 7297POPC   C1A24399  40.799  29.134   8.555
 7297POPC   D2A24400  40.829  29.145   8.255
 7297POPC   C3A24401  40.751  29.183   7.955
 7297POPC   C4A24402  40.823  29.137   7.655
 7297POPC   C1B24403  40.616  29.338   8.555
 7297POPC   C2B24404  40.610  29.376   8.255
 7297POPC   C3B24405  40.691  29.313   7.955
 7297POPC   C4B24406  40.675  29.367   7.655
 7298POPC   NC324407   0.478  43.093   9.455
 7298POPC   PO424408   0.447  43.128   9.155
 7298POPC   GL124409   0.474  43.084   8.855
 7298POPC   GL224410   0.406  42.990   8.855
 7298POPC   C1A24411   0.475  43.151   8.555
 7298POPC   D2A24412   0.415  43.076   8.255
 7298POPC   C3A24413   0.421  43.099   7.955
 7298POPC   C4A24414   0.469  43.065   7.655
 7298POPC   C1B24415   0.402  42.887   8.555
 7298POPC   C2B24416   0.450  42.843   8.255
 7298POPC   C3B24417   0.378  42.902   7.955
 7298POPC   C4B24418   0.408  42.881   7.655
 7299POPC   NC324419   8.934  33.047   9.455
 7299POPC   PO424420   8.935  32.981   9.155
 7299POPC   GL124421   8.947  33.036   8.855
 7299POPC   GL224422   8.939  32.867   8.855
 7299POPC   C1A24423   8.974  32.990   8.555
 7299POPC   D2A24424   8.957  33.019   8.255
 7299POPC   C3A24425   8.959  32.997   7.955
 7299POPC   C4A24426   8.976  32.981   7.655
 7299POPC   C1B24427   8.888  32.740   8.555
 7299POPC   C2B24428   8.908  32.772   8.255
 7299POPC   C3B24429   8.941  32.755   7.955
 7299POPC   C4B24430   8.938  32.825   7.655
 7300POPC   NC324431  16.728  36.080   9.455
 7300POPC   PO424432  16.731  36.176   9.155
 7300POPC   GL124433  16.732  36.141   8.855
 7300POPC   GL224434  16.664  36.208   8.855
 7300POPC   C1A24435  16.758  36.129   8.555
 7300POPC   D2A24436  16.769  36.123   8.255
 7300POPC   C3A24437  16.710  36.155   7.955
 7300POPC   C4A24438  16.686  36.097   7.655
 7300POPC   C1B24439  16.650  36.406   8.555
 7300POPC   C2B24440  16.633  36.402   8.255
 7300POPC   C3B24441  16.630  36.361   7.955
 7300POPC   C4B24442  16.637  36.388   7.655
 7301POPC   NC324443  24.512  19.816   9.455
 7301POPC   PO424444  24.527  19.835   9.155
 7301POPC   GL124445  24.498  19.809   8.855
 7301POPC   GL224446  24.517  19.976   8.855
 7301POPC   C1A24447  24.484  19.864   8.555
 7301POPC   D2A24448  24.483  19.861   8.255
 7301POPC   C3A24449  24.458  19.801   7.955
 7301POPC   C4A24450  24.533  19.812   7.655
 7301POPC   C1B24451  24.507  20.046   8.555
 7301POPC   C2B24452  24.515  20.125   8.255
 7301POPC   C3B24453  24.568  20.060   7.955
 7301POPC   C4B24454  24.582  20.048   7.655
 7302POPC   NC324455  33.816  22.126   9.455
 7302POPC   PO424456  33.785  22.186   9.155
 7302POPC   GL124457  33.779  22.140   8.855
 7302POPC   GL224458  33.889  22.137   8.855
 7302POPC   C1A24459  33.823  22.115   8.555
 7302POPC   D2A24460  33.829  22.135   8.255
 7302POPC   C3A24461  33.760  22.151   7.955
 7302POPC   C4A24462  33.788  22.145   7.655
 7302POPC   C1B24463  34.052  22.109   8.555
 7302POPC   C2B24464  34.004  22.131   8.255
 7302POPC   C3B24465  34.045  22.073   7.955
 7302POPC   C4B24466  34.065  22.076   7.655
 7303POPC   NC324467   1.244  37.696   9.455
 7303POPC   PO424468   1.209  37.644   9.155
 7303POPC   GL124469   1.222  37.709   8.855
 7303POPC   GL224470   1.187  37.570   8.855
 7303POPC   C1A24471   1.217  37.701   8.555
 7303POPC   D2A24472   1.228  37.636   8.255
 7303POPC   C3A24473   1.263  37.683   7.955
 7303POPC   C4A24474   1.242  37.711   7.655
 7303POPC   C1B24475   1.263  37.428   8.555
 7303POPC   C2B24476   1.190  37.464   8.255
 7303POPC   C3B24477   1.201  37.434   7.955
 7303POPC   C4B24478   1.176  37.423   7.655
 7304POPC   NC324479   7.469  40.013   9.455
 7304POPC   PO424480   7.428  40.047   9.155
 7304POPC   GL124481   7.417  40.011   8.855
 7304POPC   GL224482   7.503  39.932   8.855
 7304POPC   C1A24483   7.470  40.020   8.555
 7304POPC   D2A24484   7.414  40.027   8.255
 7304POPC   C3A24485   7.440  39.966   7.955
 7304POPC   C4A24486   7.460  39.999   7.655
 7304POPC   C1B24487   7.546  39.803   8.555
 7304POPC   C2B24488   7.517  39.736   8.255
 7304POPC   C3B24489   7.566  39.790   7.955
 7304POPC   C4B24490   7.510  39.826   7.655
 7305POPC   NC324491  26.791  41.521   9.455
 7305POPC   PO424492  26.810  41.560   9.155
 7305POPC   GL124493  26.862  41.539   8.855
 7305POPC   GL224494  26.732  41.669   8.855
 7305POPC   C1A24495  26.854  41.569   8.555
 7305POPC   D2A24496  26.861  41.580   8.255
 7305POPC   C3A24497  26.809  41.607   7.955
 7305POPC   C4A24498  26.797  41.514   7.655
 7305POPC   C1B24499  26.598  41.674   8.555
 7305POPC   C2B24500  26.650  41.698   8.255
 7305POPC   C3B24501  26.667  41.679   7.955
 7305POPC   C4B24502  26.622  41.743   7.655
 7306POPC   NC324503  43.135  26.835   9.455
 7306POPC   PO424504  43.151  26.772   9.155
 7306POPC   GL124505  43.127  26.801   8.855
 7306POPC   GL224506  43.121  26.741   8.855
 7306POPC   C1A24507  43.140  26.814   8.555
 7306POPC   D2A24508  43.140  26.778   8.255
 7306POPC   C3A24509  43.128  26.777   7.955
 7306POPC   C4A24510  43.160  26.844   7.655
 7306POPC   C1B24511  43.063  26.608   8.555
 7306POPC   C2B24512  43.079  26.549   8.255
 7306POPC   C3B24513  42.996  26.586   7.955
 7306POPC   C4B24514  43.062  26.606   7.655
 7307POPC   NC324515  16.705  14.401   9.455
 7307POPC   PO424516  16.722  14.431   9.155
 7307POPC   GL124517  16.740  14.437   8.855
 7307POPC   GL224518  16.656  14.341   8.855
 7307POPC   C1A24519  16.697  14.446   8.555
 7307POPC   D2A24520  16.682  14.419   8.255
 7307POPC   C3A24521  16.717  14.378   7.955
 7307POPC   C4A24522  16.761  14.388   7.655
 7307POPC   C1B24523  16.573  14.233   8.555
 7307POPC   C2B24524  16.564  14.206   8.255
 7307POPC   C3B24525  16.576  14.185   7.955
 7307POPC   C4B24526  16.599  14.173   7.655
 7308POPC   NC324527   8.988  19.049   9.455
 7308POPC   PO424528   8.970  19.027   9.155
 7308POPC   GL124529   9.000  19.094   8.855
 7308POPC   GL224530   9.096  19.018   8.855
 7308POPC   C1A24531   8.937  19.079   8.555
 7308POPC   D2A24532   8.950  19.063   8.255
 7308POPC   C3A24533   8.926  19.057   7.955
 7308POPC   C4A24534   9.019  19.082   7.655
 7308POPC   C1B24535   9.213  19.001   8.555
 7308POPC   C2B24536   9.218  19.044   8.255
 7308POPC   C3B24537   9.218  19.052   7.955
 7308POPC   C4B24538   9.240  19.054   7.655
 7309POPC   NC324539  44.704  42.373   9.455
 7309POPC   PO424540  44.618  42.368   9.155
 7309POPC   GL124541  44.676  42.363   8.855
 7309POPC   GL224542  44.751  42.396   8.855
 7309POPC   C1A24543  44.653  42.375   8.555
 7309POPC   D2A24544  44.635  42.298   8.255
 7309POPC   C3A24545  44.686  42.317   7.955
 7309POPC   C4A24546  44.619  42.347   7.655
 7309POPC   C1B24547  44.846  42.412   8.555
 7309POPC   C2B24548  44.930  42.404   8.255
 7309POPC   C3B24549  44.855  42.492   7.955
 7309POPC   C4B24550  44.859  42.449   7.655
 7310POPC   NC324551  22.907  33.822   9.455
 7310POPC   PO424552  22.980  33.775   9.155
 7310POPC   GL124553  22.939  33.800   8.855
 7310POPC   GL224554  22.956  33.888   8.855
 7310POPC   C1A24555  22.964  33.837   8.555
 7310POPC   D2A24556  22.941  33.798   8.255
 7310POPC   C3A24557  22.957  33.806   7.955
 7310POPC   C4A24558  22.940  33.771   7.655
 7310POPC   C1B24559  22.947  34.026   8.555
 7310POPC   C2B24560  22.920  34.017   8.255
 7310POPC   C3B24561  22.995  34.001   7.955
 7310POPC   C4B24562  22.991  34.056   7.655
 7311POPC   NC324563   2.006   5.863   9.455
 7311POPC   PO424564   2.001   5.855   9.155
 7311POPC   GL124565   1.982   5.914   8.855
 7311POPC   GL224566   1.964   5.778   8.855
 7311POPC   C1A24567   2.037   5.898   8.555
 7311POPC   D2A24568   2.021   5.850   8.255
 7311POPC   C3A24569   1.977   5.820   7.955
 7311POPC   C4A24570   1.981   5.865   7.655
 7311POPC   C1B24571   1.940   5.631   8.555
 7311POPC   C2B24572   1.924   5.642   8.255
 7311POPC   C3B24573   1.894   5.653   7.955
 7311POPC   C4B24574   1.878   5.620   7.655
 7312POPC   NC324575  27.635   0.463   9.455
 7312POPC   PO424576  27.574   0.422   9.155
 7312POPC   GL124577  27.581   0.471   8.855
 7312POPC   GL224578  27.701   0.455   8.855
 7312POPC   C1A24579  27.613   0.403   8.555
 7312POPC   D2A24580  27.581   0.484   8.255
 7312POPC   C3A24581  27.598   0.392   7.955
 7312POPC   C4A24582  27.626   0.415   7.655
 7312POPC   C1B24583  27.802   0.366   8.555
 7312POPC   C2B24584  27.851   0.363   8.255
 7312POPC   C3B24585  27.816   0.352   7.955
 7312POPC   C4B24586  27.860   0.401   7.655
 7313POPC   NC324587  44.656   3.573   9.455
 7313POPC   PO424588  44.678   3.522   9.155
 7313POPC   GL124589  44.659   3.527   8.855
 7313POPC   GL224590  44.604   3.422   8.855
 7313POPC   C1A24591  44.682   3.504   8.555
 7313POPC   D2A24592  44.656   3.577   8.255
 7313POPC   C3A24593  44.708   3.572   7.955
 7313POPC   C4A24594  44.663   3.533   7.655
 7313POPC   C1B24595  44.598   3.259   8.555
 7313POPC   C2B24596  44.620   3.329   8.255
 7313POPC   C3B24597  44.598   3.342   7.955
 7313POPC   C4B24598  44.664   3.272   7.655
 7314POPC   NC324599  19.036  44.681   9.455
 7314POPC   PO424600  19.038  44.659   9.155
 7314POPC   GL124601  19.084  44.711   8.855
 7314POPC   GL224602  18.935  44.712   8.855
 7314POPC   C1A24603  19.015  44.687   8.555
 7314POPC   D2A24604  19.054  44.706   8.255
 7314POPC   C3A24605  19.077  44.692   7.955
 7314POPC   C4A24606  19.061  44.662   7.655
 7314POPC   C1B24607  18.850  44.671   8.555
 7314POPC   C2B24608  18.784  44.638   8.255
 7314POPC   C3B24609  18.761  44.704   7.955
 7314POPC   C4B24610  18.773  44.690   7.655
 7315POPC   NC324611  44.686  30.651   9.455
 7315POPC   PO424612  44.691  30.654   9.155
 7315POPC   GL124613  44.650  30.721   8.855
 7315POPC   GL224614  44.775  30.653   8.855
 7315POPC   C1A24615  44.703  30.716   8.555
 7315POPC   D2A24616  44.708  30.733   8.255
 7315POPC   C3A24617  44.656  30.726   7.955
 7315POPC   C4A24618  44.618  30.731   7.655
 7315POPC   C1B24619  44.900  30.514   8.555
 7315POPC   C2B24620  44.816  30.546   8.255
 7315POPC   C3B24621  44.865  30.541   7.955
 7315POPC   C4B24622  44.871  30.578   7.655
 7316POPC   NC324623  26.778  31.444   9.455
 7316POPC   PO424624  26.801  31.444   9.155
 7316POPC   GL124625  26.827  31.479   8.855
 7316POPC   GL224626  26.713  31.433   8.855
 7316POPC   C1A24627  26.865  31.451   8.555
 7316POPC   D2A24628  26.781  31.424   8.255
 7316POPC   C3A24629  26.833  31.447   7.955
 7316POPC   C4A24630  26.856  31.504   7.655
 7316POPC   C1B24631  26.574  31.361   8.555
 7316POPC   C2B24632  26.615  31.392   8.255
 7316POPC   C3B24633  26.627  31.370   7.955
 7316POPC   C4B24634  26.582  31.352   7.655
 7317POPC   NC324635  23.684  13.613   9.455
 7317POPC   PO424636  23.722  13.661   9.155
 7317POPC   GL124637  23.749  13.667   8.855
 7317POPC   GL224638  23.866  13.654   8.855
 7317POPC   C1A24639  23.761  13.632   8.555
 7317POPC   D2A24640  23.666  13.628   8.255
 7317POPC   C3A24641  23.730  13.614   7.955
 7317POPC   C4A24642  23.715  13.675   7.655
 7317POPC   C1B24643  23.958  13.555   8.555
 7317POPC   C2B24644  23.944  13.625   8.255
 7317POPC   C3B24645  23.954  13.625   7.955
 7317POPC   C4B24646  23.981  13.556   7.655
 7318POPC   NC324647  22.908  21.382   9.455
 7318POPC   PO424648  22.891  21.342   9.155
 7318POPC   GL124649  22.913  21.377   8.855
 7318POPC   GL224650  22.890  21.516   8.855
 7318POPC   C1A24651  22.929  21.431   8.555
 7318POPC   D2A24652  22.940  21.388   8.255
 7318POPC   C3A24653  22.944  21.369   7.955
 7318POPC   C4A24654  22.966  21.355   7.655
 7318POPC   C1B24655  22.729  21.619   8.555
 7318POPC   C2B24656  22.757  21.550   8.255
 7318POPC   C3B24657  22.795  21.589   7.955
 7318POPC   C4B24658  22.814  21.611   7.655
 7319POPC   NC324659   8.936  18.299   9.455
 7319POPC   PO424660   9.020  18.250   9.155
 7319POPC   GL124661   8.932  18.289   8.855
 7319POPC   GL224662   9.061  18.370   8.855
 7319POPC   C1A24663   9.013  18.233   8.555
 7319POPC   D2A24664   9.012  18.314   8.255
 7319POPC   C3A24665   8.937  18.246   7.955
 7319POPC   C4A24666   9.000  18.269   7.655
 7319POPC   C1B24667   9.029  18.513   8.555
 7319POPC   C2B24668   9.088  18.560   8.255
 7319POPC   C3B24669   9.106  18.534   7.955
 7319POPC   C4B24670   9.069  18.485   7.655
 7320POPC   NC324671   1.256  24.473   9.455
 7320POPC   PO424672   1.208  24.474   9.155
 7320POPC   GL124673   1.187  24.485   8.855
 7320POPC   GL224674   1.252  24.356   8.855
 7320POPC   C1A24675   1.234  24.453   8.555
 7320POPC   D2A24676   1.237  24.517   8.255
 7320POPC   C3A24677   1.259  24.472   7.955
 7320POPC   C4A24678   1.250  24.533   7.655
 7320POPC   C1B24679   1.148  24.237   8.555
 7320POPC   C2B24680   1.228  24.240   8.255
 7320POPC   C3B24681   1.164  24.226   7.955
 7320POPC   C4B24682   1.192  24.256   7.655
 7321POPC   NC324683  15.215  10.530   9.455
 7321POPC   PO424684  15.185  10.507   9.155
 7321POPC   GL124685  15.151  10.540   8.855
 7321POPC   GL224686  15.127  10.581   8.855
 7321POPC   C1A24687  15.144  10.477   8.555
 7321POPC   D2A24688  15.180  10.558   8.255
 7321POPC   C3A24689  15.196  10.509   7.955
 7321POPC   C4A24690  15.214  10.509   7.655
 7321POPC   C1B24691  14.983  10.682   8.555
 7321POPC   C2B24692  15.001  10.735   8.255
 7321POPC   C3B24693  15.033  10.708   7.955
 7321POPC   C4B24694  14.981  10.692   7.655
 7322POPC   NC324695  42.288  25.302   9.455
 7322POPC   PO424696  42.362  25.240   9.155
 7322POPC   GL124697  42.286  25.228   8.855
 7322POPC   GL224698  42.243  25.203   8.855
 7322POPC   C1A24699  42.326  25.304   8.555
 7322POPC   D2A24700  42.304  25.216   8.255
 7322POPC   C3A24701  42.382  25.301   7.955
 7322POPC   C4A24702  42.327  25.274   7.655
 7322POPC   C1B24703  42.111  25.262   8.555
 7322POPC   C2B24704  42.118  25.206   8.255
 7322POPC   C3B24705  42.126  25.268   7.955
 7322POPC   C4B24706  42.111  25.223   7.655
 7323POPC   NC324707  42.359  26.780   9.455
 7323POPC   PO424708  42.294  26.782   9.155
 7323POPC   GL124709  42.352  26.804   8.855
 7323POPC   GL224710  42.258  26.732   8.855
 7323POPC   C1A24711  42.384  26.788   8.555
 7323POPC   D2A24712  42.286  26.791   8.255
 7323POPC   C3A24713  42.291  26.803   7.955
 7323POPC   C4A24714  42.304  26.821   7.655
 7323POPC   C1B24715  42.107  26.699   8.555
 7323POPC   C2B24716  42.123  26.726   8.255
 7323POPC   C3B24717  42.078  26.675   7.955
 7323POPC   C4B24718  42.138  26.676   7.655
 7324POPC   NC324719  36.884  22.900   9.455
 7324POPC   PO424720  36.917  22.971   9.155
 7324POPC   GL124721  36.855  22.902   8.855
 7324POPC   GL224722  36.817  22.950   8.855
 7324POPC   C1A24723  36.894  22.946   8.555
 7324POPC   D2A24724  36.907  22.924   8.255
 7324POPC   C3A24725  36.900  22.891   7.955
 7324POPC   C4A24726  36.920  22.932   7.655
 7324POPC   C1B24727  36.655  22.873   8.555
 7324POPC   C2B24728  36.669  22.911   8.255
 7324POPC   C3B24729  36.638  22.874   7.955
 7324POPC   C4B24730  36.617  22.885   7.655
 7325POPC   NC324731  29.168  32.225   9.455
 7325POPC   PO424732  29.188  32.281   9.155
 7325POPC   GL124733  29.161  32.250   8.855
 7325POPC   GL224734  29.183  32.158   8.855
 7325POPC   C1A24735  29.109  32.240   8.555
 7325POPC   D2A24736  29.143  32.211   8.255
 7325POPC   C3A24737  29.190  32.224   7.955
 7325POPC   C4A24738  29.101  32.247   7.655
 7325POPC   C1B24739  29.328  32.084   8.555
 7325POPC   C2B24740  29.336  32.008   8.255
 7325POPC   C3B24741  29.339  32.044   7.955
 7325POPC   C4B24742  29.309  32.020   7.655
 7326POPC   NC324743  10.543   0.400   9.455
 7326POPC   PO424744  10.564   0.399   9.155
 7326POPC   GL124745  10.512   0.469   8.855
 7326POPC   GL224746  10.380   0.462   8.855
 7326POPC   C1A24747  10.570   0.435   8.555
 7326POPC   D2A24748  10.496   0.404   8.255
 7326POPC   C3A24749  10.527   0.442   7.955
 7326POPC   C4A24750  10.522   0.407   7.655
 7326POPC   C1B24751  10.323   0.560   8.555
 7326POPC   C2B24752  10.317   0.610   8.255
 7326POPC   C3B24753  10.324   0.542   7.955
 7326POPC   C4B24754  10.278   0.522   7.655
 7327POPC   NC324755  43.884  43.931   9.455
 7327POPC   PO424756  43.882  43.918   9.155
 7327POPC   GL124757  43.854  43.841   8.855
 7327POPC   GL224758  43.774  43.949   8.855
 7327POPC   C1A24759  43.898  43.847   8.555
 7327POPC   D2A24760  43.904  43.896   8.255
 7327POPC   C3A24761  43.896  43.895   7.955
 7327POPC   C4A24762  43.902  43.915   7.655
 7327POPC   C1B24763  43.704  44.132   8.555
 7327POPC   C2B24764  43.787  44.077   8.255
 7327POPC   C3B24765  43.740  44.119   7.955
 7327POPC   C4B24766  43.756  44.117   7.655
 7328POPC   NC324767  21.407   5.821   9.455
 7328POPC   PO424768  21.361   5.866   9.155
 7328POPC   GL124769  21.407   5.877   8.855
 7328POPC   GL224770  21.222   5.850   8.855
 7328POPC   C1A24771  21.400   5.912   8.555
 7328POPC   D2A24772  21.360   5.836   8.255
 7328POPC   C3A24773  21.349   5.860   7.955
 7328POPC   C4A24774  21.398   5.858   7.655
 7328POPC   C1B24775  21.164   5.752   8.555
 7328POPC   C2B24776  21.122   5.728   8.255
 7328POPC   C3B24777  21.169   5.767   7.955
 7328POPC   C4B24778  21.169   5.765   7.655
 7329POPC   NC324779  20.564  15.155   9.455
 7329POPC   PO424780  20.654  15.153   9.155
 7329POPC   GL124781  20.608  15.136   8.855
 7329POPC   GL224782  20.497  15.244   8.855
 7329POPC   C1A24783  20.619  15.223   8.555
 7329POPC   D2A24784  20.651  15.213   8.255
 7329POPC   C3A24785  20.654  15.149   7.955
 7329POPC   C4A24786  20.569  15.201   7.655
 7329POPC   C1B24787  20.450  15.268   8.555
 7329POPC   C2B24788  20.395  15.322   8.255
 7329POPC   C3B24789  20.374  15.277   7.955
 7329POPC   C4B24790  20.369  15.316   7.655
 7330POPC   NC324791  14.441  39.184   9.455
 7330POPC   PO424792  14.431  39.255   9.155
 7330POPC   GL124793  14.396  39.204   8.855
 7330POPC   GL224794  14.494  39.361   8.855
 7330POPC   C1A24795  14.366  39.206   8.555
 7330POPC   D2A24796  14.430  39.211   8.255
 7330POPC   C3A24797  14.358  39.218   7.955
 7330POPC   C4A24798  14.386  39.213   7.655
 7330POPC   C1B24799  14.436  39.424   8.555
 7330POPC   C2B24800  14.472  39.481   8.255
 7330POPC   C3B24801  14.515  39.465   7.955
 7330POPC   C4B24802  14.441  39.443   7.655
 7331POPC   NC324803  40.776  34.611   9.455
 7331POPC   PO424804  40.767  34.529   9.155
 7331POPC   GL124805  40.819  34.559   8.855
 7331POPC   GL224806  40.847  34.416   8.855
 7331POPC   C1A24807  40.821  34.606   8.555
 7331POPC   D2A24808  40.788  34.526   8.255
 7331POPC   C3A24809  40.753  34.550   7.955
 7331POPC   C4A24810  40.773  34.603   7.655
 7331POPC   C1B24811  40.888  34.295   8.555
 7331POPC   C2B24812  40.906  34.305   8.255
 7331POPC   C3B24813  40.844  34.314   7.955
 7331POPC   C4B24814  40.870  34.329   7.655
 7332POPC   NC324815  13.666   9.730   9.455
 7332POPC   PO424816  13.667   9.750   9.155
 7332POPC   GL124817  13.648   9.709   8.855
 7332POPC   GL224818  13.569   9.875   8.855
 7332POPC   C1A24819  13.582   9.709   8.555
 7332POPC   D2A24820  13.640   9.723   8.255
 7332POPC   C3A24821  13.658   9.772   7.955
 7332POPC   C4A24822  13.663   9.704   7.655
 7332POPC   C1B24823  13.620  10.008   8.555
 7332POPC   C2B24824  13.605   9.955   8.255
 7332POPC   C3B24825  13.618   9.954   7.955
 7332POPC   C4B24826  13.555   9.949   7.655
 7333POPC   NC324827  14.432  18.249   9.455
 7333POPC   PO424828  14.359  18.241   9.155
 7333POPC   GL124829  14.407  18.260   8.855
 7333POPC   GL224830  14.363  18.147   8.855
 7333POPC   C1A24831  14.451  18.260   8.555
 7333POPC   D2A24832  14.402  18.301   8.255
 7333POPC   C3A24833  14.382  18.254   7.955
 7333POPC   C4A24834  14.422  18.266   7.655
 7333POPC   C1B24835  14.201  18.090   8.555
 7333POPC   C2B24836  14.235  18.067   8.255
 7333POPC   C3B24837  14.262  18.077   7.955
 7333POPC   C4B24838  14.204  18.064   7.655
 7334POPC   NC324839  43.064   0.442   9.455
 7334POPC   PO424840  43.108   0.459   9.155
 7334POPC   GL124841  43.110   0.430   8.855
 7334POPC   GL224842  42.960   0.392   8.855
 7334POPC   C1A24843  43.089   0.454   8.555
 7334POPC   D2A24844  43.153   0.411   8.255
 7334POPC   C3A24845  43.075   0.447   7.955
 7334POPC   C4A24846  43.094   0.476   7.655
 7334POPC   C1B24847  42.932   0.329   8.555
 7334POPC   C2B24848  42.851   0.283   8.255
 7334POPC   C3B24849  42.920   0.282   7.955
 7334POPC   C4B24850  42.869   0.292   7.655
 7335POPC   NC324851   8.968  27.634   9.455
 7335POPC   PO424852   8.941  27.566   9.155
 7335POPC   GL124853   8.934  27.601   8.855
 7335POPC   GL224854   9.104  27.520   8.855
 7335POPC   C1A24855   8.980  27.626   8.555
 7335POPC   D2A24856   8.971  27.598   8.255
 7335POPC   C3A24857   9.003  27.610   7.955
 7335POPC   C4A24858   8.990  27.596   7.655
 7335POPC   C1B24859   9.168  27.474   8.555
 7335POPC   C2B24860   9.202  27.453   8.255
 7335POPC   C3B24861   9.166  27.488   7.955
 7335POPC   C4B24862   9.146  27.498   7.655
 7336POPC   NC324863  41.543  22.896   9.455
 7336POPC   PO424864  41.541  22.967   9.155
 7336POPC   GL124865  41.520  22.912   8.855
 7336POPC   GL224866  41.564  22.771   8.855
 7336POPC   C1A24867  41.580  22.905   8.555
 7336POPC   D2A24868  41.592  22.907   8.255
 7336POPC   C3A24869  41.532  22.897   7.955
 7336POPC   C4A24870  41.543  22.954   7.655
 7336POPC   C1B24871  41.571  22.682   8.555
 7336POPC   C2B24872  41.587  22.666   8.255
 7336POPC   C3B24873  41.602  22.691   7.955
 7336POPC   C4B24874  41.608  22.700   7.655
 7337POPC   NC324875  26.795  19.869   9.455
 7337POPC   PO424876  26.782  19.832   9.155
 7337POPC   GL124877  26.837  19.840   8.855
 7337POPC   GL224878  26.959  19.808   8.855
 7337POPC   C1A24879  26.842  19.791   8.555
 7337POPC   D2A24880  26.824  19.883   8.255
 7337POPC   C3A24881  26.865  19.799   7.955
 7337POPC   C4A24882  26.852  19.805   7.655
 7337POPC   C1B24883  27.018  19.884   8.555
 7337POPC   C2B24884  27.096  19.792   8.255
 7337POPC   C3B24885  27.040  19.858   7.955
 7337POPC   C4B24886  27.078  19.812   7.655
 7338POPC   NC324887  13.608  40.802   9.455
 7338POPC   PO424888  13.650  40.748   9.155
 7338POPC   GL124889  13.675  40.805   8.855
 7338POPC   GL224890  13.575  40.691   8.855
 7338POPC   C1A24891  13.587  40.801   8.555
 7338POPC   D2A24892  13.658  40.769   8.255
 7338POPC   C3A24893  13.639  40.826   7.955
 7338POPC   C4A24894  13.614  40.819   7.655
 7338POPC   C1B24895  13.449  40.556   8.555
 7338POPC   C2B24896  13.487  40.540   8.255
 7338POPC   C3B24897  13.515  40.571   7.955
 7338POPC   C4B24898  13.466  40.579   7.655
 7339POPC   NC324899   1.966  38.459   9.455
 7339POPC   PO424900   1.961  38.410   9.155
 7339POPC   GL124901   2.032  38.426   8.855
 7339POPC   GL224902   1.922  38.583   8.855
 7339POPC   C1A24903   1.946  38.411   8.555
 7339POPC   D2A24904   2.013  38.418   8.255
 7339POPC   C3A24905   1.951  38.446   7.955
 7339POPC   C4A24906   1.967  38.407   7.655
 7339POPC   C1B24907   1.918  38.691   8.555
 7339POPC   C2B24908   1.950  38.710   8.255
 7339POPC   C3B24909   1.955  38.702   7.955
 7339POPC   C4B24910   1.890  38.705   7.655
 7340POPC   NC324911  36.887   8.214   9.455
 7340POPC   PO424912  36.887   8.207   9.155
 7340POPC   GL124913  36.860   8.231   8.855
 7340POPC   GL224914  36.776   8.213   8.855
 7340POPC   C1A24915  36.892   8.212   8.555
 7340POPC   D2A24916  36.949   8.182   8.255
 7340POPC   C3A24917  36.854   8.216   7.955
 7340POPC   C4A24918  36.860   8.224   7.655
 7340POPC   C1B24919  36.681   8.313   8.555
 7340POPC   C2B24920  36.705   8.269   8.255
 7340POPC   C3B24921  36.649   8.321   7.955
 7340POPC   C4B24922  36.670   8.235   7.655
 7341POPC   NC324923  19.856  17.550   9.455
 7341POPC   PO424924  19.839  17.470   9.155
 7341POPC   GL124925  19.812  17.503   8.855
 7341POPC   GL224926  19.928  17.435   8.855
 7341POPC   C1A24927  19.876  17.488   8.555
 7341POPC   D2A24928  19.868  17.536   8.255
 7341POPC   C3A24929  19.817  17.530   7.955
 7341POPC   C4A24930  19.853  17.461   7.655
 7341POPC   C1B24931  20.093  17.437   8.555
 7341POPC   C2B24932  20.042  17.389   8.255
 7341POPC   C3B24933  20.042  17.396   7.955
 7341POPC   C4B24934  20.066  17.458   7.655
 7342POPC   NC324935  12.881  39.217   9.455
 7342POPC   PO424936  12.854  39.219   9.155
 7342POPC   GL124937  12.888  39.218   8.855
 7342POPC   GL224938  12.777  39.156   8.855
 7342POPC   C1A24939  12.805  39.222   8.555
 7342POPC   D2A24940  12.810  39.181   8.255
 7342POPC   C3A24941  12.852  39.261   7.955
 7342POPC   C4A24942  12.877  39.217   7.655
 7342POPC   C1B24943  12.676  39.080   8.555
 7342POPC   C2B24944  12.622  39.075   8.255
 7342POPC   C3B24945  12.635  39.094   7.955
 7342POPC   C4B24946  12.697  39.113   7.655
 7343POPC   NC324947  40.815  18.275   9.455
 7343POPC   PO424948  40.745  18.266   9.155
 7343POPC   GL124949  40.741  18.254   8.855
 7343POPC   GL224950  40.901  18.192   8.855
 7343POPC   C1A24951  40.743  18.269   8.555
 7343POPC   D2A24952  40.830  18.324   8.255
 7343POPC   C3A24953  40.740  18.270   7.955
 7343POPC   C4A24954  40.813  18.236   7.655
 7343POPC   C1B24955  40.991  18.154   8.555
 7343POPC   C2B24956  40.948  18.113   8.255
 7343POPC   C3B24957  41.008  18.177   7.955
 7343POPC   C4B24958  41.008  18.154   7.655
 7344POPC   NC324959  21.353   6.656   9.455
 7344POPC   PO424960  21.395   6.677   9.155
 7344POPC   GL124961  21.363   6.632   8.855
 7344POPC   GL224962  21.381   6.720   8.855
 7344POPC   C1A24963  21.400   6.693   8.555
 7344POPC   D2A24964  21.372   6.617   8.255
 7344POPC   C3A24965  21.402   6.629   7.955
 7344POPC   C4A24966  21.412   6.633   7.655
 7344POPC   C1B24967  21.483   6.844   8.555
 7344POPC   C2B24968  21.446   6.872   8.255
 7344POPC   C3B24969  21.466   6.900   7.955
 7344POPC   C4B24970  21.468   6.891   7.655
 7345POPC   NC324971  32.980  25.238   9.455
 7345POPC   PO424972  33.017  25.309   9.155
 7345POPC   GL124973  33.060  25.272   8.855
 7345POPC   GL224974  33.091  25.277   8.855
 7345POPC   C1A24975  33.031  25.220   8.555
 7345POPC   D2A24976  33.067  25.292   8.255
 7345POPC   C3A24977  32.985  25.264   7.955
 7345POPC   C4A24978  32.994  25.304   7.655
 7345POPC   C1B24979  33.242  25.335   8.555
 7345POPC   C2B24980  33.252  25.362   8.255
 7345POPC   C3B24981  33.224  25.380   7.955
 7345POPC   C4B24982  33.248  25.410   7.655
 7346POPC   NC324983   0.428  31.486   9.455
 7346POPC   PO424984   0.452  31.482   9.155
 7346POPC   GL124985   0.391  31.435   8.855
 7346POPC   GL224986   0.582  31.432   8.855
 7346POPC   C1A24987   0.456  31.432   8.555
 7346POPC   D2A24988   0.452  31.490   8.255
 7346POPC   C3A24989   0.446  31.477   7.955
 7346POPC   C4A24990   0.409  31.515   7.655
 7346POPC   C1B24991   0.676  31.366   8.555
 7346POPC   C2B24992   0.629  31.384   8.255
 7346POPC   C3B24993   0.637  31.369   7.955
 7346POPC   C4B24994   0.717  31.372   7.655
 7347POPC   NC324995  18.293  31.467   9.455
 7347POPC   PO424996  18.293  31.505   9.155
 7347POPC   GL124997  18.295  31.520   8.855
 7347POPC   GL224998  18.198  31.585   8.855
 7347POPC   C1A24999  18.259  31.427   8.555
 7347POPC   D2A25000  18.324  31.464   8.255
 7347POPC   C3A25001  18.314  31.488   7.955
 7347POPC   C4A25002  18.327  31.512   7.655
 7347POPC   C1B25003  18.129  31.670   8.555
 7347POPC   C2B25004  18.205  31.730   8.255
 7347POPC   C3B25005  18.182  31.726   7.955
 7347POPC   C4B25006  18.142  31.732   7.655
 7348POPC   NC325007  42.349  13.580   9.455
 7348POPC   PO425008  42.349  13.657   9.155
 7348POPC   GL125009  42.349  13.627   8.855
 7348POPC   GL225010  42.190  13.608   8.855
 7348POPC   C1A25011  42.295  13.665   8.555
 7348POPC   D2A25012  42.348  13.668   8.255
 7348POPC   C3A25013  42.295  13.654   7.955
 7348POPC   C4A25014  42.384  13.657   7.655
 7348POPC   C1B25015  42.090  13.538   8.555
 7348POPC   C2B25016  42.099  13.594   8.255
 7348POPC   C3B25017  42.045  13.564   7.955
 7348POPC   C4B25018  42.049  13.538   7.655
 7349POPC   NC325019   5.908  36.085   9.455
 7349POPC   PO425020   5.905  36.084   9.155
 7349POPC   GL125021   5.821  36.093   8.855
 7349POPC   GL225022   5.997  36.133   8.855
 7349POPC   C1A25023   5.882  36.138   8.555
 7349POPC   D2A25024   5.912  36.177   8.255
 7349POPC   C3A25025   5.836  36.088   7.955
 7349POPC   C4A25026   5.874  36.131   7.655
 7349POPC   C1B25027   6.147  36.012   8.555
 7349POPC   C2B25028   6.134  36.004   8.255
 7349POPC   C3B25029   6.059  36.042   7.955
 7349POPC   C4B25030   6.125  36.096   7.655
 7350POPC   NC325031  10.533  17.517   9.455
 7350POPC   PO425032  10.548  17.500   9.155
 7350POPC   GL125033  10.549  17.517   8.855
 7350POPC   GL225034  10.629  17.392   8.855
 7350POPC   C1A25035  10.506  17.510   8.555
 7350POPC   D2A25036  10.562  17.482   8.255
 7350POPC   C3A25037  10.549  17.535   7.955
 7350POPC   C4A25038  10.544  17.522   7.655
 7350POPC   C1B25039  10.689  17.306   8.555
 7350POPC   C2B25040  10.669  17.298   8.255
 7350POPC   C3B25041  10.662  17.371   7.955
 7350POPC   C4B25042  10.708  17.367   7.655
 7351POPC   NC325043   3.554  24.473   9.455
 7351POPC   PO425044   3.556  24.499   9.155
 7351POPC   GL125045   3.511  24.489   8.855
 7351POPC   GL225046   3.604  24.394   8.855
 7351POPC   C1A25047   3.568  24.460   8.555
 7351POPC   D2A25048   3.578  24.535   8.255
 7351POPC   C3A25049   3.578  24.477   7.955
 7351POPC   C4A25050   3.587  24.518   7.655
 7351POPC   C1B25051   3.762  24.364   8.555
 7351POPC   C2B25052   3.741  24.327   8.255
 7351POPC   C3B25053   3.733  24.379   7.955
 7351POPC   C4B25054   3.767  24.325   7.655
 7352POPC   NC325055  39.263   7.432   9.455
 7352POPC   PO425056  39.213   7.411   9.155
 7352POPC   GL125057  39.269   7.390   8.855
 7352POPC   GL225058  39.176   7.336   8.855
 7352POPC   C1A25059  39.202   7.427   8.555
 7352POPC   D2A25060  39.218   7.437   8.255
 7352POPC   C3A25061  39.244   7.397   7.955
 7352POPC   C4A25062  39.239   7.407   7.655
 7352POPC   C1B25063  39.186   7.135   8.555
 7352POPC   C2B25064  39.238   7.136   8.255
 7352POPC   C3B25065  39.185   7.199   7.955
 7352POPC   C4B25066  39.187   7.184   7.655
 7353POPC   NC325067  36.133   8.230   9.455
 7353POPC   PO425068  36.171   8.188   9.155
 7353POPC   GL125069  36.149   8.190   8.855
 7353POPC   GL225070  36.056   8.161   8.855
 7353POPC   C1A25071  36.082   8.233   8.555
 7353POPC   D2A25072  36.159   8.226   8.255
 7353POPC   C3A25073  36.139   8.160   7.955
 7353POPC   C4A25074  36.174   8.167   7.655
 7353POPC   C1B25075  35.887   8.049   8.555
 7353POPC   C2B25076  35.961   8.041   8.255
 7353POPC   C3B25077  35.877   8.086   7.955
 7353POPC   C4B25078  35.870   8.044   7.655
 7354POPC   NC325079   1.969  34.572   9.455
 7354POPC   PO425080   2.030  34.601   9.155
 7354POPC   GL125081   2.032  34.570   8.855
 7354POPC   GL225082   1.985  34.428   8.855
 7354POPC   C1A25083   2.006  34.540   8.555
 7354POPC   D2A25084   1.952  34.621   8.255
 7354POPC   C3A25085   2.008  34.527   7.955
 7354POPC   C4A25086   2.009  34.556   7.655
 7354POPC   C1B25087   1.922  34.386   8.555
 7354POPC   C2B25088   1.870  34.393   8.255
 7354POPC   C3B25089   1.931  34.354   7.955
 7354POPC   C4B25090   1.884  34.368   7.655
 7355POPC   NC325091  11.305  20.629   9.455
 7355POPC   PO425092  11.260  20.617   9.155
 7355POPC   GL125093  11.322  20.627   8.855
 7355POPC   GL225094  11.203  20.753   8.855
 7355POPC   C1A25095  11.347  20.630   8.555
 7355POPC   D2A25096  11.314  20.624   8.255
 7355POPC   C3A25097  11.340  20.586   7.955
 7355POPC   C4A25098  11.311  20.613   7.655
 7355POPC   C1B25099  11.114  20.830   8.555
 7355POPC   C2B25100  11.102  20.810   8.255
 7355POPC   C3B25101  11.161  20.790   7.955
 7355POPC   C4B25102  11.132  20.845   7.655
 7356POPC   NC325103  34.558  27.618   9.455
 7356POPC   PO425104  34.564  27.600   9.155
 7356POPC   GL125105  34.621  27.573   8.855
 7356POPC   GL225106  34.656  27.610   8.855
 7356POPC   C1A25107  34.620  27.602   8.555
 7356POPC   D2A25108  34.552  27.615   8.255
 7356POPC   C3A25109  34.547  27.571   7.955
 7356POPC   C4A25110  34.551  27.592   7.655
 7356POPC   C1B25111  34.781  27.653   8.555
 7356POPC   C2B25112  34.765  27.683   8.255
 7356POPC   C3B25113  34.850  27.645   7.955
 7356POPC   C4B25114  34.775  27.685   7.655
 7357POPC   NC325115  30.725  25.304   9.455
 7357POPC   PO425116  30.662  25.220   9.155
 7357POPC   GL125117  30.720  25.256   8.855
 7357POPC   GL225118  30.820  25.200   8.855
 7357POPC   C1A25119  30.712  25.217   8.555
 7357POPC   D2A25120  30.682  25.252   8.255
 7357POPC   C3A25121  30.736  25.234   7.955
 7357POPC   C4A25122  30.716  25.294   7.655
 7357POPC   C1B25123  30.863  25.094   8.555
 7357POPC   C2B25124  30.874  25.126   8.255
 7357POPC   C3B25125  30.875  25.115   7.955
 7357POPC   C4B25126  30.873  25.176   7.655
 7358POPC   NC325127  38.432  13.666   9.455
 7358POPC   PO425128  38.505  13.647   9.155
 7358POPC   GL125129  38.467  13.613   8.855
 7358POPC   GL225130  38.324  13.660   8.855
 7358POPC   C1A25131  38.446  13.590   8.555
 7358POPC   D2A25132  38.472  13.618   8.255
 7358POPC   C3A25133  38.448  13.618   7.955
 7358POPC   C4A25134  38.422  13.611   7.655
 7358POPC   C1B25135  38.160  13.671   8.555
 7358POPC   C2B25136  38.242  13.603   8.255
 7358POPC   C3B25137  38.172  13.654   7.955
 7358POPC   C4B25138  38.167  13.578   7.655
 7359POPC   NC325139  27.619  20.659   9.455
 7359POPC   PO425140  27.637  20.641   9.155
 7359POPC   GL125141  27.592  20.599   8.855
 7359POPC   GL225142  27.522  20.616   8.855
 7359POPC   C1A25143  27.625  20.639   8.555
 7359POPC   D2A25144  27.568  20.613   8.255
 7359POPC   C3A25145  27.597  20.619   7.955
 7359POPC   C4A25146  27.569  20.629   7.655
 7359POPC   C1B25147  27.386  20.721   8.555
 7359POPC   C2B25148  27.411  20.716   8.255
 7359POPC   C3B25149  27.383  20.679   7.955
 7359POPC   C4B25150  27.319  20.722   7.655
 7360POPC   NC325151  36.128  10.524   9.455
 7360POPC   PO425152  36.104  10.561   9.155
 7360POPC   GL125153  36.130  10.536   8.855
 7360POPC   GL225154  36.016  10.396   8.855
 7360POPC   C1A25155  36.132  10.481   8.555
 7360POPC   D2A25156  36.161  10.485   8.255
 7360POPC   C3A25157  36.137  10.532   7.955
 7360POPC   C4A25158  36.133  10.476   7.655
 7360POPC   C1B25159  35.943  10.370   8.555
 7360POPC   C2B25160  35.953  10.348   8.255
 7360POPC   C3B25161  35.978  10.274   7.955
 7360POPC   C4B25162  35.959  10.343   7.655
 7361POPC   NC325163  20.580  16.778   9.455
 7361POPC   PO425164  20.605  16.731   9.155
 7361POPC   GL125165  20.610  16.694   8.855
 7361POPC   GL225166  20.713  16.787   8.855
 7361POPC   C1A25167  20.658  16.692   8.555
 7361POPC   D2A25168  20.571  16.727   8.255
 7361POPC   C3A25169  20.655  16.702   7.955
 7361POPC   C4A25170  20.646  16.738   7.655
 7361POPC   C1B25171  20.824  16.782   8.555
 7361POPC   C2B25172  20.884  16.782   8.255
 7361POPC   C3B25173  20.880  16.740   7.955
 7361POPC   C4B25174  20.859  16.800   7.655
 7362POPC   NC325175  13.669  21.385   9.455
 7362POPC   PO425176  13.593  21.384   9.155
 7362POPC   GL125177  13.623  21.341   8.855
 7362POPC   GL225178  13.548  21.417   8.855
 7362POPC   C1A25179  13.597  21.342   8.555
 7362POPC   D2A25180  13.581  21.347   8.255
 7362POPC   C3A25181  13.646  21.388   7.955
 7362POPC   C4A25182  13.624  21.404   7.655
 7362POPC   C1B25183  13.421  21.545   8.555
 7362POPC   C2B25184  13.451  21.512   8.255
 7362POPC   C3B25185  13.456  21.508   7.955
 7362POPC   C4B25186  13.402  21.531   7.655
 7363POPC   NC325187  19.822  12.040   9.455
 7363POPC   PO425188  19.825  12.039   9.155
 7363POPC   GL125189  19.863  12.046   8.855
 7363POPC   GL225190  19.868  12.206   8.855
 7363POPC   C1A25191  19.796  12.080   8.555
 7363POPC   D2A25192  19.796  12.073   8.255
 7363POPC   C3A25193  19.820  12.027   7.955
 7363POPC   C4A25194  19.848  12.111   7.655
 7363POPC   C1B25195  19.882  12.271   8.555
 7363POPC   C2B25196  19.931  12.321   8.255
 7363POPC   C3B25197  19.900  12.328   7.955
 7363POPC   C4B25198  19.871  12.366   7.655
 7364POPC   NC325199   5.106  43.842   9.455
 7364POPC   PO425200   5.110  43.847   9.155
 7364POPC   GL125201   5.084  43.916   8.855
 7364POPC   GL225202   5.097  43.748   8.855
 7364POPC   C1A25203   5.071  43.902   8.555
 7364POPC   D2A25204   5.081  43.872   8.255
 7364POPC   C3A25205   5.075  43.900   7.955
 7364POPC   C4A25206   5.119  43.870   7.655
 7364POPC   C1B25207   5.193  43.612   8.555
 7364POPC   C2B25208   5.222  43.655   8.255
 7364POPC   C3B25209   5.178  43.692   7.955
 7364POPC   C4B25210   5.214  43.645   7.655
 7365POPC   NC325211  16.726  37.683   9.455
 7365POPC   PO425212  16.749  37.639   9.155
 7365POPC   GL125213  16.719  37.722   8.855
 7365POPC   GL225214  16.598  37.611   8.855
 7365POPC   C1A25215  16.694  37.647   8.555
 7365POPC   D2A25216  16.769  37.686   8.255
 7365POPC   C3A25217  16.767  37.686   7.955
 7365POPC   C4A25218  16.717  37.662   7.655
 7365POPC   C1B25219  16.535  37.599   8.555
 7365POPC   C2B25220  16.472  37.527   8.255
 7365POPC   C3B25221  16.513  37.539   7.955
 7365POPC   C4B25222  16.493  37.586   7.655
 7366POPC   NC325223  10.563  19.082   9.455
 7366POPC   PO425224  10.525  19.064   9.155
 7366POPC   GL125225  10.548  19.072   8.855
 7366POPC   GL225226  10.455  19.187   8.855
 7366POPC   C1A25227  10.492  19.086   8.555
 7366POPC   D2A25228  10.565  19.051   8.255
 7366POPC   C3A25229  10.488  19.077   7.955
 7366POPC   C4A25230  10.535  19.098   7.655
 7366POPC   C1B25231  10.465  19.338   8.555
 7366POPC   C2B25232  10.411  19.317   8.255
 7366POPC   C3B25233  10.461  19.249   7.955
 7366POPC   C4B25234  10.426  19.310   7.655
 7367POPC   NC325235  34.597   5.877   9.455
 7367POPC   PO425236  34.606   5.843   9.155
 7367POPC   GL125237  34.613   5.828   8.855
 7367POPC   GL225238  34.430   5.867   8.855
 7367POPC   C1A25239  34.624   5.822   8.555
 7367POPC   D2A25240  34.534   5.864   8.255
 7367POPC   C3A25241  34.533   5.886   7.955
 7367POPC   C4A25242  34.592   5.879   7.655
 7367POPC   C1B25243  34.315   5.923   8.555
 7367POPC   C2B25244  34.326   5.990   8.255
 7367POPC   C3B25245  34.357   5.999   7.955
 7367POPC   C4B25246  34.308   6.005   7.655
 7368POPC   NC325247  15.180  25.994   9.455
 7368POPC   PO425248  15.197  26.023   9.155
 7368POPC   GL125249  15.186  26.043   8.855
 7368POPC   GL225250  15.270  26.156   8.855
 7368POPC   C1A25251  15.199  26.009   8.555
 7368POPC   D2A25252  15.163  26.085   8.255
 7368POPC   C3A25253  15.197  26.058   7.955
 7368POPC   C4A25254  15.162  26.059   7.655
 7368POPC   C1B25255  15.311  26.233   8.555
 7368POPC   C2B25256  15.335  26.214   8.255
 7368POPC   C3B25257  15.377  26.234   7.955
 7368POPC   C4B25258  15.337  26.241   7.655
 7369POPC   NC325259  37.645   0.487   9.455
 7369POPC   PO425260  37.719   0.398   9.155
 7369POPC   GL125261  37.666   0.404   8.855
 7369POPC   GL225262  37.615   0.565   8.855
 7369POPC   C1A25263  37.708   0.395   8.555
 7369POPC   D2A25264  37.654   0.477   8.255
 7369POPC   C3A25265  37.726   0.458   7.955
 7369POPC   C4A25266  37.653   0.438   7.655
 7369POPC   C1B25267  37.593   0.604   8.555
 7369POPC   C2B25268  37.549   0.647   8.255
 7369POPC   C3B25269  37.542   0.670   7.955
 7369POPC   C4B25270  37.503   0.627   7.655
 7370POPC   NC325271  33.848  21.433   9.455
 7370POPC   PO425272  33.775  21.410   9.155
 7370POPC   GL125273  33.839  21.421   8.855
 7370POPC   GL225274  33.823  21.236   8.855
 7370POPC   C1A25275  33.796  21.365   8.555
 7370POPC   D2A25276  33.825  21.415   8.255
 7370POPC   C3A25277  33.809  21.360   7.955
 7370POPC   C4A25278  33.813  21.358   7.655
 7370POPC   C1B25279  33.958  21.178   8.555
 7370POPC   C2B25280  33.914  21.177   8.255
 7370POPC   C3B25281  33.940  21.212   7.955
 7370POPC   C4B25282  33.895  21.188   7.655
 7371POPC   NC325283  43.886  29.127   9.455
 7371POPC   PO425284  43.884  29.181   9.155
 7371POPC   GL125285  43.896  29.137   8.855
 7371POPC   GL225286  43.986  29.048   8.855
 7371POPC   C1A25287  43.910  29.153   8.555
 7371POPC   D2A25288  43.914  29.111   8.255
 7371POPC   C3A25289  43.896  29.121   7.955
 7371POPC   C4A25290  43.879  29.161   7.655
 7371POPC   C1B25291  44.062  29.010   8.555
 7371POPC   C2B25292  44.086  28.970   8.255
 7371POPC   C3B25293  44.116  28.976   7.955
 7371POPC   C4B25294  44.029  29.008   7.655
 7372POPC   NC325295  43.087  13.649   9.455
 7372POPC   PO425296  43.081  13.632   9.155
 7372POPC   GL125297  43.065  13.654   8.855
 7372POPC   GL225298  43.228  13.692   8.855
 7372POPC   C1A25299  43.098  13.579   8.555
 7372POPC   D2A25300  43.126  13.673   8.255
 7372POPC   C3A25301  43.154  13.622   7.955
 7372POPC   C4A25302  43.159  13.660   7.655
 7372POPC   C1B25303  43.257  13.855   8.555
 7372POPC   C2B25304  43.270  13.815   8.255
 7372POPC   C3B25305  43.265  13.781   7.955
 7372POPC   C4B25306  43.266  13.853   7.655
 7373POPC   NC325307  20.618  41.515   9.455
 7373POPC   PO425308  20.610  41.516   9.155
 7373POPC   GL125309  20.624  41.557   8.855
 7373POPC   GL225310  20.705  41.608   8.855
 7373POPC   C1A25311  20.615  41.558   8.555
 7373POPC   D2A25312  20.597  41.593   8.255
 7373POPC   C3A25313  20.645  41.599   7.955
 7373POPC   C4A25314  20.600  41.553   7.655
 7373POPC   C1B25315  20.761  41.730   8.555
 7373POPC   C2B25316  20.795  41.745   8.255
 7373POPC   C3B25317  20.796  41.700   7.955
 7373POPC   C4B25318  20.759  41.688   7.655
 7374POPC   NC325319  19.802  14.364   9.455
 7374POPC   PO425320  19.877  14.394   9.155
 7374POPC   GL125321  19.823  14.387   8.855
 7374POPC   GL225322  19.774  14.338   8.855
 7374POPC   C1A25323  19.807  14.420   8.555
 7374POPC   D2A25324  19.844  14.380   8.255
 7374POPC   C3A25325  19.808  14.436   7.955
 7374POPC   C4A25326  19.874  14.373   7.655
 7374POPC   C1B25327  19.719  14.214   8.555
 7374POPC   C2B25328  19.748  14.170   8.255
 7374POPC   C3B25329  19.743  14.164   7.955
 7374POPC   C4B25330  19.724  14.226   7.655
 7375POPC   NC325331  44.614  14.403   9.455
 7375POPC   PO425332  44.617  14.451   9.155
 7375POPC   GL125333  44.709  14.426   8.855
 7375POPC   GL225334  44.593  14.491   8.855
 7375POPC   C1A25335  44.635  14.430   8.555
 7375POPC   D2A25336  44.623  14.405   8.255
 7375POPC   C3A25337  44.653  14.442   7.955
 7375POPC   C4A25338  44.650  14.360   7.655
 7375POPC   C1B25339  44.448  14.543   8.555
 7375POPC   C2B25340  44.433  14.599   8.255
 7375POPC   C3B25341  44.466  14.578   7.955
 7375POPC   C4B25342  44.426  14.588   7.655
 7376POPC   NC325343  30.723  22.948   9.455
 7376POPC   PO425344  30.745  22.913   9.155
 7376POPC   GL125345  30.675  22.956   8.855
 7376POPC   GL225346  30.780  22.918   8.855
 7376POPC   C1A25347  30.719  22.921   8.555
 7376POPC   D2A25348  30.674  22.925   8.255
 7376POPC   C3A25349  30.648  22.982   7.955
 7376POPC   C4A25350  30.734  22.973   7.655
 7376POPC   C1B25351  30.976  22.851   8.555
 7376POPC   C2B25352  30.951  22.892   8.255
 7376POPC   C3B25353  30.959  22.872   7.955
 7376POPC   C4B25354  30.963  22.860   7.655
 7377POPC   NC325355  28.364   5.867   9.455
 7377POPC   PO425356  28.385   5.863   9.155
 7377POPC   GL125357  28.395   5.881   8.855
 7377POPC   GL225358  28.367   5.784   8.855
 7377POPC   C1A25359  28.339   5.900   8.555
 7377POPC   D2A25360  28.370   5.900   8.255
 7377POPC   C3A25361  28.371   5.918   7.955
 7377POPC   C4A25362  28.340   5.820   7.655
 7377POPC   C1B25363  28.394   5.654   8.555
 7377POPC   C2B25364  28.471   5.649   8.255
 7377POPC   C3B25365  28.382   5.582   7.955
 7377POPC   C4B25366  28.443   5.609   7.655
 7378POPC   NC325367   8.996  24.471   9.455
 7378POPC   PO425368   9.001  24.531   9.155
 7378POPC   GL125369   8.945  24.533   8.855
 7378POPC   GL225370   8.839  24.475   8.855
 7378POPC   C1A25371   8.940  24.497   8.555
 7378POPC   D2A25372   8.938  24.467   8.255
 7378POPC   C3A25373   8.970  24.525   7.955
 7378POPC   C4A25374   8.971  24.483   7.655
 7378POPC   C1B25375   8.771  24.483   8.555
 7378POPC   C2B25376   8.733  24.484   8.255
 7378POPC   C3B25377   8.677  24.462   7.955
 7378POPC   C4B25378   8.750  24.445   7.655
 7379POPC   NC325379  35.327  30.666   9.455
 7379POPC   PO425380  35.343  30.702   9.155
 7379POPC   GL125381  35.397  30.745   8.855
 7379POPC   GL225382  35.265  30.754   8.855
 7379POPC   C1A25383  35.380  30.725   8.555
 7379POPC   D2A25384  35.348  30.728   8.255
 7379POPC   C3A25385  35.332  30.674   7.955
 7379POPC   C4A25386  35.385  30.734   7.655
 7379POPC   C1B25387  35.116  30.804   8.555
 7379POPC   C2B25388  35.131  30.850   8.255
 7379POPC   C3B25389  35.173  30.820   7.955
 7379POPC   C4B25390  35.120  30.823   7.655
 7380POPC   NC325391   4.361  28.342   9.455
 7380POPC   PO425392   4.304  28.373   9.155
 7380POPC   GL125393   4.268  28.376   8.855
 7380POPC   GL225394   4.239  28.372   8.855
 7380POPC   C1A25395   4.306  28.350   8.555
 7380POPC   D2A25396   4.304  28.345   8.255
 7380POPC   C3A25397   4.305  28.370   7.955
 7380POPC   C4A25398   4.313  28.356   7.655
 7380POPC   C1B25399   4.067  28.267   8.555
 7380POPC   C2B25400   4.098  28.249   8.255
 7380POPC   C3B25401   4.053  28.269   7.955
 7380POPC   C4B25402   4.051  28.234   7.655
 7381POPC   NC325403  26.014   3.502   9.455
 7381POPC   PO425404  26.010   3.586   9.155
 7381POPC   GL125405  26.019   3.506   8.855
 7381POPC   GL225406  25.920   3.568   8.855
 7381POPC   C1A25407  26.048   3.566   8.555
 7381POPC   D2A25408  26.019   3.538   8.255
 7381POPC   C3A25409  26.061   3.538   7.955
 7381POPC   C4A25410  25.996   3.564   7.655
 7381POPC   C1B25411  25.840   3.645   8.555
 7381POPC   C2B25412  25.859   3.707   8.255
 7381POPC   C3B25413  25.817   3.646   7.955
 7381POPC   C4B25414  25.821   3.660   7.655
 7382POPC   NC325415  27.603  11.257   9.455
 7382POPC   PO425416  27.595  11.262   9.155
 7382POPC   GL125417  27.641  11.255   8.855
 7382POPC   GL225418  27.494  11.421   8.855
 7382POPC   C1A25419  27.626  11.326   8.555
 7382POPC   D2A25420  27.639  11.349   8.255
 7382POPC   C3A25421  27.605  11.327   7.955
 7382POPC   C4A25422  27.572  11.272   7.655
 7382POPC   C1B25423  27.410  11.529   8.555
 7382POPC   C2B25424  27.383  11.526   8.255
 7382POPC   C3B25425  27.450  11.528   7.955
 7382POPC   C4B25426  27.441  11.458   7.655
 7383POPC   NC325427  29.132   9.779   9.455
 7383POPC   PO425428  29.122   9.779   9.155
 7383POPC   GL125429  29.135   9.707   8.855
 7383POPC   GL225430  29.051   9.706   8.855
 7383POPC   C1A25431  29.174   9.739   8.555
 7383POPC   D2A25432  29.132   9.758   8.255
 7383POPC   C3A25433  29.189   9.723   7.955
 7383POPC   C4A25434  29.180   9.784   7.655
 7383POPC   C1B25435  28.937   9.646   8.555
 7383POPC   C2B25436  28.937   9.625   8.255
 7383POPC   C3B25437  28.901   9.634   7.955
 7383POPC   C4B25438  28.911   9.615   7.655
 7384POPC   NC325439  12.083  20.623   9.455
 7384POPC   PO425440  12.114  20.647   9.155
 7384POPC   GL125441  12.111  20.645   8.855
 7384POPC   GL225442  12.208  20.585   8.855
 7384POPC   C1A25443  12.116  20.658   8.555
 7384POPC   D2A25444  12.080  20.599   8.255
 7384POPC   C3A25445  12.081  20.602   7.955
 7384POPC   C4A25446  12.070  20.610   7.655
 7384POPC   C1B25447  12.258  20.422   8.555
 7384POPC   C2B25448  12.253  20.472   8.255
 7384POPC   C3B25449  12.302  20.499   7.955
 7384POPC   C4B25450  12.317  20.512   7.655
 7385POPC   NC325451  11.326   9.753   9.455
 7385POPC   PO425452  11.309   9.716   9.155
 7385POPC   GL125453  11.342   9.745   8.855
 7385POPC   GL225454  11.154   9.699   8.855
 7385POPC   C1A25455  11.336   9.798   8.555
 7385POPC   D2A25456  11.310   9.762   8.255
 7385POPC   C3A25457  11.258   9.731   7.955
 7385POPC   C4A25458  11.262   9.761   7.655
 7385POPC   C1B25459  11.091   9.646   8.555
 7385POPC   C2B25460  11.121   9.573   8.255
 7385POPC   C3B25461  11.089   9.602   7.955
 7385POPC   C4B25462  11.056   9.594   7.655
 7386POPC   NC325463  43.846  19.867   9.455
 7386POPC   PO425464  43.903  19.872   9.155
 7386POPC   GL125465  43.842  19.855   8.855
 7386POPC   GL225466  43.964  19.930   8.855
 7386POPC   C1A25467  43.915  19.794   8.555
 7386POPC   D2A25468  43.923  19.839   8.255
 7386POPC   C3A25469  43.839  19.792   7.955
 7386POPC   C4A25470  43.911  19.817   7.655
 7386POPC   C1B25471  44.021  20.105   8.555
 7386POPC   C2B25472  44.001  20.060   8.255
 7386POPC   C3B25473  43.995  20.026   7.955
 7386POPC   C4B25474  43.989  20.063   7.655
 7387POPC   NC325475   1.984  20.606   9.455
 7387POPC   PO425476   1.990  20.604   9.155
 7387POPC   GL125477   1.979  20.619   8.855
 7387POPC   GL225478   1.828  20.612   8.855
 7387POPC   C1A25479   1.989  20.585   8.555
 7387POPC   D2A25480   1.978  20.629   8.255
 7387POPC   C3A25481   1.966  20.631   7.955
 7387POPC   C4A25482   1.950  20.641   7.655
 7387POPC   C1B25483   1.755  20.626   8.555
 7387POPC   C2B25484   1.772  20.648   8.255
 7387POPC   C3B25485   1.699  20.688   7.955
 7387POPC   C4B25486   1.727  20.629   7.655
 7388POPC   NC325487  25.274  39.205   9.455
 7388POPC   PO425488  25.231  39.251   9.155
 7388POPC   GL125489  25.310  39.211   8.855
 7388POPC   GL225490  25.221  39.368   8.855
 7388POPC   C1A25491  25.314  39.252   8.555
 7388POPC   D2A25492  25.298  39.199   8.255
 7388POPC   C3A25493  25.232  39.279   7.955
 7388POPC   C4A25494  25.256  39.274   7.655
 7388POPC   C1B25495  25.124  39.422   8.555
 7388POPC   C2B25496  25.127  39.405   8.255
 7388POPC   C3B25497  25.059  39.366   7.955
 7388POPC   C4B25498  25.137  39.373   7.655
 7389POPC   NC325499   9.707  17.467   9.455
 7389POPC   PO425500   9.734  17.539   9.155
 7389POPC   GL125501   9.767  17.548   8.855
 7389POPC   GL225502   9.708  17.365   8.855
 7389POPC   C1A25503   9.780  17.470   8.555
 7389POPC   D2A25504   9.776  17.463   8.255
 7389POPC   C3A25505   9.707  17.556   7.955
 7389POPC   C4A25506   9.700  17.460   7.655
 7389POPC   C1B25507   9.706  17.304   8.555
 7389POPC   C2B25508   9.718  17.228   8.255
 7389POPC   C3B25509   9.761  17.280   7.955
 7389POPC   C4B25510   9.756  17.226   7.655
 7390POPC   NC325511  43.119  17.541   9.455
 7390POPC   PO425512  43.083  17.553   9.155
 7390POPC   GL125513  43.101  17.521   8.855
 7390POPC   GL225514  43.196  17.559   8.855
 7390POPC   C1A25515  43.154  17.530   8.555
 7390POPC   D2A25516  43.151  17.518   8.255
 7390POPC   C3A25517  43.142  17.547   7.955
 7390POPC   C4A25518  43.092  17.528   7.655
 7390POPC   C1B25519  43.310  17.626   8.555
 7390POPC   C2B25520  43.328  17.635   8.255
 7390POPC   C3B25521  43.316  17.640   7.955
 7390POPC   C4B25522  43.363  17.661   7.655
 7391POPC   NC325523  36.163  31.441   9.455
 7391POPC   PO425524  36.161  31.434   9.155
 7391POPC   GL125525  36.160  31.458   8.855
 7391POPC   GL225526  36.025  31.507   8.855
 7391POPC   C1A25527  36.154  31.519   8.555
 7391POPC   D2A25528  36.103  31.513   8.255
 7391POPC   C3A25529  36.094  31.451   7.955
 7391POPC   C4A25530  36.164  31.456   7.655
 7391POPC   C1B25531  35.875  31.480   8.555
 7391POPC   C2B25532  35.838  31.505   8.255
 7391POPC   C3B25533  35.913  31.442   7.955
 7391POPC   C4B25534  35.893  31.476   7.655
 7392POPC   NC325535  37.632  15.132   9.455
 7392POPC   PO425536  37.640  15.173   9.155
 7392POPC   GL125537  37.662  15.223   8.855
 7392POPC   GL225538  37.745  15.305   8.855
 7392POPC   C1A25539  37.679  15.159   8.555
 7392POPC   D2A25540  37.644  15.156   8.255
 7392POPC   C3A25541  37.729  15.164   7.955
 7392POPC   C4A25542  37.645  15.221   7.655
 7392POPC   C1B25543  37.883  15.326   8.555
 7392POPC   C2B25544  37.912  15.341   8.255
 7392POPC   C3B25545  37.818  15.381   7.955
 7392POPC   C4B25546  37.832  15.334   7.655
 7393POPC   NC325547  26.066  37.729   9.455
 7393POPC   PO425548  26.081  37.671   9.155
 7393POPC   GL125549  26.070  37.643   8.855
 7393POPC   GL225550  26.111  37.773   8.855
 7393POPC   C1A25551  26.045  37.725   8.555
 7393POPC   D2A25552  25.992  37.693   8.255
 7393POPC   C3A25553  26.007  37.671   7.955
 7393POPC   C4A25554  26.069  37.684   7.655
 7393POPC   C1B25555  26.131  37.916   8.555
 7393POPC   C2B25556  26.141  37.896   8.255
 7393POPC   C3B25557  26.047  37.943   7.955
 7393POPC   C4B25558  26.054  37.928   7.655
 7394POPC   NC325559   9.706  37.720   9.455
 7394POPC   PO425560   9.730  37.678   9.155
 7394POPC   GL125561   9.754  37.654   8.855
 7394POPC   GL225562   9.691  37.569   8.855
 7394POPC   C1A25563   9.708  37.710   8.555
 7394POPC   D2A25564   9.761  37.674   8.255
 7394POPC   C3A25565   9.709  37.651   7.955
 7394POPC   C4A25566   9.723  37.703   7.655
 7394POPC   C1B25567   9.545  37.550   8.555
 7394POPC   C2B25568   9.524  37.464   8.255
 7394POPC   C3B25569   9.576  37.533   7.955
 7394POPC   C4B25570   9.592  37.497   7.655
 7395POPC   NC325571  11.321   0.445   9.455
 7395POPC   PO425572  11.309   0.450   9.155
 7395POPC   GL125573  11.312   0.431   8.855
 7395POPC   GL225574  11.362   0.318   8.855
 7395POPC   C1A25575  11.288   0.396   8.555
 7395POPC   D2A25576  11.343   0.480   8.255
 7395POPC   C3A25577  11.255   0.455   7.955
 7395POPC   C4A25578  11.303   0.438   7.655
 7395POPC   C1B25579  11.434   0.237   8.555
 7395POPC   C2B25580  11.448   0.271   8.255
 7395POPC   C3B25581  11.508   0.294   7.955
 7395POPC   C4B25582  11.503   0.264   7.655
 7396POPC   NC325583  22.952   2.723   9.455
 7396POPC   PO425584  22.915   2.730   9.155
 7396POPC   GL125585  22.892   2.799   8.855
 7396POPC   GL225586  23.007   2.703   8.855
 7396POPC   C1A25587  22.943   2.745   8.555
 7396POPC   D2A25588  22.925   2.765   8.255
 7396POPC   C3A25589  22.952   2.749   7.955
 7396POPC   C4A25590  22.933   2.784   7.655
 7396POPC   C1B25591  23.116   2.579   8.555
 7396POPC   C2B25592  23.095   2.532   8.255
 7396POPC   C3B25593  23.061   2.581   7.955
 7396POPC   C4B25594  23.095   2.599   7.655
 7397POPC   NC325595  33.764  28.342   9.455
 7397POPC   PO425596  33.792  28.367   9.155
 7397POPC   GL125597  33.806  28.341   8.855
 7397POPC   GL225598  33.860  28.481   8.855
 7397POPC   C1A25599  33.816  28.368   8.555
 7397POPC   D2A25600  33.819  28.346   8.255
 7397POPC   C3A25601  33.816  28.387   7.955
 7397POPC   C4A25602  33.762  28.354   7.655
 7397POPC   C1B25603  33.859  28.569   8.555
 7397POPC   C2B25604  33.884  28.619   8.255
 7397POPC   C3B25605  33.887  28.639   7.955
 7397POPC   C4B25606  33.816  28.580   7.655
 7398POPC   NC325607  34.592  26.002   9.455
 7398POPC   PO425608  34.571  26.086   9.155
 7398POPC   GL125609  34.556  26.067   8.855
 7398POPC   GL225610  34.620  25.907   8.855
 7398POPC   C1A25611  34.553  26.013   8.555
 7398POPC   D2A25612  34.612  26.030   8.255
 7398POPC   C3A25613  34.534  26.078   7.955
 7398POPC   C4A25614  34.613  26.085   7.655
 7398POPC   C1B25615  34.666  25.760   8.555
 7398POPC   C2B25616  34.648  25.785   8.255
 7398POPC   C3B25617  34.687  25.812   7.955
 7398POPC   C4B25618  34.687  25.817   7.655
 7399POPC   NC325619   9.710  32.205   9.455
 7399POPC   PO425620   9.738  32.273   9.155
 7399POPC   GL125621   9.751  32.298   8.855
 7399POPC   GL225622   9.596  32.144   8.855
 7399POPC   C1A25623   9.725  32.254   8.555
 7399POPC   D2A25624   9.794  32.253   8.255
 7399POPC   C3A25625   9.773  32.223   7.955
 7399POPC   C4A25626   9.719  32.272   7.655
 7399POPC   C1B25627   9.572  32.149   8.555
 7399POPC   C2B25628   9.513  32.130   8.255
 7399POPC   C3B25629   9.519  32.084   7.955
 7399POPC   C4B25630   9.520  32.094   7.655
 7400POPC   NC325631  11.320   8.237   9.455
 7400POPC   PO425632  11.340   8.211   9.155
 7400POPC   GL125633  11.310   8.229   8.855
 7400POPC   GL225634  11.379   8.220   8.855
 7400POPC   C1A25635  11.264   8.229   8.555
 7400POPC   D2A25636  11.345   8.182   8.255
 7400POPC   C3A25637  11.335   8.193   7.955
 7400POPC   C4A25638  11.304   8.148   7.655
 7400POPC   C1B25639  11.533   8.218   8.555
 7400POPC   C2B25640  11.555   8.196   8.255
 7400POPC   C3B25641  11.512   8.206   7.955
 7400POPC   C4B25642  11.504   8.223   7.655
 7401POPC   NC325643  29.114  39.214   9.455
 7401POPC   PO425644  29.144  39.206   9.155
 7401POPC   GL125645  29.164  39.194   8.855
 7401POPC   GL225646  29.267  39.283   8.855
 7401POPC   C1A25647  29.157  39.257   8.555
 7401POPC   D2A25648  29.107  39.219   8.255
 7401POPC   C3A25649  29.140  39.244   7.955
 7401POPC   C4A25650  29.099  39.203   7.655
 7401POPC   C1B25651  29.397  39.359   8.555
 7401POPC   C2B25652  29.311  39.343   8.255
 7401POPC   C3B25653  29.361  39.393   7.955
 7401POPC   C4B25654  29.357  39.352   7.655
 7402POPC   NC325655   9.759   4.272   9.455
 7402POPC   PO425656   9.723   4.309   9.155
 7402POPC   GL125657   9.711   4.328   8.855
 7402POPC   GL225658   9.672   4.169   8.855
 7402POPC   C1A25659   9.743   4.299   8.555
 7402POPC   D2A25660   9.737   4.320   8.255
 7402POPC   C3A25661   9.715   4.291   7.955
 7402POPC   C4A25662   9.718   4.306   7.655
 7402POPC   C1B25663   9.642   4.103   8.555
 7402POPC   C2B25664   9.668   4.059   8.255
 7402POPC   C3B25665   9.658   4.070   7.955
 7402POPC   C4B25666   9.661   4.052   7.655
 7403POPC   NC325667   4.312  36.907   9.455
 7403POPC   PO425668   4.312  36.928   9.155
 7403POPC   GL125669   4.297  36.887   8.855
 7403POPC   GL225670   4.351  37.056   8.855
 7403POPC   C1A25671   4.308  36.879   8.555
 7403POPC   D2A25672   4.331  36.922   8.255
 7403POPC   C3A25673   4.362  36.864   7.955
 7403POPC   C4A25674   4.276  36.936   7.655
 7403POPC   C1B25675   4.282  37.156   8.555
 7403POPC   C2B25676   4.254  37.182   8.255
 7403POPC   C3B25677   4.255  37.155   7.955
 7403POPC   C4B25678   4.321  37.163   7.655
 7404POPC   NC325679  25.312  12.036   9.455
 7404POPC   PO425680  25.291  12.049   9.155
 7404POPC   GL125681  25.228  12.029   8.855
 7404POPC   GL225682  25.184  12.058   8.855
 7404POPC   C1A25683  25.254  12.087   8.555
 7404POPC   D2A25684  25.232  12.126   8.255
 7404POPC   C3A25685  25.220  12.043   7.955
 7404POPC   C4A25686  25.270  12.030   7.655
 7404POPC   C1B25687  25.004  12.078   8.555
 7404POPC   C2B25688  24.984  12.023   8.255
 7404POPC   C3B25689  24.995  12.003   7.955
 7404POPC   C4B25690  25.058  11.989   7.655
 7405POPC   NC325691  22.982  42.345   9.455
 7405POPC   PO425692  22.956  42.365   9.155
 7405POPC   GL125693  22.896  42.384   8.855
 7405POPC   GL225694  22.895  42.467   8.855
 7405POPC   C1A25695  22.891  42.317   8.555
 7405POPC   D2A25696  22.911  42.336   8.255
 7405POPC   C3A25697  22.931  42.342   7.955
 7405POPC   C4A25698  22.898  42.384   7.655
 7405POPC   C1B25699  22.776  42.582   8.555
 7405POPC   C2B25700  22.809  42.495   8.255
 7405POPC   C3B25701  22.792  42.516   7.955
 7405POPC   C4B25702  22.785  42.535   7.655
 7406POPC   NC325703  12.815  38.469   9.455
 7406POPC   PO425704  12.825  38.445   9.155
 7406POPC   GL125705  12.872  38.442   8.855
 7406POPC   GL225706  12.768  38.318   8.855
 7406POPC   C1A25707  12.809  38.411   8.555
 7406POPC   D2A25708  12.869  38.493   8.255
 7406POPC   C3A25709  12.825  38.421   7.955
 7406POPC   C4A25710  12.870  38.421   7.655
 7406POPC   C1B25711  12.769  38.224   8.555
 7406POPC   C2B25712  12.794  38.254   8.255
 7406POPC   C3B25713  12.810  38.209   7.955
 7406POPC   C4B25714  12.760  38.246   7.655
 7407POPC   NC325715   2.759  23.678   9.455
 7407POPC   PO425716   2.736  23.749   9.155
 7407POPC   GL125717   2.774  23.762   8.855
 7407POPC   GL225718   2.855  23.806   8.855
 7407POPC   C1A25719   2.749  23.740   8.555
 7407POPC   D2A25720   2.808  23.759   8.255
 7407POPC   C3A25721   2.808  23.709   7.955
 7407POPC   C4A25722   2.725  23.704   7.655
 7407POPC   C1B25723   2.988  23.842   8.555
 7407POPC   C2B25724   2.995  23.844   8.255
 7407POPC   C3B25725   2.962  23.913   7.955
 7407POPC   C4B25726   2.975  23.859   7.655
 7408POPC   NC325727   5.874  43.143   9.455
 7408POPC   PO425728   5.906  43.113   9.155
 7408POPC   GL125729   5.827  43.155   8.855
 7408POPC   GL225730   5.917  43.031   8.855
 7408POPC   C1A25731   5.880  43.136   8.555
 7408POPC   D2A25732   5.884  43.082   8.255
 7408POPC   C3A25733   5.909  43.084   7.955
 7408POPC   C4A25734   5.873  43.065   7.655
 7408POPC   C1B25735   6.036  42.907   8.555
 7408POPC   C2B25736   6.001  42.916   8.255
 7408POPC   C3B25737   5.994  42.901   7.955
 7408POPC   C4B25738   5.966  42.868   7.655
 7409POPC   NC325739  12.092  30.661   9.455
 7409POPC   PO425740  12.064  30.651   9.155
 7409POPC   GL125741  12.070  30.650   8.855
 7409POPC   GL225742  12.113  30.857   8.855
 7409POPC   C1A25743  12.113  30.692   8.555
 7409POPC   D2A25744  12.096  30.678   8.255
 7409POPC   C3A25745  12.083  30.676   7.955
 7409POPC   C4A25746  12.087  30.653   7.655
 7409POPC   C1B25747  12.107  30.952   8.555
 7409POPC   C2B25748  12.121  30.913   8.255
 7409POPC   C3B25749  12.204  30.924   7.955
 7409POPC   C4B25750  12.189  30.918   7.655
 7410POPC   NC325751  36.880  28.419   9.455
 7410POPC   PO425752  36.916  28.369   9.155
 7410POPC   GL125753  36.938  28.377   8.855
 7410POPC   GL225754  36.847  28.452   8.855
 7410POPC   C1A25755  36.917  28.343   8.555
 7410POPC   D2A25756  36.899  28.369   8.255
 7410POPC   C3A25757  36.921  28.399   7.955
 7410POPC   C4A25758  36.951  28.327   7.655
 7410POPC   C1B25759  36.752  28.514   8.555
 7410POPC   C2B25760  36.755  28.553   8.255
 7410POPC   C3B25761  36.721  28.511   7.955
 7410POPC   C4B25762  36.710  28.577   7.655
 7411POPC   NC325763  41.532  37.694   9.455
 7411POPC   PO425764  41.564  37.705   9.155
 7411POPC   GL125765  41.602  37.679   8.855
 7411POPC   GL225766  41.690  37.703   8.855
 7411POPC   C1A25767  41.602  37.676   8.555
 7411POPC   D2A25768  41.521  37.649   8.255
 7411POPC   C3A25769  41.536  37.692   7.955
 7411POPC   C4A25770  41.574  37.644   7.655
 7411POPC   C1B25771  41.810  37.773   8.555
 7411POPC   C2B25772  41.772  37.798   8.255
 7411POPC   C3B25773  41.814  37.818   7.955
 7411POPC   C4B25774  41.805  37.766   7.655
 7412POPC   NC325775  19.859   6.642   9.455
 7412POPC   PO425776  19.824   6.678   9.155
 7412POPC   GL125777  19.840   6.659   8.855
 7412POPC   GL225778  19.745   6.513   8.855
 7412POPC   C1A25779  19.880   6.663   8.555
 7412POPC   D2A25780  19.883   6.655   8.255
 7412POPC   C3A25781  19.883   6.659   7.955
 7412POPC   C4A25782  19.881   6.638   7.655
 7412POPC   C1B25783  19.679   6.462   8.555
 7412POPC   C2B25784  19.663   6.439   8.255
 7412POPC   C3B25785  19.725   6.420   7.955
 7412POPC   C4B25786  19.713   6.420   7.655
 7413POPC   NC325787  43.150  21.395   9.455
 7413POPC   PO425788  43.087  21.419   9.155
 7413POPC   GL125789  43.112  21.425   8.855
 7413POPC   GL225790  43.071  21.317   8.855
 7413POPC   C1A25791  43.140  21.391   8.555
 7413POPC   D2A25792  43.089  21.354   8.255
 7413POPC   C3A25793  43.156  21.343   7.955
 7413POPC   C4A25794  43.101  21.403   7.655
 7413POPC   C1B25795  43.014  21.138   8.555
 7413POPC   C2B25796  43.008  21.192   8.255
 7413POPC   C3B25797  43.035  21.156   7.955
 7413POPC   C4B25798  43.054  21.163   7.655
 7414POPC   NC325799  11.287  19.018   9.455
 7414POPC   PO425800  11.343  19.076   9.155
 7414POPC   GL125801  11.335  19.010   8.855
 7414POPC   GL225802  11.195  19.083   8.855
 7414POPC   C1A25803  11.306  19.081   8.555
 7414POPC   D2A25804  11.293  19.069   8.255
 7414POPC   C3A25805  11.348  19.098   7.955
 7414POPC   C4A25806  11.349  19.014   7.655
 7414POPC   C1B25807  11.030  19.127   8.555
 7414POPC   C2B25808  11.086  19.053   8.255
 7414POPC   C3B25809  11.061  19.122   7.955
 7414POPC   C4B25810  11.023  19.077   7.655
 7415POPC   NC325811  25.245  18.257   9.455
 7415POPC   PO425812  25.289  18.268   9.155
 7415POPC   GL125813  25.250  18.329   8.855
 7415POPC   GL225814  25.288  18.363   8.855
 7415POPC   C1A25815  25.305  18.265   8.555
 7415POPC   D2A25816  25.245  18.264   8.255
 7415POPC   C3A25817  25.301  18.250   7.955
 7415POPC   C4A25818  25.265  18.289   7.655
 7415POPC   C1B25819  25.264  18.552   8.555
 7415POPC   C2B25820  25.295  18.566   8.255
 7415POPC   C3B25821  25.253  18.498   7.955
 7415POPC   C4B25822  25.270  18.502   7.655
 7416POPC   NC325823   6.635   5.913   9.455
 7416POPC   PO425824   6.595   5.887   9.155
 7416POPC   GL125825   6.665   5.852   8.855
 7416POPC   GL225826   6.786   5.819   8.855
 7416POPC   C1A25827   6.655   5.896   8.555
 7416POPC   D2A25828   6.610   5.893   8.255
 7416POPC   C3A25829   6.640   5.873   7.955
 7416POPC   C4A25830   6.652   5.884   7.655
 7416POPC   C1B25831   6.921   5.800   8.555
 7416POPC   C2B25832   6.860   5.822   8.255
 7416POPC   C3B25833   6.893   5.759   7.955
 7416POPC   C4B25834   6.867   5.814   7.655
 7417POPC   NC325835  14.417  40.032   9.455
 7417POPC   PO425836  14.452  40.036   9.155
 7417POPC   GL125837  14.415  39.994   8.855
 7417POPC   GL225838  14.462  39.855   8.855
 7417POPC   C1A25839  14.393  39.990   8.555
 7417POPC   D2A25840  14.430  39.965   8.255
 7417POPC   C3A25841  14.385  40.025   7.955
 7417POPC   C4A25842  14.442  40.038   7.655
 7417POPC   C1B25843  14.500  39.799   8.555
 7417POPC   C2B25844  14.448  39.811   8.255
 7417POPC   C3B25845  14.437  39.811   7.955
 7417POPC   C4B25846  14.506  39.742   7.655
 7418POPC   NC325847  34.544  22.155   9.455
 7418POPC   PO425848  34.620  22.193   9.155
 7418POPC   GL125849  34.536  22.181   8.855
 7418POPC   GL225850  34.680  22.162   8.855
 7418POPC   C1A25851  34.547  22.175   8.555
 7418POPC   D2A25852  34.564  22.135   8.255
 7418POPC   C3A25853  34.622  22.174   7.955
 7418POPC   C4A25854  34.569  22.158   7.655
 7418POPC   C1B25855  34.815  22.204   8.555
 7418POPC   C2B25856  34.846  22.151   8.255
 7418POPC   C3B25857  34.871  22.148   7.955
 7418POPC   C4B25858  34.811  22.232   7.655
 7419POPC   NC325859  37.718  22.975   9.455
 7419POPC   PO425860  37.701  22.936   9.155
 7419POPC   GL125861  37.640  22.908   8.855
 7419POPC   GL225862  37.821  22.954   8.855
 7419POPC   C1A25863  37.700  22.927   8.555
 7419POPC   D2A25864  37.681  22.974   8.255
 7419POPC   C3A25865  37.638  22.974   7.955
 7419POPC   C4A25866  37.631  22.948   7.655
 7419POPC   C1B25867  37.915  23.022   8.555
 7419POPC   C2B25868  37.877  22.987   8.255
 7419POPC   C3B25869  37.911  23.002   7.955
 7419POPC   C4B25870  37.888  22.986   7.655
 7420POPC   NC325871  13.627  43.153   9.455
 7420POPC   PO425872  13.606  43.148   9.155
 7420POPC   GL125873  13.608  43.119   8.855
 7420POPC   GL225874  13.714  43.180   8.855
 7420POPC   C1A25875  13.601  43.063   8.555
 7420POPC   D2A25876  13.654  43.130   8.255
 7420POPC   C3A25877  13.640  43.130   7.955
 7420POPC   C4A25878  13.613  43.144   7.655
 7420POPC   C1B25879  13.870  43.230   8.555
 7420POPC   C2B25880  13.837  43.225   8.255
 7420POPC   C3B25881  13.807  43.303   7.955
 7420POPC   C4B25882  13.795  43.243   7.655
 7421POPC   NC325883   8.966  28.361   9.455
 7421POPC   PO425884   9.017  28.341   9.155
 7421POPC   GL125885   8.985  28.365   8.855
 7421POPC   GL225886   8.928  28.195   8.855
 7421POPC   C1A25887   8.968  28.386   8.555
 7421POPC   D2A25888   8.934  28.403   8.255
 7421POPC   C3A25889   8.964  28.352   7.955
 7421POPC   C4A25890   9.001  28.340   7.655
 7421POPC   C1B25891   9.020  28.110   8.555
 7421POPC   C2B25892   8.964  28.101   8.255
 7421POPC   C3B25893   8.990  28.123   7.955
 7421POPC   C4B25894   9.003  28.097   7.655
 7422POPC   NC325895   7.459  20.578   9.455
 7422POPC   PO425896   7.439  20.637   9.155
 7422POPC   GL125897   7.466  20.592   8.855
 7422POPC   GL225898   7.570  20.512   8.855
 7422POPC   C1A25899   7.377  20.617   8.555
 7422POPC   D2A25900   7.448  20.598   8.255
 7422POPC   C3A25901   7.411  20.626   7.955
 7422POPC   C4A25902   7.465  20.589   7.655
 7422POPC   C1B25903   7.687  20.472   8.555
 7422POPC   C2B25904   7.638  20.509   8.255
 7422POPC   C3B25905   7.622  20.477   7.955
 7422POPC   C4B25906   7.679  20.514   7.655
 7423POPC   NC325907   1.253   1.213   9.455
 7423POPC   PO425908   1.175   1.246   9.155
 7423POPC   GL125909   1.223   1.166   8.855
 7423POPC   GL225910   1.089   1.198   8.855
 7423POPC   C1A25911   1.253   1.191   8.555
 7423POPC   D2A25912   1.217   1.208   8.255
 7423POPC   C3A25913   1.255   1.185   7.955
 7423POPC   C4A25914   1.262   1.250   7.655
 7423POPC   C1B25915   0.930   1.288   8.555
 7423POPC   C2B25916   0.940   1.294   8.255
 7423POPC   C3B25917   0.989   1.291   7.955
 7423POPC   C4B25918   0.932   1.304   7.655
 7424POPC   NC325919  29.192   5.849   9.455
 7424POPC   PO425920  29.150   5.837   9.155
 7424POPC   GL125921  29.177   5.913   8.855
 7424POPC   GL225922  29.202   6.014   8.855
 7424POPC   C1A25923  29.123   5.854   8.555
 7424POPC   D2A25924  29.096   5.825   8.255
 7424POPC   C3A25925  29.104   5.863   7.955
 7424POPC   C4A25926  29.178   5.846   7.655
 7424POPC   C1B25927  29.236   6.089   8.555
 7424POPC   C2B25928  29.315   6.115   8.255
 7424POPC   C3B25929  29.261   6.034   7.955
 7424POPC   C4B25930  29.331   6.054   7.655
 7425POPC   NC325931  37.692  30.663   9.455
 7425POPC   PO425932  37.653  30.660   9.155
 7425POPC   GL125933  37.678  30.672   8.855
 7425POPC   GL225934  37.653  30.601   8.855
 7425POPC   C1A25935  37.677  30.740   8.555
 7425POPC   D2A25936  37.638  30.718   8.255
 7425POPC   C3A25937  37.689  30.672   7.955
 7425POPC   C4A25938  37.703  30.739   7.655
 7425POPC   C1B25939  37.714  30.488   8.555
 7425POPC   C2B25940  37.712  30.406   8.255
 7425POPC   C3B25941  37.653  30.404   7.955
 7425POPC   C4B25942  37.672  30.411   7.655
 7426POPC   NC325943  31.433   4.312   9.455
 7426POPC   PO425944  31.476   4.276   9.155
 7426POPC   GL125945  31.447   4.272   8.855
 7426POPC   GL225946  31.577   4.255   8.855
 7426POPC   C1A25947  31.481   4.356   8.555
 7426POPC   D2A25948  31.519   4.319   8.255
 7426POPC   C3A25949  31.485   4.310   7.955
 7426POPC   C4A25950  31.476   4.315   7.655
 7426POPC   C1B25951  31.709   4.315   8.555
 7426POPC   C2B25952  31.690   4.274   8.255
 7426POPC   C3B25953  31.685   4.250   7.955
 7426POPC   C4B25954  31.730   4.249   7.655
 7427POPC   NC325955  36.160  22.949   9.455
 7427POPC   PO425956  36.134  22.917   9.155
 7427POPC   GL125957  36.119  22.903   8.855
 7427POPC   GL225958  36.228  22.875   8.855
 7427POPC   C1A25959  36.094  22.942   8.555
 7427POPC   D2A25960  36.145  22.909   8.255
 7427POPC   C3A25961  36.170  22.907   7.955
 7427POPC   C4A25962  36.164  22.946   7.655
 7427POPC   C1B25963  36.397  22.909   8.555
 7427POPC   C2B25964  36.348  22.874   8.255
 7427POPC   C3B25965  36.377  22.887   7.955
 7427POPC   C4B25966  36.422  22.933   7.655
 7428POPC   NC325967   2.008  16.706   9.455
 7428POPC   PO425968   1.974  16.733   9.155
 7428POPC   GL125969   1.946  16.777   8.855
 7428POPC   GL225970   2.148  16.675   8.855
 7428POPC   C1A25971   1.964  16.732   8.555
 7428POPC   D2A25972   1.968  16.698   8.255
 7428POPC   C3A25973   2.015  16.683   7.955
 7428POPC   C4A25974   1.954  16.751   7.655
 7428POPC   C1B25975   2.176  16.602   8.555
 7428POPC   C2B25976   2.199  16.633   8.255
 7428POPC   C3B25977   2.267  16.634   7.955
 7428POPC   C4B25978   2.264  16.624   7.655
 7429POPC   NC325979   2.015  17.544   9.455
 7429POPC   PO425980   2.040  17.527   9.155
 7429POPC   GL125981   1.994  17.458   8.855
 7429POPC   GL225982   2.160  17.541   8.855
 7429POPC   C1A25983   1.998  17.462   8.555
 7429POPC   D2A25984   1.978  17.507   8.255
 7429POPC   C3A25985   1.989  17.528   7.955
 7429POPC   C4A25986   1.964  17.498   7.655
 7429POPC   C1B25987   2.208  17.495   8.555
 7429POPC   C2B25988   2.236  17.494   8.255
 7429POPC   C3B25989   2.235  17.508   7.955
 7429POPC   C4B25990   2.282  17.478   7.655
 7430POPC   NC325991  32.234  21.337   9.455
 7430POPC   PO425992  32.222  21.398   9.155
 7430POPC   GL125993  32.216  21.394   8.855
 7430POPC   GL225994  32.192  21.231   8.855
 7430POPC   C1A25995  32.252  21.359   8.555
 7430POPC   D2A25996  32.201  21.349   8.255
 7430POPC   C3A25997  32.230  21.349   7.955
 7430POPC   C4A25998  32.259  21.422   7.655
 7430POPC   C1B25999  32.100  21.199   8.555
 7430POPC   C2B26000  32.164  21.109   8.255
 7430POPC   C3B26001  32.123  21.130   7.955
 7430POPC   C4B26002  32.151  21.119   7.655
 7431POPC   NC326003  22.926  19.867   9.455
 7431POPC   PO426004  22.888  19.854   9.155
 7431POPC   GL126005  22.936  19.873   8.855
 7431POPC   GL226006  23.037  19.961   8.855
 7431POPC   C1A26007  22.905  19.833   8.555
 7431POPC   D2A26008  22.927  19.861   8.255
 7431POPC   C3A26009  22.971  19.792   7.955
 7431POPC   C4A26010  22.922  19.795   7.655
 7431POPC   C1B26011  23.048  20.079   8.555
 7431POPC   C2B26012  23.074  19.995   8.255
 7431POPC   C3B26013  23.046  20.029   7.955
 7431POPC   C4B26014  23.060  20.061   7.655
 7432POPC   NC326015  38.452  19.796   9.455
 7432POPC   PO426016  38.479  19.875   9.155
 7432POPC   GL126017  38.415  19.836   8.855
 7432POPC   GL226018  38.428  19.952   8.855
 7432POPC   C1A26019  38.475  19.806   8.555
 7432POPC   D2A26020  38.460  19.796   8.255
 7432POPC   C3A26021  38.437  19.800   7.955
 7432POPC   C4A26022  38.414  19.809   7.655
 7432POPC   C1B26023  38.413  20.071   8.555
 7432POPC   C2B26024  38.430  20.102   8.255
 7432POPC   C3B26025  38.430  20.082   7.955
 7432POPC   C4B26026  38.349  20.066   7.655
 7433POPC   NC326027   2.758  35.364   9.455
 7433POPC   PO426028   2.748  35.310   9.155
 7433POPC   GL126029   2.721  35.321   8.855
 7433POPC   GL226030   2.745  35.240   8.855
 7433POPC   C1A26031   2.777  35.310   8.555
 7433POPC   D2A26032   2.738  35.400   8.255
 7433POPC   C3A26033   2.730  35.375   7.955
 7433POPC   C4A26034   2.793  35.372   7.655
 7433POPC   C1B26035   2.636  35.144   8.555
 7433POPC   C2B26036   2.677  35.129   8.255
 7433POPC   C3B26037   2.671  35.150   7.955
 7433POPC   C4B26038   2.668  35.155   7.655
 7434POPC   NC326039  26.065  31.505   9.455
 7434POPC   PO426040  25.992  31.447   9.155
 7434POPC   GL126041  26.042  31.423   8.855
 7434POPC   GL226042  26.066  31.303   8.855
 7434POPC   C1A26043  26.040  31.451   8.555
 7434POPC   D2A26044  26.035  31.453   8.255
 7434POPC   C3A26045  26.053  31.462   7.955
 7434POPC   C4A26046  26.074  31.462   7.655
 7434POPC   C1B26047  26.039  31.218   8.555
 7434POPC   C2B26048  26.053  31.249   8.255
 7434POPC   C3B26049  26.054  31.235   7.955
 7434POPC   C4B26050  25.984  31.245   7.655
 7435POPC   NC326051  43.882  14.436   9.455
 7435POPC   PO426052  43.906  14.360   9.155
 7435POPC   GL126053  43.888  14.444   8.855
 7435POPC   GL226054  43.827  14.257   8.855
 7435POPC   C1A26055  43.925  14.438   8.555
 7435POPC   D2A26056  43.903  14.429   8.255
 7435POPC   C3A26057  43.925  14.357   7.955
 7435POPC   C4A26058  43.922  14.417   7.655
 7435POPC   C1B26059  43.866  14.182   8.555
 7435POPC   C2B26060  43.802  14.184   8.255
 7435POPC   C3B26061  43.782  14.204   7.955
 7435POPC   C4B26062  43.846  14.186   7.655
 7436POPC   NC326063  30.741  27.634   9.455
 7436POPC   PO426064  30.718  27.587   9.155
 7436POPC   GL126065  30.696  27.571   8.855
 7436POPC   GL226066  30.765  27.704   8.855
 7436POPC   C1A26067  30.680  27.572   8.555
 7436POPC   D2A26068  30.714  27.634   8.255
 7436POPC   C3A26069  30.680  27.609   7.955
 7436POPC   C4A26070  30.665  27.618   7.655
 7436POPC   C1B26071  30.825  27.800   8.555
 7436POPC   C2B26072  30.912  27.741   8.255
 7436POPC   C3B26073  30.905  27.787   7.955
 7436POPC   C4B26074  30.845  27.734   7.655
 7437POPC   NC326075  33.787  18.328   9.455
 7437POPC   PO426076  33.784  18.305   9.155
 7437POPC   GL126077  33.814  18.291   8.855
 7437POPC   GL226078  33.934  18.374   8.855
 7437POPC   C1A26079  33.765  18.297   8.555
 7437POPC   D2A26080  33.812  18.286   8.255
 7437POPC   C3A26081  33.781  18.250   7.955
 7437POPC   C4A26082  33.845  18.248   7.655
 7437POPC   C1B26083  33.990  18.387   8.555
 7437POPC   C2B26084  33.962  18.463   8.255
 7437POPC   C3B26085  33.966  18.464   7.955
 7437POPC   C4B26086  33.977  18.395   7.655
 7438POPC   NC326087  21.426   2.780   9.455
 7438POPC   PO426088  21.385   2.733   9.155
 7438POPC   GL126089  21.393   2.750   8.855
 7438POPC   GL226090  21.321   2.616   8.855
 7438POPC   C1A26091  21.350   2.809   8.555
 7438POPC   D2A26092  21.397   2.798   8.255
 7438POPC   C3A26093  21.357   2.717   7.955
 7438POPC   C4A26094  21.375   2.803   7.655
 7438POPC   C1B26095  21.377   2.514   8.555
 7438POPC   C2B26096  21.324   2.516   8.255
 7438POPC   C3B26097  21.356   2.518   7.955
 7438POPC   C4B26098  21.371   2.501   7.655
 7439POPC   NC326099  15.164  44.660   9.455
 7439POPC   PO426100  15.227  44.685   9.155
 7439POPC   GL126101  15.226  44.630   8.855
 7439POPC   GL226102  15.099  44.552   8.855
 7439POPC   C1A26103  15.204  44.689   8.555
 7439POPC   D2A26104  15.229  44.712   8.255
 7439POPC   C3A26105  15.212  44.685   7.955
 7439POPC   C4A26106  15.210  44.685   7.655
 7439POPC   C1B26107  14.950  44.481   8.555
 7439POPC   C2B26108  15.029  44.536   8.255
 7439POPC   C3B26109  14.940  44.504   7.955
 7439POPC   C4B26110  14.945  44.548   7.655
 7440POPC   NC326111  22.921   2.008   9.455
 7440POPC   PO426112  22.963   1.955   9.155
 7440POPC   GL126113  22.971   2.025   8.855
 7440POPC   GL226114  22.968   2.089   8.855
 7440POPC   C1A26115  22.966   1.967   8.555
 7440POPC   D2A26116  22.913   1.943   8.255
 7440POPC   C3A26117  22.901   1.950   7.955
 7440POPC   C4A26118  22.929   1.947   7.655
 7440POPC   C1B26119  23.063   2.261   8.555
 7440POPC   C2B26120  23.012   2.176   8.255
 7440POPC   C3B26121  23.034   2.220   7.955
 7440POPC   C4B26122  23.083   2.194   7.655
 7441POPC   NC326123   2.783  43.896   9.455
 7441POPC   PO426124   2.807  43.869   9.155
 7441POPC   GL126125   2.718  43.864   8.855
 7441POPC   GL226126   2.758  43.729   8.855
 7441POPC   C1A26127   2.791  43.851   8.555
 7441POPC   D2A26128   2.768  43.879   8.255
 7441POPC   C3A26129   2.814  43.874   7.955
 7441POPC   C4A26130   2.732  43.901   7.655
 7441POPC   C1B26131   2.796  43.642   8.555
 7441POPC   C2B26132   2.760  43.622   8.255
 7441POPC   C3B26133   2.785  43.665   7.955
 7441POPC   C4B26134   2.777  43.648   7.655
 7442POPC   NC326135   6.598  15.139   9.455
 7442POPC   PO426136   6.600  15.192   9.155
 7442POPC   GL126137   6.686  15.148   8.855
 7442POPC   GL226138   6.713  15.346   8.855
 7442POPC   C1A26139   6.627  15.187   8.555
 7442POPC   D2A26140   6.677  15.170   8.255
 7442POPC   C3A26141   6.610  15.175   7.955
 7442POPC   C4A26142   6.656  15.221   7.655
 7442POPC   C1B26143   6.737  15.392   8.555
 7442POPC   C2B26144   6.736  15.376   8.255
 7442POPC   C3B26145   6.721  15.429   7.955
 7442POPC   C4B26146   6.710  15.429   7.655
 7443POPC   NC326147  44.619  35.318   9.455
 7443POPC   PO426148  44.636  35.389   9.155
 7443POPC   GL126149  44.693  35.357   8.855
 7443POPC   GL226150  44.501  35.349   8.855
 7443POPC   C1A26151  44.705  35.352   8.555
 7443POPC   D2A26152  44.651  35.384   8.255
 7443POPC   C3A26153  44.641  35.303   7.955
 7443POPC   C4A26154  44.712  35.302   7.655
 7443POPC   C1B26155  44.388  35.389   8.555
 7443POPC   C2B26156  44.409  35.317   8.255
 7443POPC   C3B26157  44.394  35.401   7.955
 7443POPC   C4B26158  44.370  35.411   7.655
 7444POPC   NC326159  26.033   2.762   9.455
 7444POPC   PO426160  25.995   2.796   9.155
 7444POPC   GL126161  26.011   2.751   8.855
 7444POPC   GL226162  26.181   2.849   8.855
 7444POPC   C1A26163  26.037   2.754   8.555
 7444POPC   D2A26164  26.023   2.741   8.255
 7444POPC   C3A26165  26.014   2.723   7.955
 7444POPC   C4A26166  26.022   2.805   7.655
 7444POPC   C1B26167  26.254   2.832   8.555
 7444POPC   C2B26168  26.248   2.903   8.255
 7444POPC   C3B26169  26.229   2.909   7.955
 7444POPC   C4B26170  26.296   2.896   7.655
 7445POPC   NC326171  41.510  26.818   9.455
 7445POPC   PO426172  41.596  26.806   9.155
 7445POPC   GL126173  41.532  26.770   8.855
 7445POPC   GL226174  41.463  26.808   8.855
 7445POPC   C1A26175  41.599  26.862   8.555
 7445POPC   D2A26176  41.597  26.848   8.255
 7445POPC   C3A26177  41.541  26.798   7.955
 7445POPC   C4A26178  41.596  26.864   7.655
 7445POPC   C1B26179  41.272  26.878   8.555
 7445POPC   C2B26180  41.297  26.845   8.255
 7445POPC   C3B26181  41.267  26.891   7.955
 7445POPC   C4B26182  41.269  26.868   7.655
 7446POPC   NC326183  37.727   8.246   9.455
 7446POPC   PO426184  37.724   8.217   9.155
 7446POPC   GL126185  37.674   8.176   8.855
 7446POPC   GL226186  37.769   8.120   8.855
 7446POPC   C1A26187  37.683   8.223   8.555
 7446POPC   D2A26188  37.696   8.242   8.255
 7446POPC   C3A26189  37.666   8.240   7.955
 7446POPC   C4A26190  37.697   8.183   7.655
 7446POPC   C1B26191  37.794   7.943   8.555
 7446POPC   C2B26192  37.753   7.962   8.255
 7446POPC   C3B26193  37.746   7.944   7.955
 7446POPC   C4B26194  37.741   7.998   7.655
 7447POPC   NC326195   4.336  36.167   9.455
 7447POPC   PO426196   4.333  36.081   9.155
 7447POPC   GL126197   4.337  36.176   8.855
 7447POPC   GL226198   4.461  36.163   8.855
 7447POPC   C1A26199   4.268  36.078   8.555
 7447POPC   D2A26200   4.349  36.114   8.255
 7447POPC   C3A26201   4.282  36.172   7.955
 7447POPC   C4A26202   4.290  36.121   7.655
 7447POPC   C1B26203   4.492  36.270   8.555
 7447POPC   C2B26204   4.502  36.302   8.255
 7447POPC   C3B26205   4.542  36.339   7.955
 7447POPC   C4B26206   4.531  36.296   7.655
 7448POPC   NC326207  28.366  30.649   9.455
 7448POPC   PO426208  28.409  30.701   9.155
 7448POPC   GL126209  28.325  30.727   8.855
 7448POPC   GL226210  28.438  30.650   8.855
 7448POPC   C1A26211  28.325  30.731   8.555
 7448POPC   D2A26212  28.331  30.663   8.255
 7448POPC   C3A26213  28.400  30.673   7.955
 7448POPC   C4A26214  28.337  30.674   7.655
 7448POPC   C1B26215  28.598  30.596   8.555
 7448POPC   C2B26216  28.548  30.555   8.255
 7448POPC   C3B26217  28.581  30.588   7.955
 7448POPC   C4B26218  28.590  30.594   7.655
 7449POPC   NC326219  23.737  17.469   9.455
 7449POPC   PO426220  23.720  17.504   9.155
 7449POPC   GL126221  23.705  17.502   8.855
 7449POPC   GL226222  23.642  17.393   8.855
 7449POPC   C1A26223  23.734  17.466   8.555
 7449POPC   D2A26224  23.759  17.530   8.255
 7449POPC   C3A26225  23.696  17.495   7.955
 7449POPC   C4A26226  23.728  17.522   7.655
 7449POPC   C1B26227  23.505  17.365   8.555
 7449POPC   C2B26228  23.472  17.397   8.255
 7449POPC   C3B26229  23.541  17.394   7.955
 7449POPC   C4B26230  23.520  17.364   7.655
 7450POPC   NC326231  12.802   8.234   9.455
 7450POPC   PO426232  12.825   8.208   9.155
 7450POPC   GL126233  12.819   8.195   8.855
 7450POPC   GL226234  12.796   8.096   8.855
 7450POPC   C1A26235  12.853   8.231   8.555
 7450POPC   D2A26236  12.888   8.203   8.255
 7450POPC   C3A26237  12.848   8.186   7.955
 7450POPC   C4A26238  12.830   8.154   7.655
 7450POPC   C1B26239  12.713   7.982   8.555
 7450POPC   C2B26240  12.651   7.999   8.255
 7450POPC   C3B26241  12.618   8.035   7.955
 7450POPC   C4B26242  12.700   8.022   7.655
 7451POPC   NC326243  19.034  40.019   9.455
 7451POPC   PO426244  19.063  40.033   9.155
 7451POPC   GL126245  19.010  40.018   8.855
 7451POPC   GL226246  19.210  39.971   8.855
 7451POPC   C1A26247  19.102  40.006   8.555
 7451POPC   D2A26248  19.009  40.018   8.255
 7451POPC   C3A26249  19.012  39.992   7.955
 7451POPC   C4A26250  19.027  40.034   7.655
 7451POPC   C1B26251  19.305  39.938   8.555
 7451POPC   C2B26252  19.309  39.884   8.255
 7451POPC   C3B26253  19.245  39.873   7.955
 7451POPC   C4B26254  19.280  39.876   7.655
 7452POPC   NC326255   5.861  18.313   9.455
 7452POPC   PO426256   5.845  18.285   9.155
 7452POPC   GL126257   5.831  18.312   8.855
 7452POPC   GL226258   5.828  18.341   8.855
 7452POPC   C1A26259   5.840  18.252   8.555
 7452POPC   D2A26260   5.851  18.291   8.255
 7452POPC   C3A26261   5.865  18.241   7.955
 7452POPC   C4A26262   5.898  18.277   7.655
 7452POPC   C1B26263   5.725  18.461   8.555
 7452POPC   C2B26264   5.727  18.531   8.255
 7452POPC   C3B26265   5.686  18.462   7.955
 7452POPC   C4B26266   5.725  18.528   7.655
 7453POPC   NC326267  26.828  16.731   9.455
 7453POPC   PO426268  26.788  16.726   9.155
 7453POPC   GL126269  26.866  16.740   8.855
 7453POPC   GL226270  26.723  16.849   8.855
 7453POPC   C1A26271  26.789  16.682   8.555
 7453POPC   D2A26272  26.863  16.712   8.255
 7453POPC   C3A26273  26.857  16.743   7.955
 7453POPC   C4A26274  26.853  16.717   7.655
 7453POPC   C1B26275  26.720  16.949   8.555
 7453POPC   C2B26276  26.690  16.976   8.255
 7453POPC   C3B26277  26.716  16.956   7.955
 7453POPC   C4B26278  26.705  16.904   7.655
 7454POPC   NC326279  24.465   8.206   9.455
 7454POPC   PO426280  24.473   8.221   9.155
 7454POPC   GL126281  24.466   8.241   8.855
 7454POPC   GL226282  24.352   8.210   8.855
 7454POPC   C1A26283  24.504   8.191   8.555
 7454POPC   D2A26284  24.515   8.150   8.255
 7454POPC   C3A26285  24.458   8.179   7.955
 7454POPC   C4A26286  24.509   8.185   7.655
 7454POPC   C1B26287  24.282   8.157   8.555
 7454POPC   C2B26288  24.289   8.200   8.255
 7454POPC   C3B26289  24.230   8.164   7.955
 7454POPC   C4B26290  24.245   8.172   7.655
 7455POPC   NC326291  42.366   4.307   9.455
 7455POPC   PO426292  42.363   4.365   9.155
 7455POPC   GL126293  42.380   4.327   8.855
 7455POPC   GL226294  42.335   4.424   8.855
 7455POPC   C1A26295  42.342   4.279   8.555
 7455POPC   D2A26296  42.349   4.306   8.255
 7455POPC   C3A26297  42.380   4.300   7.955
 7455POPC   C4A26298  42.349   4.308   7.655
 7455POPC   C1B26299  42.327   4.614   8.555
 7455POPC   C2B26300  42.362   4.546   8.255
 7455POPC   C3B26301  42.333   4.523   7.955
 7455POPC   C4B26302  42.337   4.615   7.655
 7456POPC   NC326303  32.259   7.428   9.455
 7456POPC   PO426304  32.206   7.404   9.155
 7456POPC   GL126305  32.289   7.441   8.855
 7456POPC   GL226306  32.119   7.393   8.855
 7456POPC   C1A26307  32.274   7.405   8.555
 7456POPC   D2A26308  32.229   7.383   8.255
 7456POPC   C3A26309  32.261   7.452   7.955
 7456POPC   C4A26310  32.283   7.469   7.655
 7456POPC   C1B26311  32.012   7.440   8.555
 7456POPC   C2B26312  32.013   7.374   8.255
 7456POPC   C3B26313  32.025   7.400   7.955
 7456POPC   C4B26314  31.990   7.396   7.655
 7457POPC   NC326315  44.708  31.517   9.455
 7457POPC   PO426316  44.678  31.431   9.155
 7457POPC   GL126317  44.620  31.432   8.855
 7457POPC   GL226318  44.664  31.608   8.855
 7457POPC   C1A26319  44.673  31.458   8.555
 7457POPC   D2A26320  44.673  31.466   8.255
 7457POPC   C3A26321  44.685  31.435   7.955
 7457POPC   C4A26322  44.669  31.484   7.655
 7457POPC   C1B26323  44.720  31.754   8.555
 7457POPC   C2B26324  44.694  31.722   8.255
 7457POPC   C3B26325  44.718  31.718   7.955
 7457POPC   C4B26326  44.750  31.665   7.655
 7458POPC   NC326327  44.616   5.061   9.455
 7458POPC   PO426328  44.645   5.075   9.155
 7458POPC   GL126329  44.692   5.112   8.855
 7458POPC   GL226330  44.653   5.002   8.855
 7458POPC   C1A26331  44.619   5.121   8.555
 7458POPC   D2A26332  44.697   5.081   8.255
 7458POPC   C3A26333  44.663   5.088   7.955
 7458POPC   C4A26334  44.706   5.110   7.655
 7458POPC   C1B26335  44.686   4.839   8.555
 7458POPC   C2B26336  44.680   4.847   8.255
 7458POPC   C3B26337  44.757   4.812   7.955
 7458POPC   C4B26338  44.751   4.825   7.655
 7459POPC   NC326339  43.083  11.312   9.455
 7459POPC   PO426340  43.137  11.276   9.155
 7459POPC   GL126341  43.137  11.337   8.855
 7459POPC   GL226342  43.236  11.207   8.855
 7459POPC   C1A26343  43.143  11.257   8.555
 7459POPC   D2A26344  43.068  11.350   8.255
 7459POPC   C3A26345  43.069  11.342   7.955
 7459POPC   C4A26346  43.111  11.308   7.655
 7459POPC   C1B26347  43.340  11.139   8.555
 7459POPC   C2B26348  43.339  11.207   8.255
 7459POPC   C3B26349  43.374  11.207   7.955
 7459POPC   C4B26350  43.285  11.205   7.655
 7460POPC   NC326351  21.426   4.308   9.455
 7460POPC   PO426352  21.409   4.302   9.155
 7460POPC   GL126353  21.415   4.299   8.855
 7460POPC   GL226354  21.232   4.338   8.855
 7460POPC   C1A26355  21.403   4.283   8.555
 7460POPC   D2A26356  21.352   4.317   8.255
 7460POPC   C3A26357  21.407   4.358   7.955
 7460POPC   C4A26358  21.380   4.351   7.655
 7460POPC   C1B26359  21.103   4.264   8.555
 7460POPC   C2B26360  21.108   4.303   8.255
 7460POPC   C3B26361  21.125   4.302   7.955
 7460POPC   C4B26362  21.109   4.281   7.655
 7461POPC   NC326363  25.310  36.136   9.455
 7461POPC   PO426364  25.261  36.177   9.155
 7461POPC   GL126365  25.241  36.136   8.855
 7461POPC   GL226366  25.357  36.038   8.855
 7461POPC   C1A26367  25.244  36.125   8.555
 7461POPC   D2A26368  25.280  36.127   8.255
 7461POPC   C3A26369  25.220  36.146   7.955
 7461POPC   C4A26370  25.234  36.078   7.655
 7461POPC   C1B26371  25.449  35.914   8.555
 7461POPC   C2B26372  25.467  36.005   8.255
 7461POPC   C3B26373  25.487  35.968   7.955
 7461POPC   C4B26374  25.487  35.946   7.655
 7462POPC   NC326375  36.165   7.428   9.455
 7462POPC   PO426376  36.146   7.429   9.155
 7462POPC   GL126377  36.122   7.429   8.855
 7462POPC   GL226378  36.012   7.453   8.855
 7462POPC   C1A26379  36.175   7.388   8.555
 7462POPC   D2A26380  36.082   7.463   8.255
 7462POPC   C3A26381  36.080   7.405   7.955
 7462POPC   C4A26382  36.094   7.434   7.655
 7462POPC   C1B26383  35.836   7.439   8.555
 7462POPC   C2B26384  35.843   7.430   8.255
 7462POPC   C3B26385  35.861   7.425   7.955
 7462POPC   C4B26386  35.899   7.440   7.655
 7463POPC   NC326387  39.225  20.646   9.455
 7463POPC   PO426388  39.265  20.572   9.155
 7463POPC   GL126389  39.184  20.646   8.855
 7463POPC   GL226390  39.136  20.699   8.855
 7463POPC   C1A26391  39.236  20.582   8.555
 7463POPC   D2A26392  39.229  20.646   8.255
 7463POPC   C3A26393  39.206  20.642   7.955
 7463POPC   C4A26394  39.263  20.604   7.655
 7463POPC   C1B26395  39.165  20.854   8.555
 7463POPC   C2B26396  39.152  20.791   8.255
 7463POPC   C3B26397  39.134  20.862   7.955
 7463POPC   C4B26398  39.079  20.882   7.655
 7464POPC   NC326399  33.060  19.017   9.455
 7464POPC   PO426400  33.012  19.021   9.155
 7464POPC   GL126401  33.058  19.057   8.855
 7464POPC   GL226402  32.960  19.156   8.855
 7464POPC   C1A26403  32.991  19.084   8.555
 7464POPC   D2A26404  33.040  19.022   8.255
 7464POPC   C3A26405  32.993  19.034   7.955
 7464POPC   C4A26406  33.062  19.076   7.655
 7464POPC   C1B26407  32.831  19.248   8.555
 7464POPC   C2B26408  32.886  19.209   8.255
 7464POPC   C3B26409  32.881  19.263   7.955
 7464POPC   C4B26410  32.857  19.259   7.655
 7465POPC   NC326411  22.930  39.226   9.455
 7465POPC   PO426412  22.966  39.241   9.155
 7465POPC   GL126413  22.926  39.188   8.855
 7465POPC   GL226414  22.977  39.306   8.855
 7465POPC   C1A26415  22.962  39.182   8.555
 7465POPC   D2A26416  22.969  39.235   8.255
 7465POPC   C3A26417  22.976  39.269   7.955
 7465POPC   C4A26418  22.948  39.190   7.655
 7465POPC   C1B26419  23.012  39.437   8.555
 7465POPC   C2B26420  23.057  39.437   8.255
 7465POPC   C3B26421  22.990  39.500   7.955
 7465POPC   C4B26422  23.018  39.492   7.655
 7466POPC   NC326423  19.852   2.762   9.455
 7466POPC   PO426424  19.832   2.803   9.155
 7466POPC   GL126425  19.799   2.802   8.855
 7466POPC   GL226426  19.924   2.802   8.855
 7466POPC   C1A26427  19.878   2.794   8.555
 7466POPC   D2A26428  19.880   2.753   8.255
 7466POPC   C3A26429  19.841   2.759   7.955
 7466POPC   C4A26430  19.864   2.786   7.655
 7466POPC   C1B26431  20.074   2.837   8.555
 7466POPC   C2B26432  20.052   2.843   8.255
 7466POPC   C3B26433  20.010   2.866   7.955
 7466POPC   C4B26434  20.021   2.866   7.655
 7467POPC   NC326435  20.610  40.737   9.455
 7467POPC   PO426436  20.625  40.746   9.155
 7467POPC   GL126437  20.569  40.741   8.855
 7467POPC   GL226438  20.546  40.896   8.855
 7467POPC   C1A26439  20.602  40.795   8.555
 7467POPC   D2A26440  20.596  40.787   8.255
 7467POPC   C3A26441  20.660  40.762   7.955
 7467POPC   C4A26442  20.641  40.754   7.655
 7467POPC   C1B26443  20.467  40.927   8.555
 7467POPC   C2B26444  20.386  40.916   8.255
 7467POPC   C3B26445  20.409  40.918   7.955
 7467POPC   C4B26446  20.458  40.957   7.655
 7468POPC   NC326447  37.702  29.959   9.455
 7468POPC   PO426448  37.679  29.963   9.155
 7468POPC   GL126449  37.695  29.917   8.855
 7468POPC   GL226450  37.822  29.802   8.855
 7468POPC   C1A26451  37.673  29.879   8.555
 7468POPC   D2A26452  37.670  29.871   8.255
 7468POPC   C3A26453  37.664  29.894   7.955
 7468POPC   C4A26454  37.652  29.964   7.655
 7468POPC   C1B26455  37.898  29.733   8.555
 7468POPC   C2B26456  37.901  29.753   8.255
 7468POPC   C3B26457  37.901  29.743   7.955
 7468POPC   C4B26458  37.837  29.804   7.655
 7469POPC   NC326459  16.682  33.769   9.455
 7469POPC   PO426460  16.710  33.792   9.155
 7469POPC   GL126461  16.776  33.837   8.855
 7469POPC   GL226462  16.653  33.965   8.855
 7469POPC   C1A26463  16.714  33.774   8.555
 7469POPC   D2A26464  16.722  33.782   8.255
 7469POPC   C3A26465  16.689  33.837   7.955
 7469POPC   C4A26466  16.688  33.820   7.655
 7469POPC   C1B26467  16.595  34.051   8.555
 7469POPC   C2B26468  16.605  34.040   8.255
 7469POPC   C3B26469  16.628  33.998   7.955
 7469POPC   C4B26470  16.608  34.062   7.655
 7470POPC   NC326471  37.696   4.327   9.455
 7470POPC   PO426472  37.682   4.339   9.155
 7470POPC   GL126473  37.648   4.314   8.855
 7470POPC   GL226474  37.567   4.226   8.855
 7470POPC   C1A26475  37.648   4.334   8.555
 7470POPC   D2A26476  37.657   4.340   8.255
 7470POPC   C3A26477  37.658   4.349   7.955
 7470POPC   C4A26478  37.656   4.323   7.655
 7470POPC   C1B26479  37.487   4.190   8.555
 7470POPC   C2B26480  37.505   4.211   8.255
 7470POPC   C3B26481  37.509   4.159   7.955
 7470POPC   C4B26482  37.463   4.140   7.655
 7471POPC   NC326483  40.011   9.747   9.455
 7471POPC   PO426484  40.009   9.790   9.155
 7471POPC   GL126485  39.978   9.720   8.855
 7471POPC   GL226486  40.028   9.861   8.855
 7471POPC   C1A26487  39.959   9.780   8.555
 7471POPC   D2A26488  40.038   9.764   8.255
 7471POPC   C3A26489  39.990   9.739   7.955
 7471POPC   C4A26490  40.036   9.701   7.655
 7471POPC   C1B26491  40.043   9.957   8.555
 7471POPC   C2B26492  40.077   9.955   8.255
 7471POPC   C3B26493  40.031   9.997   7.955
 7471POPC   C4B26494  40.025  10.045   7.655
 7472POPC   NC326495  11.327  35.364   9.455
 7472POPC   PO426496  11.255  35.384   9.155
 7472POPC   GL126497  11.276  35.384   8.855
 7472POPC   GL226498  11.394  35.224   8.855
 7472POPC   C1A26499  11.338  35.361   8.555
 7472POPC   D2A26500  11.305  35.330   8.255
 7472POPC   C3A26501  11.305  35.313   7.955
 7472POPC   C4A26502  11.344  35.338   7.655
 7472POPC   C1B26503  11.476  35.155   8.555
 7472POPC   C2B26504  11.435  35.130   8.255
 7472POPC   C3B26505  11.525  35.138   7.955
 7472POPC   C4B26506  11.452  35.216   7.655
 7473POPC   NC326507  24.441   3.564   9.455
 7473POPC   PO426508  24.521   3.529   9.155
 7473POPC   GL126509  24.507   3.498   8.855
 7473POPC   GL226510  24.425   3.615   8.855
 7473POPC   C1A26511  24.451   3.505   8.555
 7473POPC   D2A26512  24.461   3.520   8.255
 7473POPC   C3A26513  24.448   3.545   7.955
 7473POPC   C4A26514  24.521   3.510   7.655
 7473POPC   C1B26515  24.453   3.827   8.555
 7473POPC   C2B26516  24.416   3.760   8.255
 7473POPC   C3B26517  24.400   3.738   7.955
 7473POPC   C4B26518  24.420   3.732   7.655
 7474POPC   NC326519   8.950  19.821   9.455
 7474POPC   PO426520   8.953  19.872   9.155
 7474POPC   GL126521   8.952  19.879   8.855
 7474POPC   GL226522   9.075  19.912   8.855
 7474POPC   C1A26523   8.978  19.834   8.555
 7474POPC   D2A26524   9.017  19.867   8.255
 7474POPC   C3A26525   8.998  19.838   7.955
 7474POPC   C4A26526   8.960  19.874   7.655
 7474POPC   C1B26527   9.171  20.065   8.555
 7474POPC   C2B26528   9.133  20.012   8.255
 7474POPC   C3B26529   9.126  20.032   7.955
 7474POPC   C4B26530   9.094  20.039   7.655
 7475POPC   NC326531  19.846   8.173   9.455
 7475POPC   PO426532  19.824   8.162   9.155
 7475POPC   GL126533  19.877   8.163   8.855
 7475POPC   GL226534  19.707   8.272   8.855
 7475POPC   C1A26535  19.790   8.175   8.555
 7475POPC   D2A26536  19.868   8.173   8.255
 7475POPC   C3A26537  19.799   8.245   7.955
 7475POPC   C4A26538  19.818   8.184   7.655
 7475POPC   C1B26539  19.654   8.330   8.555
 7475POPC   C2B26540  19.686   8.333   8.255
 7475POPC   C3B26541  19.620   8.335   7.955
 7475POPC   C4B26542  19.690   8.352   7.655
 7476POPC   NC326543  18.292  43.838   9.455
 7476POPC   PO426544  18.290  43.929   9.155
 7476POPC   GL126545  18.267  43.864   8.855
 7476POPC   GL226546  18.430  43.827   8.855
 7476POPC   C1A26547  18.249  43.881   8.555
 7476POPC   D2A26548  18.290  43.899   8.255
 7476POPC   C3A26549  18.287  43.844   7.955
 7476POPC   C4A26550  18.279  43.910   7.655
 7476POPC   C1B26551  18.552  43.879   8.555
 7476POPC   C2B26552  18.573  43.841   8.255
 7476POPC   C3B26553  18.563  43.822   7.955
 7476POPC   C4B26554  18.538  43.886   7.655
 7477POPC   NC326555  36.905  19.853   9.455
 7477POPC   PO426556  36.922  19.816   9.155
 7477POPC   GL126557  36.908  19.877   8.855
 7477POPC   GL226558  36.763  19.780   8.855
 7477POPC   C1A26559  36.903  19.791   8.555
 7477POPC   D2A26560  36.949  19.822   8.255
 7477POPC   C3A26561  36.868  19.786   7.955
 7477POPC   C4A26562  36.872  19.809   7.655
 7477POPC   C1B26563  36.737  19.695   8.555
 7477POPC   C2B26564  36.719  19.655   8.255
 7477POPC   C3B26565  36.653  19.703   7.955
 7477POPC   C4B26566  36.715  19.659   7.655
 7478POPC   NC326567  37.632   8.946   9.455
 7478POPC   PO426568  37.633   8.966   9.155
 7478POPC   GL126569  37.702   8.945   8.855
 7478POPC   GL226570  37.540   8.973   8.855
 7478POPC   C1A26571  37.717   8.934   8.555
 7478POPC   D2A26572  37.639   8.936   8.255
 7478POPC   C3A26573  37.706   9.020   7.955
 7478POPC   C4A26574  37.631   9.010   7.655
 7478POPC   C1B26575  37.447   8.973   8.555
 7478POPC   C2B26576  37.483   8.979   8.255
 7478POPC   C3B26577  37.481   9.016   7.955
 7478POPC   C4B26578  37.411   9.032   7.655
 7479POPC   NC326579  10.506  18.281   9.455
 7479POPC   PO426580  10.496  18.321   9.155
 7479POPC   GL126581  10.565  18.248   8.855
 7479POPC   GL226582  10.633  18.209   8.855
 7479POPC   C1A26583  10.570  18.303   8.555
 7479POPC   D2A26584  10.520  18.289   8.255
 7479POPC   C3A26585  10.561  18.268   7.955
 7479POPC   C4A26586  10.520  18.295   7.655
 7479POPC   C1B26587  10.749  18.129   8.555
 7479POPC   C2B26588  10.758  18.170   8.255
 7479POPC   C3B26589  10.706  18.180   7.955
 7479POPC   C4B26590  10.677  18.172   7.655
 7480POPC   NC326591  13.641  33.052   9.455
 7480POPC   PO426592  13.585  33.022   9.155
 7480POPC   GL126593  13.622  33.057   8.855
 7480POPC   GL226594  13.679  32.867   8.855
 7480POPC   C1A26595  13.585  32.998   8.555
 7480POPC   D2A26596  13.597  33.068   8.255
 7480POPC   C3A26597  13.676  33.050   7.955
 7480POPC   C4A26598  13.617  33.031   7.655
 7480POPC   C1B26599  13.757  32.769   8.555
 7480POPC   C2B26600  13.742  32.802   8.255
 7480POPC   C3B26601  13.766  32.789   7.955
 7480POPC   C4B26602  13.731  32.833   7.655
 7481POPC   NC326603  36.854  20.569   9.455
 7481POPC   PO426604  36.907  20.577   9.155
 7481POPC   GL126605  36.888  20.657   8.855
 7481POPC   GL226606  36.903  20.477   8.855
 7481POPC   C1A26607  36.948  20.644   8.555
 7481POPC   D2A26608  36.883  20.614   8.255
 7481POPC   C3A26609  36.890  20.589   7.955
 7481POPC   C4A26610  36.929  20.634   7.655
 7481POPC   C1B26611  36.775  20.388   8.555
 7481POPC   C2B26612  36.823  20.356   8.255
 7481POPC   C3B26613  36.801  20.332   7.955
 7481POPC   C4B26614  36.820  20.359   7.655
 7482POPC   NC326615   5.900  15.194   9.455
 7482POPC   PO426616   5.896  15.214   9.155
 7482POPC   GL126617   5.864  15.190   8.855
 7482POPC   GL226618   5.861  15.321   8.855
 7482POPC   C1A26619   5.886  15.214   8.555
 7482POPC   D2A26620   5.847  15.198   8.255
 7482POPC   C3A26621   5.882  15.213   7.955
 7482POPC   C4A26622   5.835  15.215   7.655
 7482POPC   C1B26623   5.802  15.382   8.555
 7482POPC   C2B26624   5.797  15.383   8.255
 7482POPC   C3B26625   5.778  15.443   7.955
 7482POPC   C4B26626   5.852  15.424   7.655
 7483POPC   NC326627  22.899  40.745   9.455
 7483POPC   PO426628  22.932  40.816   9.155
 7483POPC   GL126629  22.896  40.777   8.855
 7483POPC   GL226630  23.034  40.839   8.855
 7483POPC   C1A26631  22.960  40.746   8.555
 7483POPC   D2A26632  22.966  40.744   8.255
 7483POPC   C3A26633  22.978  40.810   7.955
 7483POPC   C4A26634  22.954  40.808   7.655
 7483POPC   C1B26635  23.225  40.864   8.555
 7483POPC   C2B26636  23.174  40.861   8.255
 7483POPC   C3B26637  23.147  40.780   7.955
 7483POPC   C4B26638  23.222  40.811   7.655
 7484POPC   NC326639   9.758  28.391   9.455
 7484POPC   PO426640   9.759  28.329   9.155
 7484POPC   GL126641   9.763  28.349   8.855
 7484POPC   GL226642   9.784  28.519   8.855
 7484POPC   C1A26643   9.794  28.350   8.555
 7484POPC   D2A26644   9.717  28.346   8.255
 7484POPC   C3A26645   9.790  28.360   7.955
 7484POPC   C4A26646   9.794  28.371   7.655
 7484POPC   C1B26647   9.872  28.541   8.555
 7484POPC   C2B26648   9.886  28.555   8.255
 7484POPC   C3B26649   9.915  28.593   7.955
 7484POPC   C4B26650   9.832  28.550   7.655
 7485POPC   NC326651  37.678   9.714   9.455
 7485POPC   PO426652  37.665   9.737   9.155
 7485POPC   GL126653  37.728   9.757   8.855
 7485POPC   GL226654  37.730   9.681   8.855
 7485POPC   C1A26655  37.670   9.711   8.555
 7485POPC   D2A26656  37.667   9.756   8.255
 7485POPC   C3A26657  37.710   9.745   7.955
 7485POPC   C4A26658  37.697   9.713   7.655
 7485POPC   C1B26659  37.786   9.514   8.555
 7485POPC   C2B26660  37.810   9.596   8.255
 7485POPC   C3B26661  37.852   9.533   7.955
 7485POPC   C4B26662  37.851   9.545   7.655
 7486POPC   NC326663  21.379  31.514   9.455
 7486POPC   PO426664  21.344  31.470   9.155
 7486POPC   GL126665  21.410  31.514   8.855
 7486POPC   GL226666  21.443  31.346   8.855
 7486POPC   C1A26667  21.347  31.433   8.555
 7486POPC   D2A26668  21.400  31.483   8.255
 7486POPC   C3A26669  21.418  31.440   7.955
 7486POPC   C4A26670  21.380  31.472   7.655
 7486POPC   C1B26671  21.492  31.291   8.555
 7486POPC   C2B26672  21.500  31.288   8.255
 7486POPC   C3B26673  21.555  31.298   7.955
 7486POPC   C4B26674  21.507  31.278   7.655
 7487POPC   NC326675  19.799   3.581   9.455
 7487POPC   PO426676  19.795   3.502   9.155
 7487POPC   GL126677  19.802   3.497   8.855
 7487POPC   GL226678  19.944   3.455   8.855
 7487POPC   C1A26679  19.840   3.539   8.555
 7487POPC   D2A26680  19.787   3.513   8.255
 7487POPC   C3A26681  19.853   3.508   7.955
 7487POPC   C4A26682  19.865   3.567   7.655
 7487POPC   C1B26683  19.986   3.340   8.555
 7487POPC   C2B26684  19.978   3.320   8.255
 7487POPC   C3B26685  20.063   3.415   7.955
 7487POPC   C4B26686  20.049   3.321   7.655
 7488POPC   NC326687   7.390  30.746   9.455
 7488POPC   PO426688   7.458  30.728   9.155
 7488POPC   GL126689   7.433  30.684   8.855
 7488POPC   GL226690   7.494  30.849   8.855
 7488POPC   C1A26691   7.441  30.741   8.555
 7488POPC   D2A26692   7.462  30.695   8.255
 7488POPC   C3A26693   7.393  30.724   7.955
 7488POPC   C4A26694   7.382  30.680   7.655
 7488POPC   C1B26695   7.536  30.969   8.555
 7488POPC   C2B26696   7.553  30.953   8.255
 7488POPC   C3B26697   7.496  30.921   7.955
 7488POPC   C4B26698   7.504  30.902   7.655
 7489POPC   NC326699  40.004  19.852   9.455
 7489POPC   PO426700  40.034  19.818   9.155
 7489POPC   GL126701  39.977  19.861   8.855
 7489POPC   GL226702  40.131  19.875   8.855
 7489POPC   C1A26703  39.979  19.852   8.555
 7489POPC   D2A26704  40.012  19.865   8.255
 7489POPC   C3A26705  40.011  19.856   7.955
 7489POPC   C4A26706  40.010  19.840   7.655
 7489POPC   C1B26707  40.212  19.786   8.555
 7489POPC   C2B26708  40.245  19.801   8.255
 7489POPC   C3B26709  40.273  19.884   7.955
 7489POPC   C4B26710  40.235  19.872   7.655
 7490POPC   NC326711   9.007  22.184   9.455
 7490POPC   PO426712   9.007  22.194   9.155
 7490POPC   GL126713   8.960  22.182   8.855
 7490POPC   GL226714   8.903  22.271   8.855
 7490POPC   C1A26715   8.933  22.153   8.555
 7490POPC   D2A26716   8.981  22.192   8.255
 7490POPC   C3A26717   8.993  22.152   7.955
 7490POPC   C4A26718   9.002  22.183   7.655
 7490POPC   C1B26719   8.891  22.393   8.555
 7490POPC   C2B26720   8.902  22.350   8.255
 7490POPC   C3B26721   8.852  22.358   7.955
 7490POPC   C4B26722   8.891  22.341   7.655
 7491POPC   NC326723  38.412  40.035   9.455
 7491POPC   PO426724  38.505  40.019   9.155
 7491POPC   GL126725  38.487  39.973   8.855
 7491POPC   GL226726  38.512  40.086   8.855
 7491POPC   C1A26727  38.462  40.010   8.555
 7491POPC   D2A26728  38.418  40.018   8.255
 7491POPC   C3A26729  38.474  40.003   7.955
 7491POPC   C4A26730  38.434  40.028   7.655
 7491POPC   C1B26731  38.516  40.272   8.555
 7491POPC   C2B26732  38.539  40.192   8.255
 7491POPC   C3B26733  38.564  40.229   7.955
 7491POPC   C4B26734  38.576  40.274   7.655
 7492POPC   NC326735   8.957   0.396   9.455
 7492POPC   PO426736   9.006   0.471   9.155
 7492POPC   GL126737   8.924   0.469   8.855
 7492POPC   GL226738   9.086   0.524   8.855
 7492POPC   C1A26739   8.932   0.453   8.555
 7492POPC   D2A26740   9.007   0.419   8.255
 7492POPC   C3A26741   8.979   0.475   7.955
 7492POPC   C4A26742   9.020   0.461   7.655
 7492POPC   C1B26743   9.208   0.572   8.555
 7492POPC   C2B26744   9.143   0.590   8.255
 7492POPC   C3B26745   9.141   0.571   7.955
 7492POPC   C4B26746   9.212   0.603   7.655
 7493POPC   NC326747  20.634  31.513   9.455
 7493POPC   PO426748  20.593  31.448   9.155
 7493POPC   GL126749  20.621  31.508   8.855
 7493POPC   GL226750  20.765  31.455   8.855
 7493POPC   C1A26751  20.603  31.484   8.555
 7493POPC   D2A26752  20.562  31.439   8.255
 7493POPC   C3A26753  20.577  31.452   7.955
 7493POPC   C4A26754  20.619  31.493   7.655
 7493POPC   C1B26755  20.905  31.494   8.555
 7493POPC   C2B26756  20.836  31.450   8.255
 7493POPC   C3B26757  20.835  31.415   7.955
 7493POPC   C4B26758  20.859  31.455   7.655
 7494POPC   NC326759   7.374  17.501   9.455
 7494POPC   PO426760   7.399  17.522   9.155
 7494POPC   GL126761   7.391  17.531   8.855
 7494POPC   GL226762   7.514  17.532   8.855
 7494POPC   C1A26763   7.410  17.547   8.555
 7494POPC   D2A26764   7.373  17.459   8.255
 7494POPC   C3A26765   7.407  17.505   7.955
 7494POPC   C4A26766   7.421  17.494   7.655
 7494POPC   C1B26767   7.635  17.612   8.555
 7494POPC   C2B26768   7.622  17.615   8.255
 7494POPC   C3B26769   7.587  17.630   7.955
 7494POPC   C4B26770   7.602  17.639   7.655
 7495POPC   NC326771  41.551   3.531   9.455
 7495POPC   PO426772  41.588   3.589   9.155
 7495POPC   GL126773  41.510   3.548   8.855
 7495POPC   GL226774  41.424   3.586   8.855
 7495POPC   C1A26775  41.608   3.523   8.555
 7495POPC   D2A26776  41.511   3.558   8.255
 7495POPC   C3A26777  41.524   3.515   7.955
 7495POPC   C4A26778  41.581   3.545   7.655
 7495POPC   C1B26779  41.327   3.675   8.555
 7495POPC   C2B26780  41.349   3.630   8.255
 7495POPC   C3B26781  41.373   3.678   7.955
 7495POPC   C4B26782  41.360   3.682   7.655
 7496POPC   NC326783  13.597  42.296   9.455
 7496POPC   PO426784  13.624  42.315   9.155
 7496POPC   GL126785  13.590  42.370   8.855
 7496POPC   GL226786  13.593  42.178   8.855
 7496POPC   C1A26787  13.604  42.339   8.555
 7496POPC   D2A26788  13.599  42.337   8.255
 7496POPC   C3A26789  13.609  42.333   7.955
 7496POPC   C4A26790  13.675  42.357   7.655
 7496POPC   C1B26791  13.640  42.133   8.555
 7496POPC   C2B26792  13.601  42.095   8.255
 7496POPC   C3B26793  13.596  42.065   7.955
 7496POPC   C4B26794  13.636  42.074   7.655
 7497POPC   NC326795  40.764   5.133   9.455
 7497POPC   PO426796  40.807   5.112   9.155
 7497POPC   GL126797  40.804   5.047   8.855
 7497POPC   GL226798  40.917   4.977   8.855
 7497POPC   C1A26799  40.799   5.045   8.555
 7497POPC   D2A26800  40.768   5.078   8.255
 7497POPC   C3A26801  40.775   5.059   7.955
 7497POPC   C4A26802  40.785   5.085   7.655
 7497POPC   C1B26803  40.967   4.967   8.555
 7497POPC   C2B26804  41.021   4.909   8.255
 7497POPC   C3B26805  40.997   4.955   7.955
 7497POPC   C4B26806  41.005   4.906   7.655
 7498POPC   NC326807  12.095  26.791   9.455
 7498POPC   PO426808  12.034  26.840   9.155
 7498POPC   GL126809  12.120  26.793   8.855
 7498POPC   GL226810  12.219  26.813   8.855
 7498POPC   C1A26811  12.055  26.860   8.555
 7498POPC   D2A26812  12.058  26.841   8.255
 7498POPC   C3A26813  12.057  26.833   7.955
 7498POPC   C4A26814  12.106  26.837   7.655
 7498POPC   C1B26815  12.335  26.721   8.555
 7498POPC   C2B26816  12.357  26.754   8.255
 7498POPC   C3B26817  12.292  26.745   7.955
 7498POPC   C4B26818  12.345  26.736   7.655
 7499POPC   NC326819  12.040  18.242   9.455
 7499POPC   PO426820  12.124  18.260   9.155
 7499POPC   GL126821  12.105  18.244   8.855
 7499POPC   GL226822  12.101  18.433   8.855
 7499POPC   C1A26823  12.061  18.245   8.555
 7499POPC   D2A26824  12.094  18.254   8.255
 7499POPC   C3A26825  12.089  18.305   7.955
 7499POPC   C4A26826  12.049  18.256   7.655
 7499POPC   C1B26827  12.235  18.500   8.555
 7499POPC   C2B26828  12.195  18.516   8.255
 7499POPC   C3B26829  12.238  18.505   7.955
 7499POPC   C4B26830  12.192  18.472   7.655
 7500POPC   NC326831  22.206  40.038   9.455
 7500POPC   PO426832  22.140  40.017   9.155
 7500POPC   GL126833  22.115  40.051   8.855
 7500POPC   GL226834  22.232  39.932   8.855
 7500POPC   C1A26835  22.191  40.028   8.555
 7500POPC   D2A26836  22.178  39.967   8.255
 7500POPC   C3A26837  22.129  39.965   7.955
 7500POPC   C4A26838  22.144  39.970   7.655
 7500POPC   C1B26839  22.388  39.905   8.555
 7500POPC   C2B26840  22.414  39.900   8.255
 7500POPC   C3B26841  22.425  39.880   7.955
 7500POPC   C4B26842  22.382  39.905   7.655
 7501POPC   NC326843  36.160  30.735   9.455
 7501POPC   PO426844  36.142  30.705   9.155
 7501POPC   GL126845  36.147  30.686   8.855
 7501POPC   GL226846  35.983  30.732   8.855
 7501POPC   C1A26847  36.113  30.689   8.555
 7501POPC   D2A26848  36.101  30.732   8.255
 7501POPC   C3A26849  36.169  30.696   7.955
 7501POPC   C4A26850  36.162  30.725   7.655
 7501POPC   C1B26851  35.865  30.876   8.555
 7501POPC   C2B26852  35.897  30.804   8.255
 7501POPC   C3B26853  35.894  30.803   7.955
 7501POPC   C4B26854  35.921  30.786   7.655
 7502POPC   NC326855  23.685   5.056   9.455
 7502POPC   PO426856  23.668   5.069   9.155
 7502POPC   GL126857  23.687   5.110   8.855
 7502POPC   GL226858  23.802   4.965   8.855
 7502POPC   C1A26859  23.748   5.088   8.555
 7502POPC   D2A26860  23.732   5.079   8.255
 7502POPC   C3A26861  23.754   5.111   7.955
 7502POPC   C4A26862  23.718   5.119   7.655
 7502POPC   C1B26863  23.810   4.816   8.555
 7502POPC   C2B26864  23.797   4.861   8.255
 7502POPC   C3B26865  23.837   4.879   7.955
 7502POPC   C4B26866  23.783   4.862   7.655
 7503POPC   NC326867  23.702  40.009   9.455
 7503POPC   PO426868  23.664  40.039   9.155
 7503POPC   GL126869  23.764  39.968   8.855
 7503POPC   GL226870  23.669  40.174   8.855
 7503POPC   C1A26871  23.672  40.053   8.555
 7503POPC   D2A26872  23.667  40.034   8.255
 7503POPC   C3A26873  23.745  40.019   7.955
 7503POPC   C4A26874  23.713  40.028   7.655
 7503POPC   C1B26875  23.678  40.248   8.555
 7503POPC   C2B26876  23.619  40.260   8.255
 7503POPC   C3B26877  23.623  40.214   7.955
 7503POPC   C4B26878  23.682  40.233   7.655
 7504POPC   NC326879  39.266   2.000   9.455
 7504POPC   PO426880  39.199   1.944   9.155
 7504POPC   GL126881  39.261   1.991   8.855
 7504POPC   GL226882  39.211   2.079   8.855
 7504POPC   C1A26883  39.264   2.035   8.555
 7504POPC   D2A26884  39.267   1.981   8.255
 7504POPC   C3A26885  39.235   1.981   7.955
 7504POPC   C4A26886  39.243   2.014   7.655
 7504POPC   C1B26887  39.178   2.261   8.555
 7504POPC   C2B26888  39.155   2.201   8.255
 7504POPC   C3B26889  39.167   2.256   7.955
 7504POPC   C4B26890  39.202   2.271   7.655
 7505POPC   NC326891  41.582  41.558   9.455
 7505POPC   PO426892  41.541  41.568   9.155
 7505POPC   GL126893  41.513  41.513   8.855
 7505POPC   GL226894  41.584  41.683   8.855
 7505POPC   C1A26895  41.551  41.517   8.555
 7505POPC   D2A26896  41.588  41.587   8.255
 7505POPC   C3A26897  41.604  41.536   7.955
 7505POPC   C4A26898  41.601  41.587   7.655
 7505POPC   C1B26899  41.625  41.775   8.555
 7505POPC   C2B26900  41.572  41.752   8.255
 7505POPC   C3B26901  41.592  41.784   7.955
 7505POPC   C4B26902  41.633  41.817   7.655
 7506POPC   NC326903   9.724  10.490   9.455
 7506POPC   PO426904   9.699  10.555   9.155
 7506POPC   GL126905   9.791  10.512   8.855
 7506POPC   GL226906   9.672  10.618   8.855
 7506POPC   C1A26907   9.757  10.559   8.555
 7506POPC   D2A26908   9.738  10.573   8.255
 7506POPC   C3A26909   9.763  10.563   7.955
 7506POPC   C4A26910   9.706  10.553   7.655
 7506POPC   C1B26911   9.533  10.670   8.555
 7506POPC   C2B26912   9.524  10.608   8.255
 7506POPC   C3B26913   9.566  10.596   7.955
 7506POPC   C4B26914   9.478  10.633   7.655
 7507POPC   NC326915  37.715  25.293   9.455
 7507POPC   PO426916  37.651  25.289   9.155
 7507POPC   GL126917  37.679  25.287   8.855
 7507POPC   GL226918  37.710  25.186   8.855
 7507POPC   C1A26919  37.693  25.221   8.555
 7507POPC   D2A26920  37.700  25.253   8.255
 7507POPC   C3A26921  37.713  25.247   7.955
 7507POPC   C4A26922  37.670  25.284   7.655
 7507POPC   C1B26923  37.746  25.003   8.555
 7507POPC   C2B26924  37.750  24.993   8.255
 7507POPC   C3B26925  37.654  25.005   7.955
 7507POPC   C4B26926  37.728  25.046   7.655
 7508POPC   NC326927  12.835  44.686   9.455
 7508POPC   PO426928  12.823  44.636   9.155
 7508POPC   GL126929  12.866  44.645   8.855
 7508POPC   GL226930  12.974  44.629   8.855
 7508POPC   C1A26931  12.865  44.692   8.555
 7508POPC   D2A26932  12.880  44.650   8.255
 7508POPC   C3A26933  12.833  44.640   7.955
 7508POPC   C4A26934  12.874  44.678   7.655
 7508POPC   C1B26935  13.058  44.651   8.555
 7508POPC   C2B26936  13.056  44.617   8.255
 7508POPC   C3B26937  13.114  44.659   7.955
 7508POPC   C4B26938  13.143  44.688   7.655
 7509POPC   NC326939  17.532  25.219   9.455
 7509POPC   PO426940  17.481  25.252   9.155
 7509POPC   GL126941  17.550  25.309   8.855
 7509POPC   GL226942  17.572  25.210   8.855
 7509POPC   C1A26943  17.487  25.286   8.555
 7509POPC   D2A26944  17.502  25.274   8.255
 7509POPC   C3A26945  17.534  25.283   7.955
 7509POPC   C4A26946  17.532  25.298   7.655
 7509POPC   C1B26947  17.639  25.050   8.555
 7509POPC   C2B26948  17.618  25.080   8.255
 7509POPC   C3B26949  17.668  25.072   7.955
 7509POPC   C4B26950  17.678  25.080   7.655
 7510POPC   NC326951  37.691  19.105   9.455
 7510POPC   PO426952  37.679  19.097   9.155
 7510POPC   GL126953  37.647  19.030   8.855
 7510POPC   GL226954  37.789  19.042   8.855
 7510POPC   C1A26955  37.659  19.086   8.555
 7510POPC   D2A26956  37.667  19.069   8.255
 7510POPC   C3A26957  37.680  19.015   7.955
 7510POPC   C4A26958  37.697  19.063   7.655
 7510POPC   C1B26959  37.911  19.120   8.555
 7510POPC   C2B26960  37.893  19.092   8.255
 7510POPC   C3B26961  37.904  19.156   7.955
 7510POPC   C4B26962  37.944  19.104   7.655
 7511POPC   NC326963   7.463  16.757   9.455
 7511POPC   PO426964   7.465  16.711   9.155
 7511POPC   GL126965   7.417  16.738   8.855
 7511POPC   GL226966   7.516  16.734   8.855
 7511POPC   C1A26967   7.406  16.717   8.555
 7511POPC   D2A26968   7.458  16.739   8.255
 7511POPC   C3A26969   7.416  16.767   7.955
 7511POPC   C4A26970   7.448  16.727   7.655
 7511POPC   C1B26971   7.694  16.680   8.555
 7511POPC   C2B26972   7.635  16.664   8.255
 7511POPC   C3B26973   7.717  16.722   7.955
 7511POPC   C4B26974   7.641  16.729   7.655
 7512POPC   NC326975  13.654   8.939   9.455
 7512POPC   PO426976  13.591   8.926   9.155
 7512POPC   GL126977  13.641   8.952   8.855
 7512POPC   GL226978  13.764   9.007   8.855
 7512POPC   C1A26979  13.661   8.994   8.555
 7512POPC   D2A26980  13.615   8.940   8.255
 7512POPC   C3A26981  13.665   8.943   7.955
 7512POPC   C4A26982  13.598   9.015   7.655
 7512POPC   C1B26983  13.827   9.116   8.555
 7512POPC   C2B26984  13.817   9.114   8.255
 7512POPC   C3B26985  13.872   9.126   7.955
 7512POPC   C4B26986  13.856   9.130   7.655
 7513POPC   NC326987  26.815  33.776   9.455
 7513POPC   PO426988  26.833  33.812   9.155
 7513POPC   GL126989  26.792  33.847   8.855
 7513POPC   GL226990  26.830  33.885   8.855
 7513POPC   C1A26991  26.850  33.759   8.555
 7513POPC   D2A26992  26.806  33.755   8.255
 7513POPC   C3A26993  26.830  33.787   7.955
 7513POPC   C4A26994  26.861  33.822   7.655
 7513POPC   C1B26995  26.828  34.053   8.555
 7513POPC   C2B26996  26.775  34.021   8.255
 7513POPC   C3B26997  26.835  34.042   7.955
 7513POPC   C4B26998  26.824  34.035   7.655
 7514POPC   NC326999  32.291  19.019   9.455
 7514POPC   PO427000  32.218  19.098   9.155
 7514POPC   GL127001  32.296  19.009   8.855
 7514POPC   GL227002  32.346  19.054   8.855
 7514POPC   C1A27003  32.264  19.043   8.555
 7514POPC   D2A27004  32.262  19.090   8.255
 7514POPC   C3A27005  32.285  19.011   7.955
 7514POPC   C4A27006  32.293  19.084   7.655
 7514POPC   C1B27007  32.537  19.084   8.555
 7514POPC   C2B27008  32.456  19.076   8.255
 7514POPC   C3B27009  32.479  19.031   7.955
 7514POPC   C4B27010  32.498  19.080   7.655
 7515POPC   NC327011   2.743  28.363   9.455
 7515POPC   PO427012   2.755  28.331   9.155
 7515POPC   GL127013   2.808  28.365   8.855
 7515POPC   GL227014   2.668  28.256   8.855
 7515POPC   C1A27015   2.806  28.401   8.555
 7515POPC   D2A27016   2.744  28.332   8.255
 7515POPC   C3A27017   2.784  28.402   7.955
 7515POPC   C4A27018   2.815  28.369   7.655
 7515POPC   C1B27019   2.613  28.133   8.555
 7515POPC   C2B27020   2.628  28.121   8.255
 7515POPC   C3B27021   2.589  28.188   7.955
 7515POPC   C4B27022   2.662  28.199   7.655
 7516POPC   NC327023  33.062  28.339   9.455
 7516POPC   PO427024  33.027  28.351   9.155
 7516POPC   GL127025  33.021  28.361   8.855
 7516POPC   GL227026  33.013  28.504   8.855
 7516POPC   C1A27027  32.986  28.353   8.555
 7516POPC   D2A27028  33.060  28.344   8.255
 7516POPC   C3A27029  33.045  28.351   7.955
 7516POPC   C4A27030  33.017  28.359   7.655
 7516POPC   C1B27031  33.011  28.605   8.555
 7516POPC   C2B27032  33.026  28.649   8.255
 7516POPC   C3B27033  33.071  28.585   7.955
 7516POPC   C4B27034  33.005  28.604   7.655
 7517POPC   NC327035   5.090  23.677   9.455
 7517POPC   PO427036   5.136  23.743   9.155
 7517POPC   GL127037   5.047  23.758   8.855
 7517POPC   GL227038   5.038  23.804   8.855
 7517POPC   C1A27039   5.068  23.678   8.555
 7517POPC   D2A27040   5.061  23.761   8.255
 7517POPC   C3A27041   5.047  23.737   7.955
 7517POPC   C4A27042   5.082  23.669   7.655
 7517POPC   C1B27043   4.984  23.915   8.555
 7517POPC   C2B27044   4.973  23.936   8.255
 7517POPC   C3B27045   4.966  23.926   7.955
 7517POPC   C4B27046   5.011  23.937   7.655
 7518POPC   NC327047  26.072   0.438   9.455
 7518POPC   PO427048  25.995   0.486   9.155
 7518POPC   GL127049  26.028   0.467   8.855
 7518POPC   GL227050  26.186   0.430   8.855
 7518POPC   C1A27051  25.993   0.388   8.555
 7518POPC   D2A27052  25.996   0.443   8.255
 7518POPC   C3A27053  26.080   0.398   7.955
 7518POPC   C4A27054  26.021   0.430   7.655
 7518POPC   C1B27055  26.293   0.392   8.555
 7518POPC   C2B27056  26.286   0.387   8.255
 7518POPC   C3B27057  26.238   0.351   7.955
 7518POPC   C4B27058  26.263   0.349   7.655
 7519POPC   NC327059  43.154  12.819   9.455
 7519POPC   PO427060  43.083  12.868   9.155
 7519POPC   GL127061  43.130  12.808   8.855
 7519POPC   GL227062  43.194  12.901   8.855
 7519POPC   C1A27063  43.090  12.871   8.555
 7519POPC   D2A27064  43.120  12.875   8.255
 7519POPC   C3A27065  43.111  12.827   7.955
 7519POPC   C4A27066  43.061  12.836   7.655
 7519POPC   C1B27067  43.222  13.004   8.555
 7519POPC   C2B27068  43.303  13.043   8.255
 7519POPC   C3B27069  43.311  13.060   7.955
 7519POPC   C4B27070  43.229  13.043   7.655
 7520POPC   NC327071  13.590   1.235   9.455
 7520POPC   PO427072  13.658   1.262   9.155
 7520POPC   GL127073  13.650   1.215   8.855
 7520POPC   GL227074  13.753   1.263   8.855
 7520POPC   C1A27075  13.589   1.189   8.555
 7520POPC   D2A27076  13.590   1.202   8.255
 7520POPC   C3A27077  13.588   1.263   7.955
 7520POPC   C4A27078  13.627   1.243   7.655
 7520POPC   C1B27079  13.867   1.218   8.555
 7520POPC   C2B27080  13.849   1.293   8.255
 7520POPC   C3B27081  13.891   1.273   7.955
 7520POPC   C4B27082  13.825   1.266   7.655
 7521POPC   NC327083  18.261  40.819   9.455
 7521POPC   PO427084  18.233  40.805   9.155
 7521POPC   GL127085  18.272  40.803   8.855
 7521POPC   GL227086  18.333  40.627   8.855
 7521POPC   C1A27087  18.277  40.793   8.555
 7521POPC   D2A27088  18.297  40.833   8.255
 7521POPC   C3A27089  18.301  40.747   7.955
 7521POPC   C4A27090  18.294  40.798   7.655
 7521POPC   C1B27091  18.361  40.564   8.555
 7521POPC   C2B27092  18.346  40.591   8.255
 7521POPC   C3B27093  18.365  40.578   7.955
 7521POPC   C4B27094  18.311  40.581   7.655
 7522POPC   NC327095  10.500  40.735   9.455
 7522POPC   PO427096  10.476  40.768   9.155
 7522POPC   GL127097  10.574  40.781   8.855
 7522POPC   GL227098  10.637  40.809   8.855
 7522POPC   C1A27099  10.527  40.774   8.555
 7522POPC   D2A27100  10.552  40.797   8.255
 7522POPC   C3A27101  10.503  40.831   7.955
 7522POPC   C4A27102  10.570  40.755   7.655
 7522POPC   C1B27103  10.779  40.760   8.555
 7522POPC   C2B27104  10.809  40.822   8.255
 7522POPC   C3B27105  10.814  40.779   7.955
 7522POPC   C4B27106  10.748  40.827   7.655
 7523POPC   NC327107   0.424  15.939   9.455
 7523POPC   PO427108   0.439  15.989   9.155
 7523POPC   GL127109   0.403  15.983   8.855
 7523POPC   GL227110   0.284  15.982   8.855
 7523POPC   C1A27111   0.468  15.941   8.555
 7523POPC   D2A27112   0.407  15.981   8.255
 7523POPC   C3A27113   0.446  15.959   7.955
 7523POPC   C4A27114   0.405  15.951   7.655
 7523POPC   C1B27115   0.161  15.990   8.555
 7523POPC   C2B27116   0.167  15.928   8.255
 7523POPC   C3B27117   0.154  15.980   7.955
 7523POPC   C4B27118   0.171  15.963   7.655
 7524POPC   NC327119  12.106  33.009   9.455
 7524POPC   PO427120  12.047  33.014   9.155
 7524POPC   GL127121  12.094  33.049   8.855
 7524POPC   GL227122  12.007  32.919   8.855
 7524POPC   C1A27123  12.088  33.033   8.555
 7524POPC   D2A27124  12.058  33.049   8.255
 7524POPC   C3A27125  12.063  33.053   7.955
 7524POPC   C4A27126  12.108  33.073   7.655
 7524POPC   C1B27127  11.815  32.927   8.555
 7524POPC   C2B27128  11.815  32.915   8.255
 7524POPC   C3B27129  11.851  32.884   7.955
 7524POPC   C4B27130  11.871  32.962   7.655
 7525POPC   NC327131  13.656  44.702   9.455
 7525POPC   PO427132  13.618  44.686   9.155
 7525POPC   GL127133  13.597  44.702   8.855
 7525POPC   GL227134  13.548  44.773   8.855
 7525POPC   C1A27135  13.658  44.669   8.555
 7525POPC   D2A27136  13.597  44.622   8.255
 7525POPC   C3A27137  13.626  44.637   7.955
 7525POPC   C4A27138  13.656  44.707   7.655
 7525POPC   C1B27139  13.515  44.942   8.555
 7525POPC   C2B27140  13.509  44.861   8.255
 7525POPC   C3B27141  13.586  44.862   7.955
 7525POPC   C4B27142  13.586  44.865   7.655
 7526POPC   NC327143  29.927   3.535   9.455
 7526POPC   PO427144  29.938   3.497   9.155
 7526POPC   GL127145  29.941   3.495   8.855
 7526POPC   GL227146  29.881   3.626   8.855
 7526POPC   C1A27147  29.893   3.584   8.555
 7526POPC   D2A27148  29.948   3.549   8.255
 7526POPC   C3A27149  29.872   3.566   7.955
 7526POPC   C4A27150  29.940   3.514   7.655
 7526POPC   C1B27151  29.748   3.716   8.555
 7526POPC   C2B27152  29.778   3.781   8.255
 7526POPC   C3B27153  29.824   3.772   7.955
 7526POPC   C4B27154  29.830   3.778   7.655
 7527POPC   NC327155  15.922  39.205   9.455
 7527POPC   PO427156  15.931  39.202   9.155
 7527POPC   GL127157  15.966  39.215   8.855
 7527POPC   GL227158  16.055  39.163   8.855
 7527POPC   C1A27159  15.964  39.195   8.555
 7527POPC   D2A27160  15.983  39.244   8.255
 7527POPC   C3A27161  15.968  39.202   7.955
 7527POPC   C4A27162  15.959  39.269   7.655
 7527POPC   C1B27163  16.163  39.208   8.555
 7527POPC   C2B27164  16.156  39.133   8.255
 7527POPC   C3B27165  16.173  39.134   7.955
 7527POPC   C4B27166  16.222  39.152   7.655
 7528POPC   NC327167  36.877   6.657   9.455
 7528POPC   PO427168  36.899   6.640   9.155
 7528POPC   GL127169  36.904   6.695   8.855
 7528POPC   GL227170  36.982   6.626   8.855
 7528POPC   C1A27171  36.901   6.602   8.555
 7528POPC   D2A27172  36.897   6.672   8.255
 7528POPC   C3A27173  36.856   6.689   7.955
 7528POPC   C4A27174  36.889   6.694   7.655
 7528POPC   C1B27175  37.177   6.589   8.555
 7528POPC   C2B27176  37.110   6.594   8.255
 7528POPC   C3B27177  37.102   6.615   7.955
 7528POPC   C4B27178  37.106   6.552   7.655
 7529POPC   NC327179  15.999  40.769   9.455
 7529POPC   PO427180  15.953  40.812   9.155
 7529POPC   GL127181  15.912  40.787   8.855
 7529POPC   GL227182  16.019  40.636   8.855
 7529POPC   C1A27183  16.003  40.792   8.555
 7529POPC   D2A27184  15.997  40.744   8.255
 7529POPC   C3A27185  15.959  40.771   7.955
 7529POPC   C4A27186  15.950  40.808   7.655
 7529POPC   C1B27187  16.104  40.627   8.555
 7529POPC   C2B27188  16.078  40.615   8.255
 7529POPC   C3B27189  16.088  40.621   7.955
 7529POPC   C4B27190  16.118  40.567   7.655
 7530POPC   NC327191  14.451  40.814   9.455
 7530POPC   PO427192  14.452  40.805   9.155
 7530POPC   GL127193  14.426  40.762   8.855
 7530POPC   GL227194  14.563  40.783   8.855
 7530POPC   C1A27195  14.453  40.774   8.555
 7530POPC   D2A27196  14.356  40.772   8.255
 7530POPC   C3A27197  14.356  40.794   7.955
 7530POPC   C4A27198  14.380  40.817   7.655
 7530POPC   C1B27199  14.624  40.900   8.555
 7530POPC   C2B27200  14.645  40.922   8.255
 7530POPC   C3B27201  14.595  40.833   7.955
 7530POPC   C4B27202  14.620  40.881   7.655
 7531POPC   NC327203  20.576   0.426   9.455
 7531POPC   PO427204  20.632   0.459   9.155
 7531POPC   GL127205  20.585   0.484   8.855
 7531POPC   GL227206  20.680   0.388   8.855
 7531POPC   C1A27207  20.634   0.482   8.555
 7531POPC   D2A27208  20.633   0.417   8.255
 7531POPC   C3A27209  20.628   0.426   7.955
 7531POPC   C4A27210  20.595   0.487   7.655
 7531POPC   C1B27211  20.769   0.300   8.555
 7531POPC   C2B27212  20.807   0.328   8.255
 7531POPC   C3B27213  20.781   0.300   7.955
 7531POPC   C4B27214  20.829   0.296   7.655
 7532POPC   NC327215  16.720  11.346   9.455
 7532POPC   PO427216  16.698  11.277   9.155
 7532POPC   GL127217  16.764  11.334   8.855
 7532POPC   GL227218  16.786  11.222   8.855
 7532POPC   C1A27219  16.693  11.258   8.555
 7532POPC   D2A27220  16.706  11.296   8.255
 7532POPC   C3A27221  16.699  11.293   7.955
 7532POPC   C4A27222  16.703  11.343   7.655
 7532POPC   C1B27223  16.816  11.042   8.555
 7532POPC   C2B27224  16.789  11.083   8.255
 7532POPC   C3B27225  16.867  11.102   7.955
 7532POPC   C4B27226  16.793  11.042   7.655
 7533POPC   NC327227  22.888  13.633   9.455
 7533POPC   PO427228  22.949  13.588   9.155
 7533POPC   GL127229  22.926  13.659   8.855
 7533POPC   GL227230  22.859  13.495   8.855
 7533POPC   C1A27231  22.965  13.670   8.555
 7533POPC   D2A27232  22.937  13.651   8.255
 7533POPC   C3A27233  22.957  13.583   7.955
 7533POPC   C4A27234  22.952  13.605   7.655
 7533POPC   C1B27235  22.745  13.421   8.555
 7533POPC   C2B27236  22.728  13.457   8.255
 7533POPC   C3B27237  22.801  13.481   7.955
 7533POPC   C4B27238  22.744  13.430   7.655
 7534POPC   NC327239  15.999  32.221   9.455
 7534POPC   PO427240  15.988  32.225   9.155
 7534POPC   GL127241  15.990  32.204   8.855
 7534POPC   GL227242  15.958  32.096   8.855
 7534POPC   C1A27243  15.965  32.206   8.555
 7534POPC   D2A27244  15.992  32.222   8.255
 7534POPC   C3A27245  15.929  32.290   7.955
 7534POPC   C4A27246  15.969  32.206   7.655
 7534POPC   C1B27247  15.873  31.980   8.555
 7534POPC   C2B27248  15.897  32.000   8.255
 7534POPC   C3B27249  15.885  31.976   7.955
 7534POPC   C4B27250  15.879  32.027   7.655
 7535POPC   NC327251  28.341  31.515   9.455
 7535POPC   PO427252  28.350  31.437   9.155
 7535POPC   GL127253  28.357  31.471   8.855
 7535POPC   GL227254  28.397  31.630   8.855
 7535POPC   C1A27255  28.348  31.483   8.555
 7535POPC   D2A27256  28.403  31.457   8.255
 7535POPC   C3A27257  28.337  31.496   7.955
 7535POPC   C4A27258  28.359  31.479   7.655
 7535POPC   C1B27259  28.389  31.708   8.555
 7535POPC   C2B27260  28.404  31.717   8.255
 7535POPC   C3B27261  28.385  31.762   7.955
 7535POPC   C4B27262  28.324  31.723   7.655
 7536POPC   NC327263  40.789  40.011   9.455
 7536POPC   PO427264  40.815  40.049   9.155
 7536POPC   GL127265  40.827  40.011   8.855
 7536POPC   GL227266  40.816  39.853   8.855
 7536POPC   C1A27267  40.783  40.051   8.555
 7536POPC   D2A27268  40.760  40.016   8.255
 7536POPC   C3A27269  40.818  40.011   7.955
 7536POPC   C4A27270  40.804  40.034   7.655
 7536POPC   C1B27271  40.957  39.809   8.555
 7536POPC   C2B27272  40.880  39.818   8.255
 7536POPC   C3B27273  40.888  39.820   7.955
 7536POPC   C4B27274  40.944  39.809   7.655
 7537POPC   NC327275   9.782  30.667   9.455
 7537POPC   PO427276   9.718  30.675   9.155
 7537POPC   GL127277   9.732  30.725   8.855
 7537POPC   GL227278   9.737  30.558   8.855
 7537POPC   C1A27279   9.762  30.719   8.555
 7537POPC   D2A27280   9.754  30.676   8.255
 7537POPC   C3A27281   9.790  30.666   7.955
 7537POPC   C4A27282   9.766  30.648   7.655
 7537POPC   C1B27283   9.649  30.449   8.555
 7537POPC   C2B27284   9.668  30.508   8.255
 7537POPC   C3B27285   9.624  30.446   7.955
 7537POPC   C4B27286   9.629  30.501   7.655
 7538POPC   NC327287  21.376  26.040   9.455
 7538POPC   PO427288  21.398  25.996   9.155
 7538POPC   GL127289  21.399  26.066   8.855
 7538POPC   GL227290  21.474  26.136   8.855
 7538POPC   C1A27291  21.382  26.074   8.555
 7538POPC   D2A27292  21.400  26.012   8.255
 7538POPC   C3A27293  21.337  26.009   7.955
 7538POPC   C4A27294  21.434  26.001   7.655
 7538POPC   C1B27295  21.537  26.227   8.555
 7538POPC   C2B27296  21.553  26.277   8.255
 7538POPC   C3B27297  21.502  26.256   7.955
 7538POPC   C4B27298  21.528  26.271   7.655
 7539POPC   NC327299  40.815   9.731   9.455
 7539POPC   PO427300  40.817   9.732   9.155
 7539POPC   GL127301  40.815   9.730   8.855
 7539POPC   GL227302  40.710   9.604   8.855
 7539POPC   C1A27303  40.778   9.788   8.555
 7539POPC   D2A27304  40.752   9.763   8.255
 7539POPC   C3A27305  40.737   9.797   7.955
 7539POPC   C4A27306  40.761   9.753   7.655
 7539POPC   C1B27307  40.676   9.494   8.555
 7539POPC   C2B27308  40.737   9.562   8.255
 7539POPC   C3B27309  40.743   9.500   7.955
 7539POPC   C4B27310  40.740   9.544   7.655
 7540POPC   NC327311  43.092  39.966   9.455
 7540POPC   PO427312  43.153  39.992   9.155
 7540POPC   GL127313  43.091  39.970   8.855
 7540POPC   GL227314  43.231  40.092   8.855
 7540POPC   C1A27315  43.134  40.006   8.555
 7540POPC   D2A27316  43.115  40.035   8.255
 7540POPC   C3A27317  43.126  40.054   7.955
 7540POPC   C4A27318  43.144  40.011   7.655
 7540POPC   C1B27319  43.365  40.152   8.555
 7540POPC   C2B27320  43.327  40.147   8.255
 7540POPC   C3B27321  43.360  40.091   7.955
 7540POPC   C4B27322  43.294  40.165   7.655
 7541POPC   NC327323   0.442  20.566   9.455
 7541POPC   PO427324   0.427  20.634   9.155
 7541POPC   GL127325   0.425  20.611   8.855
 7541POPC   GL227326   0.327  20.645   8.855
 7541POPC   C1A27327   0.461  20.577   8.555
 7541POPC   D2A27328   0.458  20.578   8.255
 7541POPC   C3A27329   0.404  20.635   7.955
 7541POPC   C4A27330   0.392  20.591   7.655
 7541POPC   C1B27331   0.181  20.698   8.555
 7541POPC   C2B27332   0.170  20.690   8.255
 7541POPC   C3B27333   0.206  20.743   7.955
 7541POPC   C4B27334   0.239  20.748   7.655
 7542POPC   NC327335  35.372  28.325   9.455
 7542POPC   PO427336  35.304  28.351   9.155
 7542POPC   GL127337  35.336  28.325   8.855
 7542POPC   GL227338  35.449  28.314   8.855
 7542POPC   C1A27339  35.332  28.369   8.555
 7542POPC   D2A27340  35.399  28.408   8.255
 7542POPC   C3A27341  35.322  28.336   7.955
 7542POPC   C4A27342  35.357  28.353   7.655
 7542POPC   C1B27343  35.581  28.248   8.555
 7542POPC   C2B27344  35.526  28.170   8.255
 7542POPC   C3B27345  35.534  28.167   7.955
 7542POPC   C4B27346  35.549  28.230   7.655
 7543POPC   NC327347   9.728   1.263   9.455
 7543POPC   PO427348   9.724   1.264   9.155
 7543POPC   GL127349   9.780   1.203   8.855
 7543POPC   GL227350   9.708   1.060   8.855
 7543POPC   C1A27351   9.714   1.203   8.555
 7543POPC   D2A27352   9.743   1.260   8.255
 7543POPC   C3A27353   9.703   1.202   7.955
 7543POPC   C4A27354   9.757   1.200   7.655
 7543POPC   C1B27355   9.750   0.996   8.555
 7543POPC   C2B27356   9.662   0.921   8.255
 7543POPC   C3B27357   9.721   0.936   7.955
 7543POPC   C4B27358   9.704   1.010   7.655
 7544POPC   NC327359   8.246  19.802   9.455
 7544POPC   PO427360   8.200  19.882   9.155
 7544POPC   GL127361   8.171  19.855   8.855
 7544POPC   GL227362   8.316  19.885   8.855
 7544POPC   C1A27363   8.170  19.862   8.555
 7544POPC   D2A27364   8.169  19.862   8.255
 7544POPC   C3A27365   8.240  19.788   7.955
 7544POPC   C4A27366   8.177  19.830   7.655
 7544POPC   C1B27367   8.432  19.947   8.555
 7544POPC   C2B27368   8.454  19.964   8.255
 7544POPC   C3B27369   8.456  19.923   7.955
 7544POPC   C4B27370   8.453  19.934   7.655
 7545POPC   NC327371  29.951  18.252   9.455
 7545POPC   PO427372  29.874  18.319   9.155
 7545POPC   GL127373  29.938  18.263   8.855
 7545POPC   GL227374  29.866  18.138   8.855
 7545POPC   C1A27375  29.938  18.308   8.555
 7545POPC   D2A27376  29.949  18.317   8.255
 7545POPC   C3A27377  29.960  18.323   7.955
 7545POPC   C4A27378  29.889  18.240   7.655
 7545POPC   C1B27379  29.888  18.020   8.555
 7545POPC   C2B27380  29.863  18.046   8.255
 7545POPC   C3B27381  29.858  18.006   7.955
 7545POPC   C4B27382  29.860  18.071   7.655
 7546POPC   NC327383   9.018  11.276   9.455
 7546POPC   PO427384   8.967  11.261   9.155
 7546POPC   GL127385   8.939  11.308   8.855
 7546POPC   GL227386   9.066  11.418   8.855
 7546POPC   C1A27387   9.013  11.296   8.555
 7546POPC   D2A27388   8.967  11.277   8.255
 7546POPC   C3A27389   8.960  11.319   7.955
 7546POPC   C4A27390   8.930  11.307   7.655
 7546POPC   C1B27391   9.052  11.570   8.555
 7546POPC   C2B27392   9.066  11.551   8.255
 7546POPC   C3B27393   9.089  11.514   7.955
 7546POPC   C4B27394   9.103  11.509   7.655
 7547POPC   NC327395  41.587  31.502   9.455
 7547POPC   PO427396  41.517  31.501   9.155
 7547POPC   GL127397  41.602  31.470   8.855
 7547POPC   GL227398  41.478  31.349   8.855
 7547POPC   C1A27399  41.607  31.520   8.555
 7547POPC   D2A27400  41.554  31.498   8.255
 7547POPC   C3A27401  41.543  31.522   7.955
 7547POPC   C4A27402  41.575  31.453   7.655
 7547POPC   C1B27403  41.506  31.232   8.555
 7547POPC   C2B27404  41.505  31.266   8.255
 7547POPC   C3B27405  41.497  31.245   7.955
 7547POPC   C4B27406  41.509  31.216   7.655
 7548POPC   NC327407   8.157  39.208   9.455
 7548POPC   PO427408   8.194  39.197   9.155
 7548POPC   GL127409   8.242  39.205   8.855
 7548POPC   GL227410   8.132  39.384   8.855
 7548POPC   C1A27411   8.151  39.187   8.555
 7548POPC   D2A27412   8.213  39.240   8.255
 7548POPC   C3A27413   8.160  39.244   7.955
 7548POPC   C4A27414   8.195  39.281   7.655
 7548POPC   C1B27415   8.175  39.514   8.555
 7548POPC   C2B27416   8.145  39.474   8.255
 7548POPC   C3B27417   8.118  39.514   7.955
 7548POPC   C4B27418   8.134  39.484   7.655
 7549POPC   NC327419  25.304  15.906   9.455
 7549POPC   PO427420  25.272  15.988   9.155
 7549POPC   GL127421  25.217  15.997   8.855
 7549POPC   GL227422  25.304  15.792   8.855
 7549POPC   C1A27423  25.264  15.951   8.555
 7549POPC   D2A27424  25.296  15.923   8.255
 7549POPC   C3A27425  25.269  15.912   7.955
 7549POPC   C4A27426  25.267  15.956   7.655
 7549POPC   C1B27427  25.298  15.710   8.555
 7549POPC   C2B27428  25.259  15.755   8.255
 7549POPC   C3B27429  25.219  15.680   7.955
 7549POPC   C4B27430  25.301  15.736   7.655
 7550POPC   NC327431  23.735  36.174   9.455
 7550POPC   PO427432  23.674  36.117   9.155
 7550POPC   GL127433  23.730  36.110   8.855
 7550POPC   GL227434  23.696  36.269   8.855
 7550POPC   C1A27435  23.678  36.085   8.555
 7550POPC   D2A27436  23.689  36.142   8.255
 7550POPC   C3A27437  23.672  36.150   7.955
 7550POPC   C4A27438  23.698  36.086   7.655
 7550POPC   C1B27439  23.589  36.324   8.555
 7550POPC   C2B27440  23.561  36.301   8.255
 7550POPC   C3B27441  23.549  36.366   7.955
 7550POPC   C4B27442  23.629  36.379   7.655
 7551POPC   NC327443  22.902  28.350   9.455
 7551POPC   PO427444  22.900  28.336   9.155
 7551POPC   GL127445  22.942  28.338   8.855
 7551POPC   GL227446  23.064  28.478   8.855
 7551POPC   C1A27447  22.978  28.340   8.555
 7551POPC   D2A27448  22.925  28.348   8.255
 7551POPC   C3A27449  22.908  28.370   7.955
 7551POPC   C4A27450  22.925  28.399   7.655
 7551POPC   C1B27451  23.151  28.491   8.555
 7551POPC   C2B27452  23.114  28.556   8.255
 7551POPC   C3B27453  23.133  28.489   7.955
 7551POPC   C4B27454  23.164  28.561   7.655
 7552POPC   NC327455   6.614  42.332   9.455
 7552POPC   PO427456   6.643  42.324   9.155
 7552POPC   GL127457   6.672  42.309   8.855
 7552POPC   GL227458   6.744  42.288   8.855
 7552POPC   C1A27459   6.618  42.344   8.555
 7552POPC   D2A27460   6.633  42.315   8.255
 7552POPC   C3A27461   6.674  42.352   7.955
 7552POPC   C4A27462   6.670  42.358   7.655
 7552POPC   C1B27463   6.840  42.249   8.555
 7552POPC   C2B27464   6.852  42.305   8.255
 7552POPC   C3B27465   6.897  42.286   7.955
 7552POPC   C4B27466   6.892  42.310   7.655
 7553POPC   NC327467  43.085  32.252   9.455
 7553POPC   PO427468  43.097  32.253   9.155
 7553POPC   GL127469  43.135  32.237   8.855
 7553POPC   GL227470  42.969  32.297   8.855
 7553POPC   C1A27471  43.156  32.223   8.555
 7553POPC   D2A27472  43.094  32.207   8.255
 7553POPC   C3A27473  43.083  32.247   7.955
 7553POPC   C4A27474  43.075  32.282   7.655
 7553POPC   C1B27475  42.934  32.451   8.555
 7553POPC   C2B27476  42.911  32.422   8.255
 7553POPC   C3B27477  42.919  32.427   7.955
 7553POPC   C4B27478  42.901  32.450   7.655
 7554POPC   NC327479  44.630  12.857   9.455
 7554POPC   PO427480  44.623  12.899   9.155
 7554POPC   GL127481  44.681  12.892   8.855
 7554POPC   GL227482  44.633  12.714   8.855
 7554POPC   C1A27483  44.666  12.808   8.555
 7554POPC   D2A27484  44.614  12.850   8.255
 7554POPC   C3A27485  44.655  12.871   7.955
 7554POPC   C4A27486  44.696  12.860   7.655
 7554POPC   C1B27487  44.569  12.631   8.555
 7554POPC   C2B27488  44.568  12.641   8.255
 7554POPC   C3B27489  44.581  12.587   7.955
 7554POPC   C4B27490  44.555  12.614   7.655
 7555POPC   NC327491   4.339  43.923   9.455
 7555POPC   PO427492   4.299  43.921   9.155
 7555POPC   GL127493   4.274  43.927   8.855
 7555POPC   GL227494   4.290  44.048   8.855
 7555POPC   C1A27495   4.305  43.900   8.555
 7555POPC   D2A27496   4.343  43.904   8.255
 7555POPC   C3A27497   4.281  43.878   7.955
 7555POPC   C4A27498   4.360  43.898   7.655
 7555POPC   C1B27499   4.177  44.144   8.555
 7555POPC   C2B27500   4.229  44.071   8.255
 7555POPC   C3B27501   4.191  44.079   7.955
 7555POPC   C4B27502   4.194  44.163   7.655
 7556POPC   NC327503  19.812   9.723   9.455
 7556POPC   PO427504  19.801   9.731   9.155
 7556POPC   GL127505  19.791   9.753   8.855
 7556POPC   GL227506  19.975   9.763   8.855
 7556POPC   C1A27507  19.872   9.770   8.555
 7556POPC   D2A27508  19.866   9.717   8.255
 7556POPC   C3A27509  19.820   9.725   7.955
 7556POPC   C4A27510  19.838   9.789   7.655
 7556POPC   C1B27511  20.094   9.669   8.555
 7556POPC   C2B27512  20.110   9.641   8.255
 7556POPC   C3B27513  20.057   9.671   7.955
 7556POPC   C4B27514  20.038   9.733   7.655
 7557POPC   NC327515   1.234   1.954   9.455
 7557POPC   PO427516   1.196   1.950   9.155
 7557POPC   GL127517   1.225   1.962   8.855
 7557POPC   GL227518   1.149   2.146   8.855
 7557POPC   C1A27519   1.244   1.994   8.555
 7557POPC   D2A27520   1.187   2.023   8.255
 7557POPC   C3A27521   1.219   1.951   7.955
 7557POPC   C4A27522   1.250   1.949   7.655
 7557POPC   C1B27523   1.101   2.205   8.555
 7557POPC   C2B27524   1.093   2.175   8.255
 7557POPC   C3B27525   1.100   2.165   7.955
 7557POPC   C4B27526   1.093   2.184   7.655
 7558POPC   NC327527  17.468  15.907   9.455
 7558POPC   PO427528  17.501  15.931   9.155
 7558POPC   GL127529  17.473  15.968   8.855
 7558POPC   GL227530  17.558  15.890   8.855
 7558POPC   C1A27531  17.521  15.998   8.555
 7558POPC   D2A27532  17.509  15.997   8.255
 7558POPC   C3A27533  17.542  15.908   7.955
 7558POPC   C4A27534  17.530  15.974   7.655
 7558POPC   C1B27535  17.719  15.831   8.555
 7558POPC   C2B27536  17.726  15.781   8.255
 7558POPC   C3B27537  17.747  15.779   7.955
 7558POPC   C4B27538  17.723  15.754   7.655
 7559POPC   NC327539  36.161  23.732   9.455
 7559POPC   PO427540  36.111  23.741   9.155
 7559POPC   GL127541  36.137  23.682   8.855
 7559POPC   GL227542  35.989  23.645   8.855
 7559POPC   C1A27543  36.085  23.761   8.555
 7559POPC   D2A27544  36.143  23.718   8.255
 7559POPC   C3A27545  36.162  23.675   7.955
 7559POPC   C4A27546  36.086  23.738   7.655
 7559POPC   C1B27547  35.962  23.536   8.555
 7559POPC   C2B27548  35.884  23.563   8.255
 7559POPC   C3B27549  35.893  23.579   7.955
 7559POPC   C4B27550  35.976  23.573   7.655
 7560POPC   NC327551  15.954  11.339   9.455
 7560POPC   PO427552  15.924  11.291   9.155
 7560POPC   GL127553  15.968  11.271   8.855
 7560POPC   GL227554  15.911  11.133   8.855
 7560POPC   C1A27555  15.908  11.315   8.555
 7560POPC   D2A27556  15.932  11.344   8.255
 7560POPC   C3A27557  15.909  11.269   7.955
 7560POPC   C4A27558  15.951  11.256   7.655
 7560POPC   C1B27559  15.854  11.097   8.555
 7560POPC   C2B27560  15.875  11.048   8.255
 7560POPC   C3B27561  15.920  11.104   7.955
 7560POPC   C4B27562  15.936  11.098   7.655
 7561POPC   NC327563  12.089  29.959   9.455
 7561POPC   PO427564  12.097  29.970   9.155
 7561POPC   GL127565  12.038  29.938   8.855
 7561POPC   GL227566  12.213  29.843   8.855
 7561POPC   C1A27567  12.043  29.944   8.555
 7561POPC   D2A27568  12.104  29.906   8.255
 7561POPC   C3A27569  12.077  29.885   7.955
 7561POPC   C4A27570  12.060  29.941   7.655
 7561POPC   C1B27571  12.306  29.854   8.555
 7561POPC   C2B27572  12.362  29.864   8.255
 7561POPC   C3B27573  12.299  29.850   7.955
 7561POPC   C4B27574  12.339  29.829   7.655
 7562POPC   NC327575  39.199  22.955   9.455
 7562POPC   PO427576  39.196  22.970   9.155
 7562POPC   GL127577  39.256  22.952   8.855
 7562POPC   GL227578  39.096  22.852   8.855
 7562POPC   C1A27579  39.268  22.961   8.555
 7562POPC   D2A27580  39.225  22.977   8.255
 7562POPC   C3A27581  39.203  22.951   7.955
 7562POPC   C4A27582  39.229  22.923   7.655
 7562POPC   C1B27583  39.014  22.796   8.555
 7562POPC   C2B27584  39.001  22.855   8.255
 7562POPC   C3B27585  38.966  22.799   7.955
 7562POPC   C4B27586  38.967  22.842   7.655
 7563POPC   NC327587  34.605  28.385   9.455
 7563POPC   PO427588  34.586  28.358   9.155
 7563POPC   GL127589  34.609  28.380   8.855
 7563POPC   GL227590  34.616  28.268   8.855
 7563POPC   C1A27591  34.622  28.330   8.555
 7563POPC   D2A27592  34.555  28.337   8.255
 7563POPC   C3A27593  34.598  28.373   7.955
 7563POPC   C4A27594  34.577  28.370   7.655
 7563POPC   C1B27595  34.716  28.144   8.555
 7563POPC   C2B27596  34.707  28.128   8.255
 7563POPC   C3B27597  34.673  28.179   7.955
 7563POPC   C4B27598  34.691  28.106   7.655
 7564POPC   NC327599  42.342  40.052   9.455
 7564POPC   PO427600  42.295  40.016   9.155
 7564POPC   GL127601  42.330  40.013   8.855
 7564POPC   GL227602  42.235  40.025   8.855
 7564POPC   C1A27603  42.299  39.985   8.555
 7564POPC   D2A27604  42.370  39.993   8.255
 7564POPC   C3A27605  42.360  39.988   7.955
 7564POPC   C4A27606  42.373  39.976   7.655
 7564POPC   C1B27607  42.062  39.943   8.555
 7564POPC   C2B27608  42.127  39.939   8.255
 7564POPC   C3B27609  42.063  39.963   7.955
 7564POPC   C4B27610  42.113  40.001   7.655
 7565POPC   NC327611  25.223  10.478   9.455
 7565POPC   PO427612  25.268  10.568   9.155
 7565POPC   GL127613  25.286  10.483   8.855
 7565POPC   GL227614  25.238  10.412   8.855
 7565POPC   C1A27615  25.299  10.535   8.555
 7565POPC   D2A27616  25.248  10.541   8.255
 7565POPC   C3A27617  25.234  10.561   7.955
 7565POPC   C4A27618  25.274  10.530   7.655
 7565POPC   C1B27619  25.134  10.321   8.555
 7565POPC   C2B27620  25.141  10.311   8.255
 7565POPC   C3B27621  25.131  10.296   7.955
 7565POPC   C4B27622  25.173  10.245   7.655
 7566POPC   NC327623  44.627  27.581   9.455
 7566POPC   PO427624  44.653  27.627   9.155
 7566POPC   GL127625  44.628  27.571   8.855
 7566POPC   GL227626  44.569  27.614   8.855
 7566POPC   C1A27627  44.712  27.625   8.555
 7566POPC   D2A27628  44.699  27.582   8.255
 7566POPC   C3A27629  44.701  27.575   7.955
 7566POPC   C4A27630  44.643  27.642   7.655
 7566POPC   C1B27631  44.445  27.751   8.555
 7566POPC   C2B27632  44.482  27.681   8.255
 7566POPC   C3B27633  44.440  27.755   7.955
 7566POPC   C4B27634  44.454  27.684   7.655
 7567POPC   NC327635  12.075  22.903   9.455
 7567POPC   PO427636  12.043  22.981   9.155
 7567POPC   GL127637  12.062  22.922   8.855
 7567POPC   GL227638  12.076  23.109   8.855
 7567POPC   C1A27639  12.056  22.890   8.555
 7567POPC   D2A27640  12.123  22.919   8.255
 7567POPC   C3A27641  12.113  22.965   7.955
 7567POPC   C4A27642  12.103  22.895   7.655
 7567POPC   C1B27643  12.017  23.199   8.555
 7567POPC   C2B27644  12.052  23.174   8.255
 7567POPC   C3B27645  12.046  23.228   7.955
 7567POPC   C4B27646  12.018  23.220   7.655
 7568POPC   NC327647   7.454  33.009   9.455
 7568POPC   PO427648   7.460  33.030   9.155
 7568POPC   GL127649   7.419  33.047   8.855
 7568POPC   GL227650   7.512  33.136   8.855
 7568POPC   C1A27651   7.434  33.053   8.555
 7568POPC   D2A27652   7.470  33.013   8.255
 7568POPC   C3A27653   7.391  33.037   7.955
 7568POPC   C4A27654   7.443  32.998   7.655
 7568POPC   C1B27655   7.550  33.259   8.555
 7568POPC   C2B27656   7.522  33.256   8.255
 7568POPC   C3B27657   7.550  33.202   7.955
 7568POPC   C4B27658   7.546  33.231   7.655
 7569POPC   NC327659   7.451  43.147   9.455
 7569POPC   PO427660   7.377  43.121   9.155
 7569POPC   GL127661   7.389  43.063   8.855
 7569POPC   GL227662   7.292  43.180   8.855
 7569POPC   C1A27663   7.465  43.107   8.555
 7569POPC   D2A27664   7.398  43.082   8.255
 7569POPC   C3A27665   7.391  43.110   7.955
 7569POPC   C4A27666   7.469  43.078   7.655
 7569POPC   C1B27667   7.230  43.315   8.555
 7569POPC   C2B27668   7.244  43.253   8.255
 7569POPC   C3B27669   7.204  43.299   7.955
 7569POPC   C4B27670   7.291  43.329   7.655
 7570POPC   NC327671  20.629  34.573   9.455
 7570POPC   PO427672  20.598  34.538   9.155
 7570POPC   GL127673  20.597  34.545   8.855
 7570POPC   GL227674  20.600  34.455   8.855
 7570POPC   C1A27675  20.624  34.601   8.555
 7570POPC   D2A27676  20.648  34.625   8.255
 7570POPC   C3A27677  20.639  34.530   7.955
 7570POPC   C4A27678  20.656  34.610   7.655
 7570POPC   C1B27679  20.504  34.389   8.555
 7570POPC   C2B27680  20.497  34.383   8.255
 7570POPC   C3B27681  20.537  34.303   7.955
 7570POPC   C4B27682  20.489  34.324   7.655
 7571POPC   NC327683  35.338   8.224   9.455
 7571POPC   PO427684  35.363   8.229   9.155
 7571POPC   GL127685  35.396   8.242   8.855
 7571POPC   GL227686  35.427   8.298   8.855
 7571POPC   C1A27687  35.360   8.237   8.555
 7571POPC   D2A27688  35.390   8.203   8.255
 7571POPC   C3A27689  35.335   8.234   7.955
 7571POPC   C4A27690  35.357   8.245   7.655
 7571POPC   C1B27691  35.564   8.266   8.555
 7571POPC   C2B27692  35.529   8.344   8.255
 7571POPC   C3B27693  35.558   8.327   7.955
 7571POPC   C4B27694  35.539   8.336   7.655
 7572POPC   NC327695  26.074   8.169   9.455
 7572POPC   PO427696  26.069   8.216   9.155
 7572POPC   GL127697  26.019   8.169   8.855
 7572POPC   GL227698  25.935   8.204   8.855
 7572POPC   C1A27699  26.083   8.169   8.555
 7572POPC   D2A27700  26.049   8.158   8.255
 7572POPC   C3A27701  26.065   8.162   7.955
 7572POPC   C4A27702  26.042   8.164   7.655
 7572POPC   C1B27703  25.808   8.188   8.555
 7572POPC   C2B27704  25.842   8.279   8.255
 7572POPC   C3B27705  25.770   8.222   7.955
 7572POPC   C4B27706  25.780   8.182   7.655
 7573POPC   NC327707  23.733   8.948   9.455
 7573POPC   PO427708  23.730   8.949   9.155
 7573POPC   GL127709  23.694   8.933   8.855
 7573POPC   GL227710  23.573   8.926   8.855
 7573POPC   C1A27711  23.761   9.014   8.555
 7573POPC   D2A27712  23.723   8.969   8.255
 7573POPC   C3A27713  23.752   9.013   7.955
 7573POPC   C4A27714  23.665   8.981   7.655
 7573POPC   C1B27715  23.544   8.804   8.555
 7573POPC   C2B27716  23.545   8.767   8.255
 7573POPC   C3B27717  23.550   8.838   7.955
 7573POPC   C4B27718  23.513   8.823   7.655
 7574POPC   NC327719  37.694  23.723   9.455
 7574POPC   PO427720  37.678  23.755   9.155
 7574POPC   GL127721  37.674  23.761   8.855
 7574POPC   GL227722  37.559  23.742   8.855
 7574POPC   C1A27723  37.653  23.743   8.555
 7574POPC   D2A27724  37.709  23.742   8.255
 7574POPC   C3A27725  37.727  23.678   7.955
 7574POPC   C4A27726  37.651  23.714   7.655
 7574POPC   C1B27727  37.426  23.805   8.555
 7574POPC   C2B27728  37.428  23.815   8.255
 7574POPC   C3B27729  37.483  23.838   7.955
 7574POPC   C4B27730  37.481  23.796   7.655
 7575POPC   NC327731   1.250  25.247   9.455
 7575POPC   PO427732   1.191  25.309   9.155
 7575POPC   GL127733   1.217  25.242   8.855
 7575POPC   GL227734   1.284  25.315   8.855
 7575POPC   C1A27735   1.244  25.285   8.555
 7575POPC   D2A27736   1.255  25.298   8.255
 7575POPC   C3A27737   1.246  25.282   7.955
 7575POPC   C4A27738   1.250  25.280   7.655
 7575POPC   C1B27739   1.372  25.417   8.555
 7575POPC   C2B27740   1.435  25.419   8.255
 7575POPC   C3B27741   1.390  25.381   7.955
 7575POPC   C4B27742   1.405  25.394   7.655
 7576POPC   NC327743  27.592  15.933   9.455
 7576POPC   PO427744  27.546  15.933   9.155
 7576POPC   GL127745  27.624  15.925   8.855
 7576POPC   GL227746  27.706  15.837   8.855
 7576POPC   C1A27747  27.643  16.003   8.555
 7576POPC   D2A27748  27.594  15.971   8.255
 7576POPC   C3A27749  27.552  15.972   7.955
 7576POPC   C4A27750  27.621  15.991   7.655
 7576POPC   C1B27751  27.817  15.857   8.555
 7576POPC   C2B27752  27.754  15.817   8.255
 7576POPC   C3B27753  27.799  15.801   7.955
 7576POPC   C4B27754  27.831  15.861   7.655
 7577POPC   NC327755  42.318   9.785   9.455
 7577POPC   PO427756  42.321   9.734   9.155
 7577POPC   GL127757  42.362   9.724   8.855
 7577POPC   GL227758  42.435   9.850   8.855
 7577POPC   C1A27759  42.346   9.713   8.555
 7577POPC   D2A27760  42.367   9.747   8.255
 7577POPC   C3A27761  42.373   9.733   7.955
 7577POPC   C4A27762  42.371   9.724   7.655
 7577POPC   C1B27763  42.589   9.890   8.555
 7577POPC   C2B27764  42.545   9.848   8.255
 7577POPC   C3B27765  42.586   9.901   7.955
 7577POPC   C4B27766  42.548   9.870   7.655
 7578POPC   NC327767  22.146  41.546   9.455
 7578POPC   PO427768  22.148  41.572   9.155
 7578POPC   GL127769  22.149  41.560   8.855
 7578POPC   GL227770  22.070  41.434   8.855
 7578POPC   C1A27771  22.168  41.513   8.555
 7578POPC   D2A27772  22.133  41.530   8.255
 7578POPC   C3A27773  22.155  41.550   7.955
 7578POPC   C4A27774  22.162  41.564   7.655
 7578POPC   C1B27775  22.063  41.295   8.555
 7578POPC   C2B27776  22.032  41.317   8.255
 7578POPC   C3B27777  22.045  41.366   7.955
 7578POPC   C4B27778  22.089  41.285   7.655
 7579POPC   NC327779   3.563  18.241   9.455
 7579POPC   PO427780   3.585  18.319   9.155
 7579POPC   GL127781   3.551  18.267   8.855
 7579POPC   GL227782   3.648  18.125   8.855
 7579POPC   C1A27783   3.535  18.274   8.555
 7579POPC   D2A27784   3.533  18.317   8.255
 7579POPC   C3A27785   3.556  18.270   7.955
 7579POPC   C4A27786   3.551  18.237   7.655
 7579POPC   C1B27787   3.712  18.038   8.555
 7579POPC   C2B27788   3.710  18.071   8.255
 7579POPC   C3B27789   3.676  18.112   7.955
 7579POPC   C4B27790   3.677  18.021   7.655
 7580POPC   NC327791   0.406   1.250   9.455
 7580POPC   PO427792   0.470   1.166   9.155
 7580POPC   GL127793   0.388   1.199   8.855
 7580POPC   GL227794   0.527   1.196   8.855
 7580POPC   C1A27795   0.478   1.193   8.555
 7580POPC   D2A27796   0.407   1.258   8.255
 7580POPC   C3A27797   0.403   1.187   7.955
 7580POPC   C4A27798   0.432   1.219   7.655
 7580POPC   C1B27799   0.636   1.097   8.555
 7580POPC   C2B27800   0.692   1.160   8.255
 7580POPC   C3B27801   0.663   1.113   7.955
 7580POPC   C4B27802   0.720   1.152   7.655
 7581POPC   NC327803  30.700  20.617   9.455
 7581POPC   PO427804  30.726  20.657   9.155
 7581POPC   GL127805  30.720  20.596   8.855
 7581POPC   GL227806  30.773  20.476   8.855
 7581POPC   C1A27807  30.727  20.561   8.555
 7581POPC   D2A27808  30.742  20.566   8.255
 7581POPC   C3A27809  30.711  20.630   7.955
 7581POPC   C4A27810  30.692  20.658   7.655
 7581POPC   C1B27811  30.854  20.438   8.555
 7581POPC   C2B27812  30.785  20.408   8.255
 7581POPC   C3B27813  30.837  20.413   7.955
 7581POPC   C4B27814  30.808  20.393   7.655
 7582POPC   NC327815  27.550   5.110   9.455
 7582POPC   PO427816  27.575   5.128   9.155
 7582POPC   GL127817  27.590   5.128   8.855
 7582POPC   GL227818  27.577   5.010   8.855
 7582POPC   C1A27819  27.605   5.138   8.555
 7582POPC   D2A27820  27.594   5.093   8.255
 7582POPC   C3A27821  27.595   5.133   7.955
 7582POPC   C4A27822  27.590   5.135   7.655
 7582POPC   C1B27823  27.582   4.816   8.555
 7582POPC   C2B27824  27.671   4.818   8.255
 7582POPC   C3B27825  27.622   4.891   7.955
 7582POPC   C4B27826  27.618   4.876   7.655
 7583POPC   NC327827  32.257  19.865   9.455
 7583POPC   PO427828  32.260  19.821   9.155
 7583POPC   GL127829  32.283  19.857   8.855
 7583POPC   GL227830  32.348  19.787   8.855
 7583POPC   C1A27831  32.264  19.878   8.555
 7583POPC   D2A27832  32.232  19.823   8.255
 7583POPC   C3A27833  32.273  19.858   7.955
 7583POPC   C4A27834  32.239  19.857   7.655
 7583POPC   C1B27835  32.457  19.697   8.555
 7583POPC   C2B27836  32.421  19.622   8.255
 7583POPC   C3B27837  32.431  19.642   7.955
 7583POPC   C4B27838  32.456  19.640   7.655
 7584POPC   NC327839  17.536  33.766   9.455
 7584POPC   PO427840  17.515  33.784   9.155
 7584POPC   GL127841  17.495  33.778   8.855
 7584POPC   GL227842  17.486  33.914   8.855
 7584POPC   C1A27843  17.514  33.779   8.555
 7584POPC   D2A27844  17.468  33.774   8.255
 7584POPC   C3A27845  17.479  33.787   7.955
 7584POPC   C4A27846  17.532  33.769   7.655
 7584POPC   C1B27847  17.434  34.000   8.555
 7584POPC   C2B27848  17.497  34.071   8.255
 7584POPC   C3B27849  17.497  34.037   7.955
 7584POPC   C4B27850  17.448  34.076   7.655
 7585POPC   NC327851  38.444  14.411   9.455
 7585POPC   PO427852  38.497  14.443   9.155
 7585POPC   GL127853  38.446  14.366   8.855
 7585POPC   GL227854  38.394  14.449   8.855
 7585POPC   C1A27855  38.494  14.437   8.555
 7585POPC   D2A27856  38.489  14.358   8.255
 7585POPC   C3A27857  38.434  14.355   7.955
 7585POPC   C4A27858  38.429  14.378   7.655
 7585POPC   C1B27859  38.272  14.525   8.555
 7585POPC   C2B27860  38.303  14.515   8.255
 7585POPC   C3B27861  38.213  14.502   7.955
 7585POPC   C4B27862  38.256  14.569   7.655
 7586POPC   NC327863   5.116   4.303   9.455
 7586POPC   PO427864   5.044   4.350   9.155
 7586POPC   GL127865   5.110   4.305   8.855
 7586POPC   GL227866   5.011   4.232   8.855
 7586POPC   C1A27867   5.055   4.279   8.555
 7586POPC   D2A27868   5.134   4.318   8.255
 7586POPC   C3A27869   5.066   4.327   7.955
 7586POPC   C4A27870   5.052   4.319   7.655
 7586POPC   C1B27871   4.954   4.105   8.555
 7586POPC   C2B27872   4.943   4.163   8.255
 7586POPC   C3B27873   4.907   4.181   7.955
 7586POPC   C4B27874   4.921   4.126   7.655
 7587POPC   NC327875  41.581   6.665   9.455
 7587POPC   PO427876  41.549   6.660   9.155
 7587POPC   GL127877  41.533   6.685   8.855
 7587POPC   GL227878  41.686   6.666   8.855
 7587POPC   C1A27879  41.534   6.658   8.555
 7587POPC   D2A27880  41.605   6.611   8.255
 7587POPC   C3A27881  41.575   6.644   7.955
 7587POPC   C4A27882  41.583   6.632   7.655
 7587POPC   C1B27883  41.819   6.656   8.555
 7587POPC   C2B27884  41.789   6.609   8.255
 7587POPC   C3B27885  41.767   6.637   7.955
 7587POPC   C4B27886  41.841   6.610   7.655
 7588POPC   NC327887  29.142  30.693   9.455
 7588POPC   PO427888  29.140  30.726   9.155
 7588POPC   GL127889  29.118  30.714   8.855
 7588POPC   GL227890  29.274  30.751   8.855
 7588POPC   C1A27891  29.166  30.728   8.555
 7588POPC   D2A27892  29.123  30.699   8.255
 7588POPC   C3A27893  29.163  30.742   7.955
 7588POPC   C4A27894  29.180  30.689   7.655
 7588POPC   C1B27895  29.376  30.841   8.555
 7588POPC   C2B27896  29.383  30.775   8.255
 7588POPC   C3B27897  29.344  30.786   7.955
 7588POPC   C4B27898  29.360  30.849   7.655
 7589POPC   NC327899  39.196  16.700   9.455
 7589POPC   PO427900  39.231  16.758   9.155
 7589POPC   GL127901  39.202  16.708   8.855
 7589POPC   GL227902  39.311  16.840   8.855
 7589POPC   C1A27903  39.224  16.758   8.555
 7589POPC   D2A27904  39.195  16.778   8.255
 7589POPC   C3A27905  39.215  16.737   7.955
 7589POPC   C4A27906  39.187  16.750   7.655
 7589POPC   C1B27907  39.369  16.878   8.555
 7589POPC   C2B27908  39.371  16.876   8.255
 7589POPC   C3B27909  39.415  16.864   7.955
 7589POPC   C4B27910  39.392  16.917   7.655
 7590POPC   NC327911   1.259  29.877   9.455
 7590POPC   PO427912   1.209  29.920   9.155
 7590POPC   GL127913   1.202  29.892   8.855
 7590POPC   GL227914   1.055  29.904   8.855
 7590POPC   C1A27915   1.216  29.898   8.555
 7590POPC   D2A27916   1.233  29.926   8.255
 7590POPC   C3A27917   1.253  29.901   7.955
 7590POPC   C4A27918   1.180  29.970   7.655
 7590POPC   C1B27919   0.935  29.983   8.555
 7590POPC   C2B27920   0.956  29.927   8.255
 7590POPC   C3B27921   1.005  30.001   7.955
 7590POPC   C4B27922   0.995  30.002   7.655
 7591POPC   NC327923   1.257  31.506   9.455
 7591POPC   PO427924   1.197  31.480   9.155
 7591POPC   GL127925   1.201  31.433   8.855
 7591POPC   GL227926   1.241  31.333   8.855
 7591POPC   C1A27927   1.213  31.447   8.555
 7591POPC   D2A27928   1.198  31.510   8.255
 7591POPC   C3A27929   1.224  31.453   7.955
 7591POPC   C4A27930   1.232  31.468   7.655
 7591POPC   C1B27931   1.310  31.252   8.555
 7591POPC   C2B27932   1.273  31.186   8.255
 7591POPC   C3B27933   1.280  31.273   7.955
 7591POPC   C4B27934   1.317  31.280   7.655
 7592POPC   NC327935   2.033   3.524   9.455
 7592POPC   PO427936   2.031   3.573   9.155
 7592POPC   GL127937   1.964   3.556   8.855
 7592POPC   GL227938   1.984   3.645   8.855
 7592POPC   C1A27939   2.012   3.495   8.555
 7592POPC   D2A27940   2.010   3.560   8.255
 7592POPC   C3A27941   1.998   3.507   7.955
 7592POPC   C4A27942   2.024   3.590   7.655
 7592POPC   C1B27943   2.024   3.814   8.555
 7592POPC   C2B27944   1.977   3.814   8.255
 7592POPC   C3B27945   2.033   3.783   7.955
 7592POPC   C4B27946   1.965   3.795   7.655
 7593POPC   NC327947  20.602   5.891   9.455
 7593POPC   PO427948  20.633   5.903   9.155
 7593POPC   GL127949  20.650   5.855   8.855
 7593POPC   GL227950  20.493   5.992   8.855
 7593POPC   C1A27951  20.566   5.883   8.555
 7593POPC   D2A27952  20.615   5.838   8.255
 7593POPC   C3A27953  20.614   5.896   7.955
 7593POPC   C4A27954  20.649   5.845   7.655
 7593POPC   C1B27955  20.423   6.023   8.555
 7593POPC   C2B27956  20.463   6.077   8.255
 7593POPC   C3B27957  20.390   6.088   7.955
 7593POPC   C4B27958  20.450   6.050   7.655
 7594POPC   NC327959  22.182   3.576   9.455
 7594POPC   PO427960  22.171   3.549   9.155
 7594POPC   GL127961  22.124   3.511   8.855
 7594POPC   GL227962  22.131   3.685   8.855
 7594POPC   C1A27963  22.117   3.516   8.555
 7594POPC   D2A27964  22.142   3.587   8.255
 7594POPC   C3A27965  22.170   3.571   7.955
 7594POPC   C4A27966  22.186   3.497   7.655
 7594POPC   C1B27967  22.145   3.792   8.555
 7594POPC   C2B27968  22.145   3.756   8.255
 7594POPC   C3B27969  22.095   3.764   7.955
 7594POPC   C4B27970  22.110   3.769   7.655
 7595POPC   NC327971  33.073  18.322   9.455
 7595POPC   PO427972  32.990  18.268   9.155
 7595POPC   GL127973  33.072  18.252   8.855
 7595POPC   GL227974  33.105  18.310   8.855
 7595POPC   C1A27975  33.039  18.265   8.555
 7595POPC   D2A27976  33.058  18.294   8.255
 7595POPC   C3A27977  33.030  18.287   7.955
 7595POPC   C4A27978  33.070  18.288   7.655
 7595POPC   C1B27979  33.307  18.266   8.555
 7595POPC   C2B27980  33.302  18.289   8.255
 7595POPC   C3B27981  33.285  18.263   7.955
 7595POPC   C4B27982  33.285  18.203   7.655
 7596POPC   NC327983  40.013   8.233   9.455
 7596POPC   PO427984  40.050   8.212   9.155
 7596POPC   GL127985  40.014   8.167   8.855
 7596POPC   GL227986  40.052   8.109   8.855
 7596POPC   C1A27987  40.032   8.155   8.555
 7596POPC   D2A27988  39.961   8.162   8.255
 7596POPC   C3A27989  40.033   8.240   7.955
 7596POPC   C4A27990  39.986   8.241   7.655
 7596POPC   C1B27991  40.175   8.012   8.555
 7596POPC   C2B27992  40.139   8.021   8.255
 7596POPC   C3B27993  40.100   7.992   7.955
 7596POPC   C4B27994  40.156   7.937   7.655
 7597POPC   NC327995   8.176  36.944   9.455
 7597POPC   PO427996   8.224  36.918   9.155
 7597POPC   GL127997   8.159  36.930   8.855
 7597POPC   GL227998   8.178  36.770   8.855
 7597POPC   C1A27999   8.195  36.933   8.555
 7597POPC   D2A28000   8.183  36.854   8.255
 7597POPC   C3A28001   8.183  36.871   7.955
 7597POPC   C4A28002   8.156  36.941   7.655
 7597POPC   C1B28003   8.231  36.652   8.555
 7597POPC   C2B28004   8.223  36.700   8.255
 7597POPC   C3B28005   8.236  36.631   7.955
 7597POPC   C4B28006   8.223  36.697   7.655
 7598POPC   NC328007  40.760  23.759   9.455
 7598POPC   PO428008  40.754  23.754   9.155
 7598POPC   GL128009  40.819  23.743   8.855
 7598POPC   GL228010  40.793  23.559   8.855
 7598POPC   C1A28011  40.750  23.702   8.555
 7598POPC   D2A28012  40.749  23.757   8.255
 7598POPC   C3A28013  40.779  23.725   7.955
 7598POPC   C4A28014  40.737  23.745   7.655
 7598POPC   C1B28015  40.847  23.437   8.555
 7598POPC   C2B28016  40.800  23.502   8.255
 7598POPC   C3B28017  40.867  23.500   7.955
 7598POPC   C4B28018  40.870  23.507   7.655
 7599POPC   NC328019   9.706  36.095   9.455
 7599POPC   PO428020   9.752  36.159   9.155
 7599POPC   GL128021   9.724  36.085   8.855
 7599POPC   GL228022   9.851  36.007   8.855
 7599POPC   C1A28023   9.789  36.148   8.555
 7599POPC   D2A28024   9.702  36.161   8.255
 7599POPC   C3A28025   9.768  36.168   7.955
 7599POPC   C4A28026   9.727  36.114   7.655
 7599POPC   C1B28027   9.868  35.973   8.555
 7599POPC   C2B28028   9.949  35.929   8.255
 7599POPC   C3B28029   9.932  35.953   7.955
 7599POPC   C4B28030   9.932  35.905   7.655
 7600POPC   NC328031  22.896  17.476   9.455
 7600POPC   PO428032  22.945  17.547   9.155
 7600POPC   GL128033  22.952  17.488   8.855
 7600POPC   GL228034  22.892  17.657   8.855
 7600POPC   C1A28035  22.964  17.464   8.555
 7600POPC   D2A28036  22.958  17.515   8.255
 7600POPC   C3A28037  22.906  17.490   7.955
 7600POPC   C4A28038  22.897  17.471   7.655
 7600POPC   C1B28039  22.838  17.713   8.555
 7600POPC   C2B28040  22.853  17.763   8.255
 7600POPC   C3B28041  22.864  17.702   7.955
 7600POPC   C4B28042  22.886  17.752   7.655
 7601POPC   NC328043   2.751  39.960   9.455
 7601POPC   PO428044   2.723  40.041   9.155
 7601POPC   GL128045   2.780  40.033   8.855
 7601POPC   GL228046   2.663  39.971   8.855
 7601POPC   C1A28047   2.789  39.976   8.555
 7601POPC   D2A28048   2.718  39.960   8.255
 7601POPC   C3A28049   2.746  40.023   7.955
 7601POPC   C4A28050   2.729  39.998   7.655
 7601POPC   C1B28051   2.503  40.045   8.555
 7601POPC   C2B28052   2.510  40.001   8.255
 7601POPC   C3B28053   2.489  40.016   7.955
 7601POPC   C4B28054   2.532  39.998   7.655
 7602POPC   NC328055  19.794   7.442   9.455
 7602POPC   PO428056  19.786   7.426   9.155
 7602POPC   GL128057  19.791   7.399   8.855
 7602POPC   GL228058  19.955   7.458   8.855
 7602POPC   C1A28059  19.823   7.462   8.555
 7602POPC   D2A28060  19.832   7.376   8.255
 7602POPC   C3A28061  19.856   7.436   7.955
 7602POPC   C4A28062  19.813   7.466   7.655
 7602POPC   C1B28063  20.040   7.589   8.555
 7602POPC   C2B28064  20.075   7.606   8.255
 7602POPC   C3B28065  20.044   7.534   7.955
 7602POPC   C4B28066  20.064   7.546   7.655
 7603POPC   NC328067   2.718  42.346   9.455
 7603POPC   PO428068   2.718  42.382   9.155
 7603POPC   GL128069   2.766  42.374   8.855
 7603POPC   GL228070   2.819  42.168   8.855
 7603POPC   C1A28071   2.741  42.300   8.555
 7603POPC   D2A28072   2.763  42.375   8.255
 7603POPC   C3A28073   2.786  42.370   7.955
 7603POPC   C4A28074   2.805  42.321   7.655
 7603POPC   C1B28075   2.856  42.121   8.555
 7603POPC   C2B28076   2.848  42.099   8.255
 7603POPC   C3B28077   2.803  42.116   7.955
 7603POPC   C4B28078   2.838  42.060   7.655
 7604POPC   NC328079   7.434  12.034   9.455
 7604POPC   PO428080   7.465  12.090   9.155
 7604POPC   GL128081   7.410  12.084   8.855
 7604POPC   GL228082   7.405  11.985   8.855
 7604POPC   C1A28083   7.439  12.122   8.555
 7604POPC   D2A28084   7.419  12.049   8.255
 7604POPC   C3A28085   7.371  12.074   7.955
 7604POPC   C4A28086   7.396  12.073   7.655
 7604POPC   C1B28087   7.394  11.834   8.555
 7604POPC   C2B28088   7.347  11.843   8.255
 7604POPC   C3B28089   7.313  11.871   7.955
 7604POPC   C4B28090   7.396  11.788   7.655
 7605POPC   NC328091   4.344  14.358   9.455
 7605POPC   PO428092   4.340  14.439   9.155
 7605POPC   GL128093   4.306  14.451   8.855
 7605POPC   GL228094   4.419  14.419   8.855
 7605POPC   C1A28095   4.361  14.406   8.555
 7605POPC   D2A28096   4.361  14.423   8.255
 7605POPC   C3A28097   4.327  14.453   7.955
 7605POPC   C4A28098   4.285  14.397   7.655
 7605POPC   C1B28099   4.568  14.347   8.555
 7605POPC   C2B28100   4.569  14.432   8.255
 7605POPC   C3B28101   4.572  14.345   7.955
 7605POPC   C4B28102   4.534  14.406   7.655
 7606POPC   NC328103   6.619   5.074   9.455
 7606POPC   PO428104   6.669   5.083   9.155
 7606POPC   GL128105   6.617   5.096   8.855
 7606POPC   GL228106   6.495   5.131   8.855
 7606POPC   C1A28107   6.691   5.057   8.555
 7606POPC   D2A28108   6.612   5.095   8.255
 7606POPC   C3A28109   6.640   5.118   7.955
 7606POPC   C4A28110   6.622   5.095   7.655
 7606POPC   C1B28111   6.439   5.192   8.555
 7606POPC   C2B28112   6.408   5.170   8.255
 7606POPC   C3B28113   6.445   5.133   7.955
 7606POPC   C4B28114   6.394   5.173   7.655
 7607POPC   NC328115  12.037  19.093   9.455
 7607POPC   PO428116  12.029  19.031   9.155
 7607POPC   GL128117  12.026  19.012   8.855
 7607POPC   GL228118  11.980  18.908   8.855
 7607POPC   C1A28119  12.117  19.052   8.555
 7607POPC   D2A28120  12.037  19.088   8.255
 7607POPC   C3A28121  12.106  19.056   7.955
 7607POPC   C4A28122  12.115  19.066   7.655
 7607POPC   C1B28123  11.934  18.852   8.555
 7607POPC   C2B28124  11.974  18.810   8.255
 7607POPC   C3B28125  11.935  18.808   7.955
 7607POPC   C4B28126  11.963  18.891   7.655
 7608POPC   NC328127   6.656   1.995   9.455
 7608POPC   PO428128   6.596   1.947   9.155
 7608POPC   GL128129   6.689   2.000   8.855
 7608POPC   GL228130   6.558   2.045   8.855
 7608POPC   C1A28131   6.625   1.953   8.555
 7608POPC   D2A28132   6.612   2.001   8.255
 7608POPC   C3A28133   6.609   1.945   7.955
 7608POPC   C4A28134   6.630   1.998   7.655
 7608POPC   C1B28135   6.495   2.101   8.555
 7608POPC   C2B28136   6.469   2.110   8.255
 7608POPC   C3B28137   6.483   2.196   7.955
 7608POPC   C4B28138   6.441   2.191   7.655
 7609POPC   NC328139  35.381   8.973   9.455
 7609POPC   PO428140  35.331   8.954   9.155
 7609POPC   GL128141  35.372   9.003   8.855
 7609POPC   GL228142  35.331   9.099   8.855
 7609POPC   C1A28143  35.364   8.924   8.555
 7609POPC   D2A28144  35.380   8.931   8.255
 7609POPC   C3A28145  35.393   8.924   7.955
 7609POPC   C4A28146  35.334   8.981   7.655
 7609POPC   C1B28147  35.384   9.246   8.555
 7609POPC   C2B28148  35.444   9.266   8.255
 7609POPC   C3B28149  35.362   9.246   7.955
 7609POPC   C4B28150  35.371   9.263   7.655
 7610POPC   NC328151  27.589  16.707   9.455
 7610POPC   PO428152  27.557  16.723   9.155
 7610POPC   GL128153  27.561  16.770   8.855
 7610POPC   GL228154  27.515  16.814   8.855
 7610POPC   C1A28155  27.617  16.703   8.555
 7610POPC   D2A28156  27.577  16.746   8.255
 7610POPC   C3A28157  27.633  16.704   7.955
 7610POPC   C4A28158  27.567  16.684   7.655
 7610POPC   C1B28159  27.470  16.890   8.555
 7610POPC   C2B28160  27.457  16.912   8.255
 7610POPC   C3B28161  27.404  16.964   7.955
 7610POPC   C4B28162  27.485  16.950   7.655
 7611POPC   NC328163  10.479  31.424   9.455
 7611POPC   PO428164  10.510  31.510   9.155
 7611POPC   GL128165  10.506  31.448   8.855
 7611POPC   GL228166  10.624  31.578   8.855
 7611POPC   C1A28167  10.525  31.455   8.555
 7611POPC   D2A28168  10.571  31.497   8.255
 7611POPC   C3A28169  10.523  31.473   7.955
 7611POPC   C4A28170  10.520  31.474   7.655
 7611POPC   C1B28171  10.700  31.606   8.555
 7611POPC   C2B28172  10.703  31.612   8.255
 7611POPC   C3B28173  10.726  31.616   7.955
 7611POPC   C4B28174  10.760  31.563   7.655
 7612POPC   NC328175  22.904  41.566   9.455
 7612POPC   PO428176  22.975  41.557   9.155
 7612POPC   GL128177  22.972  41.595   8.855
 7612POPC   GL228178  22.899  41.677   8.855
 7612POPC   C1A28179  22.988  41.544   8.555
 7612POPC   D2A28180  22.895  41.526   8.255
 7612POPC   C3A28181  22.975  41.546   7.955
 7612POPC   C4A28182  22.931  41.514   7.655
 7612POPC   C1B28183  22.815  41.743   8.555
 7612POPC   C2B28184  22.751  41.758   8.255
 7612POPC   C3B28185  22.740  41.699   7.955
 7612POPC   C4B28186  22.725  41.743   7.655
 7613POPC   NC328187  29.906  20.598   9.455
 7613POPC   PO428188  29.928  20.561   9.155
 7613POPC   GL128189  29.957  20.644   8.855
 7613POPC   GL228190  29.978  20.664   8.855
 7613POPC   C1A28191  29.964  20.599   8.555
 7613POPC   D2A28192  29.923  20.573   8.255
 7613POPC   C3A28193  29.873  20.590   7.955
 7613POPC   C4A28194  29.928  20.574   7.655
 7613POPC   C1B28195  30.133  20.794   8.555
 7613POPC   C2B28196  30.126  20.778   8.255
 7613POPC   C3B28197  30.077  20.788   7.955
 7613POPC   C4B28198  30.123  20.758   7.655
 7614POPC   NC328199  36.923  38.482   9.455
 7614POPC   PO428200  36.936  38.493   9.155
 7614POPC   GL128201  36.862  38.428   8.855
 7614POPC   GL228202  36.864  38.575   8.855
 7614POPC   C1A28203  36.869  38.419   8.555
 7614POPC   D2A28204  36.885  38.485   8.255
 7614POPC   C3A28205  36.876  38.459   7.955
 7614POPC   C4A28206  36.932  38.435   7.655
 7614POPC   C1B28207  36.729  38.611   8.555
 7614POPC   C2B28208  36.772  38.660   8.255
 7614POPC   C3B28209  36.759  38.637   7.955
 7614POPC   C4B28210  36.716  38.583   7.655
 7615POPC   NC328211  36.130   6.668   9.455
 7615POPC   PO428212  36.164   6.637   9.155
 7615POPC   GL128213  36.172   6.665   8.855
 7615POPC   GL228214  36.039   6.713   8.855
 7615POPC   C1A28215  36.079   6.645   8.555
 7615POPC   D2A28216  36.116   6.637   8.255
 7615POPC   C3A28217  36.160   6.644   7.955
 7615POPC   C4A28218  36.083   6.670   7.655
 7615POPC   C1B28219  35.952   6.768   8.555
 7615POPC   C2B28220  35.892   6.793   8.255
 7615POPC   C3B28221  35.909   6.754   7.955
 7615POPC   C4B28222  35.953   6.800   7.655
 7616POPC   NC328223  27.565  22.971   9.455
 7616POPC   PO428224  27.585  22.980   9.155
 7616POPC   GL128225  27.616  22.941   8.855
 7616POPC   GL228226  27.655  23.065   8.855
 7616POPC   C1A28227  27.617  22.979   8.555
 7616POPC   D2A28228  27.595  22.938   8.255
 7616POPC   C3A28229  27.635  22.927   7.955
 7616POPC   C4A28230  27.631  22.922   7.655
 7616POPC   C1B28231  27.725  23.166   8.555
 7616POPC   C2B28232  27.755  23.173   8.255
 7616POPC   C3B28233  27.745  23.184   7.955
 7616POPC   C4B28234  27.746  23.125   7.655
 7617POPC   NC328235   8.156  33.001   9.455
 7617POPC   PO428236   8.238  33.016   9.155
 7617POPC   GL128237   8.186  33.011   8.855
 7617POPC   GL228238   8.279  32.977   8.855
 7617POPC   C1A28239   8.191  33.051   8.555
 7617POPC   D2A28240   8.197  32.979   8.255
 7617POPC   C3A28241   8.246  33.040   7.955
 7617POPC   C4A28242   8.217  33.070   7.655
 7617POPC   C1B28243   8.322  32.848   8.555
 7617POPC   C2B28244   8.354  32.871   8.255
 7617POPC   C3B28245   8.378  32.890   7.955
 7617POPC   C4B28246   8.416  32.855   7.655
 7618POPC   NC328247  44.680  19.816   9.455
 7618POPC   PO428248  44.671  19.843   9.155
 7618POPC   GL128249  44.677  19.816   8.855
 7618POPC   GL228250  44.524  19.782   8.855
 7618POPC   C1A28251  44.686  19.818   8.555
 7618POPC   D2A28252  44.658  19.880   8.255
 7618POPC   C3A28253  44.617  19.842   7.955
 7618POPC   C4A28254  44.698  19.841   7.655
 7618POPC   C1B28255  44.425  19.831   8.555
 7618POPC   C2B28256  44.394  19.844   8.255
 7618POPC   C3B28257  44.421  19.823   7.955
 7618POPC   C4B28258  44.450  19.809   7.655
 7619POPC   NC328259   6.638  29.917   9.455
 7619POPC   PO428260   6.684  29.970   9.155
 7619POPC   GL128261   6.647  29.902   8.855
 7619POPC   GL228262   6.535  29.959   8.855
 7619POPC   C1A28263   6.686  29.889   8.555
 7619POPC   D2A28264   6.622  29.940   8.255
 7619POPC   C3A28265   6.604  29.967   7.955
 7619POPC   C4A28266   6.622  29.885   7.655
 7619POPC   C1B28267   6.422  30.137   8.555
 7619POPC   C2B28268   6.461  30.138   8.255
 7619POPC   C3B28269   6.488  30.133   7.955
 7619POPC   C4B28270   6.495  30.064   7.655
 7620POPC   NC328271   7.402  43.846   9.455
 7620POPC   PO428272   7.426  43.866   9.155
 7620POPC   GL128273   7.444  43.869   8.855
 7620POPC   GL228274   7.481  43.733   8.855
 7620POPC   C1A28275   7.452  43.898   8.555
 7620POPC   D2A28276   7.413  43.931   8.255
 7620POPC   C3A28277   7.446  43.915   7.955
 7620POPC   C4A28278   7.422  43.934   7.655
 7620POPC   C1B28279   7.482  43.678   8.555
 7620POPC   C2B28280   7.509  43.672   8.255
 7620POPC   C3B28281   7.500  43.688   7.955
 7620POPC   C4B28282   7.491  43.642   7.655
 7621POPC   NC328283   6.694  28.369   9.455
 7621POPC   PO428284   6.613  28.392   9.155
 7621POPC   GL128285   6.607  28.414   8.855
 7621POPC   GL228286   6.687  28.453   8.855
 7621POPC   C1A28287   6.685  28.326   8.555
 7621POPC   D2A28288   6.609  28.339   8.255
 7621POPC   C3A28289   6.599  28.419   7.955
 7621POPC   C4A28290   6.673  28.326   7.655
 7621POPC   C1B28291   6.815  28.616   8.555
 7621POPC   C2B28292   6.752  28.549   8.255
 7621POPC   C3B28293   6.803  28.615   7.955
 7621POPC   C4B28294   6.811  28.533   7.655
 7622POPC   NC328295  10.550   8.225   9.455
 7622POPC   PO428296  10.559   8.240   9.155
 7622POPC   GL128297  10.498   8.155   8.855
 7622POPC   GL228298  10.558   8.120   8.855
 7622POPC   C1A28299  10.518   8.167   8.555
 7622POPC   D2A28300  10.572   8.216   8.255
 7622POPC   C3A28301  10.509   8.217   7.955
 7622POPC   C4A28302  10.504   8.157   7.655
 7622POPC   C1B28303  10.675   8.016   8.555
 7622POPC   C2B28304  10.619   7.998   8.255
 7622POPC   C3B28305  10.630   7.957   7.955
 7622POPC   C4B28306  10.649   7.998   7.655
 7623POPC   NC328307   2.000  13.597   9.455
 7623POPC   PO428308   1.997  13.594   9.155
 7623POPC   GL128309   1.963  13.672   8.855
 7623POPC   GL228310   2.011  13.473   8.855
 7623POPC   C1A28311   2.010  13.592   8.555
 7623POPC   D2A28312   1.941  13.662   8.255
 7623POPC   C3A28313   1.988  13.626   7.955
 7623POPC   C4A28314   2.010  13.663   7.655
 7623POPC   C1B28315   1.900  13.364   8.555
 7623POPC   C2B28316   1.968  13.398   8.255
 7623POPC   C3B28317   1.932  13.371   7.955
 7623POPC   C4B28318   1.973  13.416   7.655
 7624POPC   NC328319  39.210  22.185   9.455
 7624POPC   PO428320  39.247  22.178   9.155
 7624POPC   GL128321  39.250  22.160   8.855
 7624POPC   GL228322  39.194  22.004   8.855
 7624POPC   C1A28323  39.254  22.145   8.555
 7624POPC   D2A28324  39.246  22.196   8.255
 7624POPC   C3A28325  39.201  22.204   7.955
 7624POPC   C4A28326  39.259  22.196   7.655
 7624POPC   C1B28327  39.242  21.896   8.555
 7624POPC   C2B28328  39.177  21.909   8.255
 7624POPC   C3B28329  39.210  21.869   7.955
 7624POPC   C4B28330  39.187  21.929   7.655
 7625POPC   NC328331  42.355  29.140   9.455
 7625POPC   PO428332  42.353  29.182   9.155
 7625POPC   GL128333  42.363  29.172   8.855
 7625POPC   GL228334  42.221  29.056   8.855
 7625POPC   C1A28335  42.362  29.131   8.555
 7625POPC   D2A28336  42.300  29.114   8.255
 7625POPC   C3A28337  42.351  29.123   7.955
 7625POPC   C4A28338  42.362  29.145   7.655
 7625POPC   C1B28339  42.181  29.021   8.555
 7625POPC   C2B28340  42.128  29.015   8.255
 7625POPC   C3B28341  42.157  28.957   7.955
 7625POPC   C4B28342  42.125  28.967   7.655
 7626POPC   NC328343  19.041  42.292   9.455
 7626POPC   PO428344  19.064  42.320   9.155
 7626POPC   GL128345  19.023  42.349   8.855
 7626POPC   GL228346  18.995  42.424   8.855
 7626POPC   C1A28347  19.022  42.355   8.555
 7626POPC   D2A28348  19.051  42.294   8.255
 7626POPC   C3A28349  19.023  42.312   7.955
 7626POPC   C4A28350  19.034  42.306   7.655
 7626POPC   C1B28351  18.935  42.593   8.555
 7626POPC   C2B28352  18.994  42.514   8.255
 7626POPC   C3B28353  18.929  42.536   7.955
 7626POPC   C4B28354  18.998  42.537   7.655
 7627POPC   NC328355  33.034   1.242   9.455
 7627POPC   PO428356  33.004   1.253   9.155
 7627POPC   GL128357  33.033   1.236   8.855
 7627POPC   GL228358  32.964   1.313   8.855
 7627POPC   C1A28359  33.034   1.245   8.555
 7627POPC   D2A28360  32.975   1.224   8.255
 7627POPC   C3A28361  33.014   1.239   7.955
 7627POPC   C4A28362  33.061   1.257   7.655
 7627POPC   C1B28363  32.772   1.339   8.555
 7627POPC   C2B28364  32.845   1.304   8.255
 7627POPC   C3B28365  32.761   1.336   7.955
 7627POPC   C4B28366  32.772   1.364   7.655
 7628POPC   NC328367  16.738  16.763   9.455
 7628POPC   PO428368  16.702  16.759   9.155
 7628POPC   GL128369  16.690  16.769   8.855
 7628POPC   GL228370  16.776  16.644   8.855
 7628POPC   C1A28371  16.717  16.777   8.555
 7628POPC   D2A28372  16.696  16.770   8.255
 7628POPC   C3A28373  16.722  16.745   7.955
 7628POPC   C4A28374  16.776  16.772   7.655
 7628POPC   C1B28375  16.909  16.501   8.555
 7628POPC   C2B28376  16.915  16.539   8.255
 7628POPC   C3B28377  16.851  16.582   7.955
 7628POPC   C4B28378  16.946  16.511   7.655
 7629POPC   NC328379  33.028   6.649   9.455
 7629POPC   PO428380  33.057   6.620   9.155
 7629POPC   GL128381  33.061   6.670   8.855
 7629POPC   GL228382  32.894   6.587   8.855
 7629POPC   C1A28383  33.049   6.638   8.555
 7629POPC   D2A28384  32.985   6.616   8.255
 7629POPC   C3A28385  33.055   6.599   7.955
 7629POPC   C4A28386  33.045   6.612   7.655
 7629POPC   C1B28387  32.831   6.560   8.555
 7629POPC   C2B28388  32.809   6.569   8.255
 7629POPC   C3B28389  32.772   6.544   7.955
 7629POPC   C4B28390  32.792   6.550   7.655
 7630POPC   NC328391  18.288   8.149   9.455
 7630POPC   PO428392  18.326   8.165   9.155
 7630POPC   GL128393  18.272   8.235   8.855
 7630POPC   GL228394  18.305   8.060   8.855
 7630POPC   C1A28395  18.237   8.234   8.555
 7630POPC   D2A28396  18.239   8.227   8.255
 7630POPC   C3A28397  18.240   8.174   7.955
 7630POPC   C4A28398  18.307   8.212   7.655
 7630POPC   C1B28399  18.240   7.967   8.555
 7630POPC   C2B28400  18.265   7.913   8.255
 7630POPC   C3B28401  18.308   7.903   7.955
 7630POPC   C4B28402  18.269   7.949   7.655
 7631POPC   NC328403   8.224  34.567   9.455
 7631POPC   PO428404   8.193  34.557   9.155
 7631POPC   GL128405   8.189  34.548   8.855
 7631POPC   GL228406   8.118  34.622   8.855
 7631POPC   C1A28407   8.178  34.618   8.555
 7631POPC   D2A28408   8.208  34.545   8.255
 7631POPC   C3A28409   8.232  34.601   7.955
 7631POPC   C4A28410   8.215  34.609   7.655
 7631POPC   C1B28411   8.036  34.694   8.555
 7631POPC   C2B28412   7.969  34.700   8.255
 7631POPC   C3B28413   8.014  34.743   7.955
 7631POPC   C4B28414   8.027  34.686   7.655
 7632POPC   NC328415  27.622  17.493   9.455
 7632POPC   PO428416  27.548  17.521   9.155
 7632POPC   GL128417  27.610  17.515   8.855
 7632POPC   GL228418  27.664  17.627   8.855
 7632POPC   C1A28419  27.614  17.541   8.555
 7632POPC   D2A28420  27.545  17.470   8.255
 7632POPC   C3A28421  27.623  17.464   7.955
 7632POPC   C4A28422  27.570  17.547   7.655
 7632POPC   C1B28423  27.747  17.713   8.555
 7632POPC   C2B28424  27.744  17.667   8.255
 7632POPC   C3B28425  27.779  17.720   7.955
 7632POPC   C4B28426  27.776  17.696   7.655
 7633POPC   NC328427  41.545  38.460   9.455
 7633POPC   PO428428  41.595  38.425   9.155
 7633POPC   GL128429  41.578  38.449   8.855
 7633POPC   GL228430  41.464  38.441   8.855
 7633POPC   C1A28431  41.565  38.450   8.555
 7633POPC   D2A28432  41.607  38.428   8.255
 7633POPC   C3A28433  41.576  38.446   7.955
 7633POPC   C4A28434  41.554  38.421   7.655
 7633POPC   C1B28435  41.283  38.372   8.555
 7633POPC   C2B28436  41.277  38.411   8.255
 7633POPC   C3B28437  41.307  38.365   7.955
 7633POPC   C4B28438  41.348  38.381   7.655
 7634POPC   NC328439   8.168  13.602   9.455
 7634POPC   PO428440   8.241  13.619   9.155
 7634POPC   GL128441   8.245  13.619   8.855
 7634POPC   GL228442   8.199  13.752   8.855
 7634POPC   C1A28443   8.164  13.617   8.555
 7634POPC   D2A28444   8.178  13.628   8.255
 7634POPC   C3A28445   8.210  13.668   7.955
 7634POPC   C4A28446   8.201  13.659   7.655
 7634POPC   C1B28447   8.251  13.828   8.555
 7634POPC   C2B28448   8.184  13.867   8.255
 7634POPC   C3B28449   8.216  13.860   7.955
 7634POPC   C4B28450   8.173  13.853   7.655
 7635POPC   NC328451  33.812  29.142   9.455
 7635POPC   PO428452  33.841  29.136   9.155
 7635POPC   GL128453  33.777  29.175   8.855
 7635POPC   GL228454  33.822  29.251   8.855
 7635POPC   C1A28455  33.830  29.098   8.555
 7635POPC   D2A28456  33.778  29.175   8.255
 7635POPC   C3A28457  33.796  29.137   7.955
 7635POPC   C4A28458  33.801  29.181   7.655
 7635POPC   C1B28459  33.874  29.429   8.555
 7635POPC   C2B28460  33.870  29.390   8.255
 7635POPC   C3B28461  33.900  29.431   7.955
 7635POPC   C4B28462  33.829  29.355   7.655
 7636POPC   NC328463  39.218   8.174   9.455
 7636POPC   PO428464  39.193   8.181   9.155
 7636POPC   GL128465  39.202   8.227   8.855
 7636POPC   GL228466  39.344   8.195   8.855
 7636POPC   C1A28467  39.220   8.153   8.555
 7636POPC   D2A28468  39.206   8.217   8.255
 7636POPC   C3A28469  39.197   8.195   7.955
 7636POPC   C4A28470  39.197   8.235   7.655
 7636POPC   C1B28471  39.488   8.250   8.555
 7636POPC   C2B28472  39.453   8.212   8.255
 7636POPC   C3B28473  39.440   8.226   7.955
 7636POPC   C4B28474  39.443   8.260   7.655
 7637POPC   NC328475  39.995  22.139   9.455
 7637POPC   PO428476  40.033  22.200   9.155
 7637POPC   GL128477  40.050  22.132   8.855
 7637POPC   GL228478  40.163  22.108   8.855
 7637POPC   C1A28479  40.010  22.155   8.555
 7637POPC   D2A28480  39.959  22.208   8.255
 7637POPC   C3A28481  39.980  22.148   7.955
 7637POPC   C4A28482  40.020  22.156   7.655
 7637POPC   C1B28483  40.217  22.116   8.555
 7637POPC   C2B28484  40.261  22.032   8.255
 7637POPC   C3B28485  40.205  22.068   7.955
 7637POPC   C4B28486  40.284  22.062   7.655
 7638POPC   NC328487  21.432  19.826   9.455
 7638POPC   PO428488  21.342  19.849   9.155
 7638POPC   GL128489  21.402  19.819   8.855
 7638POPC   GL228490  21.348  19.752   8.855
 7638POPC   C1A28491  21.383  19.853   8.555
 7638POPC   D2A28492  21.391  19.842   8.255
 7638POPC   C3A28493  21.354  19.819   7.955
 7638POPC   C4A28494  21.338  19.880   7.655
 7638POPC   C1B28495  21.379  19.585   8.555
 7638POPC   C2B28496  21.384  19.624   8.255
 7638POPC   C3B28497  21.355  19.537   7.955
 7638POPC   C4B28498  21.402  19.585   7.655
 7639POPC   NC328499  17.520  15.198   9.455
 7639POPC   PO428500  17.467  15.217   9.155
 7639POPC   GL128501  17.493  15.173   8.855
 7639POPC   GL228502  17.444  15.283   8.855
 7639POPC   C1A28503  17.503  15.189   8.555
 7639POPC   D2A28504  17.475  15.144   8.255
 7639POPC   C3A28505  17.505  15.135   7.955
 7639POPC   C4A28506  17.485  15.164   7.655
 7639POPC   C1B28507  17.460  15.429   8.555
 7639POPC   C2B28508  17.412  15.372   8.255
 7639POPC   C3B28509  17.408  15.375   7.955
 7639POPC   C4B28510  17.388  15.462   7.655
 7640POPC   NC328511  32.225  28.328   9.455
 7640POPC   PO428512  32.220  28.355   9.155
 7640POPC   GL128513  32.295  28.399   8.855
 7640POPC   GL228514  32.222  28.273   8.855
 7640POPC   C1A28515  32.269  28.323   8.555
 7640POPC   D2A28516  32.273  28.364   8.255
 7640POPC   C3A28517  32.213  28.350   7.955
 7640POPC   C4A28518  32.283  28.362   7.655
 7640POPC   C1B28519  32.314  28.169   8.555
 7640POPC   C2B28520  32.304  28.139   8.255
 7640POPC   C3B28521  32.293  28.090   7.955
 7640POPC   C4B28522  32.261  28.171   7.655
 7641POPC   NC328523  42.316   8.162   9.455
 7641POPC   PO428524  42.364   8.239   9.155
 7641POPC   GL128525  42.355   8.222   8.855
 7641POPC   GL228526  42.185   8.194   8.855
 7641POPC   C1A28527  42.309   8.236   8.555
 7641POPC   D2A28528  42.370   8.151   8.255
 7641POPC   C3A28529  42.363   8.149   7.955
 7641POPC   C4A28530  42.319   8.223   7.655
 7641POPC   C1B28531  42.111   8.262   8.555
 7641POPC   C2B28532  42.069   8.227   8.255
 7641POPC   C3B28533  42.086   8.254   7.955
 7641POPC   C4B28534  42.075   8.254   7.655
 7642POPC   NC328535  38.446  15.964   9.455
 7642POPC   PO428536  38.501  15.986   9.155
 7642POPC   GL128537  38.423  15.985   8.855
 7642POPC   GL228538  38.299  15.966   8.855
 7642POPC   C1A28539  38.419  15.947   8.555
 7642POPC   D2A28540  38.499  15.988   8.255
 7642POPC   C3A28541  38.468  15.913   7.955
 7642POPC   C4A28542  38.435  15.945   7.655
 7642POPC   C1B28543  38.232  15.949   8.555
 7642POPC   C2B28544  38.177  15.922   8.255
 7642POPC   C3B28545  38.190  15.904   7.955
 7642POPC   C4B28546  38.229  15.934   7.655
 7643POPC   NC328547  13.613  17.486   9.455
 7643POPC   PO428548  13.624  17.503   9.155
 7643POPC   GL128549  13.604  17.533   8.855
 7643POPC   GL228550  13.532  17.593   8.855
 7643POPC   C1A28551  13.666  17.479   8.555
 7643POPC   D2A28552  13.618  17.481   8.255
 7643POPC   C3A28553  13.658  17.483   7.955
 7643POPC   C4A28554  13.585  17.508   7.655
 7643POPC   C1B28555  13.538  17.721   8.555
 7643POPC   C2B28556  13.494  17.775   8.255
 7643POPC   C3B28557  13.505  17.721   7.955
 7643POPC   C4B28558  13.460  17.728   7.655
 7644POPC   NC328559   1.241  19.826   9.455
 7644POPC   PO428560   1.227  19.810   9.155
 7644POPC   GL128561   1.216  19.806   8.855
 7644POPC   GL228562   1.134  19.961   8.855
 7644POPC   C1A28563   1.170  19.878   8.555
 7644POPC   D2A28564   1.241  19.865   8.255
 7644POPC   C3A28565   1.224  19.871   7.955
 7644POPC   C4A28566   1.235  19.795   7.655
 7644POPC   C1B28567   1.084  20.041   8.555
 7644POPC   C2B28568   1.099  20.031   8.255
 7644POPC   C3B28569   1.132  20.061   7.955
 7644POPC   C4B28570   1.132  20.091   7.655
 7645POPC   NC328571  17.519   5.877   9.455
 7645POPC   PO428572  17.516   5.857   9.155
 7645POPC   GL128573  17.522   5.918   8.855
 7645POPC   GL228574  17.590   5.910   8.855
 7645POPC   C1A28575  17.459   5.878   8.555
 7645POPC   D2A28576  17.469   5.824   8.255
 7645POPC   C3A28577  17.486   5.843   7.955
 7645POPC   C4A28578  17.540   5.867   7.655
 7645POPC   C1B28579  17.724   5.892   8.555
 7645POPC   C2B28580  17.743   5.812   8.255
 7645POPC   C3B28581  17.719   5.829   7.955
 7645POPC   C4B28582  17.802   5.843   7.655
 7646POPC   NC328583  43.916  16.715   9.455
 7646POPC   PO428584  43.868  16.717   9.155
 7646POPC   GL128585  43.886  16.719   8.855
 7646POPC   GL228586  43.947  16.794   8.855
 7646POPC   C1A28587  43.911  16.683   8.555
 7646POPC   D2A28588  43.926  16.716   8.255
 7646POPC   C3A28589  43.889  16.770   7.955
 7646POPC   C4A28590  43.873  16.755   7.655
 7646POPC   C1B28591  44.101  16.845   8.555
 7646POPC   C2B28592  44.060  16.903   8.255
 7646POPC   C3B28593  44.089  16.849   7.955
 7646POPC   C4B28594  44.077  16.850   7.655
 7647POPC   NC328595  35.369  43.936   9.455
 7647POPC   PO428596  35.354  43.912   9.155
 7647POPC   GL128597  35.342  43.927   8.855
 7647POPC   GL228598  35.215  43.917   8.855
 7647POPC   C1A28599  35.333  43.911   8.555
 7647POPC   D2A28600  35.401  43.873   8.255
 7647POPC   C3A28601  35.360  43.924   7.955
 7647POPC   C4A28602  35.310  43.935   7.655
 7647POPC   C1B28603  35.159  43.919   8.555
 7647POPC   C2B28604  35.129  43.990   8.255
 7647POPC   C3B28605  35.157  43.976   7.955
 7647POPC   C4B28606  35.153  43.915   7.655
 7648POPC   NC328607  16.781  40.751   9.455
 7648POPC   PO428608  16.730  40.746   9.155
 7648POPC   GL128609  16.686  40.741   8.855
 7648POPC   GL228610  16.743  40.637   8.855
 7648POPC   C1A28611  16.747  40.830   8.555
 7648POPC   D2A28612  16.756  40.787   8.255
 7648POPC   C3A28613  16.695  40.781   7.955
 7648POPC   C4A28614  16.727  40.785   7.655
 7648POPC   C1B28615  16.764  40.529   8.555
 7648POPC   C2B28616  16.796  40.594   8.255
 7648POPC   C3B28617  16.809  40.495   7.955
 7648POPC   C4B28618  16.805  40.572   7.655
 7649POPC   NC328619  18.252  13.580   9.455
 7649POPC   PO428620  18.263  13.627   9.155
 7649POPC   GL128621  18.235  13.584   8.855
 7649POPC   GL228622  18.348  13.793   8.855
 7649POPC   C1A28623  18.315  13.623   8.555
 7649POPC   D2A28624  18.267  13.628   8.255
 7649POPC   C3A28625  18.302  13.670   7.955
 7649POPC   C4A28626  18.330  13.584   7.655
 7649POPC   C1B28627  18.352  13.879   8.555
 7649POPC   C2B28628  18.334  13.818   8.255
 7649POPC   C3B28629  18.350  13.836   7.955
 7649POPC   C4B28630  18.371  13.901   7.655
 7650POPC   NC328631   0.463  38.494   9.455
 7650POPC   PO428632   0.420  38.451   9.155
 7650POPC   GL128633   0.448  38.492   8.855
 7650POPC   GL228634   0.486  38.386   8.855
 7650POPC   C1A28635   0.454  38.415   8.555
 7650POPC   D2A28636   0.485  38.459   8.255
 7650POPC   C3A28637   0.483  38.457   7.955
 7650POPC   C4A28638   0.441  38.476   7.655
 7650POPC   C1B28639   0.583  38.284   8.555
 7650POPC   C2B28640   0.587  38.337   8.255
 7650POPC   C3B28641   0.663  38.283   7.955
 7650POPC   C4B28642   0.605  38.302   7.655
 7651POPC   NC328643  39.977   2.023   9.455
 7651POPC   PO428644  39.973   1.977   9.155
 7651POPC   GL128645  40.049   2.033   8.855
 7651POPC   GL228646  39.893   2.080   8.855
 7651POPC   C1A28647  39.985   1.945   8.555
 7651POPC   D2A28648  40.018   1.957   8.255
 7651POPC   C3A28649  40.011   1.972   7.955
 7651POPC   C4A28650  39.968   2.021   7.655
 7651POPC   C1B28651  39.834   2.163   8.555
 7651POPC   C2B28652  39.805   2.183   8.255
 7651POPC   C3B28653  39.895   2.195   7.955
 7651POPC   C4B28654  39.860   2.154   7.655
 7652POPC   NC328655  36.877  12.883   9.455
 7652POPC   PO428656  36.915  12.804   9.155
 7652POPC   GL128657  36.887  12.870   8.855
 7652POPC   GL228658  36.946  12.936   8.855
 7652POPC   C1A28659  36.878  12.841   8.555
 7652POPC   D2A28660  36.888  12.890   8.255
 7652POPC   C3A28661  36.920  12.896   7.955
 7652POPC   C4A28662  36.908  12.852   7.655
 7652POPC   C1B28663  37.002  13.035   8.555
 7652POPC   C2B28664  36.988  13.068   8.255
 7652POPC   C3B28665  37.060  13.050   7.955
 7652POPC   C4B28666  37.015  13.044   7.655
 7653POPC   NC328667   1.195  36.931   9.455
 7653POPC   PO428668   1.168  36.904   9.155
 7653POPC   GL128669   1.246  36.857   8.855
 7653POPC   GL228670   1.155  36.768   8.855
 7653POPC   C1A28671   1.222  36.894   8.555
 7653POPC   D2A28672   1.213  36.912   8.255
 7653POPC   C3A28673   1.184  36.933   7.955
 7653POPC   C4A28674   1.242  36.936   7.655
 7653POPC   C1B28675   1.132  36.703   8.555
 7653POPC   C2B28676   1.177  36.683   8.255
 7653POPC   C3B28677   1.134  36.706   7.955
 7653POPC   C4B28678   1.158  36.612   7.655
 7654POPC   NC328679  21.377  41.575   9.455
 7654POPC   PO428680  21.405  41.589   9.155
 7654POPC   GL128681  21.426  41.552   8.855
 7654POPC   GL228682  21.491  41.603   8.855
 7654POPC   C1A28683  21.386  41.520   8.555
 7654POPC   D2A28684  21.405  41.533   8.255
 7654POPC   C3A28685  21.394  41.609   7.955
 7654POPC   C4A28686  21.394  41.608   7.655
 7654POPC   C1B28687  21.644  41.721   8.555
 7654POPC   C2B28688  21.617  41.653   8.255
 7654POPC   C3B28689  21.617  41.659   7.955
 7654POPC   C4B28690  21.654  41.683   7.655
 7655POPC   NC328691  29.163  23.701   9.455
 7655POPC   PO428692  29.100  23.668   9.155
 7655POPC   GL128693  29.128  23.678   8.855
 7655POPC   GL228694  29.188  23.551   8.855
 7655POPC   C1A28695  29.106  23.692   8.555
 7655POPC   D2A28696  29.139  23.708   8.255
 7655POPC   C3A28697  29.193  23.708   7.955
 7655POPC   C4A28698  29.112  23.666   7.655
 7655POPC   C1B28699  29.226  23.446   8.555
 7655POPC   C2B28700  29.244  23.439   8.255
 7655POPC   C3B28701  29.242  23.468   7.955
 7655POPC   C4B28702  29.191  23.505   7.655
 7656POPC   NC328703  33.051  30.665   9.455
 7656POPC   PO428704  33.026  30.718   9.155
 7656POPC   GL128705  33.023  30.728   8.855
 7656POPC   GL228706  32.911  30.645   8.855
 7656POPC   C1A28707  33.037  30.740   8.555
 7656POPC   D2A28708  32.994  30.651   8.255
 7656POPC   C3A28709  32.997  30.670   7.955
 7656POPC   C4A28710  33.066  30.696   7.655
 7656POPC   C1B28711  32.842  30.493   8.555
 7656POPC   C2B28712  32.798  30.498   8.255
 7656POPC   C3B28713  32.869  30.557   7.955
 7656POPC   C4B28714  32.869  30.526   7.655
 7657POPC   NC328715  33.042   1.949   9.455
 7657POPC   PO428716  33.062   2.033   9.155
 7657POPC   GL128717  33.031   2.022   8.855
 7657POPC   GL228718  32.890   2.022   8.855
 7657POPC   C1A28719  33.015   1.980   8.555
 7657POPC   D2A28720  33.074   1.967   8.255
 7657POPC   C3A28721  33.010   1.970   7.955
 7657POPC   C4A28722  33.028   1.940   7.655
 7657POPC   C1B28723  32.829   2.085   8.555
 7657POPC   C2B28724  32.825   2.039   8.255
 7657POPC   C3B28725  32.838   2.056   7.955
 7657POPC   C4B28726  32.765   2.125   7.655
 7658POPC   NC328727  22.953   5.061   9.455
 7658POPC   PO428728  22.970   5.088   9.155
 7658POPC   GL128729  22.986   5.050   8.855
 7658POPC   GL228730  23.090   5.090   8.855
 7658POPC   C1A28731  22.955   5.054   8.555
 7658POPC   D2A28732  22.935   5.126   8.255
 7658POPC   C3A28733  22.906   5.113   7.955
 7658POPC   C4A28734  22.939   5.045   7.655
 7658POPC   C1B28735  23.218   5.073   8.555
 7658POPC   C2B28736  23.230   5.041   8.255
 7658POPC   C3B28737  23.192   5.058   7.955
 7658POPC   C4B28738  23.212   5.090   7.655
 7659POPC   NC328739   1.982  44.637   9.455
 7659POPC   PO428740   2.019  44.705   9.155
 7659POPC   GL128741   2.027  44.648   8.855
 7659POPC   GL228742   1.970  44.740   8.855
 7659POPC   C1A28743   1.981  44.649   8.555
 7659POPC   D2A28744   1.985  44.708   8.255
 7659POPC   C3A28745   2.035  44.683   7.955
 7659POPC   C4A28746   1.961  44.666   7.655
 7659POPC   C1B28747   2.011  44.910   8.555
 7659POPC   C2B28748   1.983  44.886   8.255
 7659POPC   C3B28749   1.918  44.952   7.955
 7659POPC   C4B28750   1.944  44.913   7.655
 7660POPC   NC328751   3.569   1.256   9.455
 7660POPC   PO428752   3.492   1.243   9.155
 7660POPC   GL128753   3.527   1.249   8.855
 7660POPC   GL228754   3.633   1.122   8.855
 7660POPC   C1A28755   3.588   1.180   8.555
 7660POPC   D2A28756   3.590   1.237   8.255
 7660POPC   C3A28757   3.568   1.191   7.955
 7660POPC   C4A28758   3.558   1.186   7.655
 7660POPC   C1B28759   3.689   1.095   8.555
 7660POPC   C2B28760   3.733   1.099   8.255
 7660POPC   C3B28761   3.752   1.038   7.955
 7660POPC   C4B28762   3.707   1.101   7.655
 7661POPC   NC328763   3.509  16.706   9.455
 7661POPC   PO428764   3.519  16.697   9.155
 7661POPC   GL128765   3.541  16.710   8.855
 7661POPC   GL228766   3.455  16.808   8.855
 7661POPC   C1A28767   3.562  16.756   8.555
 7661POPC   D2A28768   3.526  16.694   8.255
 7661POPC   C3A28769   3.511  16.705   7.955
 7661POPC   C4A28770   3.514  16.706   7.655
 7661POPC   C1B28771   3.363  16.839   8.555
 7661POPC   C2B28772   3.327  16.849   8.255
 7661POPC   C3B28773   3.326  16.922   7.955
 7661POPC   C4B28774   3.376  16.911   7.655
 7662POPC   NC328775  33.778   8.223   9.455
 7662POPC   PO428776  33.840   8.241   9.155
 7662POPC   GL128777  33.769   8.243   8.855
 7662POPC   GL228778  33.919   8.306   8.855
 7662POPC   C1A28779  33.754   8.155   8.555
 7662POPC   D2A28780  33.833   8.197   8.255
 7662POPC   C3A28781  33.771   8.147   7.955
 7662POPC   C4A28782  33.755   8.185   7.655
 7662POPC   C1B28783  33.973   8.414   8.555
 7662POPC   C2B28784  33.932   8.346   8.255
 7662POPC   C3B28785  33.977   8.352   7.955
 7662POPC   C4B28786  34.012   8.393   7.655
 7663POPC   NC328787   0.470   8.997   9.455
 7663POPC   PO428788   0.426   8.930   9.155
 7663POPC   GL128789   0.438   8.931   8.855
 7663POPC   GL228790   0.604   8.998   8.855
 7663POPC   C1A28791   0.425   8.971   8.555
 7663POPC   D2A28792   0.430   8.982   8.255
 7663POPC   C3A28793   0.433   8.924   7.955
 7663POPC   C4A28794   0.402   8.938   7.655
 7663POPC   C1B28795   0.670   9.048   8.555
 7663POPC   C2B28796   0.692   8.995   8.255
 7663POPC   C3B28797   0.642   9.065   7.955
 7663POPC   C4B28798   0.635   9.023   7.655
 7664POPC   NC328799   6.685  18.323   9.455
 7664POPC   PO428800   6.674  18.252   9.155
 7664POPC   GL128801   6.648  18.289   8.855
 7664POPC   GL228802   6.727  18.259   8.855
 7664POPC   C1A28803   6.677  18.301   8.555
 7664POPC   D2A28804   6.651  18.241   8.255
 7664POPC   C3A28805   6.606  18.294   7.955
 7664POPC   C4A28806   6.642  18.332   7.655
 7664POPC   C1B28807   6.848  18.318   8.555
 7664POPC   C2B28808   6.908  18.315   8.255
 7664POPC   C3B28809   6.893  18.244   7.955
 7664POPC   C4B28810   6.935  18.271   7.655
 7665POPC   NC328811  37.711  27.561   9.455
 7665POPC   PO428812  37.727  27.619   9.155
 7665POPC   GL128813  37.669  27.560   8.855
 7665POPC   GL228814  37.826  27.719   8.855
 7665POPC   C1A28815  37.676  27.597   8.555
 7665POPC   D2A28816  37.666  27.586   8.255
 7665POPC   C3A28817  37.639  27.595   7.955
 7665POPC   C4A28818  37.705  27.556   7.655
 7665POPC   C1B28819  37.854  27.776   8.555
 7665POPC   C2B28820  37.916  27.778   8.255
 7665POPC   C3B28821  37.853  27.743   7.955
 7665POPC   C4B28822  37.870  27.740   7.655
 7666POPC   NC328823   8.967  22.925   9.455
 7666POPC   PO428824   9.003  22.925   9.155
 7666POPC   GL128825   8.941  22.914   8.855
 7666POPC   GL228826   9.015  22.829   8.855
 7666POPC   C1A28827   9.015  22.953   8.555
 7666POPC   D2A28828   8.924  22.915   8.255
 7666POPC   C3A28829   8.941  22.926   7.955
 7666POPC   C4A28830   8.997  22.906   7.655
 7666POPC   C1B28831   9.012  22.718   8.555
 7666POPC   C2B28832   9.054  22.677   8.255
 7666POPC   C3B28833   9.080  22.682   7.955
 7666POPC   C4B28834   9.078  22.680   7.655
 7667POPC   NC328835  26.859   1.966   9.455
 7667POPC   PO428836  26.798   2.030   9.155
 7667POPC   GL128837  26.860   1.992   8.855
 7667POPC   GL228838  26.753   1.901   8.855
 7667POPC   C1A28839  26.822   1.961   8.555
 7667POPC   D2A28840  26.840   2.005   8.255
 7667POPC   C3A28841  26.835   2.002   7.955
 7667POPC   C4A28842  26.773   1.950   7.655
 7667POPC   C1B28843  26.698   1.789   8.555
 7667POPC   C2B28844  26.694   1.770   8.255
 7667POPC   C3B28845  26.640   1.809   7.955
 7667POPC   C4B28846  26.646   1.797   7.655
 7668POPC   NC328847  25.224  32.227   9.455
 7668POPC   PO428848  25.247  32.230   9.155
 7668POPC   GL128849  25.240  32.201   8.855
 7668POPC   GL228850  25.271  32.103   8.855
 7668POPC   C1A28851  25.315  32.201   8.555
 7668POPC   D2A28852  25.297  32.264   8.255
 7668POPC   C3A28853  25.308  32.280   7.955
 7668POPC   C4A28854  25.244  32.279   7.655
 7668POPC   C1B28855  25.301  31.994   8.555
 7668POPC   C2B28856  25.227  31.975   8.255
 7668POPC   C3B28857  25.284  31.958   7.955
 7668POPC   C4B28858  25.249  31.958   7.655
 7669POPC   NC328859  34.533  29.950   9.455
 7669POPC   PO428860  34.568  29.967   9.155
 7669POPC   GL128861  34.598  29.878   8.855
 7669POPC   GL228862  34.581  30.081   8.855
 7669POPC   C1A28863  34.531  29.934   8.555
 7669POPC   D2A28864  34.572  29.960   8.255
 7669POPC   C3A28865  34.588  29.894   7.955
 7669POPC   C4A28866  34.625  29.871   7.655
 7669POPC   C1B28867  34.607  30.151   8.555
 7669POPC   C2B28868  34.641  30.109   8.255
 7669POPC   C3B28869  34.684  30.150   7.955
 7669POPC   C4B28870  34.668  30.153   7.655
 7670POPC   NC328871   2.780   3.558   9.455
 7670POPC   PO428872   2.794   3.589   9.155
 7670POPC   GL128873   2.797   3.522   8.855
 7670POPC   GL228874   2.876   3.434   8.855
 7670POPC   C1A28875   2.744   3.559   8.555
 7670POPC   D2A28876   2.748   3.532   8.255
 7670POPC   C3A28877   2.784   3.492   7.955
 7670POPC   C4A28878   2.814   3.491   7.655
 7670POPC   C1B28879   2.925   3.421   8.555
 7670POPC   C2B28880   3.014   3.406   8.255
 7670POPC   C3B28881   2.931   3.367   7.955
 7670POPC   C4B28882   2.954   3.380   7.655
 7671POPC   NC328883  17.516  36.883   9.455
 7671POPC   PO428884  17.460  36.901   9.155
 7671POPC   GL128885  17.538  36.881   8.855
 7671POPC   GL228886  17.664  36.910   8.855
 7671POPC   C1A28887  17.459  36.939   8.555
 7671POPC   D2A28888  17.467  36.936   8.255
 7671POPC   C3A28889  17.459  36.865   7.955
 7671POPC   C4A28890  17.503  36.921   7.655
 7671POPC   C1B28891  17.738  36.958   8.555
 7671POPC   C2B28892  17.727  36.942   8.255
 7671POPC   C3B28893  17.779  36.940   7.955
 7671POPC   C4B28894  17.761  36.870   7.655
 7672POPC   NC328895   4.343  39.958   9.455
 7672POPC   PO428896   4.354  40.044   9.155
 7672POPC   GL128897   4.273  40.013   8.855
 7672POPC   GL228898   4.403  39.880   8.855
 7672POPC   C1A28899   4.328  40.035   8.555
 7672POPC   D2A28900   4.295  40.007   8.255
 7672POPC   C3A28901   4.297  40.045   7.955
 7672POPC   C4A28902   4.339  39.976   7.655
 7672POPC   C1B28903   4.401  39.742   8.555
 7672POPC   C2B28904   4.407  39.810   8.255
 7672POPC   C3B28905   4.459  39.754   7.955
 7672POPC   C4B28906   4.365  39.809   7.655
 7673POPC   NC328907  33.827  17.498   9.455
 7673POPC   PO428908  33.756  17.528   9.155
 7673POPC   GL128909  33.765  17.531   8.855
 7673POPC   GL228910  33.880  17.477   8.855
 7673POPC   C1A28911  33.769  17.495   8.555
 7673POPC   D2A28912  33.782  17.491   8.255
 7673POPC   C3A28913  33.783  17.555   7.955
 7673POPC   C4A28914  33.809  17.466   7.655
 7673POPC   C1B28915  34.003  17.530   8.555
 7673POPC   C2B28916  34.041  17.445   8.255
 7673POPC   C3B28917  34.022  17.440   7.955
 7673POPC   C4B28918  34.048  17.500   7.655
 7674POPC   NC328919  14.366  17.509   9.455
 7674POPC   PO428920  14.421  17.476   9.155
 7674POPC   GL128921  14.400  17.553   8.855
 7674POPC   GL228922  14.358  17.442   8.855
 7674POPC   C1A28923  14.439  17.506   8.555
 7674POPC   D2A28924  14.422  17.547   8.255
 7674POPC   C3A28925  14.437  17.476   7.955
 7674POPC   C4A28926  14.431  17.548   7.655
 7674POPC   C1B28927  14.267  17.347   8.555
 7674POPC   C2B28928  14.253  17.322   8.255
 7674POPC   C3B28929  14.176  17.298   7.955
 7674POPC   C4B28930  14.253  17.297   7.655
 7675POPC   NC328931  34.582   5.086   9.455
 7675POPC   PO428932  34.547   5.061   9.155
 7675POPC   GL128933  34.604   5.045   8.855
 7675POPC   GL228934  34.695   5.133   8.855
 7675POPC   C1A28935  34.539   5.072   8.555
 7675POPC   D2A28936  34.564   5.045   8.255
 7675POPC   C3A28937  34.623   5.106   7.955
 7675POPC   C4A28938  34.611   5.100   7.655
 7675POPC   C1B28939  34.827   5.135   8.555
 7675POPC   C2B28940  34.825   5.138   8.255
 7675POPC   C3B28941  34.781   5.188   7.955
 7675POPC   C4B28942  34.805   5.115   7.655
 7676POPC   NC328943   1.245  39.976   9.455
 7676POPC   PO428944   1.239  40.040   9.155
 7676POPC   GL128945   1.210  39.977   8.855
 7676POPC   GL228946   1.308  39.995   8.855
 7676POPC   C1A28947   1.216  39.985   8.555
 7676POPC   D2A28948   1.170  40.016   8.255
 7676POPC   C3A28949   1.184  39.970   7.955
 7676POPC   C4A28950   1.232  40.043   7.655
 7676POPC   C1B28951   1.422  40.003   8.555
 7676POPC   C2B28952   1.464  40.048   8.255
 7676POPC   C3B28953   1.441  40.074   7.955
 7676POPC   C4B28954   1.496  40.039   7.655
 7677POPC   NC328955   1.200  43.839   9.455
 7677POPC   PO428956   1.199  43.870   9.155
 7677POPC   GL128957   1.176  43.863   8.855
 7677POPC   GL228958   1.350  43.804   8.855
 7677POPC   C1A28959   1.187  43.916   8.555
 7677POPC   D2A28960   1.187  43.840   8.255
 7677POPC   C3A28961   1.196  43.861   7.955
 7677POPC   C4A28962   1.177  43.866   7.655
 7677POPC   C1B28963   1.487  43.839   8.555
 7677POPC   C2B28964   1.502  43.861   8.255
 7677POPC   C3B28965   1.477  43.815   7.955
 7677POPC   C4B28966   1.450  43.770   7.655
 7678POPC   NC328967   7.407  18.271   9.455
 7678POPC   PO428968   7.442  18.314   9.155
 7678POPC   GL128969   7.423  18.253   8.855
 7678POPC   GL228970   7.507  18.348   8.855
 7678POPC   C1A28971   7.384  18.273   8.555
 7678POPC   D2A28972   7.454  18.320   8.255
 7678POPC   C3A28973   7.430  18.320   7.955
 7678POPC   C4A28974   7.374  18.233   7.655
 7678POPC   C1B28975   7.540  18.433   8.555
 7678POPC   C2B28976   7.619  18.488   8.255
 7678POPC   C3B28977   7.552  18.515   7.955
 7678POPC   C4B28978   7.558  18.496   7.655
 7679POPC   NC328979   9.019  20.609   9.455
 7679POPC   PO428980   8.953  20.642   9.155
 7679POPC   GL128981   8.991  20.566   8.855
 7679POPC   GL228982   8.855  20.539   8.855
 7679POPC   C1A28983   8.948  20.589   8.555
 7679POPC   D2A28984   8.962  20.641   8.255
 7679POPC   C3A28985   8.932  20.656   7.955
 7679POPC   C4A28986   9.001  20.580   7.655
 7679POPC   C1B28987   8.724  20.510   8.555
 7679POPC   C2B28988   8.701  20.537   8.255
 7679POPC   C3B28989   8.759  20.540   7.955
 7679POPC   C4B28990   8.683  20.525   7.655
 7680POPC   NC328991  33.813  26.057   9.455
 7680POPC   PO428992  33.841  26.038   9.155
 7680POPC   GL128993  33.807  26.084   8.855
 7680POPC   GL228994  33.691  26.026   8.855
 7680POPC   C1A28995  33.773  26.090   8.555
 7680POPC   D2A28996  33.846  26.056   8.255
 7680POPC   C3A28997  33.842  26.083   7.955
 7680POPC   C4A28998  33.779  26.077   7.655
 7680POPC   C1B28999  33.529  25.978   8.555
 7680POPC   C2B29000  33.508  26.016   8.255
 7680POPC   C3B29001  33.568  26.051   7.955
 7680POPC   C4B29002  33.573  26.045   7.655
 7681POPC   NC329003  37.651   2.750   9.455
 7681POPC   PO429004  37.682   2.794   9.155
 7681POPC   GL129005  37.680   2.780   8.855
 7681POPC   GL229006  37.522   2.813   8.855
 7681POPC   C1A29007  37.717   2.793   8.555
 7681POPC   D2A29008  37.673   2.759   8.255
 7681POPC   C3A29009  37.649   2.805   7.955
 7681POPC   C4A29010  37.634   2.794   7.655
 7681POPC   C1B29011  37.391   2.760   8.555
 7681POPC   C2B29012  37.452   2.824   8.255
 7681POPC   C3B29013  37.467   2.771   7.955
 7681POPC   C4B29014  37.416   2.799   7.655
 7682POPC   NC329015  20.613  10.478   9.455
 7682POPC   PO429016  20.568  10.490   9.155
 7682POPC   GL129017  20.578  10.574   8.855
 7682POPC   GL229018  20.729  10.456   8.855
 7682POPC   C1A29019  20.616  10.524   8.555
 7682POPC   D2A29020  20.561  10.549   8.255
 7682POPC   C3A29021  20.625  10.556   7.955
 7682POPC   C4A29022  20.593  10.549   7.655
 7682POPC   C1B29023  20.765  10.340   8.555
 7682POPC   C2B29024  20.770  10.357   8.255
 7682POPC   C3B29025  20.787  10.354   7.955
 7682POPC   C4B29026  20.800  10.290   7.655
 7683POPC   NC329027  32.293  22.933   9.455
 7683POPC   PO429028  32.261  22.981   9.155
 7683POPC   GL129029  32.257  22.923   8.855
 7683POPC   GL229030  32.284  22.869   8.855
 7683POPC   C1A29031  32.250  22.893   8.555
 7683POPC   D2A29032  32.201  22.948   8.255
 7683POPC   C3A29033  32.213  22.937   7.955
 7683POPC   C4A29034  32.268  22.924   7.655
 7683POPC   C1B29035  32.335  22.704   8.555
 7683POPC   C2B29036  32.331  22.706   8.255
 7683POPC   C3B29037  32.361  22.710   7.955
 7683POPC   C4B29038  32.301  22.756   7.655
 7684POPC   NC329039  37.648  44.631   9.455
 7684POPC   PO429040  37.714  44.631   9.155
 7684POPC   GL129041  37.729  44.698   8.855
 7684POPC   GL229042  37.558  44.591   8.855
 7684POPC   C1A29043  37.660  44.625   8.555
 7684POPC   D2A29044  37.708  44.661   8.255
 7684POPC   C3A29045  37.711  44.618   7.955
 7684POPC   C4A29046  37.677  44.668   7.655
 7684POPC   C1B29047  37.445  44.543   8.555
 7684POPC   C2B29048  37.475  44.555   8.255
 7684POPC   C3B29049  37.451  44.560   7.955
 7684POPC   C4B29050  37.424  44.578   7.655
 7685POPC   NC329051  10.489  20.631   9.455
 7685POPC   PO429052  10.560  20.581   9.155
 7685POPC   GL129053  10.550  20.573   8.855
 7685POPC   GL229054  10.533  20.747   8.855
 7685POPC   C1A29055  10.556  20.614   8.555
 7685POPC   D2A29056  10.542  20.655   8.255
 7685POPC   C3A29057  10.480  20.614   7.955
 7685POPC   C4A29058  10.475  20.598   7.655
 7685POPC   C1B29059  10.590  20.827   8.555
 7685POPC   C2B29060  10.582  20.831   8.255
 7685POPC   C3B29061  10.647  20.837   7.955
 7685POPC   C4B29062  10.645  20.872   7.655
 7686POPC   NC329063  43.856   9.714   9.455
 7686POPC   PO429064  43.887   9.726   9.155
 7686POPC   GL129065  43.935   9.751   8.855
 7686POPC   GL229066  43.850   9.841   8.855
 7686POPC   C1A29067  43.874   9.711   8.555
 7686POPC   D2A29068  43.837   9.768   8.255
 7686POPC   C3A29069  43.878   9.701   7.955
 7686POPC   C4A29070  43.911   9.754   7.655
 7686POPC   C1B29071  43.836   9.990   8.555
 7686POPC   C2B29072  43.846  10.041   8.255
 7686POPC   C3B29073  43.856   9.965   7.955
 7686POPC   C4B29074  43.887   9.991   7.655
 7687POPC   NC329075   9.762  33.005   9.455
 7687POPC   PO429076   9.718  33.051   9.155
 7687POPC   GL129077   9.713  33.067   8.855
 7687POPC   GL229078   9.579  33.033   8.855
 7687POPC   C1A29079   9.746  33.034   8.555
 7687POPC   D2A29080   9.768  32.995   8.255
 7687POPC   C3A29081   9.737  32.975   7.955
 7687POPC   C4A29082   9.723  33.014   7.655
 7687POPC   C1B29083   9.532  33.119   8.555
 7687POPC   C2B29084   9.462  33.048   8.255
 7687POPC   C3B29085   9.474  33.032   7.955
 7687POPC   C4B29086   9.484  33.065   7.655
 7688POPC   NC329087   4.292  30.696   9.455
 7688POPC   PO429088   4.354  30.674   9.155
 7688POPC   GL129089   4.342  30.656   8.855
 7688POPC   GL229090   4.302  30.838   8.855
 7688POPC   C1A29091   4.275  30.678   8.555
 7688POPC   D2A29092   4.345  30.698   8.255
 7688POPC   C3A29093   4.268  30.706   7.955
 7688POPC   C4A29094   4.323  30.693   7.655
 7688POPC   C1B29095   4.275  30.980   8.555
 7688POPC   C2B29096   4.305  30.957   8.255
 7688POPC   C3B29097   4.343  30.971   7.955
 7688POPC   C4B29098   4.336  30.959   7.655
 7689POPC   NC329099   9.770   0.485   9.455
 7689POPC   PO429100   9.745   0.439   9.155
 7689POPC   GL129101   9.724   0.403   8.855
 7689POPC   GL229102   9.705   0.287   8.855
 7689POPC   C1A29103   9.763   0.389   8.555
 7689POPC   D2A29104   9.779   0.395   8.255
 7689POPC   C3A29105   9.751   0.430   7.955
 7689POPC   C4A29106   9.716   0.467   7.655
 7689POPC   C1B29107   9.753   0.159   8.555
 7689POPC   C2B29108   9.765   0.234   8.255
 7689POPC   C3B29109   9.771   0.162   7.955
 7689POPC   C4B29110   9.691   0.162   7.655
 7690POPC   NC329111  31.434   6.626   9.455
 7690POPC   PO429112  31.522   6.654   9.155
 7690POPC   GL129113  31.457   6.684   8.855
 7690POPC   GL229114  31.510   6.749   8.855
 7690POPC   C1A29115  31.473   6.595   8.555
 7690POPC   D2A29116  31.443   6.629   8.255
 7690POPC   C3A29117  31.474   6.615   7.955
 7690POPC   C4A29118  31.514   6.684   7.655
 7690POPC   C1B29119  31.559   6.906   8.555
 7690POPC   C2B29120  31.539   6.856   8.255
 7690POPC   C3B29121  31.515   6.848   7.955
 7690POPC   C4B29122  31.549   6.910   7.655
 7691POPC   NC329123   2.006  26.040   9.455
 7691POPC   PO429124   2.027  26.070   9.155
 7691POPC   GL129125   2.000  26.084   8.855
 7691POPC   GL229126   2.019  26.122   8.855
 7691POPC   C1A29127   1.980  26.014   8.555
 7691POPC   D2A29128   2.028  25.998   8.255
 7691POPC   C3A29129   1.984  26.010   7.955
 7691POPC   C4A29130   2.032  26.082   7.655
 7691POPC   C1B29131   2.075  26.250   8.555
 7691POPC   C2B29132   2.060  26.305   8.255
 7691POPC   C3B29133   2.078  26.307   7.955
 7691POPC   C4B29134   1.998  26.295   7.655
 7692POPC   NC329135  15.920   3.566   9.455
 7692POPC   PO429136  15.916   3.574   9.155
 7692POPC   GL129137  15.935   3.544   8.855
 7692POPC   GL229138  16.066   3.492   8.855
 7692POPC   C1A29139  15.987   3.573   8.555
 7692POPC   D2A29140  15.947   3.541   8.255
 7692POPC   C3A29141  15.970   3.500   7.955
 7692POPC   C4A29142  15.957   3.530   7.655
 7692POPC   C1B29143  16.225   3.423   8.555
 7692POPC   C2B29144  16.178   3.462   8.255
 7692POPC   C3B29145  16.199   3.457   7.955
 7692POPC   C4B29146  16.233   3.484   7.655
 7693POPC   NC329147  39.963  41.568   9.455
 7693POPC   PO429148  40.051  41.527   9.155
 7693POPC   GL129149  39.975  41.605   8.855
 7693POPC   GL229150  39.969  41.480   8.855
 7693POPC   C1A29151  40.048  41.539   8.555
 7693POPC   D2A29152  40.030  41.512   8.255
 7693POPC   C3A29153  39.989  41.563   7.955
 7693POPC   C4A29154  40.020  41.578   7.655
 7693POPC   C1B29155  39.916  41.368   8.555
 7693POPC   C2B29156  39.933  41.382   8.255
 7693POPC   C3B29157  39.944  41.347   7.955
 7693POPC   C4B29158  39.930  41.316   7.655
 7694POPC   NC329159  12.060  36.115   9.455
 7694POPC   PO429160  12.029  36.168   9.155
 7694POPC   GL129161  12.103  36.152   8.855
 7694POPC   GL229162  12.033  36.005   8.855
 7694POPC   C1A29163  12.124  36.153   8.555
 7694POPC   D2A29164  12.083  36.151   8.255
 7694POPC   C3A29165  12.111  36.170   7.955
 7694POPC   C4A29166  12.111  36.101   7.655
 7694POPC   C1B29167  11.943  35.904   8.555
 7694POPC   C2B29168  11.925  35.921   8.255
 7694POPC   C3B29169  12.001  35.957   7.955
 7694POPC   C4B29170  11.958  35.902   7.655
 7695POPC   NC329171   3.541  36.157   9.455
 7695POPC   PO429172   3.509  36.152   9.155
 7695POPC   GL129173   3.564  36.132   8.855
 7695POPC   GL229174   3.673  36.225   8.855
 7695POPC   C1A29175   3.537  36.119   8.555
 7695POPC   D2A29176   3.499  36.128   8.255
 7695POPC   C3A29177   3.588  36.092   7.955
 7695POPC   C4A29178   3.574  36.163   7.655
 7695POPC   C1B29179   3.681  36.309   8.555
 7695POPC   C2B29180   3.714  36.358   8.255
 7695POPC   C3B29181   3.740  36.324   7.955
 7695POPC   C4B29182   3.728  36.310   7.655
 7696POPC   NC329183  42.377   6.632   9.455
 7696POPC   PO429184  42.355   6.609   9.155
 7696POPC   GL129185  42.287   6.662   8.855
 7696POPC   GL229186  42.486   6.740   8.855
 7696POPC   C1A29187  42.356   6.667   8.555
 7696POPC   D2A29188  42.360   6.638   8.255
 7696POPC   C3A29189  42.373   6.669   7.955
 7696POPC   C4A29190  42.372   6.648   7.655
 7696POPC   C1B29191  42.510   6.782   8.555
 7696POPC   C2B29192  42.552   6.749   8.255
 7696POPC   C3B29193  42.518   6.715   7.955
 7696POPC   C4B29194  42.608   6.709   7.655
 7697POPC   NC329195   3.579  26.066   9.455
 7697POPC   PO429196   3.532  26.048   9.155
 7697POPC   GL129197   3.559  26.010   8.855
 7697POPC   GL229198   3.532  25.922   8.855
 7697POPC   C1A29199   3.493  26.006   8.555
 7697POPC   D2A29200   3.536  26.051   8.255
 7697POPC   C3A29201   3.562  26.071   7.955
 7697POPC   C4A29202   3.580  26.072   7.655
 7697POPC   C1B29203   3.512  25.824   8.555
 7697POPC   C2B29204   3.581  25.755   8.255
 7697POPC   C3B29205   3.531  25.757   7.955
 7697POPC   C4B29206   3.583  25.780   7.655
 7698POPC   NC329207  33.016  31.434   9.455
 7698POPC   PO429208  32.976  31.452   9.155
 7698POPC   GL129209  33.040  31.471   8.855
 7698POPC   GL229210  33.057  31.605   8.855
 7698POPC   C1A29211  33.038  31.521   8.555
 7698POPC   D2A29212  32.993  31.427   8.255
 7698POPC   C3A29213  33.037  31.505   7.955
 7698POPC   C4A29214  33.009  31.469   7.655
 7698POPC   C1B29215  33.142  31.714   8.555
 7698POPC   C2B29216  33.107  31.676   8.255
 7698POPC   C3B29217  33.200  31.679   7.955
 7698POPC   C4B29218  33.162  31.698   7.655
 7699POPC   NC329219   5.136  21.352   9.455
 7699POPC   PO429220   5.063  21.409   9.155
 7699POPC   GL129221   5.103  21.416   8.855
 7699POPC   GL229222   5.068  21.544   8.855
 7699POPC   C1A29223   5.065  21.377   8.555
 7699POPC   D2A29224   5.049  21.412   8.255
 7699POPC   C3A29225   5.076  21.418   7.955
 7699POPC   C4A29226   5.131  21.436   7.655
 7699POPC   C1B29227   5.060  21.663   8.555
 7699POPC   C2B29228   5.055  21.604   8.255
 7699POPC   C3B29229   5.116  21.587   7.955
 7699POPC   C4B29230   5.075  21.609   7.655
 7700POPC   NC329231   7.380  19.017   9.455
 7700POPC   PO429232   7.420  19.063   9.155
 7700POPC   GL129233   7.390  19.027   8.855
 7700POPC   GL229234   7.264  19.003   8.855
 7700POPC   C1A29235   7.426  19.027   8.555
 7700POPC   D2A29236   7.454  19.060   8.255
 7700POPC   C3A29237   7.393  19.029   7.955
 7700POPC   C4A29238   7.456  19.020   7.655
 7700POPC   C1B29239   7.146  19.024   8.555
 7700POPC   C2B29240   7.172  18.967   8.255
 7700POPC   C3B29241   7.191  19.037   7.955
 7700POPC   C4B29242   7.155  19.064   7.655
 7701POPC   NC329243  20.659  26.041   9.455
 7701POPC   PO429244  20.610  26.043   9.155
 7701POPC   GL129245  20.596  26.051   8.855
 7701POPC   GL229246  20.671  25.969   8.855
 7701POPC   C1A29247  20.604  26.013   8.555
 7701POPC   D2A29248  20.654  26.077   8.255
 7701POPC   C3A29249  20.645  26.054   7.955
 7701POPC   C4A29250  20.658  26.010   7.655
 7701POPC   C1B29251  20.746  25.835   8.555
 7701POPC   C2B29252  20.741  25.870   8.255
 7701POPC   C3B29253  20.790  25.880   7.955
 7701POPC   C4B29254  20.817  25.883   7.655
 7702POPC   NC329255   7.389  37.631   9.455
 7702POPC   PO429256   7.387  37.633   9.155
 7702POPC   GL129257   7.425  37.718   8.855
 7702POPC   GL229258   7.385  37.509   8.855
 7702POPC   C1A29259   7.417  37.677   8.555
 7702POPC   D2A29260   7.442  37.707   8.255
 7702POPC   C3A29261   7.404  37.691   7.955
 7702POPC   C4A29262   7.431  37.721   7.655
 7702POPC   C1B29263   7.474  37.451   8.555
 7702POPC   C2B29264   7.420  37.426   8.255
 7702POPC   C3B29265   7.437  37.443   7.955
 7702POPC   C4B29266   7.461  37.450   7.655
 7703POPC   NC329267  40.795   8.967   9.455
 7703POPC   PO429268  40.811   8.987   9.155
 7703POPC   GL129269  40.798   8.953   8.855
 7703POPC   GL229270  40.873   9.029   8.855
 7703POPC   C1A29271  40.765   8.998   8.555
 7703POPC   D2A29272  40.759   9.012   8.255
 7703POPC   C3A29273  40.734   8.992   7.955
 7703POPC   C4A29274  40.765   8.960   7.655
 7703POPC   C1B29275  40.910   9.168   8.555
 7703POPC   C2B29276  40.998   9.183   8.255
 7703POPC   C3B29277  40.926   9.112   7.955
 7703POPC   C4B29278  40.968   9.100   7.655
 7704POPC   NC329279  24.502  33.765   9.455
 7704POPC   PO429280  24.513  33.755   9.155
 7704POPC   GL129281  24.460  33.778   8.855
 7704POPC   GL229282  24.329  33.785   8.855
 7704POPC   C1A29283  24.535  33.850   8.555
 7704POPC   D2A29284  24.488  33.755   8.255
 7704POPC   C3A29285  24.522  33.758   7.955
 7704POPC   C4A29286  24.536  33.797   7.655
 7704POPC   C1B29287  24.252  33.779   8.555
 7704POPC   C2B29288  24.263  33.777   8.255
 7704POPC   C3B29289  24.270  33.818   7.955
 7704POPC   C4B29290  24.259  33.744   7.655
 7705POPC   NC329291  40.799  21.340   9.455
 7705POPC   PO429292  40.763  21.344   9.155
 7705POPC   GL129293  40.833  21.388   8.855
 7705POPC   GL229294  40.914  21.439   8.855
 7705POPC   C1A29295  40.789  21.410   8.555
 7705POPC   D2A29296  40.799  21.383   8.255
 7705POPC   C3A29297  40.763  21.340   7.955
 7705POPC   C4A29298  40.762  21.420   7.655
 7705POPC   C1B29299  41.022  21.376   8.555
 7705POPC   C2B29300  41.045  21.397   8.255
 7705POPC   C3B29301  41.035  21.454   7.955
 7705POPC   C4B29302  41.066  21.384   7.655
 7706POPC   NC329303   1.955  22.932   9.455
 7706POPC   PO429304   1.974  22.888   9.155
 7706POPC   GL129305   2.010  22.985   8.855
 7706POPC   GL229306   2.135  22.877   8.855
 7706POPC   C1A29307   1.972  22.972   8.555
 7706POPC   D2A29308   2.000  22.918   8.255
 7706POPC   C3A29309   2.026  22.895   7.955
 7706POPC   C4A29310   1.982  22.987   7.655
 7706POPC   C1B29311   2.146  22.784   8.555
 7706POPC   C2B29312   2.223  22.830   8.255
 7706POPC   C3B29313   2.225  22.801   7.955
 7706POPC   C4B29314   2.183  22.781   7.655
 7707POPC   NC329315  40.051  11.282   9.455
 7707POPC   PO429316  40.014  11.268   9.155
 7707POPC   GL129317  40.036  11.295   8.855
 7707POPC   GL229318  39.955  11.403   8.855
 7707POPC   C1A29319  39.969  11.318   8.555
 7707POPC   D2A29320  40.006  11.265   8.255
 7707POPC   C3A29321  40.020  11.308   7.955
 7707POPC   C4A29322  40.027  11.258   7.655
 7707POPC   C1B29323  39.868  11.536   8.555
 7707POPC   C2B29324  39.845  11.506   8.255
 7707POPC   C3B29325  39.922  11.471   7.955
 7707POPC   C4B29326  39.920  11.472   7.655
 7708POPC   NC329327  40.804  17.511   9.455
 7708POPC   PO429328  40.777  17.503   9.155
 7708POPC   GL129329  40.739  17.468   8.855
 7708POPC   GL229330  40.768  17.369   8.855
 7708POPC   C1A29331  40.768  17.515   8.555
 7708POPC   D2A29332  40.805  17.555   8.255
 7708POPC   C3A29333  40.760  17.542   7.955
 7708POPC   C4A29334  40.734  17.550   7.655
 7708POPC   C1B29335  40.832  17.221   8.555
 7708POPC   C2B29336  40.796  17.219   8.255
 7708POPC   C3B29337  40.858  17.285   7.955
 7708POPC   C4B29338  40.765  17.220   7.655
 7709POPC   NC329339  34.576   4.330   9.455
 7709POPC   PO429340  34.528   4.326   9.155
 7709POPC   GL129341  34.600   4.287   8.855
 7709POPC   GL229342  34.450   4.441   8.855
 7709POPC   C1A29343  34.599   4.351   8.555
 7709POPC   D2A29344  34.586   4.337   8.255
 7709POPC   C3A29345  34.607   4.365   7.955
 7709POPC   C4A29346  34.543   4.319   7.655
 7709POPC   C1B29347  34.391   4.501   8.555
 7709POPC   C2B29348  34.473   4.496   8.255
 7709POPC   C3B29349  34.421   4.486   7.955
 7709POPC   C4B29350  34.468   4.497   7.655
 7710POPC   NC329351  30.691  29.947   9.455
 7710POPC   PO429352  30.703  29.925   9.155
 7710POPC   GL129353  30.716  29.873   8.855
 7710POPC   GL229354  30.743  29.791   8.855
 7710POPC   C1A29355  30.681  29.935   8.555
 7710POPC   D2A29356  30.654  29.948   8.255
 7710POPC   C3A29357  30.689  29.955   7.955
 7710POPC   C4A29358  30.739  29.939   7.655
 7710POPC   C1B29359  30.785  29.654   8.555
 7710POPC   C2B29360  30.738  29.680   8.255
 7710POPC   C3B29361  30.701  29.717   7.955
 7710POPC   C4B29362  30.778  29.635   7.655
 7711POPC   NC329363  28.418  22.198   9.455
 7711POPC   PO429364  28.410  22.116   9.155
 7711POPC   GL129365  28.398  22.128   8.855
 7711POPC   GL229366  28.374  22.074   8.855
 7711POPC   C1A29367  28.381  22.132   8.555
 7711POPC   D2A29368  28.330  22.200   8.255
 7711POPC   C3A29369  28.343  22.200   7.955
 7711POPC   C4A29370  28.335  22.136   7.655
 7711POPC   C1B29371  28.330  21.870   8.555
 7711POPC   C2B29372  28.309  21.956   8.255
 7711POPC   C3B29373  28.299  21.887   7.955
 7711POPC   C4B29374  28.312  21.950   7.655
 7712POPC   NC329375  17.477  23.685   9.455
 7712POPC   PO429376  17.501  23.725   9.155
 7712POPC   GL129377  17.552  23.715   8.855
 7712POPC   GL229378  17.629  23.601   8.855
 7712POPC   C1A29379  17.537  23.720   8.555
 7712POPC   D2A29380  17.485  23.722   8.255
 7712POPC   C3A29381  17.542  23.738   7.955
 7712POPC   C4A29382  17.516  23.674   7.655
 7712POPC   C1B29383  17.673  23.536   8.555
 7712POPC   C2B29384  17.681  23.582   8.255
 7712POPC   C3B29385  17.739  23.540   7.955
 7712POPC   C4B29386  17.747  23.521   7.655
 7713POPC   NC329387  18.266   5.049   9.455
 7713POPC   PO429388  18.282   5.051   9.155
 7713POPC   GL129389  18.311   5.111   8.855
 7713POPC   GL229390  18.369   5.073   8.855
 7713POPC   C1A29391  18.250   5.107   8.555
 7713POPC   D2A29392  18.269   5.111   8.255
 7713POPC   C3A29393  18.287   5.076   7.955
 7713POPC   C4A29394  18.323   5.073   7.655
 7713POPC   C1B29395  18.514   5.160   8.555
 7713POPC   C2B29396  18.566   5.098   8.255
 7713POPC   C3B29397  18.551   5.103   7.955
 7713POPC   C4B29398  18.529   5.156   7.655
 7714POPC   NC329399  20.624  36.137   9.455
 7714POPC   PO429400  20.630  36.176   9.155
 7714POPC   GL129401  20.620  36.088   8.855
 7714POPC   GL229402  20.544  35.991   8.855
 7714POPC   C1A29403  20.580  36.114   8.555
 7714POPC   D2A29404  20.582  36.139   8.255
 7714POPC   C3A29405  20.574  36.104   7.955
 7714POPC   C4A29406  20.638  36.168   7.655
 7714POPC   C1B29407  20.476  35.938   8.555
 7714POPC   C2B29408  20.419  35.904   8.255
 7714POPC   C3B29409  20.458  35.973   7.955
 7714POPC   C4B29410  20.468  35.937   7.655
 7715POPC   NC329411  41.511   2.008   9.455
 7715POPC   PO429412  41.518   2.002   9.155
 7715POPC   GL129413  41.583   2.021   8.855
 7715POPC   GL229414  41.483   2.006   8.855
 7715POPC   C1A29415  41.527   1.971   8.555
 7715POPC   D2A29416  41.511   2.032   8.255
 7715POPC   C3A29417  41.518   1.962   7.955
 7715POPC   C4A29418  41.528   2.039   7.655
 7715POPC   C1B29419  41.336   2.086   8.555
 7715POPC   C2B29420  41.303   2.059   8.255
 7715POPC   C3B29421  41.317   2.052   7.955
 7715POPC   C4B29422  41.308   2.112   7.655
 7716POPC   NC329423  37.708   5.869   9.455
 7716POPC   PO429424  37.683   5.892   9.155
 7716POPC   GL129425  37.687   5.858   8.855
 7716POPC   GL229426  37.506   5.872   8.855
 7716POPC   C1A29427  37.681   5.898   8.555
 7716POPC   D2A29428  37.717   5.881   8.255
 7716POPC   C3A29429  37.709   5.914   7.955
 7716POPC   C4A29430  37.717   5.865   7.655
 7716POPC   C1B29431  37.462   5.803   8.555
 7716POPC   C2B29432  37.405   5.882   8.255
 7716POPC   C3B29433  37.428   5.891   7.955
 7716POPC   C4B29434  37.449   5.803   7.655
 7717POPC   NC329435  41.549   4.278   9.455
 7717POPC   PO429436  41.570   4.366   9.155
 7717POPC   GL129437  41.574   4.330   8.855
 7717POPC   GL229438  41.459   4.294   8.855
 7717POPC   C1A29439  41.511   4.319   8.555
 7717POPC   D2A29440  41.521   4.321   8.255
 7717POPC   C3A29441  41.533   4.350   7.955
 7717POPC   C4A29442  41.605   4.269   7.655
 7717POPC   C1B29443  41.354   4.174   8.555
 7717POPC   C2B29444  41.367   4.159   8.255
 7717POPC   C3B29445  41.308   4.215   7.955
 7717POPC   C4B29446  41.380   4.158   7.655
 7718POPC   NC329447  44.645  40.046   9.455
 7718POPC   PO429448  44.642  39.998   9.155
 7718POPC   GL129449  44.649  40.001   8.855
 7718POPC   GL229450  44.515  40.122   8.855
 7718POPC   C1A29451  44.668  40.001   8.555
 7718POPC   D2A29452  44.632  40.019   8.255
 7718POPC   C3A29453  44.701  40.026   7.955
 7718POPC   C4A29454  44.660  40.036   7.655
 7718POPC   C1B29455  44.488  40.174   8.555
 7718POPC   C2B29456  44.450  40.181   8.255
 7718POPC   C3B29457  44.488  40.185   7.955
 7718POPC   C4B29458  44.487  40.104   7.655
 7719POPC   NC329459  16.687  12.112   9.455
 7719POPC   PO429460  16.708  12.115   9.155
 7719POPC   GL129461  16.709  12.092   8.855
 7719POPC   GL229462  16.824  12.116   8.855
 7719POPC   C1A29463  16.712  12.115   8.555
 7719POPC   D2A29464  16.697  12.120   8.255
 7719POPC   C3A29465  16.700  12.117   7.955
 7719POPC   C4A29466  16.774  12.076   7.655
 7719POPC   C1B29467  16.978  12.139   8.555
 7719POPC   C2B29468  17.003  12.102   8.255
 7719POPC   C3B29469  17.002  12.093   7.955
 7719POPC   C4B29470  16.982  12.127   7.655
 7720POPC   NC329471  23.700  37.639   9.455
 7720POPC   PO429472  23.692  37.689   9.155
 7720POPC   GL129473  23.731  37.636   8.855
 7720POPC   GL229474  23.788  37.617   8.855
 7720POPC   C1A29475  23.670  37.644   8.555
 7720POPC   D2A29476  23.688  37.724   8.255
 7720POPC   C3A29477  23.755  37.720   7.955
 7720POPC   C4A29478  23.752  37.695   7.655
 7720POPC   C1B29479  23.973  37.559   8.555
 7720POPC   C2B29480  23.934  37.539   8.255
 7720POPC   C3B29481  23.932  37.595   7.955
 7720POPC   C4B29482  23.934  37.617   7.655
 7721POPC   NC329483  39.245   5.890   9.455
 7721POPC   PO429484  39.197   5.839   9.155
 7721POPC   GL129485  39.201   5.833   8.855
 7721POPC   GL229486  39.292   5.908   8.855
 7721POPC   C1A29487  39.249   5.912   8.555
 7721POPC   D2A29488  39.241   5.857   8.255
 7721POPC   C3A29489  39.247   5.866   7.955
 7721POPC   C4A29490  39.201   5.917   7.655
 7721POPC   C1B29491  39.448   6.023   8.555
 7721POPC   C2B29492  39.436   5.957   8.255
 7721POPC   C3B29493  39.500   5.937   7.955
 7721POPC   C4B29494  39.489   5.961   7.655
 7722POPC   NC329495  22.900  15.216   9.455
 7722POPC   PO429496  22.898  15.219   9.155
 7722POPC   GL129497  22.920  15.169   8.855
 7722POPC   GL229498  22.788  15.131   8.855
 7722POPC   C1A29499  22.937  15.197   8.555
 7722POPC   D2A29500  22.936  15.139   8.255
 7722POPC   C3A29501  22.937  15.213   7.955
 7722POPC   C4A29502  22.897  15.170   7.655
 7722POPC   C1B29503  22.717  15.160   8.555
 7722POPC   C2B29504  22.735  15.116   8.255
 7722POPC   C3B29505  22.704  15.117   7.955
 7722POPC   C4B29506  22.670  15.136   7.655
 7723POPC   NC329507  19.845  32.249   9.455
 7723POPC   PO429508  19.825  32.282   9.155
 7723POPC   GL129509  19.841  32.225   8.855
 7723POPC   GL229510  19.929  32.152   8.855
 7723POPC   C1A29511  19.878  32.273   8.555
 7723POPC   D2A29512  19.829  32.227   8.255
 7723POPC   C3A29513  19.863  32.216   7.955
 7723POPC   C4A29514  19.883  32.246   7.655
 7723POPC   C1B29515  19.956  32.006   8.555
 7723POPC   C2B29516  19.895  32.062   8.255
 7723POPC   C3B29517  19.901  31.972   7.955
 7723POPC   C4B29518  19.967  32.051   7.655
 7724POPC   NC329519  31.449  25.253   9.455
 7724POPC   PO429520  31.497  25.234   9.155
 7724POPC   GL129521  31.507  25.295   8.855
 7724POPC   GL229522  31.372  25.209   8.855
 7724POPC   C1A29523  31.459  25.315   8.555
 7724POPC   D2A29524  31.442  25.217   8.255
 7724POPC   C3A29525  31.486  25.220   7.955
 7724POPC   C4A29526  31.480  25.281   7.655
 7724POPC   C1B29527  31.285  25.075   8.555
 7724POPC   C2B29528  31.292  25.035   8.255
 7724POPC   C3B29529  31.371  25.033   7.955
 7724POPC   C4B29530  31.344  25.018   7.655
 7725POPC   NC329531   3.523   2.001   9.455
 7725POPC   PO429532   3.579   2.010   9.155
 7725POPC   GL129533   3.573   1.983   8.855
 7725POPC   GL229534   3.636   1.907   8.855
 7725POPC   C1A29535   3.557   2.018   8.555
 7725POPC   D2A29536   3.509   2.038   8.255
 7725POPC   C3A29537   3.545   1.996   7.955
 7725POPC   C4A29538   3.511   1.984   7.655
 7725POPC   C1B29539   3.723   1.823   8.555
 7725POPC   C2B29540   3.756   1.820   8.255
 7725POPC   C3B29541   3.778   1.847   7.955
 7725POPC   C4B29542   3.708   1.811   7.655
 7726POPC   NC329543  40.795   2.756   9.455
 7726POPC   PO429544  40.824   2.758   9.155
 7726POPC   GL129545  40.796   2.758   8.855
 7726POPC   GL229546  40.724   2.844   8.855
 7726POPC   C1A29547  40.778   2.729   8.555
 7726POPC   D2A29548  40.762   2.806   8.255
 7726POPC   C3A29549  40.825   2.769   7.955
 7726POPC   C4A29550  40.788   2.735   7.655
 7726POPC   C1B29551  40.670   3.027   8.555
 7726POPC   C2B29552  40.686   2.973   8.255
 7726POPC   C3B29553  40.649   2.994   7.955
 7726POPC   C4B29554  40.640   3.029   7.655
 7727POPC   NC329555  15.993  22.206   9.455
 7727POPC   PO429556  15.987  22.138   9.155
 7727POPC   GL129557  15.993  22.199   8.855
 7727POPC   GL229558  15.891  21.997   8.855
 7727POPC   C1A29559  15.994  22.156   8.555
 7727POPC   D2A29560  15.925  22.188   8.255
 7727POPC   C3A29561  15.987  22.182   7.955
 7727POPC   C4A29562  15.960  22.165   7.655
 7727POPC   C1B29563  15.885  21.959   8.555
 7727POPC   C2B29564  15.861  21.949   8.255
 7727POPC   C3B29565  15.859  21.874   7.955
 7727POPC   C4B29566  15.918  21.952   7.655
 7728POPC   NC329567  31.471  26.848   9.455
 7728POPC   PO429568  31.455  26.865   9.155
 7728POPC   GL129569  31.519  26.843   8.855
 7728POPC   GL229570  31.559  26.877   8.855
 7728POPC   C1A29571  31.509  26.803   8.555
 7728POPC   D2A29572  31.506  26.844   8.255
 7728POPC   C3A29573  31.436  26.867   7.955
 7728POPC   C4A29574  31.425  26.810   7.655
 7728POPC   C1B29575  31.698  26.903   8.555
 7728POPC   C2B29576  31.664  26.941   8.255
 7728POPC   C3B29577  31.655  26.988   7.955
 7728POPC   C4B29578  31.653  26.935   7.655
 7729POPC   NC329579   1.234  33.785   9.455
 7729POPC   PO429580   1.244  33.814   9.155
 7729POPC   GL129581   1.196  33.830   8.855
 7729POPC   GL229582   1.113  33.742   8.855
 7729POPC   C1A29583   1.179  33.790   8.555
 7729POPC   D2A29584   1.188  33.803   8.255
 7729POPC   C3A29585   1.252  33.805   7.955
 7729POPC   C4A29586   1.229  33.750   7.655
 7729POPC   C1B29587   1.011  33.607   8.555
 7729POPC   C2B29588   0.985  33.643   8.255
 7729POPC   C3B29589   0.997  33.623   7.955
 7729POPC   C4B29590   1.052  33.612   7.655
 7730POPC   NC329591   7.393  12.882   9.455
 7730POPC   PO429592   7.375  12.868   9.155
 7730POPC   GL129593   7.436  12.810   8.855
 7730POPC   GL229594   7.352  12.812   8.855
 7730POPC   C1A29595   7.392  12.863   8.555
 7730POPC   D2A29596   7.389  12.863   8.255
 7730POPC   C3A29597   7.449  12.829   7.955
 7730POPC   C4A29598   7.417  12.886   7.655
 7730POPC   C1B29599   7.174  12.746   8.555
 7730POPC   C2B29600   7.198  12.771   8.255
 7730POPC   C3B29601   7.156  12.748   7.955
 7730POPC   C4B29602   7.227  12.782   7.655
 7731POPC   NC329603  14.440   7.384   9.455
 7731POPC   PO429604  14.380   7.426   9.155
 7731POPC   GL129605  14.365   7.373   8.855
 7731POPC   GL229606  14.241   7.435   8.855
 7731POPC   C1A29607  14.355   7.445   8.555
 7731POPC   D2A29608  14.383   7.456   8.255
 7731POPC   C3A29609  14.426   7.396   7.955
 7731POPC   C4A29610  14.373   7.393   7.655
 7731POPC   C1B29611  14.147   7.521   8.555
 7731POPC   C2B29612  14.195   7.479   8.255
 7731POPC   C3B29613  14.172   7.517   7.955
 7731POPC   C4B29614  14.210   7.487   7.655
 7732POPC   NC329615  32.232  42.320   9.455
 7732POPC   PO429616  32.274  42.298   9.155
 7732POPC   GL129617  32.265  42.289   8.855
 7732POPC   GL229618  32.217  42.401   8.855
 7732POPC   C1A29619  32.278  42.365   8.555
 7732POPC   D2A29620  32.284  42.376   8.255
 7732POPC   C3A29621  32.242  42.345   7.955
 7732POPC   C4A29622  32.273  42.362   7.655
 7732POPC   C1B29623  32.166  42.616   8.555
 7732POPC   C2B29624  32.146  42.541   8.255
 7732POPC   C3B29625  32.122  42.545   7.955
 7732POPC   C4B29626  32.171  42.559   7.655
 7733POPC   NC329627  26.811   7.454   9.455
 7733POPC   PO429628  26.801   7.437   9.155
 7733POPC   GL129629  26.857   7.471   8.855
 7733POPC   GL229630  26.935   7.402   8.855
 7733POPC   C1A29631  26.803   7.443   8.555
 7733POPC   D2A29632  26.769   7.470   8.255
 7733POPC   C3A29633  26.813   7.464   7.955
 7733POPC   C4A29634  26.814   7.383   7.655
 7733POPC   C1B29635  27.046   7.353   8.555
 7733POPC   C2B29636  27.082   7.397   8.255
 7733POPC   C3B29637  27.086   7.376   7.955
 7733POPC   C4B29638  27.046   7.384   7.655
 7734POPC   NC329639  44.705  19.091   9.455
 7734POPC   PO429640  44.627  19.012   9.155
 7734POPC   GL129641  44.691  19.095   8.855
 7734POPC   GL229642  44.550  19.043   8.855
 7734POPC   C1A29643  44.613  19.011   8.555
 7734POPC   D2A29644  44.651  19.098   8.255
 7734POPC   C3A29645  44.630  19.010   7.955
 7734POPC   C4A29646  44.711  19.075   7.655
 7734POPC   C1B29647  44.399  18.991   8.555
 7734POPC   C2B29648  44.399  18.951   8.255
 7734POPC   C3B29649  44.440  18.966   7.955
 7734POPC   C4B29650  44.422  18.964   7.655
 7735POPC   NC329651  40.822  15.920   9.455
 7735POPC   PO429652  40.802  15.944   9.155
 7735POPC   GL129653  40.770  15.955   8.855
 7735POPC   GL229654  40.704  16.031   8.855
 7735POPC   C1A29655  40.737  15.975   8.555
 7735POPC   D2A29656  40.805  15.986   8.255
 7735POPC   C3A29657  40.783  16.005   7.955
 7735POPC   C4A29658  40.765  15.969   7.655
 7735POPC   C1B29659  40.616  16.166   8.555
 7735POPC   C2B29660  40.610  16.131   8.255
 7735POPC   C3B29661  40.623  16.123   7.955
 7735POPC   C4B29662  40.626  16.149   7.655
 7736POPC   NC329663  22.188  33.052   9.455
 7736POPC   PO429664  22.151  33.010   9.155
 7736POPC   GL129665  22.202  33.053   8.855
 7736POPC   GL229666  22.089  33.169   8.855
 7736POPC   C1A29667  22.129  33.000   8.555
 7736POPC   D2A29668  22.150  33.034   8.255
 7736POPC   C3A29669  22.163  33.027   7.955
 7736POPC   C4A29670  22.139  32.982   7.655
 7736POPC   C1B29671  22.127  33.219   8.555
 7736POPC   C2B29672  22.053  33.294   8.255
 7736POPC   C3B29673  22.061  33.284   7.955
 7736POPC   C4B29674  22.058  33.248   7.655
 7737POPC   NC329675   2.774   1.971   9.455
 7737POPC   PO429676   2.728   1.972   9.155
 7737POPC   GL129677   2.767   2.014   8.855
 7737POPC   GL229678   2.797   2.142   8.855
 7737POPC   C1A29679   2.752   2.022   8.555
 7737POPC   D2A29680   2.737   1.976   8.255
 7737POPC   C3A29681   2.721   1.952   7.955
 7737POPC   C4A29682   2.779   2.026   7.655
 7737POPC   C1B29683   2.815   2.271   8.555
 7737POPC   C2B29684   2.802   2.243   8.255
 7737POPC   C3B29685   2.854   2.190   7.955
 7737POPC   C4B29686   2.802   2.270   7.655
 7738POPC   NC329687   3.579  33.841   9.455
 7738POPC   PO429688   3.499  33.798   9.155
 7738POPC   GL129689   3.554  33.756   8.855
 7738POPC   GL229690   3.542  33.943   8.855
 7738POPC   C1A29691   3.517  33.807   8.555
 7738POPC   D2A29692   3.574  33.783   8.255
 7738POPC   C3A29693   3.577  33.810   7.955
 7738POPC   C4A29694   3.556  33.803   7.655
 7738POPC   C1B29695   3.574  34.083   8.555
 7738POPC   C2B29696   3.518  34.049   8.255
 7738POPC   C3B29697   3.522  34.000   7.955
 7738POPC   C4B29698   3.510  34.050   7.655
 7739POPC   NC329699  43.064   8.210   9.455
 7739POPC   PO429700  43.091   8.159   9.155
 7739POPC   GL129701  43.149   8.174   8.855
 7739POPC   GL229702  43.261   8.235   8.855
 7739POPC   C1A29703  43.155   8.194   8.555
 7739POPC   D2A29704  43.108   8.148   8.255
 7739POPC   C3A29705  43.093   8.168   7.955
 7739POPC   C4A29706  43.136   8.196   7.655
 7739POPC   C1B29707  43.362   8.192   8.555
 7739POPC   C2B29708  43.311   8.276   8.255
 7739POPC   C3B29709  43.406   8.233   7.955
 7739POPC   C4B29710  43.350   8.209   7.655
 7740POPC   NC329711  10.505   9.787   9.455
 7740POPC   PO429712  10.560   9.774   9.155
 7740POPC   GL129713  10.514   9.751   8.855
 7740POPC   GL229714  10.558   9.651   8.855
 7740POPC   C1A29715  10.492   9.765   8.555
 7740POPC   D2A29716  10.481   9.777   8.255
 7740POPC   C3A29717  10.545   9.708   7.955
 7740POPC   C4A29718  10.489   9.708   7.655
 7740POPC   C1B29719  10.575   9.547   8.555
 7740POPC   C2B29720  10.525   9.524   8.255
 7740POPC   C3B29721  10.534   9.531   7.955
 7740POPC   C4B29722  10.603   9.496   7.655
 7741POPC   NC329723  32.286  27.560   9.455
 7741POPC   PO429724  32.298  27.626   9.155
 7741POPC   GL129725  32.248  27.633   8.855
 7741POPC   GL229726  32.408  27.518   8.855
 7741POPC   C1A29727  32.280  27.571   8.555
 7741POPC   D2A29728  32.293  27.604   8.255
 7741POPC   C3A29729  32.225  27.563   7.955
 7741POPC   C4A29730  32.243  27.550   7.655
 7741POPC   C1B29731  32.524  27.560   8.555
 7741POPC   C2B29732  32.478  27.557   8.255
 7741POPC   C3B29733  32.528  27.568   7.955
 7741POPC   C4B29734  32.512  27.540   7.655
 7742POPC   NC329735  39.975  23.719   9.455
 7742POPC   PO429736  40.039  23.674   9.155
 7742POPC   GL129737  39.967  23.707   8.855
 7742POPC   GL229738  39.858  23.622   8.855
 7742POPC   C1A29739  39.989  23.747   8.555
 7742POPC   D2A29740  39.977  23.726   8.255
 7742POPC   C3A29741  40.003  23.695   7.955
 7742POPC   C4A29742  39.998  23.688   7.655
 7742POPC   C1B29743  39.846  23.531   8.555
 7742POPC   C2B29744  39.814  23.594   8.255
 7742POPC   C3B29745  39.785  23.559   7.955
 7742POPC   C4B29746  39.848  23.542   7.655
 7743POPC   NC329747  12.096  26.072   9.455
 7743POPC   PO429748  12.031  26.066   9.155
 7743POPC   GL129749  12.057  26.040   8.855
 7743POPC   GL229750  12.217  26.056   8.855
 7743POPC   C1A29751  12.033  26.006   8.555
 7743POPC   D2A29752  12.033  26.033   8.255
 7743POPC   C3A29753  12.117  26.057   7.955
 7743POPC   C4A29754  12.125  26.043   7.655
 7743POPC   C1B29755  12.314  26.055   8.555
 7743POPC   C2B29756  12.279  26.099   8.255
 7743POPC   C3B29757  12.351  26.080   7.955
 7743POPC   C4B29758  12.373  26.057   7.655
 7744POPC   NC329759   7.433  26.002   9.455
 7744POPC   PO429760   7.373  26.082   9.155
 7744POPC   GL129761   7.443  26.061   8.855
 7744POPC   GL229762   7.496  25.930   8.855
 7744POPC   C1A29763   7.464  25.995   8.555
 7744POPC   D2A29764   7.390  26.047   8.255
 7744POPC   C3A29765   7.442  26.017   7.955
 7744POPC   C4A29766   7.411  26.049   7.655
 7744POPC   C1B29767   7.547  25.889   8.555
 7744POPC   C2B29768   7.565  25.803   8.255
 7744POPC   C3B29769   7.586  25.846   7.955
 7744POPC   C4B29770   7.524  25.858   7.655
 7745POPC   NC329771  32.251   8.242   9.455
 7745POPC   PO429772  32.243   8.188   9.155
 7745POPC   GL129773  32.209   8.218   8.855
 7745POPC   GL229774  32.287   8.106   8.855
 7745POPC   C1A29775  32.284   8.235   8.555
 7745POPC   D2A29776  32.227   8.170   8.255
 7745POPC   C3A29777  32.223   8.183   7.955
 7745POPC   C4A29778  32.251   8.212   7.655
 7745POPC   C1B29779  32.211   7.966   8.555
 7745POPC   C2B29780  32.244   7.957   8.255
 7745POPC   C3B29781  32.214   7.904   7.955
 7745POPC   C4B29782  32.279   7.959   7.655
 7746POPC   NC329783  36.118   4.327   9.455
 7746POPC   PO429784  36.174   4.349   9.155
 7746POPC   GL129785  36.125   4.331   8.855
 7746POPC   GL229786  36.003   4.335   8.855
 7746POPC   C1A29787  36.160   4.292   8.555
 7746POPC   D2A29788  36.136   4.277   8.255
 7746POPC   C3A29789  36.161   4.293   7.955
 7746POPC   C4A29790  36.091   4.289   7.655
 7746POPC   C1B29791  35.851   4.418   8.555
 7746POPC   C2B29792  35.914   4.375   8.255
 7746POPC   C3B29793  35.899   4.428   7.955
 7746POPC   C4B29794  35.889   4.396   7.655
 7747POPC   NC329795   1.990  31.485   9.455
 7747POPC   PO429796   1.944  31.507   9.155
 7747POPC   GL129797   2.028  31.435   8.855
 7747POPC   GL229798   1.877  31.494   8.855
 7747POPC   C1A29799   2.002  31.468   8.555
 7747POPC   D2A29800   1.953  31.475   8.255
 7747POPC   C3A29801   2.010  31.454   7.955
 7747POPC   C4A29802   2.031  31.488   7.655
 7747POPC   C1B29803   1.703  31.471   8.555
 7747POPC   C2B29804   1.697  31.521   8.255
 7747POPC   C3B29805   1.721  31.523   7.955
 7747POPC   C4B29806   1.774  31.532   7.655
 7748POPC   NC329807  10.519  36.879   9.455
 7748POPC   PO429808  10.550  36.941   9.155
 7748POPC   GL129809  10.538  36.887   8.855
 7748POPC   GL229810  10.514  36.791   8.855
 7748POPC   C1A29811  10.519  36.929   8.555
 7748POPC   D2A29812  10.481  36.862   8.255
 7748POPC   C3A29813  10.565  36.857   7.955
 7748POPC   C4A29814  10.544  36.866   7.655
 7748POPC   C1B29815  10.550  36.651   8.555
 7748POPC   C2B29816  10.524  36.673   8.255
 7748POPC   C3B29817  10.595  36.670   7.955
 7748POPC   C4B29818  10.518  36.628   7.655
 7749POPC   NC329819  10.532  40.049   9.455
 7749POPC   PO429820  10.563  40.035   9.155
 7749POPC   GL129821  10.517  39.973   8.855
 7749POPC   GL229822  10.494  39.894   8.855
 7749POPC   C1A29823  10.542  39.979   8.555
 7749POPC   D2A29824  10.511  40.045   8.255
 7749POPC   C3A29825  10.495  40.001   7.955
 7749POPC   C4A29826  10.547  39.974   7.655
 7749POPC   C1B29827  10.353  39.835   8.555
 7749POPC   C2B29828  10.337  39.830   8.255
 7749POPC   C3B29829  10.373  39.781   7.955
 7749POPC   C4B29830  10.362  39.771   7.655
 7750POPC   NC329831   1.964   0.457   9.455
 7750POPC   PO429832   2.015   0.477   9.155
 7750POPC   GL129833   2.020   0.406   8.855
 7750POPC   GL229834   2.116   0.368   8.855
 7750POPC   C1A29835   1.945   0.475   8.555
 7750POPC   D2A29836   2.030   0.388   8.255
 7750POPC   C3A29837   2.005   0.419   7.955
 7750POPC   C4A29838   2.029   0.408   7.655
 7750POPC   C1B29839   2.192   0.247   8.555
 7750POPC   C2B29840   2.145   0.299   8.255
 7750POPC   C3B29841   2.146   0.307   7.955
 7750POPC   C4B29842   2.190   0.324   7.655
 7751POPC   NC329843  33.014  22.974   9.455
 7751POPC   PO429844  33.069  22.984   9.155
 7751POPC   GL129845  33.036  22.922   8.855
 7751POPC   GL229846  33.164  22.910   8.855
 7751POPC   C1A29847  32.979  22.913   8.555
 7751POPC   D2A29848  33.018  22.943   8.255
 7751POPC   C3A29849  33.057  22.903   7.955
 7751POPC   C4A29850  33.018  22.983   7.655
 7751POPC   C1B29851  33.262  22.887   8.555
 7751POPC   C2B29852  33.250  22.854   8.255
 7751POPC   C3B29853  33.276  22.832   7.955
 7751POPC   C4B29854  33.241  22.857   7.655
 7752POPC   NC329855  29.173  25.286   9.455
 7752POPC   PO429856  29.186  25.224   9.155
 7752POPC   GL129857  29.163  25.295   8.855
 7752POPC   GL229858  29.253  25.178   8.855
 7752POPC   C1A29859  29.119  25.240   8.555
 7752POPC   D2A29860  29.110  25.258   8.255
 7752POPC   C3A29861  29.155  25.220   7.955
 7752POPC   C4A29862  29.101  25.290   7.655
 7752POPC   C1B29863  29.392  25.177   8.555
 7752POPC   C2B29864  29.363  25.161   8.255
 7752POPC   C3B29865  29.346  25.210   7.955
 7752POPC   C4B29866  29.422  25.196   7.655
 7753POPC   NC329867   3.570  43.102   9.455
 7753POPC   PO429868   3.493  43.081   9.155
 7753POPC   GL129869   3.549  43.118   8.855
 7753POPC   GL229870   3.637  43.070   8.855
 7753POPC   C1A29871   3.562  43.123   8.555
 7753POPC   D2A29872   3.559  43.102   8.255
 7753POPC   C3A29873   3.589  43.112   7.955
 7753POPC   C4A29874   3.573  43.105   7.655
 7753POPC   C1B29875   3.742  43.053   8.555
 7753POPC   C2B29876   3.766  43.081   8.255
 7753POPC   C3B29877   3.825  43.102   7.955
 7753POPC   C4B29878   3.798  43.096   7.655
 7754POPC   NC329879   7.371  31.439   9.455
 7754POPC   PO429880   7.452  31.510   9.155
 7754POPC   GL129881   7.412  31.514   8.855
 7754POPC   GL229882   7.335  31.471   8.855
 7754POPC   C1A29883   7.469  31.436   8.555
 7754POPC   D2A29884   7.377  31.477   8.255
 7754POPC   C3A29885   7.373  31.454   7.955
 7754POPC   C4A29886   7.440  31.494   7.655
 7754POPC   C1B29887   7.143  31.524   8.555
 7754POPC   C2B29888   7.195  31.503   8.255
 7754POPC   C3B29889   7.206  31.476   7.955
 7754POPC   C4B29890   7.172  31.499   7.655
 7755POPC   NC329891  40.787  22.165   9.455
 7755POPC   PO429892  40.815  22.131   9.155
 7755POPC   GL129893  40.766  22.154   8.855
 7755POPC   GL229894  40.861  22.037   8.855
 7755POPC   C1A29895  40.832  22.162   8.555
 7755POPC   D2A29896  40.824  22.204   8.255
 7755POPC   C3A29897  40.773  22.123   7.955
 7755POPC   C4A29898  40.760  22.130   7.655
 7755POPC   C1B29899  40.973  21.934   8.555
 7755POPC   C2B29900  40.927  21.920   8.255
 7755POPC   C3B29901  40.879  21.917   7.955
 7755POPC   C4B29902  40.904  21.998   7.655
 7756POPC   NC329903   8.165  33.838   9.455
 7756POPC   PO429904   8.228  33.757   9.155
 7756POPC   GL129905   8.167  33.821   8.855
 7756POPC   GL229906   8.134  33.680   8.855
 7756POPC   C1A29907   8.204  33.833   8.555
 7756POPC   D2A29908   8.155  33.775   8.255
 7756POPC   C3A29909   8.188  33.809   7.955
 7756POPC   C4A29910   8.173  33.788   7.655
 7756POPC   C1B29911   8.099  33.555   8.555
 7756POPC   C2B29912   8.012  33.619   8.255
 7756POPC   C3B29913   8.078  33.604   7.955
 7756POPC   C4B29914   8.091  33.626   7.655
 7757POPC   NC329915   2.812  39.187   9.455
 7757POPC   PO429916   2.812  39.227   9.155
 7757POPC   GL129917   2.742  39.207   8.855
 7757POPC   GL229918   2.722  39.343   8.855
 7757POPC   C1A29919   2.736  39.255   8.555
 7757POPC   D2A29920   2.802  39.243   8.255
 7757POPC   C3A29921   2.750  39.264   7.955
 7757POPC   C4A29922   2.725  39.265   7.655
 7757POPC   C1B29923   2.742  39.520   8.555
 7757POPC   C2B29924   2.712  39.480   8.255
 7757POPC   C3B29925   2.668  39.510   7.955
 7757POPC   C4B29926   2.658  39.425   7.655
 7758POPC   NC329927  11.302  43.899   9.455
 7758POPC   PO429928  11.324  43.933   9.155
 7758POPC   GL129929  11.256  43.884   8.855
 7758POPC   GL229930  11.395  43.811   8.855
 7758POPC   C1A29931  11.260  43.850   8.555
 7758POPC   D2A29932  11.263  43.840   8.255
 7758POPC   C3A29933  11.288  43.889   7.955
 7758POPC   C4A29934  11.261  43.914   7.655
 7758POPC   C1B29935  11.441  43.647   8.555
 7758POPC   C2B29936  11.429  43.721   8.255
 7758POPC   C3B29937  11.496  43.653   7.955
 7758POPC   C4B29938  11.404  43.662   7.655
 7759POPC   NC329939   5.896  32.210   9.455
 7759POPC   PO429940   5.844  32.271   9.155
 7759POPC   GL129941   5.914  32.256   8.855
 7759POPC   GL229942   6.031  32.251   8.855
 7759POPC   C1A29943   5.852  32.212   8.555
 7759POPC   D2A29944   5.824  32.255   8.255
 7759POPC   C3A29945   5.919  32.221   7.955
 7759POPC   C4A29946   5.915  32.294   7.655
 7759POPC   C1B29947   6.119  32.133   8.555
 7759POPC   C2B29948   6.083  32.153   8.255
 7759POPC   C3B29949   6.147  32.194   7.955
 7759POPC   C4B29950   6.140  32.162   7.655
 7760POPC   NC329951  12.878  37.642   9.455
 7760POPC   PO429952  12.901  37.630   9.155
 7760POPC   GL129953  12.879  37.664   8.855
 7760POPC   GL229954  12.942  37.642   8.855
 7760POPC   C1A29955  12.901  37.694   8.555
 7760POPC   D2A29956  12.840  37.698   8.255
 7760POPC   C3A29957  12.834  37.724   7.955
 7760POPC   C4A29958  12.880  37.646   7.655
 7760POPC   C1B29959  13.064  37.607   8.555
 7760POPC   C2B29960  13.091  37.672   8.255
 7760POPC   C3B29961  13.130  37.628   7.955
 7760POPC   C4B29962  13.133  37.647   7.655
 7761POPC   NC329963  24.486  16.699   9.455
 7761POPC   PO429964  24.512  16.716   9.155
 7761POPC   GL129965  24.514  16.739   8.855
 7761POPC   GL229966  24.376  16.609   8.855
 7761POPC   C1A29967  24.527  16.718   8.555
 7761POPC   D2A29968  24.441  16.746   8.255
 7761POPC   C3A29969  24.469  16.725   7.955
 7761POPC   C4A29970  24.492  16.684   7.655
 7761POPC   C1B29971  24.300  16.568   8.555
 7761POPC   C2B29972  24.260  16.515   8.255
 7761POPC   C3B29973  24.301  16.573   7.955
 7761POPC   C4B29974  24.311  16.600   7.655
 7762POPC   NC329975  27.628   8.228   9.455
 7762POPC   PO429976  27.628   8.243   9.155
 7762POPC   GL129977  27.561   8.197   8.855
 7762POPC   GL229978  27.697   8.294   8.855
 7762POPC   C1A29979  27.628   8.220   8.555
 7762POPC   D2A29980  27.631   8.210   8.255
 7762POPC   C3A29981  27.549   8.243   7.955
 7762POPC   C4A29982  27.582   8.239   7.655
 7762POPC   C1B29983  27.708   8.417   8.555
 7762POPC   C2B29984  27.710   8.407   8.255
 7762POPC   C3B29985  27.732   8.393   7.955
 7762POPC   C4B29986  27.732   8.388   7.655
 7763POPC   NC329987  17.479   0.454   9.455
 7763POPC   PO429988  17.520   0.438   9.155
 7763POPC   GL129989  17.539   0.405   8.855
 7763POPC   GL229990  17.448   0.476   8.855
 7763POPC   C1A29991  17.505   0.392   8.555
 7763POPC   D2A29992  17.543   0.464   8.255
 7763POPC   C3A29993  17.492   0.420   7.955
 7763POPC   C4A29994  17.458   0.409   7.655
 7763POPC   C1B29995  17.318   0.619   8.555
 7763POPC   C2B29996  17.313   0.547   8.255
 7763POPC   C3B29997  17.327   0.553   7.955
 7763POPC   C4B29998  17.278   0.600   7.655
 7764POPC   NC329999  11.269  19.845   9.455
 7764POPC   PO430000  11.272  19.848   9.155
 7764POPC   GL130001  11.287  19.788   8.855
 7764POPC   GL230002  11.225  19.977   8.855
 7764POPC   C1A30003  11.250  19.873   8.555
 7764POPC   D2A30004  11.344  19.877   8.255
 7764POPC   C3A30005  11.340  19.821   7.955
 7764POPC   C4A30006  11.256  19.786   7.655
 7764POPC   C1B30007  11.256  20.065   8.555
 7764POPC   C2B30008  11.177  20.037   8.255
 7764POPC   C3B30009  11.237  20.046   7.955
 7764POPC   C4B30010  11.180  20.076   7.655
 7765POPC   NC330011  15.202  36.903   9.455
 7765POPC   PO430012  15.203  36.923   9.155
 7765POPC   GL130013  15.183  36.928   8.855
 7765POPC   GL230014  15.068  37.005   8.855
 7765POPC   C1A30015  15.202  36.918   8.555
 7765POPC   D2A30016  15.154  36.898   8.255
 7765POPC   C3A30017  15.151  36.881   7.955
 7765POPC   C4A30018  15.166  36.859   7.655
 7765POPC   C1B30019  14.932  36.980   8.555
 7765POPC   C2B30020  14.994  37.043   8.255
 7765POPC   C3B30021  14.986  36.974   7.955
 7765POPC   C4B30022  14.913  37.065   7.655
 7766POPC   NC330023  15.913   7.434   9.455
 7766POPC   PO430024  15.907   7.434   9.155
 7766POPC   GL130025  15.990   7.405   8.855
 7766POPC   GL230026  15.857   7.317   8.855
 7766POPC   C1A30027  15.930   7.461   8.555
 7766POPC   D2A30028  15.972   7.438   8.255
 7766POPC   C3A30029  15.908   7.383   7.955
 7766POPC   C4A30030  15.998   7.456   7.655
 7766POPC   C1B30031  15.841   7.204   8.555
 7766POPC   C2B30032  15.840   7.173   8.255
 7766POPC   C3B30033  15.794   7.204   7.955
 7766POPC   C4B30034  15.877   7.242   7.655
 7767POPC   NC330035  43.082  38.405   9.455
 7767POPC   PO430036  43.116  38.462   9.155
 7767POPC   GL130037  43.131  38.474   8.855
 7767POPC   GL230038  43.259  38.475   8.855
 7767POPC   C1A30039  43.142  38.470   8.555
 7767POPC   D2A30040  43.150  38.478   8.255
 7767POPC   C3A30041  43.151  38.411   7.955
 7767POPC   C4A30042  43.115  38.501   7.655
 7767POPC   C1B30043  43.380  38.545   8.555
 7767POPC   C2B30044  43.308  38.492   8.255
 7767POPC   C3B30045  43.318  38.573   7.955
 7767POPC   C4B30046  43.397  38.488   7.655
 7768POPC   NC330047  22.914  32.286   9.455
 7768POPC   PO430048  22.943  32.241   9.155
 7768POPC   GL130049  22.976  32.287   8.855
 7768POPC   GL230050  22.794  32.348   8.855
 7768POPC   C1A30051  22.902  32.205   8.555
 7768POPC   D2A30052  22.896  32.219   8.255
 7768POPC   C3A30053  22.923  32.222   7.955
 7768POPC   C4A30054  22.917  32.268   7.655
 7768POPC   C1B30055  22.745  32.417   8.555
 7768POPC   C2B30056  22.707  32.378   8.255
 7768POPC   C3B30057  22.688  32.408   7.955
 7768POPC   C4B30058  22.736  32.370   7.655
 7769POPC   NC330059  29.961  26.007   9.455
 7769POPC   PO430060  29.912  26.048   9.155
 7769POPC   GL130061  29.892  26.018   8.855
 7769POPC   GL230062  30.000  25.937   8.855
 7769POPC   C1A30063  29.931  26.035   8.555
 7769POPC   D2A30064  29.946  25.995   8.255
 7769POPC   C3A30065  29.890  26.068   7.955
 7769POPC   C4A30066  29.926  26.043   7.655
 7769POPC   C1B30067  30.141  25.815   8.555
 7769POPC   C2B30068  30.064  25.815   8.255
 7769POPC   C3B30069  30.066  25.887   7.955
 7769POPC   C4B30070  30.123  25.891   7.655
 7770POPC   NC330071  42.325  38.416   9.455
 7770POPC   PO430072  42.343  38.433   9.155
 7770POPC   GL130073  42.309  38.431   8.855
 7770POPC   GL230074  42.420  38.569   8.855
 7770POPC   C1A30075  42.351  38.480   8.555
 7770POPC   D2A30076  42.375  38.470   8.255
 7770POPC   C3A30077  42.300  38.472   7.955
 7770POPC   C4A30078  42.380  38.452   7.655
 7770POPC   C1B30079  42.473  38.635   8.555
 7770POPC   C2B30080  42.441  38.635   8.255
 7770POPC   C3B30081  42.482  38.647   7.955
 7770POPC   C4B30082  42.432  38.721   7.655
 7771POPC   NC330083   0.418   2.013   9.455
 7771POPC   PO430084   0.463   2.002   9.155
 7771POPC   GL130085   0.430   1.970   8.855
 7771POPC   GL230086   0.537   2.147   8.855
 7771POPC   C1A30087   0.445   2.036   8.555
 7771POPC   D2A30088   0.414   1.994   8.255
 7771POPC   C3A30089   0.454   1.947   7.955
 7771POPC   C4A30090   0.421   1.958   7.655
 7771POPC   C1B30091   0.548   2.186   8.555
 7771POPC   C2B30092   0.529   2.198   8.255
 7771POPC   C3B30093   0.607   2.228   7.955
 7771POPC   C4B30094   0.540   2.232   7.655
 7772POPC   NC330095  36.856  26.860   9.455
 7772POPC   PO430096  36.889  26.857   9.155
 7772POPC   GL130097  36.953  26.777   8.855
 7772POPC   GL230098  36.849  26.707   8.855
 7772POPC   C1A30099  36.904  26.795   8.555
 7772POPC   D2A30100  36.893  26.815   8.255
 7772POPC   C3A30101  36.882  26.831   7.955
 7772POPC   C4A30102  36.918  26.853   7.655
 7772POPC   C1B30103  36.800  26.541   8.555
 7772POPC   C2B30104  36.782  26.538   8.255
 7772POPC   C3B30105  36.836  26.552   7.955
 7772POPC   C4B30106  36.855  26.593   7.655
 7773POPC   NC330107   2.001  40.804   9.455
 7773POPC   PO430108   1.967  40.788   9.155
 7773POPC   GL130109   1.947  40.811   8.855
 7773POPC   GL230110   2.029  40.636   8.855
 7773POPC   C1A30111   1.943  40.818   8.555
 7773POPC   D2A30112   1.993  40.817   8.255
 7773POPC   C3A30113   2.038  40.737   7.955
 7773POPC   C4A30114   1.946  40.813   7.655
 7773POPC   C1B30115   2.089  40.520   8.555
 7773POPC   C2B30116   2.105  40.563   8.255
 7773POPC   C3B30117   2.077  40.565   7.955
 7773POPC   C4B30118   2.088  40.564   7.655
 7774POPC   NC330119  18.320   8.925   9.455
 7774POPC   PO430120  18.298   8.949   9.155
 7774POPC   GL130121  18.327   8.996   8.855
 7774POPC   GL230122  18.320   8.897   8.855
 7774POPC   C1A30123  18.307   8.938   8.555
 7774POPC   D2A30124  18.262   8.946   8.255
 7774POPC   C3A30125  18.243   8.949   7.955
 7774POPC   C4A30126  18.251   8.992   7.655
 7774POPC   C1B30127  18.361   8.737   8.555
 7774POPC   C2B30128  18.313   8.725   8.255
 7774POPC   C3B30129  18.290   8.727   7.955
 7774POPC   C4B30130  18.383   8.756   7.655
 7775POPC   NC330131  12.092  32.215   9.455
 7775POPC   PO430132  12.065  32.253   9.155
 7775POPC   GL130133  12.081  32.264   8.855
 7775POPC   GL230134  12.029  32.181   8.855
 7775POPC   C1A30135  12.062  32.229   8.555
 7775POPC   D2A30136  12.053  32.293   8.255
 7775POPC   C3A30137  12.070  32.260   7.955
 7775POPC   C4A30138  12.110  32.295   7.655
 7775POPC   C1B30139  11.950  32.036   8.555
 7775POPC   C2B30140  11.885  32.051   8.255
 7775POPC   C3B30141  11.942  32.031   7.955
 7775POPC   C4B30142  11.932  32.106   7.655
 7776POPC   NC330143   3.565   4.343   9.455
 7776POPC   PO430144   3.585   4.295   9.155
 7776POPC   GL130145   3.515   4.298   8.855
 7776POPC   GL230146   3.465   4.223   8.855
 7776POPC   C1A30147   3.548   4.352   8.555
 7776POPC   D2A30148   3.494   4.301   8.255
 7776POPC   C3A30149   3.523   4.349   7.955
 7776POPC   C4A30150   3.579   4.295   7.655
 7776POPC   C1B30151   3.416   4.117   8.555
 7776POPC   C2B30152   3.456   4.130   8.255
 7776POPC   C3B30153   3.398   4.091   7.955
 7776POPC   C4B30154   3.497   4.067   7.655
 7777POPC   NC330155  19.821  10.548   9.455
 7777POPC   PO430156  19.832  10.528   9.155
 7777POPC   GL130157  19.882  10.486   8.855
 7777POPC   GL230158  19.927  10.411   8.855
 7777POPC   C1A30159  19.819  10.478   8.555
 7777POPC   D2A30160  19.847  10.562   8.255
 7777POPC   C3A30161  19.816  10.545   7.955
 7777POPC   C4A30162  19.788  10.497   7.655
 7777POPC   C1B30163  20.037  10.321   8.555
 7777POPC   C2B30164  20.029  10.334   8.255
 7777POPC   C3B30165  19.951  10.352   7.955
 7777POPC   C4B30166  19.995  10.300   7.655
 7778POPC   NC330167  18.268  34.528   9.455
 7778POPC   PO430168  18.315  34.565   9.155
 7778POPC   GL130169  18.329  34.585   8.855
 7778POPC   GL230170  18.419  34.460   8.855
 7778POPC   C1A30171  18.252  34.565   8.555
 7778POPC   D2A30172  18.329  34.542   8.255
 7778POPC   C3A30173  18.306  34.541   7.955
 7778POPC   C4A30174  18.274  34.542   7.655
 7778POPC   C1B30175  18.490  34.466   8.555
 7778POPC   C2B30176  18.474  34.440   8.255
 7778POPC   C3B30177  18.519  34.396   7.955
 7778POPC   C4B30178  18.467  34.396   7.655
 7779POPC   NC330179  27.618  19.837   9.455
 7779POPC   PO430180  27.641  19.831   9.155
 7779POPC   GL130181  27.612  19.847   8.855
 7779POPC   GL230182  27.663  19.917   8.855
 7779POPC   C1A30183  27.602  19.882   8.555
 7779POPC   D2A30184  27.590  19.820   8.255
 7779POPC   C3A30185  27.626  19.867   7.955
 7779POPC   C4A30186  27.562  19.881   7.655
 7779POPC   C1B30187  27.691  20.048   8.555
 7779POPC   C2B30188  27.649  20.128   8.255
 7779POPC   C3B30189  27.631  20.125   7.955
 7779POPC   C4B30190  27.684  20.062   7.655
 7780POPC   NC330191  26.077  35.385   9.455
 7780POPC   PO430192  26.087  35.334   9.155
 7780POPC   GL130193  26.013  35.306   8.855
 7780POPC   GL230194  26.095  35.475   8.855
 7780POPC   C1A30195  26.056  35.377   8.555
 7780POPC   D2A30196  26.073  35.381   8.255
 7780POPC   C3A30197  26.059  35.325   7.955
 7780POPC   C4A30198  26.037  35.312   7.655
 7780POPC   C1B30199  26.257  35.514   8.555
 7780POPC   C2B30200  26.198  35.487   8.255
 7780POPC   C3B30201  26.219  35.559   7.955
 7780POPC   C4B30202  26.194  35.504   7.655
 7781POPC   NC330203  29.126   5.053   9.455
 7781POPC   PO430204  29.139   5.102   9.155
 7781POPC   GL130205  29.102   5.125   8.855
 7781POPC   GL230206  29.240   4.951   8.855
 7781POPC   C1A30207  29.129   5.054   8.555
 7781POPC   D2A30208  29.143   5.115   8.255
 7781POPC   C3A30209  29.115   5.094   7.955
 7781POPC   C4A30210  29.147   5.074   7.655
 7781POPC   C1B30211  29.272   4.814   8.555
 7781POPC   C2B30212  29.202   4.859   8.255
 7781POPC   C3B30213  29.194   4.912   7.955
 7781POPC   C4B30214  29.218   4.829   7.655
 7782POPC   NC330215  40.782  10.557   9.455
 7782POPC   PO430216  40.750  10.573   9.155
 7782POPC   GL130217  40.738  10.493   8.855
 7782POPC   GL230218  40.909  10.639   8.855
 7782POPC   C1A30219  40.778  10.517   8.555
 7782POPC   D2A30220  40.765  10.484   8.255
 7782POPC   C3A30221  40.772  10.557   7.955
 7782POPC   C4A30222  40.819  10.536   7.655
 7782POPC   C1B30223  40.923  10.669   8.555
 7782POPC   C2B30224  40.929  10.709   8.255
 7782POPC   C3B30225  41.009  10.724   7.955
 7782POPC   C4B30226  41.001  10.671   7.655
 7783POPC   NC330227  43.931   4.336   9.455
 7783POPC   PO430228  43.862   4.308   9.155
 7783POPC   GL130229  43.881   4.352   8.855
 7783POPC   GL230230  43.761   4.317   8.855
 7783POPC   C1A30231  43.887   4.312   8.555
 7783POPC   D2A30232  43.872   4.269   8.255
 7783POPC   C3A30233  43.886   4.306   7.955
 7783POPC   C4A30234  43.841   4.350   7.655
 7783POPC   C1B30235  43.656   4.363   8.555
 7783POPC   C2B30236  43.678   4.385   8.255
 7783POPC   C3B30237  43.693   4.369   7.955
 7783POPC   C4B30238  43.685   4.366   7.655
 7784POPC   NC330239  22.905  14.428   9.455
 7784POPC   PO430240  22.911  14.374   9.155
 7784POPC   GL130241  22.955  14.426   8.855
 7784POPC   GL230242  22.978  14.256   8.855
 7784POPC   C1A30243  22.912  14.412   8.555
 7784POPC   D2A30244  22.968  14.388   8.255
 7784POPC   C3A30245  22.926  14.378   7.955
 7784POPC   C4A30246  22.910  14.376   7.655
 7784POPC   C1B30247  23.042  14.252   8.555
 7784POPC   C2B30248  23.060  14.183   8.255
 7784POPC   C3B30249  23.117  14.240   7.955
 7784POPC   C4B30250  23.085  14.225   7.655
 7785POPC   NC330251  10.548  22.908   9.455
 7785POPC   PO430252  10.548  22.920   9.155
 7785POPC   GL130253  10.510  22.917   8.855
 7785POPC   GL230254  10.616  22.968   8.855
 7785POPC   C1A30255  10.532  22.964   8.555
 7785POPC   D2A30256  10.481  22.963   8.255
 7785POPC   C3A30257  10.536  22.977   7.955
 7785POPC   C4A30258  10.478  22.950   7.655
 7785POPC   C1B30259  10.788  22.964   8.555
 7785POPC   C2B30260  10.761  22.963   8.255
 7785POPC   C3B30261  10.813  23.052   7.955
 7785POPC   C4B30262  10.806  23.034   7.655
 7786POPC   NC330263   3.520  22.171   9.455
 7786POPC   PO430264   3.584  22.167   9.155
 7786POPC   GL130265   3.494  22.113   8.855
 7786POPC   GL230266   3.570  22.079   8.855
 7786POPC   C1A30267   3.525  22.189   8.555
 7786POPC   D2A30268   3.590  22.180   8.255
 7786POPC   C3A30269   3.538  22.131   7.955
 7786POPC   C4A30270   3.574  22.114   7.655
 7786POPC   C1B30271   3.551  21.946   8.555
 7786POPC   C2B30272   3.550  21.950   8.255
 7786POPC   C3B30273   3.552  21.916   7.955
 7786POPC   C4B30274   3.552  21.914   7.655
 7787POPC   NC330275  27.636  40.755   9.455
 7787POPC   PO430276  27.592  40.798   9.155
 7787POPC   GL130277  27.634  40.776   8.855
 7787POPC   GL230278  27.551  40.902   8.855
 7787POPC   C1A30279  27.591  40.736   8.555
 7787POPC   D2A30280  27.604  40.786   8.255
 7787POPC   C3A30281  27.623  40.791   7.955
 7787POPC   C4A30282  27.613  40.787   7.655
 7787POPC   C1B30283  27.484  40.981   8.555
 7787POPC   C2B30284  27.491  41.014   8.255
 7787POPC   C3B30285  27.499  41.047   7.955
 7787POPC   C4B30286  27.541  41.051   7.655
 7788POPC   NC330287  40.819  31.431   9.455
 7788POPC   PO430288  40.820  31.473   9.155
 7788POPC   GL130289  40.737  31.481   8.855
 7788POPC   GL230290  40.889  31.503   8.855
 7788POPC   C1A30291  40.778  31.450   8.555
 7788POPC   D2A30292  40.750  31.521   8.255
 7788POPC   C3A30293  40.819  31.460   7.955
 7788POPC   C4A30294  40.743  31.509   7.655
 7788POPC   C1B30295  41.016  31.463   8.555
 7788POPC   C2B30296  40.987  31.478   8.255
 7788POPC   C3B30297  41.025  31.477   7.955
 7788POPC   C4B30298  40.989  31.440   7.655
 7789POPC   NC330299  12.079  22.142   9.455
 7789POPC   PO430300  12.043  22.118   9.155
 7789POPC   GL130301  12.038  22.192   8.855
 7789POPC   GL230302  11.954  22.138   8.855
 7789POPC   C1A30303  12.049  22.205   8.555
 7789POPC   D2A30304  12.125  22.140   8.255
 7789POPC   C3A30305  12.057  22.203   7.955
 7789POPC   C4A30306  12.099  22.144   7.655
 7789POPC   C1B30307  11.797  22.102   8.555
 7789POPC   C2B30308  11.782  22.099   8.255
 7789POPC   C3B30309  11.802  22.149   7.955
 7789POPC   C4B30310  11.842  22.128   7.655
 7790POPC   NC330311  10.540  26.833   9.455
 7790POPC   PO430312  10.562  26.850   9.155
 7790POPC   GL130313  10.559  26.826   8.855
 7790POPC   GL230314  10.601  26.657   8.855
 7790POPC   C1A30315  10.527  26.828   8.555
 7790POPC   D2A30316  10.555  26.804   8.255
 7790POPC   C3A30317  10.523  26.788   7.955
 7790POPC   C4A30318  10.515  26.819   7.655
 7790POPC   C1B30319  10.577  26.547   8.555
 7790POPC   C2B30320  10.581  26.550   8.255
 7790POPC   C3B30321  10.583  26.537   7.955
 7790POPC   C4B30322  10.658  26.602   7.655
 7791POPC   NC330323  25.310   0.394   9.455
 7791POPC   PO430324  25.291   0.478   9.155
 7791POPC   GL130325  25.270   0.393   8.855
 7791POPC   GL230326  25.295   0.604   8.855
 7791POPC   C1A30327  25.296   0.462   8.555
 7791POPC   D2A30328  25.285   0.421   8.255
 7791POPC   C3A30329  25.247   0.462   7.955
 7791POPC   C4A30330  25.285   0.470   7.655
 7791POPC   C1B30331  25.292   0.733   8.555
 7791POPC   C2B30332  25.232   0.667   8.255
 7791POPC   C3B30333  25.228   0.658   7.955
 7791POPC   C4B30334  25.215   0.666   7.655
 7792POPC   NC330335  40.799  26.020   9.455
 7792POPC   PO430336  40.780  26.038   9.155
 7792POPC   GL130337  40.807  26.061   8.855
 7792POPC   GL230338  40.687  26.000   8.855
 7792POPC   C1A30339  40.811  26.021   8.555
 7792POPC   D2A30340  40.763  26.063   8.255
 7792POPC   C3A30341  40.817  26.052   7.955
 7792POPC   C4A30342  40.754  26.048   7.655
 7792POPC   C1B30343  40.527  25.931   8.555
 7792POPC   C2B30344  40.557  26.026   8.255
 7792POPC   C3B30345  40.572  25.940   7.955
 7792POPC   C4B30346  40.573  25.956   7.655
 7793POPC   NC330347  29.171  42.291   9.455
 7793POPC   PO430348  29.143  42.367   9.155
 7793POPC   GL130349  29.165  42.344   8.855
 7793POPC   GL230350  29.077  42.317   8.855
 7793POPC   C1A30351  29.099  42.343   8.555
 7793POPC   D2A30352  29.146  42.303   8.255
 7793POPC   C3A30353  29.173  42.351   7.955
 7793POPC   C4A30354  29.172  42.304   7.655
 7793POPC   C1B30355  28.940  42.165   8.555
 7793POPC   C2B30356  28.969  42.174   8.255
 7793POPC   C3B30357  28.914  42.170   7.955
 7793POPC   C4B30358  28.966  42.203   7.655
 7794POPC   NC330359   3.536  28.366   9.455
 7794POPC   PO430360   3.581  28.346   9.155
 7794POPC   GL130361   3.513  28.362   8.855
 7794POPC   GL230362   3.610  28.323   8.855
 7794POPC   C1A30363   3.527  28.392   8.555
 7794POPC   D2A30364   3.582  28.418   8.255
 7794POPC   C3A30365   3.591  28.378   7.955
 7794POPC   C4A30366   3.515  28.375   7.655
 7794POPC   C1B30367   3.722  28.274   8.555
 7794POPC   C2B30368   3.806  28.257   8.255
 7794POPC   C3B30369   3.791  28.279   7.955
 7794POPC   C4B30370   3.730  28.268   7.655
 7795POPC   NC330371   5.098  32.234   9.455
 7795POPC   PO430372   5.085  32.277   9.155
 7795POPC   GL130373   5.061  32.207   8.855
 7795POPC   GL230374   5.230  32.199   8.855
 7795POPC   C1A30375   5.089  32.270   8.555
 7795POPC   D2A30376   5.075  32.243   8.255
 7795POPC   C3A30377   5.091  32.297   7.955
 7795POPC   C4A30378   5.054  32.212   7.655
 7795POPC   C1B30379   5.315  32.040   8.555
 7795POPC   C2B30380   5.277  32.089   8.255
 7795POPC   C3B30381   5.314  32.047   7.955
 7795POPC   C4B30382   5.265  32.119   7.655
 7796POPC   NC330383   8.945  43.138   9.455
 7796POPC   PO430384   8.966  43.158   9.155
 7796POPC   GL130385   8.937  43.075   8.855
 7796POPC   GL230386   9.082  43.054   8.855
 7796POPC   C1A30387   8.928  43.075   8.555
 7796POPC   D2A30388   8.970  43.148   8.255
 7796POPC   C3A30389   8.941  43.145   7.955
 7796POPC   C4A30390   8.930  43.152   7.655
 7796POPC   C1B30391   9.165  42.882   8.555
 7796POPC   C2B30392   9.137  42.969   8.255
 7796POPC   C3B30393   9.124  42.907   7.955
 7796POPC   C4B30394   9.112  42.974   7.655
 7797POPC   NC330395   9.002   2.022   9.455
 7797POPC   PO430396   8.975   1.950   9.155
 7797POPC   GL130397   9.015   1.948   8.855
 7797POPC   GL230398   9.089   2.066   8.855
 7797POPC   C1A30399   8.937   1.964   8.555
 7797POPC   D2A30400   8.968   2.015   8.255
 7797POPC   C3A30401   8.931   2.027   7.955
 7797POPC   C4A30402   9.012   2.001   7.655
 7797POPC   C1B30403   9.164   2.156   8.555
 7797POPC   C2B30404   9.146   2.182   8.255
 7797POPC   C3B30405   9.091   2.199   7.955
 7797POPC   C4B30406   9.119   2.139   7.655
 7798POPC   NC330407  29.191  40.751   9.455
 7798POPC   PO430408  29.109  40.767   9.155
 7798POPC   GL130409  29.142  40.785   8.855
 7798POPC   GL230410  29.004  40.720   8.855
 7798POPC   C1A30411  29.134  40.786   8.555
 7798POPC   D2A30412  29.154  40.760   8.255
 7798POPC   C3A30413  29.102  40.775   7.955
 7798POPC   C4A30414  29.171  40.786   7.655
 7798POPC   C1B30415  28.905  40.691   8.555
 7798POPC   C2B30416  28.937  40.666   8.255
 7798POPC   C3B30417  28.915  40.643   7.955
 7798POPC   C4B30418  28.947  40.656   7.655
 7799POPC   NC330419  40.043  29.155   9.455
 7799POPC   PO430420  40.035  29.136   9.155
 7799POPC   GL130421  39.958  29.127   8.855
 7799POPC   GL230422  40.058  29.039   8.855
 7799POPC   C1A30423  40.017  29.177   8.555
 7799POPC   D2A30424  40.032  29.131   8.255
 7799POPC   C3A30425  39.999  29.156   7.955
 7799POPC   C4A30426  39.991  29.137   7.655
 7799POPC   C1B30427  40.022  28.938   8.555
 7799POPC   C2B30428  40.037  28.865   8.255
 7799POPC   C3B30429  39.999  28.909   7.955
 7799POPC   C4B30430  40.069  28.932   7.655
 7800POPC   NC330431  16.734   1.231   9.455
 7800POPC   PO430432  16.773   1.219   9.155
 7800POPC   GL130433  16.708   1.183   8.855
 7800POPC   GL230434  16.788   1.148   8.855
 7800POPC   C1A30435  16.695   1.237   8.555
 7800POPC   D2A30436  16.778   1.204   8.255
 7800POPC   C3A30437  16.697   1.195   7.955
 7800POPC   C4A30438  16.745   1.243   7.655
 7800POPC   C1B30439  16.858   1.022   8.555
 7800POPC   C2B30440  16.889   0.964   8.255
 7800POPC   C3B30441  16.894   1.003   7.955
 7800POPC   C4B30442  16.887   0.998   7.655
 7801POPC   NC330443  21.434  40.819   9.455
 7801POPC   PO430444  21.344  40.774   9.155
 7801POPC   GL130445  21.435  40.790   8.855
 7801POPC   GL230446  21.437  40.856   8.855
 7801POPC   C1A30447  21.352  40.790   8.555
 7801POPC   D2A30448  21.346  40.741   8.255
 7801POPC   C3A30449  21.385  40.776   7.955
 7801POPC   C4A30450  21.352  40.830   7.655
 7801POPC   C1B30451  21.542  40.965   8.555
 7801POPC   C2B30452  21.546  40.900   8.255
 7801POPC   C3B30453  21.617  40.981   7.955
 7801POPC   C4B30454  21.546  40.975   7.655
 7802POPC   NC330455  44.635  32.283   9.455
 7802POPC   PO430456  44.692  32.260   9.155
 7802POPC   GL130457  44.640  32.288   8.855
 7802POPC   GL230458  44.771  32.169   8.855
 7802POPC   C1A30459  44.682  32.279   8.555
 7802POPC   D2A30460  44.682  32.280   8.255
 7802POPC   C3A30461  44.644  32.240   7.955
 7802POPC   C4A30462  44.674  32.254   7.655
 7802POPC   C1B30463  44.891  32.121   8.555
 7802POPC   C2B30464  44.832  32.099   8.255
 7802POPC   C3B30465  44.860  32.080   7.955
 7802POPC   C4B30466  44.821  32.093   7.655
 7803POPC   NC330467   4.292  33.044   9.455
 7803POPC   PO430468   4.315  33.039   9.155
 7803POPC   GL130469   4.285  33.015   8.855
 7803POPC   GL230470   4.417  33.041   8.855
 7803POPC   C1A30471   4.293  33.048   8.555
 7803POPC   D2A30472   4.316  33.022   8.255
 7803POPC   C3A30473   4.316  33.025   7.955
 7803POPC   C4A30474   4.332  33.009   7.655
 7803POPC   C1B30475   4.523  33.156   8.555
 7803POPC   C2B30476   4.528  33.089   8.255
 7803POPC   C3B30477   4.508  33.165   7.955
 7803POPC   C4B30478   4.543  33.154   7.655
 7804POPC   NC330479  23.722  11.310   9.455
 7804POPC   PO430480  23.718  11.344   9.155
 7804POPC   GL130481  23.697  11.348   8.855
 7804POPC   GL230482  23.777  11.218   8.855
 7804POPC   C1A30483  23.744  11.325   8.555
 7804POPC   D2A30484  23.688  11.251   8.255
 7804POPC   C3A30485  23.719  11.291   7.955
 7804POPC   C4A30486  23.685  11.260   7.655
 7804POPC   C1B30487  23.856  11.117   8.555
 7804POPC   C2B30488  23.882  11.141   8.255
 7804POPC   C3B30489  23.875  11.094   7.955
 7804POPC   C4B30490  23.912  11.126   7.655
 7805POPC   NC330491   6.627  36.080   9.455
 7805POPC   PO430492   6.612  36.156   9.155
 7805POPC   GL130493   6.694  36.132   8.855
 7805POPC   GL230494   6.545  36.209   8.855
 7805POPC   C1A30495   6.610  36.112   8.555
 7805POPC   D2A30496   6.615  36.149   8.255
 7805POPC   C3A30497   6.671  36.097   7.955
 7805POPC   C4A30498   6.628  36.116   7.655
 7805POPC   C1B30499   6.465  36.357   8.555
 7805POPC   C2B30500   6.483  36.311   8.255
 7805POPC   C3B30501   6.530  36.288   7.955
 7805POPC   C4B30502   6.530  36.283   7.655
 7806POPC   NC330503   9.726   7.403   9.455
 7806POPC   PO430504   9.771   7.419   9.155
 7806POPC   GL130505   9.750   7.467   8.855
 7806POPC   GL230506   9.845   7.499   8.855
 7806POPC   C1A30507   9.706   7.447   8.555
 7806POPC   D2A30508   9.774   7.371   8.255
 7806POPC   C3A30509   9.756   7.412   7.955
 7806POPC   C4A30510   9.703   7.396   7.655
 7806POPC   C1B30511   9.985   7.583   8.555
 7806POPC   C2B30512   9.983   7.529   8.255
 7806POPC   C3B30513   9.983   7.528   7.955
 7806POPC   C4B30514   9.968   7.568   7.655
 7807POPC   NC330515  18.257   0.471   9.455
 7807POPC   PO430516  18.272   0.404   9.155
 7807POPC   GL130517  18.326   0.470   8.855
 7807POPC   GL230518  18.351   0.536   8.855
 7807POPC   C1A30519  18.250   0.476   8.555
 7807POPC   D2A30520  18.233   0.408   8.255
 7807POPC   C3A30521  18.242   0.468   7.955
 7807POPC   C4A30522  18.247   0.404   7.655
 7807POPC   C1B30523  18.379   0.605   8.555
 7807POPC   C2B30524  18.450   0.663   8.255
 7807POPC   C3B30525  18.379   0.630   7.955
 7807POPC   C4B30526  18.436   0.610   7.655
 7808POPC   NC330527  25.280  39.969   9.455
 7808POPC   PO430528  25.308  39.976   9.155
 7808POPC   GL130529  25.278  39.968   8.855
 7808POPC   GL230530  25.227  40.137   8.855
 7808POPC   C1A30531  25.293  40.029   8.555
 7808POPC   D2A30532  25.273  39.973   8.255
 7808POPC   C3A30533  25.311  39.989   7.955
 7808POPC   C4A30534  25.264  40.001   7.655
 7808POPC   C1B30535  25.128  40.234   8.555
 7808POPC   C2B30536  25.055  40.180   8.255
 7808POPC   C3B30537  25.078  40.186   7.955
 7808POPC   C4B30538  25.092  40.214   7.655
 7809POPC   NC330539  22.945  16.780   9.455
 7809POPC   PO430540  22.978  16.701   9.155
 7809POPC   GL130541  22.932  16.753   8.855
 7809POPC   GL230542  23.034  16.812   8.855
 7809POPC   C1A30543  22.941  16.726   8.555
 7809POPC   D2A30544  22.979  16.700   8.255
 7809POPC   C3A30545  22.909  16.759   7.955
 7809POPC   C4A30546  22.955  16.758   7.655
 7809POPC   C1B30547  23.184  16.805   8.555
 7809POPC   C2B30548  23.216  16.795   8.255
 7809POPC   C3B30549  23.125  16.845   7.955
 7809POPC   C4B30550  23.160  16.832   7.655
 7810POPC   NC330551  17.507   1.195   9.455
 7810POPC   PO430552  17.465   1.198   9.155
 7810POPC   GL130553  17.492   1.174   8.855
 7810POPC   GL230554  17.559   1.138   8.855
 7810POPC   C1A30555  17.519   1.238   8.555
 7810POPC   D2A30556  17.513   1.202   8.255
 7810POPC   C3A30557  17.492   1.251   7.955
 7810POPC   C4A30558  17.488   1.234   7.655
 7810POPC   C1B30559  17.520   0.990   8.555
 7810POPC   C2B30560  17.487   1.008   8.255
 7810POPC   C3B30561  17.566   0.996   7.955
 7810POPC   C4B30562  17.571   0.994   7.655
 7811POPC   NC330563  12.836  20.644   9.455
 7811POPC   PO430564  12.834  20.594   9.155
 7811POPC   GL130565  12.864  20.561   8.855
 7811POPC   GL230566  12.998  20.636   8.855
 7811POPC   C1A30567  12.833  20.572   8.555
 7811POPC   D2A30568  12.896  20.623   8.255
 7811POPC   C3A30569  12.864  20.603   7.955
 7811POPC   C4A30570  12.838  20.587   7.655
 7811POPC   C1B30571  13.121  20.638   8.555
 7811POPC   C2B30572  13.108  20.670   8.255
 7811POPC   C3B30573  13.056  20.610   7.955
 7811POPC   C4B30574  13.144  20.680   7.655
 7812POPC   NC330575  22.131  17.546   9.455
 7812POPC   PO430576  22.175  17.496   9.155
 7812POPC   GL130577  22.196  17.465   8.855
 7812POPC   GL230578  22.178  17.380   8.855
 7812POPC   C1A30579  22.146  17.499   8.555
 7812POPC   D2A30580  22.168  17.488   8.255
 7812POPC   C3A30581  22.170  17.465   7.955
 7812POPC   C4A30582  22.112  17.541   7.655
 7812POPC   C1B30583  22.305  17.251   8.555
 7812POPC   C2B30584  22.244  17.302   8.255
 7812POPC   C3B30585  22.250  17.290   7.955
 7812POPC   C4B30586  22.236  17.275   7.655
 7813POPC   NC330587  29.934  15.946   9.455
 7813POPC   PO430588  29.939  15.910   9.155
 7813POPC   GL130589  29.915  15.988   8.855
 7813POPC   GL230590  30.011  16.020   8.855
 7813POPC   C1A30591  29.939  15.998   8.555
 7813POPC   D2A30592  29.926  15.975   8.255
 7813POPC   C3A30593  29.943  15.985   7.955
 7813POPC   C4A30594  29.915  15.952   7.655
 7813POPC   C1B30595  30.107  16.110   8.555
 7813POPC   C2B30596  30.147  16.057   8.255
 7813POPC   C3B30597  30.094  16.101   7.955
 7813POPC   C4B30598  30.145  16.125   7.655
 7814POPC   NC330599  22.137   1.221   9.455
 7814POPC   PO430600  22.186   1.172   9.155
 7814POPC   GL130601  22.197   1.236   8.855
 7814POPC   GL230602  22.272   1.166   8.855
 7814POPC   C1A30603  22.148   1.237   8.555
 7814POPC   D2A30604  22.196   1.171   8.255
 7814POPC   C3A30605  22.157   1.226   7.955
 7814POPC   C4A30606  22.122   1.230   7.655
 7814POPC   C1B30607  22.385   1.046   8.555
 7814POPC   C2B30608  22.326   1.091   8.255
 7814POPC   C3B30609  22.379   1.034   7.955
 7814POPC   C4B30610  22.363   1.041   7.655
 7815POPC   NC330611  43.848  15.149   9.455
 7815POPC   PO430612  43.922  15.220   9.155
 7815POPC   GL130613  43.867  15.177   8.855
 7815POPC   GL230614  43.734  15.151   8.855
 7815POPC   C1A30615  43.856  15.166   8.555
 7815POPC   D2A30616  43.899  15.175   8.255
 7815POPC   C3A30617  43.926  15.156   7.955
 7815POPC   C4A30618  43.919  15.195   7.655
 7815POPC   C1B30619  43.608  15.112   8.555
 7815POPC   C2B30620  43.655  15.152   8.255
 7815POPC   C3B30621  43.622  15.142   7.955
 7815POPC   C4B30622  43.663  15.115   7.655
 7816POPC   NC330623  21.416  29.952   9.455
 7816POPC   PO430624  21.393  29.873   9.155
 7816POPC   GL130625  21.360  29.960   8.855
 7816POPC   GL230626  21.540  29.850   8.855
 7816POPC   C1A30627  21.390  29.928   8.555
 7816POPC   D2A30628  21.431  29.955   8.255
 7816POPC   C3A30629  21.397  29.885   7.955
 7816POPC   C4A30630  21.413  29.909   7.655
 7816POPC   C1B30631  21.561  29.830   8.555
 7816POPC   C2B30632  21.591  29.749   8.255
 7816POPC   C3B30633  21.575  29.790   7.955
 7816POPC   C4B30634  21.597  29.803   7.655
 7817POPC   NC330635  11.314  29.888   9.455
 7817POPC   PO430636  11.342  29.963   9.155
 7817POPC   GL130637  11.252  29.900   8.855
 7817POPC   GL230638  11.300  29.843   8.855
 7817POPC   C1A30639  11.336  29.875   8.555
 7817POPC   D2A30640  11.336  29.953   8.255
 7817POPC   C3A30641  11.261  29.956   7.955
 7817POPC   C4A30642  11.310  29.916   7.655
 7817POPC   C1B30643  11.185  29.722   8.555
 7817POPC   C2B30644  11.217  29.731   8.255
 7817POPC   C3B30645  11.167  29.685   7.955
 7817POPC   C4B30646  11.214  29.736   7.655
 7818POPC   NC330647  34.605  39.198   9.455
 7818POPC   PO430648  34.585  39.183   9.155
 7818POPC   GL130649  34.598  39.209   8.855
 7818POPC   GL230650  34.505  39.293   8.855
 7818POPC   C1A30651  34.595  39.241   8.555
 7818POPC   D2A30652  34.603  39.210   8.255
 7818POPC   C3A30653  34.606  39.229   7.955
 7818POPC   C4A30654  34.617  39.217   7.655
 7818POPC   C1B30655  34.394  39.303   8.555
 7818POPC   C2B30656  34.362  39.351   8.255
 7818POPC   C3B30657  34.407  39.374   7.955
 7818POPC   C4B30658  34.371  39.303   7.655
 7819POPC   NC330659  35.343  26.032   9.455
 7819POPC   PO430660  35.373  26.074   9.155
 7819POPC   GL130661  35.312  26.024   8.855
 7819POPC   GL230662  35.432  26.149   8.855
 7819POPC   C1A30663  35.327  26.085   8.555
 7819POPC   D2A30664  35.391  26.044   8.255
 7819POPC   C3A30665  35.342  26.071   7.955
 7819POPC   C4A30666  35.370  26.084   7.655
 7819POPC   C1B30667  35.512  26.216   8.555
 7819POPC   C2B30668  35.567  26.272   8.255
 7819POPC   C3B30669  35.568  26.275   7.955
 7819POPC   C4B30670  35.559  26.257   7.655
 7820POPC   NC330671  36.083  17.548   9.455
 7820POPC   PO430672  36.116  17.551   9.155
 7820POPC   GL130673  36.137  17.473   8.855
 7820POPC   GL230674  36.245  17.482   8.855
 7820POPC   C1A30675  36.168  17.487   8.555
 7820POPC   D2A30676  36.144  17.532   8.255
 7820POPC   C3A30677  36.139  17.481   7.955
 7820POPC   C4A30678  36.105  17.484   7.655
 7820POPC   C1B30679  36.383  17.507   8.555
 7820POPC   C2B30680  36.335  17.517   8.255
 7820POPC   C3B30681  36.382  17.437   7.955
 7820POPC   C4B30682  36.363  17.471   7.655
 7821POPC   NC330683  19.041   7.414   9.455
 7821POPC   PO430684  19.011   7.416   9.155
 7821POPC   GL130685  19.061   7.443   8.855
 7821POPC   GL230686  19.000   7.467   8.855
 7821POPC   C1A30687  19.046   7.416   8.555
 7821POPC   D2A30688  19.104   7.379   8.255
 7821POPC   C3A30689  19.015   7.409   7.955
 7821POPC   C4A30690  19.094   7.384   7.655
 7821POPC   C1B30691  18.859   7.576   8.555
 7821POPC   C2B30692  18.841   7.552   8.255
 7821POPC   C3B30693  18.830   7.530   7.955
 7821POPC   C4B30694  18.835   7.534   7.655
 7822POPC   NC330695   4.298  31.491   9.455
 7822POPC   PO430696   4.290  31.443   9.155
 7822POPC   GL130697   4.341  31.481   8.855
 7822POPC   GL230698   4.404  31.349   8.855
 7822POPC   C1A30699   4.279  31.513   8.555
 7822POPC   D2A30700   4.279  31.496   8.255
 7822POPC   C3A30701   4.273  31.475   7.955
 7822POPC   C4A30702   4.304  31.493   7.655
 7822POPC   C1B30703   4.409  31.234   8.555
 7822POPC   C2B30704   4.471  31.226   8.255
 7822POPC   C3B30705   4.423  31.267   7.955
 7822POPC   C4B30706   4.442  31.261   7.655
 7823POPC   NC330707  39.204  26.052   9.455
 7823POPC   PO430708  39.209  26.063   9.155
 7823POPC   GL130709  39.202  26.023   8.855
 7823POPC   GL230710  39.246  26.116   8.855
 7823POPC   C1A30711  39.192  26.088   8.555
 7823POPC   D2A30712  39.257  26.055   8.255
 7823POPC   C3A30713  39.186  26.075   7.955
 7823POPC   C4A30714  39.279  26.012   7.655
 7823POPC   C1B30715  39.298  26.272   8.555
 7823POPC   C2B30716  39.312  26.316   8.255
 7823POPC   C3B30717  39.336  26.272   7.955
 7823POPC   C4B30718  39.288  26.240   7.655
 7824POPC   NC330719  18.287  12.822   9.455
 7824POPC   PO430720  18.315  12.887   9.155
 7824POPC   GL130721  18.300  12.809   8.855
 7824POPC   GL230722  18.333  12.705   8.855
 7824POPC   C1A30723  18.277  12.883   8.555
 7824POPC   D2A30724  18.242  12.811   8.255
 7824POPC   C3A30725  18.303  12.880   7.955
 7824POPC   C4A30726  18.244  12.885   7.655
 7824POPC   C1B30727  18.384  12.599   8.555
 7824POPC   C2B30728  18.382  12.648   8.255
 7824POPC   C3B30729  18.392  12.648   7.955
 7824POPC   C4B30730  18.359  12.587   7.655
 7825POPC   NC330731  14.423  44.655   9.455
 7825POPC   PO430732  14.404  44.626   9.155
 7825POPC   GL130733  14.433  44.694   8.855
 7825POPC   GL230734  14.432  44.561   8.855
 7825POPC   C1A30735  14.405  44.710   8.555
 7825POPC   D2A30736  14.432  44.710   8.255
 7825POPC   C3A30737  14.394  44.661   7.955
 7825POPC   C4A30738  14.411  44.711   7.655
 7825POPC   C1B30739  14.432  44.435   8.555
 7825POPC   C2B30740  14.454  44.374   8.255
 7825POPC   C3B30741  14.425  44.398   7.955
 7825POPC   C4B30742  14.400  44.370   7.655
 7826POPC   NC330743   1.212  29.162   9.455
 7826POPC   PO430744   1.197  29.151   9.155
 7826POPC   GL130745   1.168  29.156   8.855
 7826POPC   GL230746   1.160  29.228   8.855
 7826POPC   C1A30747   1.262  29.125   8.555
 7826POPC   D2A30748   1.165  29.122   8.255
 7826POPC   C3A30749   1.216  29.193   7.955
 7826POPC   C4A30750   1.171  29.147   7.655
 7826POPC   C1B30751   1.072  29.348   8.555
 7826POPC   C2B30752   1.086  29.409   8.255
 7826POPC   C3B30753   1.098  29.409   7.955
 7826POPC   C4B30754   1.093  29.370   7.655
 7827POPC   NC330755  42.373  35.339   9.455
 7827POPC   PO430756  42.360  35.386   9.155
 7827POPC   GL130757  42.380  35.326   8.855
 7827POPC   GL230758  42.278  35.468   8.855
 7827POPC   C1A30759  42.292  35.321   8.555
 7827POPC   D2A30760  42.295  35.378   8.255
 7827POPC   C3A30761  42.346  35.393   7.955
 7827POPC   C4A30762  42.294  35.317   7.655
 7827POPC   C1B30763  42.242  35.565   8.555
 7827POPC   C2B30764  42.257  35.552   8.255
 7827POPC   C3B30765  42.271  35.574   7.955
 7827POPC   C4B30766  42.218  35.634   7.655
 7828POPC   NC330767  20.577  28.330   9.455
 7828POPC   PO430768  20.654  28.322   9.155
 7828POPC   GL130769  20.608  28.379   8.855
 7828POPC   GL230770  20.779  28.333   8.855
 7828POPC   C1A30771  20.658  28.366   8.555
 7828POPC   D2A30772  20.571  28.325   8.255
 7828POPC   C3A30773  20.584  28.395   7.955
 7828POPC   C4A30774  20.589  28.347   7.655
 7828POPC   C1B30775  20.811  28.323   8.555
 7828POPC   C2B30776  20.811  28.280   8.255
 7828POPC   C3B30777  20.834  28.298   7.955
 7828POPC   C4B30778  20.851  28.267   7.655
 7829POPC   NC330779  27.582  23.711   9.455
 7829POPC   PO430780  27.577  23.677   9.155
 7829POPC   GL130781  27.573  23.756   8.855
 7829POPC   GL230782  27.541  23.588   8.855
 7829POPC   C1A30783  27.563  23.678   8.555
 7829POPC   D2A30784  27.611  23.721   8.255
 7829POPC   C3A30785  27.554  23.691   7.955
 7829POPC   C4A30786  27.620  23.684   7.655
 7829POPC   C1B30787  27.522  23.527   8.555
 7829POPC   C2B30788  27.481  23.533   8.255
 7829POPC   C3B30789  27.516  23.504   7.955
 7829POPC   C4B30790  27.509  23.478   7.655
 7830POPC   NC330791  25.238   5.048   9.455
 7830POPC   PO430792  25.301   5.109   9.155
 7830POPC   GL130793  25.272   5.092   8.855
 7830POPC   GL230794  25.292   5.172   8.855
 7830POPC   C1A30795  25.249   5.059   8.555
 7830POPC   D2A30796  25.308   5.076   8.255
 7830POPC   C3A30797  25.255   5.133   7.955
 7830POPC   C4A30798  25.292   5.071   7.655
 7830POPC   C1B30799  25.391   5.324   8.555
 7830POPC   C2B30800  25.418   5.314   8.255
 7830POPC   C3B30801  25.365   5.331   7.955
 7830POPC   C4B30802  25.390   5.316   7.655
 7831POPC   NC330803   8.215  31.506   9.455
 7831POPC   PO430804   8.161  31.477   9.155
 7831POPC   GL130805   8.206  31.522   8.855
 7831POPC   GL230806   8.228  31.372   8.855
 7831POPC   C1A30807   8.166  31.477   8.555
 7831POPC   D2A30808   8.168  31.521   8.255
 7831POPC   C3A30809   8.222  31.484   7.955
 7831POPC   C4A30810   8.245  31.446   7.655
 7831POPC   C1B30811   8.237  31.218   8.555
 7831POPC   C2B30812   8.230  31.246   8.255
 7831POPC   C3B30813   8.168  31.272   7.955
 7831POPC   C4B30814   8.248  31.257   7.655
 7832POPC   NC330815  19.045   1.981   9.455
 7832POPC   PO430816  19.098   2.033   9.155
 7832POPC   GL130817  19.104   2.017   8.855
 7832POPC   GL230818  19.141   1.948   8.855
 7832POPC   C1A30819  19.020   1.951   8.555
 7832POPC   D2A30820  19.035   1.948   8.255
 7832POPC   C3A30821  19.058   1.998   7.955
 7832POPC   C4A30822  19.100   1.966   7.655
 7832POPC   C1B30823  19.250   1.880   8.555
 7832POPC   C2B30824  19.277   1.853   8.255
 7832POPC   C3B30825  19.312   1.945   7.955
 7832POPC   C4B30826  19.306   1.909   7.655
 7833POPC   NC330827  19.067  36.130   9.455
 7833POPC   PO430828  19.023  36.097   9.155
 7833POPC   GL130829  19.105  36.120   8.855
 7833POPC   GL230830  18.909  36.160   8.855
 7833POPC   C1A30831  19.048  36.126   8.555
 7833POPC   D2A30832  19.091  36.132   8.255
 7833POPC   C3A30833  19.015  36.167   7.955
 7833POPC   C4A30834  19.108  36.176   7.655
 7833POPC   C1B30835  18.828  36.231   8.555
 7833POPC   C2B30836  18.795  36.204   8.255
 7833POPC   C3B30837  18.839  36.166   7.955
 7833POPC   C4B30838  18.814  36.178   7.655
 7834POPC   NC330839  21.351  42.359   9.455
 7834POPC   PO430840  21.343  42.370   9.155
 7834POPC   GL130841  21.400  42.291   8.855
 7834POPC   GL230842  21.316  42.267   8.855
 7834POPC   C1A30843  21.365  42.367   8.555
 7834POPC   D2A30844  21.382  42.308   8.255
 7834POPC   C3A30845  21.403  42.360   7.955
 7834POPC   C4A30846  21.377  42.293   7.655
 7834POPC   C1B30847  21.213  42.153   8.555
 7834POPC   C2B30848  21.203  42.186   8.255
 7834POPC   C3B30849  21.239  42.112   7.955
 7834POPC   C4B30850  21.215  42.091   7.655
 7835POPC   NC330851  42.320  43.090   9.455
 7835POPC   PO430852  42.309  43.128   9.155
 7835POPC   GL130853  42.290  43.070   8.855
 7835POPC   GL230854  42.309  43.273   8.855
 7835POPC   C1A30855  42.339  43.133   8.555
 7835POPC   D2A30856  42.358  43.155   8.255
 7835POPC   C3A30857  42.355  43.096   7.955
 7835POPC   C4A30858  42.314  43.119   7.655
 7835POPC   C1B30859  42.354  43.336   8.555
 7835POPC   C2B30860  42.331  43.408   8.255
 7835POPC   C3B30861  42.400  43.340   7.955
 7835POPC   C4B30862  42.343  43.353   7.655
 7836POPC   NC330863  20.596   4.305   9.455
 7836POPC   PO430864  20.589   4.310   9.155
 7836POPC   GL130865  20.634   4.316   8.855
 7836POPC   GL230866  20.547   4.481   8.855
 7836POPC   C1A30867  20.625   4.276   8.555
 7836POPC   D2A30868  20.635   4.367   8.255
 7836POPC   C3A30869  20.570   4.337   7.955
 7836POPC   C4A30870  20.635   4.351   7.655
 7836POPC   C1B30871  20.529   4.518   8.555
 7836POPC   C2B30872  20.529   4.518   8.255
 7836POPC   C3B30873  20.539   4.606   7.955
 7836POPC   C4B30874  20.625   4.570   7.655
 7837POPC   NC330875  31.430  20.638   9.455
 7837POPC   PO430876  31.430  20.651   9.155
 7837POPC   GL130877  31.436  20.606   8.855
 7837POPC   GL230878  31.496  20.515   8.855
 7837POPC   C1A30879  31.462  20.594   8.555
 7837POPC   D2A30880  31.509  20.618   8.255
 7837POPC   C3A30881  31.470  20.601   7.955
 7837POPC   C4A30882  31.478  20.647   7.655
 7837POPC   C1B30883  31.570  20.396   8.555
 7837POPC   C2B30884  31.544  20.351   8.255
 7837POPC   C3B30885  31.577  20.329   7.955
 7837POPC   C4B30886  31.552  20.390   7.655
 7838POPC   NC330887   5.084  36.929   9.455
 7838POPC   PO430888   5.127  36.893   9.155
 7838POPC   GL130889   5.059  36.930   8.855
 7838POPC   GL230890   5.195  36.776   8.855
 7838POPC   C1A30891   5.093  36.888   8.555
 7838POPC   D2A30892   5.123  36.915   8.255
 7838POPC   C3A30893   5.136  36.944   7.955
 7838POPC   C4A30894   5.051  36.908   7.655
 7838POPC   C1B30895   5.250  36.719   8.555
 7838POPC   C2B30896   5.207  36.712   8.255
 7838POPC   C3B30897   5.254  36.709   7.955
 7838POPC   C4B30898   5.254  36.719   7.655
 7839POPC   NC330899  39.252   2.723   9.455
 7839POPC   PO430900  39.223   2.746   9.155
 7839POPC   GL130901  39.224   2.716   8.855
 7839POPC   GL230902  39.116   2.736   8.855
 7839POPC   C1A30903  39.230   2.781   8.555
 7839POPC   D2A30904  39.227   2.786   8.255
 7839POPC   C3A30905  39.206   2.802   7.955
 7839POPC   C4A30906  39.274   2.724   7.655
 7839POPC   C1B30907  38.992   2.651   8.555
 7839POPC   C2B30908  38.985   2.714   8.255
 7839POPC   C3B30909  38.970   2.711   7.955
 7839POPC   C4B30910  39.034   2.705   7.655
 7840POPC   NC330911   2.741  19.811   9.455
 7840POPC   PO430912   2.801  19.845   9.155
 7840POPC   GL130913   2.775  19.877   8.855
 7840POPC   GL230914   2.832  19.780   8.855
 7840POPC   C1A30915   2.739  19.814   8.555
 7840POPC   D2A30916   2.733  19.801   8.255
 7840POPC   C3A30917   2.743  19.850   7.955
 7840POPC   C4A30918   2.768  19.876   7.655
 7840POPC   C1B30919   2.991  19.697   8.555
 7840POPC   C2B30920   3.033  19.776   8.255
 7840POPC   C3B30921   2.996  19.685   7.955
 7840POPC   C4B30922   2.951  19.723   7.655
 7841POPC   NC330923  39.262  39.987   9.455
 7841POPC   PO430924  39.218  40.013   9.155
 7841POPC   GL130925  39.197  40.039   8.855
 7841POPC   GL230926  39.319  40.067   8.855
 7841POPC   C1A30927  39.196  39.979   8.555
 7841POPC   D2A30928  39.218  40.043   8.255
 7841POPC   C3A30929  39.231  39.997   7.955
 7841POPC   C4A30930  39.260  39.987   7.655
 7841POPC   C1B30931  39.439  40.055   8.555
 7841POPC   C2B30932  39.509  40.074   8.255
 7841POPC   C3B30933  39.503  40.048   7.955
 7841POPC   C4B30934  39.462  40.039   7.655
 7842POPC   NC330935  39.255  44.688   9.455
 7842POPC   PO430936  39.204  44.665   9.155
 7842POPC   GL130937  39.267  44.659   8.855
 7842POPC   GL230938  39.328  44.790   8.855
 7842POPC   C1A30939  39.213  44.629   8.555
 7842POPC   D2A30940  39.224  44.655   8.255
 7842POPC   C3A30941  39.264  44.615   7.955
 7842POPC   C4A30942  39.218  44.705   7.655
 7842POPC   C1B30943  39.372  44.892   8.555
 7842POPC   C2B30944  39.397  44.911   8.255
 7842POPC   C3B30945  39.430  44.882   7.955
 7842POPC   C4B30946  39.392  44.813   7.655
 7843POPC   NC330947  37.648  39.982   9.455
 7843POPC   PO430948  37.711  40.030   9.155
 7843POPC   GL130949  37.728  40.013   8.855
 7843POPC   GL230950  37.779  40.079   8.855
 7843POPC   C1A30951  37.714  40.017   8.555
 7843POPC   D2A30952  37.700  39.971   8.255
 7843POPC   C3A30953  37.702  39.985   7.955
 7843POPC   C4A30954  37.647  39.985   7.655
 7843POPC   C1B30955  37.922  40.135   8.555
 7843POPC   C2B30956  37.859  40.084   8.255
 7843POPC   C3B30957  37.905  40.150   7.955
 7843POPC   C4B30958  37.939  40.165   7.655
 7844POPC   NC330959   1.181  17.466   9.455
 7844POPC   PO430960   1.233  17.530   9.155
 7844POPC   GL130961   1.231  17.482   8.855
 7844POPC   GL230962   1.308  17.439   8.855
 7844POPC   C1A30963   1.251  17.504   8.555
 7844POPC   D2A30964   1.213  17.534   8.255
 7844POPC   C3A30965   1.235  17.518   7.955
 7844POPC   C4A30966   1.209  17.541   7.655
 7844POPC   C1B30967   1.432  17.416   8.555
 7844POPC   C2B30968   1.501  17.431   8.255
 7844POPC   C3B30969   1.480  17.481   7.955
 7844POPC   C4B30970   1.476  17.450   7.655
 7845POPC   NC330971  36.150  16.705   9.455
 7845POPC   PO430972  36.167  16.714   9.155
 7845POPC   GL130973  36.169  16.751   8.855
 7845POPC   GL230974  36.003  16.785   8.855
 7845POPC   C1A30975  36.110  16.766   8.555
 7845POPC   D2A30976  36.139  16.701   8.255
 7845POPC   C3A30977  36.087  16.737   7.955
 7845POPC   C4A30978  36.159  16.745   7.655
 7845POPC   C1B30979  35.884  16.891   8.555
 7845POPC   C2B30980  35.908  16.823   8.255
 7845POPC   C3B30981  35.954  16.891   7.955
 7845POPC   C4B30982  35.888  16.905   7.655
 7846POPC   NC330983  19.094   1.247   9.455
 7846POPC   PO430984  19.093   1.185   9.155
 7846POPC   GL130985  19.026   1.206   8.855
 7846POPC   GL230986  18.928   1.220   8.855
 7846POPC   C1A30987  19.104   1.249   8.555
 7846POPC   D2A30988  19.039   1.214   8.255
 7846POPC   C3A30989  19.093   1.241   7.955
 7846POPC   C4A30990  19.082   1.178   7.655
 7846POPC   C1B30991  18.789   1.326   8.555
 7846POPC   C2B30992  18.845   1.278   8.255
 7846POPC   C3B30993  18.827   1.253   7.955
 7846POPC   C4B30994  18.867   1.325   7.655
 7847POPC   NC330995  26.791   6.657   9.455
 7847POPC   PO430996  26.813   6.645   9.155
 7847POPC   GL130997  26.796   6.678   8.855
 7847POPC   GL230998  26.863   6.752   8.855
 7847POPC   C1A30999  26.774   6.663   8.555
 7847POPC   D2A31000  26.859   6.680   8.255
 7847POPC   C3A31001  26.795   6.621   7.955
 7847POPC   C4A31002  26.843   6.604   7.655
 7847POPC   C1B31003  27.037   6.851   8.555
 7847POPC   C2B31004  27.051   6.787   8.255
 7847POPC   C3B31005  26.975   6.855   7.955
 7847POPC   C4B31006  26.962   6.825   7.655
 7848POPC   NC331007  42.316  30.724   9.455
 7848POPC   PO431008  42.305  30.729   9.155
 7848POPC   GL131009  42.293  30.681   8.855
 7848POPC   GL231010  42.280  30.571   8.855
 7848POPC   C1A31011  42.372  30.648   8.555
 7848POPC   D2A31012  42.346  30.671   8.255
 7848POPC   C3A31013  42.374  30.656   7.955
 7848POPC   C4A31014  42.320  30.675   7.655
 7848POPC   C1B31015  42.237  30.455   8.555
 7848POPC   C2B31016  42.246  30.519   8.255
 7848POPC   C3B31017  42.237  30.446   7.955
 7848POPC   C4B31018  42.262  30.525   7.655
 7849POPC   NC331019  27.640  13.591   9.455
 7849POPC   PO431020  27.611  13.612   9.155
 7849POPC   GL131021  27.582  13.602   8.855
 7849POPC   GL231022  27.746  13.554   8.855
 7849POPC   C1A31023  27.620  13.635   8.555
 7849POPC   D2A31024  27.554  13.615   8.255
 7849POPC   C3A31025  27.616  13.650   7.955
 7849POPC   C4A31026  27.590  13.657   7.655
 7849POPC   C1B31027  27.825  13.508   8.555
 7849POPC   C2B31028  27.872  13.530   8.255
 7849POPC   C3B31029  27.868  13.558   7.955
 7849POPC   C4B31030  27.788  13.563   7.655
 7850POPC   NC331031   9.022  30.726   9.455
 7850POPC   PO431032   8.929  30.660   9.155
 7850POPC   GL131033   8.974  30.738   8.855
 7850POPC   GL231034   9.062  30.847   8.855
 7850POPC   C1A31035   8.923  30.719   8.555
 7850POPC   D2A31036   8.945  30.733   8.255
 7850POPC   C3A31037   8.988  30.691   7.955
 7850POPC   C4A31038   8.957  30.721   7.655
 7850POPC   C1B31039   9.134  30.947   8.555
 7850POPC   C2B31040   9.074  30.892   8.255
 7850POPC   C3B31041   9.039  30.913   7.955
 7850POPC   C4B31042   9.083  30.929   7.655
 7851POPC   NC331043  43.125  44.634   9.455
 7851POPC   PO431044  43.062  44.686   9.155
 7851POPC   GL131045  43.104  44.663   8.855
 7851POPC   GL231046  43.108  44.515   8.855
 7851POPC   C1A31047  43.151  44.643   8.555
 7851POPC   D2A31048  43.138  44.614   8.255
 7851POPC   C3A31049  43.088  44.685   7.955
 7851POPC   C4A31050  43.071  44.693   7.655
 7851POPC   C1B31051  43.134  44.444   8.555
 7851POPC   C2B31052  43.133  44.377   8.255
 7851POPC   C3B31053  43.089  44.441   7.955
 7851POPC   C4B31054  43.168  44.396   7.655
 7852POPC   NC331055  15.190  33.762   9.455
 7852POPC   PO431056  15.143  33.804   9.155
 7852POPC   GL131057  15.136  33.805   8.855
 7852POPC   GL231058  15.081  33.645   8.855
 7852POPC   C1A31059  15.217  33.825   8.555
 7852POPC   D2A31060  15.149  33.785   8.255
 7852POPC   C3A31061  15.199  33.829   7.955
 7852POPC   C4A31062  15.146  33.837   7.655
 7852POPC   C1B31063  15.005  33.609   8.555
 7852POPC   C2B31064  15.059  33.547   8.255
 7852POPC   C3B31065  15.034  33.546   7.955
 7852POPC   C4B31066  15.070  33.544   7.655
 7853POPC   NC331067  32.281  39.217   9.455
 7853POPC   PO431068  32.285  39.219   9.155
 7853POPC   GL131069  32.271  39.204   8.855
 7853POPC   GL231070  32.181  39.334   8.855
 7853POPC   C1A31071  32.279  39.217   8.555
 7853POPC   D2A31072  32.270  39.242   8.255
 7853POPC   C3A31073  32.234  39.266   7.955
 7853POPC   C4A31074  32.242  39.243   7.655
 7853POPC   C1B31075  32.155  39.484   8.555
 7853POPC   C2B31076  32.078  39.419   8.255
 7853POPC   C3B31077  32.100  39.420   7.955
 7853POPC   C4B31078  32.143  39.449   7.655
 7854POPC   NC331079   2.002  24.453   9.455
 7854POPC   PO431080   1.942  24.504   9.155
 7854POPC   GL131081   2.033  24.533   8.855
 7854POPC   GL231082   2.039  24.587   8.855
 7854POPC   C1A31083   1.973  24.480   8.555
 7854POPC   D2A31084   1.974  24.496   8.255
 7854POPC   C3A31085   2.002  24.485   7.955
 7854POPC   C4A31086   1.961  24.516   7.655
 7854POPC   C1B31087   1.989  24.770   8.555
 7854POPC   C2B31088   2.069  24.712   8.255
 7854POPC   C3B31089   2.070  24.770   7.955
 7854POPC   C4B31090   2.077  24.722   7.655
 7855POPC   NC331091   8.206  12.059   9.455
 7855POPC   PO431092   8.151  12.103   9.155
 7855POPC   GL131093   8.173  12.069   8.855
 7855POPC   GL231094   8.236  12.187   8.855
 7855POPC   C1A31095   8.214  12.093   8.555
 7855POPC   D2A31096   8.172  12.042   8.255
 7855POPC   C3A31097   8.212  12.063   7.955
 7855POPC   C4A31098   8.243  12.120   7.655
 7855POPC   C1B31099   8.202  12.277   8.555
 7855POPC   C2B31100   8.162  12.293   8.255
 7855POPC   C3B31101   8.177  12.282   7.955
 7855POPC   C4B31102   8.222  12.360   7.655
 7856POPC   NC331103  29.128  26.847   9.455
 7856POPC   PO431104  29.130  26.767   9.155
 7856POPC   GL131105  29.179  26.769   8.855
 7856POPC   GL231106  29.036  26.818   8.855
 7856POPC   C1A31107  29.116  26.787   8.555
 7856POPC   D2A31108  29.130  26.785   8.255
 7856POPC   C3A31109  29.124  26.826   7.955
 7856POPC   C4A31110  29.160  26.858   7.655
 7856POPC   C1B31111  28.860  26.860   8.555
 7856POPC   C2B31112  28.928  26.877   8.255
 7856POPC   C3B31113  28.944  26.821   7.955
 7856POPC   C4B31114  28.883  26.819   7.655
 7857POPC   NC331115  33.789  19.017   9.455
 7857POPC   PO431116  33.775  19.050   9.155
 7857POPC   GL131117  33.776  19.064   8.855
 7857POPC   GL231118  33.707  19.063   8.855
 7857POPC   C1A31119  33.820  19.077   8.555
 7857POPC   D2A31120  33.786  19.107   8.255
 7857POPC   C3A31121  33.775  19.039   7.955
 7857POPC   C4A31122  33.828  19.100   7.655
 7857POPC   C1B31123  33.601  19.007   8.555
 7857POPC   C2B31124  33.559  18.985   8.255
 7857POPC   C3B31125  33.513  18.950   7.955
 7857POPC   C4B31126  33.590  18.969   7.655
 7858POPC   NC331127   2.813  40.771   9.455
 7858POPC   PO431128   2.756  40.824   9.155
 7858POPC   GL131129   2.720  40.780   8.855
 7858POPC   GL231130   2.899  40.804   8.855
 7858POPC   C1A31131   2.804  40.771   8.555
 7858POPC   D2A31132   2.815  40.752   8.255
 7858POPC   C3A31133   2.748  40.753   7.955
 7858POPC   C4A31134   2.718  40.805   7.655
 7858POPC   C1B31135   3.005  40.819   8.555
 7858POPC   C2B31136   3.016  40.845   8.255
 7858POPC   C3B31137   3.054  40.787   7.955
 7858POPC   C4B31138   2.998  40.797   7.655
 7859POPC   NC331139   2.813  37.659   9.455
 7859POPC   PO431140   2.722  37.714   9.155
 7859POPC   GL131141   2.729  37.687   8.855
 7859POPC   GL231142   2.643  37.781   8.855
 7859POPC   C1A31143   2.732  37.693   8.555
 7859POPC   D2A31144   2.736  37.669   8.255
 7859POPC   C3A31145   2.747  37.642   7.955
 7859POPC   C4A31146   2.815  37.715   7.655
 7859POPC   C1B31147   2.596  37.804   8.555
 7859POPC   C2B31148   2.612  37.834   8.255
 7859POPC   C3B31149   2.593  37.806   7.955
 7859POPC   C4B31150   2.545  37.801   7.655
 7860POPC   NC331151   1.991  22.152   9.455
 7860POPC   PO431152   2.038  22.192   9.155
 7860POPC   GL131153   1.995  22.132   8.855
 7860POPC   GL231154   2.101  22.170   8.855
 7860POPC   C1A31155   1.994  22.131   8.555
 7860POPC   D2A31156   1.987  22.200   8.255
 7860POPC   C3A31157   1.997  22.139   7.955
 7860POPC   C4A31158   2.011  22.123   7.655
 7860POPC   C1B31159   2.279  22.146   8.555
 7860POPC   C2B31160   2.229  22.195   8.255
 7860POPC   C3B31161   2.249  22.175   7.955
 7860POPC   C4B31162   2.278  22.117   7.655
 7861POPC   NC331163  10.506  23.719   9.455
 7861POPC   PO431164  10.563  23.712   9.155
 7861POPC   GL131165  10.493  23.704   8.855
 7861POPC   GL231166  10.544  23.623   8.855
 7861POPC   C1A31167  10.489  23.750   8.555
 7861POPC   D2A31168  10.525  23.762   8.255
 7861POPC   C3A31169  10.571  23.723   7.955
 7861POPC   C4A31170  10.559  23.745   7.655
 7861POPC   C1B31171  10.504  23.480   8.555
 7861POPC   C2B31172  10.488  23.515   8.255
 7861POPC   C3B31173  10.477  23.465   7.955
 7861POPC   C4B31174  10.445  23.485   7.655
 7862POPC   NC331175  19.051   9.010   9.455
 7862POPC   PO431176  19.075   8.998   9.155
 7862POPC   GL131177  19.024   8.966   8.855
 7862POPC   GL231178  19.028   8.837   8.855
 7862POPC   C1A31179  19.057   8.930   8.555
 7862POPC   D2A31180  19.097   9.004   8.255
 7862POPC   C3A31181  19.043   9.014   7.955
 7862POPC   C4A31182  19.089   8.984   7.655
 7862POPC   C1B31183  18.986   8.741   8.555
 7862POPC   C2B31184  18.993   8.774   8.255
 7862POPC   C3B31185  18.968   8.714   7.955
 7862POPC   C4B31186  18.933   8.775   7.655
 7863POPC   NC331187  20.600  12.088   9.455
 7863POPC   PO431188  20.568  12.094   9.155
 7863POPC   GL131189  20.624  12.107   8.855
 7863POPC   GL231190  20.485  12.152   8.855
 7863POPC   C1A31191  20.570  12.066   8.555
 7863POPC   D2A31192  20.634  12.107   8.255
 7863POPC   C3A31193  20.624  12.123   7.955
 7863POPC   C4A31194  20.627  12.051   7.655
 7863POPC   C1B31195  20.475  12.276   8.555
 7863POPC   C2B31196  20.482  12.238   8.255
 7863POPC   C3B31197  20.449  12.277   7.955
 7863POPC   C4B31198  20.463  12.282   7.655
 7864POPC   NC331199  32.271  17.474   9.455
 7864POPC   PO431200  32.240  17.484   9.155
 7864POPC   GL131201  32.247  17.516   8.855
 7864POPC   GL231202  32.360  17.515   8.855
 7864POPC   C1A31203  32.205  17.470   8.555
 7864POPC   D2A31204  32.280  17.462   8.255
 7864POPC   C3A31205  32.240  17.503   7.955
 7864POPC   C4A31206  32.225  17.479   7.655
 7864POPC   C1B31207  32.494  17.590   8.555
 7864POPC   C2B31208  32.480  17.561   8.255
 7864POPC   C3B31209  32.499  17.600   7.955
 7864POPC   C4B31210  32.517  17.560   7.655
 7865POPC   NC331211  23.681  32.214   9.455
 7865POPC   PO431212  23.686  32.233   9.155
 7865POPC   GL131213  23.684  32.201   8.855
 7865POPC   GL231214  23.716  32.082   8.855
 7865POPC   C1A31215  23.742  32.254   8.555
 7865POPC   D2A31216  23.699  32.222   8.255
 7865POPC   C3A31217  23.698  32.277   7.955
 7865POPC   C4A31218  23.673  32.294   7.655
 7865POPC   C1B31219  23.630  31.978   8.555
 7865POPC   C2B31220  23.653  32.041   8.255
 7865POPC   C3B31221  23.619  31.986   7.955
 7865POPC   C4B31222  23.635  31.973   7.655
 7866POPC   NC331223  28.350  21.418   9.455
 7866POPC   PO431224  28.411  21.405   9.155
 7866POPC   GL131225  28.398  21.381   8.855
 7866POPC   GL231226  28.491  21.303   8.855
 7866POPC   C1A31227  28.330  21.389   8.555
 7866POPC   D2A31228  28.398  21.400   8.255
 7866POPC   C3A31229  28.408  21.435   7.955
 7866POPC   C4A31230  28.394  21.358   7.655
 7866POPC   C1B31231  28.545  21.240   8.555
 7866POPC   C2B31232  28.504  21.215   8.255
 7866POPC   C3B31233  28.505  21.216   7.955
 7866POPC   C4B31234  28.581  21.206   7.655
 7867POPC   NC331235  41.572   8.963   9.455
 7867POPC   PO431236  41.531   8.956   9.155
 7867POPC   GL131237  41.578   9.008   8.855
 7867POPC   GL231238  41.502   9.112   8.855
 7867POPC   C1A31239  41.514   9.004   8.555
 7867POPC   D2A31240  41.552   8.988   8.255
 7867POPC   C3A31241  41.523   8.947   7.955
 7867POPC   C4A31242  41.562   9.009   7.655
 7867POPC   C1B31243  41.459   9.218   8.555
 7867POPC   C2B31244  41.435   9.212   8.255
 7867POPC   C3B31245  41.393   9.214   7.955
 7867POPC   C4B31246  41.406   9.154   7.655
 7868POPC   NC331247  39.198  15.139   9.455
 7868POPC   PO431248  39.269  15.188   9.155
 7868POPC   GL131249  39.275  15.145   8.855
 7868POPC   GL231250  39.297  15.022   8.855
 7868POPC   C1A31251  39.188  15.193   8.555
 7868POPC   D2A31252  39.207  15.215   8.255
 7868POPC   C3A31253  39.231  15.155   7.955
 7868POPC   C4A31254  39.259  15.221   7.655
 7868POPC   C1B31255  39.300  14.973   8.555
 7868POPC   C2B31256  39.285  14.945   8.255
 7868POPC   C3B31257  39.282  14.926   7.955
 7868POPC   C4B31258  39.294  14.956   7.655
 7869POPC   NC331259  16.746  32.997   9.455
 7869POPC   PO431260  16.701  33.066   9.155
 7869POPC   GL131261  16.749  33.066   8.855
 7869POPC   GL231262  16.779  32.920   8.855
 7869POPC   C1A31263  16.753  33.006   8.555
 7869POPC   D2A31264  16.682  33.034   8.255
 7869POPC   C3A31265  16.745  33.045   7.955
 7869POPC   C4A31266  16.723  33.008   7.655
 7869POPC   C1B31267  16.869  32.830   8.555
 7869POPC   C2B31268  16.876  32.835   8.255
 7869POPC   C3B31269  16.927  32.886   7.955
 7869POPC   C4B31270  16.855  32.799   7.655
 7870POPC   NC331271  36.079   2.736   9.455
 7870POPC   PO431272  36.087   2.753   9.155
 7870POPC   GL131273  36.127   2.760   8.855
 7870POPC   GL231274  36.160   2.619   8.855
 7870POPC   C1A31275  36.107   2.738   8.555
 7870POPC   D2A31276  36.126   2.765   8.255
 7870POPC   C3A31277  36.080   2.780   7.955
 7870POPC   C4A31278  36.147   2.805   7.655
 7870POPC   C1B31279  36.164   2.521   8.555
 7870POPC   C2B31280  36.179   2.504   8.255
 7870POPC   C3B31281  36.207   2.485   7.955
 7870POPC   C4B31282  36.192   2.539   7.655
 7871POPC   NC331283  34.623   7.449   9.455
 7871POPC   PO431284  34.618   7.392   9.155
 7871POPC   GL131285  34.623   7.372   8.855
 7871POPC   GL231286  34.470   7.440   8.855
 7871POPC   C1A31287  34.575   7.375   8.555
 7871POPC   D2A31288  34.585   7.410   8.255
 7871POPC   C3A31289  34.570   7.415   7.955
 7871POPC   C4A31290  34.534   7.452   7.655
 7871POPC   C1B31291  34.334   7.343   8.555
 7871POPC   C2B31292  34.304   7.417   8.255
 7871POPC   C3B31293  34.293   7.329   7.955
 7871POPC   C4B31294  34.332   7.345   7.655
 7872POPC   NC331295  28.346  27.633   9.455
 7872POPC   PO431296  28.400  27.612   9.155
 7872POPC   GL131297  28.322  27.608   8.855
 7872POPC   GL231298  28.254  27.641   8.855
 7872POPC   C1A31299  28.388  27.583   8.555
 7872POPC   D2A31300  28.399  27.615   8.255
 7872POPC   C3A31301  28.400  27.609   7.955
 7872POPC   C4A31302  28.414  27.637   7.655
 7872POPC   C1B31303  28.144  27.693   8.555
 7872POPC   C2B31304  28.086  27.658   8.255
 7872POPC   C3B31305  28.113  27.638   7.955
 7872POPC   C4B31306  28.153  27.614   7.655
 7873POPC   NC331307  22.124  12.096   9.455
 7873POPC   PO431308  22.132  12.105   9.155
 7873POPC   GL131309  22.190  12.040   8.855
 7873POPC   GL231310  22.054  12.021   8.855
 7873POPC   C1A31311  22.117  12.091   8.555
 7873POPC   D2A31312  22.202  12.124   8.255
 7873POPC   C3A31313  22.131  12.070   7.955
 7873POPC   C4A31314  22.191  12.093   7.655
 7873POPC   C1B31315  21.905  11.917   8.555
 7873POPC   C2B31316  21.921  11.961   8.255
 7873POPC   C3B31317  21.913  11.978   7.955
 7873POPC   C4B31318  21.920  11.925   7.655
 7874POPC   NC331319  35.333   3.588   9.455
 7874POPC   PO431320  35.340   3.570   9.155
 7874POPC   GL131321  35.401   3.591   8.855
 7874POPC   GL231322  35.283   3.622   8.855
 7874POPC   C1A31323  35.346   3.575   8.555
 7874POPC   D2A31324  35.354   3.527   8.255
 7874POPC   C3A31325  35.399   3.561   7.955
 7874POPC   C4A31326  35.339   3.564   7.655
 7874POPC   C1B31327  35.215   3.722   8.555
 7874POPC   C2B31328  35.176   3.683   8.255
 7874POPC   C3B31329  35.176   3.719   7.955
 7874POPC   C4B31330  35.152   3.744   7.655
 7875POPC   NC331331   2.780  26.011   9.455
 7875POPC   PO431332   2.811  26.087   9.155
 7875POPC   GL131333   2.784  26.039   8.855
 7875POPC   GL231334   2.640  26.012   8.855
 7875POPC   C1A31335   2.776  26.014   8.555
 7875POPC   D2A31336   2.752  26.067   8.255
 7875POPC   C3A31337   2.798  25.993   7.955
 7875POPC   C4A31338   2.770  26.009   7.655
 7875POPC   C1B31339   2.533  25.952   8.555
 7875POPC   C2B31340   2.537  25.897   8.255
 7875POPC   C3B31341   2.556  25.959   7.955
 7875POPC   C4B31342   2.559  25.935   7.655
 7876POPC   NC331343  31.518   3.495   9.455
 7876POPC   PO431344  31.424   3.550   9.155
 7876POPC   GL131345  31.501   3.583   8.855
 7876POPC   GL231346  31.357   3.577   8.855
 7876POPC   C1A31347  31.468   3.531   8.555
 7876POPC   D2A31348  31.483   3.502   8.255
 7876POPC   C3A31349  31.515   3.508   7.955
 7876POPC   C4A31350  31.479   3.518   7.655
 7876POPC   C1B31351  31.260   3.647   8.555
 7876POPC   C2B31352  31.255   3.634   8.255
 7876POPC   C3B31353  31.265   3.677   7.955
 7876POPC   C4B31354  31.310   3.636   7.655
 7877POPC   NC331355  39.182  27.628   9.455
 7877POPC   PO431356  39.221  27.550   9.155
 7877POPC   GL131357  39.272  27.638   8.855
 7877POPC   GL231358  39.312  27.573   8.855
 7877POPC   C1A31359  39.247  27.606   8.555
 7877POPC   D2A31360  39.228  27.568   8.255
 7877POPC   C3A31361  39.187  27.604   7.955
 7877POPC   C4A31362  39.238  27.544   7.655
 7877POPC   C1B31363  39.465  27.578   8.555
 7877POPC   C2B31364  39.449  27.507   8.255
 7877POPC   C3B31365  39.524  27.521   7.955
 7877POPC   C4B31366  39.437  27.588   7.655
 7878POPC   NC331367  26.026  10.538   9.455
 7878POPC   PO431368  26.015  10.532   9.155
 7878POPC   GL131369  26.044  10.571   8.855
 7878POPC   GL231370  25.938  10.611   8.855
 7878POPC   C1A31371  26.062  10.562   8.555
 7878POPC   D2A31372  26.051  10.529   8.255
 7878POPC   C3A31373  26.076  10.551   7.955
 7878POPC   C4A31374  26.018  10.555   7.655
 7878POPC   C1B31375  25.896  10.739   8.555
 7878POPC   C2B31376  25.860  10.701   8.255
 7878POPC   C3B31377  25.891  10.683   7.955
 7878POPC   C4B31378  25.831  10.667   7.655
 7879POPC   NC331379   5.901  15.985   9.455
 7879POPC   PO431380   5.867  15.930   9.155
 7879POPC   GL131381   5.861  16.000   8.855
 7879POPC   GL231382   5.789  16.033   8.855
 7879POPC   C1A31383   5.841  15.914   8.555
 7879POPC   D2A31384   5.900  15.955   8.255
 7879POPC   C3A31385   5.857  15.946   7.955
 7879POPC   C4A31386   5.899  15.910   7.655
 7879POPC   C1B31387   5.653  16.173   8.555
 7879POPC   C2B31388   5.717  16.117   8.255
 7879POPC   C3B31389   5.695  16.153   7.955
 7879POPC   C4B31390   5.656  16.166   7.655
 7880POPC   NC331391  44.623   4.364   9.455
 7880POPC   PO431392  44.675   4.271   9.155
 7880POPC   GL131393  44.652   4.288   8.855
 7880POPC   GL231394  44.710   4.200   8.855
 7880POPC   C1A31395  44.694   4.268   8.555
 7880POPC   D2A31396  44.692   4.294   8.255
 7880POPC   C3A31397  44.645   4.344   7.955
 7880POPC   C4A31398  44.682   4.354   7.655
 7880POPC   C1B31399  44.723   4.038   8.555
 7880POPC   C2B31400  44.665   4.062   8.255
 7880POPC   C3B31401  44.706   4.059   7.955
 7880POPC   C4B31402  44.636   4.085   7.655
 7881POPC   NC331403  43.926   2.746   9.455
 7881POPC   PO431404  43.922   2.749   9.155
 7881POPC   GL131405  43.866   2.790   8.855
 7881POPC   GL231406  43.864   2.905   8.855
 7881POPC   C1A31407  43.921   2.732   8.555
 7881POPC   D2A31408  43.920   2.810   8.255
 7881POPC   C3A31409  43.936   2.721   7.955
 7881POPC   C4A31410  43.909   2.743   7.655
 7881POPC   C1B31411  43.939   2.992   8.555
 7881POPC   C2B31412  43.900   2.972   8.255
 7881POPC   C3B31413  43.977   2.974   7.955
 7881POPC   C4B31414  43.937   2.983   7.655
 7882POPC   NC331415  42.346   7.418   9.455
 7882POPC   PO431416  42.376   7.398   9.155
 7882POPC   GL131417  42.308   7.467   8.855
 7882POPC   GL231418  42.304   7.308   8.855
 7882POPC   C1A31419  42.384   7.382   8.555
 7882POPC   D2A31420  42.287   7.393   8.255
 7882POPC   C3A31421  42.338   7.403   7.955
 7882POPC   C4A31422  42.323   7.379   7.655
 7882POPC   C1B31423  42.195   7.195   8.555
 7882POPC   C2B31424  42.198   7.238   8.255
 7882POPC   C3B31425  42.207   7.170   7.955
 7882POPC   C4B31426  42.218   7.233   7.655
 7883POPC   NC331427  41.564  19.018   9.455
 7883POPC   PO431428  41.587  19.049   9.155
 7883POPC   GL131429  41.522  19.035   8.855
 7883POPC   GL231430  41.414  19.115   8.855
 7883POPC   C1A31431  41.598  19.089   8.555
 7883POPC   D2A31432  41.599  19.018   8.255
 7883POPC   C3A31433  41.599  19.089   7.955
 7883POPC   C4A31434  41.522  19.090   7.655
 7883POPC   C1B31435  41.331  19.078   8.555
 7883POPC   C2B31436  41.345  19.111   8.255
 7883POPC   C3B31437  41.269  19.118   7.955
 7883POPC   C4B31438  41.355  19.069   7.655
 7884POPC   NC331439  12.091  37.640   9.455
 7884POPC   PO431440  12.084  37.668   9.155
 7884POPC   GL131441  12.121  37.677   8.855
 7884POPC   GL231442  11.952  37.797   8.855
 7884POPC   C1A31443  12.116  37.674   8.555
 7884POPC   D2A31444  12.064  37.716   8.255
 7884POPC   C3A31445  12.069  37.706   7.955
 7884POPC   C4A31446  12.113  37.670   7.655
 7884POPC   C1B31447  11.844  37.840   8.555
 7884POPC   C2B31448  11.889  37.802   8.255
 7884POPC   C3B31449  11.884  37.886   7.955
 7884POPC   C4B31450  11.878  37.869   7.655
 7885POPC   NC331451  36.152   9.765   9.455
 7885POPC   PO431452  36.170   9.792   9.155
 7885POPC   GL131453  36.082   9.793   8.855
 7885POPC   GL231454  36.225   9.751   8.855
 7885POPC   C1A31455  36.080   9.701   8.555
 7885POPC   D2A31456  36.156   9.773   8.255
 7885POPC   C3A31457  36.112   9.764   7.955
 7885POPC   C4A31458  36.156   9.797   7.655
 7885POPC   C1B31459  36.399   9.625   8.555
 7885POPC   C2B31460  36.340   9.686   8.255
 7885POPC   C3B31461  36.364   9.633   7.955
 7885POPC   C4B31462  36.350   9.620   7.655
 7886POPC   NC331463  29.170  15.942   9.455
 7886POPC   PO431464  29.164  15.938   9.155
 7886POPC   GL131465  29.109  15.919   8.855
 7886POPC   GL231466  29.317  15.947   8.855
 7886POPC   C1A31467  29.105  15.907   8.555
 7886POPC   D2A31468  29.130  15.915   8.255
 7886POPC   C3A31469  29.109  15.927   7.955
 7886POPC   C4A31470  29.102  15.914   7.655
 7886POPC   C1B31471  29.417  15.916   8.555
 7886POPC   C2B31472  29.391  15.934   8.255
 7886POPC   C3B31473  29.438  15.955   7.955
 7886POPC   C4B31474  29.417  15.937   7.655
 7887POPC   NC331475  41.603  32.207   9.455
 7887POPC   PO431476  41.553  32.270   9.155
 7887POPC   GL131477  41.605  32.198   8.855
 7887POPC   GL231478  41.594  32.143   8.855
 7887POPC   C1A31479  41.552  32.296   8.555
 7887POPC   D2A31480  41.527  32.288   8.255
 7887POPC   C3A31481  41.572  32.223   7.955
 7887POPC   C4A31482  41.513  32.227   7.655
 7887POPC   C1B31483  41.678  32.094   8.555
 7887POPC   C2B31484  41.714  32.096   8.255
 7887POPC   C3B31485  41.750  32.039   7.955
 7887POPC   C4B31486  41.677  32.025   7.655
 7888POPC   NC331487  43.929   5.104   9.455
 7888POPC   PO431488  43.869   5.046   9.155
 7888POPC   GL131489  43.890   5.120   8.855
 7888POPC   GL231490  43.948   5.038   8.855
 7888POPC   C1A31491  43.887   5.088   8.555
 7888POPC   D2A31492  43.861   5.101   8.255
 7888POPC   C3A31493  43.922   5.085   7.955
 7888POPC   C4A31494  43.932   5.065   7.655
 7888POPC   C1B31495  44.084   4.971   8.555
 7888POPC   C2B31496  44.067   4.939   8.255
 7888POPC   C3B31497  44.046   4.934   7.955
 7888POPC   C4B31498  44.089   4.943   7.655
 7889POPC   NC331499  36.892  23.664   9.455
 7889POPC   PO431500  36.914  23.740   9.155
 7889POPC   GL131501  36.873  23.699   8.855
 7889POPC   GL231502  36.964  23.607   8.855
 7889POPC   C1A31503  36.913  23.670   8.555
 7889POPC   D2A31504  36.866  23.727   8.255
 7889POPC   C3A31505  36.911  23.759   7.955
 7889POPC   C4A31506  36.860  23.729   7.655
 7889POPC   C1B31507  37.058  23.518   8.555
 7889POPC   C2B31508  37.067  23.579   8.255
 7889POPC   C3B31509  37.099  23.585   7.955
 7889POPC   C4B31510  37.060  23.566   7.655
 7890POPC   NC331511  25.276  20.565   9.455
 7890POPC   PO431512  25.275  20.643   9.155
 7890POPC   GL131513  25.264  20.613   8.855
 7890POPC   GL231514  25.295  20.545   8.855
 7890POPC   C1A31515  25.284  20.571   8.555
 7890POPC   D2A31516  25.269  20.561   8.255
 7890POPC   C3A31517  25.313  20.611   7.955
 7890POPC   C4A31518  25.243  20.595   7.655
 7890POPC   C1B31519  25.390  20.379   8.555
 7890POPC   C2B31520  25.400  20.401   8.255
 7890POPC   C3B31521  25.399  20.394   7.955
 7890POPC   C4B31522  25.383  20.360   7.655
 7891POPC   NC331523  11.317  31.463   9.455
 7891POPC   PO431524  11.297  31.433   9.155
 7891POPC   GL131525  11.252  31.447   8.855
 7891POPC   GL231526  11.368  31.558   8.855
 7891POPC   C1A31527  11.276  31.450   8.555
 7891POPC   D2A31528  11.320  31.491   8.255
 7891POPC   C3A31529  11.270  31.474   7.955
 7891POPC   C4A31530  11.306  31.441   7.655
 7891POPC   C1B31531  11.382  31.720   8.555
 7891POPC   C2B31532  11.425  31.689   8.255
 7891POPC   C3B31533  11.441  31.719   7.955
 7891POPC   C4B31534  11.406  31.664   7.655
 7892POPC   NC331535  26.028  17.544   9.455
 7892POPC   PO431536  26.035  17.513   9.155
 7892POPC   GL131537  26.002  17.518   8.855
 7892POPC   GL231538  26.112  17.597   8.855
 7892POPC   C1A31539  25.997  17.535   8.555
 7892POPC   D2A31540  26.029  17.522   8.255
 7892POPC   C3A31541  26.047  17.516   7.955
 7892POPC   C4A31542  26.071  17.552   7.655
 7892POPC   C1B31543  26.279  17.658   8.555
 7892POPC   C2B31544  26.257  17.622   8.255
 7892POPC   C3B31545  26.231  17.637   7.955
 7892POPC   C4B31546  26.226  17.619   7.655
 7893POPC   NC331547  25.278   9.761   9.455
 7893POPC   PO431548  25.293   9.746   9.155
 7893POPC   GL131549  25.226   9.744   8.855
 7893POPC   GL231550  25.159   9.764   8.855
 7893POPC   C1A31551  25.250   9.778   8.555
 7893POPC   D2A31552  25.245   9.717   8.255
 7893POPC   C3A31553  25.232   9.748   7.955
 7893POPC   C4A31554  25.225   9.767   7.655
 7893POPC   C1B31555  25.048   9.845   8.555
 7893POPC   C2B31556  25.043   9.815   8.255
 7893POPC   C3B31557  25.031   9.803   7.955
 7893POPC   C4B31558  24.992   9.833   7.655
 7894POPC   NC331559   7.429  28.324   9.455
 7894POPC   PO431560   7.451  28.379   9.155
 7894POPC   GL131561   7.407  28.373   8.855
 7894POPC   GL231562   7.546  28.474   8.855
 7894POPC   C1A31563   7.435  28.332   8.555
 7894POPC   D2A31564   7.415  28.384   8.255
 7894POPC   C3A31565   7.396  28.326   7.955
 7894POPC   C4A31566   7.398  28.358   7.655
 7894POPC   C1B31567   7.600  28.581   8.555
 7894POPC   C2B31568   7.631  28.584   8.255
 7894POPC   C3B31569   7.624  28.519   7.955
 7894POPC   C4B31570   7.561  28.512   7.655
 7895POPC   NC331571  29.187   6.648   9.455
 7895POPC   PO431572  29.107   6.674   9.155
 7895POPC   GL131573  29.145   6.672   8.855
 7895POPC   GL231574  29.238   6.723   8.855
 7895POPC   C1A31575  29.182   6.687   8.555
 7895POPC   D2A31576  29.118   6.605   8.255
 7895POPC   C3A31577  29.176   6.679   7.955
 7895POPC   C4A31578  29.156   6.644   7.655
 7895POPC   C1B31579  29.336   6.823   8.555
 7895POPC   C2B31580  29.345   6.847   8.255
 7895POPC   C3B31581  29.282   6.877   7.955
 7895POPC   C4B31582  29.280   6.797   7.655
 7896POPC   NC331583  27.571   3.562   9.455
 7896POPC   PO431584  27.639   3.512   9.155
 7896POPC   GL131585  27.601   3.559   8.855
 7896POPC   GL231586  27.467   3.586   8.855
 7896POPC   C1A31587  27.634   3.524   8.555
 7896POPC   D2A31588  27.566   3.495   8.255
 7896POPC   C3A31589  27.603   3.574   7.955
 7896POPC   C4A31590  27.613   3.537   7.655
 7896POPC   C1B31591  27.391   3.578   8.555
 7896POPC   C2B31592  27.359   3.514   8.255
 7896POPC   C3B31593  27.338   3.513   7.955
 7896POPC   C4B31594  27.310   3.494   7.655
 7897POPC   NC331595  29.175  17.502   9.455
 7897POPC   PO431596  29.194  17.500   9.155
 7897POPC   GL131597  29.134  17.457   8.855
 7897POPC   GL231598  29.043  17.520   8.855
 7897POPC   C1A31599  29.127  17.508   8.555
 7897POPC   D2A31600  29.115  17.485   8.255
 7897POPC   C3A31601  29.100  17.497   7.955
 7897POPC   C4A31602  29.102  17.514   7.655
 7897POPC   C1B31603  28.914  17.628   8.555
 7897POPC   C2B31604  28.959  17.634   8.255
 7897POPC   C3B31605  28.898  17.597   7.955
 7897POPC   C4B31606  28.884  17.618   7.655
 7898POPC   NC331607   7.454  35.317   9.455
 7898POPC   PO431608   7.441  35.317   9.155
 7898POPC   GL131609   7.396  35.320   8.855
 7898POPC   GL231610   7.385  35.264   8.855
 7898POPC   C1A31611   7.455  35.311   8.555
 7898POPC   D2A31612   7.451  35.398   8.255
 7898POPC   C3A31613   7.386  35.382   7.955
 7898POPC   C4A31614   7.380  35.386   7.655
 7898POPC   C1B31615   7.335  35.094   8.555
 7898POPC   C2B31616   7.304  35.149   8.255
 7898POPC   C3B31617   7.279  35.189   7.955
 7898POPC   C4B31618   7.283  35.133   7.655
 7899POPC   NC331619  16.771  44.691   9.455
 7899POPC   PO431620  16.703  44.698   9.155
 7899POPC   GL131621  16.689  44.684   8.855
 7899POPC   GL231622  16.724  44.827   8.855
 7899POPC   C1A31623  16.695  44.615   8.555
 7899POPC   D2A31624  16.692  44.634   8.255
 7899POPC   C3A31625  16.743  44.679   7.955
 7899POPC   C4A31626  16.748  44.641   7.655
 7899POPC   C1B31627  16.723  44.913   8.555
 7899POPC   C2B31628  16.658  44.864   8.255
 7899POPC   C3B31629  16.661  44.940   7.955
 7899POPC   C4B31630  16.677  44.926   7.655
 7900POPC   NC331631  26.840  28.376   9.455
 7900POPC   PO431632  26.849  28.361   9.155
 7900POPC   GL131633  26.794  28.372   8.855
 7900POPC   GL231634  26.753  28.324   8.855
 7900POPC   C1A31635  26.792  28.323   8.555
 7900POPC   D2A31636  26.850  28.323   8.255
 7900POPC   C3A31637  26.798  28.330   7.955
 7900POPC   C4A31638  26.848  28.396   7.655
 7900POPC   C1B31639  26.641  28.243   8.555
 7900POPC   C2B31640  26.588  28.259   8.255
 7900POPC   C3B31641  26.651  28.190   7.955
 7900POPC   C4B31642  26.641  28.250   7.655
 7901POPC   NC331643  35.334  20.607   9.455
 7901POPC   PO431644  35.317  20.624   9.155
 7901POPC   GL131645  35.397  20.601   8.855
 7901POPC   GL231646  35.412  20.686   8.855
 7901POPC   C1A31647  35.382  20.594   8.555
 7901POPC   D2A31648  35.342  20.616   8.255
 7901POPC   C3A31649  35.307  20.618   7.955
 7901POPC   C4A31650  35.307  20.615   7.655
 7901POPC   C1B31651  35.399  20.839   8.555
 7901POPC   C2B31652  35.463  20.830   8.255
 7901POPC   C3B31653  35.387  20.862   7.955
 7901POPC   C4B31654  35.396  20.873   7.655
 7902POPC   NC331655  22.127  14.428   9.455
 7902POPC   PO431656  22.200  14.390   9.155
 7902POPC   GL131657  22.206  14.393   8.855
 7902POPC   GL231658  22.287  14.393   8.855
 7902POPC   C1A31659  22.165  14.430   8.555
 7902POPC   D2A31660  22.129  14.395   8.255
 7902POPC   C3A31661  22.206  14.441   7.955
 7902POPC   C4A31662  22.168  14.400   7.655
 7902POPC   C1B31663  22.401  14.437   8.555
 7902POPC   C2B31664  22.413  14.353   8.255
 7902POPC   C3B31665  22.440  14.370   7.955
 7902POPC   C4B31666  22.402  14.444   7.655
 7903POPC   NC331667  41.526  44.632   9.455
 7903POPC   PO431668  41.569  44.667   9.155
 7903POPC   GL131669  41.531  44.669   8.855
 7903POPC   GL231670  41.645  44.701   8.855
 7903POPC   C1A31671  41.520  44.621   8.555
 7903POPC   D2A31672  41.528  44.624   8.255
 7903POPC   C3A31673  41.599  44.635   7.955
 7903POPC   C4A31674  41.510  44.695   7.655
 7903POPC   C1B31675  41.790  44.646   8.555
 7903POPC   C2B31676  41.839  44.711   8.255
 7903POPC   C3B31677  41.816  44.725   7.955
 7903POPC   C4B31678  41.804  44.702   7.655
 7904POPC   NC331679  33.061  17.545   9.455
 7904POPC   PO431680  32.984  17.457   9.155
 7904POPC   GL131681  33.070  17.521   8.855
 7904POPC   GL231682  33.081  17.627   8.855
 7904POPC   C1A31683  33.032  17.518   8.555
 7904POPC   D2A31684  32.992  17.480   8.255
 7904POPC   C3A31685  33.021  17.476   7.955
 7904POPC   C4A31686  33.043  17.538   7.655
 7904POPC   C1B31687  33.037  17.715   8.555
 7904POPC   C2B31688  33.067  17.742   8.255
 7904POPC   C3B31689  33.031  17.717   7.955
 7904POPC   C4B31690  32.996  17.784   7.655
 7905POPC   NC331691  16.750  35.378   9.455
 7905POPC   PO431692  16.780  35.328   9.155
 7905POPC   GL131693  16.690  35.392   8.855
 7905POPC   GL231694  16.671  35.424   8.855
 7905POPC   C1A31695  16.728  35.338   8.555
 7905POPC   D2A31696  16.702  35.374   8.255
 7905POPC   C3A31697  16.704  35.378   7.955
 7905POPC   C4A31698  16.747  35.381   7.655
 7905POPC   C1B31699  16.672  35.579   8.555
 7905POPC   C2B31700  16.627  35.533   8.255
 7905POPC   C3B31701  16.597  35.626   7.955
 7905POPC   C4B31702  16.646  35.558   7.655
 7906POPC   NC331703  28.377  38.481   9.455
 7906POPC   PO431704  28.410  38.486   9.155
 7906POPC   GL131705  28.377  38.409   8.855
 7906POPC   GL231706  28.417  38.303   8.855
 7906POPC   C1A31707  28.378  38.495   8.555
 7906POPC   D2A31708  28.410  38.457   8.255
 7906POPC   C3A31709  28.401  38.451   7.955
 7906POPC   C4A31710  28.351  38.495   7.655
 7906POPC   C1B31711  28.377  38.225   8.555
 7906POPC   C2B31712  28.392  38.190   8.255
 7906POPC   C3B31713  28.349  38.227   7.955
 7906POPC   C4B31714  28.376  38.176   7.655
 7907POPC   NC331715  36.906  19.034   9.455
 7907POPC   PO431716  36.944  19.027   9.155
 7907POPC   GL131717  36.911  19.017   8.855
 7907POPC   GL231718  37.058  18.960   8.855
 7907POPC   C1A31719  36.939  19.030   8.555
 7907POPC   D2A31720  36.885  19.107   8.255
 7907POPC   C3A31721  36.922  19.053   7.955
 7907POPC   C4A31722  36.912  19.033   7.655
 7907POPC   C1B31723  37.077  18.922   8.555
 7907POPC   C2B31724  37.092  18.932   8.255
 7907POPC   C3B31725  37.081  18.973   7.955
 7907POPC   C4B31726  37.082  18.922   7.655
 7908POPC   NC331727   6.609  33.764   9.455
 7908POPC   PO431728   6.648  33.803   9.155
 7908POPC   GL131729   6.656  33.832   8.855
 7908POPC   GL231730   6.731  33.873   8.855
 7908POPC   C1A31731   6.674  33.828   8.555
 7908POPC   D2A31732   6.669  33.785   8.255
 7908POPC   C3A31733   6.628  33.803   7.955
 7908POPC   C4A31734   6.628  33.765   7.655
 7908POPC   C1B31735   6.916  33.895   8.555
 7908POPC   C2B31736   6.931  33.879   8.255
 7908POPC   C3B31737   6.904  33.889   7.955
 7908POPC   C4B31738   6.854  33.830   7.655
 7909POPC   NC331739  22.943  44.634   9.455
 7909POPC   PO431740  22.952  44.691   9.155
 7909POPC   GL131741  22.942  44.660   8.855
 7909POPC   GL231742  22.999  44.648   8.855
 7909POPC   C1A31743  22.901  44.628   8.555
 7909POPC   D2A31744  22.919  44.675   8.255
 7909POPC   C3A31745  22.949  44.644   7.955
 7909POPC   C4A31746  22.984  44.655   7.655
 7909POPC   C1B31747  23.155  44.509   8.555
 7909POPC   C2B31748  23.156  44.514   8.255
 7909POPC   C3B31749  23.154  44.520   7.955
 7909POPC   C4B31750  23.162  44.574   7.655
 7910POPC   NC331751   9.703  44.636   9.455
 7910POPC   PO431752   9.733  44.702   9.155
 7910POPC   GL131753   9.760  44.693   8.855
 7910POPC   GL231754   9.696  44.535   8.855
 7910POPC   C1A31755   9.719  44.634   8.555
 7910POPC   D2A31756   9.751  44.668   8.255
 7910POPC   C3A31757   9.732  44.634   7.955
 7910POPC   C4A31758   9.702  44.688   7.655
 7910POPC   C1B31759   9.717  44.387   8.555
 7910POPC   C2B31760   9.715  44.402   8.255
 7910POPC   C3B31761   9.646  44.383   7.955
 7910POPC   C4B31762   9.724  44.376   7.655
 7911POPC   NC331763  28.389  23.754   9.455
 7911POPC   PO431764  28.386  23.694   9.155
 7911POPC   GL131765  28.415  23.682   8.855
 7911POPC   GL231766  28.422  23.788   8.855
 7911POPC   C1A31767  28.328  23.669   8.555
 7911POPC   D2A31768  28.327  23.666   8.255
 7911POPC   C3A31769  28.343  23.701   7.955
 7911POPC   C4A31770  28.413  23.743   7.655
 7911POPC   C1B31771  28.427  23.962   8.555
 7911POPC   C2B31772  28.429  23.936   8.255
 7911POPC   C3B31773  28.454  23.936   7.955
 7911POPC   C4B31774  28.386  23.957   7.655
 7912POPC   NC331775  36.112  26.013   9.455
 7912POPC   PO431776  36.129  26.091   9.155
 7912POPC   GL131777  36.137  26.015   8.855
 7912POPC   GL231778  36.211  25.985   8.855
 7912POPC   C1A31779  36.078  26.079   8.555
 7912POPC   D2A31780  36.088  26.082   8.255
 7912POPC   C3A31781  36.102  25.999   7.955
 7912POPC   C4A31782  36.082  26.042   7.655
 7912POPC   C1B31783  36.323  25.924   8.555
 7912POPC   C2B31784  36.340  25.947   8.255
 7912POPC   C3B31785  36.339  25.930   7.955
 7912POPC   C4B31786  36.386  25.997   7.655
 7913POPC   NC331787   9.009  44.709   9.455
 7913POPC   PO431788   8.944  44.622   9.155
 7913POPC   GL131789   8.928  44.657   8.855
 7913POPC   GL231790   8.876  44.787   8.855
 7913POPC   C1A31791   9.022  44.659   8.555
 7913POPC   D2A31792   9.018  44.646   8.255
 7913POPC   C3A31793   9.004  44.629   7.955
 7913POPC   C4A31794   9.004  44.623   7.655
 7913POPC   C1B31795   8.830  44.908   8.555
 7913POPC   C2B31796   8.866  44.893   8.255
 7913POPC   C3B31797   8.854  44.933   7.955
 7913POPC   C4B31798   8.873  44.909   7.655
 7914POPC   NC331799  29.095  18.295   9.455
 7914POPC   PO431800  29.176  18.293   9.155
 7914POPC   GL131801  29.157  18.322   8.855
 7914POPC   GL231802  29.075  18.210   8.855
 7914POPC   C1A31803  29.113  18.269   8.555
 7914POPC   D2A31804  29.156  18.259   8.255
 7914POPC   C3A31805  29.134  18.238   7.955
 7914POPC   C4A31806  29.151  18.275   7.655
 7914POPC   C1B31807  29.049  18.063   8.555
 7914POPC   C2B31808  29.039  18.034   8.255
 7914POPC   C3B31809  29.103  18.054   7.955
 7914POPC   C4B31810  29.069  18.084   7.655
 7915POPC   NC331811  30.693  17.538   9.455
 7915POPC   PO431812  30.721  17.543   9.155
 7915POPC   GL131813  30.746  17.536   8.855
 7915POPC   GL231814  30.838  17.600   8.855
 7915POPC   C1A31815  30.733  17.534   8.555
 7915POPC   D2A31816  30.687  17.525   8.255
 7915POPC   C3A31817  30.721  17.541   7.955
 7915POPC   C4A31818  30.745  17.549   7.655
 7915POPC   C1B31819  30.895  17.606   8.555
 7915POPC   C2B31820  30.912  17.556   8.255
 7915POPC   C3B31821  30.924  17.555   7.955
 7915POPC   C4B31822  30.941  17.611   7.655
 7916POPC   NC331823  26.864  43.151   9.455
 7916POPC   PO431824  26.846  43.085   9.155
 7916POPC   GL131825  26.785  43.157   8.855
 7916POPC   GL231826  26.957  43.157   8.855
 7916POPC   C1A31827  26.842  43.067   8.555
 7916POPC   D2A31828  26.817  43.146   8.255
 7916POPC   C3A31829  26.835  43.064   7.955
 7916POPC   C4A31830  26.835  43.128   7.655
 7916POPC   C1B31831  27.058  43.222   8.555
 7916POPC   C2B31832  27.048  43.275   8.255
 7916POPC   C3B31833  27.028  43.245   7.955
 7916POPC   C4B31834  27.079  43.267   7.655
 7917POPC   NC331835   5.073  34.596   9.455
 7917POPC   PO431836   5.130  34.588   9.155
 7917POPC   GL131837   5.114  34.556   8.855
 7917POPC   GL231838   5.142  34.710   8.855
 7917POPC   C1A31839   5.096  34.597   8.555
 7917POPC   D2A31840   5.101  34.577   8.255
 7917POPC   C3A31841   5.139  34.527   7.955
 7917POPC   C4A31842   5.123  34.587   7.655
 7917POPC   C1B31843   5.115  34.811   8.555
 7917POPC   C2B31844   5.137  34.797   8.255
 7917POPC   C3B31845   5.129  34.869   7.955
 7917POPC   C4B31846   5.109  34.847   7.655
 7918POPC   NC331847   6.632  26.070   9.455
 7918POPC   PO431848   6.692  25.995   9.155
 7918POPC   GL131849   6.623  26.071   8.855
 7918POPC   GL231850   6.587  26.129   8.855
 7918POPC   C1A31851   6.674  26.081   8.555
 7918POPC   D2A31852   6.672  26.047   8.255
 7918POPC   C3A31853   6.647  26.061   7.955
 7918POPC   C4A31854   6.634  26.080   7.655
 7918POPC   C1B31855   6.640  26.249   8.555
 7918POPC   C2B31856   6.588  26.296   8.255
 7918POPC   C3B31857   6.645  26.268   7.955
 7918POPC   C4B31858   6.657  26.293   7.655
 7919POPC   NC331859  38.467   8.937   9.455
 7919POPC   PO431860  38.454   8.956   9.155
 7919POPC   GL131861  38.408   8.969   8.855
 7919POPC   GL231862  38.432   8.816   8.855
 7919POPC   C1A31863  38.472   9.008   8.555
 7919POPC   D2A31864  38.483   8.946   8.255
 7919POPC   C3A31865  38.492   9.019   7.955
 7919POPC   C4A31866  38.443   8.963   7.655
 7919POPC   C1B31867  38.405   8.770   8.555
 7919POPC   C2B31868  38.383   8.719   8.255
 7919POPC   C3B31869  38.329   8.736   7.955
 7919POPC   C4B31870  38.342   8.786   7.655
 7920POPC   NC331871   5.065  28.362   9.455
 7920POPC   PO431872   5.081  28.353   9.155
 7920POPC   GL131873   5.050  28.352   8.855
 7920POPC   GL231874   5.198  28.411   8.855
 7920POPC   C1A31875   5.134  28.385   8.555
 7920POPC   D2A31876   5.122  28.360   8.255
 7920POPC   C3A31877   5.130  28.337   7.955
 7920POPC   C4A31878   5.055  28.341   7.655
 7920POPC   C1B31879   5.307  28.443   8.555
 7920POPC   C2B31880   5.327  28.451   8.255
 7920POPC   C3B31881   5.329  28.424   7.955
 7920POPC   C4B31882   5.345  28.409   7.655
 7921POPC   NC331883   3.524  34.551   9.455
 7921POPC   PO431884   3.559  34.565   9.155
 7921POPC   GL131885   3.562  34.529   8.855
 7921POPC   GL231886   3.514  34.480   8.855
 7921POPC   C1A31887   3.584  34.601   8.555
 7921POPC   D2A31888   3.577  34.613   8.255
 7921POPC   C3A31889   3.559  34.539   7.955
 7921POPC   C4A31890   3.497  34.547   7.655
 7921POPC   C1B31891   3.470  34.344   8.555
 7921POPC   C2B31892   3.495  34.376   8.255
 7921POPC   C3B31893   3.544  34.365   7.955
 7921POPC   C4B31894   3.556  34.343   7.655
 7922POPC   NC331895  38.439  26.787   9.455
 7922POPC   PO431896  38.468  26.780   9.155
 7922POPC   GL131897  38.434  26.786   8.855
 7922POPC   GL231898  38.488  26.943   8.855
 7922POPC   C1A31899  38.413  26.784   8.555
 7922POPC   D2A31900  38.470  26.828   8.255
 7922POPC   C3A31901  38.416  26.859   7.955
 7922POPC   C4A31902  38.483  26.770   7.655
 7922POPC   C1B31903  38.463  27.077   8.555
 7922POPC   C2B31904  38.429  27.054   8.255
 7922POPC   C3B31905  38.446  27.071   7.955
 7922POPC   C4B31906  38.467  27.045   7.655
 7923POPC   NC331907  19.070  28.320   9.455
 7923POPC   PO431908  19.013  28.408   9.155
 7923POPC   GL131909  19.022  28.383   8.855
 7923POPC   GL231910  19.167  28.490   8.855
 7923POPC   C1A31911  19.024  28.322   8.555
 7923POPC   D2A31912  19.088  28.395   8.255
 7923POPC   C3A31913  19.044  28.378   7.955
 7923POPC   C4A31914  19.061  28.384   7.655
 7923POPC   C1B31915  19.204  28.560   8.555
 7923POPC   C2B31916  19.256  28.572   8.255
 7923POPC   C3B31917  19.218  28.487   7.955
 7923POPC   C4B31918  19.275  28.522   7.655
 7924POPC   NC331919  29.909  19.098   9.455
 7924POPC   PO431920  29.943  19.061   9.155
 7924POPC   GL131921  29.882  19.018   8.855
 7924POPC   GL231922  30.005  18.977   8.855
 7924POPC   C1A31923  29.890  19.075   8.555
 7924POPC   D2A31924  29.891  19.078   8.255
 7924POPC   C3A31925  29.964  19.029   7.955
 7924POPC   C4A31926  29.924  19.009   7.655
 7924POPC   C1B31927  30.070  18.864   8.555
 7924POPC   C2B31928  30.048  18.844   8.255
 7924POPC   C3B31929  30.008  18.886   7.955
 7924POPC   C4B31930  30.067  18.884   7.655
 7925POPC   NC331931   6.626  22.154   9.455
 7925POPC   PO431932   6.618  22.154   9.155
 7925POPC   GL131933   6.617  22.154   8.855
 7925POPC   GL231934   6.719  22.268   8.855
 7925POPC   C1A31935   6.671  22.185   8.555
 7925POPC   D2A31936   6.678  22.157   8.255
 7925POPC   C3A31937   6.607  22.167   7.955
 7925POPC   C4A31938   6.692  22.141   7.655
 7925POPC   C1B31939   6.764  22.371   8.555
 7925POPC   C2B31940   6.756  22.357   8.255
 7925POPC   C3B31941   6.775  22.370   7.955
 7925POPC   C4B31942   6.788  22.422   7.655
 7926POPC   NC331943  21.389  35.363   9.455
 7926POPC   PO431944  21.419  35.397   9.155
 7926POPC   GL131945  21.423  35.391   8.855
 7926POPC   GL231946  21.348  35.261   8.855
 7926POPC   C1A31947  21.345  35.333   8.555
 7926POPC   D2A31948  21.383  35.393   8.255
 7926POPC   C3A31949  21.350  35.314   7.955
 7926POPC   C4A31950  21.395  35.349   7.655
 7926POPC   C1B31951  21.323  35.076   8.555
 7926POPC   C2B31952  21.281  35.116   8.255
 7926POPC   C3B31953  21.276  35.126   7.955
 7926POPC   C4B31954  21.275  35.168   7.655
 7927POPC   NC331955   7.467  22.919   9.455
 7927POPC   PO431956   7.378  22.983   9.155
 7927POPC   GL131957   7.421  22.916   8.855
 7927POPC   GL231958   7.314  22.885   8.855
 7927POPC   C1A31959   7.374  22.954   8.555
 7927POPC   D2A31960   7.380  22.975   8.255
 7927POPC   C3A31961   7.439  22.894   7.955
 7927POPC   C4A31962   7.454  22.910   7.655
 7927POPC   C1B31963   7.137  22.900   8.555
 7927POPC   C2B31964   7.193  22.904   8.255
 7927POPC   C3B31965   7.220  22.874   7.955
 7927POPC   C4B31966   7.157  22.884   7.655
 7928POPC   NC331967   6.689  33.067   9.455
 7928POPC   PO431968   6.687  33.004   9.155
 7928POPC   GL131969   6.695  33.039   8.855
 7928POPC   GL231970   6.592  33.172   8.855
 7928POPC   C1A31971   6.633  33.043   8.555
 7928POPC   D2A31972   6.695  32.978   8.255
 7928POPC   C3A31973   6.639  33.048   7.955
 7928POPC   C4A31974   6.603  33.031   7.655
 7928POPC   C1B31975   6.537  33.275   8.555
 7928POPC   C2B31976   6.529  33.198   8.255
 7928POPC   C3B31977   6.546  33.249   7.955
 7928POPC   C4B31978   6.514  33.203   7.655
 7929POPC   NC331979  28.325  44.670   9.455
 7929POPC   PO431980  28.339  44.682   9.155
 7929POPC   GL131981  28.353  44.645   8.855
 7929POPC   GL231982  28.459  44.790   8.855
 7929POPC   C1A31983  28.407  44.675   8.555
 7929POPC   D2A31984  28.352  44.693   8.255
 7929POPC   C3A31985  28.386  44.640   7.955
 7929POPC   C4A31986  28.346  44.683   7.655
 7929POPC   C1B31987  28.446  44.913   8.555
 7929POPC   C2B31988  28.484  44.887   8.255
 7929POPC   C3B31989  28.423  44.900   7.955
 7929POPC   C4B31990  28.440  44.905   7.655
 7930POPC   NC331991  29.137  44.677   9.455
 7930POPC   PO431992  29.128  44.625   9.155
 7930POPC   GL131993  29.122  44.675   8.855
 7930POPC   GL231994  29.277  44.555   8.855
 7930POPC   C1A31995  29.128  44.619   8.555
 7930POPC   D2A31996  29.141  44.692   8.255
 7930POPC   C3A31997  29.168  44.711   7.955
 7930POPC   C4A31998  29.126  44.621   7.655
 7930POPC   C1B31999  29.304  44.438   8.555
 7930POPC   C2B32000  29.347  44.520   8.255
 7930POPC   C3B32001  29.303  44.458   7.955
 7930POPC   C4B32002  29.319  44.474   7.655
 7931POPC   NC332003   1.990  19.834   9.455
 7931POPC   PO432004   1.999  19.861   9.155
 7931POPC   GL132005   1.972  19.798   8.855
 7931POPC   GL232006   1.843  19.903   8.855
 7931POPC   C1A32007   1.970  19.817   8.555
 7931POPC   D2A32008   1.991  19.804   8.255
 7931POPC   C3A32009   1.956  19.869   7.955
 7931POPC   C4A32010   2.005  19.836   7.655
 7931POPC   C1B32011   1.812  19.957   8.555
 7931POPC   C2B32012   1.737  19.986   8.255
 7931POPC   C3B32013   1.742  19.957   7.955
 7931POPC   C4B32014   1.725  19.951   7.655
 7932POPC   NC332015   5.905   2.733   9.455
 7932POPC   PO432016   5.891   2.753   9.155
 7932POPC   GL132017   5.848   2.767   8.855
 7932POPC   GL232018   5.713   2.857   8.855
 7932POPC   C1A32019   5.872   2.739   8.555
 7932POPC   D2A32020   5.853   2.806   8.255
 7932POPC   C3A32021   5.899   2.813   7.955
 7932POPC   C4A32022   5.851   2.777   7.655
 7932POPC   C1B32023   5.650   2.914   8.555
 7932POPC   C2B32024   5.700   2.849   8.255
 7932POPC   C3B32025   5.640   2.863   7.955
 7932POPC   C4B32026   5.630   2.903   7.655
 7933POPC   NC332027   1.256   3.522   9.455
 7933POPC   PO432028   1.171   3.533   9.155
 7933POPC   GL132029   1.241   3.545   8.855
 7933POPC   GL232030   1.123   3.667   8.855
 7933POPC   C1A32031   1.257   3.565   8.555
 7933POPC   D2A32032   1.206   3.501   8.255
 7933POPC   C3A32033   1.191   3.581   7.955
 7933POPC   C4A32034   1.217   3.512   7.655
 7933POPC   C1B32035   1.085   3.771   8.555
 7933POPC   C2B32036   1.105   3.737   8.255
 7933POPC   C3B32037   1.113   3.783   7.955
 7933POPC   C4B32038   1.134   3.711   7.655
 7934POPC   NC332039  27.630  25.288   9.455
 7934POPC   PO432040  27.595  25.248   9.155
 7934POPC   GL132041  27.596  25.278   8.855
 7934POPC   GL232042  27.744  25.274   8.855
 7934POPC   C1A32043  27.575  25.275   8.555
 7934POPC   D2A32044  27.614  25.303   8.255
 7934POPC   C3A32045  27.593  25.299   7.955
 7934POPC   C4A32046  27.545  25.299   7.655
 7934POPC   C1B32047  27.865  25.241   8.555
 7934POPC   C2B32048  27.819  25.221   8.255
 7934POPC   C3B32049  27.837  25.231   7.955
 7934POPC   C4B32050  27.879  25.293   7.655
 7935POPC   NC332051  36.936  15.197   9.455
 7935POPC   PO432052  36.935  15.227   9.155
 7935POPC   GL132053  36.936  15.219   8.855
 7935POPC   GL232054  36.919  15.096   8.855
 7935POPC   C1A32055  36.940  15.196   8.555
 7935POPC   D2A32056  36.924  15.207   8.255
 7935POPC   C3A32057  36.946  15.217   7.955
 7935POPC   C4A32058  36.927  15.211   7.655
 7935POPC   C1B32059  36.887  14.910   8.555
 7935POPC   C2B32060  36.977  14.920   8.255
 7935POPC   C3B32061  36.904  14.962   7.955
 7935POPC   C4B32062  36.906  14.923   7.655
 7936POPC   NC332063   5.139  29.100   9.455
 7936POPC   PO432064   5.095  29.184   9.155
 7936POPC   GL132065   5.112  29.192   8.855
 7936POPC   GL232066   5.015  29.233   8.855
 7936POPC   C1A32067   5.081  29.116   8.555
 7936POPC   D2A32068   5.062  29.146   8.255
 7936POPC   C3A32069   5.048  29.107   7.955
 7936POPC   C4A32070   5.111  29.121   7.655
 7936POPC   C1B32071   4.923  29.318   8.555
 7936POPC   C2B32072   4.952  29.340   8.255
 7936POPC   C3B32073   4.909  29.358   7.955
 7936POPC   C4B32074   4.884  29.320   7.655
 7937POPC   NC332075  21.401  12.881   9.455
 7937POPC   PO432076  21.398  12.875   9.155
 7937POPC   GL132077  21.386  12.880   8.855
 7937POPC   GL232078  21.269  12.950   8.855
 7937POPC   C1A32079  21.366  12.891   8.555
 7937POPC   D2A32080  21.350  12.878   8.255
 7937POPC   C3A32081  21.349  12.901   7.955
 7937POPC   C4A32082  21.379  12.857   7.655
 7937POPC   C1B32083  21.180  13.039   8.555
 7937POPC   C2B32084  21.148  12.972   8.255
 7937POPC   C3B32085  21.170  12.986   7.955
 7937POPC   C4B32086  21.187  12.981   7.655
 7938POPC   NC332087  24.515  19.046   9.455
 7938POPC   PO432088  24.469  19.035   9.155
 7938POPC   GL132089  24.540  19.066   8.855
 7938POPC   GL232090  24.386  19.171   8.855
 7938POPC   C1A32091  24.510  19.095   8.555
 7938POPC   D2A32092  24.523  19.024   8.255
 7938POPC   C3A32093  24.446  19.059   7.955
 7938POPC   C4A32094  24.512  19.034   7.655
 7938POPC   C1B32095  24.321  19.148   8.555
 7938POPC   C2B32096  24.299  19.170   8.255
 7938POPC   C3B32097  24.287  19.150   7.955
 7938POPC   C4B32098  24.267  19.187   7.655
 7939POPC   NC332099  30.718   2.015   9.455
 7939POPC   PO432100  30.652   1.984   9.155
 7939POPC   GL132101  30.717   2.004   8.855
 7939POPC   GL232102  30.594   1.927   8.855
 7939POPC   C1A32103  30.698   1.974   8.555
 7939POPC   D2A32104  30.654   1.967   8.255
 7939POPC   C3A32105  30.678   1.987   7.955
 7939POPC   C4A32106  30.660   1.943   7.655
 7939POPC   C1B32107  30.534   1.779   8.555
 7939POPC   C2B32108  30.513   1.849   8.255
 7939POPC   C3B32109  30.490   1.783   7.955
 7939POPC   C4B32110  30.559   1.761   7.655
 7940POPC   NC332111  12.873  41.521   9.455
 7940POPC   PO432112  12.881  41.601   9.155
 7940POPC   GL132113  12.866  41.583   8.855
 7940POPC   GL232114  12.735  41.660   8.855
 7940POPC   C1A32115  12.872  41.524   8.555
 7940POPC   D2A32116  12.896  41.599   8.255
 7940POPC   C3A32117  12.804  41.564   7.955
 7940POPC   C4A32118  12.890  41.517   7.655
 7940POPC   C1B32119  12.651  41.757   8.555
 7940POPC   C2B32120  12.671  41.760   8.255
 7940POPC   C3B32121  12.740  41.742   7.955
 7940POPC   C4B32122  12.721  41.752   7.655
 7941POPC   NC332123  40.827  16.724   9.455
 7941POPC   PO432124  40.747  16.714   9.155
 7941POPC   GL132125  40.802  16.768   8.855
 7941POPC   GL232126  40.905  16.871   8.855
 7941POPC   C1A32127  40.736  16.688   8.555
 7941POPC   D2A32128  40.818  16.712   8.255
 7941POPC   C3A32129  40.790  16.684   7.955
 7941POPC   C4A32130  40.736  16.692   7.655
 7941POPC   C1B32131  40.911  16.879   8.555
 7941POPC   C2B32132  40.983  16.933   8.255
 7941POPC   C3B32133  40.993  16.883   7.955
 7941POPC   C4B32134  40.983  16.870   7.655
 7942POPC   NC332135  26.035  29.171   9.455
 7942POPC   PO432136  26.037  29.153   9.155
 7942POPC   GL132137  26.056  29.186   8.855
 7942POPC   GL232138  26.031  29.275   8.855
 7942POPC   C1A32139  26.046  29.179   8.555
 7942POPC   D2A32140  26.005  29.177   8.255
 7942POPC   C3A32141  26.021  29.145   7.955
 7942POPC   C4A32142  26.073  29.142   7.655
 7942POPC   C1B32143  26.128  29.350   8.555
 7942POPC   C2B32144  26.108  29.388   8.255
 7942POPC   C3B32145  26.069  29.411   7.955
 7942POPC   C4B32146  26.153  29.358   7.655
 7943POPC   NC332147   5.857  40.033   9.455
 7943POPC   PO432148   5.837  39.982   9.155
 7943POPC   GL132149   5.829  40.018   8.855
 7943POPC   GL232150   5.787  39.955   8.855
 7943POPC   C1A32151   5.906  39.995   8.555
 7943POPC   D2A32152   5.854  40.029   8.255
 7943POPC   C3A32153   5.883  39.994   7.955
 7943POPC   C4A32154   5.840  39.989   7.655
 7943POPC   C1B32155   5.694  39.810   8.555
 7943POPC   C2B32156   5.751  39.838   8.255
 7943POPC   C3B32157   5.738  39.826   7.955
 7943POPC   C4B32158   5.743  39.850   7.655
 7944POPC   NC332159  25.252  28.368   9.455
 7944POPC   PO432160  25.301  28.338   9.155
 7944POPC   GL132161  25.266  28.362   8.855
 7944POPC   GL232162  25.252  28.455   8.855
 7944POPC   C1A32163  25.225  28.353   8.555
 7944POPC   D2A32164  25.287  28.369   8.255
 7944POPC   C3A32165  25.275  28.381   7.955
 7944POPC   C4A32166  25.266  28.387   7.655
 7944POPC   C1B32167  25.253  28.633   8.555
 7944POPC   C2B32168  25.293  28.646   8.255
 7944POPC   C3B32169  25.300  28.585   7.955
 7944POPC   C4B32170  25.273  28.667   7.655
 7945POPC   NC332171  14.441  24.481   9.455
 7945POPC   PO432172  14.376  24.513   9.155
 7945POPC   GL132173  14.389  24.523   8.855
 7945POPC   GL232174  14.386  24.566   8.855
 7945POPC   C1A32175  14.377  24.452   8.555
 7945POPC   D2A32176  14.431  24.523   8.255
 7945POPC   C3A32177  14.394  24.526   7.955
 7945POPC   C4A32178  14.397  24.493   7.655
 7945POPC   C1B32179  14.363  24.754   8.555
 7945POPC   C2B32180  14.331  24.735   8.255
 7945POPC   C3B32181  14.274  24.757   7.955
 7945POPC   C4B32182  14.335  24.740   7.655
 7946POPC   NC332183  41.602  12.805   9.455
 7946POPC   PO432184  41.537  12.802   9.155
 7946POPC   GL132185  41.530  12.823   8.855
 7946POPC   GL232186  41.553  13.008   8.855
 7946POPC   C1A32187  41.607  12.819   8.555
 7946POPC   D2A32188  41.528  12.843   8.255
 7946POPC   C3A32189  41.586  12.881   7.955
 7946POPC   C4A32190  41.528  12.851   7.655
 7946POPC   C1B32191  41.565  13.114   8.555
 7946POPC   C2B32192  41.604  13.124   8.255
 7946POPC   C3B32193  41.601  13.057   7.955
 7946POPC   C4B32194  41.547  13.059   7.655
 7947POPC   NC332195   3.520   9.012   9.455
 7947POPC   PO432196   3.570   8.956   9.155
 7947POPC   GL132197   3.516   8.996   8.855
 7947POPC   GL232198   3.659   8.861   8.855
 7947POPC   C1A32199   3.504   9.013   8.555
 7947POPC   D2A32200   3.588   8.951   8.255
 7947POPC   C3A32201   3.521   8.990   7.955
 7947POPC   C4A32202   3.557   8.928   7.655
 7947POPC   C1B32203   3.730   8.808   8.555
 7947POPC   C2B32204   3.693   8.854   8.255
 7947POPC   C3B32205   3.750   8.808   7.955
 7947POPC   C4B32206   3.722   8.801   7.655
 7948POPC   NC332207  27.561  19.073   9.455
 7948POPC   PO432208  27.636  19.090   9.155
 7948POPC   GL132209  27.557  19.088   8.855
 7948POPC   GL232210  27.452  19.056   8.855
 7948POPC   C1A32211  27.550  19.035   8.555
 7948POPC   D2A32212  27.628  19.012   8.255
 7948POPC   C3A32213  27.577  19.072   7.955
 7948POPC   C4A32214  27.573  19.103   7.655
 7948POPC   C1B32215  27.339  19.033   8.555
 7948POPC   C2B32216  27.345  18.993   8.255
 7948POPC   C3B32217  27.343  19.017   7.955
 7948POPC   C4B32218  27.339  19.003   7.655
 7949POPC   NC332219  26.821  39.199   9.455
 7949POPC   PO432220  26.822  39.228   9.155
 7949POPC   GL132221  26.782  39.222   8.855
 7949POPC   GL232222  26.806  39.117   8.855
 7949POPC   C1A32223  26.772  39.264   8.555
 7949POPC   D2A32224  26.834  39.201   8.255
 7949POPC   C3A32225  26.831  39.256   7.955
 7949POPC   C4A32226  26.852  39.186   7.655
 7949POPC   C1B32227  26.675  39.018   8.555
 7949POPC   C2B32228  26.696  39.011   8.255
 7949POPC   C3B32229  26.721  39.035   7.955
 7949POPC   C4B32230  26.699  39.041   7.655
 7950POPC   NC332231   0.443  29.938   9.455
 7950POPC   PO432232   0.425  29.879   9.155
 7950POPC   GL132233   0.435  29.890   8.855
 7950POPC   GL232234   0.295  29.896   8.855
 7950POPC   C1A32235   0.430  29.894   8.555
 7950POPC   D2A32236   0.435  29.935   8.255
 7950POPC   C3A32237   0.475  29.906   7.955
 7950POPC   C4A32238   0.415  29.900   7.655
 7950POPC   C1B32239   0.195  29.821   8.555
 7950POPC   C2B32240   0.198  29.817   8.255
 7950POPC   C3B32241   0.158  29.868   7.955
 7950POPC   C4B32242   0.202  29.901   7.655
 7951POPC   NC332243   3.556  15.977   9.455
 7951POPC   PO432244   3.502  15.941   9.155
 7951POPC   GL132245   3.545  15.949   8.855
 7951POPC   GL232246   3.470  15.965   8.855
 7951POPC   C1A32247   3.516  15.967   8.555
 7951POPC   D2A32248   3.541  15.917   8.255
 7951POPC   C3A32249   3.555  15.923   7.955
 7951POPC   C4A32250   3.535  15.984   7.655
 7951POPC   C1B32251   3.293  16.047   8.555
 7951POPC   C2B32252   3.361  16.013   8.255
 7951POPC   C3B32253   3.322  16.051   7.955
 7951POPC   C4B32254   3.350  16.008   7.655
 7952POPC   NC332255  12.874  33.824   9.455
 7952POPC   PO432256  12.815  33.770   9.155
 7952POPC   GL132257  12.886  33.825   8.855
 7952POPC   GL232258  12.862  33.880   8.855
 7952POPC   C1A32259  12.813  33.762   8.555
 7952POPC   D2A32260  12.827  33.759   8.255
 7952POPC   C3A32261  12.857  33.776   7.955
 7952POPC   C4A32262  12.858  33.803   7.655
 7952POPC   C1B32263  12.804  34.018   8.555
 7952POPC   C2B32264  12.763  34.027   8.255
 7952POPC   C3B32265  12.745  34.061   7.955
 7952POPC   C4B32266  12.768  34.079   7.655
 7953POPC   NC332267  24.539  40.005   9.455
 7953POPC   PO432268  24.504  40.046   9.155
 7953POPC   GL132269  24.532  39.983   8.855
 7953POPC   GL232270  24.570  39.915   8.855
 7953POPC   C1A32271  24.473  39.978   8.555
 7953POPC   D2A32272  24.501  39.960   8.255
 7953POPC   C3A32273  24.506  40.021   7.955
 7953POPC   C4A32274  24.481  39.981   7.655
 7953POPC   C1B32275  24.723  39.812   8.555
 7953POPC   C2B32276  24.700  39.809   8.255
 7953POPC   C3B32277  24.637  39.852   7.955
 7953POPC   C4B32278  24.650  39.839   7.655
 7954POPC   NC332279  42.313  44.689   9.455
 7954POPC   PO432280  42.311  44.691   9.155
 7954POPC   GL132281  42.315  44.638   8.855
 7954POPC   GL232282  42.340  44.763   8.855
 7954POPC   C1A32283  42.336  44.712   8.555
 7954POPC   D2A32284  42.296  44.659   8.255
 7954POPC   C3A32285  42.302  44.692   7.955
 7954POPC   C4A32286  42.334  44.638   7.655
 7954POPC   C1B32287  42.326  44.960   8.555
 7954POPC   C2B32288  42.291  44.953   8.255
 7954POPC   C3B32289  42.305  44.950   7.955
 7954POPC   C4B32290  42.344  44.947   7.655
 7955POPC   NC332291  36.907  29.180   9.455
 7955POPC   PO432292  36.945  29.127   9.155
 7955POPC   GL132293  36.930  29.110   8.855
 7955POPC   GL232294  36.898  29.000   8.855
 7955POPC   C1A32295  36.934  29.096   8.555
 7955POPC   D2A32296  36.922  29.180   8.255
 7955POPC   C3A32297  36.857  29.123   7.955
 7955POPC   C4A32298  36.899  29.160   7.655
 7955POPC   C1B32299  36.904  28.940   8.555
 7955POPC   C2B32300  36.894  28.883   8.255
 7955POPC   C3B32301  36.938  28.907   7.955
 7955POPC   C4B32302  36.871  28.888   7.655
 7956POPC   NC332303   5.864  17.477   9.455
 7956POPC   PO432304   5.850  17.500   9.155
 7956POPC   GL132305   5.892  17.509   8.855
 7956POPC   GL232306   6.037  17.555   8.855
 7956POPC   C1A32307   5.842  17.462   8.555
 7956POPC   D2A32308   5.858  17.457   8.255
 7956POPC   C3A32309   5.843  17.459   7.955
 7956POPC   C4A32310   5.896  17.532   7.655
 7956POPC   C1B32311   6.156  17.513   8.555
 7956POPC   C2B32312   6.065  17.601   8.255
 7956POPC   C3B32313   6.136  17.533   7.955
 7956POPC   C4B32314   6.150  17.557   7.655
 7957POPC   NC332315   1.231   5.070   9.455
 7957POPC   PO432316   1.226   5.135   9.155
 7957POPC   GL132317   1.167   5.113   8.855
 7957POPC   GL232318   1.211   5.204   8.855
 7957POPC   C1A32319   1.213   5.115   8.555
 7957POPC   D2A32320   1.247   5.094   8.255
 7957POPC   C3A32321   1.179   5.123   7.955
 7957POPC   C4A32322   1.230   5.090   7.655
 7957POPC   C1B32323   1.156   5.343   8.555
 7957POPC   C2B32324   1.209   5.360   8.255
 7957POPC   C3B32325   1.170   5.304   7.955
 7957POPC   C4B32326   1.182   5.289   7.655
 7958POPC   NC332327  12.060   8.185   9.455
 7958POPC   PO432328  12.091   8.243   9.155
 7958POPC   GL132329  12.065   8.244   8.855
 7958POPC   GL232330  11.946   8.129   8.855
 7958POPC   C1A32331  12.117   8.157   8.555
 7958POPC   D2A32332  12.064   8.231   8.255
 7958POPC   C3A32333  12.094   8.151   7.955
 7958POPC   C4A32334  12.050   8.228   7.655
 7958POPC   C1B32335  11.831   8.062   8.555
 7958POPC   C2B32336  11.916   8.095   8.255
 7958POPC   C3B32337  11.831   8.018   7.955
 7958POPC   C4B32338  11.895   8.096   7.655
 7959POPC   NC332339  25.288  19.876   9.455
 7959POPC   PO432340  25.218  19.876   9.155
 7959POPC   GL132341  25.223  19.816   8.855
 7959POPC   GL232342  25.331  19.793   8.855
 7959POPC   C1A32343  25.255  19.876   8.555
 7959POPC   D2A32344  25.250  19.791   8.255
 7959POPC   C3A32345  25.287  19.846   7.955
 7959POPC   C4A32346  25.251  19.863   7.655
 7959POPC   C1B32347  25.512  19.763   8.555
 7959POPC   C2B32348  25.472  19.685   8.255
 7959POPC   C3B32349  25.473  19.770   7.955
 7959POPC   C4B32350  25.531  19.781   7.655
 7960POPC   NC332351  15.187   0.391   9.455
 7960POPC   PO432352  15.132   0.404   9.155
 7960POPC   GL132353  15.169   0.422   8.855
 7960POPC   GL232354  15.039   0.462   8.855
 7960POPC   C1A32355  15.212   0.413   8.555
 7960POPC   D2A32356  15.213   0.447   8.255
 7960POPC   C3A32357  15.144   0.448   7.955
 7960POPC   C4A32358  15.169   0.421   7.655
 7960POPC   C1B32359  14.967   0.479   8.555
 7960POPC   C2B32360  14.897   0.497   8.255
 7960POPC   C3B32361  14.972   0.544   7.955
 7960POPC   C4B32362  14.915   0.530   7.655
 7961POPC   NC332363   3.515  39.271   9.455
 7961POPC   PO432364   3.513  39.212   9.155
 7961POPC   GL132365   3.505  39.213   8.855
 7961POPC   GL232366   3.529  39.136   8.855
 7961POPC   C1A32367   3.545  39.237   8.555
 7961POPC   D2A32368   3.563  39.240   8.255
 7961POPC   C3A32369   3.509  39.271   7.955
 7961POPC   C4A32370   3.591  39.212   7.655
 7961POPC   C1B32371   3.564  39.002   8.555
 7961POPC   C2B32372   3.479  38.956   8.255
 7961POPC   C3B32373   3.550  38.945   7.955
 7961POPC   C4B32374   3.520  39.012   7.655
 7962POPC   NC332375  41.592  13.578   9.455
 7962POPC   PO432376  41.608  13.642   9.155
 7962POPC   GL132377  41.532  13.671   8.855
 7962POPC   GL232378  41.698  13.718   8.855
 7962POPC   C1A32379  41.571  13.596   8.555
 7962POPC   D2A32380  41.595  13.612   8.255
 7962POPC   C3A32381  41.589  13.653   7.955
 7962POPC   C4A32382  41.555  13.637   7.655
 7962POPC   C1B32383  41.808  13.759   8.555
 7962POPC   C2B32384  41.794  13.794   8.255
 7962POPC   C3B32385  41.797  13.821   7.955
 7962POPC   C4B32386  41.767  13.788   7.655
 7963POPC   NC332387  21.376  43.158   9.455
 7963POPC   PO432388  21.401  43.109   9.155
 7963POPC   GL132389  21.387  43.069   8.855
 7963POPC   GL232390  21.444  43.253   8.855
 7963POPC   C1A32391  21.388  43.091   8.555
 7963POPC   D2A32392  21.391  43.075   8.255
 7963POPC   C3A32393  21.376  43.119   7.955
 7963POPC   C4A32394  21.400  43.087   7.655
 7963POPC   C1B32395  21.444  43.356   8.555
 7963POPC   C2B32396  21.398  43.325   8.255
 7963POPC   C3B32397  21.433  43.332   7.955
 7963POPC   C4B32398  21.388  43.360   7.655
 7964POPC   NC332399  19.874  35.363   9.455
 7964POPC   PO432400  19.862  35.356   9.155
 7964POPC   GL132401  19.871  35.378   8.855
 7964POPC   GL232402  19.887  35.399   8.855
 7964POPC   C1A32403  19.877  35.303   8.555
 7964POPC   D2A32404  19.880  35.368   8.255
 7964POPC   C3A32405  19.882  35.338   7.955
 7964POPC   C4A32406  19.867  35.355   7.655
 7964POPC   C1B32407  20.013  35.499   8.555
 7964POPC   C2B32408  19.966  35.536   8.255
 7964POPC   C3B32409  20.020  35.544   7.955
 7964POPC   C4B32410  19.985  35.580   7.655
 7965POPC   NC332411  35.398  36.930   9.455
 7965POPC   PO432412  35.381  36.916   9.155
 7965POPC   GL132413  35.396  36.943   8.855
 7965POPC   GL232414  35.312  37.002   8.855
 7965POPC   C1A32415  35.337  36.892   8.555
 7965POPC   D2A32416  35.387  36.896   8.255
 7965POPC   C3A32417  35.375  36.897   7.955
 7965POPC   C4A32418  35.400  36.878   7.655
 7965POPC   C1B32419  35.217  37.100   8.555
 7965POPC   C2B32420  35.205  37.082   8.255
 7965POPC   C3B32421  35.191  37.170   7.955
 7965POPC   C4B32422  35.214  37.164   7.655
 7966POPC   NC332423  14.436  25.304   9.455
 7966POPC   PO432424  14.369  25.273   9.155
 7966POPC   GL132425  14.423  25.279   8.855
 7966POPC   GL232426  14.491  25.163   8.855
 7966POPC   C1A32427  14.419  25.220   8.555
 7966POPC   D2A32428  14.363  25.305   8.255
 7966POPC   C3A32429  14.441  25.295   7.955
 7966POPC   C4A32430  14.444  25.251   7.655
 7966POPC   C1B32431  14.573  25.168   8.555
 7966POPC   C2B32432  14.575  25.089   8.255
 7966POPC   C3B32433  14.584  25.096   7.955
 7966POPC   C4B32434  14.611  25.146   7.655
 7967POPC   NC332435  41.606   9.753   9.455
 7967POPC   PO432436  41.557   9.742   9.155
 7967POPC   GL132437  41.524   9.760   8.855
 7967POPC   GL232438  41.628   9.803   8.855
 7967POPC   C1A32439  41.587   9.706   8.555
 7967POPC   D2A32440  41.550   9.773   8.255
 7967POPC   C3A32441  41.547   9.743   7.955
 7967POPC   C4A32442  41.579   9.700   7.655
 7967POPC   C1B32443  41.666   9.990   8.555
 7967POPC   C2B32444  41.680   9.985   8.255
 7967POPC   C3B32445  41.761   9.969   7.955
 7967POPC   C4B32446  41.744   9.978   7.655
 7968POPC   NC332447  19.044  36.947   9.455
 7968POPC   PO432448  19.064  36.945   9.155
 7968POPC   GL132449  19.066  36.918   8.855
 7968POPC   GL232450  19.224  36.891   8.855
 7968POPC   C1A32451  19.069  36.870   8.555
 7968POPC   D2A32452  19.105  36.889   8.255
 7968POPC   C3A32453  19.072  36.896   7.955
 7968POPC   C4A32454  19.016  36.946   7.655
 7968POPC   C1B32455  19.337  36.964   8.555
 7968POPC   C2B32456  19.307  36.940   8.255
 7968POPC   C3B32457  19.291  36.967   7.955
 7968POPC   C4B32458  19.322  36.943   7.655
 7969POPC   NC332459  26.853  11.314   9.455
 7969POPC   PO432460  26.807  11.273   9.155
 7969POPC   GL132461  26.809  11.333   8.855
 7969POPC   GL232462  26.895  11.202   8.855
 7969POPC   C1A32463  26.824  11.312   8.555
 7969POPC   D2A32464  26.794  11.280   8.255
 7969POPC   C3A32465  26.803  11.250   7.955
 7969POPC   C4A32466  26.818  11.337   7.655
 7969POPC   C1B32467  26.983  11.195   8.555
 7969POPC   C2B32468  27.058  11.130   8.255
 7969POPC   C3B32469  27.065  11.119   7.955
 7969POPC   C4B32470  27.058  11.150   7.655
 7970POPC   NC332471  26.080  39.269   9.455
 7970POPC   PO432472  26.068  39.274   9.155
 7970POPC   GL132473  26.047  39.211   8.855
 7970POPC   GL232474  26.206  39.246   8.855
 7970POPC   C1A32475  26.087  39.258   8.555
 7970POPC   D2A32476  26.075  39.257   8.255
 7970POPC   C3A32477  25.995  39.190   7.955
 7970POPC   C4A32478  26.060  39.206   7.655
 7970POPC   C1B32479  26.297  39.265   8.555
 7970POPC   C2B32480  26.270  39.225   8.255
 7970POPC   C3B32481  26.303  39.265   7.955
 7970POPC   C4B32482  26.296  39.195   7.655
 7971POPC   NC332483  17.459  39.188   9.455
 7971POPC   PO432484  17.512  39.260   9.155
 7971POPC   GL132485  17.525  39.209   8.855
 7971POPC   GL232486  17.407  39.166   8.855
 7971POPC   C1A32487  17.515  39.226   8.555
 7971POPC   D2A32488  17.490  39.253   8.255
 7971POPC   C3A32489  17.507  39.203   7.955
 7971POPC   C4A32490  17.505  39.277   7.655
 7971POPC   C1B32491  17.314  39.082   8.555
 7971POPC   C2B32492  17.277  39.068   8.255
 7971POPC   C3B32493  17.353  39.094   7.955
 7971POPC   C4B32494  17.308  39.075   7.655
 7972POPC   NC332495  43.087  28.349   9.455
 7972POPC   PO432496  43.159  28.382   9.155
 7972POPC   GL132497  43.121  28.403   8.855
 7972POPC   GL232498  43.019  28.515   8.855
 7972POPC   C1A32499  43.121  28.379   8.555
 7972POPC   D2A32500  43.152  28.344   8.255
 7972POPC   C3A32501  43.127  28.364   7.955
 7972POPC   C4A32502  43.141  28.401   7.655
 7972POPC   C1B32503  43.023  28.610   8.555
 7972POPC   C2B32504  43.036  28.550   8.255
 7972POPC   C3B32505  43.020  28.610   7.955
 7972POPC   C4B32506  42.981  28.562   7.655
 7973POPC   NC332507  19.794  33.781   9.455
 7973POPC   PO432508  19.827  33.844   9.155
 7973POPC   GL132509  19.881  33.828   8.855
 7973POPC   GL232510  19.744  33.904   8.855
 7973POPC   C1A32511  19.857  33.794   8.555
 7973POPC   D2A32512  19.871  33.799   8.255
 7973POPC   C3A32513  19.819  33.849   7.955
 7973POPC   C4A32514  19.853  33.796   7.655
 7973POPC   C1B32515  19.666  33.998   8.555
 7973POPC   C2B32516  19.676  33.997   8.255
 7973POPC   C3B32517  19.721  34.037   7.955
 7973POPC   C4B32518  19.729  34.005   7.655
 7974POPC   NC332519   1.219  16.731   9.455
 7974POPC   PO432520   1.229  16.754   9.155
 7974POPC   GL132521   1.192  16.752   8.855
 7974POPC   GL232522   1.348  16.763   8.855
 7974POPC   C1A32523   1.214  16.713   8.555
 7974POPC   D2A32524   1.247  16.710   8.255
 7974POPC   C3A32525   1.173  16.778   7.955
 7974POPC   C4A32526   1.190  16.720   7.655
 7974POPC   C1B32527   1.461  16.721   8.555
 7974POPC   C2B32528   1.418  16.647   8.255
 7974POPC   C3B32529   1.458  16.649   7.955
 7974POPC   C4B32530   1.435  16.693   7.655
 7975POPC   NC332531   9.743  33.803   9.455
 7975POPC   PO432532   9.738  33.843   9.155
 7975POPC   GL132533   9.733  33.759   8.855
 7975POPC   GL232534   9.703  33.892   8.855
 7975POPC   C1A32535   9.749  33.808   8.555
 7975POPC   D2A32536   9.767  33.786   8.255
 7975POPC   C3A32537   9.757  33.841   7.955
 7975POPC   C4A32538   9.724  33.778   7.655
 7975POPC   C1B32539   9.655  33.971   8.555
 7975POPC   C2B32540   9.668  34.025   8.255
 7975POPC   C3B32541   9.674  34.004   7.955
 7975POPC   C4B32542   9.586  33.997   7.655
 7976POPC   NC332543  20.657  14.394   9.455
 7976POPC   PO432544  20.605  14.396   9.155
 7976POPC   GL132545  20.589  14.434   8.855
 7976POPC   GL232546  20.602  14.321   8.855
 7976POPC   C1A32547  20.646  14.416   8.555
 7976POPC   D2A32548  20.637  14.364   8.255
 7976POPC   C3A32549  20.581  14.447   7.955
 7976POPC   C4A32550  20.579  14.371   7.655
 7976POPC   C1B32551  20.648  14.135   8.555
 7976POPC   C2B32552  20.611  14.112   8.255
 7976POPC   C3B32553  20.641  14.180   7.955
 7976POPC   C4B32554  20.616  14.195   7.655
 7977POPC   NC332555  26.075   1.186   9.455
 7977POPC   PO432556  26.079   1.225   9.155
 7977POPC   GL132557  26.034   1.252   8.855
 7977POPC   GL232558  25.959   1.080   8.855
 7977POPC   C1A32559  26.001   1.263   8.555
 7977POPC   D2A32560  26.077   1.169   8.255
 7977POPC   C3A32561  26.046   1.227   7.955
 7977POPC   C4A32562  26.088   1.226   7.655
 7977POPC   C1B32563  25.961   0.993   8.555
 7977POPC   C2B32564  25.945   0.969   8.255
 7977POPC   C3B32565  25.962   0.945   7.955
 7977POPC   C4B32566  25.929   0.933   7.655
 7978POPC   NC332567   9.792  27.636   9.455
 7978POPC   PO432568   9.787  27.634   9.155
 7978POPC   GL132569   9.790  27.638   8.855
 7978POPC   GL232570   9.769  27.523   8.855
 7978POPC   C1A32571   9.765  27.593   8.555
 7978POPC   D2A32572   9.765  27.601   8.255
 7978POPC   C3A32573   9.764  27.578   7.955
 7978POPC   C4A32574   9.725  27.584   7.655
 7978POPC   C1B32575   9.837  27.401   8.555
 7978POPC   C2B32576   9.862  27.349   8.255
 7978POPC   C3B32577   9.844  27.371   7.955
 7978POPC   C4B32578   9.851  27.408   7.655
 7979POPC   NC332579  11.261  16.742   9.455
 7979POPC   PO432580  11.286  16.687   9.155
 7979POPC   GL132581  11.345  16.752   8.855
 7979POPC   GL232582  11.326  16.834   8.855
 7979POPC   C1A32583  11.306  16.756   8.555
 7979POPC   D2A32584  11.338  16.717   8.255
 7979POPC   C3A32585  11.282  16.728   7.955
 7979POPC   C4A32586  11.348  16.720   7.655
 7979POPC   C1B32587  11.270  16.936   8.555
 7979POPC   C2B32588  11.328  16.943   8.255
 7979POPC   C3B32589  11.271  16.940   7.955
 7979POPC   C4B32590  11.341  16.977   7.655
 7980POPC   NC332591  16.718  15.912   9.455
 7980POPC   PO432592  16.683  15.962   9.155
 7980POPC   GL132593  16.685  15.939   8.855
 7980POPC   GL232594  16.779  16.026   8.855
 7980POPC   C1A32595  16.698  15.923   8.555
 7980POPC   D2A32596  16.724  15.984   8.255
 7980POPC   C3A32597  16.748  15.943   7.955
 7980POPC   C4A32598  16.708  15.936   7.655
 7980POPC   C1B32599  16.954  16.071   8.555
 7980POPC   C2B32600  16.876  16.077   8.255
 7980POPC   C3B32601  16.971  16.142   7.955
 7980POPC   C4B32602  16.949  16.073   7.655
 7981POPC   NC332603  36.915  21.352   9.455
 7981POPC   PO432604  36.925  21.362   9.155
 7981POPC   GL132605  36.895  21.365   8.855
 7981POPC   GL232606  37.054  21.427   8.855
 7981POPC   C1A32607  36.942  21.370   8.555
 7981POPC   D2A32608  36.875  21.350   8.255
 7981POPC   C3A32609  36.903  21.402   7.955
 7981POPC   C4A32610  36.933  21.349   7.655
 7981POPC   C1B32611  37.118  21.556   8.555
 7981POPC   C2B32612  37.155  21.520   8.255
 7981POPC   C3B32613  37.070  21.495   7.955
 7981POPC   C4B32614  37.065  21.518   7.655
 7982POPC   NC332615  12.061  31.477   9.455
 7982POPC   PO432616  12.088  31.427   9.155
 7982POPC   GL132617  12.028  31.431   8.855
 7982POPC   GL232618  11.974  31.406   8.855
 7982POPC   C1A32619  12.087  31.486   8.555
 7982POPC   D2A32620  12.092  31.477   8.255
 7982POPC   C3A32621  12.112  31.470   7.955
 7982POPC   C4A32622  12.090  31.428   7.655
 7982POPC   C1B32623  11.854  31.324   8.555
 7982POPC   C2B32624  11.859  31.366   8.255
 7982POPC   C3B32625  11.846  31.305   7.955
 7982POPC   C4B32626  11.887  31.343   7.655
 7983POPC   NC332627   0.407  17.495   9.455
 7983POPC   PO432628   0.461  17.544   9.155
 7983POPC   GL132629   0.409  17.489   8.855
 7983POPC   GL232630   0.505  17.549   8.855
 7983POPC   C1A32631   0.401  17.505   8.555
 7983POPC   D2A32632   0.436  17.513   8.255
 7983POPC   C3A32633   0.392  17.471   7.955
 7983POPC   C4A32634   0.403  17.474   7.655
 7983POPC   C1B32635   0.609  17.684   8.555
 7983POPC   C2B32636   0.663  17.666   8.255
 7983POPC   C3B32637   0.580  17.695   7.955
 7983POPC   C4B32638   0.587  17.698   7.655
 7984POPC   NC332639   4.300  34.533   9.455
 7984POPC   PO432640   4.358  34.531   9.155
 7984POPC   GL132641   4.297  34.602   8.855
 7984POPC   GL232642   4.371  34.463   8.855
 7984POPC   C1A32643   4.349  34.598   8.555
 7984POPC   D2A32644   4.352  34.583   8.255
 7984POPC   C3A32645   4.336  34.546   7.955
 7984POPC   C4A32646   4.308  34.534   7.655
 7984POPC   C1B32647   4.527  34.388   8.555
 7984POPC   C2B32648   4.481  34.472   8.255
 7984POPC   C3B32649   4.501  34.449   7.955
 7984POPC   C4B32650   4.560  34.462   7.655
 7985POPC   NC332651   6.634  30.719   9.455
 7985POPC   PO432652   6.656  30.710   9.155
 7985POPC   GL132653   6.617  30.691   8.855
 7985POPC   GL232654   6.803  30.771   8.855
 7985POPC   C1A32655   6.648  30.694   8.555
 7985POPC   D2A32656   6.610  30.650   8.255
 7985POPC   C3A32657   6.641  30.664   7.955
 7985POPC   C4A32658   6.690  30.718   7.655
 7985POPC   C1B32659   6.893  30.762   8.555
 7985POPC   C2B32660   6.878  30.784   8.255
 7985POPC   C3B32661   6.917  30.713   7.955
 7985POPC   C4B32662   6.851  30.736   7.655
 7986POPC   NC332663  43.155  18.274   9.455
 7986POPC   PO432664  43.107  18.300   9.155
 7986POPC   GL132665  43.087  18.249   8.855
 7986POPC   GL232666  43.045  18.355   8.855
 7986POPC   C1A32667  43.092  18.234   8.555
 7986POPC   D2A32668  43.076  18.282   8.255
 7986POPC   C3A32669  43.065  18.282   7.955
 7986POPC   C4A32670  43.119  18.301   7.655
 7986POPC   C1B32671  42.913  18.516   8.555
 7986POPC   C2B32672  42.903  18.520   8.255
 7986POPC   C3B32673  42.996  18.459   7.955
 7986POPC   C4B32674  42.946  18.513   7.655
 7987POPC   NC332675   0.410   0.430   9.455
 7987POPC   PO432676   0.438   0.458   9.155
 7987POPC   GL132677   0.394   0.467   8.855
 7987POPC   GL232678   0.387   0.360   8.855
 7987POPC   C1A32679   0.481   0.438   8.555
 7987POPC   D2A32680   0.459   0.424   8.255
 7987POPC   C3A32681   0.429   0.394   7.955
 7987POPC   C4A32682   0.464   0.436   7.655
 7987POPC   C1B32683   0.227   0.217   8.555
 7987POPC   C2B32684   0.300   0.209   8.255
 7987POPC   C3B32685   0.302   0.290   7.955
 7987POPC   C4B32686   0.286   0.244   7.655
 7988POPC   NC332687   4.331  17.523   9.455
 7988POPC   PO432688   4.316  17.462   9.155
 7988POPC   GL132689   4.356  17.515   8.855
 7988POPC   GL232690   4.477  17.565   8.855
 7988POPC   C1A32691   4.322  17.556   8.555
 7988POPC   D2A32692   4.307  17.501   8.255
 7988POPC   C3A32693   4.354  17.527   7.955
 7988POPC   C4A32694   4.275  17.508   7.655
 7988POPC   C1B32695   4.542  17.548   8.555
 7988POPC   C2B32696   4.525  17.554   8.255
 7988POPC   C3B32697   4.556  17.529   7.955
 7988POPC   C4B32698   4.576  17.515   7.655
 7989POPC   NC332699  43.842  22.119   9.455
 7989POPC   PO432700  43.900  22.145   9.155
 7989POPC   GL132701  43.847  22.128   8.855
 7989POPC   GL232702  43.863  22.089   8.855
 7989POPC   C1A32703  43.909  22.131   8.555
 7989POPC   D2A32704  43.919  22.139   8.255
 7989POPC   C3A32705  43.893  22.156   7.955
 7989POPC   C4A32706  43.843  22.130   7.655
 7989POPC   C1B32707  43.733  21.976   8.555
 7989POPC   C2B32708  43.790  21.978   8.255
 7989POPC   C3B32709  43.782  21.944   7.955
 7989POPC   C4B32710  43.740  21.977   7.655
 7990POPC   NC332711  26.790  27.579   9.455
 7990POPC   PO432712  26.833  27.598   9.155
 7990POPC   GL132713  26.780  27.624   8.855
 7990POPC   GL232714  26.767  27.494   8.855
 7990POPC   C1A32715  26.831  27.578   8.555
 7990POPC   D2A32716  26.837  27.598   8.255
 7990POPC   C3A32717  26.771  27.616   7.955
 7990POPC   C4A32718  26.778  27.575   7.655
 7990POPC   C1B32719  26.690  27.346   8.555
 7990POPC   C2B32720  26.781  27.390   8.255
 7990POPC   C3B32721  26.709  27.323   7.955
 7990POPC   C4B32722  26.720  27.383   7.655
 7991POPC   NC332723  29.925  16.712   9.455
 7991POPC   PO432724  29.949  16.727   9.155
 7991POPC   GL132725  29.928  16.762   8.855
 7991POPC   GL232726  29.946  16.891   8.855
 7991POPC   C1A32727  29.895  16.751   8.555
 7991POPC   D2A32728  29.946  16.777   8.255
 7991POPC   C3A32729  29.908  16.730   7.955
 7991POPC   C4A32730  29.923  16.741   7.655
 7991POPC   C1B32731  29.940  16.987   8.555
 7991POPC   C2B32732  29.895  16.933   8.255
 7991POPC   C3B32733  29.871  16.952   7.955
 7991POPC   C4B32734  29.929  17.005   7.655
 7992POPC   NC332735   5.130  41.558   9.455
 7992POPC   PO432736   5.103  41.560   9.155
 7992POPC   GL132737   5.101  41.575   8.855
 7992POPC   GL232738   5.025  41.404   8.855
 7992POPC   C1A32739   5.119  41.518   8.555
 7992POPC   D2A32740   5.088  41.599   8.255
 7992POPC   C3A32741   5.128  41.518   7.955
 7992POPC   C4A32742   5.097  41.577   7.655
 7992POPC   C1B32743   5.061  41.339   8.555
 7992POPC   C2B32744   4.993  41.326   8.255
 7992POPC   C3B32745   5.015  41.309   7.955
 7992POPC   C4B32746   4.975  41.309   7.655
 7993POPC   NC332747  22.210  12.854   9.455
 7993POPC   PO432748  22.181  12.805   9.155
 7993POPC   GL132749  22.128  12.879   8.855
 7993POPC   GL232750  22.245  12.750   8.855
 7993POPC   C1A32751  22.165  12.879   8.555
 7993POPC   D2A32752  22.137  12.822   8.255
 7993POPC   C3A32753  22.192  12.893   7.955
 7993POPC   C4A32754  22.143  12.878   7.655
 7993POPC   C1B32755  22.236  12.574   8.555
 7993POPC   C2B32756  22.284  12.659   8.255
 7993POPC   C3B32757  22.206  12.595   7.955
 7993POPC   C4B32758  22.256  12.611   7.655
 7994POPC   NC332759  15.202  37.670   9.455
 7994POPC   PO432760  15.222  37.664   9.155
 7994POPC   GL132761  15.166  37.719   8.855
 7994POPC   GL232762  15.245  37.806   8.855
 7994POPC   C1A32763  15.225  37.717   8.555
 7994POPC   D2A32764  15.161  37.712   8.255
 7994POPC   C3A32765  15.201  37.691   7.955
 7994POPC   C4A32766  15.225  37.657   7.655
 7994POPC   C1B32767  15.341  37.944   8.555
 7994POPC   C2B32768  15.301  37.866   8.255
 7994POPC   C3B32769  15.327  37.885   7.955
 7994POPC   C4B32770  15.299  37.886   7.655
 7995POPC   NC332771  34.545   3.567   9.455
 7995POPC   PO432772  34.608   3.515   9.155
 7995POPC   GL132773  34.620   3.559   8.855
 7995POPC   GL232774  34.452   3.433   8.855
 7995POPC   C1A32775  34.560   3.551   8.555
 7995POPC   D2A32776  34.579   3.509   8.255
 7995POPC   C3A32777  34.562   3.498   7.955
 7995POPC   C4A32778  34.541   3.523   7.655
 7995POPC   C1B32779  34.426   3.337   8.555
 7995POPC   C2B32780  34.392   3.361   8.255
 7995POPC   C3B32781  34.427   3.328   7.955
 7995POPC   C4B32782  34.391   3.367   7.655
 7996POPC   NC332783   1.168  38.468   9.455
 7996POPC   PO432784   1.166  38.486   9.155
 7996POPC   GL132785   1.255  38.447   8.855
 7996POPC   GL232786   1.192  38.610   8.855
 7996POPC   C1A32787   1.196  38.493   8.555
 7996POPC   D2A32788   1.174  38.493   8.255
 7996POPC   C3A32789   1.180  38.456   7.955
 7996POPC   C4A32790   1.192  38.450   7.655
 7996POPC   C1B32791   1.161  38.643   8.555
 7996POPC   C2B32792   1.114  38.660   8.255
 7996POPC   C3B32793   1.119  38.713   7.955
 7996POPC   C4B32794   1.127  38.703   7.655
 7997POPC   NC332795  42.384  22.152   9.455
 7997POPC   PO432796  42.340  22.153   9.155
 7997POPC   GL132797  42.380  22.116   8.855
 7997POPC   GL232798  42.292  22.056   8.855
 7997POPC   C1A32799  42.364  22.154   8.555
 7997POPC   D2A32800  42.359  22.186   8.255
 7997POPC   C3A32801  42.341  22.177   7.955
 7997POPC   C4A32802  42.318  22.148   7.655
 7997POPC   C1B32803  42.157  21.974   8.555
 7997POPC   C2B32804  42.160  22.013   8.255
 7997POPC   C3B32805  42.195  22.006   7.955
 7997POPC   C4B32806  42.159  21.936   7.655
 7998POPC   NC332807  12.102  44.679   9.455
 7998POPC   PO432808  12.033  44.694   9.155
 7998POPC   GL132809  12.034  44.637   8.855
 7998POPC   GL232810  12.087  44.775   8.855
 7998POPC   C1A32811  12.082  44.636   8.555
 7998POPC   D2A32812  12.052  44.687   8.255
 7998POPC   C3A32813  12.091  44.699   7.955
 7998POPC   C4A32814  12.067  44.663   7.655
 7998POPC   C1B32815  12.008  44.901   8.555
 7998POPC   C2B32816  11.999  44.897   8.255
 7998POPC   C3B32817  12.038  44.927   7.955
 7998POPC   C4B32818  11.999  44.887   7.655
 7999POPC   NC332819  43.889  21.427   9.455
 7999POPC   PO432820  43.863  21.408   9.155
 7999POPC   GL132821  43.902  21.362   8.855
 7999POPC   GL232822  43.940  21.486   8.855
 7999POPC   C1A32823  43.853  21.411   8.555
 7999POPC   D2A32824  43.841  21.434   8.255
 7999POPC   C3A32825  43.919  21.344   7.955
 7999POPC   C4A32826  43.881  21.410   7.655
 7999POPC   C1B32827  44.015  21.647   8.555
 7999POPC   C2B32828  44.037  21.635   8.255
 7999POPC   C3B32829  44.029  21.638   7.955
 7999POPC   C4B32830  44.001  21.596   7.655
 8000POPC   NC332831   2.765  33.064   9.455
 8000POPC   PO432832   2.770  33.014   9.155
 8000POPC   GL132833   2.725  33.073   8.855
 8000POPC   GL232834   2.734  33.130   8.855
 8000POPC   C1A32835   2.769  33.001   8.555
 8000POPC   D2A32836   2.772  33.037   8.255
 8000POPC   C3A32837   2.754  32.975   7.955
 8000POPC   C4A32838   2.729  33.023   7.655
 8000POPC   C1B32839   2.703  33.256   8.555
 8000POPC   C2B32840   2.657  33.253   8.255
 8000POPC   C3B32841   2.711  33.250   7.955
 8000POPC   C4B32842   2.652  33.295   7.655
 8001POPC   NC332843  26.087  25.310   9.455
 8001POPC   PO432844  26.088  25.260   9.155
 8001POPC   GL132845  26.018  25.306   8.855
 8001POPC   GL232846  26.063  25.402   8.855
 8001POPC   C1A32847  26.006  25.273   8.555
 8001POPC   D2A32848  26.082  25.243   8.255
 8001POPC   C3A32849  26.058  25.300   7.955
 8001POPC   C4A32850  26.040  25.303   7.655
 8001POPC   C1B32851  26.131  25.484   8.555
 8001POPC   C2B32852  26.142  25.522   8.255
 8001POPC   C3B32853  26.182  25.494   7.955
 8001POPC   C4B32854  26.144  25.518   7.655
 8002POPC   NC332855   0.441  29.124   9.455
 8002POPC   PO432856   0.424  29.150   9.155
 8002POPC   GL132857   0.410  29.162   8.855
 8002POPC   GL232858   0.559  29.096   8.855
 8002POPC   C1A32859   0.441  29.117   8.555
 8002POPC   D2A32860   0.455  29.142   8.255
 8002POPC   C3A32861   0.429  29.193   7.955
 8002POPC   C4A32862   0.477  29.179   7.655
 8002POPC   C1B32863   0.592  29.029   8.555
 8002POPC   C2B32864   0.591  28.953   8.255
 8002POPC   C3B32865   0.620  28.994   7.955
 8002POPC   C4B32866   0.648  28.976   7.655
 8003POPC   NC332867   9.719  29.128   9.455
 8003POPC   PO432868   9.754  29.171   9.155
 8003POPC   GL132869   9.724  29.096   8.855
 8003POPC   GL232870   9.828  29.133   8.855
 8003POPC   C1A32871   9.770  29.127   8.555
 8003POPC   D2A32872   9.788  29.185   8.255
 8003POPC   C3A32873   9.771  29.122   7.955
 8003POPC   C4A32874   9.794  29.124   7.655
 8003POPC   C1B32875   9.982  29.061   8.555
 8003POPC   C2B32876   9.971  29.088   8.255
 8003POPC   C3B32877  10.018  29.066   7.955
 8003POPC   C4B32878  10.019  29.061   7.655
 8004POPC   NC332879  13.621  19.800   9.455
 8004POPC   PO432880  13.606  19.800   9.155
 8004POPC   GL132881  13.678  19.815   8.855
 8004POPC   GL232882  13.505  19.780   8.855
 8004POPC   C1A32883  13.612  19.829   8.555
 8004POPC   D2A32884  13.659  19.846   8.255
 8004POPC   C3A32885  13.616  19.788   7.955
 8004POPC   C4A32886  13.652  19.812   7.655
 8004POPC   C1B32887  13.349  19.780   8.555
 8004POPC   C2B32888  13.362  19.771   8.255
 8004POPC   C3B32889  13.373  19.786   7.955
 8004POPC   C4B32890  13.361  19.861   7.655
 8005POPC   NC332891  41.521   0.482   9.455
 8005POPC   PO432892  41.556   0.434   9.155
 8005POPC   GL132893  41.561   0.390   8.855
 8005POPC   GL232894  41.551   0.581   8.855
 8005POPC   C1A32895  41.521   0.482   8.555
 8005POPC   D2A32896  41.596   0.394   8.255
 8005POPC   C3A32897  41.578   0.460   7.955
 8005POPC   C4A32898  41.535   0.451   7.655
 8005POPC   C1B32899  41.515   0.693   8.555
 8005POPC   C2B32900  41.607   0.650   8.255
 8005POPC   C3B32901  41.507   0.692   7.955
 8005POPC   C4B32902  41.557   0.664   7.655
 8006POPC   NC332903   4.333  29.123   9.455
 8006POPC   PO432904   4.330  29.151   9.155
 8006POPC   GL132905   4.355  29.100   8.855
 8006POPC   GL232906   4.157  29.141   8.855
 8006POPC   C1A32907   4.309  29.186   8.555
 8006POPC   D2A32908   4.293  29.146   8.255
 8006POPC   C3A32909   4.351  29.152   7.955
 8006POPC   C4A32910   4.326  29.140   7.655
 8006POPC   C1B32911   4.111  29.157   8.555
 8006POPC   C2B32912   4.078  29.243   8.255
 8006POPC   C3B32913   4.123  29.186   7.955
 8006POPC   C4B32914   4.087  29.203   7.655
 8007POPC   NC332915  43.865  36.934   9.455
 8007POPC   PO432916  43.924  36.887   9.155
 8007POPC   GL132917  43.843  36.881   8.855
 8007POPC   GL232918  43.739  36.957   8.855
 8007POPC   C1A32919  43.909  36.901   8.555
 8007POPC   D2A32920  43.926  36.908   8.255
 8007POPC   C3A32921  43.908  36.877   7.955
 8007POPC   C4A32922  43.913  36.889   7.655
 8007POPC   C1B32923  43.640  37.053   8.555
 8007POPC   C2B32924  43.667  36.978   8.255
 8007POPC   C3B32925  43.669  37.002   7.955
 8007POPC   C4B32926  43.671  37.006   7.655
 8008POPC   NC332927   6.647  25.231   9.455
 8008POPC   PO432928   6.644  25.242   9.155
 8008POPC   GL132929   6.659  25.292   8.855
 8008POPC   GL232930   6.657  25.434   8.855
 8008POPC   C1A32931   6.653  25.241   8.555
 8008POPC   D2A32932   6.618  25.261   8.255
 8008POPC   C3A32933   6.654  25.243   7.955
 8008POPC   C4A32934   6.614  25.292   7.655
 8008POPC   C1B32935   6.748  25.491   8.555
 8008POPC   C2B32936   6.658  25.486   8.255
 8008POPC   C3B32937   6.699  25.516   7.955
 8008POPC   C4B32938   6.700  25.559   7.655
 8009POPC   NC332939  36.157  25.298   9.455
 8009POPC   PO432940  36.087  25.228   9.155
 8009POPC   GL132941  36.095  25.234   8.855
 8009POPC   GL232942  36.109  25.438   8.855
 8009POPC   C1A32943  36.085  25.273   8.555
 8009POPC   D2A32944  36.141  25.272   8.255
 8009POPC   C3A32945  36.172  25.251   7.955
 8009POPC   C4A32946  36.129  25.302   7.655
 8009POPC   C1B32947  36.111  25.561   8.555
 8009POPC   C2B32948  36.125  25.490   8.255
 8009POPC   C3B32949  36.056  25.522   7.955
 8009POPC   C4B32950  36.119  25.546   7.655
 8010POPC   NC332951  38.489  43.083   9.455
 8010POPC   PO432952  38.494  43.144   9.155
 8010POPC   GL132953  38.475  43.148   8.855
 8010POPC   GL232954  38.620  43.137   8.855
 8010POPC   C1A32955  38.447  43.101   8.555
 8010POPC   D2A32956  38.414  43.086   8.255
 8010POPC   C3A32957  38.472  43.133   7.955
 8010POPC   C4A32958  38.426  43.095   7.655
 8010POPC   C1B32959  38.721  43.152   8.555
 8010POPC   C2B32960  38.658  43.130   8.255
 8010POPC   C3B32961  38.738  43.163   7.955
 8010POPC   C4B32962  38.658  43.184   7.655
 8011POPC   NC332963  37.688  16.725   9.455
 8011POPC   PO432964  37.662  16.702   9.155
 8011POPC   GL132965  37.648  16.735   8.855
 8011POPC   GL232966  37.593  16.689   8.855
 8011POPC   C1A32967  37.718  16.757   8.555
 8011POPC   D2A32968  37.636  16.770   8.255
 8011POPC   C3A32969  37.694  16.748   7.955
 8011POPC   C4A32970  37.673  16.683   7.655
 8011POPC   C1B32971  37.493  16.589   8.555
 8011POPC   C2B32972  37.442  16.605   8.255
 8011POPC   C3B32973  37.493  16.549   7.955
 8011POPC   C4B32974  37.427  16.640   7.655
 8012POPC   NC332975  24.442   1.961   9.455
 8012POPC   PO432976  24.459   1.971   9.155
 8012POPC   GL132977  24.527   2.000   8.855
 8012POPC   GL232978  24.523   1.832   8.855
 8012POPC   C1A32979  24.501   1.948   8.555
 8012POPC   D2A32980  24.450   1.993   8.255
 8012POPC   C3A32981  24.473   2.014   7.955
 8012POPC   C4A32982  24.478   2.020   7.655
 8012POPC   C1B32983  24.447   1.770   8.555
 8012POPC   C2B32984  24.487   1.746   8.255
 8012POPC   C3B32985  24.425   1.693   7.955
 8012POPC   C4B32986  24.418   1.711   7.655
 8013POPC   NC332987   5.140  36.161   9.455
 8013POPC   PO432988   5.124  36.130   9.155
 8013POPC   GL132989   5.115  36.085   8.855
 8013POPC   GL232990   5.121  36.056   8.855
 8013POPC   C1A32991   5.136  36.106   8.555
 8013POPC   D2A32992   5.129  36.137   8.255
 8013POPC   C3A32993   5.058  36.086   7.955
 8013POPC   C4A32994   5.139  36.153   7.655
 8013POPC   C1B32995   5.211  35.941   8.555
 8013POPC   C2B32996   5.178  35.918   8.255
 8013POPC   C3B32997   5.208  35.903   7.955
 8013POPC   C4B32998   5.196  35.915   7.655
 8014POPC   NC332999  30.699  28.343   9.455
 8014POPC   PO433000  30.648  28.351   9.155
 8014POPC   GL133001  30.691  28.321   8.855
 8014POPC   GL233002  30.764  28.499   8.855
 8014POPC   C1A33003  30.702  28.321   8.555
 8014POPC   D2A33004  30.732  28.414   8.255
 8014POPC   C3A33005  30.726  28.330   7.955
 8014POPC   C4A33006  30.745  28.386   7.655
 8014POPC   C1B33007  30.830  28.605   8.555
 8014POPC   C2B33008  30.811  28.597   8.255
 8014POPC   C3B33009  30.813  28.606   7.955
 8014POPC   C4B33010  30.835  28.543   7.655
 8015POPC   NC333011  26.857  29.905   9.455
 8015POPC   PO433012  26.840  29.887   9.155
 8015POPC   GL133013  26.829  29.886   8.855
 8015POPC   GL233014  26.657  29.922   8.855
 8015POPC   C1A33015  26.862  29.952   8.555
 8015POPC   D2A33016  26.796  29.885   8.255
 8015POPC   C3A33017  26.804  29.881   7.955
 8015POPC   C4A33018  26.829  29.949   7.655
 8015POPC   C1B33019  26.620  29.904   8.555
 8015POPC   C2B33020  26.548  29.897   8.255
 8015POPC   C3B33021  26.601  29.861   7.955
 8015POPC   C4B33022  26.580  29.928   7.655
 8016POPC   NC333023  44.657  36.151   9.455
 8016POPC   PO433024  44.623  36.146   9.155
 8016POPC   GL133025  44.632  36.103   8.855
 8016POPC   GL233026  44.599  36.148   8.855
 8016POPC   C1A33027  44.617  36.162   8.555
 8016POPC   D2A33028  44.658  36.163   8.255
 8016POPC   C3A33029  44.612  36.106   7.955
 8016POPC   C4A33030  44.691  36.121   7.655
 8016POPC   C1B33031  44.468  36.262   8.555
 8016POPC   C2B33032  44.425  36.260   8.255
 8016POPC   C3B33033  44.397  36.267   7.955
 8016POPC   C4B33034  44.450  36.207   7.655
 8017POPC   NC333035   6.623  41.516   9.455
 8017POPC   PO433036   6.642  41.535   9.155
 8017POPC   GL133037   6.609  41.551   8.855
 8017POPC   GL233038   6.626  41.466   8.855
 8017POPC   C1A33039   6.676  41.539   8.555
 8017POPC   D2A33040   6.635  41.555   8.255
 8017POPC   C3A33041   6.634  41.519   7.955
 8017POPC   C4A33042   6.625  41.563   7.655
 8017POPC   C1B33043   6.742  41.267   8.555
 8017POPC   C2B33044   6.721  41.351   8.255
 8017POPC   C3B33045   6.734  41.353   7.955
 8017POPC   C4B33046   6.689  41.351   7.655
 8018POPC   NC333047  25.229  13.668   9.455
 8018POPC   PO433048  25.261  13.614   9.155
 8018POPC   GL133049  25.276  13.677   8.855
 8018POPC   GL233050  25.231  13.768   8.855
 8018POPC   C1A33051  25.246  13.628   8.555
 8018POPC   D2A33052  25.254  13.589   8.255
 8018POPC   C3A33053  25.295  13.627   7.955
 8018POPC   C4A33054  25.298  13.638   7.655
 8018POPC   C1B33055  25.212  13.821   8.555
 8018POPC   C2B33056  25.235  13.837   8.255
 8018POPC   C3B33057  25.179  13.889   7.955
 8018POPC   C4B33058  25.178  13.867   7.655
 8019POPC   NC333059   9.016  26.022   9.455
 8019POPC   PO433060   9.009  26.040   9.155
 8019POPC   GL133061   8.935  26.012   8.855
 8019POPC   GL233062   8.802  26.031   8.855
 8019POPC   C1A33063   8.984  26.065   8.555
 8019POPC   D2A33064   8.994  26.017   8.255
 8019POPC   C3A33065   8.966  26.071   7.955
 8019POPC   C4A33066   8.963  26.001   7.655
 8019POPC   C1B33067   8.733  26.026   8.555
 8019POPC   C2B33068   8.728  26.004   8.255
 8019POPC   C3B33069   8.752  25.996   7.955
 8019POPC   C4B33070   8.698  26.056   7.655
 8020POPC   NC333071  10.508  11.282   9.455
 8020POPC   PO433072  10.488  11.288   9.155
 8020POPC   GL133073  10.533  11.312   8.855
 8020POPC   GL233074  10.621  11.444   8.855
 8020POPC   C1A33075  10.536  11.301   8.555
 8020POPC   D2A33076  10.507  11.302   8.255
 8020POPC   C3A33077  10.547  11.259   7.955
 8020POPC   C4A33078  10.569  11.284   7.655
 8020POPC   C1B33079  10.736  11.477   8.555
 8020POPC   C2B33080  10.726  11.491   8.255
 8020POPC   C3B33081  10.669  11.510   7.955
 8020POPC   C4B33082  10.694  11.535   7.655
 8021POPC   NC333083  26.815   1.223   9.455
 8021POPC   PO433084  26.863   1.263   9.155
 8021POPC   GL133085  26.784   1.184   8.855
 8021POPC   GL233086  26.836   1.356   8.855
 8021POPC   C1A33087  26.782   1.228   8.555
 8021POPC   D2A33088  26.800   1.221   8.255
 8021POPC   C3A33089  26.844   1.170   7.955
 8021POPC   C4A33090  26.823   1.221   7.655
 8021POPC   C1B33091  26.861   1.460   8.555
 8021POPC   C2B33092  26.827   1.423   8.255
 8021POPC   C3B33093  26.812   1.476   7.955
 8021POPC   C4B33094  26.804   1.430   7.655
 8022POPC   NC333095   8.983   8.226   9.455
 8022POPC   PO433096   8.941   8.234   9.155
 8022POPC   GL133097   8.936   8.185   8.855
 8022POPC   GL233098   9.090   8.212   8.855
 8022POPC   C1A33099   9.015   8.204   8.555
 8022POPC   D2A33100   8.998   8.234   8.255
 8022POPC   C3A33101   8.970   8.229   7.955
 8022POPC   C4A33102   9.014   8.228   7.655
 8022POPC   C1B33103   9.180   8.372   8.555
 8022POPC   C2B33104   9.166   8.340   8.255
 8022POPC   C3B33105   9.220   8.316   7.955
 8022POPC   C4B33106   9.228   8.331   7.655
 8023POPC   NC333107  37.648   6.674   9.455
 8023POPC   PO433108  37.722   6.604   9.155
 8023POPC   GL133109  37.694   6.628   8.855
 8023POPC   GL233110  37.679   6.745   8.855
 8023POPC   C1A33111  37.690   6.687   8.555
 8023POPC   D2A33112  37.645   6.667   8.255
 8023POPC   C3A33113  37.630   6.610   7.955
 8023POPC   C4A33114  37.683   6.694   7.655
 8023POPC   C1B33115  37.643   6.934   8.555
 8023POPC   C2B33116  37.592   6.911   8.255
 8023POPC   C3B33117  37.613   6.920   7.955
 8023POPC   C4B33118  37.586   6.858   7.655
 8024POPC   NC333119   5.864  24.477   9.455
 8024POPC   PO433120   5.820  24.538   9.155
 8024POPC   GL133121   5.903  24.520   8.855
 8024POPC   GL233122   5.868  24.647   8.855
 8024POPC   C1A33123   5.882  24.531   8.555
 8024POPC   D2A33124   5.896  24.473   8.255
 8024POPC   C3A33125   5.899  24.517   7.955
 8024POPC   C4A33126   5.854  24.492   7.655
 8024POPC   C1B33127   5.891  24.702   8.555
 8024POPC   C2B33128   5.854  24.706   8.255
 8024POPC   C3B33129   5.869  24.709   7.955
 8024POPC   C4B33130   5.814  24.713   7.655
 8025POPC   NC333131   3.572  12.864   9.455
 8025POPC   PO433132   3.567  12.882   9.155
 8025POPC   GL133133   3.552  12.806   8.855
 8025POPC   GL233134   3.408  12.853   8.855
 8025POPC   C1A33135   3.496  12.879   8.555
 8025POPC   D2A33136   3.520  12.817   8.255
 8025POPC   C3A33137   3.559  12.837   7.955
 8025POPC   C4A33138   3.544  12.827   7.655
 8025POPC   C1B33139   3.268  12.794   8.555
 8025POPC   C2B33140   3.325  12.776   8.255
 8025POPC   C3B33141   3.267  12.729   7.955
 8025POPC   C4B33142   3.332  12.733   7.655
 8026POPC   NC333143  41.537  16.756   9.455
 8026POPC   PO433144  41.579  16.736   9.155
 8026POPC   GL133145  41.579  16.725   8.855
 8026POPC   GL233146  41.516  16.655   8.855
 8026POPC   C1A33147  41.534  16.740   8.555
 8026POPC   D2A33148  41.594  16.732   8.255
 8026POPC   C3A33149  41.541  16.762   7.955
 8026POPC   C4A33150  41.590  16.714   7.655
 8026POPC   C1B33151  41.377  16.478   8.555
 8026POPC   C2B33152  41.404  16.556   8.255
 8026POPC   C3B33153  41.457  16.544   7.955
 8026POPC   C4B33154  41.390  16.518   7.655
 8027POPC   NC333155  35.336  39.229   9.455
 8027POPC   PO433156  35.366  39.235   9.155
 8027POPC   GL133157  35.352  39.221   8.855
 8027POPC   GL233158  35.201  39.309   8.855
 8027POPC   C1A33159  35.344  39.275   8.555
 8027POPC   D2A33160  35.363  39.212   8.255
 8027POPC   C3A33161  35.310  39.271   7.955
 8027POPC   C4A33162  35.342  39.256   7.655
 8027POPC   C1B33163  35.090  39.316   8.555
 8027POPC   C2B33164  35.126  39.350   8.255
 8027POPC   C3B33165  35.149  39.335   7.955
 8027POPC   C4B33166  35.123  39.345   7.655
 8028POPC   NC333167  26.057  30.716   9.455
 8028POPC   PO433168  26.008  30.668   9.155
 8028POPC   GL133169  26.011  30.677   8.855
 8028POPC   GL233170  26.173  30.745   8.855
 8028POPC   C1A33171  26.050  30.678   8.555
 8028POPC   D2A33172  26.034  30.718   8.255
 8028POPC   C3A33173  26.069  30.698   7.955
 8028POPC   C4A33174  26.064  30.746   7.655
 8028POPC   C1B33175  26.250  30.894   8.555
 8028POPC   C2B33176  26.236  30.873   8.255
 8028POPC   C3B33177  26.201  30.870   7.955
 8028POPC   C4B33178  26.241  30.877   7.655
 8029POPC   NC333179  13.591  41.530   9.455
 8029POPC   PO433180  13.668  41.572   9.155
 8029POPC   GL133181  13.582  41.569   8.855
 8029POPC   GL233182  13.534  41.491   8.855
 8029POPC   C1A33183  13.578  41.557   8.555
 8029POPC   D2A33184  13.578  41.592   8.255
 8029POPC   C3A33185  13.578  41.550   7.955
 8029POPC   C4A33186  13.608  41.564   7.655
 8029POPC   C1B33187  13.442  41.316   8.555
 8029POPC   C2B33188  13.486  41.332   8.255
 8029POPC   C3B33189  13.490  41.323   7.955
 8029POPC   C4B33190  13.536  41.374   7.655
 8030POPC   NC333191  15.215  40.780   9.455
 8030POPC   PO433192  15.193  40.764   9.155
 8030POPC   GL133193  15.130  40.786   8.855
 8030POPC   GL233194  15.317  40.758   8.855
 8030POPC   C1A33195  15.148  40.771   8.555
 8030POPC   D2A33196  15.171  40.742   8.255
 8030POPC   C3A33197  15.157  40.809   7.955
 8030POPC   C4A33198  15.200  40.742   7.655
 8030POPC   C1B33199  15.425  40.782   8.555
 8030POPC   C2B33200  15.431  40.784   8.255
 8030POPC   C3B33201  15.431  40.743   7.955
 8030POPC   C4B33202  15.405  40.781   7.655
 8031POPC   NC333203   7.470  24.499   9.455
 8031POPC   PO433204   7.380  24.453   9.155
 8031POPC   GL133205   7.445  24.477   8.855
 8031POPC   GL233206   7.300  24.493   8.855
 8031POPC   C1A33207   7.457  24.517   8.555
 8031POPC   D2A33208   7.403  24.441   8.255
 8031POPC   C3A33209   7.468  24.488   7.955
 8031POPC   C4A33210   7.378  24.468   7.655
 8031POPC   C1B33211   7.149  24.586   8.555
 8031POPC   C2B33212   7.156  24.607   8.255
 8031POPC   C3B33213   7.228  24.636   7.955
 8031POPC   C4B33214   7.180  24.626   7.655
 8032POPC   NC333215  19.036  14.392   9.455
 8032POPC   PO433216  19.062  14.401   9.155
 8032POPC   GL133217  19.060  14.369   8.855
 8032POPC   GL233218  19.144  14.282   8.855
 8032POPC   C1A33219  19.104  14.353   8.555
 8032POPC   D2A33220  19.020  14.360   8.255
 8032POPC   C3A33221  19.068  14.417   7.955
 8032POPC   C4A33222  19.072  14.436   7.655
 8032POPC   C1B33223  19.254  14.288   8.555
 8032POPC   C2B33224  19.250  14.301   8.255
 8032POPC   C3B33225  19.244  14.246   7.955
 8032POPC   C4B33226  19.298  14.296   7.655
 8033POPC   NC333227  39.967  43.106   9.455
 8033POPC   PO433228  39.973  43.125   9.155
 8033POPC   GL133229  40.003  43.067   8.855
 8033POPC   GL233230  40.132  43.175   8.855
 8033POPC   C1A33231  39.985  43.121   8.555
 8033POPC   D2A33232  39.960  43.120   8.255
 8033POPC   C3A33233  40.014  43.099   7.955
 8033POPC   C4A33234  40.033  43.124   7.655
 8033POPC   C1B33235  40.203  43.209   8.555
 8033POPC   C2B33236  40.235  43.141   8.255
 8033POPC   C3B33237  40.254  43.196   7.955
 8033POPC   C4B33238  40.269  43.193   7.655
 8034POPC   NC333239  31.464  15.160   9.455
 8034POPC   PO433240  31.426  15.203   9.155
 8034POPC   GL133241  31.453  15.165   8.855
 8034POPC   GL233242  31.314  15.193   8.855
 8034POPC   C1A33243  31.504  15.216   8.555
 8034POPC   D2A33244  31.431  15.137   8.255
 8034POPC   C3A33245  31.495  15.201   7.955
 8034POPC   C4A33246  31.494  15.209   7.655
 8034POPC   C1B33247  31.216  15.138   8.555
 8034POPC   C2B33248  31.250  15.133   8.255
 8034POPC   C3B33249  31.210  15.143   7.955
 8034POPC   C4B33250  31.191  15.159   7.655
 8035POPC   NC333251  13.647  25.236   9.455
 8035POPC   PO433252  13.650  25.279   9.155
 8035POPC   GL133253  13.648  25.247   8.855
 8035POPC   GL233254  13.494  25.321   8.855
 8035POPC   C1A33255  13.658  25.235   8.555
 8035POPC   D2A33256  13.588  25.228   8.255
 8035POPC   C3A33257  13.587  25.289   7.955
 8035POPC   C4A33258  13.635  25.233   7.655
 8035POPC   C1B33259  13.446  25.447   8.555
 8035POPC   C2B33260  13.497  25.416   8.255
 8035POPC   C3B33261  13.402  25.475   7.955
 8035POPC   C4B33262  13.459  25.423   7.655
 8036POPC   NC333263   8.179  26.793   9.455
 8036POPC   PO433264   8.189  26.836   9.155
 8036POPC   GL133265   8.230  26.825   8.855
 8036POPC   GL233266   8.146  26.709   8.855
 8036POPC   C1A33267   8.157  26.796   8.555
 8036POPC   D2A33268   8.214  26.804   8.255
 8036POPC   C3A33269   8.195  26.803   7.955
 8036POPC   C4A33270   8.219  26.846   7.655
 8036POPC   C1B33271   8.107  26.592   8.555
 8036POPC   C2B33272   8.121  26.539   8.255
 8036POPC   C3B33273   8.128  26.582   7.955
 8036POPC   C4B33274   8.143  26.535   7.655
 8037POPC   NC333275  43.074   2.813   9.455
 8037POPC   PO433276  43.081   2.803   9.155
 8037POPC   GL133277  43.068   2.812   8.855
 8037POPC   GL233278  43.036   2.648   8.855
 8037POPC   C1A33279  43.096   2.730   8.555
 8037POPC   D2A33280  43.125   2.792   8.255
 8037POPC   C3A33281  43.081   2.770   7.955
 8037POPC   C4A33282  43.101   2.812   7.655
 8037POPC   C1B33283  42.953   2.618   8.555
 8037POPC   C2B33284  42.855   2.623   8.255
 8037POPC   C3B33285  42.928   2.660   7.955
 8037POPC   C4B33286  42.924   2.590   7.655
 8038POPC   NC333287   7.423   1.984   9.455
 8038POPC   PO433288   7.378   1.967   9.155
 8038POPC   GL133289   7.411   2.032   8.855
 8038POPC   GL233290   7.487   1.863   8.855
 8038POPC   C1A33291   7.418   1.953   8.555
 8038POPC   D2A33292   7.429   2.012   8.255
 8038POPC   C3A33293   7.414   1.993   7.955
 8038POPC   C4A33294   7.444   2.012   7.655
 8038POPC   C1B33295   7.500   1.746   8.555
 8038POPC   C2B33296   7.489   1.784   8.255
 8038POPC   C3B33297   7.438   1.739   7.955
 8038POPC   C4B33298   7.454   1.754   7.655
 8039POPC   NC333299  34.569  37.724   9.455
 8039POPC   PO433300  34.593  37.673   9.155
 8039POPC   GL133301  34.619  37.726   8.855
 8039POPC   GL233302  34.624  37.774   8.855
 8039POPC   C1A33303  34.552  37.646   8.555
 8039POPC   D2A33304  34.602  37.670   8.255
 8039POPC   C3A33305  34.580  37.649   7.955
 8039POPC   C4A33306  34.604  37.653   7.655
 8039POPC   C1B33307  34.631  37.921   8.555
 8039POPC   C2B33308  34.622  37.891   8.255
 8039POPC   C3B33309  34.617  37.887   7.955
 8039POPC   C4B33310  34.678  37.881   7.655
 8040POPC   NC333311   7.385   6.641   9.455
 8040POPC   PO433312   7.386   6.602   9.155
 8040POPC   GL133313   7.463   6.664   8.855
 8040POPC   GL233314   7.449   6.816   8.855
 8040POPC   C1A33315   7.467   6.666   8.555
 8040POPC   D2A33316   7.387   6.641   8.255
 8040POPC   C3A33317   7.449   6.632   7.955
 8040POPC   C4A33318   7.373   6.655   7.655
 8040POPC   C1B33319   7.459   6.887   8.555
 8040POPC   C2B33320   7.521   6.925   8.255
 8040POPC   C3B33321   7.506   6.883   7.955
 8040POPC   C4B33322   7.495   6.856   7.655
 8041POPC   NC333323  24.482   1.170   9.455
 8041POPC   PO433324  24.525   1.207   9.155
 8041POPC   GL133325  24.443   1.178   8.855
 8041POPC   GL233326  24.483   1.133   8.855
 8041POPC   C1A33327  24.481   1.178   8.555
 8041POPC   D2A33328  24.445   1.166   8.255
 8041POPC   C3A33329  24.461   1.220   7.955
 8041POPC   C4A33330  24.443   1.164   7.655
 8041POPC   C1B33331  24.393   0.953   8.555
 8041POPC   C2B33332  24.409   0.995   8.255
 8041POPC   C3B33333  24.395   1.012   7.955
 8041POPC   C4B33334  24.459   0.933   7.655
 8042POPC   NC333335   4.306  37.687   9.455
 8042POPC   PO433336   4.293  37.691   9.155
 8042POPC   GL133337   4.360  37.661   8.855
 8042POPC   GL233338   4.304  37.767   8.855
 8042POPC   C1A33339   4.335  37.706   8.555
 8042POPC   D2A33340   4.273  37.714   8.255
 8042POPC   C3A33341   4.326  37.643   7.955
 8042POPC   C4A33342   4.362  37.637   7.655
 8042POPC   C1B33343   4.228  37.948   8.555
 8042POPC   C2B33344   4.200  37.945   8.255
 8042POPC   C3B33345   4.184  37.868   7.955
 8042POPC   C4B33346   4.264  37.881   7.655
 8043POPC   NC333347  40.025   7.436   9.455
 8043POPC   PO433348  39.989   7.445   9.155
 8043POPC   GL133349  39.970   7.468   8.855
 8043POPC   GL233350  39.981   7.334   8.855
 8043POPC   C1A33351  40.054   7.409   8.555
 8043POPC   D2A33352  39.959   7.379   8.255
 8043POPC   C3A33353  39.985   7.406   7.955
 8043POPC   C4A33354  40.018   7.379   7.655
 8043POPC   C1B33355  39.996   7.184   8.555
 8043POPC   C2B33356  39.927   7.181   8.255
 8043POPC   C3B33357  39.905   7.181   7.955
 8043POPC   C4B33358  39.950   7.140   7.655
 8044POPC   NC333359  39.958   4.317   9.455
 8044POPC   PO433360  40.007   4.327   9.155
 8044POPC   GL133361  40.010   4.286   8.855
 8044POPC   GL233362  39.900   4.453   8.855
 8044POPC   C1A33363  39.972   4.363   8.555
 8044POPC   D2A33364  40.042   4.303   8.255
 8044POPC   C3A33365  39.963   4.352   7.955
 8044POPC   C4A33366  40.034   4.365   7.655
 8044POPC   C1B33367  39.869   4.526   8.555
 8044POPC   C2B33368  39.847   4.457   8.255
 8044POPC   C3B33369  39.870   4.531   7.955
 8044POPC   C4B33370  39.796   4.499   7.655
 8045POPC   NC333371  24.470  31.445   9.455
 8045POPC   PO433372  24.512  31.489   9.155
 8045POPC   GL133373  24.517  31.427   8.855
 8045POPC   GL233374  24.428  31.388   8.855
 8045POPC   C1A33375  24.449  31.478   8.555
 8045POPC   D2A33376  24.490  31.440   8.255
 8045POPC   C3A33377  24.491  31.429   7.955
 8045POPC   C4A33378  24.513  31.464   7.655
 8045POPC   C1B33379  24.289  31.246   8.555
 8045POPC   C2B33380  24.322  31.300   8.255
 8045POPC   C3B33381  24.338  31.267   7.955
 8045POPC   C4B33382  24.323  31.338   7.655
 8046POPC   NC333383   6.607  32.255   9.455
 8046POPC   PO433384   6.606  32.228   9.155
 8046POPC   GL133385   6.651  32.269   8.855
 8046POPC   GL233386   6.663  32.129   8.855
 8046POPC   C1A33387   6.674  32.228   8.555
 8046POPC   D2A33388   6.639  32.258   8.255
 8046POPC   C3A33389   6.675  32.283   7.955
 8046POPC   C4A33390   6.637  32.210   7.655
 8046POPC   C1B33391   6.602  32.011   8.555
 8046POPC   C2B33392   6.651  32.033   8.255
 8046POPC   C3B33393   6.662  31.962   7.955
 8046POPC   C4B33394   6.632  31.970   7.655
 8047POPC   NC333395  13.608  39.233   9.455
 8047POPC   PO433396  13.620  39.195   9.155
 8047POPC   GL133397  13.600  39.190   8.855
 8047POPC   GL233398  13.703  39.274   8.855
 8047POPC   C1A33399  13.618  39.245   8.555
 8047POPC   D2A33400  13.605  39.253   8.255
 8047POPC   C3A33401  13.665  39.247   7.955
 8047POPC   C4A33402  13.634  39.234   7.655
 8047POPC   C1B33403  13.784  39.348   8.555
 8047POPC   C2B33404  13.801  39.414   8.255
 8047POPC   C3B33405  13.784  39.368   7.955
 8047POPC   C4B33406  13.863  39.415   7.655
 8048POPC   NC333407  17.487  26.017   9.455
 8048POPC   PO433408  17.504  26.077   9.155
 8048POPC   GL133409  17.553  26.056   8.855
 8048POPC   GL233410  17.368  26.066   8.855
 8048POPC   C1A33411  17.507  26.032   8.555
 8048POPC   D2A33412  17.521  26.071   8.255
 8048POPC   C3A33413  17.538  26.025   7.955
 8048POPC   C4A33414  17.474  26.041   7.655
 8048POPC   C1B33415  17.312  26.193   8.555
 8048POPC   C2B33416  17.262  26.179   8.255
 8048POPC   C3B33417  17.254  26.122   7.955
 8048POPC   C4B33418  17.252  26.162   7.655
 8049POPC   NC333419  36.172  19.839   9.455
 8049POPC   PO433420  36.078  19.802   9.155
 8049POPC   GL133421  36.166  19.857   8.855
 8049POPC   GL233422  36.240  19.786   8.855
 8049POPC   C1A33423  36.096  19.867   8.555
 8049POPC   D2A33424  36.144  19.860   8.255
 8049POPC   C3A33425  36.113  19.833   7.955
 8049POPC   C4A33426  36.111  19.869   7.655
 8049POPC   C1B33427  36.359  19.649   8.555
 8049POPC   C2B33428  36.337  19.709   8.255
 8049POPC   C3B33429  36.310  19.633   7.955
 8049POPC   C4B33430  36.306  19.638   7.655
 8050POPC   NC333431   8.241  24.459   9.455
 8050POPC   PO433432   8.233  24.456   9.155
 8050POPC   GL133433   8.227  24.521   8.855
 8050POPC   GL233434   8.155  24.382   8.855
 8050POPC   C1A33435   8.244  24.494   8.555
 8050POPC   D2A33436   8.189  24.508   8.255
 8050POPC   C3A33437   8.227  24.508   7.955
 8050POPC   C4A33438   8.165  24.490   7.655
 8050POPC   C1B33439   8.045  24.311   8.555
 8050POPC   C2B33440   8.071  24.292   8.255
 8050POPC   C3B33441   8.084  24.311   7.955
 8050POPC   C4B33442   8.078  24.324   7.655
 8051POPC   NC333443  25.315  41.553   9.455
 8051POPC   PO433444  25.304  41.603   9.155
 8051POPC   GL133445  25.224  41.510   8.855
 8051POPC   GL233446  25.173  41.492   8.855
 8051POPC   C1A33447  25.240  41.525   8.555
 8051POPC   D2A33448  25.242  41.514   8.255
 8051POPC   C3A33449  25.260  41.602   7.955
 8051POPC   C4A33450  25.216  41.607   7.655
 8051POPC   C1B33451  25.108  41.417   8.555
 8051POPC   C2B33452  25.150  41.363   8.255
 8051POPC   C3B33453  25.139  41.357   7.955
 8051POPC   C4B33454  25.098  41.413   7.655
 8052POPC   NC333455  19.092   5.902   9.455
 8052POPC   PO433456  19.018   5.864   9.155
 8052POPC   GL133457  19.102   5.895   8.855
 8052POPC   GL233458  19.167   5.734   8.855
 8052POPC   C1A33459  19.092   5.821   8.555
 8052POPC   D2A33460  19.026   5.862   8.255
 8052POPC   C3A33461  19.040   5.820   7.955
 8052POPC   C4A33462  19.093   5.854   7.655
 8052POPC   C1B33463  19.281   5.714   8.555
 8052POPC   C2B33464  19.251   5.710   8.255
 8052POPC   C3B33465  19.203   5.676   7.955
 8052POPC   C4B33466  19.246   5.684   7.655
 8053POPC   NC333467  40.029  40.000   9.455
 8053POPC   PO433468  39.974  39.982   9.155
 8053POPC   GL133469  40.010  40.022   8.855
 8053POPC   GL233470  40.004  40.130   8.855
 8053POPC   C1A33471  40.010  40.051   8.555
 8053POPC   D2A33472  40.050  39.980   8.255
 8053POPC   C3A33473  40.016  40.049   7.955
 8053POPC   C4A33474  40.011  40.051   7.655
 8053POPC   C1B33475  39.907  40.212   8.555
 8053POPC   C2B33476  39.960  40.219   8.255
 8053POPC   C3B33477  39.954  40.218   7.955
 8053POPC   C4B33478  39.879  40.275   7.655
 8054POPC   NC333479   1.260  42.379   9.455
 8054POPC   PO433480   1.200  42.349   9.155
 8054POPC   GL133481   1.218  42.354   8.855
 8054POPC   GL233482   1.098  42.248   8.855
 8054POPC   C1A33483   1.213  42.368   8.555
 8054POPC   D2A33484   1.193  42.301   8.255
 8054POPC   C3A33485   1.219  42.356   7.955
 8054POPC   C4A33486   1.228  42.324   7.655
 8054POPC   C1B33487   1.104  42.144   8.555
 8054POPC   C2B33488   1.019  42.184   8.255
 8054POPC   C3B33489   1.052  42.153   7.955
 8054POPC   C4B33490   1.027  42.161   7.655
 8055POPC   NC333491   5.852  29.906   9.455
 8055POPC   PO433492   5.880  29.950   9.155
 8055POPC   GL133493   5.835  29.970   8.855
 8055POPC   GL233494   5.969  29.961   8.855
 8055POPC   C1A33495   5.872  29.942   8.555
 8055POPC   D2A33496   5.837  29.956   8.255
 8055POPC   C3A33497   5.918  29.875   7.955
 8055POPC   C4A33498   5.876  29.880   7.655
 8055POPC   C1B33499   6.106  29.979   8.555
 8055POPC   C2B33500   6.072  30.056   8.255
 8055POPC   C3B33501   6.106  30.040   7.955
 8055POPC   C4B33502   6.061  30.045   7.655
 8056POPC   NC333503   8.991  33.845   9.455
 8056POPC   PO433504   8.965  33.787   9.155
 8056POPC   GL133505   8.949  33.767   8.855
 8056POPC   GL233506   8.842  33.761   8.855
 8056POPC   C1A33507   8.931  33.751   8.555
 8056POPC   D2A33508   8.952  33.754   8.255
 8056POPC   C3A33509   9.011  33.798   7.955
 8056POPC   C4A33510   8.976  33.766   7.655
 8056POPC   C1B33511   8.753  33.695   8.555
 8056POPC   C2B33512   8.709  33.737   8.255
 8056POPC   C3B33513   8.710  33.661   7.955
 8056POPC   C4B33514   8.785  33.693   7.655
 8057POPC   NC333515  44.639  43.892   9.455
 8057POPC   PO433516  44.703  43.877   9.155
 8057POPC   GL133517  44.700  43.894   8.855
 8057POPC   GL233518  44.606  44.051   8.855
 8057POPC   C1A33519  44.671  43.848   8.555
 8057POPC   D2A33520  44.696  43.899   8.255
 8057POPC   C3A33521  44.620  43.896   7.955
 8057POPC   C4A33522  44.647  43.881   7.655
 8057POPC   C1B33523  44.617  44.101   8.555
 8057POPC   C2B33524  44.556  44.090   8.255
 8057POPC   C3B33525  44.607  44.144   7.955
 8057POPC   C4B33526  44.581  44.170   7.655
 8058POPC   NC333527   8.927  39.235   9.455
 8058POPC   PO433528   8.940  39.279   9.155
 8058POPC   GL133529   8.942  39.279   8.855
 8058POPC   GL233530   8.946  39.310   8.855
 8058POPC   C1A33531   8.974  39.278   8.555
 8058POPC   D2A33532   8.935  39.210   8.255
 8058POPC   C3A33533   8.923  39.233   7.955
 8058POPC   C4A33534   8.964  39.256   7.655
 8058POPC   C1B33535   9.008  39.483   8.555
 8058POPC   C2B33536   9.039  39.513   8.255
 8058POPC   C3B33537   8.963  39.437   7.955
 8058POPC   C4B33538   8.982  39.490   7.655
 8059POPC   NC333539  28.378   9.725   9.455
 8059POPC   PO433540  28.325   9.709   9.155
 8059POPC   GL133541  28.343   9.731   8.855
 8059POPC   GL233542  28.281   9.705   8.855
 8059POPC   C1A33543  28.334   9.777   8.555
 8059POPC   D2A33544  28.340   9.776   8.255
 8059POPC   C3A33545  28.351   9.703   7.955
 8059POPC   C4A33546  28.396   9.778   7.655
 8059POPC   C1B33547  28.101   9.730   8.555
 8059POPC   C2B33548  28.099   9.736   8.255
 8059POPC   C3B33549  28.145   9.793   7.955
 8059POPC   C4B33550  28.084   9.713   7.655
 8060POPC   NC333551  23.693  42.312   9.455
 8060POPC   PO433552  23.688  42.363   9.155
 8060POPC   GL133553  23.750  42.315   8.855
 8060POPC   GL233554  23.883  42.353   8.855
 8060POPC   C1A33555  23.761  42.366   8.555
 8060POPC   D2A33556  23.763  42.379   8.255
 8060POPC   C3A33557  23.729  42.342   7.955
 8060POPC   C4A33558  23.734  42.351   7.655
 8060POPC   C1B33559  23.923  42.430   8.555
 8060POPC   C2B33560  23.907  42.429   8.255
 8060POPC   C3B33561  23.950  42.360   7.955
 8060POPC   C4B33562  23.960  42.367   7.655
 8061POPC   NC333563  37.644  26.061   9.455
 8061POPC   PO433564  37.717  26.003   9.155
 8061POPC   GL133565  37.721  26.047   8.855
 8061POPC   GL233566  37.642  25.956   8.855
 8061POPC   C1A33567  37.629  26.033   8.555
 8061POPC   D2A33568  37.713  25.999   8.255
 8061POPC   C3A33569  37.641  26.078   7.955
 8061POPC   C4A33570  37.645  25.999   7.655
 8061POPC   C1B33571  37.659  25.803   8.555
 8061POPC   C2B33572  37.689  25.759   8.255
 8061POPC   C3B33573  37.684  25.755   7.955
 8061POPC   C4B33574  37.623  25.789   7.655
 8062POPC   NC333575  26.017  29.955   9.455
 8062POPC   PO433576  26.038  29.936   9.155
 8062POPC   GL133577  26.077  29.897   8.855
 8062POPC   GL233578  26.100  29.785   8.855
 8062POPC   C1A33579  26.053  29.954   8.555
 8062POPC   D2A33580  26.067  29.911   8.255
 8062POPC   C3A33581  26.037  29.890   7.955
 8062POPC   C4A33582  26.021  29.924   7.655
 8062POPC   C1B33583  26.099  29.692   8.555
 8062POPC   C2B33584  26.053  29.643   8.255
 8062POPC   C3B33585  26.101  29.651   7.955
 8062POPC   C4B33586  26.123  29.673   7.655
 8063POPC   NC333587  34.608  22.938   9.455
 8063POPC   PO433588  34.552  22.948   9.155
 8063POPC   GL133589  34.594  22.926   8.855
 8063POPC   GL233590  34.633  22.783   8.855
 8063POPC   C1A33591  34.593  22.927   8.555
 8063POPC   D2A33592  34.565  22.914   8.255
 8063POPC   C3A33593  34.579  22.893   7.955
 8063POPC   C4A33594  34.547  22.900   7.655
 8063POPC   C1B33595  34.724  22.676   8.555
 8063POPC   C2B33596  34.675  22.728   8.255
 8063POPC   C3B33597  34.710  22.732   7.955
 8063POPC   C4B33598  34.646  22.721   7.655
 8064POPC   NC333599  15.152  22.166   9.455
 8064POPC   PO433600  15.167  22.189   9.155
 8064POPC   GL133601  15.220  22.129   8.855
 8064POPC   GL233602  15.104  22.278   8.855
 8064POPC   C1A33603  15.139  22.172   8.555
 8064POPC   D2A33604  15.206  22.144   8.255
 8064POPC   C3A33605  15.165  22.163   7.955
 8064POPC   C4A33606  15.203  22.117   7.655
 8064POPC   C1B33607  14.938  22.345   8.555
 8064POPC   C2B33608  14.998  22.315   8.255
 8064POPC   C3B33609  14.967  22.297   7.955
 8064POPC   C4B33610  14.988  22.345   7.655
 8065POPC   NC333611   1.963  15.929   9.455
 8065POPC   PO433612   2.036  15.975   9.155
 8065POPC   GL133613   2.026  15.913   8.855
 8065POPC   GL233614   2.080  16.010   8.855
 8065POPC   C1A33615   1.999  15.992   8.555
 8065POPC   D2A33616   2.006  15.997   8.255
 8065POPC   C3A33617   1.986  15.926   7.955
 8065POPC   C4A33618   2.001  15.961   7.655
 8065POPC   C1B33619   2.268  15.999   8.555
 8065POPC   C2B33620   2.266  15.987   8.255
 8065POPC   C3B33621   2.210  16.016   7.955
 8065POPC   C4B33622   2.223  15.940   7.655
 8066POPC   NC333623   1.246   4.335   9.455
 8066POPC   PO433624   1.214   4.297   9.155
 8066POPC   GL133625   1.239   4.317   8.855
 8066POPC   GL233626   1.312   4.264   8.855
 8066POPC   C1A33627   1.225   4.286   8.555
 8066POPC   D2A33628   1.232   4.330   8.255
 8066POPC   C3A33629   1.216   4.340   7.955
 8066POPC   C4A33630   1.230   4.353   7.655
 8066POPC   C1B33631   1.468   4.224   8.555
 8066POPC   C2B33632   1.473   4.216   8.255
 8066POPC   C3B33633   1.442   4.239   7.955
 8066POPC   C4B33634   1.474   4.263   7.655
 8067POPC   NC333635  26.852   5.898   9.455
 8067POPC   PO433636  26.852   5.914   9.155
 8067POPC   GL133637  26.812   5.884   8.855
 8067POPC   GL233638  26.945   5.869   8.855
 8067POPC   C1A33639  26.771   5.913   8.555
 8067POPC   D2A33640  26.801   5.912   8.255
 8067POPC   C3A33641  26.858   5.837   7.955
 8067POPC   C4A33642  26.864   5.828   7.655
 8067POPC   C1B33643  27.039   5.846   8.555
 8067POPC   C2B33644  27.082   5.902   8.255
 8067POPC   C3B33645  27.080   5.901   7.955
 8067POPC   C4B33646  27.039   5.838   7.655
 8068POPC   NC333647  38.449   6.687   9.455
 8068POPC   PO433648  38.462   6.649   9.155
 8068POPC   GL133649  38.470   6.664   8.855
 8068POPC   GL233650  38.389   6.796   8.855
 8068POPC   C1A33651  38.414   6.609   8.555
 8068POPC   D2A33652  38.483   6.667   8.255
 8068POPC   C3A33653  38.406   6.598   7.955
 8068POPC   C4A33654  38.471   6.684   7.655
 8068POPC   C1B33655  38.366   6.892   8.555
 8068POPC   C2B33656  38.348   6.916   8.255
 8068POPC   C3B33657  38.353   6.907   7.955
 8068POPC   C4B33658  38.381   6.847   7.655
 8069POPC   NC333659  44.667  29.172   9.455
 8069POPC   PO433660  44.613  29.149   9.155
 8069POPC   GL133661  44.653  29.170   8.855
 8069POPC   GL233662  44.761  29.120   8.855
 8069POPC   C1A33663  44.651  29.184   8.555
 8069POPC   D2A33664  44.693  29.104   8.255
 8069POPC   C3A33665  44.689  29.169   7.955
 8069POPC   C4A33666  44.660  29.131   7.655
 8069POPC   C1B33667  44.894  29.065   8.555
 8069POPC   C2B33668  44.950  29.116   8.255
 8069POPC   C3B33669  44.944  29.058   7.955
 8069POPC   C4B33670  44.893  29.067   7.655
 8070POPC   NC333671  16.705   6.630   9.455
 8070POPC   PO433672  16.683   6.663   9.155
 8070POPC   GL133673  16.698   6.621   8.855
 8070POPC   GL233674  16.612   6.554   8.855
 8070POPC   C1A33675  16.776   6.608   8.555
 8070POPC   D2A33676  16.775   6.602   8.255
 8070POPC   C3A33677  16.763   6.626   7.955
 8070POPC   C4A33678  16.751   6.626   7.655
 8070POPC   C1B33679  16.485   6.478   8.555
 8070POPC   C2B33680  16.541   6.495   8.255
 8070POPC   C3B33681  16.574   6.458   7.955
 8070POPC   C4B33682  16.504   6.518   7.655
 8071POPC   NC333683   3.562  31.436   9.455
 8071POPC   PO433684   3.535  31.487   9.155
 8071POPC   GL133685   3.541  31.457   8.855
 8071POPC   GL233686   3.605  31.420   8.855
 8071POPC   C1A33687   3.586  31.495   8.555
 8071POPC   D2A33688   3.551  31.470   8.255
 8071POPC   C3A33689   3.504  31.516   7.955
 8071POPC   C4A33690   3.519  31.430   7.655
 8071POPC   C1B33691   3.698  31.273   8.555
 8071POPC   C2B33692   3.770  31.340   8.255
 8071POPC   C3B33693   3.712  31.352   7.955
 8071POPC   C4B33694   3.767  31.357   7.655
 8072POPC   NC333695  26.003  18.271   9.455
 8072POPC   PO433696  26.069  18.237   9.155
 8072POPC   GL133697  26.072  18.328   8.855
 8072POPC   GL233698  25.966  18.210   8.855
 8072POPC   C1A33699  26.087  18.262   8.555
 8072POPC   D2A33700  26.042  18.276   8.255
 8072POPC   C3A33701  26.033  18.321   7.955
 8072POPC   C4A33702  26.059  18.285   7.655
 8072POPC   C1B33703  26.024  18.040   8.555
 8072POPC   C2B33704  25.994  18.080   8.255
 8072POPC   C3B33705  25.987  18.058   7.955
 8072POPC   C4B33706  25.930  18.067   7.655
 8073POPC   NC333707  29.962  27.621   9.455
 8073POPC   PO433708  29.926  27.546   9.155
 8073POPC   GL133709  29.957  27.554   8.855
 8073POPC   GL233710  30.007  27.681   8.855
 8073POPC   C1A33711  29.872  27.639   8.555
 8073POPC   D2A33712  29.892  27.592   8.255
 8073POPC   C3A33713  29.915  27.582   7.955
 8073POPC   C4A33714  29.897  27.592   7.655
 8073POPC   C1B33715  30.068  27.816   8.555
 8073POPC   C2B33716  30.052  27.762   8.255
 8073POPC   C3B33717  30.057  27.814   7.955
 8073POPC   C4B33718  30.087  27.765   7.655
 8074POPC   NC333719   4.301  38.499   9.455
 8074POPC   PO433720   4.300  38.427   9.155
 8074POPC   GL133721   4.304  38.442   8.855
 8074POPC   GL233722   4.316  38.601   8.855
 8074POPC   C1A33723   4.346  38.464   8.555
 8074POPC   D2A33724   4.321  38.477   8.255
 8074POPC   C3A33725   4.327  38.502   7.955
 8074POPC   C4A33726   4.324  38.500   7.655
 8074POPC   C1B33727   4.404  38.703   8.555
 8074POPC   C2B33728   4.389  38.724   8.255
 8074POPC   C3B33729   4.376  38.670   7.955
 8074POPC   C4B33730   4.434  38.692   7.655
 8075POPC   NC333731  43.875  18.313   9.455
 8075POPC   PO433732  43.899  18.324   9.155
 8075POPC   GL133733  43.870  18.288   8.855
 8075POPC   GL233734  43.908  18.452   8.855
 8075POPC   C1A33735  43.922  18.246   8.555
 8075POPC   D2A33736  43.868  18.327   8.255
 8075POPC   C3A33737  43.899  18.239   7.955
 8075POPC   C4A33738  43.903  18.277   7.655
 8075POPC   C1B33739  43.815  18.568   8.555
 8075POPC   C2B33740  43.811  18.486   8.255
 8075POPC   C3B33741  43.886  18.497   7.955
 8075POPC   C4B33742  43.873  18.526   7.655
 8076POPC   NC333743  33.786  20.653   9.455
 8076POPC   PO433744  33.838  20.587   9.155
 8076POPC   GL133745  33.830  20.646   8.855
 8076POPC   GL233746  33.840  20.677   8.855
 8076POPC   C1A33747  33.821  20.575   8.555
 8076POPC   D2A33748  33.810  20.639   8.255
 8076POPC   C3A33749  33.834  20.657   7.955
 8076POPC   C4A33750  33.824  20.654   7.655
 8076POPC   C1B33751  33.968  20.764   8.555
 8076POPC   C2B33752  33.945  20.771   8.255
 8076POPC   C3B33753  33.985  20.840   7.955
 8076POPC   C4B33754  33.987  20.847   7.655
 8077POPC   NC333755   6.666   4.279   9.455
 8077POPC   PO433756   6.623   4.303   9.155
 8077POPC   GL133757   6.607   4.345   8.855
 8077POPC   GL233758   6.776   4.353   8.855
 8077POPC   C1A33759   6.635   4.345   8.555
 8077POPC   D2A33760   6.641   4.365   8.255
 8077POPC   C3A33761   6.621   4.298   7.955
 8077POPC   C4A33762   6.690   4.298   7.655
 8077POPC   C1B33763   6.856   4.283   8.555
 8077POPC   C2B33764   6.854   4.335   8.255
 8077POPC   C3B33765   6.905   4.317   7.955
 8077POPC   C4B33766   6.941   4.312   7.655
 8078POPC   NC333767  28.359   8.945   9.455
 8078POPC   PO433768  28.359   8.984   9.155
 8078POPC   GL133769  28.326   8.932   8.855
 8078POPC   GL233770  28.440   9.094   8.855
 8078POPC   C1A33771  28.363   8.988   8.555
 8078POPC   D2A33772  28.419   8.926   8.255
 8078POPC   C3A33773  28.331   8.968   7.955
 8078POPC   C4A33774  28.356   8.941   7.655
 8078POPC   C1B33775  28.418   9.201   8.555
 8078POPC   C2B33776  28.474   9.164   8.255
 8078POPC   C3B33777  28.456   9.195   7.955
 8078POPC   C4B33778  28.423   9.223   7.655
 8079POPC   NC333779  34.600   6.671   9.455
 8079POPC   PO433780  34.581   6.597   9.155
 8079POPC   GL133781  34.617   6.657   8.855
 8079POPC   GL233782  34.609   6.515   8.855
 8079POPC   C1A33783  34.551   6.656   8.555
 8079POPC   D2A33784  34.597   6.650   8.255
 8079POPC   C3A33785  34.556   6.597   7.955
 8079POPC   C4A33786  34.578   6.619   7.655
 8079POPC   C1B33787  34.710   6.391   8.555
 8079POPC   C2B33788  34.658   6.405   8.255
 8079POPC   C3B33789  34.693   6.418   7.955
 8079POPC   C4B33790  34.741   6.447   7.655
 8080POPC   NC333791   1.201  22.171   9.455
 8080POPC   PO433792   1.240  22.173   9.155
 8080POPC   GL133793   1.230  22.198   8.855
 8080POPC   GL233794   1.145  22.056   8.855
 8080POPC   C1A33795   1.237  22.114   8.555
 8080POPC   D2A33796   1.185  22.149   8.255
 8080POPC   C3A33797   1.242  22.117   7.955
 8080POPC   C4A33798   1.212  22.145   7.655
 8080POPC   C1B33799   1.044  21.902   8.555
 8080POPC   C2B33800   1.044  21.986   8.255
 8080POPC   C3B33801   1.119  21.958   7.955
 8080POPC   C4B33802   1.068  21.919   7.655
 8081POPC   NC333803  12.810  31.480   9.455
 8081POPC   PO433804  12.814  31.444   9.155
 8081POPC   GL133805  12.819  31.506   8.855
 8081POPC   GL233806  12.772  31.505   8.855
 8081POPC   C1A33807  12.815  31.429   8.555
 8081POPC   D2A33808  12.881  31.441   8.255
 8081POPC   C3A33809  12.832  31.482   7.955
 8081POPC   C4A33810  12.810  31.426   7.655
 8081POPC   C1B33811  12.645  31.589   8.555
 8081POPC   C2B33812  12.630  31.545   8.255
 8081POPC   C3B33813  12.639  31.627   7.955
 8081POPC   C4B33814  12.664  31.554   7.655
 8082POPC   NC333815  28.321  22.978   9.455
 8082POPC   PO433816  28.377  22.983   9.155
 8082POPC   GL133817  28.387  22.982   8.855
 8082POPC   GL233818  28.325  23.044   8.855
 8082POPC   C1A33819  28.337  22.956   8.555
 8082POPC   D2A33820  28.358  22.959   8.255
 8082POPC   C3A33821  28.342  22.947   7.955
 8082POPC   C4A33822  28.387  22.893   7.655
 8082POPC   C1B33823  28.319  23.219   8.555
 8082POPC   C2B33824  28.336  23.199   8.255
 8082POPC   C3B33825  28.377  23.172   7.955
 8082POPC   C4B33826  28.357  23.173   7.655
 8083POPC   NC333827  28.418  35.325   9.455
 8083POPC   PO433828  28.349  35.319   9.155
 8083POPC   GL133829  28.342  35.350   8.855
 8083POPC   GL233830  28.530  35.386   8.855
 8083POPC   C1A33831  28.345  35.330   8.555
 8083POPC   D2A33832  28.328  35.371   8.255
 8083POPC   C3A33833  28.370  35.394   7.955
 8083POPC   C4A33834  28.380  35.342   7.655
 8083POPC   C1B33835  28.622  35.385   8.555
 8083POPC   C2B33836  28.592  35.386   8.255
 8083POPC   C3B33837  28.614  35.451   7.955
 8083POPC   C4B33838  28.623  35.423   7.655
 8084POPC   NC333839  38.413  16.754   9.455
 8084POPC   PO433840  38.417  16.719   9.155
 8084POPC   GL133841  38.465  16.694   8.855
 8084POPC   GL233842  38.553  16.769   8.855
 8084POPC   C1A33843  38.469  16.716   8.555
 8084POPC   D2A33844  38.486  16.711   8.255
 8084POPC   C3A33845  38.477  16.725   7.955
 8084POPC   C4A33846  38.491  16.691   7.655
 8084POPC   C1B33847  38.740  16.727   8.555
 8084POPC   C2B33848  38.733  16.796   8.255
 8084POPC   C3B33849  38.680  16.768   7.955
 8084POPC   C4B33850  38.743  16.753   7.655
 8085POPC   NC333851  43.105  10.485   9.455
 8085POPC   PO433852  43.123  10.549   9.155
 8085POPC   GL133853  43.152  10.546   8.855
 8085POPC   GL233854  43.254  10.498   8.855
 8085POPC   C1A33855  43.103  10.485   8.555
 8085POPC   D2A33856  43.148  10.549   8.255
 8085POPC   C3A33857  43.157  10.531   7.955
 8085POPC   C4A33858  43.094  10.492   7.655
 8085POPC   C1B33859  43.326  10.460   8.555
 8085POPC   C2B33860  43.324  10.478   8.255
 8085POPC   C3B33861  43.337  10.496   7.955
 8085POPC   C4B33862  43.352  10.432   7.655
 8086POPC   NC333863  23.683  43.901   9.455
 8086POPC   PO433864  23.689  43.917   9.155
 8086POPC   GL133865  23.680  43.901   8.855
 8086POPC   GL233866  23.611  44.003   8.855
 8086POPC   C1A33867  23.719  43.890   8.555
 8086POPC   D2A33868  23.721  43.882   8.255
 8086POPC   C3A33869  23.751  43.880   7.955
 8086POPC   C4A33870  23.675  43.933   7.655
 8086POPC   C1B33871  23.577  44.098   8.555
 8086POPC   C2B33872  23.577  44.146   8.255
 8086POPC   C3B33873  23.629  44.117   7.955
 8086POPC   C4B33874  23.537  44.135   7.655
 8087POPC   NC333875  10.532  29.966   9.455
 8087POPC   PO433876  10.479  29.908   9.155
 8087POPC   GL133877  10.552  29.962   8.855
 8087POPC   GL233878  10.517  29.813   8.855
 8087POPC   C1A33879  10.552  29.953   8.555
 8087POPC   D2A33880  10.481  29.947   8.255
 8087POPC   C3A33881  10.545  29.903   7.955
 8087POPC   C4A33882  10.496  29.885   7.655
 8087POPC   C1B33883  10.431  29.720   8.555
 8087POPC   C2B33884  10.460  29.673   8.255
 8087POPC   C3B33885  10.471  29.718   7.955
 8087POPC   C4B33886  10.462  29.670   7.655
 8088POPC   NC333887   8.938  25.264   9.455
 8088POPC   PO433888   8.963  25.311   9.155
 8088POPC   GL133889   8.987  25.285   8.855
 8088POPC   GL233890   9.061  25.237   8.855
 8088POPC   C1A33891   8.976  25.314   8.555
 8088POPC   D2A33892   8.966  25.285   8.255
 8088POPC   C3A33893   8.996  25.296   7.955
 8088POPC   C4A33894   8.924  25.246   7.655
 8088POPC   C1B33895   9.269  25.276   8.555
 8088POPC   C2B33896   9.200  25.252   8.255
 8088POPC   C3B33897   9.182  25.269   7.955
 8088POPC   C4B33898   9.178  25.235   7.655
 8089POPC   NC333899  40.028   8.937   9.455
 8089POPC   PO433900  40.034   8.967   9.155
 8089POPC   GL133901  40.000   8.959   8.855
 8089POPC   GL233902  39.995   9.123   8.855
 8089POPC   C1A33903  40.027   8.975   8.555
 8089POPC   D2A33904  40.025   8.957   8.255
 8089POPC   C3A33905  40.016   8.989   7.955
 8089POPC   C4A33906  40.002   8.942   7.655
 8089POPC   C1B33907  40.120   9.182   8.555
 8089POPC   C2B33908  40.050   9.244   8.255
 8089POPC   C3B33909  40.049   9.171   7.955
 8089POPC   C4B33910  40.065   9.252   7.655
 8090POPC   NC333911  43.867  35.375   9.455
 8090POPC   PO433912  43.901  35.314   9.155
 8090POPC   GL133913  43.876  35.400   8.855
 8090POPC   GL233914  44.036  35.266   8.855
 8090POPC   C1A33915  43.911  35.387   8.555
 8090POPC   D2A33916  43.931  35.367   8.255
 8090POPC   C3A33917  43.836  35.390   7.955
 8090POPC   C4A33918  43.849  35.302   7.655
 8090POPC   C1B33919  44.062  35.279   8.555
 8090POPC   C2B33920  44.126  35.282   8.255
 8090POPC   C3B33921  44.106  35.185   7.955
 8090POPC   C4B33922  44.060  35.270   7.655
 8091POPC   NC333923  31.519  22.935   9.455
 8091POPC   PO433924  31.475  22.909   9.155
 8091POPC   GL133925  31.469  22.983   8.855
 8091POPC   GL233926  31.576  22.939   8.855
 8091POPC   C1A33927  31.502  22.896   8.555
 8091POPC   D2A33928  31.495  22.926   8.255
 8091POPC   C3A33929  31.494  22.918   7.955
 8091POPC   C4A33930  31.487  22.952   7.655
 8091POPC   C1B33931  31.704  23.020   8.555
 8091POPC   C2B33932  31.696  22.963   8.255
 8091POPC   C3B33933  31.699  22.956   7.955
 8091POPC   C4B33934  31.685  23.018   7.655
 8092POPC   NC333935   1.219  30.649   9.455
 8092POPC   PO433936   1.184  30.740   9.155
 8092POPC   GL133937   1.219  30.740   8.855
 8092POPC   GL233938   1.145  30.765   8.855
 8092POPC   C1A33939   1.231  30.713   8.555
 8092POPC   D2A33940   1.217  30.717   8.255
 8092POPC   C3A33941   1.214  30.727   7.955
 8092POPC   C4A33942   1.169  30.728   7.655
 8092POPC   C1B33943   1.060  30.937   8.555
 8092POPC   C2B33944   1.117  30.935   8.255
 8092POPC   C3B33945   1.129  30.969   7.955
 8092POPC   C4B33946   1.091  30.916   7.655
 8093POPC   NC333947  42.310   1.946   9.455
 8093POPC   PO433948  42.334   1.997   9.155
 8093POPC   GL133949  42.308   2.036   8.855
 8093POPC   GL233950  42.181   1.960   8.855
 8093POPC   C1A33951  42.319   2.007   8.555
 8093POPC   D2A33952  42.360   2.014   8.255
 8093POPC   C3A33953  42.334   2.039   7.955
 8093POPC   C4A33954  42.315   2.006   7.655
 8093POPC   C1B33955  42.130   1.966   8.555
 8093POPC   C2B33956  42.070   2.004   8.255
 8093POPC   C3B33957  42.084   1.997   7.955
 8093POPC   C4B33958  42.114   1.926   7.655
 8094POPC   NC333959   1.970   7.403   9.455
 8094POPC   PO433960   2.023   7.445   9.155
 8094POPC   GL133961   2.017   7.439   8.855
 8094POPC   GL233962   2.093   7.326   8.855
 8094POPC   C1A33963   1.981   7.470   8.555
 8094POPC   D2A33964   1.996   7.468   8.255
 8094POPC   C3A33965   2.033   7.390   7.955
 8094POPC   C4A33966   1.967   7.402   7.655
 8094POPC   C1B33967   2.120   7.285   8.555
 8094POPC   C2B33968   2.210   7.224   8.255
 8094POPC   C3B33969   2.166   7.205   7.955
 8094POPC   C4B33970   2.126   7.274   7.655
 8095POPC   NC333971  29.174   8.221   9.455
 8095POPC   PO433972  29.151   8.218   9.155
 8095POPC   GL133973  29.152   8.194   8.855
 8095POPC   GL233974  29.258   8.197   8.855
 8095POPC   C1A33975  29.132   8.165   8.555
 8095POPC   D2A33976  29.164   8.171   8.255
 8095POPC   C3A33977  29.131   8.170   7.955
 8095POPC   C4A33978  29.135   8.235   7.655
 8095POPC   C1B33979  29.356   8.265   8.555
 8095POPC   C2B33980  29.411   8.229   8.255
 8095POPC   C3B33981  29.398   8.181   7.955
 8095POPC   C4B33982  29.352   8.225   7.655
 8096POPC   NC333983  30.662   0.390   9.455
 8096POPC   PO433984  30.701   0.421   9.155
 8096POPC   GL133985  30.728   0.441   8.855
 8096POPC   GL233986  30.767   0.541   8.855
 8096POPC   C1A33987  30.726   0.438   8.555
 8096POPC   D2A33988  30.664   0.441   8.255
 8096POPC   C3A33989  30.653   0.486   7.955
 8096POPC   C4A33990  30.680   0.440   7.655
 8096POPC   C1B33991  30.808   0.687   8.555
 8096POPC   C2B33992  30.772   0.689   8.255
 8096POPC   C3B33993  30.740   0.631   7.955
 8096POPC   C4B33994  30.740   0.686   7.655
 8097POPC   NC333995  24.458  20.588   9.455
 8097POPC   PO433996  24.478  20.565   9.155
 8097POPC   GL133997  24.462  20.599   8.855
 8097POPC   GL233998  24.601  20.686   8.855
 8097POPC   C1A33999  24.507  20.565   8.555
 8097POPC   D2A34000  24.535  20.599   8.255
 8097POPC   C3A34001  24.461  20.648   7.955
 8097POPC   C4A34002  24.519  20.572   7.655
 8097POPC   C1B34003  24.712  20.803   8.555
 8097POPC   C2B34004  24.677  20.808   8.255
 8097POPC   C3B34005  24.701  20.732   7.955
 8097POPC   C4B34006  24.654  20.802   7.655
 8098POPC   NC334007  12.875  36.156   9.455
 8098POPC   PO434008  12.880  36.096   9.155
 8098POPC   GL134009  12.810  36.145   8.855
 8098POPC   GL234010  12.738  36.068   8.855
 8098POPC   C1A34011  12.870  36.170   8.555
 8098POPC   D2A34012  12.890  36.099   8.255
 8098POPC   C3A34013  12.830  36.175   7.955
 8098POPC   C4A34014  12.878  36.112   7.655
 8098POPC   C1B34015  12.612  35.987   8.555
 8098POPC   C2B34016  12.650  36.019   8.255
 8098POPC   C3B34017  12.673  35.954   7.955
 8098POPC   C4B34018  12.635  36.040   7.655
 8099POPC   NC334019  43.149  34.623   9.455
 8099POPC   PO434020  43.141  34.606   9.155
 8099POPC   GL134021  43.147  34.596   8.855
 8099POPC   GL234022  42.978  34.474   8.855
 8099POPC   C1A34023  43.141  34.546   8.555
 8099POPC   D2A34024  43.065  34.616   8.255
 8099POPC   C3A34025  43.068  34.612   7.955
 8099POPC   C4A34026  43.096  34.621   7.655
 8099POPC   C1B34027  42.939  34.425   8.555
 8099POPC   C2B34028  42.966  34.393   8.255
 8099POPC   C3B34029  42.880  34.404   7.955
 8099POPC   C4B34030  42.949  34.394   7.655
 8100POPC   NC334031  34.536  35.327   9.455
 8100POPC   PO434032  34.579  35.386   9.155
 8100POPC   GL134033  34.555  35.359   8.855
 8100POPC   GL234034  34.509  35.211   8.855
 8100POPC   C1A34035  34.565  35.362   8.555
 8100POPC   D2A34036  34.598  35.307   8.255
 8100POPC   C3A34037  34.572  35.377   7.955
 8100POPC   C4A34038  34.558  35.347   7.655
 8100POPC   C1B34039  34.536  35.107   8.555
 8100POPC   C2B34040  34.530  35.068   8.255
 8100POPC   C3B34041  34.504  35.088   7.955
 8100POPC   C4B34042  34.527  35.120   7.655
 8101POPC   NC334043  31.453  17.485   9.455
 8101POPC   PO434044  31.500  17.529   9.155
 8101POPC   GL134045  31.472  17.548   8.855
 8101POPC   GL234046  31.427  17.416   8.855
 8101POPC   C1A34047  31.498  17.546   8.555
 8101POPC   D2A34048  31.504  17.500   8.255
 8101POPC   C3A34049  31.454  17.502   7.955
 8101POPC   C4A34050  31.491  17.467   7.655
 8101POPC   C1B34051  31.490  17.260   8.555
 8101POPC   C2B34052  31.486  17.256   8.255
 8101POPC   C3B34053  31.470  17.297   7.955
 8101POPC   C4B34054  31.445  17.269   7.655
 8102POPC   NC334055  24.495   5.104   9.455
 8102POPC   PO434056  24.508   5.109   9.155
 8102POPC   GL134057  24.449   5.110   8.855
 8102POPC   GL234058  24.541   5.027   8.855
 8102POPC   C1A34059  24.515   5.102   8.555
 8102POPC   D2A34060  24.481   5.118   8.255
 8102POPC   C3A34061  24.451   5.062   7.955
 8102POPC   C4A34062  24.462   5.102   7.655
 8102POPC   C1B34063  24.653   4.940   8.555
 8102POPC   C2B34064  24.664   4.869   8.255
 8102POPC   C3B34065  24.607   4.924   7.955
 8102POPC   C4B34066  24.644   4.902   7.655
 8103POPC   NC334067  37.660  19.797   9.455
 8103POPC   PO434068  37.655  19.836   9.155
 8103POPC   GL134069  37.678  19.815   8.855
 8103POPC   GL234070  37.622  19.725   8.855
 8103POPC   C1A34071  37.693  19.861   8.555
 8103POPC   D2A34072  37.674  19.789   8.255
 8103POPC   C3A34073  37.711  19.877   7.955
 8103POPC   C4A34074  37.663  19.878   7.655
 8103POPC   C1B34075  37.522  19.684   8.555
 8103POPC   C2B34076  37.480  19.708   8.255
 8103POPC   C3B34077  37.485  19.645   7.955
 8103POPC   C4B34078  37.499  19.664   7.655
 8104POPC   NC334079  41.551  29.881   9.455
 8104POPC   PO434080  41.546  29.879   9.155
 8104POPC   GL134081  41.515  29.900   8.855
 8104POPC   GL234082  41.615  29.876   8.855
 8104POPC   C1A34083  41.573  29.962   8.555
 8104POPC   D2A34084  41.575  29.921   8.255
 8104POPC   C3A34085  41.516  29.927   7.955
 8104POPC   C4A34086  41.542  29.873   7.655
 8104POPC   C1B34087  41.781  29.742   8.555
 8104POPC   C2B34088  41.732  29.767   8.255
 8104POPC   C3B34089  41.710  29.791   7.955
 8104POPC   C4B34090  41.745  29.725   7.655
 8105POPC   NC334091  24.506   0.444   9.455
 8105POPC   PO434092  24.456   0.470   9.155
 8105POPC   GL134093  24.520   0.410   8.855
 8105POPC   GL234094  24.373   0.451   8.855
 8105POPC   C1A34095  24.453   0.423   8.555
 8105POPC   D2A34096  24.526   0.457   8.255
 8105POPC   C3A34097  24.470   0.396   7.955
 8105POPC   C4A34098  24.490   0.484   7.655
 8105POPC   C1B34099  24.237   0.408   8.555
 8105POPC   C2B34100  24.252   0.425   8.255
 8105POPC   C3B34101  24.226   0.383   7.955
 8105POPC   C4B34102  24.252   0.392   7.655
 8106POPC   NC334103  34.554  31.450   9.455
 8106POPC   PO434104  34.586  31.441   9.155
 8106POPC   GL134105  34.587  31.471   8.855
 8106POPC   GL234106  34.601  31.379   8.855
 8106POPC   C1A34107  34.554  31.458   8.555
 8106POPC   D2A34108  34.532  31.494   8.255
 8106POPC   C3A34109  34.597  31.466   7.955
 8106POPC   C4A34110  34.583  31.454   7.655
 8106POPC   C1B34111  34.756  31.268   8.555
 8106POPC   C2B34112  34.711  31.319   8.255
 8106POPC   C3B34113  34.678  31.289   7.955
 8106POPC   C4B34114  34.748  31.258   7.655
 8107POPC   NC334115   5.870  35.357   9.455
 8107POPC   PO434116   5.843  35.352   9.155
 8107POPC   GL134117   5.886  35.359   8.855
 8107POPC   GL234118   5.952  35.393   8.855
 8107POPC   C1A34119   5.913  35.335   8.555
 8107POPC   D2A34120   5.888  35.332   8.255
 8107POPC   C3A34121   5.901  35.344   7.955
 8107POPC   C4A34122   5.891  35.394   7.655
 8107POPC   C1B34123   6.044  35.498   8.555
 8107POPC   C2B34124   6.031  35.536   8.255
 8107POPC   C3B34125   6.018  35.504   7.955
 8107POPC   C4B34126   6.042  35.569   7.655
 8108POPC   NC334127  10.561  33.773   9.455
 8108POPC   PO434128  10.552  33.794   9.155
 8108POPC   GL134129  10.568  33.791   8.855
 8108POPC   GL234130  10.530  33.885   8.855
 8108POPC   C1A34131  10.483  33.768   8.555
 8108POPC   D2A34132  10.570  33.774   8.255
 8108POPC   C3A34133  10.480  33.752   7.955
 8108POPC   C4A34134  10.524  33.828   7.655
 8108POPC   C1B34135  10.466  34.068   8.555
 8108POPC   C2B34136  10.467  34.017   8.255
 8108POPC   C3B34137  10.555  34.020   7.955
 8108POPC   C4B34138  10.508  34.096   7.655
 8109POPC   NC334139   4.321  21.410   9.455
 8109POPC   PO434140   4.365  21.383   9.155
 8109POPC   GL134141   4.275  21.389   8.855
 8109POPC   GL234142   4.369  21.283   8.855
 8109POPC   C1A34143   4.270  21.389   8.555
 8109POPC   D2A34144   4.301  21.359   8.255
 8109POPC   C3A34145   4.309  21.389   7.955
 8109POPC   C4A34146   4.315  21.338   7.655
 8109POPC   C1B34147   4.399  21.156   8.555
 8109POPC   C2B34148   4.388  21.109   8.255
 8109POPC   C3B34149   4.379  21.111   7.955
 8109POPC   C4B34150   4.417  21.168   7.655
 8110POPC   NC334151  43.068  33.780   9.455
 8110POPC   PO434152  43.123  33.756   9.155
 8110POPC   GL134153  43.069  33.767   8.855
 8110POPC   GL234154  43.154  33.877   8.855
 8110POPC   C1A34155  43.159  33.760   8.555
 8110POPC   D2A34156  43.094  33.778   8.255
 8110POPC   C3A34157  43.099  33.823   7.955
 8110POPC   C4A34158  43.064  33.794   7.655
 8110POPC   C1B34159  43.165  34.038   8.555
 8110POPC   C2B34160  43.164  33.984   8.255
 8110POPC   C3B34161  43.203  34.076   7.955
 8110POPC   C4B34162  43.223  34.047   7.655
 8111POPC   NC334163  35.402   2.754   9.455
 8111POPC   PO434164  35.317   2.731   9.155
 8111POPC   GL134165  35.318   2.762   8.855
 8111POPC   GL234166  35.405   2.647   8.855
 8111POPC   C1A34167  35.316   2.729   8.555
 8111POPC   D2A34168  35.394   2.803   8.255
 8111POPC   C3A34169  35.365   2.771   7.955
 8111POPC   C4A34170  35.332   2.717   7.655
 8111POPC   C1B34171  35.513   2.649   8.555
 8111POPC   C2B34172  35.594   2.653   8.255
 8111POPC   C3B34173  35.512   2.632   7.955
 8111POPC   C4B34174  35.530   2.583   7.655
 8112POPC   NC334175  41.519   7.450   9.455
 8112POPC   PO434176  41.511   7.393   9.155
 8112POPC   GL134177  41.540   7.458   8.855
 8112POPC   GL234178  41.527   7.545   8.855
 8112POPC   C1A34179  41.598   7.391   8.555
 8112POPC   D2A34180  41.536   7.425   8.255
 8112POPC   C3A34181  41.589   7.454   7.955
 8112POPC   C4A34182  41.583   7.372   7.655
 8112POPC   C1B34183  41.553   7.683   8.555
 8112POPC   C2B34184  41.549   7.698   8.255
 8112POPC   C3B34185  41.537   7.637   7.955
 8112POPC   C4B34186  41.551   7.709   7.655
 8113POPC   NC334187  33.035  26.818   9.455
 8113POPC   PO434188  33.041  26.818   9.155
 8113POPC   GL134189  33.052  26.863   8.855
 8113POPC   GL234190  32.921  26.920   8.855
 8113POPC   C1A34191  33.049  26.807   8.555
 8113POPC   D2A34192  33.000  26.807   8.255
 8113POPC   C3A34193  33.001  26.799   7.955
 8113POPC   C4A34194  33.033  26.774   7.655
 8113POPC   C1B34195  32.826  27.019   8.555
 8113POPC   C2B34196  32.819  27.015   8.255
 8113POPC   C3B34197  32.837  27.007   7.955
 8113POPC   C4B34198  32.798  27.021   7.655
 8114POPC   NC334199   5.905  30.647   9.455
 8114POPC   PO434200   5.822  30.726   9.155
 8114POPC   GL134201   5.898  30.736   8.855
 8114POPC   GL234202   5.998  30.731   8.855
 8114POPC   C1A34203   5.832  30.717   8.555
 8114POPC   D2A34204   5.833  30.682   8.255
 8114POPC   C3A34205   5.863  30.703   7.955
 8114POPC   C4A34206   5.911  30.722   7.655
 8114POPC   C1B34207   6.127  30.787   8.555
 8114POPC   C2B34208   6.131  30.738   8.255
 8114POPC   C3B34209   6.151  30.783   7.955
 8114POPC   C4B34210   6.115  30.751   7.655
 8115POPC   NC334211  20.564   5.082   9.455
 8115POPC   PO434212  20.653   5.091   9.155
 8115POPC   GL134213  20.632   5.074   8.855
 8115POPC   GL234214  20.756   5.115   8.855
 8115POPC   C1A34215  20.605   5.099   8.555
 8115POPC   D2A34216  20.658   5.072   8.255
 8115POPC   C3A34217  20.634   5.057   7.955
 8115POPC   C4A34218  20.651   5.076   7.655
 8115POPC   C1B34219  20.837   5.094   8.555
 8115POPC   C2B34220  20.898   5.091   8.255
 8115POPC   C3B34221  20.882   5.088   7.955
 8115POPC   C4B34222  20.864   5.123   7.655
 8116POPC   NC334223   0.463  27.597   9.455
 8116POPC   PO434224   0.393  27.566   9.155
 8116POPC   GL134225   0.480  27.600   8.855
 8116POPC   GL234226   0.541  27.542   8.855
 8116POPC   C1A34227   0.474  27.626   8.555
 8116POPC   D2A34228   0.440  27.578   8.255
 8116POPC   C3A34229   0.461  27.634   7.955
 8116POPC   C4A34230   0.484  27.546   7.655
 8116POPC   C1B34231   0.655  27.363   8.555
 8116POPC   C2B34232   0.602  27.402   8.255
 8116POPC   C3B34233   0.632  27.437   7.955
 8116POPC   C4B34234   0.658  27.418   7.655
 8117POPC   NC334235  37.664   2.011   9.455
 8117POPC   PO434236  37.700   1.957   9.155
 8117POPC   GL134237  37.660   1.954   8.855
 8117POPC   GL234238  37.644   2.110   8.855
 8117POPC   C1A34239  37.632   2.017   8.555
 8117POPC   D2A34240  37.685   1.979   8.255
 8117POPC   C3A34241  37.673   1.970   7.955
 8117POPC   C4A34242  37.650   2.039   7.655
 8117POPC   C1B34243  37.546   2.270   8.555
 8117POPC   C2B34244  37.536   2.262   8.255
 8117POPC   C3B34245  37.566   2.244   7.955
 8117POPC   C4B34246  37.541   2.225   7.655
 8118POPC   NC334247   3.502  29.935   9.455
 8118POPC   PO434248   3.547  29.943   9.155
 8118POPC   GL134249   3.511  29.916   8.855
 8118POPC   GL234250   3.414  29.969   8.855
 8118POPC   C1A34251   3.550  29.922   8.555
 8118POPC   D2A34252   3.501  29.918   8.255
 8118POPC   C3A34253   3.581  29.892   7.955
 8118POPC   C4A34254   3.546  29.883   7.655
 8118POPC   C1B34255   3.322  30.055   8.555
 8118POPC   C2B34256   3.379  30.099   8.255
 8118POPC   C3B34257   3.390  30.134   7.955
 8118POPC   C4B34258   3.399  30.062   7.655
 8119POPC   NC334259  12.032  24.518   9.455
 8119POPC   PO434260  12.105  24.528   9.155
 8119POPC   GL134261  12.095  24.532   8.855
 8119POPC   GL234262  12.115  24.372   8.855
 8119POPC   C1A34263  12.036  24.510   8.555
 8119POPC   D2A34264  12.063  24.476   8.255
 8119POPC   C3A34265  12.071  24.469   7.955
 8119POPC   C4A34266  12.055  24.457   7.655
 8119POPC   C1B34267  12.195  24.314   8.555
 8119POPC   C2B34268  12.200  24.315   8.255
 8119POPC   C3B34269  12.247  24.256   7.955
 8119POPC   C4B34270  12.267  24.266   7.655
 8120POPC   NC334271  32.294  18.272   9.455
 8120POPC   PO434272  32.236  18.271   9.155
 8120POPC   GL134273  32.247  18.324   8.855
 8120POPC   GL234274  32.118  18.387   8.855
 8120POPC   C1A34275  32.248  18.307   8.555
 8120POPC   D2A34276  32.262  18.236   8.255
 8120POPC   C3A34277  32.233  18.236   7.955
 8120POPC   C4A34278  32.290  18.320   7.655
 8120POPC   C1B34279  32.114  18.466   8.555
 8120POPC   C2B34280  32.089  18.439   8.255
 8120POPC   C3B34281  32.107  18.424   7.955
 8120POPC   C4B34282  32.117  18.454   7.655
 8121POPC   NC334283  24.533  44.683   9.455
 8121POPC   PO434284  24.455  44.682   9.155
 8121POPC   GL134285  24.479  44.621   8.855
 8121POPC   GL234286  24.393  44.663   8.855
 8121POPC   C1A34287  24.471  44.690   8.555
 8121POPC   D2A34288  24.449  44.703   8.255
 8121POPC   C3A34289  24.446  44.651   7.955
 8121POPC   C4A34290  24.487  44.668   7.655
 8121POPC   C1B34291  24.304  44.782   8.555
 8121POPC   C2B34292  24.299  44.789   8.255
 8121POPC   C3B34293  24.304  44.736   7.955
 8121POPC   C4B34294  24.305  44.714   7.655
 8122POPC   NC334295   1.173  36.154   9.455
 8122POPC   PO434296   1.228  36.078   9.155
 8122POPC   GL134297   1.206  36.171   8.855
 8122POPC   GL234298   1.288  36.123   8.855
 8122POPC   C1A34299   1.195  36.137   8.555
 8122POPC   D2A34300   1.188  36.127   8.255
 8122POPC   C3A34301   1.224  36.172   7.955
 8122POPC   C4A34302   1.198  36.118   7.655
 8122POPC   C1B34303   1.483  36.202   8.555
 8122POPC   C2B34304   1.484  36.227   8.255
 8122POPC   C3B34305   1.449  36.193   7.955
 8122POPC   C4B34306   1.412  36.222   7.655
 8123POPC   NC334307  17.503  32.993   9.455
 8123POPC   PO434308  17.473  32.977   9.155
 8123POPC   GL134309  17.532  33.057   8.855
 8123POPC   GL234310  17.626  33.023   8.855
 8123POPC   C1A34311  17.526  32.982   8.555
 8123POPC   D2A34312  17.490  33.027   8.255
 8123POPC   C3A34313  17.526  32.975   7.955
 8123POPC   C4A34314  17.476  33.043   7.655
 8123POPC   C1B34315  17.720  32.942   8.555
 8123POPC   C2B34316  17.749  32.975   8.255
 8123POPC   C3B34317  17.766  32.971   7.955
 8123POPC   C4B34318  17.720  32.960   7.655
 8124POPC   NC334319  12.045  33.786   9.455
 8124POPC   PO434320  12.077  33.845   9.155
 8124POPC   GL134321  12.117  33.809   8.855
 8124POPC   GL234322  12.146  33.880   8.855
 8124POPC   C1A34323  12.056  33.773   8.555
 8124POPC   D2A34324  12.091  33.848   8.255
 8124POPC   C3A34325  12.044  33.769   7.955
 8124POPC   C4A34326  12.071  33.814   7.655
 8124POPC   C1B34327  12.153  34.010   8.555
 8124POPC   C2B34328  12.152  33.996   8.255
 8124POPC   C3B34329  12.192  34.039   7.955
 8124POPC   C4B34330  12.185  34.036   7.655
 8125POPC   NC334331   3.542  30.650   9.455
 8125POPC   PO434332   3.497  30.723   9.155
 8125POPC   GL134333   3.535  30.701   8.855
 8125POPC   GL234334   3.444  30.738   8.855
 8125POPC   C1A34335   3.588  30.647   8.555
 8125POPC   D2A34336   3.590  30.668   8.255
 8125POPC   C3A34337   3.505  30.746   7.955
 8125POPC   C4A34338   3.514  30.714   7.655
 8125POPC   C1B34339   3.299  30.830   8.555
 8125POPC   C2B34340   3.325  30.875   8.255
 8125POPC   C3B34341   3.321  30.843   7.955
 8125POPC   C4B34342   3.353  30.876   7.655
 8126POPC   NC334343   9.767  36.884   9.455
 8126POPC   PO434344   9.770  36.875   9.155
 8126POPC   GL134345   9.777  36.883   8.855
 8126POPC   GL234346   9.713  36.985   8.855
 8126POPC   C1A34347   9.765  36.891   8.555
 8126POPC   D2A34348   9.791  36.861   8.255
 8126POPC   C3A34349   9.721  36.953   7.955
 8126POPC   C4A34350   9.728  36.935   7.655
 8126POPC   C1B34351   9.663  37.175   8.555
 8126POPC   C2B34352   9.739  37.125   8.255
 8126POPC   C3B34353   9.701  37.142   7.955
 8126POPC   C4B34354   9.701  37.187   7.655
 8127POPC   NC334355  14.402  20.562   9.455
 8127POPC   PO434356  14.447  20.609   9.155
 8127POPC   GL134357  14.418  20.652   8.855
 8127POPC   GL234358  14.298  20.749   8.855
 8127POPC   C1A34359  14.395  20.659   8.555
 8127POPC   D2A34360  14.405  20.623   8.255
 8127POPC   C3A34361  14.354  20.571   7.955
 8127POPC   C4A34362  14.401  20.565   7.655
 8127POPC   C1B34363  14.244  20.855   8.555
 8127POPC   C2B34364  14.219  20.772   8.255
 8127POPC   C3B34365  14.291  20.773   7.955
 8127POPC   C4B34366  14.274  20.868   7.655
 8128POPC   NC334367  15.929  12.114   9.455
 8128POPC   PO434368  15.956  12.044   9.155
 8128POPC   GL134369  15.925  12.102   8.855
 8128POPC   GL234370  15.791  12.067   8.855
 8128POPC   C1A34371  15.995  12.066   8.555
 8128POPC   D2A34372  15.928  12.086   8.255
 8128POPC   C3A34373  15.935  12.106   7.955
 8128POPC   C4A34374  15.971  12.111   7.655
 8128POPC   C1B34375  15.746  12.046   8.555
 8128POPC   C2B34376  15.666  12.064   8.255
 8128POPC   C3B34377  15.711  12.073   7.955
 8128POPC   C4B34378  15.674  12.010   7.655
 8129POPC   NC334379  38.459   1.994   9.455
 8129POPC   PO434380  38.468   2.005   9.155
 8129POPC   GL134381  38.438   1.951   8.855
 8129POPC   GL234382  38.575   1.889   8.855
 8129POPC   C1A34383  38.422   2.023   8.555
 8129POPC   D2A34384  38.484   1.981   8.255
 8129POPC   C3A34385  38.498   1.957   7.955
 8129POPC   C4A34386  38.500   2.003   7.655
 8129POPC   C1B34387  38.612   1.775   8.555
 8129POPC   C2B34388  38.589   1.848   8.255
 8129POPC   C3B34389  38.581   1.849   7.955
 8129POPC   C4B34390  38.660   1.853   7.655
 8130POPC   NC334391  16.741  43.134   9.455
 8130POPC   PO434392  16.702  43.081   9.155
 8130POPC   GL134393  16.721  43.113   8.855
 8130POPC   GL234394  16.622  43.156   8.855
 8130POPC   C1A34395  16.688  43.068   8.555
 8130POPC   D2A34396  16.751  43.076   8.255
 8130POPC   C3A34397  16.701  43.117   7.955
 8130POPC   C4A34398  16.718  43.113   7.655
 8130POPC   C1B34399  16.486  43.237   8.555
 8130POPC   C2B34400  16.496  43.288   8.255
 8130POPC   C3B34401  16.518  43.228   7.955
 8130POPC   C4B34402  16.574  43.292   7.655
 8131POPC   NC334403  17.556   8.941   9.455
 8131POPC   PO434404  17.501   8.961   9.155
 8131POPC   GL134405  17.499   8.987   8.855
 8131POPC   GL234406  17.399   9.078   8.855
 8131POPC   C1A34407  17.527   9.002   8.555
 8131POPC   D2A34408  17.459   9.013   8.255
 8131POPC   C3A34409  17.502   9.019   7.955
 8131POPC   C4A34410  17.543   8.996   7.655
 8131POPC   C1B34411  17.328   9.136   8.555
 8131POPC   C2B34412  17.345   9.137   8.255
 8131POPC   C3B34413  17.320   9.165   7.955
 8131POPC   C4B34414  17.312   9.125   7.655
 8132POPC   NC334415  41.564  24.495   9.455
 8132POPC   PO434416  41.598  24.512   9.155
 8132POPC   GL134417  41.558  24.448   8.855
 8132POPC   GL234418  41.635  24.442   8.855
 8132POPC   C1A34419  41.576  24.538   8.555
 8132POPC   D2A34420  41.567  24.515   8.255
 8132POPC   C3A34421  41.535  24.537   7.955
 8132POPC   C4A34422  41.554  24.503   7.655
 8132POPC   C1B34423  41.773  24.415   8.555
 8132POPC   C2B34424  41.802  24.343   8.255
 8132POPC   C3B34425  41.816  24.328   7.955
 8132POPC   C4B34426  41.828  24.398   7.655
 8133POPC   NC334427  29.148  31.469   9.455
 8133POPC   PO434428  29.099  31.460   9.155
 8133POPC   GL134429  29.152  31.447   8.855
 8133POPC   GL234430  29.137  31.624   8.855
 8133POPC   C1A34431  29.108  31.460   8.555
 8133POPC   D2A34432  29.194  31.448   8.255
 8133POPC   C3A34433  29.185  31.424   7.955
 8133POPC   C4A34434  29.155  31.450   7.655
 8133POPC   C1B34435  29.128  31.674   8.555
 8133POPC   C2B34436  29.191  31.690   8.255
 8133POPC   C3B34437  29.172  31.710   7.955
 8133POPC   C4B34438  29.169  31.719   7.655
 8134POPC   NC334439  33.794   1.180   9.455
 8134POPC   PO434440  33.760   1.171   9.155
 8134POPC   GL134441  33.804   1.195   8.855
 8134POPC   GL234442  33.962   1.157   8.855
 8134POPC   C1A34443  33.775   1.179   8.555
 8134POPC   D2A34444  33.819   1.206   8.255
 8134POPC   C3A34445  33.787   1.209   7.955
 8134POPC   C4A34446  33.767   1.211   7.655
 8134POPC   C1B34447  34.022   1.170   8.555
 8134POPC   C2B34448  34.075   1.144   8.255
 8134POPC   C3B34449  34.010   1.175   7.955
 8134POPC   C4B34450  34.076   1.179   7.655
 8135POPC   NC334451   3.503  26.770   9.455
 8135POPC   PO434452   3.584  26.866   9.155
 8135POPC   GL134453   3.547  26.865   8.855
 8135POPC   GL234454   3.593  26.909   8.855
 8135POPC   C1A34455   3.506  26.815   8.555
 8135POPC   D2A34456   3.547  26.853   8.255
 8135POPC   C3A34457   3.565  26.768   7.955
 8135POPC   C4A34458   3.503  26.784   7.655
 8135POPC   C1B34459   3.697  27.062   8.555
 8135POPC   C2B34460   3.644  27.036   8.255
 8135POPC   C3B34461   3.696  26.994   7.955
 8135POPC   C4B34462   3.685  27.071   7.655
 8136POPC   NC334463  24.441  39.270   9.455
 8136POPC   PO434464  24.442  39.259   9.155
 8136POPC   GL134465  24.484  39.216   8.855
 8136POPC   GL234466  24.570  39.299   8.855
 8136POPC   C1A34467  24.453  39.207   8.555
 8136POPC   D2A34468  24.521  39.211   8.255
 8136POPC   C3A34469  24.463  39.271   7.955
 8136POPC   C4A34470  24.515  39.196   7.655
 8136POPC   C1B34471  24.734  39.425   8.555
 8136POPC   C2B34472  24.709  39.366   8.255
 8136POPC   C3B34473  24.647  39.346   7.955
 8136POPC   C4B34474  24.684  39.364   7.655
 8137POPC   NC334475  29.892  21.349   9.455
 8137POPC   PO434476  29.954  21.396   9.155
 8137POPC   GL134477  29.890  21.360   8.855
 8137POPC   GL234478  29.933  21.257   8.855
 8137POPC   C1A34479  29.920  21.394   8.555
 8137POPC   D2A34480  29.878  21.370   8.255
 8137POPC   C3A34481  29.940  21.364   7.955
 8137POPC   C4A34482  29.888  21.355   7.655
 8137POPC   C1B34483  29.965  21.118   8.555
 8137POPC   C2B34484  30.043  21.109   8.255
 8137POPC   C3B34485  29.975  21.127   7.955
 8137POPC   C4B34486  30.001  21.118   7.655
 8138POPC   NC334487  41.592  15.149   9.455
 8138POPC   PO434488  41.585  15.175   9.155
 8138POPC   GL134489  41.532  15.181   8.855
 8138POPC   GL234490  41.518  15.076   8.855
 8138POPC   C1A34491  41.567  15.182   8.555
 8138POPC   D2A34492  41.511  15.182   8.255
 8138POPC   C3A34493  41.530  15.203   7.955
 8138POPC   C4A34494  41.600  15.131   7.655
 8138POPC   C1B34495  41.443  14.970   8.555
 8138POPC   C2B34496  41.479  14.926   8.255
 8138POPC   C3B34497  41.454  14.950   7.955
 8138POPC   C4B34498  41.455  14.961   7.655
 8139POPC   NC334499   6.607  35.350   9.455
 8139POPC   PO434500   6.599  35.366   9.155
 8139POPC   GL134501   6.645  35.324   8.855
 8139POPC   GL234502   6.536  35.202   8.855
 8139POPC   C1A34503   6.672  35.316   8.555
 8139POPC   D2A34504   6.694  35.340   8.255
 8139POPC   C3A34505   6.652  35.335   7.955
 8139POPC   C4A34506   6.633  35.382   7.655
 8139POPC   C1B34507   6.515  35.118   8.555
 8139POPC   C2B34508   6.502  35.180   8.255
 8139POPC   C3B34509   6.508  35.172   7.955
 8139POPC   C4B34510   6.513  35.178   7.655
 8140POPC   NC334511   2.799  31.500   9.455
 8140POPC   PO434512   2.717  31.435   9.155
 8140POPC   GL134513   2.780  31.516   8.855
 8140POPC   GL234514   2.763  31.615   8.855
 8140POPC   C1A34515   2.767  31.474   8.555
 8140POPC   D2A34516   2.768  31.518   8.255
 8140POPC   C3A34517   2.761  31.439   7.955
 8140POPC   C4A34518   2.753  31.447   7.655
 8140POPC   C1B34519   2.723  31.700   8.555
 8140POPC   C2B34520   2.674  31.746   8.255
 8140POPC   C3B34521   2.706  31.663   7.955
 8140POPC   C4B34522   2.717  31.665   7.655
 8141POPC   NC334523  10.496  35.318   9.455
 8141POPC   PO434524  10.548  35.370   9.155
 8141POPC   GL134525  10.489  35.379   8.855
 8141POPC   GL234526  10.481  35.267   8.855
 8141POPC   C1A34527  10.552  35.384   8.555
 8141POPC   D2A34528  10.513  35.389   8.255
 8141POPC   C3A34529  10.487  35.398   7.955
 8141POPC   C4A34530  10.504  35.322   7.655
 8141POPC   C1B34531  10.541  35.120   8.555
 8141POPC   C2B34532  10.544  35.083   8.255
 8141POPC   C3B34533  10.460  35.100   7.955
 8141POPC   C4B34534  10.514  35.075   7.655
 8142POPC   NC334535  11.263  39.266   9.455
 8142POPC   PO434536  11.344  39.224   9.155
 8142POPC   GL134537  11.264  39.273   8.855
 8142POPC   GL234538  11.233  39.307   8.855
 8142POPC   C1A34539  11.289  39.256   8.555
 8142POPC   D2A34540  11.318  39.230   8.255
 8142POPC   C3A34541  11.299  39.236   7.955
 8142POPC   C4A34542  11.296  39.280   7.655
 8142POPC   C1B34543  11.164  39.420   8.555
 8142POPC   C2B34544  11.174  39.373   8.255
 8142POPC   C3B34545  11.153  39.448   7.955
 8142POPC   C4B34546  11.100  39.452   7.655
 8143POPC   NC334547  27.569  40.002   9.455
 8143POPC   PO434548  27.620  39.982   9.155
 8143POPC   GL134549  27.564  40.039   8.855
 8143POPC   GL234550  27.561  39.890   8.855
 8143POPC   C1A34551  27.568  39.966   8.555
 8143POPC   D2A34552  27.581  39.993   8.255
 8143POPC   C3A34553  27.625  39.983   7.955
 8143POPC   C4A34554  27.601  40.022   7.655
 8143POPC   C1B34555  27.412  39.756   8.555
 8143POPC   C2B34556  27.404  39.812   8.255
 8143POPC   C3B34557  27.483  39.823   7.955
 8143POPC   C4B34558  27.486  39.845   7.655
 8144POPC   NC334559   9.784  25.303   9.455
 8144POPC   PO434560   9.701  25.266   9.155
 8144POPC   GL134561   9.792  25.251   8.855
 8144POPC   GL234562   9.627  25.260   8.855
 8144POPC   C1A34563   9.714  25.305   8.555
 8144POPC   D2A34564   9.734  25.314   8.255
 8144POPC   C3A34565   9.791  25.222   7.955
 8144POPC   C4A34566   9.790  25.233   7.655
 8144POPC   C1B34567   9.519  25.326   8.555
 8144POPC   C2B34568   9.477  25.319   8.255
 8144POPC   C3B34569   9.559  25.304   7.955
 8144POPC   C4B34570   9.480  25.309   7.655
 8145POPC   NC334571  19.828  39.202   9.455
 8145POPC   PO434572  19.853  39.198   9.155
 8145POPC   GL134573  19.845  39.210   8.855
 8145POPC   GL234574  19.927  39.332   8.855
 8145POPC   C1A34575  19.839  39.208   8.555
 8145POPC   D2A34576  19.813  39.269   8.255
 8145POPC   C3A34577  19.863  39.235   7.955
 8145POPC   C4A34578  19.878  39.194   7.655
 8145POPC   C1B34579  19.919  39.505   8.555
 8145POPC   C2B34580  19.894  39.491   8.255
 8145POPC   C3B34581  19.893  39.411   7.955
 8145POPC   C4B34582  19.899  39.445   7.655
 8146POPC   NC334583  26.777  21.424   9.455
 8146POPC   PO434584  26.802  21.364   9.155
 8146POPC   GL134585  26.838  21.432   8.855
 8146POPC   GL234586  26.883  21.236   8.855
 8146POPC   C1A34587  26.860  21.367   8.555
 8146POPC   D2A34588  26.779  21.342   8.255
 8146POPC   C3A34589  26.840  21.404   7.955
 8146POPC   C4A34590  26.851  21.360   7.655
 8146POPC   C1B34591  26.899  21.135   8.555
 8146POPC   C2B34592  26.913  21.185   8.255
 8146POPC   C3B34593  26.859  21.181   7.955
 8146POPC   C4B34594  26.927  21.170   7.655
 8147POPC   NC334595  19.798  28.367   9.455
 8147POPC   PO434596  19.837  28.411   9.155
 8147POPC   GL134597  19.816  28.387   8.855
 8147POPC   GL234598  19.916  28.425   8.855
 8147POPC   C1A34599  19.835  28.419   8.555
 8147POPC   D2A34600  19.840  28.419   8.255
 8147POPC   C3A34601  19.870  28.386   7.955
 8147POPC   C4A34602  19.831  28.360   7.655
 8147POPC   C1B34603  20.028  28.528   8.555
 8147POPC   C2B34604  20.051  28.537   8.255
 8147POPC   C3B34605  19.979  28.529   7.955
 8147POPC   C4B34606  20.032  28.529   7.655
 8148POPC   NC334607  20.596  40.040   9.455
 8148POPC   PO434608  20.588  39.989   9.155
 8148POPC   GL134609  20.581  39.963   8.855
 8148POPC   GL234610  20.745  40.021   8.855
 8148POPC   C1A34611  20.636  40.025   8.555
 8148POPC   D2A34612  20.638  40.015   8.255
 8148POPC   C3A34613  20.645  40.004   7.955
 8148POPC   C4A34614  20.574  39.970   7.655
 8148POPC   C1B34615  20.814  39.988   8.555
 8148POPC   C2B34616  20.808  40.001   8.255
 8148POPC   C3B34617  20.851  39.958   7.955
 8148POPC   C4B34618  20.821  39.974   7.655
 8149POPC   NC334619  16.685   3.548   9.455
 8149POPC   PO434620  16.760   3.516   9.155
 8149POPC   GL134621  16.773   3.590   8.855
 8149POPC   GL234622  16.842   3.562   8.855
 8149POPC   C1A34623  16.737   3.558   8.555
 8149POPC   D2A34624  16.762   3.494   8.255
 8149POPC   C3A34625  16.750   3.516   7.955
 8149POPC   C4A34626  16.742   3.533   7.655
 8149POPC   C1B34627  17.027   3.493   8.555
 8149POPC   C2B34628  17.017   3.491   8.255
 8149POPC   C3B34629  16.964   3.559   7.955
 8149POPC   C4B34630  16.938   3.497   7.655
 8150POPC   NC334631  33.022  16.707   9.455
 8150POPC   PO434632  33.013  16.767   9.155
 8150POPC   GL134633  33.013  16.777   8.855
 8150POPC   GL234634  32.874  16.828   8.855
 8150POPC   C1A34635  33.009  16.752   8.555
 8150POPC   D2A34636  33.036  16.715   8.255
 8150POPC   C3A34637  32.992  16.708   7.955
 8150POPC   C4A34638  32.992  16.685   7.655
 8150POPC   C1B34639  32.827  16.849   8.555
 8150POPC   C2B34640  32.828  16.843   8.255
 8150POPC   C3B34641  32.806  16.874   7.955
 8150POPC   C4B34642  32.774  16.872   7.655
 8151POPC   NC334643  20.598   8.156   9.455
 8151POPC   PO434644  20.636   8.183   9.155
 8151POPC   GL134645  20.626   8.152   8.855
 8151POPC   GL234646  20.776   8.178   8.855
 8151POPC   C1A34647  20.653   8.180   8.555
 8151POPC   D2A34648  20.656   8.176   8.255
 8151POPC   C3A34649  20.586   8.194   7.955
 8151POPC   C4A34650  20.604   8.160   7.655
 8151POPC   C1B34651  20.870   8.288   8.555
 8151POPC   C2B34652  20.829   8.279   8.255
 8151POPC   C3B34653  20.811   8.263   7.955
 8151POPC   C4B34654  20.812   8.239   7.655
 8152POPC   NC334655  39.976  13.645   9.455
 8152POPC   PO434656  40.038  13.581   9.155
 8152POPC   GL134657  40.006  13.579   8.855
 8152POPC   GL234658  39.942  13.748   8.855
 8152POPC   C1A34659  40.043  13.635   8.555
 8152POPC   D2A34660  40.012  13.640   8.255
 8152POPC   C3A34661  39.968  13.600   7.955
 8152POPC   C4A34662  40.044  13.584   7.655
 8152POPC   C1B34663  39.863  13.758   8.555
 8152POPC   C2B34664  39.854  13.838   8.255
 8152POPC   C3B34665  39.783  13.821   7.955
 8152POPC   C4B34666  39.795  13.755   7.655
 8153POPC   NC334667  29.098   1.221   9.455
 8153POPC   PO434668  29.139   1.202   9.155
 8153POPC   GL134669  29.108   1.198   8.855
 8153POPC   GL234670  29.286   1.248   8.855
 8153POPC   C1A34671  29.103   1.191   8.555
 8153POPC   D2A34672  29.160   1.209   8.255
 8153POPC   C3A34673  29.116   1.255   7.955
 8153POPC   C4A34674  29.114   1.247   7.655
 8153POPC   C1B34675  29.354   1.222   8.555
 8153POPC   C2B34676  29.375   1.246   8.255
 8153POPC   C3B34677  29.414   1.237   7.955
 8153POPC   C4B34678  29.367   1.230   7.655
 8154POPC   NC334679  22.198  33.767   9.455
 8154POPC   PO434680  22.174  33.791   9.155
 8154POPC   GL134681  22.181  33.795   8.855
 8154POPC   GL234682  22.278  33.880   8.855
 8154POPC   C1A34683  22.159  33.763   8.555
 8154POPC   D2A34684  22.210  33.758   8.255
 8154POPC   C3A34685  22.156  33.848   7.955
 8154POPC   C4A34686  22.179  33.768   7.655
 8154POPC   C1B34687  22.337  33.984   8.555
 8154POPC   C2B34688  22.338  34.004   8.255
 8154POPC   C3B34689  22.344  33.989   7.955
 8154POPC   C4B34690  22.311  33.960   7.655
 8155POPC   NC334691  39.242  43.883   9.455
 8155POPC   PO434692  39.236  43.909   9.155
 8155POPC   GL134693  39.185  43.884   8.855
 8155POPC   GL234694  39.189  44.017   8.855
 8155POPC   C1A34695  39.261  43.843   8.555
 8155POPC   D2A34696  39.225  43.908   8.255
 8155POPC   C3A34697  39.237  43.919   7.955
 8155POPC   C4A34698  39.259  43.893   7.655
 8155POPC   C1B34699  39.053  44.027   8.555
 8155POPC   C2B34700  39.088  44.016   8.255
 8155POPC   C3B34701  39.086  44.097   7.955
 8155POPC   C4B34702  39.099  44.033   7.655
 8156POPC   NC334703  29.185  21.429   9.455
 8156POPC   PO434704  29.107  21.385   9.155
 8156POPC   GL134705  29.141  21.426   8.855
 8156POPC   GL234706  29.171  21.316   8.855
 8156POPC   C1A34707  29.121  21.397   8.555
 8156POPC   D2A34708  29.115  21.373   8.255
 8156POPC   C3A34709  29.134  21.380   7.955
 8156POPC   C4A34710  29.139  21.392   7.655
 8156POPC   C1B34711  29.272  21.178   8.555
 8156POPC   C2B34712  29.336  21.223   8.255
 8156POPC   C3B34713  29.256  21.225   7.955
 8156POPC   C4B34714  29.298  21.147   7.655
 8157POPC   NC334715  27.574   4.304   9.455
 8157POPC   PO434716  27.640   4.299   9.155
 8157POPC   GL134717  27.582   4.291   8.855
 8157POPC   GL234718  27.519   4.262   8.855
 8157POPC   C1A34719  27.565   4.342   8.555
 8157POPC   D2A34720  27.594   4.280   8.255
 8157POPC   C3A34721  27.584   4.285   7.955
 8157POPC   C4A34722  27.590   4.304   7.655
 8157POPC   C1B34723  27.404   4.172   8.555
 8157POPC   C2B34724  27.405   4.135   8.255
 8157POPC   C3B34725  27.349   4.132   7.955
 8157POPC   C4B34726  27.400   4.136   7.655
 8158POPC   NC334727  39.206  18.304   9.455
 8158POPC   PO434728  39.245  18.290   9.155
 8158POPC   GL134729  39.244  18.312   8.855
 8158POPC   GL234730  39.124  18.355   8.855
 8158POPC   C1A34731  39.264  18.313   8.555
 8158POPC   D2A34732  39.214  18.284   8.255
 8158POPC   C3A34733  39.230  18.293   7.955
 8158POPC   C4A34734  39.234  18.284   7.655
 8158POPC   C1B34735  39.021  18.415   8.555
 8158POPC   C2B34736  39.003  18.421   8.255
 8158POPC   C3B34737  39.063  18.451   7.955
 8158POPC   C4B34738  39.046  18.457   7.655
 8159POPC   NC334739  44.706   2.716   9.455
 8159POPC   PO434740  44.702   2.751   9.155
 8159POPC   GL134741  44.684   2.754   8.855
 8159POPC   GL234742  44.572   2.728   8.855
 8159POPC   C1A34743  44.652   2.723   8.555
 8159POPC   D2A34744  44.704   2.805   8.255
 8159POPC   C3A34745  44.615   2.772   7.955
 8159POPC   C4A34746  44.670   2.749   7.655
 8159POPC   C1B34747  44.483   2.632   8.555
 8159POPC   C2B34748  44.415   2.692   8.255
 8159POPC   C3B34749  44.407   2.668   7.955
 8159POPC   C4B34750  44.426   2.643   7.655
 8160POPC   NC334751  10.570  29.194   9.455
 8160POPC   PO434752  10.485  29.156   9.155
 8160POPC   GL134753  10.495  29.135   8.855
 8160POPC   GL234754  10.472  29.267   8.855
 8160POPC   C1A34755  10.503  29.136   8.555
 8160POPC   D2A34756  10.499  29.104   8.255
 8160POPC   C3A34757  10.565  29.149   7.955
 8160POPC   C4A34758  10.540  29.149   7.655
 8160POPC   C1B34759  10.428  29.361   8.555
 8160POPC   C2B34760  10.420  29.349   8.255
 8160POPC   C3B34761  10.378  29.374   7.955
 8160POPC   C4B34762  10.385  29.361   7.655
 8161POPC   NC334763  13.650  19.080   9.455
 8161POPC   PO434764  13.668  19.012   9.155
 8161POPC   GL134765  13.616  19.012   8.855
 8161POPC   GL234766  13.578  18.887   8.855
 8161POPC   C1A34767  13.641  19.055   8.555
 8161POPC   D2A34768  13.640  19.059   8.255
 8161POPC   C3A34769  13.607  19.044   7.955
 8161POPC   C4A34770  13.649  19.101   7.655
 8161POPC   C1B34771  13.605  18.860   8.555
 8161POPC   C2B34772  13.580  18.766   8.255
 8161POPC   C3B34773  13.613  18.848   7.955
 8161POPC   C4B34774  13.533  18.835   7.655
 8162POPC   NC334775  12.082  27.599   9.455
 8162POPC   PO434776  12.113  27.596   9.155
 8162POPC   GL134777  12.070  27.605   8.855
 8162POPC   GL234778  12.124  27.441   8.855
 8162POPC   C1A34779  12.039  27.640   8.555
 8162POPC   D2A34780  12.031  27.592   8.255
 8162POPC   C3A34781  12.122  27.549   7.955
 8162POPC   C4A34782  12.052  27.613   7.655
 8162POPC   C1B34783  12.107  27.348   8.555
 8162POPC   C2B34784  12.131  27.366   8.255
 8162POPC   C3B34785  12.129  27.303   7.955
 8162POPC   C4B34786  12.094  27.307   7.655
 8163POPC   NC334787  39.254  24.517   9.455
 8163POPC   PO434788  39.201  24.497   9.155
 8163POPC   GL134789  39.243  24.531   8.855
 8163POPC   GL234790  39.227  24.634   8.855
 8163POPC   C1A34791  39.222  24.452   8.555
 8163POPC   D2A34792  39.188  24.488   8.255
 8163POPC   C3A34793  39.238  24.450   7.955
 8163POPC   C4A34794  39.266  24.442   7.655
 8163POPC   C1B34795  39.165  24.764   8.555
 8163POPC   C2B34796  39.145  24.688   8.255
 8163POPC   C3B34797  39.129  24.704   7.955
 8163POPC   C4B34798  39.174  24.671   7.655
 8164POPC   NC334799  28.346   2.031   9.455
 8164POPC   PO434800  28.369   1.974   9.155
 8164POPC   GL134801  28.388   1.972   8.855
 8164POPC   GL234802  28.445   2.068   8.855
 8164POPC   C1A34803  28.320   1.987   8.555
 8164POPC   D2A34804  28.360   1.992   8.255
 8164POPC   C3A34805  28.350   2.030   7.955
 8164POPC   C4A34806  28.325   1.989   7.655
 8164POPC   C1B34807  28.568   2.141   8.555
 8164POPC   C2B34808  28.564   2.125   8.255
 8164POPC   C3B34809  28.599   2.111   7.955
 8164POPC   C4B34810  28.624   2.143   7.655
 8165POPC   NC334811  11.306  32.230   9.455
 8165POPC   PO434812  11.283  32.247   9.155
 8165POPC   GL134813  11.289  32.239   8.855
 8165POPC   GL234814  11.202  32.123   8.855
 8165POPC   C1A34815  11.316  32.279   8.555
 8165POPC   D2A34816  11.312  32.211   8.255
 8165POPC   C3A34817  11.255  32.211   7.955
 8165POPC   C4A34818  11.252  32.253   7.655
 8165POPC   C1B34819  11.085  32.070   8.555
 8165POPC   C2B34820  11.084  32.107   8.255
 8165POPC   C3B34821  11.098  32.115   7.955
 8165POPC   C4B34822  11.084  32.113   7.655
 8166POPC   NC334823  14.428  41.532   9.455
 8166POPC   PO434824  14.399  41.556   9.155
 8166POPC   GL134825  14.374  41.543   8.855
 8166POPC   GL234826  14.341  41.671   8.855
 8166POPC   C1A34827  14.354  41.528   8.555
 8166POPC   D2A34828  14.430  41.561   8.255
 8166POPC   C3A34829  14.399  41.557   7.955
 8166POPC   C4A34830  14.365  41.579   7.655
 8166POPC   C1B34831  14.359  41.825   8.555
 8166POPC   C2B34832  14.397  41.767   8.255
 8166POPC   C3B34833  14.360  41.816   7.955
 8166POPC   C4B34834  14.354  41.806   7.655
 8167POPC   NC334835   0.411  26.076   9.455
 8167POPC   PO434836   0.487  26.077   9.155
 8167POPC   GL134837   0.477  26.086   8.855
 8167POPC   GL234838   0.490  25.987   8.855
 8167POPC   C1A34839   0.417  26.049   8.555
 8167POPC   D2A34840   0.487  26.061   8.255
 8167POPC   C3A34841   0.444  26.066   7.955
 8167POPC   C4A34842   0.459  26.032   7.655
 8167POPC   C1B34843   0.635  25.844   8.555
 8167POPC   C2B34844   0.601  25.864   8.255
 8167POPC   C3B34845   0.629  25.917   7.955
 8167POPC   C4B34846   0.650  25.878   7.655
 8168POPC   NC334847  35.324  22.933   9.455
 8168POPC   PO434848  35.393  22.903   9.155
 8168POPC   GL134849  35.369  22.967   8.855
 8168POPC   GL234850  35.285  22.886   8.855
 8168POPC   C1A34851  35.372  22.920   8.555
 8168POPC   D2A34852  35.306  22.958   8.255
 8168POPC   C3A34853  35.379  22.939   7.955
 8168POPC   C4A34854  35.348  22.963   7.655
 8168POPC   C1B34855  35.103  22.796   8.555
 8168POPC   C2B34856  35.120  22.795   8.255
 8168POPC   C3B34857  35.148  22.842   7.955
 8168POPC   C4B34858  35.162  22.833   7.655
 8169POPC   NC334859  36.888  22.156   9.455
 8169POPC   PO434860  36.938  22.159   9.155
 8169POPC   GL134861  36.912  22.189   8.855
 8169POPC   GL234862  36.787  22.199   8.855
 8169POPC   C1A34863  36.906  22.131   8.555
 8169POPC   D2A34864  36.893  22.166   8.255
 8169POPC   C3A34865  36.894  22.133   7.955
 8169POPC   C4A34866  36.942  22.166   7.655
 8169POPC   C1B34867  36.653  22.153   8.555
 8169POPC   C2B34868  36.640  22.151   8.255
 8169POPC   C3B34869  36.669  22.223   7.955
 8169POPC   C4B34870  36.660  22.166   7.655
 8170POPC   NC334871  27.617   5.898   9.455
 8170POPC   PO434872  27.612   5.915   9.155
 8170POPC   GL134873  27.569   5.830   8.855
 8170POPC   GL234874  27.562   5.717   8.855
 8170POPC   C1A34875  27.554   5.846   8.555
 8170POPC   D2A34876  27.630   5.829   8.255
 8170POPC   C3A34877  27.588   5.829   7.955
 8170POPC   C4A34878  27.580   5.895   7.655
 8170POPC   C1B34879  27.536   5.660   8.555
 8170POPC   C2B34880  27.486   5.647   8.255
 8170POPC   C3B34881  27.518   5.659   7.955
 8170POPC   C4B34882  27.502   5.625   7.655
 8171POPC   NC334883  17.486   4.289   9.455
 8171POPC   PO434884  17.551   4.286   9.155
 8171POPC   GL134885  17.553   4.341   8.855
 8171POPC   GL234886  17.597   4.245   8.855
 8171POPC   C1A34887  17.489   4.278   8.555
 8171POPC   D2A34888  17.492   4.360   8.255
 8171POPC   C3A34889  17.491   4.358   7.955
 8171POPC   C4A34890  17.518   4.309   7.655
 8171POPC   C1B34891  17.646   4.096   8.555
 8171POPC   C2B34892  17.639   4.119   8.255
 8171POPC   C3B34893  17.659   4.120   7.955
 8171POPC   C4B34894  17.686   4.098   7.655
 8172POPC   NC334895  38.439  25.230   9.455
 8172POPC   PO434896  38.461  25.223   9.155
 8172POPC   GL134897  38.502  25.295   8.855
 8172POPC   GL234898  38.295  25.231   8.855
 8172POPC   C1A34899  38.447  25.313   8.555
 8172POPC   D2A34900  38.471  25.297   8.255
 8172POPC   C3A34901  38.420  25.246   7.955
 8172POPC   C4A34902  38.416  25.234   7.655
 8172POPC   C1B34903  38.250  25.173   8.555
 8172POPC   C2B34904  38.227  25.152   8.255
 8172POPC   C3B34905  38.217  25.209   7.955
 8172POPC   C4B34906  38.269  25.194   7.655
 8173POPC   NC334907  19.016  12.076   9.455
 8173POPC   PO434908  19.091  12.027   9.155
 8173POPC   GL134909  19.081  12.064   8.855
 8173POPC   GL234910  19.135  12.177   8.855
 8173POPC   C1A34911  19.081  12.107   8.555
 8173POPC   D2A34912  19.029  12.051   8.255
 8173POPC   C3A34913  19.100  12.074   7.955
 8173POPC   C4A34914  19.058  12.043   7.655
 8173POPC   C1B34915  19.290  12.229   8.555
 8173POPC   C2B34916  19.209  12.211   8.255
 8173POPC   C3B34917  19.268  12.261   7.955
 8173POPC   C4B34918  19.229  12.218   7.655
 8174POPC   NC334919  36.922   5.048   9.455
 8174POPC   PO434920  36.871   5.124   9.155
 8174POPC   GL134921  36.858   5.107   8.855
 8174POPC   GL234922  36.978   5.242   8.855
 8174POPC   C1A34923  36.893   5.052   8.555
 8174POPC   D2A34924  36.871   5.051   8.255
 8174POPC   C3A34925  36.948   5.048   7.955
 8174POPC   C4A34926  36.915   5.128   7.655
 8174POPC   C1B34927  36.925   5.321   8.555
 8174POPC   C2B34928  37.017   5.345   8.255
 8174POPC   C3B34929  36.924   5.364   7.955
 8174POPC   C4B34930  36.976   5.381   7.655
 8175POPC   NC334931  19.025  35.391   9.455
 8175POPC   PO434932  19.015  35.368   9.155
 8175POPC   GL134933  19.048  35.314   8.855
 8175POPC   GL234934  18.967  35.500   8.855
 8175POPC   C1A34935  19.039  35.387   8.555
 8175POPC   D2A34936  19.038  35.392   8.255
 8175POPC   C3A34937  19.028  35.324   7.955
 8175POPC   C4A34938  19.095  35.367   7.655
 8175POPC   C1B34939  18.889  35.565   8.555
 8175POPC   C2B34940  18.895  35.577   8.255
 8175POPC   C3B34941  18.930  35.559   7.955
 8175POPC   C4B34942  18.948  35.565   7.655
 8176POPC   NC334943  36.122  21.432   9.455
 8176POPC   PO434944  36.119  21.407   9.155
 8176POPC   GL134945  36.166  21.351   8.855
 8176POPC   GL234946  36.171  21.536   8.855
 8176POPC   C1A34947  36.081  21.411   8.555
 8176POPC   D2A34948  36.167  21.401   8.255
 8176POPC   C3A34949  36.120  21.419   7.955
 8176POPC   C4A34950  36.164  21.398   7.655
 8176POPC   C1B34951  36.219  21.603   8.555
 8176POPC   C2B34952  36.201  21.640   8.255
 8176POPC   C3B34953  36.188  21.615   7.955
 8176POPC   C4B34954  36.207  21.627   7.655
 8177POPC   NC334955  41.588  26.089   9.455
 8177POPC   PO434956  41.573  26.091   9.155
 8177POPC   GL134957  41.512  26.088   8.855
 8177POPC   GL234958  41.448  26.153   8.855
 8177POPC   C1A34959  41.566  26.053   8.555
 8177POPC   D2A34960  41.556  26.037   8.255
 8177POPC   C3A34961  41.583  26.070   7.955
 8177POPC   C4A34962  41.572  26.073   7.655
 8177POPC   C1B34963  41.428  26.239   8.555
 8177POPC   C2B34964  41.437  26.287   8.255
 8177POPC   C3B34965  41.469  26.298   7.955
 8177POPC   C4B34966  41.425  26.237   7.655
 8178POPC   NC334967  12.065  25.272   9.455
 8178POPC   PO434968  12.054  25.229   9.155
 8178POPC   GL134969  12.104  25.281   8.855
 8178POPC   GL234970  11.935  25.313   8.855
 8178POPC   C1A34971  12.107  25.255   8.555
 8178POPC   D2A34972  12.104  25.313   8.255
 8178POPC   C3A34973  12.040  25.315   7.955
 8178POPC   C4A34974  12.110  25.257   7.655
 8178POPC   C1B34975  11.794  25.379   8.555
 8178POPC   C2B34976  11.872  25.338   8.255
 8178POPC   C3B34977  11.856  25.319   7.955
 8178POPC   C4B34978  11.826  25.328   7.655
 8179POPC   NC334979  40.794  22.912   9.455
 8179POPC   PO434980  40.824  22.971   9.155
 8179POPC   GL134981  40.800  22.913   8.855
 8179POPC   GL234982  40.639  22.959   8.855
 8179POPC   C1A34983  40.771  22.978   8.555
 8179POPC   D2A34984  40.822  22.920   8.255
 8179POPC   C3A34985  40.820  22.958   7.955
 8179POPC   C4A34986  40.756  22.938   7.655
 8179POPC   C1B34987  40.570  22.895   8.555
 8179POPC   C2B34988  40.510  22.919   8.255
 8179POPC   C3B34989  40.487  22.913   7.955
 8179POPC   C4B34990  40.498  22.940   7.655
 8180POPC   NC334991  12.882  30.656   9.455
 8180POPC   PO434992  12.865  30.717   9.155
 8180POPC   GL134993  12.810  30.736   8.855
 8180POPC   GL234994  12.698  30.767   8.855
 8180POPC   C1A34995  12.869  30.724   8.555
 8180POPC   D2A34996  12.891  30.722   8.255
 8180POPC   C3A34997  12.830  30.735   7.955
 8180POPC   C4A34998  12.876  30.716   7.655
 8180POPC   C1B34999  12.643  30.735   8.555
 8180POPC   C2B35000  12.570  30.738   8.255
 8180POPC   C3B35001  12.612  30.767   7.955
 8180POPC   C4B35002  12.655  30.798   7.655
 8181POPC   NC335003   6.651  43.846   9.455
 8181POPC   PO435004   6.643  43.861   9.155
 8181POPC   GL135005   6.645  43.875   8.855
 8181POPC   GL235006   6.763  43.782   8.855
 8181POPC   C1A35007   6.621  43.900   8.555
 8181POPC   D2A35008   6.608  43.914   8.255
 8181POPC   C3A35009   6.604  43.922   7.955
 8181POPC   C4A35010   6.607  43.889   7.655
 8181POPC   C1B35011   6.780  43.699   8.555
 8181POPC   C2B35012   6.774  43.707   8.255
 8181POPC   C3B35013   6.764  43.717   7.955
 8181POPC   C4B35014   6.801  43.655   7.655
 8182POPC   NC335015  23.667  18.260   9.455
 8182POPC   PO435016  23.667  18.312   9.155
 8182POPC   GL135017  23.678  18.233   8.855
 8182POPC   GL235018  23.767  18.430   8.855
 8182POPC   C1A35019  23.749  18.288   8.555
 8182POPC   D2A35020  23.670  18.305   8.255
 8182POPC   C3A35021  23.699  18.247   7.955
 8182POPC   C4A35022  23.679  18.249   7.655
 8182POPC   C1B35023  23.737  18.507   8.555
 8182POPC   C2B35024  23.788  18.579   8.255
 8182POPC   C3B35025  23.697  18.542   7.955
 8182POPC   C4B35026  23.713  18.558   7.655
 8183POPC   NC335027  19.872  38.416   9.455
 8183POPC   PO435028  19.835  38.430   9.155
 8183POPC   GL135029  19.790  38.450   8.855
 8183POPC   GL235030  19.823  38.341   8.855
 8183POPC   C1A35031  19.842  38.456   8.555
 8183POPC   D2A35032  19.834  38.441   8.255
 8183POPC   C3A35033  19.835  38.471   7.955
 8183POPC   C4A35034  19.795  38.498   7.655
 8183POPC   C1B35035  19.840  38.181   8.555
 8183POPC   C2B35036  19.889  38.223   8.255
 8183POPC   C3B35037  19.825  38.178   7.955
 8183POPC   C4B35038  19.815  38.175   7.655
 8184POPC   NC335039  42.379  29.953   9.455
 8184POPC   PO435040  42.309  29.928   9.155
 8184POPC   GL135041  42.376  29.887   8.855
 8184POPC   GL235042  42.414  29.915   8.855
 8184POPC   C1A35043  42.343  29.954   8.555
 8184POPC   D2A35044  42.370  29.958   8.255
 8184POPC   C3A35045  42.357  29.883   7.955
 8184POPC   C4A35046  42.302  29.920   7.655
 8184POPC   C1B35047  42.602  29.962   8.555
 8184POPC   C2B35048  42.605  29.978   8.255
 8184POPC   C3B35049  42.581  29.937   7.955
 8184POPC   C4B35050  42.561  29.958   7.655
 8185POPC   NC335051   4.287  18.269   9.455
 8185POPC   PO435052   4.347  18.293   9.155
 8185POPC   GL135053   4.294  18.327   8.855
 8185POPC   GL235054   4.349  18.392   8.855
 8185POPC   C1A35055   4.298  18.294   8.555
 8185POPC   D2A35056   4.320  18.253   8.255
 8185POPC   C3A35057   4.286  18.305   7.955
 8185POPC   C4A35058   4.311  18.330   7.655
 8185POPC   C1B35059   4.437  18.561   8.555
 8185POPC   C2B35060   4.354  18.536   8.255
 8185POPC   C3B35061   4.378  18.503   7.955
 8185POPC   C4B35062   4.442  18.554   7.655
 8186POPC   NC335063  19.853  43.064   9.455
 8186POPC   PO435064  19.790  43.110   9.155
 8186POPC   GL135065  19.789  43.129   8.855
 8186POPC   GL235066  19.716  43.141   8.855
 8186POPC   C1A35067  19.811  43.105   8.555
 8186POPC   D2A35068  19.810  43.077   8.255
 8186POPC   C3A35069  19.856  43.063   7.955
 8186POPC   C4A35070  19.877  43.123   7.655
 8186POPC   C1B35071  19.561  43.110   8.555
 8186POPC   C2B35072  19.607  43.118   8.255
 8186POPC   C3B35073  19.593  43.107   7.955
 8186POPC   C4B35074  19.615  43.129   7.655
 8187POPC   NC335075  22.189  36.168   9.455
 8187POPC   PO435076  22.177  36.160   9.155
 8187POPC   GL135077  22.119  36.117   8.855
 8187POPC   GL235078  22.239  36.161   8.855
 8187POPC   C1A35079  22.196  36.143   8.555
 8187POPC   D2A35080  22.208  36.134   8.255
 8187POPC   C3A35081  22.154  36.132   7.955
 8187POPC   C4A35082  22.180  36.140   7.655
 8187POPC   C1B35083  22.374  36.089   8.555
 8187POPC   C2B35084  22.379  36.150   8.255
 8187POPC   C3B35085  22.445  36.115   7.955
 8187POPC   C4B35086  22.364  36.068   7.655
 8188POPC   NC335087  22.951   5.874   9.455
 8188POPC   PO435088  22.898   5.893   9.155
 8188POPC   GL135089  22.929   5.903   8.855
 8188POPC   GL235090  23.064   5.878   8.855
 8188POPC   C1A35091  22.933   5.828   8.555
 8188POPC   D2A35092  22.907   5.895   8.255
 8188POPC   C3A35093  22.967   5.829   7.955
 8188POPC   C4A35094  22.937   5.873   7.655
 8188POPC   C1B35095  23.133   5.969   8.555
 8188POPC   C2B35096  23.162   5.960   8.255
 8188POPC   C3B35097  23.182   5.926   7.955
 8188POPC   C4B35098  23.160   5.900   7.655
 8189POPC   NC335099  39.224   0.445   9.455
 8189POPC   PO435100  39.193   0.408   9.155
 8189POPC   GL135101  39.202   0.417   8.855
 8189POPC   GL235102  39.092   0.347   8.855
 8189POPC   C1A35103  39.207   0.472   8.555
 8189POPC   D2A35104  39.206   0.486   8.255
 8189POPC   C3A35105  39.227   0.450   7.955
 8189POPC   C4A35106  39.219   0.474   7.655
 8189POPC   C1B35107  39.026   0.267   8.555
 8189POPC   C2B35108  38.995   0.265   8.255
 8189POPC   C3B35109  39.032   0.333   7.955
 8189POPC   C4B35110  39.081   0.330   7.655
 8190POPC   NC335111  38.503   5.138   9.455
 8190POPC   PO435112  38.408   5.140   9.155
 8190POPC   GL135113  38.488   5.066   8.855
 8190POPC   GL235114  38.457   5.251   8.855
 8190POPC   C1A35115  38.490   5.068   8.555
 8190POPC   D2A35116  38.411   5.132   8.255
 8190POPC   C3A35117  38.499   5.097   7.955
 8190POPC   C4A35118  38.483   5.101   7.655
 8190POPC   C1B35119  38.532   5.343   8.555
 8190POPC   C2B35120  38.503   5.312   8.255
 8190POPC   C3B35121  38.507   5.352   7.955
 8190POPC   C4B35122  38.532   5.336   7.655
 8191POPC   NC335123  29.951  44.689   9.455
 8191POPC   PO435124  29.871  44.679   9.155
 8191POPC   GL135125  29.922  44.676   8.855
 8191POPC   GL235126  29.766  44.631   8.855
 8191POPC   C1A35127  29.967  44.631   8.555
 8191POPC   D2A35128  29.879  44.688   8.255
 8191POPC   C3A35129  29.903  44.628   7.955
 8191POPC   C4A35130  29.962  44.691   7.655
 8191POPC   C1B35131  29.641  44.585   8.555
 8191POPC   C2B35132  29.720  44.605   8.255
 8191POPC   C3B35133  29.686  44.640   7.955
 8191POPC   C4B35134  29.709  44.587   7.655
 8192POPC   NC335135   1.193  23.719   9.455
 8192POPC   PO435136   1.214  23.758   9.155
 8192POPC   GL135137   1.222  23.667   8.855
 8192POPC   GL235138   1.246  23.809   8.855
 8192POPC   C1A35139   1.244  23.682   8.555
 8192POPC   D2A35140   1.236  23.698   8.255
 8192POPC   C3A35141   1.178  23.753   7.955
 8192POPC   C4A35142   1.182  23.763   7.655
 8192POPC   C1B35143   1.197  23.920   8.555
 8192POPC   C2B35144   1.159  23.973   8.255
 8192POPC   C3B35145   1.214  23.932   7.955
 8192POPC   C4B35146   1.220  23.942   7.655
 8193POPC   NC335147  13.597  15.968   9.455
 8193POPC   PO435148  13.593  15.938   9.155
 8193POPC   GL135149  13.664  15.996   8.855
 8193POPC   GL235150  13.692  15.902   8.855
 8193POPC   C1A35151  13.639  15.906   8.555
 8193POPC   D2A35152  13.624  15.909   8.255
 8193POPC   C3A35153  13.651  15.958   7.955
 8193POPC   C4A35154  13.646  15.948   7.655
 8193POPC   C1B35155  13.780  15.786   8.555
 8193POPC   C2B35156  13.743  15.771   8.255
 8193POPC   C3B35157  13.798  15.708   7.955
 8193POPC   C4B35158  13.801  15.775   7.655
 8194POPC   NC335159  32.204   5.835   9.455
 8194POPC   PO435160  32.228   5.905   9.155
 8194POPC   GL135161  32.245   5.835   8.855
 8194POPC   GL235162  32.352   5.916   8.855
 8194POPC   C1A35163  32.289   5.856   8.555
 8194POPC   D2A35164  32.246   5.884   8.255
 8194POPC   C3A35165  32.284   5.901   7.955
 8194POPC   C4A35166  32.293   5.819   7.655
 8194POPC   C1B35167  32.414   6.048   8.555
 8194POPC   C2B35168  32.475   5.997   8.255
 8194POPC   C3B35169  32.457   6.009   7.955
 8194POPC   C4B35170  32.411   6.026   7.655
 8195POPC   NC335171  24.464  13.603   9.455
 8195POPC   PO435172  24.491  13.603   9.155
 8195POPC   GL135173  24.508  13.636   8.855
 8195POPC   GL235174  24.496  13.549   8.855
 8195POPC   C1A35175  24.539  13.611   8.555
 8195POPC   D2A35176  24.480  13.603   8.255
 8195POPC   C3A35177  24.452  13.666   7.955
 8195POPC   C4A35178  24.462  13.674   7.655
 8195POPC   C1B35179  24.454  13.426   8.555
 8195POPC   C2B35180  24.488  13.369   8.255
 8195POPC   C3B35181  24.504  13.409   7.955
 8195POPC   C4B35182  24.536  13.342   7.655
 8196POPC   NC335183   5.055  42.382   9.455
 8196POPC   PO435184   5.083  42.384   9.155
 8196POPC   GL135185   5.120  42.377   8.855
 8196POPC   GL235186   4.997  42.416   8.855
 8196POPC   C1A35187   5.140  42.287   8.555
 8196POPC   D2A35188   5.101  42.329   8.255
 8196POPC   C3A35189   5.082  42.336   7.955
 8196POPC   C4A35190   5.078  42.298   7.655
 8196POPC   C1B35191   4.901  42.571   8.555
 8196POPC   C2B35192   4.946  42.516   8.255
 8196POPC   C3B35193   4.964  42.542   7.955
 8196POPC   C4B35194   4.948  42.567   7.655
 8197POPC   NC335195  41.540  42.304   9.455
 8197POPC   PO435196  41.600  42.383   9.155
 8197POPC   GL135197  41.531  42.288   8.855
 8197POPC   GL235198  41.533  42.186   8.855
 8197POPC   C1A35199  41.535  42.363   8.555
 8197POPC   D2A35200  41.549  42.371   8.255
 8197POPC   C3A35201  41.532  42.300   7.955
 8197POPC   C4A35202  41.513  42.329   7.655
 8197POPC   C1B35203  41.519  42.037   8.555
 8197POPC   C2B35204  41.517  42.114   8.255
 8197POPC   C3B35205  41.553  42.069   7.955
 8197POPC   C4B35206  41.528  42.056   7.655
 8198POPC   NC335207  28.359   5.086   9.455
 8198POPC   PO435208  28.371   5.118   9.155
 8198POPC   GL135209  28.405   5.130   8.855
 8198POPC   GL235210  28.261   5.141   8.855
 8198POPC   C1A35211  28.321   5.096   8.555
 8198POPC   D2A35212  28.413   5.066   8.255
 8198POPC   C3A35213  28.403   5.053   7.955
 8198POPC   C4A35214  28.331   5.048   7.655
 8198POPC   C1B35215  28.180   5.235   8.555
 8198POPC   C2B35216  28.204   5.212   8.255
 8198POPC   C3B35217  28.167   5.294   7.955
 8198POPC   C4B35218  28.216   5.299   7.655
 8199POPC   NC335219   1.952  23.741   9.455
 8199POPC   PO435220   2.018  23.747   9.155
 8199POPC   GL135221   1.982  23.744   8.855
 8199POPC   GL235222   2.139  23.649   8.855
 8199POPC   C1A35223   2.031  23.666   8.555
 8199POPC   D2A35224   1.942  23.691   8.255
 8199POPC   C3A35225   1.986  23.735   7.955
 8199POPC   C4A35226   2.038  23.713   7.655
 8199POPC   C1B35227   2.253  23.612   8.555
 8199POPC   C2B35228   2.251  23.604   8.255
 8199POPC   C3B35229   2.199  23.619   7.955
 8199POPC   C4B35230   2.249  23.633   7.655
 8200POPC   NC335231  33.012  26.028   9.455
 8200POPC   PO435232  32.978  26.046   9.155
 8200POPC   GL135233  33.059  26.072   8.855
 8200POPC   GL235234  33.186  26.059   8.855
 8200POPC   C1A35235  33.040  26.081   8.555
 8200POPC   D2A35236  33.036  26.070   8.255
 8200POPC   C3A35237  33.011  26.002   7.955
 8200POPC   C4A35238  33.033  26.006   7.655
 8200POPC   C1B35239  33.291  26.067   8.555
 8200POPC   C2B35240  33.277  25.996   8.255
 8200POPC   C3B35241  33.234  26.042   7.955
 8200POPC   C4B35242  33.277  26.043   7.655
 8201POPC   NC335243  18.307  28.351   9.455
 8201POPC   PO435244  18.263  28.374   9.155
 8201POPC   GL135245  18.292  28.366   8.855
 8201POPC   GL235246  18.418  28.338   8.855
 8201POPC   C1A35247  18.297  28.338   8.555
 8201POPC   D2A35248  18.271  28.323   8.255
 8201POPC   C3A35249  18.274  28.409   7.955
 8201POPC   C4A35250  18.233  28.352   7.655
 8201POPC   C1B35251  18.542  28.288   8.555
 8201POPC   C2B35252  18.550  28.290   8.255
 8201POPC   C3B35253  18.516  28.220   7.955
 8201POPC   C4B35254  18.537  28.265   7.655
 8202POPC   NC335255  26.049  43.104   9.455
 8202POPC   PO435256  26.028  43.126   9.155
 8202POPC   GL135257  26.070  43.131   8.855
 8202POPC   GL235258  26.084  43.199   8.855
 8202POPC   C1A35259  26.012  43.150   8.555
 8202POPC   D2A35260  26.020  43.063   8.255
 8202POPC   C3A35261  26.067  43.138   7.955
 8202POPC   C4A35262  26.001  43.160   7.655
 8202POPC   C1B35263  26.063  43.385   8.555
 8202POPC   C2B35264  26.053  43.348   8.255
 8202POPC   C3B35265  26.093  43.383   7.955
 8202POPC   C4B35266  26.080  43.338   7.655
 8203POPC   NC335267  39.267   8.929   9.455
 8203POPC   PO435268  39.230   9.003   9.155
 8203POPC   GL135269  39.255   9.003   8.855
 8203POPC   GL235270  39.228   9.101   8.855
 8203POPC   C1A35271  39.249   8.942   8.555
 8203POPC   D2A35272  39.238   9.021   8.255
 8203POPC   C3A35273  39.264   9.018   7.955
 8203POPC   C4A35274  39.237   9.005   7.655
 8203POPC   C1B35275  39.229   9.221   8.555
 8203POPC   C2B35276  39.268   9.252   8.255
 8203POPC   C3B35277  39.220   9.194   7.955
 8203POPC   C4B35278  39.284   9.179   7.655
 8204POPC   NC335279  10.482  33.030   9.455
 8204POPC   PO435280  10.557  33.070   9.155
 8204POPC   GL135281  10.566  33.066   8.855
 8204POPC   GL235282  10.615  33.164   8.855
 8204POPC   C1A35283  10.506  33.034   8.555
 8204POPC   D2A35284  10.519  33.024   8.255
 8204POPC   C3A35285  10.570  32.999   7.955
 8204POPC   C4A35286  10.522  33.018   7.655
 8204POPC   C1B35287  10.644  33.224   8.555
 8204POPC   C2B35288  10.674  33.197   8.255
 8204POPC   C3B35289  10.654  33.268   7.955
 8204POPC   C4B35290  10.725  33.188   7.655
 8205POPC   NC335291  36.115  29.122   9.455
 8205POPC   PO435292  36.148  29.148   9.155
 8205POPC   GL135293  36.109  29.156   8.855
 8205POPC   GL235294  36.217  29.186   8.855
 8205POPC   C1A35295  36.117  29.152   8.555
 8205POPC   D2A35296  36.158  29.131   8.255
 8205POPC   C3A35297  36.105  29.096   7.955
 8205POPC   C4A35298  36.163  29.157   7.655
 8205POPC   C1B35299  36.385  29.238   8.555
 8205POPC   C2B35300  36.314  29.220   8.255
 8205POPC   C3B35301  36.320  29.277   7.955
 8205POPC   C4B35302  36.378  29.248   7.655
 8206POPC   NC335303  29.945  42.370   9.455
 8206POPC   PO435304  29.902  42.373   9.155
 8206POPC   GL135305  29.878  42.289   8.855
 8206POPC   GL235306  29.812  42.369   8.855
 8206POPC   C1A35307  29.928  42.382   8.555
 8206POPC   D2A35308  29.882  42.375   8.255
 8206POPC   C3A35309  29.917  42.377   7.955
 8206POPC   C4A35310  29.882  42.341   7.655
 8206POPC   C1B35311  29.702  42.403   8.555
 8206POPC   C2B35312  29.726  42.342   8.255
 8206POPC   C3B35313  29.680  42.358   7.955
 8206POPC   C4B35314  29.700  42.403   7.655
 8207POPC   NC335315  30.704  26.818   9.455
 8207POPC   PO435316  30.670  26.831   9.155
 8207POPC   GL135317  30.700  26.812   8.855
 8207POPC   GL235318  30.806  26.933   8.855
 8207POPC   C1A35319  30.708  26.782   8.555
 8207POPC   D2A35320  30.729  26.858   8.255
 8207POPC   C3A35321  30.737  26.804   7.955
 8207POPC   C4A35322  30.693  26.830   7.655
 8207POPC   C1B35323  30.858  27.024   8.555
 8207POPC   C2B35324  30.869  27.002   8.255
 8207POPC   C3B35325  30.931  27.004   7.955
 8207POPC   C4B35326  30.897  26.979   7.655
 8208POPC   NC335327  44.644  12.107   9.455
 8208POPC   PO435328  44.616  12.095   9.155
 8208POPC   GL135329  44.689  12.092   8.855
 8208POPC   GL235330  44.550  12.025   8.855
 8208POPC   C1A35331  44.645  12.072   8.555
 8208POPC   D2A35332  44.620  12.068   8.255
 8208POPC   C3A35333  44.666  12.049   7.955
 8208POPC   C4A35334  44.655  12.086   7.655
 8208POPC   C1B35335  44.426  12.026   8.555
 8208POPC   C2B35336  44.441  11.994   8.255
 8208POPC   C3B35337  44.385  12.048   7.955
 8208POPC   C4B35338  44.429  11.975   7.655
 8209POPC   NC335339   8.984  42.292   9.455
 8209POPC   PO435340   9.013  42.304   9.155
 8209POPC   GL135341   8.926  42.350   8.855
 8209POPC   GL235342   9.029  42.227   8.855
 8209POPC   C1A35343   8.949  42.371   8.555
 8209POPC   D2A35344   8.992  42.288   8.255
 8209POPC   C3A35345   8.956  42.303   7.955
 8209POPC   C4A35346   9.001  42.358   7.655
 8209POPC   C1B35347   9.100  42.076   8.555
 8209POPC   C2B35348   9.053  42.077   8.255
 8209POPC   C3B35349   9.045  42.096   7.955
 8209POPC   C4B35350   9.044  42.114   7.655
 8210POPC   NC335351  16.684   2.026   9.455
 8210POPC   PO435352  16.725   2.014   9.155
 8210POPC   GL135353  16.714   1.972   8.855
 8210POPC   GL235354  16.864   2.005   8.855
 8210POPC   C1A35355  16.698   2.003   8.555
 8210POPC   D2A35356  16.741   1.944   8.255
 8210POPC   C3A35357  16.752   2.001   7.955
 8210POPC   C4A35358  16.754   1.968   7.655
 8210POPC   C1B35359  16.960   1.895   8.555
 8210POPC   C2B35360  16.970   1.945   8.255
 8210POPC   C3B35361  16.949   1.951   7.955
 8210POPC   C4B35362  16.972   1.939   7.655
 8211POPC   NC335363  20.610  12.865   9.455
 8211POPC   PO435364  20.646  12.820   9.155
 8211POPC   GL135365  20.599  12.833   8.855
 8211POPC   GL235366  20.717  12.750   8.855
 8211POPC   C1A35367  20.640  12.858   8.555
 8211POPC   D2A35368  20.611  12.868   8.255
 8211POPC   C3A35369  20.660  12.823   7.955
 8211POPC   C4A35370  20.578  12.837   7.655
 8211POPC   C1B35371  20.830  12.772   8.555
 8211POPC   C2B35372  20.854  12.760   8.255
 8211POPC   C3B35373  20.777  12.750   7.955
 8211POPC   C4B35374  20.848  12.771   7.655
 8212POPC   NC335375  15.967  36.940   9.455
 8212POPC   PO435376  15.907  36.941   9.155
 8212POPC   GL135377  15.999  36.854   8.855
 8212POPC   GL235378  16.012  36.975   8.855
 8212POPC   C1A35379  16.002  36.854   8.555
 8212POPC   D2A35380  15.960  36.887   8.255
 8212POPC   C3A35381  15.968  36.890   7.955
 8212POPC   C4A35382  15.920  36.946   7.655
 8212POPC   C1B35383  16.106  37.127   8.555
 8212POPC   C2B35384  16.069  37.099   8.255
 8212POPC   C3B35385  16.080  37.077   7.955
 8212POPC   C4B35386  16.057  37.138   7.655
 8213POPC   NC335387  11.321  30.666   9.455
 8213POPC   PO435388  11.343  30.701   9.155
 8213POPC   GL135389  11.308  30.714   8.855
 8213POPC   GL235390  11.203  30.696   8.855
 8213POPC   C1A35391  11.253  30.675   8.555
 8213POPC   D2A35392  11.340  30.728   8.255
 8213POPC   C3A35393  11.304  30.719   7.955
 8213POPC   C4A35394  11.319  30.709   7.655
 8213POPC   C1B35395  11.081  30.780   8.555
 8213POPC   C2B35396  11.100  30.810   8.255
 8213POPC   C3B35397  11.073  30.743   7.955
 8213POPC   C4B35398  11.039  30.778   7.655
 8214POPC   NC335399  43.932  23.757   9.455
 8214POPC   PO435400  43.890  23.762   9.155
 8214POPC   GL135401  43.861  23.734   8.855
 8214POPC   GL235402  43.796  23.740   8.855
 8214POPC   C1A35403  43.889  23.728   8.555
 8214POPC   D2A35404  43.850  23.715   8.255
 8214POPC   C3A35405  43.933  23.714   7.955
 8214POPC   C4A35406  43.932  23.716   7.655
 8214POPC   C1B35407  43.701  23.839   8.555
 8214POPC   C2B35408  43.718  23.865   8.255
 8214POPC   C3B35409  43.716  23.866   7.955
 8214POPC   C4B35410  43.691  23.860   7.655
 8215POPC   NC335411  15.137  23.718   9.455
 8215POPC   PO435412  15.187  23.750   9.155
 8215POPC   GL135413  15.179  23.723   8.855
 8215POPC   GL235414  15.061  23.791   8.855
 8215POPC   C1A35415  15.225  23.710   8.555
 8215POPC   D2A35416  15.137  23.724   8.255
 8215POPC   C3A35417  15.179  23.677   7.955
 8215POPC   C4A35418  15.163  23.700   7.655
 8215POPC   C1B35419  15.014  23.937   8.555
 8215POPC   C2B35420  14.962  23.893   8.255
 8215POPC   C3B35421  15.022  23.919   7.955
 8215POPC   C4B35422  15.000  23.874   7.655
 8216POPC   NC335423  19.050  25.242   9.455
 8216POPC   PO435424  19.094  25.269   9.155
 8216POPC   GL135425  19.029  25.272   8.855
 8216POPC   GL235426  19.113  25.398   8.855
 8216POPC   C1A35427  19.093  25.235   8.555
 8216POPC   D2A35428  19.082  25.250   8.255
 8216POPC   C3A35429  19.058  25.218   7.955
 8216POPC   C4A35430  19.025  25.304   7.655
 8216POPC   C1B35431  19.096  25.503   8.555
 8216POPC   C2B35432  19.028  25.536   8.255
 8216POPC   C3B35433  19.089  25.555   7.955
 8216POPC   C4B35434  19.075  25.508   7.655
 8217POPC   NC335435   1.228  12.048   9.455
 8217POPC   PO435436   1.198  12.078   9.155
 8217POPC   GL135437   1.258  12.121   8.855
 8217POPC   GL235438   1.142  12.012   8.855
 8217POPC   C1A35439   1.194  12.027   8.555
 8217POPC   D2A35440   1.164  12.053   8.255
 8217POPC   C3A35441   1.252  12.054   7.955
 8217POPC   C4A35442   1.260  12.043   7.655
 8217POPC   C1B35443   1.003  12.056   8.555
 8217POPC   C2B35444   0.984  11.963   8.255
 8217POPC   C3B35445   0.996  11.974   7.955
 8217POPC   C4B35446   0.995  12.038   7.655
 8218POPC   NC335447  43.843  38.447   9.455
 8218POPC   PO435448  43.903  38.423   9.155
 8218POPC   GL135449  43.880  38.419   8.855
 8218POPC   GL235450  43.774  38.378   8.855
 8218POPC   C1A35451  43.885  38.503   8.555
 8218POPC   D2A35452  43.898  38.470   8.255
 8218POPC   C3A35453  43.912  38.432   7.955
 8218POPC   C4A35454  43.890  38.479   7.655
 8218POPC   C1B35455  43.715  38.283   8.555
 8218POPC   C2B35456  43.752  38.292   8.255
 8218POPC   C3B35457  43.676  38.310   7.955
 8218POPC   C4B35458  43.743  38.240   7.655
 8219POPC   NC335459   5.844  26.852   9.455
 8219POPC   PO435460   5.904  26.796   9.155
 8219POPC   GL135461   5.896  26.830   8.855
 8219POPC   GL235462   5.754  26.885   8.855
 8219POPC   C1A35463   5.885  26.854   8.555
 8219POPC   D2A35464   5.834  26.864   8.255
 8219POPC   C3A35465   5.848  26.770   7.955
 8219POPC   C4A35466   5.829  26.853   7.655
 8219POPC   C1B35467   5.735  27.067   8.555
 8219POPC   C2B35468   5.699  27.054   8.255
 8219POPC   C3B35469   5.778  26.983   7.955
 8219POPC   C4B35470   5.721  27.006   7.655
 8220POPC   NC335471  41.559  18.236   9.455
 8220POPC   PO435472  41.520  18.274   9.155
 8220POPC   GL135473  41.588  18.247   8.855
 8220POPC   GL235474  41.508  18.372   8.855
 8220POPC   C1A35475  41.584  18.300   8.555
 8220POPC   D2A35476  41.516  18.261   8.255
 8220POPC   C3A35477  41.600  18.332   7.955
 8220POPC   C4A35478  41.597  18.235   7.655
 8220POPC   C1B35479  41.429  18.499   8.555
 8220POPC   C2B35480  41.437  18.548   8.255
 8220POPC   C3B35481  41.493  18.533   7.955
 8220POPC   C4B35482  41.486  18.517   7.655
 8221POPC   NC335483  22.153  40.797   9.455
 8221POPC   PO435484  22.210  40.757   9.155
 8221POPC   GL135485  22.188  40.782   8.855
 8221POPC   GL235486  22.277  40.724   8.855
 8221POPC   C1A35487  22.131  40.791   8.555
 8221POPC   D2A35488  22.184  40.801   8.255
 8221POPC   C3A35489  22.150  40.803   7.955
 8221POPC   C4A35490  22.187  40.770   7.655
 8221POPC   C1B35491  22.360  40.717   8.555
 8221POPC   C2B35492  22.434  40.692   8.255
 8221POPC   C3B35493  22.406  40.681   7.955
 8221POPC   C4B35494  22.370  40.758   7.655
 8222POPC   NC335495   1.164  27.604   9.455
 8222POPC   PO435496   1.171  27.562   9.155
 8222POPC   GL135497   1.251  27.606   8.855
 8222POPC   GL235498   1.108  27.548   8.855
 8222POPC   C1A35499   1.222  27.610   8.555
 8222POPC   D2A35500   1.253  27.596   8.255
 8222POPC   C3A35501   1.250  27.629   7.955
 8222POPC   C4A35502   1.231  27.623   7.655
 8222POPC   C1B35503   0.949  27.506   8.555
 8222POPC   C2B35504   0.973  27.490   8.255
 8222POPC   C3B35505   1.016  27.454   7.955
 8222POPC   C4B35506   1.022  27.520   7.655
 8223POPC   NC335507  22.158  34.526   9.455
 8223POPC   PO435508  22.119  34.533   9.155
 8223POPC   GL135509  22.144  34.575   8.855
 8223POPC   GL235510  22.241  34.663   8.855
 8223POPC   C1A35511  22.127  34.562   8.555
 8223POPC   D2A35512  22.113  34.625   8.255
 8223POPC   C3A35513  22.118  34.598   7.955
 8223POPC   C4A35514  22.206  34.584   7.655
 8223POPC   C1B35515  22.254  34.760   8.555
 8223POPC   C2B35516  22.324  34.785   8.255
 8223POPC   C3B35517  22.300  34.827   7.955
 8223POPC   C4B35518  22.230  34.802   7.655
 8224POPC   NC335519   1.173  44.697   9.455
 8224POPC   PO435520   1.229  44.634   9.155
 8224POPC   GL135521   1.198  44.682   8.855
 8224POPC   GL235522   1.276  44.732   8.855
 8224POPC   C1A35523   1.165  44.664   8.555
 8224POPC   D2A35524   1.262  44.620   8.255
 8224POPC   C3A35525   1.249  44.678   7.955
 8224POPC   C4A35526   1.247  44.630   7.655
 8224POPC   C1B35527   1.333  44.814   8.555
 8224POPC   C2B35528   1.348  44.850   8.255
 8224POPC   C3B35529   1.418  44.858   7.955
 8224POPC   C4B35530   1.370  44.893   7.655
 8225POPC   NC335531  25.232  15.174   9.455
 8225POPC   PO435532  25.220  15.164   9.155
 8225POPC   GL135533  25.255  15.203   8.855
 8225POPC   GL235534  25.361  15.071   8.855
 8225POPC   C1A35535  25.226  15.200   8.555
 8225POPC   D2A35536  25.258  15.140   8.255
 8225POPC   C3A35537  25.216  15.201   7.955
 8225POPC   C4A35538  25.274  15.154   7.655
 8225POPC   C1B35539  25.393  14.939   8.555
 8225POPC   C2B35540  25.445  14.932   8.255
 8225POPC   C3B35541  25.383  14.970   7.955
 8225POPC   C4B35542  25.396  14.920   7.655
 8226POPC   NC335543  40.809  25.227   9.455
 8226POPC   PO435544  40.737  25.289   9.155
 8226POPC   GL135545  40.736  25.288   8.855
 8226POPC   GL235546  40.865  25.320   8.855
 8226POPC   C1A35547  40.813  25.283   8.555
 8226POPC   D2A35548  40.790  25.314   8.255
 8226POPC   C3A35549  40.733  25.252   7.955
 8226POPC   C4A35550  40.757  25.270   7.655
 8226POPC   C1B35551  40.996  25.326   8.555
 8226POPC   C2B35552  41.058  25.311   8.255
 8226POPC   C3B35553  40.991  25.268   7.955
 8226POPC   C4B35554  40.984  25.283   7.655
 8227POPC   NC335555  20.604  44.637   9.455
 8227POPC   PO435556  20.641  44.671   9.155
 8227POPC   GL135557  20.660  44.615   8.855
 8227POPC   GL235558  20.622  44.763   8.855
 8227POPC   C1A35559  20.656  44.630   8.555
 8227POPC   D2A35560  20.576  44.668   8.255
 8227POPC   C3A35561  20.633  44.658   7.955
 8227POPC   C4A35562  20.647  44.706   7.655
 8227POPC   C1B35563  20.721  44.919   8.555
 8227POPC   C2B35564  20.673  44.868   8.255
 8227POPC   C3B35565  20.721  44.947   7.955
 8227POPC   C4B35566  20.669  44.945   7.655
 8228POPC   NC335567  25.242  38.486   9.455
 8228POPC   PO435568  25.277  38.495   9.155
 8228POPC   GL135569  25.274  38.450   8.855
 8228POPC   GL235570  25.199  38.397   8.855
 8228POPC   C1A35571  25.232  38.461   8.555
 8228POPC   D2A35572  25.303  38.503   8.255
 8228POPC   C3A35573  25.299  38.413   7.955
 8228POPC   C4A35574  25.288  38.440   7.655
 8228POPC   C1B35575  25.093  38.220   8.555
 8228POPC   C2B35576  25.088  38.281   8.255
 8228POPC   C3B35577  25.100  38.254   7.955
 8228POPC   C4B35578  25.108  38.265   7.655
 8229POPC   NC335579  27.585   6.611   9.455
 8229POPC   PO435580  27.555   6.608   9.155
 8229POPC   GL135581  27.574   6.687   8.855
 8229POPC   GL235582  27.601   6.786   8.855
 8229POPC   C1A35583  27.589   6.665   8.555
 8229POPC   D2A35584  27.594   6.639   8.255
 8229POPC   C3A35585  27.574   6.686   7.955
 8229POPC   C4A35586  27.565   6.617   7.655
 8229POPC   C1B35587  27.550   6.919   8.555
 8229POPC   C2B35588  27.607   6.878   8.255
 8229POPC   C3B35589  27.542   6.876   7.955
 8229POPC   C4B35590  27.594   6.922   7.655
 8230POPC   NC335591  42.372  10.547   9.455
 8230POPC   PO435592  42.306  10.475   9.155
 8230POPC   GL135593  42.343  10.557   8.855
 8230POPC   GL235594  42.227  10.451   8.855
 8230POPC   C1A35595  42.327  10.539   8.555
 8230POPC   D2A35596  42.364  10.551   8.255
 8230POPC   C3A35597  42.372  10.517   7.955
 8230POPC   C4A35598  42.298  10.513   7.655
 8230POPC   C1B35599  42.098  10.405   8.555
 8230POPC   C2B35600  42.060  10.470   8.255
 8230POPC   C3B35601  42.119  10.473   7.955
 8230POPC   C4B35602  42.066  10.405   7.655
 8231POPC   NC335603  42.303  31.508   9.455
 8231POPC   PO435604  42.321  31.520   9.155
 8231POPC   GL135605  42.351  31.480   8.855
 8231POPC   GL235606  42.379  31.343   8.855
 8231POPC   C1A35607  42.382  31.485   8.555
 8231POPC   D2A35608  42.368  31.521   8.255
 8231POPC   C3A35609  42.318  31.429   7.955
 8231POPC   C4A35610  42.299  31.464   7.655
 8231POPC   C1B35611  42.479  31.209   8.555
 8231POPC   C2B35612  42.428  31.218   8.255
 8231POPC   C3B35613  42.435  31.295   7.955
 8231POPC   C4B35614  42.481  31.297   7.655
 8232POPC   NC335615  40.778  24.533   9.455
 8232POPC   PO435616  40.748  24.445   9.155
 8232POPC   GL135617  40.752  24.495   8.855
 8232POPC   GL235618  40.856  24.475   8.855
 8232POPC   C1A35619  40.783  24.478   8.555
 8232POPC   D2A35620  40.735  24.494   8.255
 8232POPC   C3A35621  40.738  24.466   7.955
 8232POPC   C4A35622  40.749  24.517   7.655
 8232POPC   C1B35623  40.996  24.555   8.555
 8232POPC   C2B35624  41.010  24.560   8.255
 8232POPC   C3B35625  40.996  24.582   7.955
 8232POPC   C4B35626  40.989  24.523   7.655
 8233POPC   NC335627  32.203  29.956   9.455
 8233POPC   PO435628  32.273  29.873   9.155
 8233POPC   GL135629  32.240  29.918   8.855
 8233POPC   GL235630  32.273  30.020   8.855
 8233POPC   C1A35631  32.285  29.896   8.555
 8233POPC   D2A35632  32.263  29.917   8.255
 8233POPC   C3A35633  32.222  29.947   7.955
 8233POPC   C4A35634  32.262  29.905   7.655
 8233POPC   C1B35635  32.366  30.179   8.555
 8233POPC   C2B35636  32.336  30.158   8.255
 8233POPC   C3B35637  32.333  30.186   7.955
 8233POPC   C4B35638  32.318  30.135   7.655
 8234POPC   NC335639   5.845  13.609   9.455
 8234POPC   PO435640   5.917  13.626   9.155
 8234POPC   GL135641   5.915  13.661   8.855
 8234POPC   GL235642   5.866  13.768   8.855
 8234POPC   C1A35643   5.916  13.611   8.555
 8234POPC   D2A35644   5.886  13.648   8.255
 8234POPC   C3A35645   5.824  13.643   7.955
 8234POPC   C4A35646   5.882  13.652   7.655
 8234POPC   C1B35647   5.769  13.870   8.555
 8234POPC   C2B35648   5.733  13.907   8.255
 8234POPC   C3B35649   5.776  13.832   7.955
 8234POPC   C4B35650   5.724  13.864   7.655
 8235POPC   NC335651  10.477  24.481   9.455
 8235POPC   PO435652  10.523  24.474   9.155
 8235POPC   GL135653  10.574  24.513   8.855
 8235POPC   GL235654  10.365  24.407   8.855
 8235POPC   C1A35655  10.498  24.536   8.555
 8235POPC   D2A35656  10.539  24.520   8.255
 8235POPC   C3A35657  10.529  24.539   7.955
 8235POPC   C4A35658  10.524  24.452   7.655
 8235POPC   C1B35659  10.290  24.403   8.555
 8235POPC   C2B35660  10.258  24.401   8.255
 8235POPC   C3B35661  10.290  24.389   7.955
 8235POPC   C4B35662  10.282  24.364   7.655
 8236POPC   NC335663  44.648  11.348   9.455
 8236POPC   PO435664  44.624  11.300   9.155
 8236POPC   GL135665  44.630  11.296   8.855
 8236POPC   GL235666  44.771  11.374   8.855
 8236POPC   C1A35667  44.665  11.273   8.555
 8236POPC   D2A35668  44.613  11.291   8.255
 8236POPC   C3A35669  44.659  11.324   7.955
 8236POPC   C4A35670  44.615  11.320   7.655
 8236POPC   C1B35671  44.877  11.370   8.555
 8236POPC   C2B35672  44.911  11.424   8.255
 8236POPC   C3B35673  44.842  11.406   7.955
 8236POPC   C4B35674  44.887  11.411   7.655
 8237POPC   NC335675  36.941  39.232   9.455
 8237POPC   PO435676  36.867  39.223   9.155
 8237POPC   GL135677  36.909  39.275   8.855
 8237POPC   GL235678  36.775  39.242   8.855
 8237POPC   C1A35679  36.935  39.260   8.555
 8237POPC   D2A35680  36.889  39.255   8.255
 8237POPC   C3A35681  36.945  39.210   7.955
 8237POPC   C4A35682  36.864  39.248   7.655
 8237POPC   C1B35683  36.683  39.202   8.555
 8237POPC   C2B35684  36.699  39.254   8.255
 8237POPC   C3B35685  36.687  39.257   7.955
 8237POPC   C4B35686  36.646  39.221   7.655
 8238POPC   NC335687  27.633   1.188   9.455
 8238POPC   PO435688  27.544   1.171   9.155
 8238POPC   GL135689  27.551   1.185   8.855
 8238POPC   GL235690  27.516   1.089   8.855
 8238POPC   C1A35691  27.610   1.261   8.555
 8238POPC   D2A35692  27.576   1.248   8.255
 8238POPC   C3A35693  27.565   1.262   7.955
 8238POPC   C4A35694  27.586   1.249   7.655
 8238POPC   C1B35695  27.458   0.971   8.555
 8238POPC   C2B35696  27.490   0.998   8.255
 8238POPC   C3B35697  27.498   0.955   7.955
 8238POPC   C4B35698  27.443   1.047   7.655
 8239POPC   NC335699   1.262   5.833   9.455
 8239POPC   PO435700   1.221   5.900   9.155
 8239POPC   GL135701   1.251   5.883   8.855
 8239POPC   GL235702   1.204   5.961   8.855
 8239POPC   C1A35703   1.206   5.826   8.555
 8239POPC   D2A35704   1.168   5.906   8.255
 8239POPC   C3A35705   1.187   5.916   7.955
 8239POPC   C4A35706   1.195   5.907   7.655
 8239POPC   C1B35707   1.105   6.095   8.555
 8239POPC   C2B35708   1.142   6.127   8.255
 8239POPC   C3B35709   1.066   6.094   7.955
 8239POPC   C4B35710   1.116   6.107   7.655
 8240POPC   NC335711  13.613  40.041   9.455
 8240POPC   PO435712  13.583  40.040   9.155
 8240POPC   GL135713  13.648  40.029   8.855
 8240POPC   GL235714  13.756  40.111   8.855
 8240POPC   C1A35715  13.608  40.030   8.555
 8240POPC   D2A35716  13.611  39.992   8.255
 8240POPC   C3A35717  13.662  39.974   7.955
 8240POPC   C4A35718  13.609  39.968   7.655
 8240POPC   C1B35719  13.818  40.154   8.555
 8240POPC   C2B35720  13.830  40.145   8.255
 8240POPC   C3B35721  13.815  40.161   7.955
 8240POPC   C4B35722  13.768  40.143   7.655
 8241POPC   NC335723  11.285  26.823   9.455
 8241POPC   PO435724  11.295  26.833   9.155
 8241POPC   GL135725  11.304  26.808   8.855
 8241POPC   GL235726  11.294  26.936   8.855
 8241POPC   C1A35727  11.269  26.855   8.555
 8241POPC   D2A35728  11.303  26.815   8.255
 8241POPC   C3A35729  11.255  26.786   7.955
 8241POPC   C4A35730  11.349  26.851   7.655
 8241POPC   C1B35731  11.262  27.108   8.555
 8241POPC   C2B35732  11.239  27.109   8.255
 8241POPC   C3B35733  11.274  27.072   7.955
 8241POPC   C4B35734  11.271  27.036   7.655
 8242POPC   NC335735  21.365  38.410   9.455
 8242POPC   PO435736  21.355  38.471   9.155
 8242POPC   GL135737  21.370  38.411   8.855
 8242POPC   GL235738  21.286  38.448   8.855
 8242POPC   C1A35739  21.364  38.486   8.555
 8242POPC   D2A35740  21.355  38.422   8.255
 8242POPC   C3A35741  21.359  38.429   7.955
 8242POPC   C4A35742  21.385  38.462   7.655
 8242POPC   C1B35743  21.156  38.389   8.555
 8242POPC   C2B35744  21.126  38.393   8.255
 8242POPC   C3B35745  21.148  38.355   7.955
 8242POPC   C4B35746  21.124  38.351   7.655
 8243POPC   NC335747  22.975  19.062   9.455
 8243POPC   PO435748  22.929  19.029   9.155
 8243POPC   GL135749  22.893  19.084   8.855
 8243POPC   GL235750  22.773  19.129   8.855
 8243POPC   C1A35751  22.966  19.067   8.555
 8243POPC   D2A35752  22.947  19.082   8.255
 8243POPC   C3A35753  22.900  19.064   7.955
 8243POPC   C4A35754  22.957  19.107   7.655
 8243POPC   C1B35755  22.654  19.108   8.555
 8243POPC   C2B35756  22.701  19.133   8.255
 8243POPC   C3B35757  22.649  19.121   7.955
 8243POPC   C4B35758  22.705  19.107   7.655
 8244POPC   NC335759   3.497  13.650   9.455
 8244POPC   PO435760   3.522  13.624   9.155
 8244POPC   GL135761   3.517  13.607   8.855
 8244POPC   GL235762   3.536  13.506   8.855
 8244POPC   C1A35763   3.574  13.641   8.555
 8244POPC   D2A35764   3.509  13.606   8.255
 8244POPC   C3A35765   3.494  13.676   7.955
 8244POPC   C4A35766   3.579  13.656   7.655
 8244POPC   C1B35767   3.593  13.418   8.555
 8244POPC   C2B35768   3.577  13.386   8.255
 8244POPC   C3B35769   3.567  13.420   7.955
 8244POPC   C4B35770   3.552  13.364   7.655
 8245POPC   NC335771  43.906  33.062   9.455
 8245POPC   PO435772  43.925  33.047   9.155
 8245POPC   GL135773  43.858  33.036   8.855
 8245POPC   GL235774  43.773  33.061   8.855
 8245POPC   C1A35775  43.863  33.055   8.555
 8245POPC   D2A35776  43.936  32.988   8.255
 8245POPC   C3A35777  43.936  32.984   7.955
 8245POPC   C4A35778  43.896  32.977   7.655
 8245POPC   C1B35779  43.609  33.058   8.555
 8245POPC   C2B35780  43.626  33.129   8.255
 8245POPC   C3B35781  43.643  33.095   7.955
 8245POPC   C4B35782  43.619  33.089   7.655
 8246POPC   NC335783   6.650  37.710   9.455
 8246POPC   PO435784   6.653  37.635   9.155
 8246POPC   GL135785   6.657  37.703   8.855
 8246POPC   GL235786   6.575  37.614   8.855
 8246POPC   C1A35787   6.609  37.700   8.555
 8246POPC   D2A35788   6.600  37.703   8.255
 8246POPC   C3A35789   6.617  37.704   7.955
 8246POPC   C4A35790   6.692  37.671   7.655
 8246POPC   C1B35791   6.469  37.500   8.555
 8246POPC   C2B35792   6.492  37.525   8.255
 8246POPC   C3B35793   6.499  37.490   7.955
 8246POPC   C4B35794   6.427  37.517   7.655
 8247POPC   NC335795  22.983  10.535   9.455
 8247POPC   PO435796  22.965  10.561   9.155
 8247POPC   GL135797  22.972  10.560   8.855
 8247POPC   GL235798  22.942  10.424   8.855
 8247POPC   C1A35799  22.963  10.571   8.555
 8247POPC   D2A35800  22.954  10.521   8.255
 8247POPC   C3A35801  22.988  10.506   7.955
 8247POPC   C4A35802  22.949  10.544   7.655
 8247POPC   C1B35803  23.053  10.273   8.555
 8247POPC   C2B35804  23.000  10.287   8.255
 8247POPC   C3B35805  22.994  10.290   7.955
 8247POPC   C4B35806  23.043  10.336   7.655
 8248POPC   NC335807  29.921  37.670   9.455
 8248POPC   PO435808  29.939  37.694   9.155
 8248POPC   GL135809  29.877  37.648   8.855
 8248POPC   GL235810  29.843  37.643   8.855
 8248POPC   C1A35811  29.887  37.681   8.555
 8248POPC   D2A35812  29.876  37.654   8.255
 8248POPC   C3A35813  29.906  37.723   7.955
 8248POPC   C4A35814  29.963  37.647   7.655
 8248POPC   C1B35815  29.730  37.519   8.555
 8248POPC   C2B35816  29.696  37.512   8.255
 8248POPC   C3B35817  29.705  37.530   7.955
 8248POPC   C4B35818  29.733  37.598   7.655
 8249POPC   NC335819  36.865   3.559   9.455
 8249POPC   PO435820  36.935   3.543   9.155
 8249POPC   GL135821  36.895   3.508   8.855
 8249POPC   GL235822  36.975   3.466   8.855
 8249POPC   C1A35823  36.886   3.504   8.555
 8249POPC   D2A35824  36.916   3.558   8.255
 8249POPC   C3A35825  36.886   3.527   7.955
 8249POPC   C4A35826  36.872   3.537   7.655
 8249POPC   C1B35827  37.000   3.287   8.555
 8249POPC   C2B35828  36.944   3.317   8.255
 8249POPC   C3B35829  37.010   3.328   7.955
 8249POPC   C4B35830  36.968   3.275   7.655
 8250POPC   NC335831   5.886  16.709   9.455
 8250POPC   PO435832   5.872  16.752   9.155
 8250POPC   GL135833   5.851  16.777   8.855
 8250POPC   GL235834   5.991  16.683   8.855
 8250POPC   C1A35835   5.886  16.762   8.555
 8250POPC   D2A35836   5.883  16.775   8.255
 8250POPC   C3A35837   5.907  16.763   7.955
 8250POPC   C4A35838   5.904  16.715   7.655
 8250POPC   C1B35839   6.114  16.676   8.555
 8250POPC   C2B35840   6.106  16.664   8.255
 8250POPC   C3B35841   6.154  16.652   7.955
 8250POPC   C4B35842   6.089  16.677   7.655
 8251POPC   NC335843  19.010  34.565   9.455
 8251POPC   PO435844  19.094  34.559   9.155
 8251POPC   GL135845  19.078  34.584   8.855
 8251POPC   GL235846  19.218  34.663   8.855
 8251POPC   C1A35847  19.033  34.567   8.555
 8251POPC   D2A35848  19.036  34.562   8.255
 8251POPC   C3A35849  19.104  34.557   7.955
 8251POPC   C4A35850  19.072  34.529   7.655
 8251POPC   C1B35851  19.328  34.664   8.555
 8251POPC   C2B35852  19.296  34.683   8.255
 8251POPC   C3B35853  19.338  34.693   7.955
 8251POPC   C4B35854  19.338  34.616   7.655
 8252POPC   NC335855  22.179  29.933   9.455
 8252POPC   PO435856  22.174  29.970   9.155
 8252POPC   GL135857  22.156  29.952   8.855
 8252POPC   GL235858  22.172  29.847   8.855
 8252POPC   C1A35859  22.146  29.903   8.555
 8252POPC   D2A35860  22.163  29.905   8.255
 8252POPC   C3A35861  22.172  29.963   7.955
 8252POPC   C4A35862  22.203  29.965   7.655
 8252POPC   C1B35863  22.236  29.714   8.555
 8252POPC   C2B35864  22.225  29.727   8.255
 8252POPC   C3B35865  22.238  29.735   7.955
 8252POPC   C4B35866  22.232  29.732   7.655
 8253POPC   NC335867   3.496  15.150   9.455
 8253POPC   PO435868   3.584  15.172   9.155
 8253POPC   GL135869   3.526  15.186   8.855
 8253POPC   GL235870   3.530  15.288   8.855
 8253POPC   C1A35871   3.524  15.179   8.555
 8253POPC   D2A35872   3.505  15.196   8.255
 8253POPC   C3A35873   3.560  15.168   7.955
 8253POPC   C4A35874   3.552  15.203   7.655
 8253POPC   C1B35875   3.380  15.386   8.555
 8253POPC   C2B35876   3.403  15.394   8.255
 8253POPC   C3B35877   3.377  15.381   7.955
 8253POPC   C4B35878   3.449  15.363   7.655
 8254POPC   NC335879  25.271  22.185   9.455
 8254POPC   PO435880  25.263  22.157   9.155
 8254POPC   GL135881  25.291  22.161   8.855
 8254POPC   GL235882  25.302  22.007   8.855
 8254POPC   C1A35883  25.259  22.164   8.555
 8254POPC   D2A35884  25.300  22.147   8.255
 8254POPC   C3A35885  25.227  22.211   7.955
 8254POPC   C4A35886  25.250  22.162   7.655
 8254POPC   C1B35887  25.271  21.930   8.555
 8254POPC   C2B35888  25.302  21.882   8.255
 8254POPC   C3B35889  25.289  21.937   7.955
 8254POPC   C4B35890  25.260  21.882   7.655
 8255POPC   NC335891  22.187  43.114   9.455
 8255POPC   PO435892  22.187  43.156   9.155
 8255POPC   GL135893  22.148  43.073   8.855
 8255POPC   GL235894  22.299  43.087   8.855
 8255POPC   C1A35895  22.129  43.084   8.555
 8255POPC   D2A35896  22.179  43.083   8.255
 8255POPC   C3A35897  22.165  43.129   7.955
 8255POPC   C4A35898  22.129  43.135   7.655
 8255POPC   C1B35899  22.461  43.082   8.555
 8255POPC   C2B35900  22.380  43.157   8.255
 8255POPC   C3B35901  22.433  43.116   7.955
 8255POPC   C4B35902  22.445  43.116   7.655
 8256POPC   NC335903  36.879  30.675   9.455
 8256POPC   PO435904  36.864  30.712   9.155
 8256POPC   GL135905  36.906  30.718   8.855
 8256POPC   GL235906  36.833  30.827   8.855
 8256POPC   C1A35907  36.952  30.658   8.555
 8256POPC   D2A35908  36.891  30.745   8.255
 8256POPC   C3A35909  36.926  30.677   7.955
 8256POPC   C4A35910  36.953  30.702   7.655
 8256POPC   C1B35911  36.828  30.888   8.555
 8256POPC   C2B35912  36.796  30.905   8.255
 8256POPC   C3B35913  36.812  30.979   7.955
 8256POPC   C4B35914  36.847  30.901   7.655
 8257POPC   NC335915  29.951   5.111   9.455
 8257POPC   PO435916  29.926   5.124   9.155
 8257POPC   GL135917  29.897   5.087   8.855
 8257POPC   GL235918  30.019   5.132   8.855
 8257POPC   C1A35919  29.922   5.076   8.555
 8257POPC   D2A35920  29.874   5.090   8.255
 8257POPC   C3A35921  29.959   5.087   7.955
 8257POPC   C4A35922  29.960   5.122   7.655
 8257POPC   C1B35923  30.145   5.295   8.555
 8257POPC   C2B35924  30.059   5.272   8.255
 8257POPC   C3B35925  30.094   5.218   7.955
 8257POPC   C4B35926  30.129   5.269   7.655
 8258POPC   NC335927  28.369  42.291   9.455
 8258POPC   PO435928  28.350  42.362   9.155
 8258POPC   GL135929  28.403  42.332   8.855
 8258POPC   GL235930  28.244  42.268   8.855
 8258POPC   C1A35931  28.387  42.365   8.555
 8258POPC   D2A35932  28.406  42.351   8.255
 8258POPC   C3A35933  28.356  42.304   7.955
 8258POPC   C4A35934  28.396  42.322   7.655
 8258POPC   C1B35935  28.167  42.126   8.555
 8258POPC   C2B35936  28.169  42.117   8.255
 8258POPC   C3B35937  28.196  42.168   7.955
 8258POPC   C4B35938  28.182  42.178   7.655
 8259POPC   NC335939  17.467   1.964   9.455
 8259POPC   PO435940  17.462   1.994   9.155
 8259POPC   GL135941  17.468   2.035   8.855
 8259POPC   GL235942  17.383   2.118   8.855
 8259POPC   C1A35943  17.548   1.961   8.555
 8259POPC   D2A35944  17.553   1.970   8.255
 8259POPC   C3A35945  17.522   1.944   7.955
 8259POPC   C4A35946  17.511   1.998   7.655
 8259POPC   C1B35947  17.306   2.159   8.555
 8259POPC   C2B35948  17.346   2.200   8.255
 8259POPC   C3B35949  17.331   2.203   7.955
 8259POPC   C4B35950  17.373   2.164   7.655
 8260POPC   NC335951  43.928   5.898   9.455
 8260POPC   PO435952  43.847   5.857   9.155
 8260POPC   GL135953  43.904   5.879   8.855
 8260POPC   GL235954  43.895   5.938   8.855
 8260POPC   C1A35955  43.867   5.845   8.555
 8260POPC   D2A35956  43.896   5.843   8.255
 8260POPC   C3A35957  43.880   5.885   7.955
 8260POPC   C4A35958  43.927   5.819   7.655
 8260POPC   C1B35959  44.006   6.090   8.555
 8260POPC   C2B35960  43.960   6.105   8.255
 8260POPC   C3B35961  43.983   6.104   7.955
 8260POPC   C4B35962  44.019   6.051   7.655
 8261POPC   NC335963  35.356   5.074   9.455
 8261POPC   PO435964  35.302   5.087   9.155
 8261POPC   GL135965  35.395   5.097   8.855
 8261POPC   GL235966  35.475   5.043   8.855
 8261POPC   C1A35967  35.393   5.125   8.555
 8261POPC   D2A35968  35.317   5.115   8.255
 8261POPC   C3A35969  35.303   5.094   7.955
 8261POPC   C4A35970  35.401   5.131   7.655
 8261POPC   C1B35971  35.499   4.940   8.555
 8261POPC   C2B35972  35.585   4.886   8.255
 8261POPC   C3B35973  35.583   4.922   7.955
 8261POPC   C4B35974  35.523   4.910   7.655
 8262POPC   NC335975  23.676   5.872   9.455
 8262POPC   PO435976  23.722   5.823   9.155
 8262POPC   GL135977  23.726   5.904   8.855
 8262POPC   GL235978  23.872   5.883   8.855
 8262POPC   C1A35979  23.706   5.843   8.555
 8262POPC   D2A35980  23.690   5.885   8.255
 8262POPC   C3A35981  23.730   5.877   7.955
 8262POPC   C4A35982  23.687   5.905   7.655
 8262POPC   C1B35983  23.966   5.855   8.555
 8262POPC   C2B35984  24.007   5.881   8.255
 8262POPC   C3B35985  23.991   5.884   7.955
 8262POPC   C4B35986  24.007   5.850   7.655
 8263POPC   NC335987  23.750  40.788   9.455
 8263POPC   PO435988  23.730  40.761   9.155
 8263POPC   GL135989  23.668  40.827   8.855
 8263POPC   GL235990  23.792  40.808   8.855
 8263POPC   C1A35991  23.695  40.824   8.555
 8263POPC   D2A35992  23.752  40.736   8.255
 8263POPC   C3A35993  23.681  40.733   7.955
 8263POPC   C4A35994  23.744  40.751   7.655
 8263POPC   C1B35995  23.919  40.753   8.555
 8263POPC   C2B35996  23.926  40.798   8.255
 8263POPC   C3B35997  23.964  40.749   7.955
 8263POPC   C4B35998  23.969  40.838   7.655
 8264POPC   NC335999  17.515  36.083   9.455
 8264POPC   PO436000  17.531  36.082   9.155
 8264POPC   GL136001  17.534  36.160   8.855
 8264POPC   GL236002  17.544  36.261   8.855
 8264POPC   C1A36003  17.515  36.121   8.555
 8264POPC   D2A36004  17.487  36.152   8.255
 8264POPC   C3A36005  17.553  36.152   7.955
 8264POPC   C4A36006  17.524  36.109   7.655
 8264POPC   C1B36007  17.625  36.355   8.555
 8264POPC   C2B36008  17.615  36.407   8.255
 8264POPC   C3B36009  17.600  36.382   7.955
 8264POPC   C4B36010  17.556  36.312   7.655
 8265POPC   NC336011   0.393  41.515   9.455
 8265POPC   PO436012   0.403  41.571   9.155
 8265POPC   GL136013   0.486  41.598   8.855
 8265POPC   GL236014   0.540  41.458   8.855
 8265POPC   C1A36015   0.481  41.604   8.555
 8265POPC   D2A36016   0.420  41.573   8.255
 8265POPC   C3A36017   0.392  41.584   7.955
 8265POPC   C4A36018   0.395  41.538   7.655
 8265POPC   C1B36019   0.597  41.331   8.555
 8265POPC   C2B36020   0.539  41.301   8.255
 8265POPC   C3B36021   0.519  41.375   7.955
 8265POPC   C4B36022   0.523  41.315   7.655
 8266POPC   NC336023   4.276  42.310   9.455
 8266POPC   PO436024   4.326  42.381   9.155
 8266POPC   GL136025   4.290  42.314   8.855
 8266POPC   GL236026   4.486  42.401   8.855
 8266POPC   C1A36027   4.298  42.373   8.555
 8266POPC   D2A36028   4.270  42.329   8.255
 8266POPC   C3A36029   4.268  42.319   7.955
 8266POPC   C4A36030   4.334  42.293   7.655
 8266POPC   C1B36031   4.526  42.444   8.555
 8266POPC   C2B36032   4.528  42.456   8.255
 8266POPC   C3B36033   4.507  42.390   7.955
 8266POPC   C4B36034   4.549  42.430   7.655
 8267POPC   NC336035   6.648   1.190   9.455
 8267POPC   PO436036   6.655   1.183   9.155
 8267POPC   GL136037   6.613   1.213   8.855
 8267POPC   GL236038   6.788   1.144   8.855
 8267POPC   C1A36039   6.642   1.249   8.555
 8267POPC   D2A36040   6.689   1.248   8.255
 8267POPC   C3A36041   6.638   1.166   7.955
 8267POPC   C4A36042   6.600   1.219   7.655
 8267POPC   C1B36043   6.866   1.085   8.555
 8267POPC   C2B36044   6.887   1.082   8.255
 8267POPC   C3B36045   6.818   1.029   7.955
 8267POPC   C4B36046   6.824   1.011   7.655
 8268POPC   NC336047  26.854  35.386   9.455
 8268POPC   PO436048  26.785  35.396   9.155
 8268POPC   GL136049  26.821  35.337   8.855
 8268POPC   GL236050  26.918  35.307   8.855
 8268POPC   C1A36051  26.847  35.397   8.555
 8268POPC   D2A36052  26.819  35.402   8.255
 8268POPC   C3A36053  26.785  35.367   7.955
 8268POPC   C4A36054  26.791  35.350   7.655
 8268POPC   C1B36055  27.113  35.322   8.555
 8268POPC   C2B36056  27.064  35.330   8.255
 8268POPC   C3B36057  27.058  35.350   7.955
 8268POPC   C4B36058  27.051  35.306   7.655
 8269POPC   NC336059  36.116   1.196   9.455
 8269POPC   PO436060  36.086   1.250   9.155
 8269POPC   GL136061  36.084   1.229   8.855
 8269POPC   GL236062  36.129   1.300   8.855
 8269POPC   C1A36063  36.127   1.185   8.555
 8269POPC   D2A36064  36.125   1.245   8.255
 8269POPC   C3A36065  36.078   1.169   7.955
 8269POPC   C4A36066  36.102   1.218   7.655
 8269POPC   C1B36067  36.215   1.484   8.555
 8269POPC   C2B36068  36.249   1.403   8.255
 8269POPC   C3B36069  36.183   1.479   7.955
 8269POPC   C4B36070  36.226   1.458   7.655
 8270POPC   NC336071  22.207   7.375   9.455
 8270POPC   PO436072  22.191   7.410   9.155
 8270POPC   GL136073  22.118   7.381   8.855
 8270POPC   GL236074  22.159   7.571   8.855
 8270POPC   C1A36075  22.135   7.442   8.555
 8270POPC   D2A36076  22.147   7.408   8.255
 8270POPC   C3A36077  22.170   7.401   7.955
 8270POPC   C4A36078  22.134   7.442   7.655
 8270POPC   C1B36079  22.119   7.667   8.555
 8270POPC   C2B36080  22.049   7.684   8.255
 8270POPC   C3B36081  22.110   7.702   7.955
 8270POPC   C4B36082  22.041   7.618   7.655
 8271POPC   NC336083  44.701  24.452   9.455
 8271POPC   PO436084  44.674  24.528   9.155
 8271POPC   GL136085  44.626  24.474   8.855
 8271POPC   GL236086  44.724  24.641   8.855
 8271POPC   C1A36087  44.633  24.497   8.555
 8271POPC   D2A36088  44.688  24.527   8.255
 8271POPC   C3A36089  44.627  24.500   7.955
 8271POPC   C4A36090  44.649  24.511   7.655
 8271POPC   C1B36091  44.818  24.667   8.555
 8271POPC   C2B36092  44.771  24.675   8.255
 8271POPC   C3B36093  44.782  24.672   7.955
 8271POPC   C4B36094  44.815  24.714   7.655
 8272POPC   NC336095  12.850  42.329   9.455
 8272POPC   PO436096  12.806  42.349   9.155
 8272POPC   GL136097  12.876  42.359   8.855
 8272POPC   GL236098  12.941  42.385   8.855
 8272POPC   C1A36099  12.831  42.309   8.555
 8272POPC   D2A36100  12.877  42.319   8.255
 8272POPC   C3A36101  12.807  42.381   7.955
 8272POPC   C4A36102  12.828  42.368   7.655
 8272POPC   C1B36103  13.101  42.380   8.555
 8272POPC   C2B36104  13.086  42.455   8.255
 8272POPC   C3B36105  13.113  42.366   7.955
 8272POPC   C4B36106  13.042  42.443   7.655
 8273POPC   NC336107   3.537  39.960   9.455
 8273POPC   PO436108   3.533  40.043   9.155
 8273POPC   GL136109   3.588  39.980   8.855
 8273POPC   GL236110   3.464  39.906   8.855
 8273POPC   C1A36111   3.533  40.011   8.555
 8273POPC   D2A36112   3.584  40.033   8.255
 8273POPC   C3A36113   3.528  39.971   7.955
 8273POPC   C4A36114   3.505  39.984   7.655
 8273POPC   C1B36115   3.480  39.778   8.555
 8273POPC   C2B36116   3.469  39.795   8.255
 8273POPC   C3B36117   3.469  39.760   7.955
 8273POPC   C4B36118   3.518  39.762   7.655
 8274POPC   NC336119  43.070   4.310   9.455
 8274POPC   PO436120  43.068   4.271   9.155
 8274POPC   GL136121  43.094   4.295   8.855
 8274POPC   GL236122  43.023   4.284   8.855
 8274POPC   C1A36123  43.135   4.275   8.555
 8274POPC   D2A36124  43.136   4.291   8.255
 8274POPC   C3A36125  43.100   4.271   7.955
 8274POPC   C4A36126  43.114   4.334   7.655
 8274POPC   C1B36127  42.869   4.291   8.555
 8274POPC   C2B36128  42.909   4.223   8.255
 8274POPC   C3B36129  42.879   4.314   7.955
 8274POPC   C4B36130  42.891   4.291   7.655
 8275POPC   NC336131  37.725   5.101   9.455
 8275POPC   PO436132  37.708   5.055   9.155
 8275POPC   GL136133  37.697   5.054   8.855
 8275POPC   GL236134  37.512   5.125   8.855
 8275POPC   C1A36135  37.725   5.141   8.555
 8275POPC   D2A36136  37.717   5.141   8.255
 8275POPC   C3A36137  37.725   5.129   7.955
 8275POPC   C4A36138  37.713   5.064   7.655
 8275POPC   C1B36139  37.458   5.168   8.555
 8275POPC   C2B36140  37.403   5.169   8.255
 8275POPC   C3B36141  37.424   5.108   7.955
 8275POPC   C4B36142  37.433   5.088   7.655
 8276POPC   NC336143   5.897  43.876   9.455
 8276POPC   PO436144   5.823  43.916   9.155
 8276POPC   GL136145   5.896  43.925   8.855
 8276POPC   GL236146   5.718  43.856   8.855
 8276POPC   C1A36147   5.880  43.849   8.555
 8276POPC   D2A36148   5.854  43.887   8.255
 8276POPC   C3A36149   5.901  43.907   7.955
 8276POPC   C4A36150   5.823  43.838   7.655
 8276POPC   C1B36151   5.608  43.877   8.555
 8276POPC   C2B36152   5.590  43.836   8.255
 8276POPC   C3B36153   5.599  43.878   7.955
 8276POPC   C4B36154   5.611  43.926   7.655
 8277POPC   NC336155   2.005  10.520   9.455
 8277POPC   PO436156   1.947  10.555   9.155
 8277POPC   GL136157   1.959  10.495   8.855
 8277POPC   GL236158   2.003  10.406   8.855
 8277POPC   C1A36159   1.961  10.573   8.555
 8277POPC   D2A36160   2.027  10.557   8.255
 8277POPC   C3A36161   1.948  10.545   7.955
 8277POPC   C4A36162   1.954  10.477   7.655
 8277POPC   C1B36163   1.958  10.318   8.555
 8277POPC   C2B36164   2.028  10.289   8.255
 8277POPC   C3B36165   2.009  10.311   7.955
 8277POPC   C4B36166   2.015  10.269   7.655
 8278POPC   NC336167  19.853  42.299   9.455
 8278POPC   PO436168  19.817  42.317   9.155
 8278POPC   GL136169  19.847  42.294   8.855
 8278POPC   GL236170  19.842  42.203   8.855
 8278POPC   C1A36171  19.866  42.305   8.555
 8278POPC   D2A36172  19.825  42.289   8.255
 8278POPC   C3A36173  19.881  42.351   7.955
 8278POPC   C4A36174  19.815  42.375   7.655
 8278POPC   C1B36175  19.807  42.089   8.555
 8278POPC   C2B36176  19.812  42.114   8.255
 8278POPC   C3B36177  19.743  42.093   7.955
 8278POPC   C4B36178  19.832  42.089   7.655
 8279POPC   NC336179  14.418   8.166   9.455
 8279POPC   PO436180  14.389   8.185   9.155
 8279POPC   GL136181  14.422   8.158   8.855
 8279POPC   GL236182  14.346   8.061   8.855
 8279POPC   C1A36183  14.360   8.149   8.555
 8279POPC   D2A36184  14.386   8.170   8.255
 8279POPC   C3A36185  14.366   8.215   7.955
 8279POPC   C4A36186  14.394   8.196   7.655
 8279POPC   C1B36187  14.351   7.905   8.555
 8279POPC   C2B36188  14.411   7.988   8.255
 8279POPC   C3B36189  14.407   7.915   7.955
 8279POPC   C4B36190  14.412   7.928   7.655
 8280POPC   NC336191  18.236  10.553   9.455
 8280POPC   PO436192  18.320  10.572   9.155
 8280POPC   GL136193  18.237  10.513   8.855
 8280POPC   GL236194  18.124  10.481   8.855
 8280POPC   C1A36195  18.265  10.549   8.555
 8280POPC   D2A36196  18.288  10.561   8.255
 8280POPC   C3A36197  18.283  10.521   7.955
 8280POPC   C4A36198  18.330  10.518   7.655
 8280POPC   C1B36199  18.010  10.394   8.555
 8280POPC   C2B36200  18.035  10.394   8.255
 8280POPC   C3B36201  18.082  10.400   7.955
 8280POPC   C4B36202  18.016  10.373   7.655
 8281POPC   NC336203   9.774  22.139   9.455
 8281POPC   PO436204   9.701  22.148   9.155
 8281POPC   GL136205   9.749  22.206   8.855
 8281POPC   GL236206   9.724  22.271   8.855
 8281POPC   C1A36207   9.721  22.135   8.555
 8281POPC   D2A36208   9.722  22.135   8.255
 8281POPC   C3A36209   9.717  22.202   7.955
 8281POPC   C4A36210   9.722  22.174   7.655
 8281POPC   C1B36211   9.779  22.413   8.555
 8281POPC   C2B36212   9.724  22.408   8.255
 8281POPC   C3B36213   9.780  22.408   7.955
 8281POPC   C4B36214   9.748  22.366   7.655
 8282POPC   NC336215  29.154  40.013   9.455
 8282POPC   PO436216  29.117  40.039   9.155
 8282POPC   GL136217  29.106  40.034   8.855
 8282POPC   GL236218  29.119  40.082   8.855
 8282POPC   C1A36219  29.164  39.965   8.555
 8282POPC   D2A36220  29.130  40.029   8.255
 8282POPC   C3A36221  29.180  39.967   7.955
 8282POPC   C4A36222  29.155  40.021   7.655
 8282POPC   C1B36223  29.009  40.233   8.555
 8282POPC   C2B36224  28.988  40.197   8.255
 8282POPC   C3B36225  29.042  40.211   7.955
 8282POPC   C4B36226  29.011  40.205   7.655
 8283POPC   NC336227   8.197  36.154   9.455
 8283POPC   PO436228   8.157  36.095   9.155
 8283POPC   GL136229   8.186  36.121   8.855
 8283POPC   GL236230   8.257  36.036   8.855
 8283POPC   C1A36231   8.213  36.127   8.555
 8283POPC   D2A36232   8.194  36.101   8.255
 8283POPC   C3A36233   8.224  36.169   7.955
 8283POPC   C4A36234   8.174  36.147   7.655
 8283POPC   C1B36235   8.279  35.859   8.555
 8283POPC   C2B36236   8.330  35.928   8.255
 8283POPC   C3B36237   8.316  35.880   7.955
 8283POPC   C4B36238   8.318  35.868   7.655
 8284POPC   NC336239  39.247  33.010   9.455
 8284POPC   PO436240  39.182  32.995   9.155
 8284POPC   GL136241  39.266  33.065   8.855
 8284POPC   GL236242  39.142  32.944   8.855
 8284POPC   C1A36243  39.273  32.982   8.555
 8284POPC   D2A36244  39.206  33.011   8.255
 8284POPC   C3A36245  39.218  33.037   7.955
 8284POPC   C4A36246  39.208  33.070   7.655
 8284POPC   C1B36247  39.054  32.828   8.555
 8284POPC   C2B36248  39.062  32.849   8.255
 8284POPC   C3B36249  39.051  32.856   7.955
 8284POPC   C4B36250  39.088  32.842   7.655
 8285POPC   NC336251  18.293  15.154   9.455
 8285POPC   PO436252  18.270  15.224   9.155
 8285POPC   GL136253  18.293  15.192   8.855
 8285POPC   GL236254  18.164  15.147   8.855
 8285POPC   C1A36255  18.266  15.151   8.555
 8285POPC   D2A36256  18.293  15.178   8.255
 8285POPC   C3A36257  18.240  15.147   7.955
 8285POPC   C4A36258  18.244  15.132   7.655
 8285POPC   C1B36259  18.074  15.156   8.555
 8285POPC   C2B36260  18.057  15.173   8.255
 8285POPC   C3B36261  18.062  15.137   7.955
 8285POPC   C4B36262  18.045  15.160   7.655
 8286POPC   NC336263  25.281  36.893   9.455
 8286POPC   PO436264  25.270  36.928   9.155
 8286POPC   GL136265  25.228  36.877   8.855
 8286POPC   GL236266  25.403  36.927   8.855
 8286POPC   C1A36267  25.291  36.866   8.555
 8286POPC   D2A36268  25.243  36.951   8.255
 8286POPC   C3A36269  25.304  36.943   7.955
 8286POPC   C4A36270  25.301  36.930   7.655
 8286POPC   C1B36271  25.478  37.063   8.555
 8286POPC   C2B36272  25.474  37.031   8.255
 8286POPC   C3B36273  25.450  37.018   7.955
 8286POPC   C4B36274  25.470  37.008   7.655
 8287POPC   NC336275   5.822  26.060   9.455
 8287POPC   PO436276   5.834  25.994   9.155
 8287POPC   GL136277   5.910  26.046   8.855
 8287POPC   GL236278   5.944  26.101   8.855
 8287POPC   C1A36279   5.910  26.084   8.555
 8287POPC   D2A36280   5.825  26.035   8.255
 8287POPC   C3A36281   5.851  26.068   7.955
 8287POPC   C4A36282   5.819  26.033   7.655
 8287POPC   C1B36283   6.068  26.085   8.555
 8287POPC   C2B36284   6.134  26.061   8.255
 8287POPC   C3B36285   6.163  26.089   7.955
 8287POPC   C4B36286   6.164  26.052   7.655
 8288POPC   NC336287  20.591  43.915   9.455
 8288POPC   PO436288  20.623  43.887   9.155
 8288POPC   GL136289  20.637  43.891   8.855
 8288POPC   GL236290  20.574  44.021   8.855
 8288POPC   C1A36291  20.620  43.900   8.555
 8288POPC   D2A36292  20.649  43.874   8.255
 8288POPC   C3A36293  20.574  43.885   7.955
 8288POPC   C4A36294  20.592  43.857   7.655
 8288POPC   C1B36295  20.438  44.112   8.555
 8288POPC   C2B36296  20.453  44.054   8.255
 8288POPC   C3B36297  20.498  44.139   7.955
 8288POPC   C4B36298  20.464  44.082   7.655
 8289POPC   NC336299  21.374  15.219   9.455
 8289POPC   PO436300  21.352  15.167   9.155
 8289POPC   GL136301  21.375  15.157   8.855
 8289POPC   GL236302  21.377  15.276   8.855
 8289POPC   C1A36303  21.400  15.171   8.555
 8289POPC   D2A36304  21.374  15.217   8.255
 8289POPC   C3A36305  21.410  15.221   7.955
 8289POPC   C4A36306  21.392  15.171   7.655
 8289POPC   C1B36307  21.415  15.475   8.555
 8289POPC   C2B36308  21.417  15.380   8.255
 8289POPC   C3B36309  21.433  15.473   7.955
 8289POPC   C4B36310  21.469  15.392   7.655
 8290POPC   NC336311  23.716  20.631   9.455
 8290POPC   PO436312  23.700  20.570   9.155
 8290POPC   GL136313  23.749  20.589   8.855
 8290POPC   GL236314  23.790  20.479   8.855
 8290POPC   C1A36315  23.701  20.619   8.555
 8290POPC   D2A36316  23.690  20.589   8.255
 8290POPC   C3A36317  23.748  20.648   7.955
 8290POPC   C4A36318  23.685  20.632   7.655
 8290POPC   C1B36319  23.934  20.479   8.555
 8290POPC   C2B36320  23.892  20.394   8.255
 8290POPC   C3B36321  23.947  20.461   7.955
 8290POPC   C4B36322  23.851  20.447   7.655
 8291POPC   NC336323  44.697  15.136   9.455
 8291POPC   PO436324  44.704  15.202   9.155
 8291POPC   GL136325  44.637  15.141   8.855
 8291POPC   GL236326  44.620  15.337   8.855
 8291POPC   C1A36327  44.697  15.168   8.555
 8291POPC   D2A36328  44.667  15.135   8.255
 8291POPC   C3A36329  44.624  15.163   7.955
 8291POPC   C4A36330  44.656  15.222   7.655
 8291POPC   C1B36331  44.606  15.415   8.555
 8291POPC   C2B36332  44.672  15.469   8.255
 8291POPC   C3B36333  44.698  15.390   7.955
 8291POPC   C4B36334  44.669  15.414   7.655
 8292POPC   NC336335  28.358   7.424   9.455
 8292POPC   PO436336  28.358   7.372   9.155
 8292POPC   GL136337  28.342   7.412   8.855
 8292POPC   GL236338  28.507   7.470   8.855
 8292POPC   C1A36339  28.408   7.397   8.555
 8292POPC   D2A36340  28.331   7.426   8.255
 8292POPC   C3A36341  28.361   7.447   7.955
 8292POPC   C4A36342  28.323   7.420   7.655
 8292POPC   C1B36343  28.615   7.563   8.555
 8292POPC   C2B36344  28.566   7.585   8.255
 8292POPC   C3B36345  28.564   7.531   7.955
 8292POPC   C4B36346  28.605   7.573   7.655
 8293POPC   NC336347   8.235   8.186   9.455
 8293POPC   PO436348   8.201   8.207   9.155
 8293POPC   GL136349   8.169   8.239   8.855
 8293POPC   GL236350   8.146   8.029   8.855
 8293POPC   C1A36351   8.219   8.189   8.555
 8293POPC   D2A36352   8.187   8.201   8.255
 8293POPC   C3A36353   8.185   8.221   7.955
 8293POPC   C4A36354   8.211   8.178   7.655
 8293POPC   C1B36355   8.143   7.974   8.555
 8293POPC   C2B36356   8.173   7.933   8.255
 8293POPC   C3B36357   8.184   7.987   7.955
 8293POPC   C4B36358   8.109   7.927   7.655
 8294POPC   NC336359  13.585  43.918   9.455
 8294POPC   PO436360  13.640  43.883   9.155
 8294POPC   GL136361  13.614  43.923   8.855
 8294POPC   GL236362  13.785  43.967   8.855
 8294POPC   C1A36363  13.658  43.890   8.555
 8294POPC   D2A36364  13.623  43.861   8.255
 8294POPC   C3A36365  13.596  43.872   7.955
 8294POPC   C4A36366  13.586  43.872   7.655
 8294POPC   C1B36367  13.856  43.941   8.555
 8294POPC   C2B36368  13.866  43.901   8.255
 8294POPC   C3B36369  13.840  43.936   7.955
 8294POPC   C4B36370  13.858  43.984   7.655
 8295POPC   NC336371  40.792  28.333   9.455
 8295POPC   PO436372  40.791  28.415   9.155
 8295POPC   GL136373  40.812  28.389   8.855
 8295POPC   GL236374  40.771  28.520   8.855
 8295POPC   C1A36375  40.758  28.337   8.555
 8295POPC   D2A36376  40.767  28.390   8.255
 8295POPC   C3A36377  40.812  28.364   7.955
 8295POPC   C4A36378  40.801  28.409   7.655
 8295POPC   C1B36379  40.725  28.638   8.555
 8295POPC   C2B36380  40.797  28.573   8.255
 8295POPC   C3B36381  40.780  28.665   7.955
 8295POPC   C4B36382  40.721  28.650   7.655
 8296POPC   NC336383  23.681  16.749   9.455
 8296POPC   PO436384  23.687  16.730   9.155
 8296POPC   GL136385  23.739  16.757   8.855
 8296POPC   GL236386  23.814  16.738   8.855
 8296POPC   C1A36387  23.725  16.779   8.555
 8296POPC   D2A36388  23.717  16.768   8.255
 8296POPC   C3A36389  23.711  16.707   7.955
 8296POPC   C4A36390  23.759  16.742   7.655
 8296POPC   C1B36391  23.967  16.816   8.555
 8296POPC   C2B36392  23.974  16.830   8.255
 8296POPC   C3B36393  23.983  16.878   7.955
 8296POPC   C4B36394  23.939  16.826   7.655
 8297POPC   NC336395  25.223  43.098   9.455
 8297POPC   PO436396  25.217  43.085   9.155
 8297POPC   GL136397  25.238  43.140   8.855
 8297POPC   GL236398  25.366  43.186   8.855
 8297POPC   C1A36399  25.279  43.081   8.555
 8297POPC   D2A36400  25.243  43.137   8.255
 8297POPC   C3A36401  25.305  43.147   7.955
 8297POPC   C4A36402  25.239  43.125   7.655
 8297POPC   C1B36403  25.555  43.134   8.555
 8297POPC   C2B36404  25.479  43.178   8.255
 8297POPC   C3B36405  25.460  43.226   7.955
 8297POPC   C4B36406  25.457  43.206   7.655
 8298POPC   NC336407  27.549  43.109   9.455
 8298POPC   PO436408  27.558  43.115   9.155
 8298POPC   GL136409  27.586  43.065   8.855
 8298POPC   GL236410  27.704  43.058   8.855
 8298POPC   C1A36411  27.551  43.108   8.555
 8298POPC   D2A36412  27.574  43.069   8.255
 8298POPC   C3A36413  27.589  43.138   7.955
 8298POPC   C4A36414  27.550  43.144   7.655
 8298POPC   C1B36415  27.837  43.135   8.555
 8298POPC   C2B36416  27.810  43.081   8.255
 8298POPC   C3B36417  27.810  43.114   7.955
 8298POPC   C4B36418  27.826  43.093   7.655
 8299POPC   NC336419   4.329  44.673   9.455
 8299POPC   PO436420   4.329  44.703   9.155
 8299POPC   GL136421   4.284  44.643   8.855
 8299POPC   GL236422   4.320  44.810   8.855
 8299POPC   C1A36423   4.327  44.662   8.555
 8299POPC   D2A36424   4.272  44.625   8.255
 8299POPC   C3A36425   4.358  44.689   7.955
 8299POPC   C4A36426   4.336  44.657   7.655
 8299POPC   C1B36427   4.392  44.869   8.555
 8299POPC   C2B36428   4.352  44.925   8.255
 8299POPC   C3B36429   4.382  44.939   7.955
 8299POPC   C4B36430   4.371  44.944   7.655
 8300POPC   NC336431   8.997   1.242   9.455
 8300POPC   PO436432   8.954   1.213   9.155
 8300POPC   GL136433   9.003   1.173   8.855
 8300POPC   GL236434   9.134   1.229   8.855
 8300POPC   C1A36435   8.963   1.223   8.555
 8300POPC   D2A36436   8.975   1.255   8.255
 8300POPC   C3A36437   9.013   1.194   7.955
 8300POPC   C4A36438   8.942   1.230   7.655
 8300POPC   C1B36439   9.250   1.189   8.555
 8300POPC   C2B36440   9.208   1.183   8.255
 8300POPC   C3B36441   9.169   1.187   7.955
 8300POPC   C4B36442   9.198   1.151   7.655
 8301POPC   NC336443  39.194   1.221   9.455
 8301POPC   PO436444  39.202   1.193   9.155
 8301POPC   GL136445  39.275   1.176   8.855
 8301POPC   GL236446  39.323   1.238   8.855
 8301POPC   C1A36447  39.205   1.213   8.555
 8301POPC   D2A36448  39.258   1.242   8.255
 8301POPC   C3A36449  39.211   1.167   7.955
 8301POPC   C4A36450  39.232   1.257   7.655
 8301POPC   C1B36451  39.417   1.358   8.555
 8301POPC   C2B36452  39.483   1.315   8.255
 8301POPC   C3B36453  39.456   1.407   7.955
 8301POPC   C4B36454  39.401   1.350   7.655
 8302POPC   NC336455   2.807   5.048   9.455
 8302POPC   PO436456   2.756   5.107   9.155
 8302POPC   GL136457   2.732   5.110   8.855
 8302POPC   GL236458   2.799   4.947   8.855
 8302POPC   C1A36459   2.793   5.133   8.555
 8302POPC   D2A36460   2.789   5.059   8.255
 8302POPC   C3A36461   2.757   5.098   7.955
 8302POPC   C4A36462   2.771   5.106   7.655
 8302POPC   C1B36463   2.755   4.835   8.555
 8302POPC   C2B36464   2.767   4.876   8.255
 8302POPC   C3B36465   2.743   4.801   7.955
 8302POPC   C4B36466   2.830   4.843   7.655
 8303POPC   NC336467  38.467  19.023   9.455
 8303POPC   PO436468  38.472  19.042   9.155
 8303POPC   GL136469  38.478  19.104   8.855
 8303POPC   GL236470  38.343  18.981   8.855
 8303POPC   C1A36471  38.453  19.049   8.555
 8303POPC   D2A36472  38.435  19.076   8.255
 8303POPC   C3A36473  38.435  19.042   7.955
 8303POPC   C4A36474  38.487  19.098   7.655
 8303POPC   C1B36475  38.274  18.917   8.555
 8303POPC   C2B36476  38.214  18.894   8.255
 8303POPC   C3B36477  38.207  18.988   7.955
 8303POPC   C4B36478  38.210  18.926   7.655
 8304POPC   NC336479   2.020  40.014   9.455
 8304POPC   PO436480   2.037  39.988   9.155
 8304POPC   GL136481   1.948  40.017   8.855
 8304POPC   GL236482   2.048  39.938   8.855
 8304POPC   C1A36483   2.021  40.010   8.555
 8304POPC   D2A36484   1.953  39.992   8.255
 8304POPC   C3A36485   2.034  40.012   7.955
 8304POPC   C4A36486   1.951  40.054   7.655
 8304POPC   C1B36487   2.198  39.866   8.555
 8304POPC   C2B36488   2.134  39.870   8.255
 8304POPC   C3B36489   2.165  39.872   7.955
 8304POPC   C4B36490   2.232  39.814   7.655
 8305POPC   NC336491   0.468  24.525   9.455
 8305POPC   PO436492   0.446  24.451   9.155
 8305POPC   GL136493   0.485  24.485   8.855
 8305POPC   GL236494   0.310  24.482   8.855
 8305POPC   C1A36495   0.475  24.446   8.555
 8305POPC   D2A36496   0.397  24.462   8.255
 8305POPC   C3A36497   0.388  24.513   7.955
 8305POPC   C4A36498   0.426  24.440   7.655
 8305POPC   C1B36499   0.202  24.473   8.555
 8305POPC   C2B36500   0.149  24.474   8.255
 8305POPC   C3B36501   0.164  24.531   7.955
 8305POPC   C4B36502   0.200  24.491   7.655
 8306POPC   NC336503   6.659  39.271   9.455
 8306POPC   PO436504   6.630  39.241   9.155
 8306POPC   GL136505   6.683  39.245   8.855
 8306POPC   GL236506   6.564  39.125   8.855
 8306POPC   C1A36507   6.600  39.227   8.555
 8306POPC   D2A36508   6.679  39.275   8.255
 8306POPC   C3A36509   6.660  39.213   7.955
 8306POPC   C4A36510   6.603  39.205   7.655
 8306POPC   C1B36511   6.510  39.049   8.555
 8306POPC   C2B36512   6.565  39.060   8.255
 8306POPC   C3B36513   6.522  39.047   7.955
 8306POPC   C4B36514   6.531  38.976   7.655
 8307POPC   NC336515  22.910  36.926   9.455
 8307POPC   PO436516  22.961  36.920   9.155
 8307POPC   GL136517  22.928  36.927   8.855
 8307POPC   GL236518  22.854  36.828   8.855
 8307POPC   C1A36519  22.947  36.950   8.555
 8307POPC   D2A36520  22.925  36.864   8.255
 8307POPC   C3A36521  22.980  36.891   7.955
 8307POPC   C4A36522  22.925  36.875   7.655
 8307POPC   C1B36523  22.738  36.697   8.555
 8307POPC   C2B36524  22.788  36.716   8.255
 8307POPC   C3B36525  22.730  36.692   7.955
 8307POPC   C4B36526  22.747  36.707   7.655
 8308POPC   NC336527  15.136  39.982   9.455
 8308POPC   PO436528  15.211  40.020   9.155
 8308POPC   GL136529  15.182  39.976   8.855
 8308POPC   GL236530  15.147  39.864   8.855
 8308POPC   C1A36531  15.221  39.977   8.555
 8308POPC   D2A36532  15.162  40.013   8.255
 8308POPC   C3A36533  15.131  39.968   7.955
 8308POPC   C4A36534  15.154  39.974   7.655
 8308POPC   C1B36535  15.129  39.775   8.555
 8308POPC   C2B36536  15.201  39.754   8.255
 8308POPC   C3B36537  15.209  39.735   7.955
 8308POPC   C4B36538  15.208  39.745   7.655
 8309POPC   NC336539   0.465  12.102   9.455
 8309POPC   PO436540   0.447  12.036   9.155
 8309POPC   GL136541   0.401  12.026   8.855
 8309POPC   GL236542   0.344  12.013   8.855
 8309POPC   C1A36543   0.445  12.072   8.555
 8309POPC   D2A36544   0.478  12.092   8.255
 8309POPC   C3A36545   0.475  12.087   7.955
 8309POPC   C4A36546   0.473  12.059   7.655
 8309POPC   C1B36547   0.223  11.990   8.555
 8309POPC   C2B36548   0.253  11.992   8.255
 8309POPC   C3B36549   0.250  11.988   7.955
 8309POPC   C4B36550   0.194  12.006   7.655
 8310POPC   NC336551  13.632  34.560   9.455
 8310POPC   PO436552  13.667  34.614   9.155
 8310POPC   GL136553  13.665  34.577   8.855
 8310POPC   GL236554  13.575  34.656   8.855
 8310POPC   C1A36555  13.643  34.569   8.555
 8310POPC   D2A36556  13.600  34.578   8.255
 8310POPC   C3A36557  13.584  34.547   7.955
 8310POPC   C4A36558  13.665  34.546   7.655
 8310POPC   C1B36559  13.419  34.746   8.555
 8310POPC   C2B36560  13.427  34.779   8.255
 8310POPC   C3B36561  13.463  34.798   7.955
 8310POPC   C4B36562  13.433  34.801   7.655
 8311POPC   NC336563  34.566   8.201   9.455
 8311POPC   PO436564  34.617   8.162   9.155
 8311POPC   GL136565  34.556   8.169   8.855
 8311POPC   GL236566  34.686   8.106   8.855
 8311POPC   C1A36567  34.584   8.189   8.555
 8311POPC   D2A36568  34.597   8.203   8.255
 8311POPC   C3A36569  34.606   8.183   7.955
 8311POPC   C4A36570  34.558   8.179   7.655
 8311POPC   C1B36571  34.785   8.076   8.555
 8311POPC   C2B36572  34.802   7.995   8.255
 8311POPC   C3B36573  34.771   7.998   7.955
 8311POPC   C4B36574  34.753   8.047   7.655
 8312POPC   NC336575  10.567  37.669   9.455
 8312POPC   PO436576  10.559  37.713   9.155
 8312POPC   GL136577  10.546  37.706   8.855
 8312POPC   GL236578  10.352  37.709   8.855
 8312POPC   C1A36579  10.489  37.667   8.555
 8312POPC   D2A36580  10.509  37.674   8.255
 8312POPC   C3A36581  10.550  37.706   7.955
 8312POPC   C4A36582  10.509  37.655   7.655
 8312POPC   C1B36583  10.276  37.706   8.555
 8312POPC   C2B36584  10.266  37.737   8.255
 8312POPC   C3B36585  10.252  37.760   7.955
 8312POPC   C4B36586  10.231  37.724   7.655
 8313POPC   NC336587  22.194  29.101   9.455
 8313POPC   PO436588  22.206  29.109   9.155
 8313POPC   GL136589  22.140  29.173   8.855
 8313POPC   GL236590  22.087  29.234   8.855
 8313POPC   C1A36591  22.181  29.151   8.555
 8313POPC   D2A36592  22.118  29.179   8.255
 8313POPC   C3A36593  22.129  29.175   7.955
 8313POPC   C4A36594  22.207  29.151   7.655
 8313POPC   C1B36595  21.934  29.203   8.555
 8313POPC   C2B36596  21.882  29.219   8.255
 8313POPC   C3B36597  21.968  29.207   7.955
 8313POPC   C4B36598  21.915  29.194   7.655
 8314POPC   NC336599  36.938  11.283   9.455
 8314POPC   PO436600  36.868  11.270   9.155
 8314POPC   GL136601  36.947  11.285   8.855
 8314POPC   GL236602  37.056  11.238   8.855
 8314POPC   C1A36603  36.952  11.292   8.555
 8314POPC   D2A36604  36.948  11.329   8.255
 8314POPC   C3A36605  36.863  11.276   7.955
 8314POPC   C4A36606  36.867  11.346   7.655
 8314POPC   C1B36607  37.152  11.202   8.555
 8314POPC   C2B36608  37.133  11.214   8.255
 8314POPC   C3B36609  37.153  11.272   7.955
 8314POPC   C4B36610  37.098  11.259   7.655
 8315POPC   NC336611  17.459   6.609   9.455
 8315POPC   PO436612  17.524   6.649   9.155
 8315POPC   GL136613  17.538   6.660   8.855
 8315POPC   GL236614  17.587   6.557   8.855
 8315POPC   C1A36615  17.493   6.680   8.555
 8315POPC   D2A36616  17.547   6.682   8.255
 8315POPC   C3A36617  17.542   6.617   7.955
 8315POPC   C4A36618  17.460   6.647   7.655
 8315POPC   C1B36619  17.660   6.503   8.555
 8315POPC   C2B36620  17.681   6.505   8.255
 8315POPC   C3B36621  17.704   6.491   7.955
 8315POPC   C4B36622  17.667   6.482   7.655
 8316POPC   NC336623   9.777  40.003   9.455
 8316POPC   PO436624   9.729  40.044   9.155
 8316POPC   GL136625   9.739  40.023   8.855
 8316POPC   GL236626   9.631  39.972   8.855
 8316POPC   C1A36627   9.708  39.971   8.555
 8316POPC   D2A36628   9.723  39.959   8.255
 8316POPC   C3A36629   9.742  40.035   7.955
 8316POPC   C4A36630   9.745  39.967   7.655
 8316POPC   C1B36631   9.540  40.016   8.555
 8316POPC   C2B36632   9.542  39.974   8.255
 8316POPC   C3B36633   9.515  39.942   7.955
 8316POPC   C4B36634   9.489  39.942   7.655
 8317POPC   NC336635   4.324  15.944   9.455
 8317POPC   PO436636   4.296  15.939   9.155
 8317POPC   GL136637   4.292  15.996   8.855
 8317POPC   GL236638   4.259  15.842   8.855
 8317POPC   C1A36639   4.327  16.002   8.555
 8317POPC   D2A36640   4.311  15.935   8.255
 8317POPC   C3A36641   4.282  15.914   7.955
 8317POPC   C4A36642   4.316  15.998   7.655
 8317POPC   C1B36643   4.176  15.757   8.555
 8317POPC   C2B36644   4.217  15.782   8.255
 8317POPC   C3B36645   4.227  15.754   7.955
 8317POPC   C4B36646   4.214  15.750   7.655
 8318POPC   NC336647   2.788  17.516   9.455
 8318POPC   PO436648   2.740  17.548   9.155
 8318POPC   GL136649   2.806  17.495   8.855
 8318POPC   GL236650   2.871  17.465   8.855
 8318POPC   C1A36651   2.812  17.475   8.555
 8318POPC   D2A36652   2.808  17.535   8.255
 8318POPC   C3A36653   2.740  17.506   7.955
 8318POPC   C4A36654   2.720  17.463   7.655
 8318POPC   C1B36655   2.941  17.324   8.555
 8318POPC   C2B36656   2.965  17.320   8.255
 8318POPC   C3B36657   2.932  17.299   7.955
 8318POPC   C4B36658   2.973  17.377   7.655
 8319POPC   NC336659   4.347   2.765   9.455
 8319POPC   PO436660   4.294   2.746   9.155
 8319POPC   GL136661   4.352   2.729   8.855
 8319POPC   GL236662   4.391   2.777   8.855
 8319POPC   C1A36663   4.277   2.806   8.555
 8319POPC   D2A36664   4.283   2.743   8.255
 8319POPC   C3A36665   4.291   2.814   7.955
 8319POPC   C4A36666   4.332   2.718   7.655
 8319POPC   C1B36667   4.595   2.687   8.555
 8319POPC   C2B36668   4.586   2.734   8.255
 8319POPC   C3B36669   4.553   2.738   7.955
 8319POPC   C4B36670   4.569   2.697   7.655
 8320POPC   NC336671   2.000   9.012   9.455
 8320POPC   PO436672   1.954   8.987   9.155
 8320POPC   GL136673   1.961   9.007   8.855
 8320POPC   GL236674   1.896   8.906   8.855
 8320POPC   C1A36675   2.026   8.926   8.555
 8320POPC   D2A36676   1.949   9.019   8.255
 8320POPC   C3A36677   1.958   8.946   7.955
 8320POPC   C4A36678   2.027   8.930   7.655
 8320POPC   C1B36679   1.731   8.887   8.555
 8320POPC   C2B36680   1.786   8.874   8.255
 8320POPC   C3B36681   1.714   8.929   7.955
 8320POPC   C4B36682   1.794   8.955   7.655
 8321POPC   NC336683  40.824  40.780   9.455
 8321POPC   PO436684  40.795  40.761   9.155
 8321POPC   GL136685  40.792  40.795   8.855
 8321POPC   GL236686  40.906  40.679   8.855
 8321POPC   C1A36687  40.778  40.763   8.555
 8321POPC   D2A36688  40.807  40.808   8.255
 8321POPC   C3A36689  40.768  40.748   7.955
 8321POPC   C4A36690  40.789  40.742   7.655
 8321POPC   C1B36691  40.921  40.588   8.555
 8321POPC   C2B36692  41.012  40.567   8.255
 8321POPC   C3B36693  41.000  40.649   7.955
 8321POPC   C4B36694  40.993  40.634   7.655
 8322POPC   NC336695   1.249   9.000   9.455
 8322POPC   PO436696   1.231   8.986   9.155
 8322POPC   GL136697   1.238   9.006   8.855
 8322POPC   GL236698   1.316   8.888   8.855
 8322POPC   C1A36699   1.168   8.923   8.555
 8322POPC   D2A36700   1.167   9.016   8.255
 8322POPC   C3A36701   1.260   8.961   7.955
 8322POPC   C4A36702   1.221   8.995   7.655
 8322POPC   C1B36703   1.287   8.754   8.555
 8322POPC   C2B36704   1.365   8.784   8.255
 8322POPC   C3B36705   1.366   8.713   7.955
 8322POPC   C4B36706   1.301   8.731   7.655
 8323POPC   NC336707   7.390   2.794   9.455
 8323POPC   PO436708   7.407   2.803   9.155
 8323POPC   GL136709   7.442   2.743   8.855
 8323POPC   GL236710   7.405   2.895   8.855
 8323POPC   C1A36711   7.446   2.809   8.555
 8323POPC   D2A36712   7.424   2.780   8.255
 8323POPC   C3A36713   7.433   2.807   7.955
 8323POPC   C4A36714   7.398   2.814   7.655
 8323POPC   C1B36715   7.356   3.041   8.555
 8323POPC   C2B36716   7.403   3.041   8.255
 8323POPC   C3B36717   7.367   3.055   7.955
 8323POPC   C4B36718   7.390   3.004   7.655
 8324POPC   NC336719  43.125  15.160   9.455
 8324POPC   PO436720  43.151  15.153   9.155
 8324POPC   GL136721  43.155  15.145   8.855
 8324POPC   GL236722  43.266  15.173   8.855
 8324POPC   C1A36723  43.079  15.164   8.555
 8324POPC   D2A36724  43.074  15.161   8.255
 8324POPC   C3A36725  43.134  15.140   7.955
 8324POPC   C4A36726  43.117  15.179   7.655
 8324POPC   C1B36727  43.394  15.216   8.555
 8324POPC   C2B36728  43.339  15.238   8.255
 8324POPC   C3B36729  43.312  15.254   7.955
 8324POPC   C4B36730  43.364  15.198   7.655
 8325POPC   NC336731  31.471   5.885   9.455
 8325POPC   PO436732  31.435   5.861   9.155
 8325POPC   GL136733  31.462   5.878   8.855
 8325POPC   GL236734  31.536   6.012   8.855
 8325POPC   C1A36735  31.440   5.897   8.555
 8325POPC   D2A36736  31.433   5.915   8.255
 8325POPC   C3A36737  31.460   5.896   7.955
 8325POPC   C4A36738  31.507   5.852   7.655
 8325POPC   C1B36739  31.646   6.086   8.555
 8325POPC   C2B36740  31.644   6.038   8.255
 8325POPC   C3B36741  31.607   6.095   7.955
 8325POPC   C4B36742  31.588   6.028   7.655
 8326POPC   NC336743   2.815  15.983   9.455
 8326POPC   PO436744   2.806  15.934   9.155
 8326POPC   GL136745   2.749  15.972   8.855
 8326POPC   GL236746   2.724  15.871   8.855
 8326POPC   C1A36747   2.775  16.003   8.555
 8326POPC   D2A36748   2.771  15.983   8.255
 8326POPC   C3A36749   2.764  15.955   7.955
 8326POPC   C4A36750   2.802  15.936   7.655
 8326POPC   C1B36751   2.563  15.809   8.555
 8326POPC   C2B36752   2.564  15.717   8.255
 8326POPC   C3B36753   2.563  15.744   7.955
 8326POPC   C4B36754   2.583  15.791   7.655
 8327POPC   NC336755  40.019  25.304   9.455
 8327POPC   PO436756  40.002  25.256   9.155
 8327POPC   GL136757  39.958  25.219   8.855
 8327POPC   GL236758  39.984  25.377   8.855
 8327POPC   C1A36759  39.994  25.311   8.555
 8327POPC   D2A36760  39.977  25.249   8.255
 8327POPC   C3A36761  40.009  25.274   7.955
 8327POPC   C4A36762  40.033  25.266   7.655
 8327POPC   C1B36763  40.050  25.504   8.555
 8327POPC   C2B36764  40.034  25.485   8.255
 8327POPC   C3B36765  39.996  25.553   7.955
 8327POPC   C4B36766  40.071  25.542   7.655
 8328POPC   NC336767   4.268   3.563   9.455
 8328POPC   PO436768   4.362   3.545   9.155
 8328POPC   GL136769   4.278   3.517   8.855
 8328POPC   GL236770   4.200   3.513   8.855
 8328POPC   C1A36771   4.336   3.557   8.555
 8328POPC   D2A36772   4.345   3.527   8.255
 8328POPC   C3A36773   4.334   3.522   7.955
 8328POPC   C4A36774   4.274   3.521   7.655
 8328POPC   C1B36775   4.041   3.533   8.555
 8328POPC   C2B36776   4.096   3.488   8.255
 8328POPC   C3B36777   4.054   3.502   7.955
 8328POPC   C4B36778   4.056   3.470   7.655
 8329POPC   NC336779   2.813  20.572   9.455
 8329POPC   PO436780   2.760  20.590   9.155
 8329POPC   GL136781   2.763  20.592   8.855
 8329POPC   GL236782   2.604  20.619   8.855
 8329POPC   C1A36783   2.771  20.565   8.555
 8329POPC   D2A36784   2.739  20.570   8.255
 8329POPC   C3A36785   2.740  20.630   7.955
 8329POPC   C4A36786   2.759  20.622   7.655
 8329POPC   C1B36787   2.496  20.655   8.555
 8329POPC   C2B36788   2.496  20.623   8.255
 8329POPC   C3B36789   2.486  20.586   7.955
 8329POPC   C4B36790   2.506  20.615   7.655
 8330POPC   NC336791   6.689  24.441   9.455
 8330POPC   PO436792   6.660  24.519   9.155
 8330POPC   GL136793   6.619  24.517   8.855
 8330POPC   GL236794   6.548  24.468   8.855
 8330POPC   C1A36795   6.688  24.458   8.555
 8330POPC   D2A36796   6.612  24.475   8.255
 8330POPC   C3A36797   6.658  24.491   7.955
 8330POPC   C4A36798   6.671  24.498   7.655
 8330POPC   C1B36799   6.351  24.456   8.555
 8330POPC   C2B36800   6.434  24.466   8.255
 8330POPC   C3B36801   6.420  24.469   7.955
 8330POPC   C4B36802   6.391  24.477   7.655
 8331POPC   NC336803   0.454   9.780   9.455
 8331POPC   PO436804   0.488   9.761   9.155
 8331POPC   GL136805   0.452   9.757   8.855
 8331POPC   GL236806   0.551   9.784   8.855
 8331POPC   C1A36807   0.474   9.768   8.555
 8331POPC   D2A36808   0.482   9.782   8.255
 8331POPC   C3A36809   0.445   9.700   7.955
 8331POPC   C4A36810   0.425   9.731   7.655
 8331POPC   C1B36811   0.626   9.852   8.555
 8331POPC   C2B36812   0.611   9.872   8.255
 8331POPC   C3B36813   0.633   9.929   7.955
 8331POPC   C4B36814   0.663   9.909   7.655
 8332POPC   NC336815  23.675   9.749   9.455
 8332POPC   PO436816  23.667   9.767   9.155
 8332POPC   GL136817  23.724   9.714   8.855
 8332POPC   GL236818  23.808   9.663   8.855
 8332POPC   C1A36819  23.669   9.761   8.555
 8332POPC   D2A36820  23.734   9.741   8.255
 8332POPC   C3A36821  23.683   9.782   7.955
 8332POPC   C4A36822  23.724   9.732   7.655
 8332POPC   C1B36823  23.829   9.537   8.555
 8332POPC   C2B36824  23.823   9.508   8.255
 8332POPC   C3B36825  23.853   9.499   7.955
 8332POPC   C4B36826  23.840   9.517   7.655
 8333POPC   NC336827  14.410  34.530   9.455
 8333POPC   PO436828  14.367  34.605   9.155
 8333POPC   GL136829  14.449  34.597   8.855
 8333POPC   GL236830  14.258  34.546   8.855
 8333POPC   C1A36831  14.407  34.606   8.555
 8333POPC   D2A36832  14.429  34.545   8.255
 8333POPC   C3A36833  14.437  34.600   7.955
 8333POPC   C4A36834  14.451  34.548   7.655
 8333POPC   C1B36835  14.162  34.523   8.555
 8333POPC   C2B36836  14.112  34.535   8.255
 8333POPC   C3B36837  14.118  34.532   7.955
 8333POPC   C4B36838  14.148  34.551   7.655
 8334POPC   NC336839   5.044  20.608   9.455
 8334POPC   PO436840   5.138  20.652   9.155
 8334POPC   GL136841   5.119  20.634   8.855
 8334POPC   GL236842   4.949  20.549   8.855
 8334POPC   C1A36843   5.088  20.596   8.555
 8334POPC   D2A36844   5.132  20.642   8.255
 8334POPC   C3A36845   5.116  20.628   7.955
 8334POPC   C4A36846   5.112  20.625   7.655
 8334POPC   C1B36847   4.895  20.501   8.555
 8334POPC   C2B36848   4.839  20.501   8.255
 8334POPC   C3B36849   4.868  20.569   7.955
 8334POPC   C4B36850   4.835  20.508   7.655
 8335POPC   NC336851  28.356  18.288   9.455
 8335POPC   PO436852  28.344  18.273   9.155
 8335POPC   GL136853  28.338  18.268   8.855
 8335POPC   GL236854  28.369  18.203   8.855
 8335POPC   C1A36855  28.329  18.277   8.555
 8335POPC   D2A36856  28.338  18.284   8.255
 8335POPC   C3A36857  28.403  18.307   7.955
 8335POPC   C4A36858  28.359  18.242   7.655
 8335POPC   C1B36859  28.324  18.039   8.555
 8335POPC   C2B36860  28.360  17.996   8.255
 8335POPC   C3B36861  28.334  17.984   7.955
 8335POPC   C4B36862  28.307  17.990   7.655
 8336POPC   NC336863   8.975  40.032   9.455
 8336POPC   PO436864   8.976  39.990   9.155
 8336POPC   GL136865   8.994  39.958   8.855
 8336POPC   GL236866   8.872  39.879   8.855
 8336POPC   C1A36867   9.018  40.014   8.555
 8336POPC   D2A36868   9.011  40.038   8.255
 8336POPC   C3A36869   8.942  39.959   7.955
 8336POPC   C4A36870   8.991  40.040   7.655
 8336POPC   C1B36871   8.795  39.802   8.555
 8336POPC   C2B36872   8.836  39.792   8.255
 8336POPC   C3B36873   8.882  39.821   7.955
 8336POPC   C4B36874   8.868  39.766   7.655
 8337POPC   NC336875  31.492   7.391   9.455
 8337POPC   PO436876  31.503   7.452   9.155
 8337POPC   GL136877  31.493   7.385   8.855
 8337POPC   GL236878  31.350   7.417   8.855
 8337POPC   C1A36879  31.501   7.469   8.555
 8337POPC   D2A36880  31.479   7.402   8.255
 8337POPC   C3A36881  31.515   7.386   7.955
 8337POPC   C4A36882  31.434   7.397   7.655
 8337POPC   C1B36883  31.267   7.410   8.555
 8337POPC   C2B36884  31.186   7.427   8.255
 8337POPC   C3B36885  31.235   7.389   7.955
 8337POPC   C4B36886  31.179   7.421   7.655
 8338POPC   NC336887   5.910  29.146   9.455
 8338POPC   PO436888   5.847  29.105   9.155
 8338POPC   GL136889   5.893  29.183   8.855
 8338POPC   GL236890   5.861  29.242   8.855
 8338POPC   C1A36891   5.893  29.143   8.555
 8338POPC   D2A36892   5.874  29.161   8.255
 8338POPC   C3A36893   5.896  29.110   7.955
 8338POPC   C4A36894   5.851  29.182   7.655
 8338POPC   C1B36895   5.939  29.346   8.555
 8338POPC   C2B36896   5.949  29.393   8.255
 8338POPC   C3B36897   5.992  29.373   7.955
 8338POPC   C4B36898   5.954  29.375   7.655
 8339POPC   NC336899  24.480   6.600   9.455
 8339POPC   PO436900  24.448   6.675   9.155
 8339POPC   GL136901  24.445   6.682   8.855
 8339POPC   GL236902  24.416   6.754   8.855
 8339POPC   C1A36903  24.470   6.628   8.555
 8339POPC   D2A36904  24.522   6.671   8.255
 8339POPC   C3A36905  24.479   6.631   7.955
 8339POPC   C4A36906  24.454   6.667   7.655
 8339POPC   C1B36907  24.469   6.925   8.555
 8339POPC   C2B36908  24.414   6.897   8.255
 8339POPC   C3B36909  24.422   6.933   7.955
 8339POPC   C4B36910  24.443   6.884   7.655
 8340POPC   NC336911  25.247   7.412   9.455
 8340POPC   PO436912  25.285   7.456   9.155
 8340POPC   GL136913  25.248   7.469   8.855
 8340POPC   GL236914  25.406   7.441   8.855
 8340POPC   C1A36915  25.223   7.413   8.555
 8340POPC   D2A36916  25.221   7.416   8.255
 8340POPC   C3A36917  25.313   7.443   7.955
 8340POPC   C4A36918  25.312   7.445   7.655
 8340POPC   C1B36919  25.504   7.454   8.555
 8340POPC   C2B36920  25.539   7.475   8.255
 8340POPC   C3B36921  25.495   7.460   7.955
 8340POPC   C4B36922  25.548   7.395   7.655
 8341POPC   NC336923  43.917  31.468   9.455
 8341POPC   PO436924  43.899  31.498   9.155
 8341POPC   GL136925  43.867  31.511   8.855
 8341POPC   GL236926  43.852  31.605   8.855
 8341POPC   C1A36927  43.846  31.509   8.555
 8341POPC   D2A36928  43.872  31.440   8.255
 8341POPC   C3A36929  43.899  31.518   7.955
 8341POPC   C4A36930  43.864  31.426   7.655
 8341POPC   C1B36931  43.765  31.665   8.555
 8341POPC   C2B36932  43.728  31.721   8.255
 8341POPC   C3B36933  43.761  31.652   7.955
 8341POPC   C4B36934  43.754  31.670   7.655
 8342POPC   NC336935  22.888   1.250   9.455
 8342POPC   PO436936  22.948   1.180   9.155
 8342POPC   GL136937  22.935   1.259   8.855
 8342POPC   GL236938  23.012   1.204   8.855
 8342POPC   C1A36939  22.985   1.218   8.555
 8342POPC   D2A36940  22.972   1.201   8.255
 8342POPC   C3A36941  22.920   1.184   7.955
 8342POPC   C4A36942  22.938   1.237   7.655
 8342POPC   C1B36943  23.211   1.288   8.555
 8342POPC   C2B36944  23.138   1.247   8.255
 8342POPC   C3B36945  23.157   1.242   7.955
 8342POPC   C4B36946  23.221   1.236   7.655
 8343POPC   NC336947  22.981   7.417   9.455
 8343POPC   PO436948  22.973   7.392   9.155
 8343POPC   GL136949  22.964   7.451   8.855
 8343POPC   GL236950  23.054   7.484   8.855
 8343POPC   C1A36951  22.969   7.463   8.555
 8343POPC   D2A36952  22.892   7.397   8.255
 8343POPC   C3A36953  22.926   7.384   7.955
 8343POPC   C4A36954  22.982   7.419   7.655
 8343POPC   C1B36955  23.054   7.670   8.555
 8343POPC   C2B36956  23.033   7.580   8.255
 8343POPC   C3B36957  23.118   7.596   7.955
 8343POPC   C4B36958  23.084   7.590   7.655
 8344POPC   NC336959  36.951  31.431   9.455
 8344POPC   PO436960  36.895  31.462   9.155
 8344POPC   GL136961  36.880  31.492   8.855
 8344POPC   GL236962  36.997  31.561   8.855
 8344POPC   C1A36963  36.880  31.440   8.555
 8344POPC   D2A36964  36.915  31.483   8.255
 8344POPC   C3A36965  36.897  31.442   7.955
 8344POPC   C4A36966  36.909  31.447   7.655
 8344POPC   C1B36967  37.150  31.520   8.555
 8344POPC   C2B36968  37.125  31.574   8.255
 8344POPC   C3B36969  37.151  31.545   7.955
 8344POPC   C4B36970  37.111  31.533   7.655
 8345POPC   NC336971  12.097  38.448   9.455
 8345POPC   PO436972  12.103  38.461   9.155
 8345POPC   GL136973  12.091  38.499   8.855
 8345POPC   GL236974  12.001  38.310   8.855
 8345POPC   C1A36975  12.117  38.460   8.555
 8345POPC   D2A36976  12.117  38.486   8.255
 8345POPC   C3A36977  12.072  38.497   7.955
 8345POPC   C4A36978  12.118  38.442   7.655
 8345POPC   C1B36979  12.030  38.192   8.555
 8345POPC   C2B36980  11.979  38.259   8.255
 8345POPC   C3B36981  11.995  38.220   7.955
 8345POPC   C4B36982  12.021  38.265   7.655
 8346POPC   NC336983  41.583   5.110   9.455
 8346POPC   PO436984  41.607   5.141   9.155
 8346POPC   GL136985  41.524   5.073   8.855
 8346POPC   GL236986  41.665   5.040   8.855
 8346POPC   C1A36987  41.540   5.046   8.555
 8346POPC   D2A36988  41.538   5.107   8.255
 8346POPC   C3A36989  41.581   5.129   7.955
 8346POPC   C4A36990  41.598   5.099   7.655
 8346POPC   C1B36991  41.836   5.094   8.555
 8346POPC   C2B36992  41.760   5.083   8.255
 8346POPC   C3B36993  41.832   5.031   7.955
 8346POPC   C4B36994  41.801   5.051   7.655
 8347POPC   NC336995  36.132  12.103   9.455
 8347POPC   PO436996  36.159  12.063   9.155
 8347POPC   GL136997  36.137  12.073   8.855
 8347POPC   GL236998  36.168  11.913   8.855
 8347POPC   C1A36999  36.172  12.123   8.555
 8347POPC   D2A37000  36.093  12.040   8.255
 8347POPC   C3A37001  36.121  12.049   7.955
 8347POPC   C4A37002  36.138  12.078   7.655
 8347POPC   C1B37003  36.144  11.869   8.555
 8347POPC   C2B37004  36.185  11.860   8.255
 8347POPC   C3B37005  36.160  11.804   7.955
 8347POPC   C4B37006  36.115  11.810   7.655
 8348POPC   NC337007  26.087  33.782   9.455
 8348POPC   PO437008  26.006  33.762   9.155
 8348POPC   GL137009  26.023  33.793   8.855
 8348POPC   GL237010  26.172  33.744   8.855
 8348POPC   C1A37011  26.032  33.808   8.555
 8348POPC   D2A37012  26.054  33.848   8.255
 8348POPC   C3A37013  26.061  33.750   7.955
 8348POPC   C4A37014  26.053  33.754   7.655
 8348POPC   C1B37015  26.241  33.641   8.555
 8348POPC   C2B37016  26.163  33.607   8.255
 8348POPC   C3B37017  26.249  33.608   7.955
 8348POPC   C4B37018  26.228  33.578   7.655
 8349POPC   NC337019  23.707  15.973   9.455
 8349POPC   PO437020  23.665  16.000   9.155
 8349POPC   GL137021  23.709  15.925   8.855
 8349POPC   GL237022  23.680  15.838   8.855
 8349POPC   C1A37023  23.709  16.004   8.555
 8349POPC   D2A37024  23.667  16.002   8.255
 8349POPC   C3A37025  23.732  15.931   7.955
 8349POPC   C4A37026  23.666  15.905   7.655
 8349POPC   C1B37027  23.682  15.689   8.555
 8349POPC   C2B37028  23.681  15.725   8.255
 8349POPC   C3B37029  23.706  15.658   7.955
 8349POPC   C4B37030  23.646  15.659   7.655
 8350POPC   NC337031  28.340  26.866   9.455
 8350POPC   PO437032  28.389  26.817   9.155
 8350POPC   GL137033  28.385  26.831   8.855
 8350POPC   GL237034  28.454  26.675   8.855
 8350POPC   C1A37035  28.372  26.817   8.555
 8350POPC   D2A37036  28.324  26.822   8.255
 8350POPC   C3A37037  28.352  26.775   7.955
 8350POPC   C4A37038  28.333  26.837   7.655
 8350POPC   C1B37039  28.517  26.581   8.555
 8350POPC   C2B37040  28.491  26.598   8.255
 8350POPC   C3B37041  28.492  26.618   7.955
 8350POPC   C4B37042  28.546  26.617   7.655
 8351POPC   NC337043  19.073  12.866   9.455
 8351POPC   PO437044  19.066  12.863   9.155
 8351POPC   GL137045  19.089  12.816   8.855
 8351POPC   GL237046  18.980  12.722   8.855
 8351POPC   C1A37047  19.082  12.849   8.555
 8351POPC   D2A37048  19.010  12.859   8.255
 8351POPC   C3A37049  19.039  12.897   7.955
 8351POPC   C4A37050  19.034  12.884   7.655
 8351POPC   C1B37051  18.995  12.677   8.555
 8351POPC   C2B37052  18.939  12.587   8.255
 8351POPC   C3B37053  18.966  12.591   7.955
 8351POPC   C4B37054  18.987  12.602   7.655
 8352POPC   NC337055  16.741  24.491   9.455
 8352POPC   PO437056  16.693  24.495   9.155
 8352POPC   GL137057  16.781  24.497   8.855
 8352POPC   GL237058  16.828  24.452   8.855
 8352POPC   C1A37059  16.724  24.483   8.555
 8352POPC   D2A37060  16.714  24.469   8.255
 8352POPC   C3A37061  16.747  24.456   7.955
 8352POPC   C4A37062  16.718  24.471   7.655
 8352POPC   C1B37063  16.946  24.384   8.555
 8352POPC   C2B37064  16.919  24.405   8.255
 8352POPC   C3B37065  16.986  24.366   7.955
 8352POPC   C4B37066  16.959  24.396   7.655
 8353POPC   NC337067  16.001   8.237   9.455
 8353POPC   PO437068  15.993   8.201   9.155
 8353POPC   GL137069  15.969   8.183   8.855
 8353POPC   GL237070  15.983   8.332   8.855
 8353POPC   C1A37071  15.915   8.179   8.555
 8353POPC   D2A37072  15.946   8.241   8.255
 8353POPC   C3A37073  15.957   8.227   7.955
 8353POPC   C4A37074  15.955   8.201   7.655
 8353POPC   C1B37075  15.939   8.420   8.555
 8353POPC   C2B37076  15.957   8.401   8.255
 8353POPC   C3B37077  15.890   8.486   7.955
 8353POPC   C4B37078  15.916   8.446   7.655
 8354POPC   NC337079  26.787  36.869   9.455
 8354POPC   PO437080  26.848  36.904   9.155
 8354POPC   GL137081  26.861  36.946   8.855
 8354POPC   GL237082  26.927  36.961   8.855
 8354POPC   C1A37083  26.773  36.941   8.555
 8354POPC   D2A37084  26.823  36.860   8.255
 8354POPC   C3A37085  26.768  36.900   7.955
 8354POPC   C4A37086  26.817  36.860   7.655
 8354POPC   C1B37087  27.021  37.065   8.555
 8354POPC   C2B37088  27.023  37.095   8.255
 8354POPC   C3B37089  27.019  37.022   7.955
 8354POPC   C4B37090  26.969  37.066   7.655
 8355POPC   NC337091  15.987  37.645   9.455
 8355POPC   PO437092  15.997  37.726   9.155
 8355POPC   GL137093  15.930  37.672   8.855
 8355POPC   GL237094  15.879  37.566   8.855
 8355POPC   C1A37095  15.914  37.679   8.555
 8355POPC   D2A37096  15.915  37.675   8.255
 8355POPC   C3A37097  15.979  37.631   7.955
 8355POPC   C4A37098  15.953  37.681   7.655
 8355POPC   C1B37099  15.735  37.510   8.555
 8355POPC   C2B37100  15.737  37.549   8.255
 8355POPC   C3B37101  15.751  37.533   7.955
 8355POPC   C4B37102  15.742  37.504   7.655
 8356POPC   NC337103  27.580  15.172   9.455
 8356POPC   PO437104  27.593  15.180   9.155
 8356POPC   GL137105  27.599  15.197   8.855
 8356POPC   GL237106  27.668  15.124   8.855
 8356POPC   C1A37107  27.587  15.138   8.555
 8356POPC   D2A37108  27.639  15.185   8.255
 8356POPC   C3A37109  27.553  15.226   7.955
 8356POPC   C4A37110  27.578  15.180   7.655
 8356POPC   C1B37111  27.687  14.938   8.555
 8356POPC   C2B37112  27.774  15.003   8.255
 8356POPC   C3B37113  27.750  14.960   7.955
 8356POPC   C4B37114  27.740  14.982   7.655
 8357POPC   NC337115  42.334   0.463   9.455
 8357POPC   PO437116  42.303   0.410   9.155
 8357POPC   GL137117  42.369   0.399   8.855
 8357POPC   GL237118  42.433   0.486   8.855
 8357POPC   C1A37119  42.298   0.410   8.555
 8357POPC   D2A37120  42.293   0.469   8.255
 8357POPC   C3A37121  42.344   0.411   7.955
 8357POPC   C4A37122  42.320   0.399   7.655
 8357POPC   C1B37123  42.591   0.465   8.555
 8357POPC   C2B37124  42.599   0.397   8.255
 8357POPC   C3B37125  42.544   0.453   7.955
 8357POPC   C4B37126  42.557   0.485   7.655
 8358POPC   NC337127  36.111  29.910   9.455
 8358POPC   PO437128  36.096  29.881   9.155
 8358POPC   GL137129  36.146  29.937   8.855
 8358POPC   GL237130  36.093  29.824   8.855
 8358POPC   C1A37131  36.101  29.970   8.555
 8358POPC   D2A37132  36.155  29.887   8.255
 8358POPC   C3A37133  36.097  29.903   7.955
 8358POPC   C4A37134  36.135  29.874   7.655
 8358POPC   C1B37135  36.016  29.674   8.555
 8358POPC   C2B37136  36.003  29.737   8.255
 8358POPC   C3B37137  36.035  29.673   7.955
 8358POPC   C4B37138  36.003  29.721   7.655
 8359POPC   NC337139  14.401  36.935   9.455
 8359POPC   PO437140  14.377  36.862   9.155
 8359POPC   GL137141  14.444  36.952   8.855
 8359POPC   GL237142  14.364  36.753   8.855
 8359POPC   C1A37143  14.410  36.918   8.555
 8359POPC   D2A37144  14.363  36.906   8.255
 8359POPC   C3A37145  14.423  36.934   7.955
 8359POPC   C4A37146  14.416  36.861   7.655
 8359POPC   C1B37147  14.401  36.673   8.555
 8359POPC   C2B37148  14.438  36.669   8.255
 8359POPC   C3B37149  14.405  36.619   7.955
 8359POPC   C4B37150  14.349  36.619   7.655
 8360POPC   NC337151  24.504  36.858   9.455
 8360POPC   PO437152  24.485  36.886   9.155
 8360POPC   GL137153  24.515  36.896   8.855
 8360POPC   GL237154  24.394  37.005   8.855
 8360POPC   C1A37155  24.442  36.904   8.555
 8360POPC   D2A37156  24.526  36.880   8.255
 8360POPC   C3A37157  24.524  36.903   7.955
 8360POPC   C4A37158  24.473  36.923   7.655
 8360POPC   C1B37159  24.331  37.073   8.555
 8360POPC   C2B37160  24.371  37.138   8.255
 8360POPC   C3B37161  24.370  37.078   7.955
 8360POPC   C4B37162  24.371  37.105   7.655
 8361POPC   NC337163  16.727  36.885   9.455
 8361POPC   PO437164  16.698  36.876   9.155
 8361POPC   GL137165  16.686  36.948   8.855
 8361POPC   GL237166  16.884  36.858   8.855
 8361POPC   C1A37167  16.734  36.857   8.555
 8361POPC   D2A37168  16.719  36.907   8.255
 8361POPC   C3A37169  16.755  36.874   7.955
 8361POPC   C4A37170  16.717  36.937   7.655
 8361POPC   C1B37171  16.946  36.938   8.555
 8361POPC   C2B37172  17.026  36.872   8.255
 8361POPC   C3B37173  17.014  36.930   7.955
 8361POPC   C4B37174  16.973  36.912   7.655
 8362POPC   NC337175  40.035  27.577   9.455
 8362POPC   PO437176  39.985  27.579   9.155
 8362POPC   GL137177  40.052  27.574   8.855
 8362POPC   GL237178  40.165  27.529   8.855
 8362POPC   C1A37179  40.033  27.638   8.555
 8362POPC   D2A37180  40.048  27.632   8.255
 8362POPC   C3A37181  40.026  27.614   7.955
 8362POPC   C4A37182  40.042  27.631   7.655
 8362POPC   C1B37183  40.290  27.506   8.555
 8362POPC   C2B37184  40.260  27.553   8.255
 8362POPC   C3B37185  40.215  27.520   7.955
 8362POPC   C4B37186  40.272  27.507   7.655
 8363POPC   NC337187  25.996  40.817   9.455
 8363POPC   PO437188  26.090  40.746   9.155
 8363POPC   GL137189  26.048  40.733   8.855
 8363POPC   GL237190  25.912  40.879   8.855
 8363POPC   C1A37191  26.001  40.772   8.555
 8363POPC   D2A37192  26.072  40.782   8.255
 8363POPC   C3A37193  25.994  40.747   7.955
 8363POPC   C4A37194  26.036  40.790   7.655
 8363POPC   C1B37195  25.880  41.000   8.555
 8363POPC   C2B37196  25.880  40.929   8.255
 8363POPC   C3B37197  25.928  40.957   7.955
 8363POPC   C4B37198  25.856  41.018   7.655
 8364POPC   NC337199  22.157  42.332   9.455
 8364POPC   PO437200  22.201  42.323   9.155
 8364POPC   GL137201  22.116  42.366   8.855
 8364POPC   GL237202  22.118  42.235   8.855
 8364POPC   C1A37203  22.208  42.345   8.555
 8364POPC   D2A37204  22.116  42.370   8.255
 8364POPC   C3A37205  22.114  42.361   7.955
 8364POPC   C4A37206  22.198  42.324   7.655
 8364POPC   C1B37207  22.105  42.124   8.555
 8364POPC   C2B37208  22.078  42.098   8.255
 8364POPC   C3B37209  22.134  42.055   7.955
 8364POPC   C4B37210  22.160  42.077   7.655
 8365POPC   NC337211  39.273  14.416   9.455
 8365POPC   PO437212  39.207  14.400   9.155
 8365POPC   GL137213  39.224  14.401   8.855
 8365POPC   GL237214  39.141  14.432   8.855
 8365POPC   C1A37215  39.222  14.425   8.555
 8365POPC   D2A37216  39.233  14.370   8.255
 8365POPC   C3A37217  39.276  14.406   7.955
 8365POPC   C4A37218  39.192  14.428   7.655
 8365POPC   C1B37219  38.986  14.428   8.555
 8365POPC   C2B37220  39.014  14.436   8.255
 8365POPC   C3B37221  38.955  14.393   7.955
 8365POPC   C4B37222  38.971  14.402   7.655
 8366POPC   NC337223  22.116   0.473   9.455
 8366POPC   PO437224  22.149   0.460   9.155
 8366POPC   GL137225  22.169   0.477   8.855
 8366POPC   GL237226  22.013   0.486   8.855
 8366POPC   C1A37227  22.197   0.422   8.555
 8366POPC   D2A37228  22.191   0.452   8.255
 8366POPC   C3A37229  22.184   0.474   7.955
 8366POPC   C4A37230  22.205   0.459   7.655
 8366POPC   C1B37231  21.945   0.528   8.555
 8366POPC   C2B37232  21.947   0.493   8.255
 8366POPC   C3B37233  21.871   0.502   7.955
 8366POPC   C4B37234  21.919   0.508   7.655
 8367POPC   NC337235  43.088  30.662   9.455
 8367POPC   PO437236  43.107  30.657   9.155
 8367POPC   GL137237  43.113  30.696   8.855
 8367POPC   GL237238  43.103  30.618   8.855
 8367POPC   C1A37239  43.153  30.727   8.555
 8367POPC   D2A37240  43.099  30.724   8.255
 8367POPC   C3A37241  43.120  30.671   7.955
 8367POPC   C4A37242  43.126  30.740   7.655
 8367POPC   C1B37243  43.109  30.428   8.555
 8367POPC   C2B37244  43.050  30.474   8.255
 8367POPC   C3B37245  43.055  30.408   7.955
 8367POPC   C4B37246  43.063  30.453   7.655
 8368POPC   NC337247  22.152   2.011   9.455
 8368POPC   PO437248  22.186   1.967   9.155
 8368POPC   GL137249  22.157   1.952   8.855
 8368POPC   GL237250  22.038   1.935   8.855
 8368POPC   C1A37251  22.123   1.975   8.555
 8368POPC   D2A37252  22.192   1.968   8.255
 8368POPC   C3A37253  22.191   1.973   7.955
 8368POPC   C4A37254  22.122   2.002   7.655
 8368POPC   C1B37255  21.945   1.846   8.555
 8368POPC   C2B37256  21.913   1.906   8.255
 8368POPC   C3B37257  21.969   1.845   7.955
 8368POPC   C4B37258  21.924   1.878   7.655
 8369POPC   NC337259  40.738   3.545   9.455
 8369POPC   PO437260  40.746   3.500   9.155
 8369POPC   GL137261  40.832   3.588   8.855
 8369POPC   GL237262  40.726   3.702   8.855
 8369POPC   C1A37263  40.771   3.555   8.555
 8369POPC   D2A37264  40.754   3.519   8.255
 8369POPC   C3A37265  40.739   3.534   7.955
 8369POPC   C4A37266  40.753   3.553   7.655
 8369POPC   C1B37267  40.730   3.767   8.555
 8369POPC   C2B37268  40.716   3.785   8.255
 8369POPC   C3B37269  40.709   3.784   7.955
 8369POPC   C4B37270  40.676   3.737   7.655
 8370POPC   NC337271  40.774  43.862   9.455
 8370POPC   PO437272  40.782  43.896   9.155
 8370POPC   GL137273  40.744  43.903   8.855
 8370POPC   GL237274  40.929  43.807   8.855
 8370POPC   C1A37275  40.745  43.936   8.555
 8370POPC   D2A37276  40.745  43.880   8.255
 8370POPC   C3A37277  40.736  43.923   7.955
 8370POPC   C4A37278  40.791  43.857   7.655
 8370POPC   C1B37279  40.946  43.726   8.555
 8370POPC   C2B37280  41.001  43.738   8.255
 8370POPC   C3B37281  41.028  43.733   7.955
 8370POPC   C4B37282  40.973  43.774   7.655
 8371POPC   NC337283  15.215  13.599   9.455
 8371POPC   PO437284  15.177  13.584   9.155
 8371POPC   GL137285  15.212  13.646   8.855
 8371POPC   GL237286  15.166  13.467   8.855
 8371POPC   C1A37287  15.151  13.593   8.555
 8371POPC   D2A37288  15.227  13.664   8.255
 8371POPC   C3A37289  15.211  13.629   7.955
 8371POPC   C4A37290  15.132  13.587   7.655
 8371POPC   C1B37291  15.173  13.411   8.555
 8371POPC   C2B37292  15.186  13.381   8.255
 8371POPC   C3B37293  15.182  13.427   7.955
 8371POPC   C4B37294  15.125  13.375   7.655
 8372POPC   NC337295   5.863  40.822   9.455
 8372POPC   PO437296   5.873  40.826   9.155
 8372POPC   GL137297   5.854  40.769   8.855
 8372POPC   GL237298   6.014  40.781   8.855
 8372POPC   C1A37299   5.856  40.735   8.555
 8372POPC   D2A37300   5.872  40.736   8.255
 8372POPC   C3A37301   5.912  40.794   7.955
 8372POPC   C4A37302   5.892  40.807   7.655
 8372POPC   C1B37303   6.090  40.899   8.555
 8372POPC   C2B37304   6.124  40.917   8.255
 8372POPC   C3B37305   6.141  40.848   7.955
 8372POPC   C4B37306   6.123  40.887   7.655
 8373POPC   NC337307  30.718  24.521   9.455
 8373POPC   PO437308  30.685  24.466   9.155
 8373POPC   GL137309  30.684  24.468   8.855
 8373POPC   GL237310  30.776  24.559   8.855
 8373POPC   C1A37311  30.701  24.539   8.555
 8373POPC   D2A37312  30.686  24.502   8.255
 8373POPC   C3A37313  30.653  24.518   7.955
 8373POPC   C4A37314  30.662  24.474   7.655
 8373POPC   C1B37315  30.865  24.730   8.555
 8373POPC   C2B37316  30.868  24.652   8.255
 8373POPC   C3B37317  30.860  24.700   7.955
 8373POPC   C4B37318  30.823  24.677   7.655
 8374POPC   NC337319  32.991  29.881   9.455
 8374POPC   PO437320  33.064  29.874   9.155
 8374POPC   GL137321  33.053  29.955   8.855
 8374POPC   GL237322  32.909  29.957   8.855
 8374POPC   C1A37323  33.056  29.962   8.555
 8374POPC   D2A37324  32.995  29.872   8.255
 8374POPC   C3A37325  33.023  29.948   7.955
 8374POPC   C4A37326  33.043  29.927   7.655
 8374POPC   C1B37327  32.876  30.063   8.555
 8374POPC   C2B37328  32.880  30.098   8.255
 8374POPC   C3B37329  32.885  30.118   7.955
 8374POPC   C4B37330  32.800  30.134   7.655
 8375POPC   NC337331   2.724  18.319   9.455
 8375POPC   PO437332   2.717  18.247   9.155
 8375POPC   GL137333   2.716  18.306   8.855
 8375POPC   GL237334   2.621  18.210   8.855
 8375POPC   C1A37335   2.800  18.298   8.555
 8375POPC   D2A37336   2.765  18.280   8.255
 8375POPC   C3A37337   2.762  18.266   7.955
 8375POPC   C4A37338   2.730  18.284   7.655
 8375POPC   C1B37339   2.551  18.174   8.555
 8375POPC   C2B37340   2.539  18.229   8.255
 8375POPC   C3B37341   2.485  18.176   7.955
 8375POPC   C4B37342   2.519  18.221   7.655
 8376POPC   NC337343  35.345  35.401   9.455
 8376POPC   PO437344  35.398  35.346   9.155
 8376POPC   GL137345  35.340  35.341   8.855
 8376POPC   GL237346  35.268  35.280   8.855
 8376POPC   C1A37347  35.375  35.328   8.555
 8376POPC   D2A37348  35.357  35.312   8.255
 8376POPC   C3A37349  35.333  35.372   7.955
 8376POPC   C4A37350  35.362  35.401   7.655
 8376POPC   C1B37351  35.143  35.170   8.555
 8376POPC   C2B37352  35.197  35.198   8.255
 8376POPC   C3B37353  35.126  35.215   7.955
 8376POPC   C4B37354  35.194  35.177   7.655
 8377POPC   NC337355  36.882   9.715   9.455
 8377POPC   PO437356  36.887   9.789   9.155
 8377POPC   GL137357  36.933   9.779   8.855
 8377POPC   GL237358  37.009   9.743   8.855
 8377POPC   C1A37359  36.895   9.798   8.555
 8377POPC   D2A37360  36.859   9.702   8.255
 8377POPC   C3A37361  36.947   9.737   7.955
 8377POPC   C4A37362  36.893   9.715   7.655
 8377POPC   C1B37363  37.096   9.620   8.555
 8377POPC   C2B37364  37.111   9.630   8.255
 8377POPC   C3B37365  37.101   9.636   7.955
 8377POPC   C4B37366  37.132   9.684   7.655
 8378POPC   NC337367   5.872   0.477   9.455
 8378POPC   PO437368   5.847   0.390   9.155
 8378POPC   GL137369   5.854   0.398   8.855
 8378POPC   GL237370   5.946   0.479   8.855
 8378POPC   C1A37371   5.831   0.392   8.555
 8378POPC   D2A37372   5.833   0.466   8.255
 8378POPC   C3A37373   5.849   0.466   7.955
 8378POPC   C4A37374   5.869   0.486   7.655
 8378POPC   C1B37375   6.131   0.515   8.555
 8378POPC   C2B37376   6.088   0.556   8.255
 8378POPC   C3B37377   6.102   0.579   7.955
 8378POPC   C4B37378   6.134   0.568   7.655
 8379POPC   NC337379   5.833  41.587   9.455
 8379POPC   PO437380   5.889  41.559   9.155
 8379POPC   GL137381   5.857  41.583   8.855
 8379POPC   GL237382   5.926  41.505   8.855
 8379POPC   C1A37383   5.902  41.550   8.555
 8379POPC   D2A37384   5.907  41.567   8.255
 8379POPC   C3A37385   5.846  41.530   7.955
 8379POPC   C4A37386   5.910  41.573   7.655
 8379POPC   C1B37387   6.110  41.394   8.555
 8379POPC   C2B37388   6.108  41.411   8.255
 8379POPC   C3B37389   6.083  41.367   7.955
 8379POPC   C4B37390   6.036  41.414   7.655
 8380POPC   NC337391  22.183  44.687   9.455
 8380POPC   PO437392  22.154  44.626   9.155
 8380POPC   GL137393  22.114  44.708   8.855
 8380POPC   GL237394  22.172  44.545   8.855
 8380POPC   C1A37395  22.128  44.676   8.555
 8380POPC   D2A37396  22.130  44.620   8.255
 8380POPC   C3A37397  22.118  44.695   7.955
 8380POPC   C4A37398  22.159  44.675   7.655
 8380POPC   C1B37399  22.135  44.445   8.555
 8380POPC   C2B37400  22.139  44.381   8.255
 8380POPC   C3B37401  22.171  44.439   7.955
 8380POPC   C4B37402  22.155  44.377   7.655
 8381POPC   NC337403  40.038  42.348   9.455
 8381POPC   PO437404  39.982  42.287   9.155
 8381POPC   GL137405  40.007  42.328   8.855
 8381POPC   GL237406  39.951  42.236   8.855
 8381POPC   C1A37407  40.017  42.321   8.555
 8381POPC   D2A37408  40.002  42.348   8.255
 8381POPC   C3A37409  39.991  42.334   7.955
 8381POPC   C4A37410  40.047  42.342   7.655
 8381POPC   C1B37411  39.876  42.090   8.555
 8381POPC   C2B37412  39.831  42.158   8.255
 8381POPC   C3B37413  39.883  42.169   7.955
 8381POPC   C4B37414  39.884  42.116   7.655
 8382POPC   NC337415  19.870   1.947   9.455
 8382POPC   PO437416  19.872   2.024   9.155
 8382POPC   GL137417  19.880   2.006   8.855
 8382POPC   GL237418  19.743   2.016   8.855
 8382POPC   C1A37419  19.852   2.033   8.555
 8382POPC   D2A37420  19.854   2.005   8.255
 8382POPC   C3A37421  19.876   1.953   7.955
 8382POPC   C4A37422  19.831   2.022   7.655
 8382POPC   C1B37423  19.594   1.968   8.555
 8382POPC   C2B37424  19.631   1.959   8.255
 8382POPC   C3B37425  19.589   1.924   7.955
 8382POPC   C4B37426  19.589   2.013   7.655
 8383POPC   NC337427  40.780   6.619   9.455
 8383POPC   PO437428  40.743   6.604   9.155
 8383POPC   GL137429  40.808   6.648   8.855
 8383POPC   GL237430  40.920   6.601   8.855
 8383POPC   C1A37431  40.817   6.634   8.555
 8383POPC   D2A37432  40.793   6.635   8.255
 8383POPC   C3A37433  40.744   6.625   7.955
 8383POPC   C4A37434  40.796   6.629   7.655
 8383POPC   C1B37435  41.013   6.580   8.555
 8383POPC   C2B37436  40.985   6.494   8.255
 8383POPC   C3B37437  40.985   6.585   7.955
 8383POPC   C4B37438  40.995   6.585   7.655
 8384POPC   NC337439  13.632  35.304   9.455
 8384POPC   PO437440  13.651  35.320   9.155
 8384POPC   GL137441  13.592  35.320   8.855
 8384POPC   GL237442  13.781  35.320   8.855
 8384POPC   C1A37443  13.608  35.370   8.555
 8384POPC   D2A37444  13.648  35.373   8.255
 8384POPC   C3A37445  13.615  35.388   7.955
 8384POPC   C4A37446  13.586  35.367   7.655
 8384POPC   C1B37447  13.923  35.348   8.555
 8384POPC   C2B37448  13.876  35.296   8.255
 8384POPC   C3B37449  13.841  35.388   7.955
 8384POPC   C4B37450  13.833  35.318   7.655
 8385POPC   NC337451  42.353  23.702   9.455
 8385POPC   PO437452  42.381  23.719   9.155
 8385POPC   GL137453  42.373  23.714   8.855
 8385POPC   GL237454  42.401  23.683   8.855
 8385POPC   C1A37455  42.364  23.682   8.555
 8385POPC   D2A37456  42.317  23.719   8.255
 8385POPC   C3A37457  42.332  23.689   7.955
 8385POPC   C4A37458  42.306  23.724   7.655
 8385POPC   C1B37459  42.521  23.637   8.555
 8385POPC   C2B37460  42.505  23.575   8.255
 8385POPC   C3B37461  42.512  23.632   7.955
 8385POPC   C4B37462  42.542  23.602   7.655
 8386POPC   NC337463  27.543  21.374   9.455
 8386POPC   PO437464  27.636  21.425   9.155
 8386POPC   GL137465  27.642  21.384   8.855
 8386POPC   GL237466  27.754  21.366   8.855
 8386POPC   C1A37467  27.638  21.372   8.555
 8386POPC   D2A37468  27.601  21.387   8.255
 8386POPC   C3A37469  27.639  21.430   7.955
 8386POPC   C4A37470  27.577  21.351   7.655
 8386POPC   C1B37471  27.840  21.344   8.555
 8386POPC   C2B37472  27.852  21.368   8.255
 8386POPC   C3B37473  27.875  21.286   7.955
 8386POPC   C4B37474  27.823  21.326   7.655
 8387POPC   NC337475  15.959  43.081   9.455
 8387POPC   PO437476  15.998  43.107   9.155
 8387POPC   GL137477  15.956  43.159   8.855
 8387POPC   GL237478  15.956  43.199   8.855
 8387POPC   C1A37479  15.981  43.084   8.555
 8387POPC   D2A37480  15.973  43.150   8.255
 8387POPC   C3A37481  15.962  43.069   7.955
 8387POPC   C4A37482  15.916  43.120   7.655
 8387POPC   C1B37483  15.990  43.341   8.555
 8387POPC   C2B37484  16.010  43.357   8.255
 8387POPC   C3B37485  16.017  43.372   7.955
 8387POPC   C4B37486  16.055  43.317   7.655
 8388POPC   NC337487  22.210   5.829   9.455
 8388POPC   PO437488  22.140   5.891   9.155
 8388POPC   GL137489  22.204   5.886   8.855
 8388POPC   GL237490  22.004   5.886   8.855
 8388POPC   C1A37491  22.192   5.843   8.555
 8388POPC   D2A37492  22.149   5.830   8.255
 8388POPC   C3A37493  22.154   5.916   7.955
 8388POPC   C4A37494  22.177   5.837   7.655
 8388POPC   C1B37495  21.887   5.846   8.555
 8388POPC   C2B37496  21.928   5.879   8.255
 8388POPC   C3B37497  21.920   5.904   7.955
 8388POPC   C4B37498  21.887   5.924   7.655
 8389POPC   NC337499   3.518  19.073   9.455
 8389POPC   PO437500   3.537  19.066   9.155
 8389POPC   GL137501   3.586  19.072   8.855
 8389POPC   GL237502   3.583  18.938   8.855
 8389POPC   C1A37503   3.530  19.048   8.555
 8389POPC   D2A37504   3.557  19.099   8.255
 8389POPC   C3A37505   3.511  19.082   7.955
 8389POPC   C4A37506   3.558  19.086   7.655
 8389POPC   C1B37507   3.552  18.841   8.555
 8389POPC   C2B37508   3.588  18.832   8.255
 8389POPC   C3B37509   3.570  18.798   7.955
 8389POPC   C4B37510   3.535  18.779   7.655
 8390POPC   NC337511  35.387  24.535   9.455
 8390POPC   PO437512  35.345  24.516   9.155
 8390POPC   GL137513  35.321  24.470   8.855
 8390POPC   GL237514  35.217  24.436   8.855
 8390POPC   C1A37515  35.326  24.535   8.555
 8390POPC   D2A37516  35.330  24.495   8.255
 8390POPC   C3A37517  35.310  24.533   7.955
 8390POPC   C4A37518  35.326  24.510   7.655
 8390POPC   C1B37519  35.087  24.360   8.555
 8390POPC   C2B37520  35.110  24.410   8.255
 8390POPC   C3B37521  35.095  24.374   7.955
 8390POPC   C4B37522  35.116  24.390   7.655
 8391POPC   NC337523  43.146  29.118   9.455
 8391POPC   PO437524  43.150  29.137   9.155
 8391POPC   GL137525  43.082  29.169   8.855
 8391POPC   GL237526  43.203  29.055   8.855
 8391POPC   C1A37527  43.076  29.139   8.555
 8391POPC   D2A37528  43.143  29.115   8.255
 8391POPC   C3A37529  43.142  29.161   7.955
 8391POPC   C4A37530  43.112  29.167   7.655
 8391POPC   C1B37531  43.327  29.060   8.555
 8391POPC   C2B37532  43.333  29.081   8.255
 8391POPC   C3B37533  43.388  29.045   7.955
 8391POPC   C4B37534  43.324  29.061   7.655
 8392POPC   NC337535  11.257  34.536   9.455
 8392POPC   PO437536  11.349  34.547   9.155
 8392POPC   GL137537  11.341  34.597   8.855
 8392POPC   GL237538  11.292  34.663   8.855
 8392POPC   C1A37539  11.252  34.536   8.555
 8392POPC   D2A37540  11.264  34.527   8.255
 8392POPC   C3A37541  11.293  34.564   7.955
 8392POPC   C4A37542  11.331  34.598   7.655
 8392POPC   C1B37543  11.239  34.851   8.555
 8392POPC   C2B37544  11.208  34.851   8.255
 8392POPC   C3B37545  11.222  34.815   7.955
 8392POPC   C4B37546  11.210  34.829   7.655
 8393POPC   NC337547  12.036  40.007   9.455
 8393POPC   PO437548  12.116  40.032   9.155
 8393POPC   GL137549  12.091  39.994   8.855
 8393POPC   GL237550  12.198  40.017   8.855
 8393POPC   C1A37551  12.062  40.004   8.555
 8393POPC   D2A37552  12.113  39.986   8.255
 8393POPC   C3A37553  12.062  40.016   7.955
 8393POPC   C4A37554  12.081  39.976   7.655
 8393POPC   C1B37555  12.283  39.987   8.555
 8393POPC   C2B37556  12.321  39.989   8.255
 8393POPC   C3B37557  12.305  40.042   7.955
 8393POPC   C4B37558  12.324  40.036   7.655
 8394POPC   NC337559   2.769  10.482   9.455
 8394POPC   PO437560   2.724  10.517   9.155
 8394POPC   GL137561   2.751  10.508   8.855
 8394POPC   GL237562   2.842  10.577   8.855
 8394POPC   C1A37563   2.717  10.498   8.555
 8394POPC   D2A37564   2.803  10.477   8.255
 8394POPC   C3A37565   2.723  10.522   7.955
 8394POPC   C4A37566   2.777  10.567   7.655
 8394POPC   C1B37567   2.927  10.721   8.555
 8394POPC   C2B37568   2.918  10.661   8.255
 8394POPC   C3B37569   2.970  10.667   7.955
 8394POPC   C4B37570   2.918  10.727   7.655
 8395POPC   NC337571   3.571   0.397   9.455
 8395POPC   PO437572   3.517   0.403   9.155
 8395POPC   GL137573   3.578   0.463   8.855
 8395POPC   GL237574   3.391   0.385   8.855
 8395POPC   C1A37575   3.516   0.473   8.555
 8395POPC   D2A37576   3.532   0.449   8.255
 8395POPC   C3A37577   3.564   0.399   7.955
 8395POPC   C4A37578   3.503   0.425   7.655
 8395POPC   C1B37579   3.369   0.268   8.555
 8395POPC   C2B37580   3.322   0.319   8.255
 8395POPC   C3B37581   3.318   0.358   7.955
 8395POPC   C4B37582   3.290   0.344   7.655
 8396POPC   NC337583   9.741  26.769   9.455
 8396POPC   PO437584   9.702  26.803   9.155
 8396POPC   GL137585   9.764  26.767   8.855
 8396POPC   GL237586   9.795  26.719   8.855
 8396POPC   C1A37587   9.780  26.861   8.555
 8396POPC   D2A37588   9.780  26.861   8.255
 8396POPC   C3A37589   9.781  26.839   7.955
 8396POPC   C4A37590   9.779  26.813   7.655
 8396POPC   C1B37591   9.921  26.633   8.555
 8396POPC   C2B37592   9.885  26.560   8.255
 8396POPC   C3B37593   9.933  26.629   7.955
 8396POPC   C4B37594   9.851  26.628   7.655
 8397POPC   NC337595  43.925  15.959   9.455
 8397POPC   PO437596  43.893  15.991   9.155
 8397POPC   GL137597  43.899  15.967   8.855
 8397POPC   GL237598  43.875  15.868   8.855
 8397POPC   C1A37599  43.858  15.984   8.555
 8397POPC   D2A37600  43.861  15.916   8.255
 8397POPC   C3A37601  43.931  15.924   7.955
 8397POPC   C4A37602  43.923  15.918   7.655
 8397POPC   C1B37603  43.881  15.693   8.555
 8397POPC   C2B37604  43.962  15.697   8.255
 8397POPC   C3B37605  43.957  15.685   7.955
 8397POPC   C4B37606  43.889  15.672   7.655
 8398POPC   NC337607  21.397  11.322   9.455
 8398POPC   PO437608  21.391  11.338   9.155
 8398POPC   GL137609  21.426  11.274   8.855
 8398POPC   GL237610  21.299  11.302   8.855
 8398POPC   C1A37611  21.397  11.335   8.555
 8398POPC   D2A37612  21.410  11.348   8.255
 8398POPC   C3A37613  21.370  11.274   7.955
 8398POPC   C4A37614  21.401  11.259   7.655
 8398POPC   C1B37615  21.172  11.197   8.555
 8398POPC   C2B37616  21.168  11.200   8.255
 8398POPC   C3B37617  21.193  11.244   7.955
 8398POPC   C4B37618  21.133  11.210   7.655
 8399POPC   NC337619  19.062  11.277   9.455
 8399POPC   PO437620  19.104  11.345   9.155
 8399POPC   GL137621  19.033  11.268   8.855
 8399POPC   GL237622  18.997  11.380   8.855
 8399POPC   C1A37623  19.088  11.286   8.555
 8399POPC   D2A37624  19.080  11.318   8.255
 8399POPC   C3A37625  19.057  11.322   7.955
 8399POPC   C4A37626  19.015  11.276   7.655
 8399POPC   C1B37627  19.033  11.590   8.555
 8399POPC   C2B37628  19.066  11.544   8.255
 8399POPC   C3B37629  19.000  11.519   7.955
 8399POPC   C4B37630  19.060  11.572   7.655
 8400POPC   NC337631  22.935  30.701   9.455
 8400POPC   PO437632  22.926  30.671   9.155
 8400POPC   GL137633  22.899  30.727   8.855
 8400POPC   GL237634  23.059  30.730   8.855
 8400POPC   C1A37635  22.971  30.735   8.555
 8400POPC   D2A37636  22.987  30.688   8.255
 8400POPC   C3A37637  22.899  30.711   7.955
 8400POPC   C4A37638  22.939  30.699   7.655
 8400POPC   C1B37639  23.167  30.834   8.555
 8400POPC   C2B37640  23.143  30.755   8.255
 8400POPC   C3B37641  23.129  30.822   7.955
 8400POPC   C4B37642  23.183  30.778   7.655
 8401POPC   NC337643  28.370  40.805   9.455
 8401POPC   PO437644  28.330  40.803   9.155
 8401POPC   GL137645  28.409  40.817   8.855
 8401POPC   GL237646  28.440  40.913   8.855
 8401POPC   C1A37647  28.372  40.818   8.555
 8401POPC   D2A37648  28.325  40.760   8.255
 8401POPC   C3A37649  28.352  40.801   7.955
 8401POPC   C4A37650  28.372  40.777   7.655
 8401POPC   C1B37651  28.552  40.976   8.555
 8401POPC   C2B37652  28.508  40.960   8.255
 8401POPC   C3B37653  28.478  40.998   7.955
 8401POPC   C4B37654  28.478  40.978   7.655
 8402POPC   NC337655  29.942   8.165   9.455
 8402POPC   PO437656  29.888   8.161   9.155
 8402POPC   GL137657  29.927   8.226   8.855
 8402POPC   GL237658  29.788   8.220   8.855
 8402POPC   C1A37659  29.965   8.214   8.555
 8402POPC   D2A37660  29.914   8.165   8.255
 8402POPC   C3A37661  29.907   8.190   7.955
 8402POPC   C4A37662  29.963   8.195   7.655
 8402POPC   C1B37663  29.679   8.230   8.555
 8402POPC   C2B37664  29.671   8.231   8.255
 8402POPC   C3B37665  29.631   8.214   7.955
 8402POPC   C4B37666  29.682   8.230   7.655
 8403POPC   NC337667   5.841  32.984   9.455
 8403POPC   PO437668   5.847  33.048   9.155
 8403POPC   GL137669   5.861  33.060   8.855
 8403POPC   GL237670   5.968  33.037   8.855
 8403POPC   C1A37671   5.904  33.066   8.555
 8403POPC   D2A37672   5.865  33.038   8.255
 8403POPC   C3A37673   5.860  33.024   7.955
 8403POPC   C4A37674   5.819  33.039   7.655
 8403POPC   C1B37675   6.108  33.067   8.555
 8403POPC   C2B37676   6.101  33.019   8.255
 8403POPC   C3B37677   6.152  33.065   7.955
 8403POPC   C4B37678   6.124  33.043   7.655
 8404POPC   NC337679  39.206  25.241   9.455
 8404POPC   PO437680  39.261  25.292   9.155
 8404POPC   GL137681  39.262  25.292   8.855
 8404POPC   GL237682  39.334  25.391   8.855
 8404POPC   C1A37683  39.237  25.280   8.555
 8404POPC   D2A37684  39.221  25.314   8.255
 8404POPC   C3A37685  39.183  25.283   7.955
 8404POPC   C4A37686  39.223  25.292   7.655
 8404POPC   C1B37687  39.326  25.493   8.555
 8404POPC   C2B37688  39.407  25.482   8.255
 8404POPC   C3B37689  39.339  25.528   7.955
 8404POPC   C4B37690  39.398  25.480   7.655
 8405POPC   NC337691  43.101  14.436   9.455
 8405POPC   PO437692  43.160  14.387   9.155
 8405POPC   GL137693  43.102  14.444   8.855
 8405POPC   GL237694  43.185  14.258   8.855
 8405POPC   C1A37695  43.132  14.441   8.555
 8405POPC   D2A37696  43.088  14.414   8.255
 8405POPC   C3A37697  43.064  14.448   7.955
 8405POPC   C4A37698  43.157  14.447   7.655
 8405POPC   C1B37699  43.212  14.136   8.555
 8405POPC   C2B37700  43.137  14.151   8.255
 8405POPC   C3B37701  43.225  14.184   7.955
 8405POPC   C4B37702  43.226  14.174   7.655
 8406POPC   NC337703   2.722  19.049   9.455
 8406POPC   PO437704   2.754  19.021   9.155
 8406POPC   GL137705   2.795  19.028   8.855
 8406POPC   GL237706   2.777  19.161   8.855
 8406POPC   C1A37707   2.752  19.046   8.555
 8406POPC   D2A37708   2.813  19.067   8.255
 8406POPC   C3A37709   2.752  19.021   7.955
 8406POPC   C4A37710   2.790  19.081   7.655
 8406POPC   C1B37711   2.753  19.286   8.555
 8406POPC   C2B37712   2.789  19.291   8.255
 8406POPC   C3B37713   2.731  19.263   7.955
 8406POPC   C4B37714   2.775  19.278   7.655
 8407POPC   NC337715  30.717  23.686   5.555
 8407POPC   PO437716  30.686  23.727   5.855
 8407POPC   GL137717  30.651  23.707   6.155
 8407POPC   GL237718  30.743  23.785   6.155
 8407POPC   C1A37719  30.657  23.697   6.455
 8407POPC   D2A37720  30.656  23.717   6.755
 8407POPC   C3A37721  30.673  23.705   7.055
 8407POPC   C4A37722  30.648  23.689   7.355
 8407POPC   C1B37723  30.903  23.924   6.455
 8407POPC   C2B37724  30.870  23.931   6.755
 8407POPC   C3B37725  30.855  23.870   7.055
 8407POPC   C4B37726  30.840  23.867   7.355
 8408POPC   NC337727  22.910  18.258   5.555
 8408POPC   PO437728  22.941  18.303   5.855
 8408POPC   GL137729  22.889  18.306   6.155
 8408POPC   GL237730  23.067  18.240   6.155
 8408POPC   C1A37731  22.893  18.291   6.455
 8408POPC   D2A37732  22.936  18.314   6.755
 8408POPC   C3A37733  22.905  18.303   7.055
 8408POPC   C4A37734  22.917  18.264   7.355
 8408POPC   C1B37735  23.161  18.176   6.455
 8408POPC   C2B37736  23.183  18.177   6.755
 8408POPC   C3B37737  23.154  18.193   7.055
 8408POPC   C4B37738  23.143  18.219   7.355
 8409POPC   NC337739  30.694   6.638   5.555
 8409POPC   PO437740  30.655   6.689   5.855
 8409POPC   GL137741  30.691   6.686   6.155
 8409POPC   GL237742  30.659   6.485   6.155
 8409POPC   C1A37743  30.685   6.681   6.455
 8409POPC   D2A37744  30.658   6.648   6.755
 8409POPC   C3A37745  30.690   6.616   7.055
 8409POPC   C4A37746  30.660   6.603   7.355
 8409POPC   C1B37747  30.582   6.452   6.455
 8409POPC   C2B37748  30.574   6.449   6.755
 8409POPC   C3B37749  30.555   6.455   7.055
 8409POPC   C4B37750  30.607   6.417   7.355
 8410POPC   NC337751  10.571   8.975   5.555
 8410POPC   PO437752  10.526   8.934   5.855
 8410POPC   GL137753  10.544   8.925   6.155
 8410POPC   GL237754  10.640   8.877   6.155
 8410POPC   C1A37755  10.523   8.963   6.455
 8410POPC   D2A37756  10.491   8.947   6.755
 8410POPC   C3A37757  10.543   8.985   7.055
 8410POPC   C4A37758  10.482   8.990   7.355
 8410POPC   C1B37759  10.683   8.787   6.455
 8410POPC   C2B37760  10.694   8.752   6.755
 8410POPC   C3B37761  10.613   8.777   7.055
 8410POPC   C4B37762  10.659   8.775   7.355
 8411POPC   NC337763   8.988  27.610   5.555
 8411POPC   PO437764   8.955  27.546   5.855
 8411POPC   GL137765   8.971  27.583   6.155
 8411POPC   GL237766   9.090  27.608   6.155
 8411POPC   C1A37767   8.971  27.574   6.455
 8411POPC   D2A37768   8.952  27.549   6.755
 8411POPC   C3A37769   8.969  27.544   7.055
 8411POPC   C4A37770   8.979  27.593   7.355
 8411POPC   C1B37771   9.207  27.597   6.455
 8411POPC   C2B37772   9.243  27.642   6.755
 8411POPC   C3B37773   9.269  27.564   7.055
 8411POPC   C4B37774   9.210  27.635   7.355
 8412POPC   NC337775   4.344  19.785   5.555
 8412POPC   PO437776   4.331  19.838   5.855
 8412POPC   GL137777   4.365  19.800   6.155
 8412POPC   GL237778   4.282  19.725   6.155
 8412POPC   C1A37779   4.320  19.799   6.455
 8412POPC   D2A37780   4.328  19.841   6.755
 8412POPC   C3A37781   4.296  19.830   7.055
 8412POPC   C4A37782   4.318  19.847   7.355
 8412POPC   C1B37783   4.222  19.618   6.455
 8412POPC   C2B37784   4.164  19.653   6.755
 8412POPC   C3B37785   4.242  19.664   7.055
 8412POPC   C4B37786   4.231  19.572   7.355
 8413POPC   NC337787  32.997  24.522   5.555
 8413POPC   PO437788  33.026  24.524   5.855
 8413POPC   GL137789  32.999  24.511   6.155
 8413POPC   GL237790  32.956  24.364   6.155
 8413POPC   C1A37791  33.058  24.475   6.455
 8413POPC   D2A37792  33.028  24.459   6.755
 8413POPC   C3A37793  33.012  24.465   7.055
 8413POPC   C4A37794  33.061  24.468   7.355
 8413POPC   C1B37795  33.003  24.228   6.455
 8413POPC   C2B37796  33.023  24.288   6.755
 8413POPC   C3B37797  33.025  24.213   7.055
 8413POPC   C4B37798  32.937  24.212   7.355
 8414POPC   NC337799  19.029  41.600   5.555
 8414POPC   PO437800  19.029  41.579   5.855
 8414POPC   GL137801  19.055  41.561   6.155
 8414POPC   GL237802  18.904  41.547   6.155
 8414POPC   C1A37803  19.088  41.578   6.455
 8414POPC   D2A37804  19.054  41.555   6.755
 8414POPC   C3A37805  19.091  41.530   7.055
 8414POPC   C4A37806  19.044  41.519   7.355
 8414POPC   C1B37807  18.857  41.499   6.455
 8414POPC   C2B37808  18.804  41.480   6.755
 8414POPC   C3B37809  18.852  41.525   7.055
 8414POPC   C4B37810  18.777  41.476   7.355
 8415POPC   NC337811   8.189  19.013   5.555
 8415POPC   PO437812   8.244  19.104   5.855
 8415POPC   GL137813   8.226  19.068   6.155
 8415POPC   GL237814   8.208  18.956   6.155
 8415POPC   C1A37815   8.235  19.068   6.455
 8415POPC   D2A37816   8.184  19.039   6.755
 8415POPC   C3A37817   8.219  19.013   7.055
 8415POPC   C4A37818   8.246  19.019   7.355
 8415POPC   C1B37819   8.263  18.882   6.455
 8415POPC   C2B37820   8.314  18.789   6.755
 8415POPC   C3B37821   8.266  18.869   7.055
 8415POPC   C4B37822   8.287  18.855   7.355
 8416POPC   NC337823  18.257   9.714   5.555
 8416POPC   PO437824  18.274   9.716   5.855
 8416POPC   GL137825  18.294   9.766   6.155
 8416POPC   GL237826  18.175   9.749   6.155
 8416POPC   C1A37827  18.283   9.723   6.455
 8416POPC   D2A37828  18.262   9.737   6.755
 8416POPC   C3A37829  18.295   9.733   7.055
 8416POPC   C4A37830  18.296   9.764   7.355
 8416POPC   C1B37831  18.036   9.768   6.455
 8416POPC   C2B37832  18.023   9.764   6.755
 8416POPC   C3B37833  18.007   9.677   7.055
 8416POPC   C4B37834  18.068   9.699   7.355
 8417POPC   NC337835  12.111  42.342   5.555
 8417POPC   PO437836  12.105  42.352   5.855
 8417POPC   GL137837  12.033  42.300   6.155
 8417POPC   GL237838  11.992  42.209   6.155
 8417POPC   C1A37839  12.044  42.323   6.455
 8417POPC   D2A37840  12.072  42.326   6.755
 8417POPC   C3A37841  12.121  42.309   7.055
 8417POPC   C4A37842  12.088  42.312   7.355
 8417POPC   C1B37843  11.857  42.113   6.455
 8417POPC   C2B37844  11.905  42.197   6.755
 8417POPC   C3B37845  11.920  42.145   7.055
 8417POPC   C4B37846  11.909  42.123   7.355
 8418POPC   NC337847   6.613  18.239   5.555
 8418POPC   PO437848   6.684  18.303   5.855
 8418POPC   GL137849   6.597  18.308   6.155
 8418POPC   GL237850   6.663  18.406   6.155
 8418POPC   C1A37851   6.619  18.293   6.455
 8418POPC   D2A37852   6.651  18.241   6.755
 8418POPC   C3A37853   6.692  18.318   7.055
 8418POPC   C4A37854   6.598  18.312   7.355
 8418POPC   C1B37855   6.635  18.576   6.455
 8418POPC   C2B37856   6.609  18.510   6.755
 8418POPC   C3B37857   6.582  18.537   7.055
 8418POPC   C4B37858   6.647  18.505   7.355
 8419POPC   NC337859  16.759  33.761   5.555
 8419POPC   PO437860  16.762  33.755   5.855
 8419POPC   GL137861  16.723  33.841   6.155
 8419POPC   GL237862  16.644  33.722   6.155
 8419POPC   C1A37863  16.749  33.802   6.455
 8419POPC   D2A37864  16.724  33.831   6.755
 8419POPC   C3A37865  16.735  33.802   7.055
 8419POPC   C4A37866  16.728  33.803   7.355
 8419POPC   C1B37867  16.528  33.639   6.455
 8419POPC   C2B37868  16.517  33.653   6.755
 8419POPC   C3B37869  16.541  33.673   7.055
 8419POPC   C4B37870  16.473  33.682   7.355
 8420POPC   NC337871  26.859  36.953   5.555
 8420POPC   PO437872  26.801  36.929   5.855
 8420POPC   GL137873  26.797  36.907   6.155
 8420POPC   GL237874  26.922  36.973   6.155
 8420POPC   C1A37875  26.840  36.920   6.455
 8420POPC   D2A37876  26.803  36.952   6.755
 8420POPC   C3A37877  26.791  36.872   7.055
 8420POPC   C4A37878  26.774  36.909   7.355
 8420POPC   C1B37879  27.058  36.970   6.455
 8420POPC   C2B37880  27.061  36.965   6.755
 8420POPC   C3B37881  27.032  37.006   7.055
 8420POPC   C4B37882  27.106  36.941   7.355
 8421POPC   NC337883  23.681  15.999   5.555
 8421POPC   PO437884  23.737  15.942   5.855
 8421POPC   GL137885  23.716  15.928   6.155
 8421POPC   GL237886  23.790  15.847   6.155
 8421POPC   C1A37887  23.701  15.988   6.455
 8421POPC   D2A37888  23.703  15.935   6.755
 8421POPC   C3A37889  23.702  15.981   7.055
 8421POPC   C4A37890  23.679  15.950   7.355
 8421POPC   C1B37891  23.787  15.682   6.455
 8421POPC   C2B37892  23.808  15.717   6.755
 8421POPC   C3B37893  23.760  15.746   7.055
 8421POPC   C4B37894  23.813  15.742   7.355
 8422POPC   NC337895  27.551  42.362   5.555
 8422POPC   PO437896  27.606  42.302   5.855
 8422POPC   GL137897  27.630  42.289   6.155
 8422POPC   GL237898  27.760  42.266   6.155
 8422POPC   C1A37899  27.626  42.313   6.455
 8422POPC   D2A37900  27.613  42.293   6.755
 8422POPC   C3A37901  27.590  42.310   7.055
 8422POPC   C4A37902  27.615  42.345   7.355
 8422POPC   C1B37903  27.856  42.257   6.455
 8422POPC   C2B37904  27.867  42.306   6.755
 8422POPC   C3B37905  27.841  42.298   7.055
 8422POPC   C4B37906  27.838  42.246   7.355
 8423POPC   NC337907  44.709  29.159   5.555
 8423POPC   PO437908  44.631  29.173   5.855
 8423POPC   GL137909  44.619  29.140   6.155
 8423POPC   GL237910  44.769  29.042   6.155
 8423POPC   C1A37911  44.622  29.167   6.455
 8423POPC   D2A37912  44.635  29.152   6.755
 8423POPC   C3A37913  44.676  29.173   7.055
 8423POPC   C4A37914  44.653  29.194   7.355
 8423POPC   C1B37915  44.791  28.931   6.455
 8423POPC   C2B37916  44.804  28.922   6.755
 8423POPC   C3B37917  44.807  28.931   7.055
 8423POPC   C4B37918  44.854  28.981   7.355
 8424POPC   NC337919  44.645  36.175   5.555
 8424POPC   PO437920  44.646  36.157   5.855
 8424POPC   GL137921  44.661  36.140   6.155
 8424POPC   GL237922  44.725  36.281   6.155
 8424POPC   C1A37923  44.655  36.095   6.455
 8424POPC   D2A37924  44.636  36.111   6.755
 8424POPC   C3A37925  44.650  36.101   7.055
 8424POPC   C4A37926  44.686  36.163   7.355
 8424POPC   C1B37927  44.692  36.343   6.455
 8424POPC   C2B37928  44.716  36.386   6.755
 8424POPC   C3B37929  44.695  36.359   7.055
 8424POPC   C4B37930  44.667  36.341   7.355
 8425POPC   NC337931  19.100  12.818   5.555
 8425POPC   PO437932  19.026  12.875   5.855
 8425POPC   GL137933  19.047  12.898   6.155
 8425POPC   GL237934  18.931  12.929   6.155
 8425POPC   C1A37935  19.062  12.869   6.455
 8425POPC   D2A37936  19.038  12.831   6.755
 8425POPC   C3A37937  19.080  12.897   7.055
 8425POPC   C4A37938  19.056  12.866   7.355
 8425POPC   C1B37939  18.876  12.941   6.455
 8425POPC   C2B37940  18.851  12.985   6.755
 8425POPC   C3B37941  18.860  12.947   7.055
 8425POPC   C4B37942  18.787  12.979   7.355
 8426POPC   NC337943  29.957  26.047   5.555
 8426POPC   PO437944  29.888  26.057   5.855
 8426POPC   GL137945  29.922  26.057   6.155
 8426POPC   GL237946  29.799  26.003   6.155
 8426POPC   C1A37947  29.970  26.055   6.455
 8426POPC   D2A37948  29.911  25.993   6.755
 8426POPC   C3A37949  29.873  26.060   7.055
 8426POPC   C4A37950  29.885  26.062   7.355
 8426POPC   C1B37951  29.682  26.039   6.455
 8426POPC   C2B37952  29.683  26.021   6.755
 8426POPC   C3B37953  29.671  26.085   7.055
 8426POPC   C4B37954  29.663  26.063   7.355
 8427POPC   NC337955  34.589  33.033   5.555
 8427POPC   PO437956  34.556  32.979   5.855
 8427POPC   GL137957  34.574  33.028   6.155
 8427POPC   GL237958  34.473  32.921   6.155
 8427POPC   C1A37959  34.534  33.038   6.455
 8427POPC   D2A37960  34.623  32.993   6.755
 8427POPC   C3A37961  34.599  33.056   7.055
 8427POPC   C4A37962  34.526  33.060   7.355
 8427POPC   C1B37963  34.369  32.829   6.455
 8427POPC   C2B37964  34.410  32.852   6.755
 8427POPC   C3B37965  34.405  32.838   7.055
 8427POPC   C4B37966  34.415  32.877   7.355
 8428POPC   NC337967  11.339  29.970   5.555
 8428POPC   PO437968  11.325  29.878   5.855
 8428POPC   GL137969  11.293  29.920   6.155
 8428POPC   GL237970  11.352  30.032   6.155
 8428POPC   C1A37971  11.341  29.951   6.455
 8428POPC   D2A37972  11.311  29.969   6.755
 8428POPC   C3A37973  11.338  29.926   7.055
 8428POPC   C4A37974  11.262  29.963   7.355
 8428POPC   C1B37975  11.458  30.044   6.455
 8428POPC   C2B37976  11.491  30.115   6.755
 8428POPC   C3B37977  11.446  30.094   7.055
 8428POPC   C4B37978  11.465  30.052   7.355
 8429POPC   NC337979  44.680   3.515   5.555
 8429POPC   PO437980  44.711   3.516   5.855
 8429POPC   GL137981  44.667   3.546   6.155
 8429POPC   GL237982  44.561   3.551   6.155
 8429POPC   C1A37983  44.621   3.527   6.455
 8429POPC   D2A37984  44.701   3.536   6.755
 8429POPC   C3A37985  44.679   3.548   7.055
 8429POPC   C4A37986  44.618   3.522   7.355
 8429POPC   C1B37987  44.410   3.481   6.455
 8429POPC   C2B37988  44.456   3.549   6.755
 8429POPC   C3B37989  44.413   3.462   7.055
 8429POPC   C4B37990  44.407   3.518   7.355
 8430POPC   NC337991   7.404  34.594   5.555
 8430POPC   PO437992   7.430  34.594   5.855
 8430POPC   GL137993   7.429  34.606   6.155
 8430POPC   GL237994   7.356  34.432   6.155
 8430POPC   C1A37995   7.422  34.584   6.455
 8430POPC   D2A37996   7.382  34.606   6.755
 8430POPC   C3A37997   7.457  34.612   7.055
 8430POPC   C4A37998   7.442  34.544   7.355
 8430POPC   C1B37999   7.265  34.378   6.455
 8430POPC   C2B38000   7.293  34.366   6.755
 8430POPC   C3B38001   7.293  34.394   7.055
 8430POPC   C4B38002   7.254  34.351   7.355
 8431POPC   NC338003   5.055  15.989   5.555
 8431POPC   PO438004   5.124  15.930   5.855
 8431POPC   GL138005   5.060  15.918   6.155
 8431POPC   GL238006   5.030  15.851   6.155
 8431POPC   C1A38007   5.112  15.952   6.455
 8431POPC   D2A38008   5.052  15.987   6.755
 8431POPC   C3A38009   5.074  15.914   7.055
 8431POPC   C4A38010   5.068  15.925   7.355
 8431POPC   C1B38011   5.072  15.659   6.455
 8431POPC   C2B38012   5.035  15.677   6.755
 8431POPC   C3B38013   5.051  15.679   7.055
 8431POPC   C4B38014   5.056  15.676   7.355
 8432POPC   NC338015  42.370  23.748   5.555
 8432POPC   PO438016  42.287  23.757   5.855
 8432POPC   GL138017  42.341  23.762   6.155
 8432POPC   GL238018  42.388  23.622   6.155
 8432POPC   C1A38019  42.316  23.712   6.455
 8432POPC   D2A38020  42.326  23.684   6.755
 8432POPC   C3A38021  42.285  23.672   7.055
 8432POPC   C4A38022  42.382  23.744   7.355
 8432POPC   C1B38023  42.453  23.483   6.455
 8432POPC   C2B38024  42.417  23.482   6.755
 8432POPC   C3B38025  42.402  23.474   7.055
 8432POPC   C4B38026  42.377  23.523   7.355
 8433POPC   NC338027  26.790   6.615   5.555
 8433POPC   PO438028  26.856   6.670   5.855
 8433POPC   GL138029  26.793   6.681   6.155
 8433POPC   GL238030  26.871   6.496   6.155
 8433POPC   C1A38031  26.831   6.684   6.455
 8433POPC   D2A38032  26.788   6.626   6.755
 8433POPC   C3A38033  26.825   6.619   7.055
 8433POPC   C4A38034  26.841   6.693   7.355
 8433POPC   C1B38035  26.889   6.418   6.455
 8433POPC   C2B38036  26.864   6.410   6.755
 8433POPC   C3B38037  26.893   6.431   7.055
 8433POPC   C4B38038  26.833   6.419   7.355
 8434POPC   NC338039  19.082  34.553   5.555
 8434POPC   PO438040  19.043  34.590   5.855
 8434POPC   GL138041  19.072  34.550   6.155
 8434POPC   GL238042  19.032  34.701   6.155
 8434POPC   C1A38043  19.032  34.539   6.455
 8434POPC   D2A38044  19.064  34.563   6.755
 8434POPC   C3A38045  19.096  34.553   7.055
 8434POPC   C4A38046  19.062  34.553   7.355
 8434POPC   C1B38047  19.098  34.825   6.455
 8434POPC   C2B38048  19.102  34.847   6.755
 8434POPC   C3B38049  19.117  34.833   7.055
 8434POPC   C4B38050  19.102  34.851   7.355
 8435POPC   NC338051  14.404  32.268   5.555
 8435POPC   PO438052  14.393  32.266   5.855
 8435POPC   GL138053  14.384  32.296   6.155
 8435POPC   GL238054  14.509  32.342   6.155
 8435POPC   C1A38055  14.366  32.212   6.455
 8435POPC   D2A38056  14.420  32.208   6.755
 8435POPC   C3A38057  14.440  32.265   7.055
 8435POPC   C4A38058  14.379  32.252   7.355
 8435POPC   C1B38059  14.592  32.407   6.455
 8435POPC   C2B38060  14.555  32.414   6.755
 8435POPC   C3B38061  14.537  32.444   7.055
 8435POPC   C4B38062  14.559  32.403   7.355
 8436POPC   NC338063   5.067  31.454   5.555
 8436POPC   PO438064   5.053  31.461   5.855
 8436POPC   GL138065   5.125  31.489   6.155
 8436POPC   GL238066   5.017  31.494   6.155
 8436POPC   C1A38067   5.045  31.503   6.455
 8436POPC   D2A38068   5.108  31.427   6.755
 8436POPC   C3A38069   5.058  31.437   7.055
 8436POPC   C4A38070   5.075  31.453   7.355
 8436POPC   C1B38071   4.814  31.430   6.455
 8436POPC   C2B38072   4.826  31.418   6.755
 8436POPC   C3B38073   4.864  31.391   7.055
 8436POPC   C4B38074   4.796  31.473   7.355
 8437POPC   NC338075   2.007  20.567   5.555
 8437POPC   PO438076   1.949  20.642   5.855
 8437POPC   GL138077   2.013  20.647   6.155
 8437POPC   GL238078   1.971  20.505   6.155
 8437POPC   C1A38079   1.989  20.639   6.455
 8437POPC   D2A38080   1.953  20.613   6.755
 8437POPC   C3A38081   1.985  20.626   7.055
 8437POPC   C4A38082   2.029  20.618   7.355
 8437POPC   C1B38083   1.973  20.381   6.455
 8437POPC   C2B38084   1.977  20.380   6.755
 8437POPC   C3B38085   1.986  20.389   7.055
 8437POPC   C4B38086   1.969  20.323   7.355
 8438POPC   NC338087  42.326  37.675   5.555
 8438POPC   PO438088  42.351  37.685   5.855
 8438POPC   GL138089  42.328  37.706   6.155
 8438POPC   GL238090  42.478  37.609   6.155
 8438POPC   C1A38091  42.325  37.670   6.455
 8438POPC   D2A38092  42.313  37.670   6.755
 8438POPC   C3A38093  42.324  37.665   7.055
 8438POPC   C4A38094  42.358  37.718   7.355
 8438POPC   C1B38095  42.530  37.514   6.455
 8438POPC   C2B38096  42.532  37.533   6.755
 8438POPC   C3B38097  42.537  37.521   7.055
 8438POPC   C4B38098  42.562  37.547   7.355
 8439POPC   NC338099   4.306  24.467   5.555
 8439POPC   PO438100   4.345  24.489   5.855
 8439POPC   GL138101   4.275  24.518   6.155
 8439POPC   GL238102   4.383  24.417   6.155
 8439POPC   C1A38103   4.300  24.519   6.455
 8439POPC   D2A38104   4.329  24.447   6.755
 8439POPC   C3A38105   4.324  24.451   7.055
 8439POPC   C4A38106   4.327  24.483   7.355
 8439POPC   C1B38107   4.386  24.228   6.455
 8439POPC   C2B38108   4.414  24.270   6.755
 8439POPC   C3B38109   4.339  24.246   7.055
 8439POPC   C4B38110   4.361  24.223   7.355
 8440POPC   NC338111  40.788  15.178   5.555
 8440POPC   PO438112  40.788  15.182   5.855
 8440POPC   GL138113  40.792  15.141   6.155
 8440POPC   GL238114  40.809  15.068   6.155
 8440POPC   C1A38115  40.742  15.143   6.455
 8440POPC   D2A38116  40.812  15.158   6.755
 8440POPC   C3A38117  40.762  15.214   7.055
 8440POPC   C4A38118  40.796  15.177   7.355
 8440POPC   C1B38119  40.846  14.934   6.455
 8440POPC   C2B38120  40.760  14.899   6.755
 8440POPC   C3B38121  40.813  14.893   7.055
 8440POPC   C4B38122  40.772  14.976   7.355
 8441POPC   NC338123  29.898  38.488   5.555
 8441POPC   PO438124  29.969  38.467   5.855
 8441POPC   GL138125  29.880  38.424   6.155
 8441POPC   GL238126  29.776  38.473   6.155
 8441POPC   C1A38127  29.920  38.501   6.455
 8441POPC   D2A38128  29.941  38.415   6.755
 8441POPC   C3A38129  29.879  38.470   7.055
 8441POPC   C4A38130  29.918  38.466   7.355
 8441POPC   C1B38131  29.686  38.419   6.455
 8441POPC   C2B38132  29.679  38.446   6.755
 8441POPC   C3B38133  29.676  38.455   7.055
 8441POPC   C4B38134  29.710  38.377   7.355
 8442POPC   NC338135  29.138  22.162   5.555
 8442POPC   PO438136  29.138  22.166   5.855
 8442POPC   GL138137  29.179  22.205   6.155
 8442POPC   GL238138  29.049  22.305   6.155
 8442POPC   C1A38139  29.131  22.177   6.455
 8442POPC   D2A38140  29.146  22.117   6.755
 8442POPC   C3A38141  29.171  22.188   7.055
 8442POPC   C4A38142  29.127  22.168   7.355
 8442POPC   C1B38143  28.992  22.389   6.455
 8442POPC   C2B38144  29.036  22.386   6.755
 8442POPC   C3B38145  29.009  22.368   7.055
 8442POPC   C4B38146  29.029  22.338   7.355
 8443POPC   NC338147  37.646   1.222   5.555
 8443POPC   PO438148  37.672   1.236   5.855
 8443POPC   GL138149  37.677   1.177   6.155
 8443POPC   GL238150  37.677   1.097   6.155
 8443POPC   C1A38151  37.666   1.217   6.455
 8443POPC   D2A38152  37.724   1.242   6.755
 8443POPC   C3A38153  37.663   1.262   7.055
 8443POPC   C4A38154  37.715   1.241   7.355
 8443POPC   C1B38155  37.631   1.001   6.455
 8443POPC   C2B38156  37.619   0.946   6.755
 8443POPC   C3B38157  37.607   0.951   7.055
 8443POPC   C4B38158  37.603   1.012   7.355
 8444POPC   NC338159  10.485  29.102   5.555
 8444POPC   PO438160  10.560  29.167   5.855
 8444POPC   GL138161  10.545  29.163   6.155
 8444POPC   GL238162  10.415  29.083   6.155
 8444POPC   C1A38163  10.518  29.163   6.455
 8444POPC   D2A38164  10.573  29.164   6.755
 8444POPC   C3A38165  10.480  29.165   7.055
 8444POPC   C4A38166  10.511  29.115   7.355
 8444POPC   C1B38167  10.356  29.002   6.455
 8444POPC   C2B38168  10.275  28.979   6.755
 8444POPC   C3B38169  10.341  28.985   7.055
 8444POPC   C4B38170  10.324  28.969   7.355
 8445POPC   NC338171  17.493  36.926   5.555
 8445POPC   PO438172  17.490  36.901   5.855
 8445POPC   GL138173  17.522  36.897   6.155
 8445POPC   GL238174  17.608  36.957   6.155
 8445POPC   C1A38175  17.458  36.893   6.455
 8445POPC   D2A38176  17.463  36.895   6.755
 8445POPC   C3A38177  17.523  36.909   7.055
 8445POPC   C4A38178  17.476  36.895   7.355
 8445POPC   C1B38179  17.760  37.035   6.455
 8445POPC   C2B38180  17.708  37.018   6.755
 8445POPC   C3B38181  17.718  37.033   7.055
 8445POPC   C4B38182  17.736  37.014   7.355
 8446POPC   NC338183  36.164  23.744   5.555
 8446POPC   PO438184  36.085  23.718   5.855
 8446POPC   GL138185  36.153  23.694   6.155
 8446POPC   GL238186  36.060  23.835   6.155
 8446POPC   C1A38187  36.124  23.761   6.455
 8446POPC   D2A38188  36.152  23.674   6.755
 8446POPC   C3A38189  36.131  23.706   7.055
 8446POPC   C4A38190  36.175  23.751   7.355
 8446POPC   C1B38191  36.014  23.967   6.455
 8446POPC   C2B38192  36.064  23.925   6.755
 8446POPC   C3B38193  35.977  23.915   7.055
 8446POPC   C4B38194  36.018  23.953   7.355
 8447POPC   NC338195  25.274  36.867   5.555
 8447POPC   PO438196  25.250  36.899   5.855
 8447POPC   GL138197  25.297  36.904   6.155
 8447POPC   GL238198  25.370  36.877   6.155
 8447POPC   C1A38199  25.241  36.906   6.455
 8447POPC   D2A38200  25.270  36.859   6.755
 8447POPC   C3A38201  25.275  36.882   7.055
 8447POPC   C4A38202  25.297  36.894   7.355
 8447POPC   C1B38203  25.439  36.756   6.455
 8447POPC   C2B38204  25.527  36.799   6.755
 8447POPC   C3B38205  25.478  36.729   7.055
 8447POPC   C4B38206  25.478  36.784   7.355
 8448POPC   NC338207  37.706   4.313   5.555
 8448POPC   PO438208  37.677   4.362   5.855
 8448POPC   GL138209  37.649   4.298   6.155
 8448POPC   GL238210  37.770   4.295   6.155
 8448POPC   C1A38211  37.669   4.269   6.455
 8448POPC   D2A38212  37.715   4.354   6.755
 8448POPC   C3A38213  37.672   4.291   7.055
 8448POPC   C4A38214  37.654   4.291   7.355
 8448POPC   C1B38215  37.941   4.255   6.455
 8448POPC   C2B38216  37.909   4.179   6.755
 8448POPC   C3B38217  37.859   4.220   7.055
 8448POPC   C4B38218  37.908   4.259   7.355
 8449POPC   NC338219   2.028  44.677   5.555
 8449POPC   PO438220   2.025  44.671   5.855
 8449POPC   GL138221   1.940  44.624   6.155
 8449POPC   GL238222   1.861  44.638   6.155
 8449POPC   C1A38223   2.000  44.680   6.455
 8449POPC   D2A38224   1.989  44.657   6.755
 8449POPC   C3A38225   1.966  44.676   7.055
 8449POPC   C4A38226   1.965  44.673   7.355
 8449POPC   C1B38227   1.776  44.695   6.455
 8449POPC   C2B38228   1.786  44.651   6.755
 8449POPC   C3B38229   1.727  44.677   7.055
 8449POPC   C4B38230   1.714  44.670   7.355
 8450POPC   NC338231  12.123  33.015   5.555
 8450POPC   PO438232  12.043  33.043   5.855
 8450POPC   GL138233  12.057  33.004   6.155
 8450POPC   GL238234  12.091  33.133   6.155
 8450POPC   C1A38235  12.112  33.035   6.455
 8450POPC   D2A38236  12.049  33.036   6.755
 8450POPC   C3A38237  12.060  33.068   7.055
 8450POPC   C4A38238  12.035  33.046   7.355
 8450POPC   C1B38239  12.053  33.310   6.455
 8450POPC   C2B38240  11.992  33.290   6.755
 8450POPC   C3B38241  12.014  33.268   7.055
 8450POPC   C4B38242  11.974  33.239   7.355
 8451POPC   NC338243   1.984  12.834   5.555
 8451POPC   PO438244   1.975  12.832   5.855
 8451POPC   GL138245   1.989  12.857   6.155
 8451POPC   GL238246   1.885  12.873   6.155
 8451POPC   C1A38247   1.979  12.869   6.455
 8451POPC   D2A38248   1.996  12.803   6.755
 8451POPC   C3A38249   1.968  12.846   7.055
 8451POPC   C4A38250   1.979  12.845   7.355
 8451POPC   C1B38251   1.721  12.931   6.455
 8451POPC   C2B38252   1.774  12.919   6.755
 8451POPC   C3B38253   1.718  12.881   7.055
 8451POPC   C4B38254   1.783  12.934   7.355
 8452POPC   NC338255   5.062  23.697   5.555
 8452POPC   PO438256   5.078  23.733   5.855
 8452POPC   GL138257   5.050  23.742   6.155
 8452POPC   GL238258   5.119  23.825   6.155
 8452POPC   C1A38259   5.045  23.684   6.455
 8452POPC   D2A38260   5.098  23.746   6.755
 8452POPC   C3A38261   5.135  23.712   7.055
 8452POPC   C4A38262   5.110  23.727   7.355
 8452POPC   C1B38263   5.215  23.955   6.455
 8452POPC   C2B38264   5.199  23.907   6.755
 8452POPC   C3B38265   5.250  23.912   7.055
 8452POPC   C4B38266   5.214  23.940   7.355
 8453POPC   NC338267   5.100  21.364   5.555
 8453POPC   PO438268   5.106  21.405   5.855
 8453POPC   GL138269   5.106  21.361   6.155
 8453POPC   GL238270   5.066  21.505   6.155
 8453POPC   C1A38271   5.071  21.389   6.455
 8453POPC   D2A38272   5.051  21.375   6.755
 8453POPC   C3A38273   5.088  21.430   7.055
 8453POPC   C4A38274   5.083  21.423   7.355
 8453POPC   C1B38275   5.073  21.681   6.455
 8453POPC   C2B38276   5.073  21.644   6.755
 8453POPC   C3B38277   5.159  21.610   7.055
 8453POPC   C4B38278   5.151  21.596   7.355
 8454POPC   NC338279   5.090   1.255   5.555
 8454POPC   PO438280   5.127   1.192   5.855
 8454POPC   GL138281   5.091   1.237   6.155
 8454POPC   GL238282   5.019   1.071   6.155
 8454POPC   C1A38283   5.089   1.257   6.455
 8454POPC   D2A38284   5.068   1.260   6.755
 8454POPC   C3A38285   5.064   1.191   7.055
 8454POPC   C4A38286   5.108   1.225   7.355
 8454POPC   C1B38287   4.991   0.952   6.455
 8454POPC   C2B38288   5.004   0.955   6.755
 8454POPC   C3B38289   4.998   1.022   7.055
 8454POPC   C4B38290   4.981   1.012   7.355
 8455POPC   NC338291  21.385  36.948   5.555
 8455POPC   PO438292  21.402  36.928   5.855
 8455POPC   GL138293  21.389  36.917   6.155
 8455POPC   GL238294  21.513  36.937   6.155
 8455POPC   C1A38295  21.410  36.890   6.455
 8455POPC   D2A38296  21.387  36.856   6.755
 8455POPC   C3A38297  21.422  36.883   7.055
 8455POPC   C4A38298  21.410  36.918   7.355
 8455POPC   C1B38299  21.595  36.941   6.455
 8455POPC   C2B38300  21.599  36.892   6.755
 8455POPC   C3B38301  21.629  36.975   7.055
 8455POPC   C4B38302  21.649  36.906   7.355
 8456POPC   NC338303  40.043  26.006   5.555
 8456POPC   PO438304  39.980  26.027   5.855
 8456POPC   GL138305  40.021  26.090   6.155
 8456POPC   GL238306  39.924  26.059   6.155
 8456POPC   C1A38307  40.033  26.041   6.455
 8456POPC   D2A38308  40.044  26.048   6.755
 8456POPC   C3A38309  40.031  26.047   7.055
 8456POPC   C4A38310  40.028  26.088   7.355
 8456POPC   C1B38311  39.749  26.045   6.455
 8456POPC   C2B38312  39.786  26.037   6.755
 8456POPC   C3B38313  39.796  25.996   7.055
 8456POPC   C4B38314  39.710  25.987   7.355
 8457POPC   NC338315  41.556  24.507   5.555
 8457POPC   PO438316  41.558  24.477   5.855
 8457POPC   GL138317  41.582  24.459   6.155
 8457POPC   GL238318  41.449  24.502   6.155
 8457POPC   C1A38319  41.561  24.445   6.455
 8457POPC   D2A38320  41.541  24.442   6.755
 8457POPC   C3A38321  41.549  24.459   7.055
 8457POPC   C4A38322  41.526  24.482   7.355
 8457POPC   C1B38323  41.309  24.429   6.455
 8457POPC   C2B38324  41.347  24.445   6.755
 8457POPC   C3B38325  41.298  24.482   7.055
 8457POPC   C4B38326  41.290  24.412   7.355
 8458POPC   NC338327  33.833  28.344   5.555
 8458POPC   PO438328  33.800  28.322   5.855
 8458POPC   GL138329  33.839  28.340   6.155
 8458POPC   GL238330  33.753  28.303   6.155
 8458POPC   C1A38331  33.829  28.413   6.455
 8458POPC   D2A38332  33.792  28.385   6.755
 8458POPC   C3A38333  33.778  28.341   7.055
 8458POPC   C4A38334  33.848  28.368   7.355
 8458POPC   C1B38335  33.706  28.202   6.455
 8458POPC   C2B38336  33.706  28.139   6.755
 8458POPC   C3B38337  33.710  28.198   7.055
 8458POPC   C4B38338  33.643  28.117   7.355
 8459POPC   NC338339  42.338  24.464   5.555
 8459POPC   PO438340  42.328  24.452   5.855
 8459POPC   GL138341  42.328  24.513   6.155
 8459POPC   GL238342  42.424  24.391   6.155
 8459POPC   C1A38343  42.332  24.535   6.455
 8459POPC   D2A38344  42.363  24.501   6.755
 8459POPC   C3A38345  42.321  24.536   7.055
 8459POPC   C4A38346  42.319  24.483   7.355
 8459POPC   C1B38347  42.540  24.372   6.455
 8459POPC   C2B38348  42.539  24.298   6.755
 8459POPC   C3B38349  42.537  24.340   7.055
 8459POPC   C4B38350  42.540  24.340   7.355
 8460POPC   NC338351   2.777  37.725   5.555
 8460POPC   PO438352   2.746  37.721   5.855
 8460POPC   GL138353   2.798  37.662   6.155
 8460POPC   GL238354   2.741  37.546   6.155
 8460POPC   C1A38355   2.717  37.643   6.455
 8460POPC   D2A38356   2.723  37.720   6.755
 8460POPC   C3A38357   2.791  37.632   7.055
 8460POPC   C4A38358   2.716  37.685   7.355
 8460POPC   C1B38359   2.693  37.478   6.455
 8460POPC   C2B38360   2.711  37.468   6.755
 8460POPC   C3B38361   2.708  37.492   7.055
 8460POPC   C4B38362   2.726  37.467   7.355
 8461POPC   NC338363   2.007   9.008   5.555
 8461POPC   PO438364   2.009   8.968   5.855
 8461POPC   GL138365   1.993   8.942   6.155
 8461POPC   GL238366   2.140   8.895   6.155
 8461POPC   C1A38367   1.950   8.958   6.455
 8461POPC   D2A38368   2.027   9.016   6.755
 8461POPC   C3A38369   1.990   9.001   7.055
 8461POPC   C4A38370   2.032   8.991   7.355
 8461POPC   C1B38371   2.180   8.870   6.455
 8461POPC   C2B38372   2.227   8.878   6.755
 8461POPC   C3B38373   2.237   8.838   7.055
 8461POPC   C4B38374   2.193   8.826   7.355
 8462POPC   NC338375  33.764  29.884   5.555
 8462POPC   PO438376  33.792  29.951   5.855
 8462POPC   GL138377  33.842  29.937   6.155
 8462POPC   GL238378  33.837  30.029   6.155
 8462POPC   C1A38379  33.850  29.942   6.455
 8462POPC   D2A38380  33.770  29.911   6.755
 8462POPC   C3A38381  33.821  29.951   7.055
 8462POPC   C4A38382  33.779  29.891   7.355
 8462POPC   C1B38383  33.952  30.094   6.455
 8462POPC   C2B38384  33.940  30.155   6.755
 8462POPC   C3B38385  33.882  30.117   7.055
 8462POPC   C4B38386  33.917  30.148   7.355
 8463POPC   NC338387  38.410  19.056   5.555
 8463POPC   PO438388  38.458  19.017   5.855
 8463POPC   GL138389  38.492  19.074   6.155
 8463POPC   GL238390  38.528  18.930   6.155
 8463POPC   C1A38391  38.468  19.101   6.455
 8463POPC   D2A38392  38.477  19.061   6.755
 8463POPC   C3A38393  38.480  19.010   7.055
 8463POPC   C4A38394  38.477  19.015   7.355
 8463POPC   C1B38395  38.520  18.783   6.455
 8463POPC   C2B38396  38.545  18.817   6.755
 8463POPC   C3B38397  38.508  18.793   7.055
 8463POPC   C4B38398  38.539  18.853   7.355
 8464POPC   NC338399  33.761   5.105   5.555
 8464POPC   PO438400  33.850   5.120   5.855
 8464POPC   GL138401  33.751   5.136   6.155
 8464POPC   GL238402  33.788   5.224   6.155
 8464POPC   C1A38403  33.794   5.098   6.455
 8464POPC   D2A38404  33.819   5.100   6.755
 8464POPC   C3A38405  33.809   5.066   7.055
 8464POPC   C4A38406  33.834   5.094   7.355
 8464POPC   C1B38407  33.788   5.345   6.455
 8464POPC   C2B38408  33.777   5.361   6.755
 8464POPC   C3B38409  33.814   5.329   7.055
 8464POPC   C4B38410  33.827   5.299   7.355
 8465POPC   NC338411  15.912   5.831   5.555
 8465POPC   PO438412  15.992   5.869   5.855
 8465POPC   GL138413  15.955   5.889   6.155
 8465POPC   GL238414  15.991   5.758   6.155
 8465POPC   C1A38415  15.935   5.900   6.455
 8465POPC   D2A38416  15.919   5.911   6.755
 8465POPC   C3A38417  15.910   5.828   7.055
 8465POPC   C4A38418  15.988   5.905   7.355
 8465POPC   C1B38419  16.095   5.710   6.455
 8465POPC   C2B38420  16.102   5.709   6.755
 8465POPC   C3B38421  16.056   5.674   7.055
 8465POPC   C4B38422  16.094   5.618   7.355
 8466POPC   NC338423  36.951  17.490   5.555
 8466POPC   PO438424  36.881  17.557   5.855
 8466POPC   GL138425  36.911  17.500   6.155
 8466POPC   GL238426  36.890  17.617   6.155
 8466POPC   C1A38427  36.861  17.518   6.455
 8466POPC   D2A38428  36.901  17.488   6.755
 8466POPC   C3A38429  36.886  17.550   7.055
 8466POPC   C4A38430  36.856  17.472   7.355
 8466POPC   C1B38431  36.857  17.791   6.455
 8466POPC   C2B38432  36.857  17.757   6.755
 8466POPC   C3B38433  36.844  17.710   7.055
 8466POPC   C4B38434  36.899  17.720   7.355
 8467POPC   NC338435  39.964   8.966   5.555
 8467POPC   PO438436  40.006   8.982   5.855
 8467POPC   GL138437  40.045   8.991   6.155
 8467POPC   GL238438  39.917   8.951   6.155
 8467POPC   C1A38439  39.958   8.974   6.455
 8467POPC   D2A38440  40.050   8.947   6.755
 8467POPC   C3A38441  39.972   8.942   7.055
 8467POPC   C4A38442  39.972   8.985   7.355
 8467POPC   C1B38443  39.798   9.039   6.455
 8467POPC   C2B38444  39.730   9.003   6.755
 8467POPC   C3B38445  39.762   9.042   7.055
 8467POPC   C4B38446  39.805   9.010   7.355
 8468POPC   NC338447   6.680  34.562   5.555
 8468POPC   PO438448   6.626  34.535   5.855
 8468POPC   GL138449   6.640  34.569   6.155
 8468POPC   GL238450   6.651  34.461   6.155
 8468POPC   C1A38451   6.605  34.607   6.455
 8468POPC   D2A38452   6.650  34.580   6.755
 8468POPC   C3A38453   6.653  34.569   7.055
 8468POPC   C4A38454   6.615  34.531   7.355
 8468POPC   C1B38455   6.690  34.319   6.455
 8468POPC   C2B38456   6.668  34.382   6.755
 8468POPC   C3B38457   6.687  34.344   7.055
 8468POPC   C4B38458   6.716  34.295   7.355
 8469POPC   NC338459   1.212  12.825   5.555
 8469POPC   PO438460   1.262  12.862   5.855
 8469POPC   GL138461   1.214  12.867   6.155
 8469POPC   GL238462   1.252  12.737   6.155
 8469POPC   C1A38463   1.193  12.862   6.455
 8469POPC   D2A38464   1.181  12.873   6.755
 8469POPC   C3A38465   1.256  12.843   7.055
 8469POPC   C4A38466   1.250  12.897   7.355
 8469POPC   C1B38467   1.248  12.632   6.455
 8469POPC   C2B38468   1.230  12.641   6.755
 8469POPC   C3B38469   1.179  12.610   7.055
 8469POPC   C4B38470   1.199  12.563   7.355
 8470POPC   NC338471   0.462   5.863   5.555
 8470POPC   PO438472   0.471   5.821   5.855
 8470POPC   GL138473   0.391   5.911   6.155
 8470POPC   GL238474   0.444   5.997   6.155
 8470POPC   C1A38475   0.485   5.856   6.455
 8470POPC   D2A38476   0.433   5.821   6.755
 8470POPC   C3A38477   0.487   5.893   7.055
 8470POPC   C4A38478   0.390   5.846   7.355
 8470POPC   C1B38479   0.436   6.066   6.455
 8470POPC   C2B38480   0.440   6.138   6.755
 8470POPC   C3B38481   0.477   6.153   7.055
 8470POPC   C4B38482   0.526   6.145   7.355
 8471POPC   NC338483  39.242   2.744   5.555
 8471POPC   PO438484  39.218   2.733   5.855
 8471POPC   GL138485  39.263   2.730   6.155
 8471POPC   GL238486  39.296   2.899   6.155
 8471POPC   C1A38487  39.222   2.746   6.455
 8471POPC   D2A38488  39.261   2.722   6.755
 8471POPC   C3A38489  39.216   2.738   7.055
 8471POPC   C4A38490  39.268   2.756   7.355
 8471POPC   C1B38491  39.270   3.020   6.455
 8471POPC   C2B38492  39.248   3.005   6.755
 8471POPC   C3B38493  39.316   3.039   7.055
 8471POPC   C4B38494  39.278   3.047   7.355
 8472POPC   NC338495  22.191  44.666   5.555
 8472POPC   PO438496  22.159  44.665   5.855
 8472POPC   GL138497  22.189  44.632   6.155
 8472POPC   GL238498  22.250  44.830   6.155
 8472POPC   C1A38499  22.206  44.688   6.455
 8472POPC   D2A38500  22.139  44.649   6.755
 8472POPC   C3A38501  22.120  44.671   7.055
 8472POPC   C4A38502  22.127  44.696   7.355
 8472POPC   C1B38503  22.272  44.920   6.455
 8472POPC   C2B38504  22.243  44.922   6.755
 8472POPC   C3B38505  22.230  44.874   7.055
 8472POPC   C4B38506  22.216  44.868   7.355
 8473POPC   NC338507  24.491  16.714   5.555
 8473POPC   PO438508  24.523  16.699   5.855
 8473POPC   GL138509  24.447  16.748   6.155
 8473POPC   GL238510  24.527  16.603   6.155
 8473POPC   C1A38511  24.496  16.730   6.455
 8473POPC   D2A38512  24.457  16.735   6.755
 8473POPC   C3A38513  24.519  16.738   7.055
 8473POPC   C4A38514  24.534  16.735   7.355
 8473POPC   C1B38515  24.700  16.561   6.455
 8473POPC   C2B38516  24.684  16.589   6.755
 8473POPC   C3B38517  24.643  16.507   7.055
 8473POPC   C4B38518  24.657  16.556   7.355
 8474POPC   NC338519  36.936  29.157   5.555
 8474POPC   PO438520  36.865  29.147   5.855
 8474POPC   GL138521  36.929  29.171   6.155
 8474POPC   GL238522  36.880  28.981   6.155
 8474POPC   C1A38523  36.896  29.132   6.455
 8474POPC   D2A38524  36.921  29.132   6.755
 8474POPC   C3A38525  36.937  29.146   7.055
 8474POPC   C4A38526  36.925  29.167   7.355
 8474POPC   C1B38527  36.915  28.925   6.455
 8474POPC   C2B38528  36.971  28.863   6.755
 8474POPC   C3B38529  36.920  28.935   7.055
 8474POPC   C4B38530  36.950  28.924   7.355
 8475POPC   NC338531  27.554   1.212   5.555
 8475POPC   PO438532  27.623   1.229   5.855
 8475POPC   GL138533  27.609   1.213   6.155
 8475POPC   GL238534  27.741   1.153   6.155
 8475POPC   C1A38535  27.597   1.205   6.455
 8475POPC   D2A38536  27.544   1.214   6.755
 8475POPC   C3A38537  27.580   1.184   7.055
 8475POPC   C4A38538  27.626   1.245   7.355
 8475POPC   C1B38539  27.774   1.119   6.455
 8475POPC   C2B38540  27.812   1.100   6.755
 8475POPC   C3B38541  27.846   1.127   7.055
 8475POPC   C4B38542  27.789   1.113   7.355
 8476POPC   NC338543  21.417  15.185   5.555
 8476POPC   PO438544  21.424  15.162   5.855
 8476POPC   GL138545  21.376  15.208   6.155
 8476POPC   GL238546  21.271  15.237   6.155
 8476POPC   C1A38547  21.408  15.214   6.455
 8476POPC   D2A38548  21.339  15.205   6.755
 8476POPC   C3A38549  21.414  15.179   7.055
 8476POPC   C4A38550  21.369  15.229   7.355
 8476POPC   C1B38551  21.215  15.318   6.455
 8476POPC   C2B38552  21.202  15.328   6.755
 8476POPC   C3B38553  21.236  15.319   7.055
 8476POPC   C4B38554  21.218  15.314   7.355
 8477POPC   NC338555  41.514  19.858   5.555
 8477POPC   PO438556  41.585  19.857   5.855
 8477POPC   GL138557  41.573  19.802   6.155
 8477POPC   GL238558  41.565  19.767   6.155
 8477POPC   C1A38559  41.578  19.815   6.455
 8477POPC   D2A38560  41.544  19.835   6.755
 8477POPC   C3A38561  41.585  19.879   7.055
 8477POPC   C4A38562  41.587  19.883   7.355
 8477POPC   C1B38563  41.633  19.612   6.455
 8477POPC   C2B38564  41.702  19.572   6.755
 8477POPC   C3B38565  41.665  19.622   7.055
 8477POPC   C4B38566  41.701  19.651   7.355
 8478POPC   NC338567  34.569   1.259   5.555
 8478POPC   PO438568  34.538   1.237   5.855
 8478POPC   GL138569  34.555   1.219   6.155
 8478POPC   GL238570  34.589   1.291   6.155
 8478POPC   C1A38571  34.578   1.216   6.455
 8478POPC   D2A38572  34.559   1.262   6.755
 8478POPC   C3A38573  34.579   1.211   7.055
 8478POPC   C4A38574  34.557   1.225   7.355
 8478POPC   C1B38575  34.476   1.434   6.455
 8478POPC   C2B38576  34.547   1.437   6.755
 8478POPC   C3B38577  34.549   1.405   7.055
 8478POPC   C4B38578  34.480   1.450   7.355
 8479POPC   NC338579  33.830  36.106   5.555
 8479POPC   PO438580  33.752  36.119   5.855
 8479POPC   GL138581  33.756  36.124   6.155
 8479POPC   GL238582  33.883  36.071   6.155
 8479POPC   C1A38583  33.783  36.114   6.455
 8479POPC   D2A38584  33.825  36.104   6.755
 8479POPC   C3A38585  33.842  36.092   7.055
 8479POPC   C4A38586  33.788  36.087   7.355
 8479POPC   C1B38587  33.977  35.967   6.455
 8479POPC   C2B38588  34.027  35.926   6.755
 8479POPC   C3B38589  34.005  35.977   7.055
 8479POPC   C4B38590  33.982  35.962   7.355
 8480POPC   NC338591  11.281  33.068   5.555
 8480POPC   PO438592  11.341  32.980   5.855
 8480POPC   GL138593  11.288  33.003   6.155
 8480POPC   GL238594  11.441  32.918   6.155
 8480POPC   C1A38595  11.324  33.045   6.455
 8480POPC   D2A38596  11.295  33.011   6.755
 8480POPC   C3A38597  11.345  33.048   7.055
 8480POPC   C4A38598  11.292  32.983   7.355
 8480POPC   C1B38599  11.518  32.862   6.455
 8480POPC   C2B38600  11.484  32.876   6.755
 8480POPC   C3B38601  11.452  32.859   7.055
 8480POPC   C4B38602  11.547  32.896   7.355
 8481POPC   NC338603  38.409   1.242   5.555
 8481POPC   PO438604  38.477   1.170   5.855
 8481POPC   GL138605  38.418   1.253   6.155
 8481POPC   GL238606  38.382   1.308   6.155
 8481POPC   C1A38607  38.426   1.195   6.455
 8481POPC   D2A38608  38.450   1.253   6.755
 8481POPC   C3A38609  38.478   1.235   7.055
 8481POPC   C4A38610  38.425   1.180   7.355
 8481POPC   C1B38611  38.409   1.441   6.455
 8481POPC   C2B38612  38.355   1.492   6.755
 8481POPC   C3B38613  38.343   1.467   7.055
 8481POPC   C4B38614  38.376   1.500   7.355
 8482POPC   NC338615  19.819  12.083   5.555
 8482POPC   PO438616  19.871  12.089   5.855
 8482POPC   GL138617  19.837  12.036   6.155
 8482POPC   GL238618  19.777  11.961   6.155
 8482POPC   C1A38619  19.849  12.037   6.455
 8482POPC   D2A38620  19.823  12.068   6.755
 8482POPC   C3A38621  19.833  12.117   7.055
 8482POPC   C4A38622  19.822  12.100   7.355
 8482POPC   C1B38623  19.652  11.890   6.455
 8482POPC   C2B38624  19.619  11.939   6.755
 8482POPC   C3B38625  19.707  11.855   7.055
 8482POPC   C4B38626  19.680  11.941   7.355
 8483POPC   NC338627   4.367  39.199   5.555
 8483POPC   PO438628   4.361  39.276   5.855
 8483POPC   GL138629   4.272  39.194   6.155
 8483POPC   GL238630   4.384  39.139   6.155
 8483POPC   C1A38631   4.345  39.243   6.455
 8483POPC   D2A38632   4.304  39.188   6.755
 8483POPC   C3A38633   4.344  39.265   7.055
 8483POPC   C4A38634   4.316  39.206   7.355
 8483POPC   C1B38635   4.488  39.057   6.455
 8483POPC   C2B38636   4.464  38.995   6.755
 8483POPC   C3B38637   4.455  39.032   7.055
 8483POPC   C4B38638   4.501  39.022   7.355
 8484POPC   NC338639   2.780  28.374   5.555
 8484POPC   PO438640   2.756  28.362   5.855
 8484POPC   GL138641   2.796  28.398   6.155
 8484POPC   GL238642   2.855  28.253   6.155
 8484POPC   C1A38643   2.762  28.367   6.455
 8484POPC   D2A38644   2.771  28.415   6.755
 8484POPC   C3A38645   2.765  28.370   7.055
 8484POPC   C4A38646   2.797  28.378   7.355
 8484POPC   C1B38647   2.854  28.129   6.455
 8484POPC   C2B38648   2.846  28.091   6.755
 8484POPC   C3B38649   2.871  28.150   7.055
 8484POPC   C4B38650   2.816  28.101   7.355
 8485POPC   NC338651  40.001  21.420   5.555
 8485POPC   PO438652  40.006  21.342   5.855
 8485POPC   GL138653  39.979  21.356   6.155
 8485POPC   GL238654  40.042  21.264   6.155
 8485POPC   C1A38655  40.044  21.416   6.455
 8485POPC   D2A38656  40.035  21.373   6.755
 8485POPC   C3A38657  40.015  21.433   7.055
 8485POPC   C4A38658  39.976  21.346   7.355
 8485POPC   C1B38659  39.998  21.143   6.455
 8485POPC   C2B38660  40.060  21.111   6.755
 8485POPC   C3B38661  39.994  21.162   7.055
 8485POPC   C4B38662  40.021  21.181   7.355
 8486POPC   NC338663  19.020  12.032   5.555
 8486POPC   PO438664  19.009  12.112   5.855
 8486POPC   GL138665  19.076  12.104   6.155
 8486POPC   GL238666  19.105  11.980   6.155
 8486POPC   C1A38667  19.029  12.073   6.455
 8486POPC   D2A38668  19.032  12.086   6.755
 8486POPC   C3A38669  19.091  12.125   7.055
 8486POPC   C4A38670  19.036  12.052   7.355
 8486POPC   C1B38671  19.224  11.908   6.455
 8486POPC   C2B38672  19.175  11.840   6.755
 8486POPC   C3B38673  19.148  11.900   7.055
 8486POPC   C4B38674  19.179  11.830   7.355
 8487POPC   NC338675  41.600  15.935   5.555
 8487POPC   PO438676  41.597  15.942   5.855
 8487POPC   GL138677  41.576  15.966   6.155
 8487POPC   GL238678  41.389  15.994   6.155
 8487POPC   C1A38679  41.563  15.980   6.455
 8487POPC   D2A38680  41.602  15.955   6.755
 8487POPC   C3A38681  41.590  15.938   7.055
 8487POPC   C4A38682  41.555  15.949   7.355
 8487POPC   C1B38683  41.311  15.907   6.455
 8487POPC   C2B38684  41.325  15.970   6.755
 8487POPC   C3B38685  41.319  15.946   7.055
 8487POPC   C4B38686  41.270  15.974   7.355
 8488POPC   NC338687  33.807  26.835   5.555
 8488POPC   PO438688  33.804  26.849   5.855
 8488POPC   GL138689  33.753  26.842   6.155
 8488POPC   GL238690  33.717  26.877   6.155
 8488POPC   C1A38691  33.771  26.812   6.455
 8488POPC   D2A38692  33.778  26.773   6.755
 8488POPC   C3A38693  33.785  26.810   7.055
 8488POPC   C4A38694  33.819  26.842   7.355
 8488POPC   C1B38695  33.610  26.900   6.455
 8488POPC   C2B38696  33.523  26.889   6.755
 8488POPC   C3B38697  33.606  26.885   7.055
 8488POPC   C4B38698  33.582  26.873   7.355
 8489POPC   NC338699  15.933  32.203   5.555
 8489POPC   PO438700  15.909  32.278   5.855
 8489POPC   GL138701  15.937  32.260   6.155
 8489POPC   GL238702  16.095  32.224   6.155
 8489POPC   C1A38703  15.972  32.208   6.455
 8489POPC   D2A38704  15.909  32.205   6.755
 8489POPC   C3A38705  15.943  32.293   7.055
 8489POPC   C4A38706  15.973  32.267   7.355
 8489POPC   C1B38707  16.196  32.064   6.455
 8489POPC   C2B38708  16.149  32.076   6.755
 8489POPC   C3B38709  16.177  32.081   7.055
 8489POPC   C4B38710  16.132  32.073   7.355
 8490POPC   NC338711   5.896   1.966   5.555
 8490POPC   PO438712   5.859   1.988   5.855
 8490POPC   GL138713   5.860   2.011   6.155
 8490POPC   GL238714   5.972   1.945   6.155
 8490POPC   C1A38715   5.883   1.994   6.455
 8490POPC   D2A38716   5.839   2.018   6.755
 8490POPC   C3A38717   5.899   1.940   7.055
 8490POPC   C4A38718   5.919   1.959   7.355
 8490POPC   C1B38719   6.064   1.879   6.455
 8490POPC   C2B38720   6.070   1.960   6.755
 8490POPC   C3B38721   6.143   1.963   7.055
 8490POPC   C4B38722   6.066   1.955   7.355
 8491POPC   NC338723  22.144  16.768   5.555
 8491POPC   PO438724  22.149  16.712   5.855
 8491POPC   GL138725  22.185  16.711   6.155
 8491POPC   GL238726  22.094  16.772   6.155
 8491POPC   C1A38727  22.164  16.719   6.455
 8491POPC   D2A38728  22.174  16.776   6.755
 8491POPC   C3A38729  22.193  16.749   7.055
 8491POPC   C4A38730  22.186  16.716   7.355
 8491POPC   C1B38731  21.954  16.902   6.455
 8491POPC   C2B38732  22.003  16.866   6.755
 8491POPC   C3B38733  21.938  16.836   7.055
 8491POPC   C4B38734  21.957  16.904   7.355
 8492POPC   NC338735  33.793   7.448   5.555
 8492POPC   PO438736  33.753   7.456   5.855
 8492POPC   GL138737  33.753   7.465   6.155
 8492POPC   GL238738  33.864   7.285   6.155
 8492POPC   C1A38739  33.767   7.420   6.455
 8492POPC   D2A38740  33.770   7.452   6.755
 8492POPC   C3A38741  33.775   7.414   7.055
 8492POPC   C4A38742  33.816   7.395   7.355
 8492POPC   C1B38743  34.005   7.237   6.455
 8492POPC   C2B38744  33.988   7.288   6.755
 8492POPC   C3B38745  33.949   7.267   7.055
 8492POPC   C4B38746  34.013   7.295   7.355
 8493POPC   NC338747  15.139  44.681   5.555
 8493POPC   PO438748  15.144  44.635   5.855
 8493POPC   GL138749  15.145  44.654   6.155
 8493POPC   GL238750  15.141  44.793   6.155
 8493POPC   C1A38751  15.203  44.705   6.455
 8493POPC   D2A38752  15.217  44.700   6.755
 8493POPC   C3A38753  15.215  44.674   7.055
 8493POPC   C4A38754  15.204  44.635   7.355
 8493POPC   C1B38755  15.085  44.906   6.455
 8493POPC   C2B38756  15.089  44.852   6.755
 8493POPC   C3B38757  15.098  44.918   7.055
 8493POPC   C4B38758  15.129  44.880   7.355
 8494POPC   NC338759  39.208  26.854   5.555
 8494POPC   PO438760  39.262  26.866   5.855
 8494POPC   GL138761  39.218  26.866   6.155
 8494POPC   GL238762  39.109  26.729   6.155
 8494POPC   C1A38763  39.194  26.841   6.455
 8494POPC   D2A38764  39.260  26.810   6.755
 8494POPC   C3A38765  39.205  26.843   7.055
 8494POPC   C4A38766  39.188  26.814   7.355
 8494POPC   C1B38767  39.029  26.684   6.455
 8494POPC   C2B38768  38.973  26.683   6.755
 8494POPC   C3B38769  39.055  26.721   7.055
 8494POPC   C4B38770  39.003  26.721   7.355
 8495POPC   NC338771  16.713  15.146   5.555
 8495POPC   PO438772  16.714  15.176   5.855
 8495POPC   GL138773  16.693  15.135   6.155
 8495POPC   GL238774  16.663  15.108   6.155
 8495POPC   C1A38775  16.760  15.131   6.455
 8495POPC   D2A38776  16.735  15.188   6.755
 8495POPC   C3A38777  16.684  15.144   7.055
 8495POPC   C4A38778  16.727  15.154   7.355
 8495POPC   C1B38779  16.655  14.954   6.455
 8495POPC   C2B38780  16.658  14.911   6.755
 8495POPC   C3B38781  16.598  14.964   7.055
 8495POPC   C4B38782  16.666  14.963   7.355
 8496POPC   NC338783   5.820  42.318   5.555
 8496POPC   PO438784   5.838  42.337   5.855
 8496POPC   GL138785   5.876  42.338   6.155
 8496POPC   GL238786   5.834  42.447   6.155
 8496POPC   C1A38787   5.895  42.374   6.455
 8496POPC   D2A38788   5.863  42.320   6.755
 8496POPC   C3A38789   5.874  42.370   7.055
 8496POPC   C4A38790   5.856  42.294   7.355
 8496POPC   C1B38791   5.872  42.613   6.455
 8496POPC   C2B38792   5.862  42.583   6.755
 8496POPC   C3B38793   5.862  42.552   7.055
 8496POPC   C4B38794   5.814  42.555   7.355
 8497POPC   NC338795  38.455  30.690   5.555
 8497POPC   PO438796  38.495  30.718   5.855
 8497POPC   GL138797  38.444  30.713   6.155
 8497POPC   GL238798  38.487  30.538   6.155
 8497POPC   C1A38799  38.406  30.696   6.455
 8497POPC   D2A38800  38.480  30.734   6.755
 8497POPC   C3A38801  38.483  30.684   7.055
 8497POPC   C4A38802  38.500  30.671   7.355
 8497POPC   C1B38803  38.602  30.443   6.455
 8497POPC   C2B38804  38.571  30.451   6.755
 8497POPC   C3B38805  38.530  30.453   7.055
 8497POPC   C4B38806  38.595  30.520   7.355
 8498POPC   NC338807  18.276   8.196   5.555
 8498POPC   PO438808  18.278   8.170   5.855
 8498POPC   GL138809  18.239   8.220   6.155
 8498POPC   GL238810  18.150   8.099   6.155
 8498POPC   C1A38811  18.312   8.178   6.455
 8498POPC   D2A38812  18.250   8.241   6.755
 8498POPC   C3A38813  18.303   8.235   7.055
 8498POPC   C4A38814  18.264   8.191   7.355
 8498POPC   C1B38815  18.127   7.971   6.455
 8498POPC   C2B38816  18.100   8.018   6.755
 8498POPC   C3B38817  18.151   8.023   7.055
 8498POPC   C4B38818  18.090   8.044   7.355
 8499POPC   NC338819   6.667  19.824   5.555
 8499POPC   PO438820   6.684  19.841   5.855
 8499POPC   GL138821   6.683  19.870   6.155
 8499POPC   GL238822   6.676  19.962   6.155
 8499POPC   C1A38823   6.665  19.834   6.455
 8499POPC   D2A38824   6.628  19.869   6.755
 8499POPC   C3A38825   6.645  19.810   7.055
 8499POPC   C4A38826   6.690  19.845   7.355
 8499POPC   C1B38827   6.734  20.085   6.455
 8499POPC   C2B38828   6.693  20.105   6.755
 8499POPC   C3B38829   6.708  20.065   7.055
 8499POPC   C4B38830   6.692  20.059   7.355
 8500POPC   NC338831   2.780  23.677   5.555
 8500POPC   PO438832   2.785  23.672   5.855
 8500POPC   GL138833   2.797  23.694   6.155
 8500POPC   GL238834   2.633  23.715   6.155
 8500POPC   C1A38835   2.797  23.741   6.455
 8500POPC   D2A38836   2.726  23.664   6.755
 8500POPC   C3A38837   2.783  23.666   7.055
 8500POPC   C4A38838   2.726  23.759   7.355
 8500POPC   C1B38839   2.526  23.724   6.455
 8500POPC   C2B38840   2.487  23.760   6.755
 8500POPC   C3B38841   2.477  23.690   7.055
 8500POPC   C4B38842   2.475  23.760   7.355
 8501POPC   NC338843   7.453  44.689   5.555
 8501POPC   PO438844   7.398  44.687   5.855
 8501POPC   GL138845   7.404  44.667   6.155
 8501POPC   GL238846   7.489  44.608   6.155
 8501POPC   C1A38847   7.448  44.703   6.455
 8501POPC   D2A38848   7.448  44.699   6.755
 8501POPC   C3A38849   7.460  44.705   7.055
 8501POPC   C4A38850   7.436  44.701   7.355
 8501POPC   C1B38851   7.596  44.510   6.455
 8501POPC   C2B38852   7.577  44.523   6.755
 8501POPC   C3B38853   7.629  44.489   7.055
 8501POPC   C4B38854   7.638  44.510   7.355
 8502POPC   NC338855  28.407   8.199   5.555
 8502POPC   PO438856  28.407   8.197   5.855
 8502POPC   GL138857  28.373   8.156   6.155
 8502POPC   GL238858  28.375   8.303   6.155
 8502POPC   C1A38859  28.324   8.182   6.455
 8502POPC   D2A38860  28.415   8.237   6.755
 8502POPC   C3A38861  28.334   8.164   7.055
 8502POPC   C4A38862  28.355   8.191   7.355
 8502POPC   C1B38863  28.357   8.447   6.455
 8502POPC   C2B38864  28.283   8.466   6.755
 8502POPC   C3B38865  28.292   8.483   7.055
 8502POPC   C4B38866  28.303   8.391   7.355
 8503POPC   NC338867  30.717  27.605   5.555
 8503POPC   PO438868  30.654  27.605   5.855
 8503POPC   GL138869  30.731  27.591   6.155
 8503POPC   GL238870  30.763  27.514   6.155
 8503POPC   C1A38871  30.723  27.625   6.455
 8503POPC   D2A38872  30.682  27.614   6.755
 8503POPC   C3A38873  30.718  27.635   7.055
 8503POPC   C4A38874  30.649  27.630   7.355
 8503POPC   C1B38875  30.779  27.386   6.455
 8503POPC   C2B38876  30.830  27.426   6.755
 8503POPC   C3B38877  30.788  27.408   7.055
 8503POPC   C4B38878  30.793  27.345   7.355
 8504POPC   NC338879  29.147  21.361   5.555
 8504POPC   PO438880  29.176  21.372   5.855
 8504POPC   GL138881  29.160  21.354   6.155
 8504POPC   GL238882  29.075  21.272   6.155
 8504POPC   C1A38883  29.159  21.433   6.455
 8504POPC   D2A38884  29.193  21.374   6.755
 8504POPC   C3A38885  29.104  21.418   7.055
 8504POPC   C4A38886  29.174  21.396   7.355
 8504POPC   C1B38887  28.996  21.215   6.455
 8504POPC   C2B38888  28.977  21.211   6.755
 8504POPC   C3B38889  28.967  21.180   7.055
 8504POPC   C4B38890  28.989  21.244   7.355
 8505POPC   NC338891  16.741  14.446   5.555
 8505POPC   PO438892  16.694  14.379   5.855
 8505POPC   GL138893  16.681  14.384   6.155
 8505POPC   GL238894  16.678  14.346   6.155
 8505POPC   C1A38895  16.732  14.414   6.455
 8505POPC   D2A38896  16.763  14.444   6.755
 8505POPC   C3A38897  16.753  14.384   7.055
 8505POPC   C4A38898  16.743  14.385   7.355
 8505POPC   C1B38899  16.596  14.227   6.455
 8505POPC   C2B38900  16.598  14.225   6.755
 8505POPC   C3B38901  16.556  14.206   7.055
 8505POPC   C4B38902  16.567  14.228   7.355
 8506POPC   NC338903  39.211  19.879   5.555
 8506POPC   PO438904  39.260  19.838   5.855
 8506POPC   GL138905  39.236  19.856   6.155
 8506POPC   GL238906  39.281  19.992   6.155
 8506POPC   C1A38907  39.233  19.874   6.455
 8506POPC   D2A38908  39.213  19.862   6.755
 8506POPC   C3A38909  39.207  19.814   7.055
 8506POPC   C4A38910  39.189  19.810   7.355
 8506POPC   C1B38911  39.331  20.117   6.455
 8506POPC   C2B38912  39.341  20.101   6.755
 8506POPC   C3B38913  39.310  20.089   7.055
 8506POPC   C4B38914  39.282  20.029   7.355
 8507POPC   NC338915  19.054   1.164   5.555
 8507POPC   PO438916  19.086   1.215   5.855
 8507POPC   GL138917  19.037   1.202   6.155
 8507POPC   GL238918  19.154   1.113   6.155
 8507POPC   C1A38919  19.031   1.229   6.455
 8507POPC   D2A38920  19.082   1.237   6.755
 8507POPC   C3A38921  19.068   1.185   7.055
 8507POPC   C4A38922  19.039   1.256   7.355
 8507POPC   C1B38923  19.265   1.042   6.455
 8507POPC   C2B38924  19.282   1.078   6.755
 8507POPC   C3B38925  19.273   1.060   7.055
 8507POPC   C4B38926  19.227   1.067   7.355
 8508POPC   NC338927  15.185  11.270   5.555
 8508POPC   PO438928  15.174  11.325   5.855
 8508POPC   GL138929  15.216  11.263   6.155
 8508POPC   GL238930  15.177  11.216   6.155
 8508POPC   C1A38931  15.188  11.270   6.455
 8508POPC   D2A38932  15.204  11.298   6.755
 8508POPC   C3A38933  15.198  11.309   7.055
 8508POPC   C4A38934  15.132  11.316   7.355
 8508POPC   C1B38935  15.158  11.038   6.455
 8508POPC   C2B38936  15.199  11.022   6.755
 8508POPC   C3B38937  15.216  11.088   7.055
 8508POPC   C4B38938  15.196  11.053   7.355
 8509POPC   NC338939   6.654  30.742   5.555
 8509POPC   PO438940   6.598  30.659   5.855
 8509POPC   GL138941   6.681  30.682   6.155
 8509POPC   GL238942   6.586  30.601   6.155
 8509POPC   C1A38943   6.661  30.719   6.455
 8509POPC   D2A38944   6.621  30.700   6.755
 8509POPC   C3A38945   6.654  30.673   7.055
 8509POPC   C4A38946   6.632  30.702   7.355
 8509POPC   C1B38947   6.516  30.434   6.455
 8509POPC   C2B38948   6.502  30.518   6.755
 8509POPC   C3B38949   6.580  30.515   7.055
 8509POPC   C4B38950   6.540  30.516   7.355
 8510POPC   NC338951  25.244  29.151   5.555
 8510POPC   PO438952  25.252  29.141   5.855
 8510POPC   GL138953  25.305  29.122   6.155
 8510POPC   GL238954  25.335  29.196   6.155
 8510POPC   C1A38955  25.274  29.179   6.455
 8510POPC   D2A38956  25.295  29.148   6.755
 8510POPC   C3A38957  25.223  29.144   7.055
 8510POPC   C4A38958  25.274  29.193   7.355
 8510POPC   C1B38959  25.477  29.341   6.455
 8510POPC   C2B38960  25.446  29.261   6.755
 8510POPC   C3B38961  25.455  29.268   7.055
 8510POPC   C4B38962  25.427  29.304   7.355
 8511POPC   NC338963  28.349  23.728   5.555
 8511POPC   PO438964  28.330  23.691   5.855
 8511POPC   GL138965  28.348  23.680   6.155
 8511POPC   GL238966  28.358  23.576   6.155
 8511POPC   C1A38967  28.407  23.740   6.455
 8511POPC   D2A38968  28.340  23.723   6.755
 8511POPC   C3A38969  28.330  23.672   7.055
 8511POPC   C4A38970  28.323  23.689   7.355
 8511POPC   C1B38971  28.285  23.525   6.455
 8511POPC   C2B38972  28.206  23.542   6.755
 8511POPC   C3B38973  28.260  23.521   7.055
 8511POPC   C4B38974  28.230  23.519   7.355
 8512POPC   NC338975  35.399  28.382   5.555
 8512POPC   PO438976  35.382  28.391   5.855
 8512POPC   GL138977  35.306  28.330   6.155
 8512POPC   GL238978  35.519  28.411   6.155
 8512POPC   C1A38979  35.357  28.396   6.455
 8512POPC   D2A38980  35.334  28.365   6.755
 8512POPC   C3A38981  35.354  28.374   7.055
 8512POPC   C4A38982  35.368  28.369   7.355
 8512POPC   C1B38983  35.595  28.343   6.455
 8512POPC   C2B38984  35.576  28.384   6.755
 8512POPC   C3B38985  35.611  28.319   7.055
 8512POPC   C4B38986  35.637  28.318   7.355
 8513POPC   NC338987  24.442  33.776   5.555
 8513POPC   PO438988  24.531  33.789   5.855
 8513POPC   GL138989  24.516  33.756   6.155
 8513POPC   GL238990  24.618  33.856   6.155
 8513POPC   C1A38991  24.489  33.766   6.455
 8513POPC   D2A38992  24.521  33.766   6.755
 8513POPC   C3A38993  24.535  33.770   7.055
 8513POPC   C4A38994  24.514  33.836   7.355
 8513POPC   C1B38995  24.783  33.888   6.455
 8513POPC   C2B38996  24.779  33.855   6.755
 8513POPC   C3B38997  24.713  33.829   7.055
 8513POPC   C4B38998  24.697  33.865   7.355
 8514POPC   NC338999  12.892  34.547   5.555
 8514POPC   PO439000  12.857  34.529   5.855
 8514POPC   GL139001  12.885  34.538   6.155
 8514POPC   GL239002  12.971  34.607   6.155
 8514POPC   C1A39003  12.889  34.577   6.455
 8514POPC   D2A39004  12.855  34.531   6.755
 8514POPC   C3A39005  12.873  34.570   7.055
 8514POPC   C4A39006  12.804  34.555   7.355
 8514POPC   C1B39007  13.033  34.642   6.455
 8514POPC   C2B39008  13.052  34.672   6.755
 8514POPC   C3B39009  13.046  34.672   7.055
 8514POPC   C4B39010  13.066  34.645   7.355
 8515POPC   NC339011  24.536  18.274   5.555
 8515POPC   PO439012  24.511  18.272   5.855
 8515POPC   GL139013  24.504  18.329   6.155
 8515POPC   GL239014  24.606  18.304   6.155
 8515POPC   C1A39015  24.528  18.293   6.455
 8515POPC   D2A39016  24.516  18.297   6.755
 8515POPC   C3A39017  24.483  18.321   7.055
 8515POPC   C4A39018  24.487  18.284   7.355
 8515POPC   C1B39019  24.734  18.364   6.455
 8515POPC   C2B39020  24.735  18.367   6.755
 8515POPC   C3B39021  24.739  18.341   7.055
 8515POPC   C4B39022  24.739  18.352   7.355
 8516POPC   NC339023  38.496  23.689   5.555
 8516POPC   PO439024  38.420  23.699   5.855
 8516POPC   GL139025  38.463  23.711   6.155
 8516POPC   GL239026  38.308  23.690   6.155
 8516POPC   C1A39027  38.475  23.683   6.455
 8516POPC   D2A39028  38.452  23.708   6.755
 8516POPC   C3A39029  38.414  23.762   7.055
 8516POPC   C4A39030  38.455  23.685   7.355
 8516POPC   C1B39031  38.167  23.679   6.455
 8516POPC   C2B39032  38.183  23.659   6.755
 8516POPC   C3B39033  38.161  23.717   7.055
 8516POPC   C4B39034  38.249  23.723   7.355
 8517POPC   NC339035   8.924  40.811   5.555
 8517POPC   PO439036   8.946  40.806   5.855
 8517POPC   GL139037   8.993  40.738   6.155
 8517POPC   GL239038   9.058  40.727   6.155
 8517POPC   C1A39039   8.970  40.788   6.455
 8517POPC   D2A39040   8.962  40.791   6.755
 8517POPC   C3A39041   9.010  40.772   7.055
 8517POPC   C4A39042   8.998  40.810   7.355
 8517POPC   C1B39043   9.132  40.569   6.455
 8517POPC   C2B39044   9.167  40.630   6.755
 8517POPC   C3B39045   9.176  40.636   7.055
 8517POPC   C4B39046   9.152  40.620   7.355
 8518POPC   NC339047  10.567  23.742   5.555
 8518POPC   PO439048  10.522  23.678   5.855
 8518POPC   GL139049  10.563  23.753   6.155
 8518POPC   GL239050  10.595  23.802   6.155
 8518POPC   C1A39051  10.552  23.693   6.455
 8518POPC   D2A39052  10.560  23.681   6.755
 8518POPC   C3A39053  10.513  23.691   7.055
 8518POPC   C4A39054  10.515  23.691   7.355
 8518POPC   C1B39055  10.563  23.969   6.455
 8518POPC   C2B39056  10.557  23.971   6.755
 8518POPC   C3B39057  10.587  24.005   7.055
 8518POPC   C4B39058  10.579  24.003   7.355
 8519POPC   NC339059  25.270  35.304   5.555
 8519POPC   PO439060  25.264  35.355   5.855
 8519POPC   GL139061  25.268  35.350   6.155
 8519POPC   GL239062  25.201  35.228   6.155
 8519POPC   C1A39063  25.313  35.399   6.455
 8519POPC   D2A39064  25.227  35.354   6.755
 8519POPC   C3A39065  25.266  35.386   7.055
 8519POPC   C4A39066  25.223  35.373   7.355
 8519POPC   C1B39067  25.203  35.111   6.455
 8519POPC   C2B39068  25.162  35.152   6.755
 8519POPC   C3B39069  25.164  35.117   7.055
 8519POPC   C4B39070  25.206  35.097   7.355
 8520POPC   NC339071  38.498   2.034   5.555
 8520POPC   PO439072  38.478   1.974   5.855
 8520POPC   GL139073  38.480   2.015   6.155
 8520POPC   GL239074  38.585   2.038   6.155
 8520POPC   C1A39075  38.437   1.950   6.455
 8520POPC   D2A39076  38.451   2.036   6.755
 8520POPC   C3A39077  38.457   2.029   7.055
 8520POPC   C4A39078  38.458   2.002   7.355
 8520POPC   C1B39079  38.639   2.154   6.455
 8520POPC   C2B39080  38.703   2.100   6.755
 8520POPC   C3B39081  38.671   2.072   7.055
 8520POPC   C4B39082  38.710   2.095   7.355
 8521POPC   NC339083  18.247  39.265   5.555
 8521POPC   PO439084  18.275  39.226   5.855
 8521POPC   GL139085  18.332  39.254   6.155
 8521POPC   GL239086  18.223  39.143   6.155
 8521POPC   C1A39087  18.253  39.190   6.455
 8521POPC   D2A39088  18.249  39.230   6.755
 8521POPC   C3A39089  18.275  39.211   7.055
 8521POPC   C4A39090  18.242  39.261   7.355
 8521POPC   C1B39091  18.096  39.086   6.455
 8521POPC   C2B39092  18.142  39.067   6.755
 8521POPC   C3B39093  18.110  39.093   7.055
 8521POPC   C4B39094  18.100  39.045   7.355
 8522POPC   NC339095  42.285  21.348   5.555
 8522POPC   PO439096  42.360  21.414   5.855
 8522POPC   GL139097  42.304  21.428   6.155
 8522POPC   GL239098  42.287  21.291   6.155
 8522POPC   C1A39099  42.332  21.344   6.455
 8522POPC   D2A39100  42.340  21.379   6.755
 8522POPC   C3A39101  42.371  21.373   7.055
 8522POPC   C4A39102  42.331  21.371   7.355
 8522POPC   C1B39103  42.220  21.150   6.455
 8522POPC   C2B39104  42.168  21.179   6.755
 8522POPC   C3B39105  42.166  21.215   7.055
 8522POPC   C4B39106  42.144  21.152   7.355
 8523POPC   NC339107  31.488   1.240   5.555
 8523POPC   PO439108  31.500   1.255   5.855
 8523POPC   GL139109  31.448   1.230   6.155
 8523POPC   GL239110  31.556   1.295   6.155
 8523POPC   C1A39111  31.456   1.223   6.455
 8523POPC   D2A39112  31.479   1.257   6.755
 8523POPC   C3A39113  31.518   1.172   7.055
 8523POPC   C4A39114  31.447   1.206   7.355
 8523POPC   C1B39115  31.618   1.420   6.455
 8523POPC   C2B39116  31.624   1.377   6.755
 8523POPC   C3B39117  31.586   1.428   7.055
 8523POPC   C4B39118  31.564   1.448   7.355
 8524POPC   NC339119  22.173  35.319   5.555
 8524POPC   PO439120  22.208  35.321   5.855
 8524POPC   GL139121  22.211  35.390   6.155
 8524POPC   GL239122  22.177  35.190   6.155
 8524POPC   C1A39123  22.119  35.388   6.455
 8524POPC   D2A39124  22.203  35.373   6.755
 8524POPC   C3A39125  22.201  35.343   7.055
 8524POPC   C4A39126  22.163  35.377   7.355
 8524POPC   C1B39127  22.245  35.119   6.455
 8524POPC   C2B39128  22.213  35.157   6.755
 8524POPC   C3B39129  22.284  35.118   7.055
 8524POPC   C4B39130  22.248  35.156   7.355
 8525POPC   NC339131  36.953  12.868   5.555
 8525POPC   PO439132  36.878  12.851   5.855
 8525POPC   GL139133  36.857  12.809   6.155
 8525POPC   GL239134  36.801  12.836   6.155
 8525POPC   C1A39135  36.886  12.894   6.455
 8525POPC   D2A39136  36.953  12.879   6.755
 8525POPC   C3A39137  36.930  12.890   7.055
 8525POPC   C4A39138  36.899  12.836   7.355
 8525POPC   C1B39139  36.696  12.767   6.455
 8525POPC   C2B39140  36.638  12.770   6.755
 8525POPC   C3B39141  36.671  12.792   7.055
 8525POPC   C4B39142  36.644  12.798   7.355
 8526POPC   NC339143  26.041  40.759   5.555
 8526POPC   PO439144  26.083  40.819   5.855
 8526POPC   GL139145  26.020  40.763   6.155
 8526POPC   GL239146  26.188  40.805   6.155
 8526POPC   C1A39147  26.039  40.784   6.455
 8526POPC   D2A39148  26.055  40.792   6.755
 8526POPC   C3A39149  26.035  40.792   7.055
 8526POPC   C4A39150  26.039  40.768   7.355
 8526POPC   C1B39151  26.248  40.787   6.455
 8526POPC   C2B39152  26.287  40.880   6.755
 8526POPC   C3B39153  26.253  40.822   7.055
 8526POPC   C4B39154  26.266  40.881   7.355
 8527POPC   NC339155   9.000  37.691   5.555
 8527POPC   PO439156   8.936  37.667   5.855
 8527POPC   GL139157   9.007  37.711   6.155
 8527POPC   GL239158   8.950  37.578   6.155
 8527POPC   C1A39159   8.924  37.653   6.455
 8527POPC   D2A39160   8.942  37.708   6.755
 8527POPC   C3A39161   8.936  37.696   7.055
 8527POPC   C4A39162   9.007  37.723   7.355
 8527POPC   C1B39163   9.015  37.437   6.455
 8527POPC   C2B39164   8.981  37.449   6.755
 8527POPC   C3B39165   9.023  37.481   7.055
 8527POPC   C4B39166   8.978  37.426   7.355
 8528POPC   NC339167   6.658   5.828   5.555
 8528POPC   PO439168   6.659   5.825   5.855
 8528POPC   GL139169   6.658   5.916   6.155
 8528POPC   GL239170   6.583   5.774   6.155
 8528POPC   C1A39171   6.690   5.913   6.455
 8528POPC   D2A39172   6.695   5.849   6.755
 8528POPC   C3A39173   6.691   5.838   7.055
 8528POPC   C4A39174   6.619   5.834   7.355
 8528POPC   C1B39175   6.468   5.696   6.455
 8528POPC   C2B39176   6.448   5.743   6.755
 8528POPC   C3B39177   6.486   5.724   7.055
 8528POPC   C4B39178   6.421   5.653   7.355
 8529POPC   NC339179   3.588  36.924   5.555
 8529POPC   PO439180   3.515  36.916   5.855
 8529POPC   GL139181   3.554  36.912   6.155
 8529POPC   GL239182   3.683  36.903   6.155
 8529POPC   C1A39183   3.582  36.870   6.455
 8529POPC   D2A39184   3.576  36.903   6.755
 8529POPC   C3A39185   3.544  36.878   7.055
 8529POPC   C4A39186   3.527  36.867   7.355
 8529POPC   C1B39187   3.796  36.866   6.455
 8529POPC   C2B39188   3.772  36.889   6.755
 8529POPC   C3B39189   3.829  36.872   7.055
 8529POPC   C4B39190   3.763  36.865   7.355
 8530POPC   NC339191  13.611  36.902   5.555
 8530POPC   PO439192  13.661  36.935   5.855
 8530POPC   GL139193  13.589  36.950   6.155
 8530POPC   GL239194  13.758  36.797   6.155
 8530POPC   C1A39195  13.636  36.904   6.455
 8530POPC   D2A39196  13.661  36.936   6.755
 8530POPC   C3A39197  13.584  36.869   7.055
 8530POPC   C4A39198  13.627  36.886   7.355
 8530POPC   C1B39199  13.810  36.780   6.455
 8530POPC   C2B39200  13.874  36.734   6.755
 8530POPC   C3B39201  13.827  36.799   7.055
 8530POPC   C4B39202  13.872  36.723   7.355
 8531POPC   NC339203  33.010  18.317   5.555
 8531POPC   PO439204  33.028  18.272   5.855
 8531POPC   GL139205  33.006  18.321   6.155
 8531POPC   GL239206  32.920  18.408   6.155
 8531POPC   C1A39207  33.069  18.256   6.455
 8531POPC   D2A39208  33.052  18.237   6.755
 8531POPC   C3A39209  33.051  18.253   7.055
 8531POPC   C4A39210  33.054  18.310   7.355
 8531POPC   C1B39211  32.834  18.503   6.455
 8531POPC   C2B39212  32.895  18.486   6.755
 8531POPC   C3B39213  32.854  18.453   7.055
 8531POPC   C4B39214  32.907  18.440   7.355
 8532POPC   NC339215  38.421  12.886   5.555
 8532POPC   PO439216  38.449  12.862   5.855
 8532POPC   GL139217  38.484  12.863   6.155
 8532POPC   GL239218  38.618  12.813   6.155
 8532POPC   C1A39219  38.469  12.894   6.455
 8532POPC   D2A39220  38.424  12.883   6.755
 8532POPC   C3A39221  38.469  12.844   7.055
 8532POPC   C4A39222  38.431  12.888   7.355
 8532POPC   C1B39223  38.729  12.807   6.455
 8532POPC   C2B39224  38.705  12.839   6.755
 8532POPC   C3B39225  38.677  12.847   7.055
 8532POPC   C4B39226  38.711  12.868   7.355
 8533POPC   NC339227  12.859  18.250   5.555
 8533POPC   PO439228  12.855  18.298   5.855
 8533POPC   GL139229  12.865  18.312   6.155
 8533POPC   GL239230  12.764  18.318   6.155
 8533POPC   C1A39231  12.822  18.250   6.455
 8533POPC   D2A39232  12.830  18.260   6.755
 8533POPC   C3A39233  12.872  18.280   7.055
 8533POPC   C4A39234  12.864  18.275   7.355
 8533POPC   C1B39235  12.639  18.365   6.455
 8533POPC   C2B39236  12.583  18.356   6.755
 8533POPC   C3B39237  12.642  18.443   7.055
 8533POPC   C4B39238  12.670  18.422   7.355
 8534POPC   NC339239  13.620  20.575   5.555
 8534POPC   PO439240  13.602  20.615   5.855
 8534POPC   GL139241  13.661  20.615   6.155
 8534POPC   GL239242  13.538  20.619   6.155
 8534POPC   C1A39243  13.610  20.598   6.455
 8534POPC   D2A39244  13.591  20.628   6.755
 8534POPC   C3A39245  13.617  20.596   7.055
 8534POPC   C4A39246  13.669  20.572   7.355
 8534POPC   C1B39247  13.337  20.631   6.455
 8534POPC   C2B39248  13.358  20.627   6.755
 8534POPC   C3B39249  13.377  20.631   7.055
 8534POPC   C4B39250  13.422  20.644   7.355
 8535POPC   NC339251  34.584  18.251   5.555
 8535POPC   PO439252  34.556  18.286   5.855
 8535POPC   GL139253  34.543  18.295   6.155
 8535POPC   GL239254  34.496  18.320   6.155
 8535POPC   C1A39255  34.540  18.271   6.455
 8535POPC   D2A39256  34.619  18.306   6.755
 8535POPC   C3A39257  34.603  18.280   7.055
 8535POPC   C4A39258  34.607  18.331   7.355
 8535POPC   C1B39259  34.372  18.427   6.455
 8535POPC   C2B39260  34.384  18.384   6.755
 8535POPC   C3B39261  34.359  18.466   7.055
 8535POPC   C4B39262  34.343  18.471   7.355
 8536POPC   NC339263   9.716   8.980   5.555
 8536POPC   PO439264   9.758   8.928   5.855
 8536POPC   GL139265   9.742   8.982   6.155
 8536POPC   GL239266   9.689   8.843   6.155
 8536POPC   C1A39267   9.796   9.020   6.455
 8536POPC   D2A39268   9.764   8.929   6.755
 8536POPC   C3A39269   9.789   8.968   7.055
 8536POPC   C4A39270   9.707   8.959   7.355
 8536POPC   C1B39271   9.599   8.799   6.455
 8536POPC   C2B39272   9.584   8.822   6.755
 8536POPC   C3B39273   9.578   8.837   7.055
 8536POPC   C4B39274   9.538   8.843   7.355
 8537POPC   NC339275  29.181  20.614   5.555
 8537POPC   PO439276  29.169  20.594   5.855
 8537POPC   GL139277  29.181  20.619   6.155
 8537POPC   GL239278  29.005  20.500   6.155
 8537POPC   C1A39279  29.154  20.567   6.455
 8537POPC   D2A39280  29.194  20.581   6.755
 8537POPC   C3A39281  29.192  20.568   7.055
 8537POPC   C4A39282  29.194  20.636   7.355
 8537POPC   C1B39283  28.919  20.471   6.455
 8537POPC   C2B39284  28.936  20.451   6.755
 8537POPC   C3B39285  28.919  20.506   7.055
 8537POPC   C4B39286  28.971  20.477   7.355
 8538POPC   NC339287  22.212  37.729   5.555
 8538POPC   PO439288  22.211  37.671   5.855
 8538POPC   GL139289  22.136  37.669   6.155
 8538POPC   GL239290  22.291  37.661   6.155
 8538POPC   C1A39291  22.183  37.636   6.455
 8538POPC   D2A39292  22.141  37.709   6.755
 8538POPC   C3A39293  22.145  37.663   7.055
 8538POPC   C4A39294  22.211  37.686   7.355
 8538POPC   C1B39295  22.394  37.582   6.455
 8538POPC   C2B39296  22.428  37.521   6.755
 8538POPC   C3B39297  22.358  37.506   7.055
 8538POPC   C4B39298  22.331  37.541   7.355
 8539POPC   NC339299  41.600  44.641   5.555
 8539POPC   PO439300  41.594  44.696   5.855
 8539POPC   GL139301  41.605  44.629   6.155
 8539POPC   GL239302  41.491  44.601   6.155
 8539POPC   C1A39303  41.531  44.664   6.455
 8539POPC   D2A39304  41.583  44.647   6.755
 8539POPC   C3A39305  41.560  44.684   7.055
 8539POPC   C4A39306  41.595  44.678   7.355
 8539POPC   C1B39307  41.355  44.516   6.455
 8539POPC   C2B39308  41.324  44.517   6.755
 8539POPC   C3B39309  41.365  44.449   7.055
 8539POPC   C4B39310  41.403  44.514   7.355
 8540POPC   NC339311  25.268  22.142   5.555
 8540POPC   PO439312  25.257  22.165   5.855
 8540POPC   GL139313  25.261  22.126   6.155
 8540POPC   GL239314  25.418  22.213   6.155
 8540POPC   C1A39315  25.272  22.116   6.455
 8540POPC   D2A39316  25.223  22.185   6.755
 8540POPC   C3A39317  25.311  22.187   7.055
 8540POPC   C4A39318  25.297  22.169   7.355
 8540POPC   C1B39319  25.510  22.213   6.455
 8540POPC   C2B39320  25.514  22.240   6.755
 8540POPC   C3B39321  25.527  22.225   7.055
 8540POPC   C4B39322  25.497  22.220   7.355
 8541POPC   NC339323  22.892  32.222   5.555
 8541POPC   PO439324  22.951  32.233   5.855
 8541POPC   GL139325  22.944  32.214   6.155
 8541POPC   GL239326  23.061  32.181   6.155
 8541POPC   C1A39327  22.984  32.204   6.455
 8541POPC   D2A39328  22.974  32.292   6.755
 8541POPC   C3A39329  22.981  32.250   7.055
 8541POPC   C4A39330  22.975  32.220   7.355
 8541POPC   C1B39331  23.175  32.046   6.455
 8541POPC   C2B39332  23.138  32.116   6.755
 8541POPC   C3B39333  23.115  32.046   7.055
 8541POPC   C4B39334  23.088  32.093   7.355
 8542POPC   NC339335  44.626  24.474   5.555
 8542POPC   PO439336  44.672  24.478   5.855
 8542POPC   GL139337  44.646  24.485   6.155
 8542POPC   GL239338  44.739  24.570   6.155
 8542POPC   C1A39339  44.625  24.515   6.455
 8542POPC   D2A39340  44.677  24.528   6.755
 8542POPC   C3A39341  44.639  24.451   7.055
 8542POPC   C4A39342  44.623  24.521   7.355
 8542POPC   C1B39343  44.850  24.657   6.455
 8542POPC   C2B39344  44.867  24.689   6.755
 8542POPC   C3B39345  44.820  24.700   7.055
 8542POPC   C4B39346  44.858  24.617   7.355
 8543POPC   NC339347  33.054  29.875   5.555
 8543POPC   PO439348  32.984  29.930   5.855
 8543POPC   GL139349  33.023  29.943   6.155
 8543POPC   GL239350  33.145  29.842   6.155
 8543POPC   C1A39351  33.072  29.876   6.455
 8543POPC   D2A39352  33.066  29.916   6.755
 8543POPC   C3A39353  33.060  29.928   7.055
 8543POPC   C4A39354  32.976  29.926   7.355
 8543POPC   C1B39355  33.248  29.732   6.455
 8543POPC   C2B39356  33.247  29.725   6.755
 8543POPC   C3B39357  33.176  29.767   7.055
 8543POPC   C4B39358  33.222  29.786   7.355
 8544POPC   NC339359  17.461   3.570   5.555
 8544POPC   PO439360  17.476   3.577   5.855
 8544POPC   GL139361  17.503   3.574   6.155
 8544POPC   GL239362  17.472   3.696   6.155
 8544POPC   C1A39363  17.532   3.542   6.455
 8544POPC   D2A39364  17.514   3.564   6.755
 8544POPC   C3A39365  17.555   3.567   7.055
 8544POPC   C4A39366  17.515   3.519   7.355
 8544POPC   C1B39367  17.506   3.791   6.455
 8544POPC   C2B39368  17.490   3.787   6.755
 8544POPC   C3B39369  17.556   3.753   7.055
 8544POPC   C4B39370  17.543   3.769   7.355
 8545POPC   NC339371  43.072   7.379   5.555
 8545POPC   PO439372  43.109   7.437   5.855
 8545POPC   GL139373  43.142   7.410   6.155
 8545POPC   GL239374  43.186   7.409   6.155
 8545POPC   C1A39375  43.112   7.443   6.455
 8545POPC   D2A39376  43.136   7.454   6.755
 8545POPC   C3A39377  43.148   7.419   7.055
 8545POPC   C4A39378  43.125   7.388   7.355
 8545POPC   C1B39379  43.386   7.363   6.455
 8545POPC   C2B39380  43.387   7.383   6.755
 8545POPC   C3B39381  43.372   7.358   7.055
 8545POPC   C4B39382  43.384   7.373   7.355
 8546POPC   NC339383   4.337  22.897   5.555
 8546POPC   PO439384   4.325  22.923   5.855
 8546POPC   GL139385   4.363  22.955   6.155
 8546POPC   GL239386   4.344  22.845   6.155
 8546POPC   C1A39387   4.323  22.893   6.455
 8546POPC   D2A39388   4.323  22.944   6.755
 8546POPC   C3A39389   4.308  22.937   7.055
 8546POPC   C4A39390   4.342  22.920   7.355
 8546POPC   C1B39391   4.305  22.678   6.455
 8546POPC   C2B39392   4.339  22.731   6.755
 8546POPC   C3B39393   4.287  22.731   7.055
 8546POPC   C4B39394   4.336  22.721   7.355
 8547POPC   NC339395  41.523  11.252   5.555
 8547POPC   PO439396  41.518  11.269   5.855
 8547POPC   GL139397  41.543  11.296   6.155
 8547POPC   GL239398  41.680  11.287   6.155
 8547POPC   C1A39399  41.512  11.303   6.455
 8547POPC   D2A39400  41.562  11.280   6.755
 8547POPC   C3A39401  41.530  11.300   7.055
 8547POPC   C4A39402  41.516  11.283   7.355
 8547POPC   C1B39403  41.788  11.311   6.455
 8547POPC   C2B39404  41.817  11.362   6.755
 8547POPC   C3B39405  41.810  11.342   7.055
 8547POPC   C4B39406  41.821  11.314   7.355
 8548POPC   NC339407   1.222   2.813   5.555
 8548POPC   PO439408   1.181   2.725   5.855
 8548POPC   GL139409   1.167   2.800   6.155
 8548POPC   GL239410   1.154   2.839   6.155
 8548POPC   C1A39411   1.228   2.720   6.455
 8548POPC   D2A39412   1.211   2.766   6.755
 8548POPC   C3A39413   1.193   2.742   7.055
 8548POPC   C4A39414   1.234   2.724   7.355
 8548POPC   C1B39415   0.973   2.891   6.455
 8548POPC   C2B39416   0.992   2.928   6.755
 8548POPC   C3B39417   1.017   2.938   7.055
 8548POPC   C4B39418   1.033   2.932   7.355
 8549POPC   NC339419   5.909  17.462   5.555
 8549POPC   PO439420   5.901  17.480   5.855
 8549POPC   GL139421   5.892  17.485   6.155
 8549POPC   GL239422   5.758  17.553   6.155
 8549POPC   C1A39423   5.883  17.461   6.455
 8549POPC   D2A39424   5.869  17.529   6.755
 8549POPC   C3A39425   5.859  17.495   7.055
 8549POPC   C4A39426   5.826  17.506   7.355
 8549POPC   C1B39427   5.738  17.668   6.455
 8549POPC   C2B39428   5.746  17.673   6.755
 8549POPC   C3B39429   5.748  17.696   7.055
 8549POPC   C4B39430   5.667  17.713   7.355
 8550POPC   NC339431  19.872  41.600   5.555
 8550POPC   PO439432  19.788  41.532   5.855
 8550POPC   GL139433  19.800  41.544   6.155
 8550POPC   GL239434  19.888  41.409   6.155
 8550POPC   C1A39435  19.881  41.546   6.455
 8550POPC   D2A39436  19.860  41.599   6.755
 8550POPC   C3A39437  19.785  41.588   7.055
 8550POPC   C4A39438  19.824  41.520   7.355
 8550POPC   C1B39439  19.826  41.313   6.455
 8550POPC   C2B39440  19.867  41.330   6.755
 8550POPC   C3B39441  19.825  41.335   7.055
 8550POPC   C4B39442  19.891  41.303   7.355
 8551POPC   NC339443  43.096  22.921   5.555
 8551POPC   PO439444  43.127  22.926   5.855
 8551POPC   GL139445  43.142  22.937   6.155
 8551POPC   GL239446  42.959  23.038   6.155
 8551POPC   C1A39447  43.068  22.973   6.455
 8551POPC   D2A39448  43.112  22.906   6.755
 8551POPC   C3A39449  43.114  22.933   7.055
 8551POPC   C4A39450  43.068  22.935   7.355
 8551POPC   C1B39451  42.886  23.018   6.455
 8551POPC   C2B39452  42.916  23.056   6.755
 8551POPC   C3B39453  42.871  23.005   7.055
 8551POPC   C4B39454  42.914  23.020   7.355
 8552POPC   NC339455   0.441  24.460   5.555
 8552POPC   PO439456   0.407  24.459   5.855
 8552POPC   GL139457   0.441  24.453   6.155
 8552POPC   GL239458   0.323  24.595   6.155
 8552POPC   C1A39459   0.440  24.482   6.455
 8552POPC   D2A39460   0.458  24.506   6.755
 8552POPC   C3A39461   0.450  24.453   7.055
 8552POPC   C4A39462   0.400  24.521   7.355
 8552POPC   C1B39463   0.196  24.617   6.455
 8552POPC   C2B39464   0.259  24.568   6.755
 8552POPC   C3B39465   0.182  24.565   7.055
 8552POPC   C4B39466   0.199  24.576   7.355
 8553POPC   NC339467  33.844  19.061   5.555
 8553POPC   PO439468  33.818  19.104   5.855
 8553POPC   GL139469  33.830  19.032   6.155
 8553POPC   GL239470  33.967  19.082   6.155
 8553POPC   C1A39471  33.752  19.073   6.455
 8553POPC   D2A39472  33.759  19.076   6.755
 8553POPC   C3A39473  33.833  19.070   7.055
 8553POPC   C4A39474  33.821  19.092   7.355
 8553POPC   C1B39475  33.996  19.101   6.455
 8553POPC   C2B39476  34.054  19.086   6.755
 8553POPC   C3B39477  34.078  19.136   7.055
 8553POPC   C4B39478  34.057  19.143   7.355
 8554POPC   NC339479  39.999   4.347   5.555
 8554POPC   PO439480  39.975   4.314   5.855
 8554POPC   GL139481  39.965   4.278   6.155
 8554POPC   GL239482  39.977   4.414   6.155
 8554POPC   C1A39483  40.030   4.304   6.455
 8554POPC   D2A39484  40.054   4.317   6.755
 8554POPC   C3A39485  39.978   4.273   7.055
 8554POPC   C4A39486  40.044   4.313   7.355
 8554POPC   C1B39487  39.829   4.546   6.455
 8554POPC   C2B39488  39.866   4.476   6.755
 8554POPC   C3B39489  39.885   4.482   7.055
 8554POPC   C4B39490  39.876   4.558   7.355
 8555POPC   NC339491  13.614  26.001   5.555
 8555POPC   PO439492  13.588  26.084   5.855
 8555POPC   GL139493  13.609  26.082   6.155
 8555POPC   GL239494  13.683  25.941   6.155
 8555POPC   C1A39495  13.670  26.073   6.455
 8555POPC   D2A39496  13.625  26.007   6.755
 8555POPC   C3A39497  13.624  26.074   7.055
 8555POPC   C4A39498  13.600  25.998   7.355
 8555POPC   C1B39499  13.822  25.790   6.455
 8555POPC   C2B39500  13.749  25.830   6.755
 8555POPC   C3B39501  13.769  25.836   7.055
 8555POPC   C4B39502  13.770  25.802   7.355
 8556POPC   NC339503  36.123  22.123   5.555
 8556POPC   PO439504  36.121  22.126   5.855
 8556POPC   GL139505  36.102  22.155   6.155
 8556POPC   GL239506  36.100  22.030   6.155
 8556POPC   C1A39507  36.125  22.161   6.455
 8556POPC   D2A39508  36.129  22.185   6.755
 8556POPC   C3A39509  36.129  22.205   7.055
 8556POPC   C4A39510  36.094  22.167   7.355
 8556POPC   C1B39511  36.133  21.928   6.455
 8556POPC   C2B39512  36.091  21.905   6.755
 8556POPC   C3B39513  36.165  21.926   7.055
 8556POPC   C4B39514  36.097  21.955   7.355
 8557POPC   NC339515  32.994  16.767   5.555
 8557POPC   PO439516  32.994  16.755   5.855
 8557POPC   GL139517  33.012  16.688   6.155
 8557POPC   GL239518  32.944  16.620   6.155
 8557POPC   C1A39519  33.004  16.765   6.455
 8557POPC   D2A39520  33.064  16.739   6.755
 8557POPC   C3A39521  33.062  16.735   7.055
 8557POPC   C4A39522  33.047  16.704   7.355
 8557POPC   C1B39523  32.893  16.514   6.455
 8557POPC   C2B39524  32.909  16.490   6.755
 8557POPC   C3B39525  32.978  16.508   7.055
 8557POPC   C4B39526  32.955  16.462   7.355
 8558POPC   NC339527  29.936   6.599   5.555
 8558POPC   PO439528  29.964   6.653   5.855
 8558POPC   GL139529  29.878   6.604   6.155
 8558POPC   GL239530  29.965   6.524   6.155
 8558POPC   C1A39531  29.964   6.616   6.455
 8558POPC   D2A39532  29.951   6.643   6.755
 8558POPC   C3A39533  29.918   6.606   7.055
 8558POPC   C4A39534  29.936   6.633   7.355
 8558POPC   C1B39535  30.100   6.440   6.455
 8558POPC   C2B39536  30.080   6.446   6.755
 8558POPC   C3B39537  30.069   6.444   7.055
 8558POPC   C4B39538  30.069   6.482   7.355
 8559POPC   NC339539  25.300   1.260   5.555
 8559POPC   PO439540  25.314   1.190   5.855
 8559POPC   GL139541  25.315   1.216   6.155
 8559POPC   GL239542  25.174   1.152   6.155
 8559POPC   C1A39543  25.278   1.186   6.455
 8559POPC   D2A39544  25.272   1.242   6.755
 8559POPC   C3A39545  25.242   1.205   7.055
 8559POPC   C4A39546  25.231   1.228   7.355
 8559POPC   C1B39547  25.119   1.075   6.455
 8559POPC   C2B39548  25.078   1.054   6.755
 8559POPC   C3B39549  25.138   1.058   7.055
 8559POPC   C4B39550  25.128   1.023   7.355
 8560POPC   NC339551  26.028  20.630   5.555
 8560POPC   PO439552  26.066  20.564   5.855
 8560POPC   GL139553  26.017  20.653   6.155
 8560POPC   GL239554  26.020  20.486   6.155
 8560POPC   C1A39555  26.000  20.615   6.455
 8560POPC   D2A39556  26.016  20.592   6.755
 8560POPC   C3A39557  26.046  20.593   7.055
 8560POPC   C4A39558  26.057  20.598   7.355
 8560POPC   C1B39559  25.890  20.358   6.455
 8560POPC   C2B39560  25.931  20.418   6.755
 8560POPC   C3B39561  25.866  20.362   7.055
 8560POPC   C4B39562  25.964  20.379   7.355
 8561POPC   NC339563  37.664  25.224   5.555
 8561POPC   PO439564  37.670  25.242   5.855
 8561POPC   GL139565  37.673  25.278   6.155
 8561POPC   GL239566  37.751  25.240   6.155
 8561POPC   C1A39567  37.658  25.255   6.455
 8561POPC   D2A39568  37.669  25.297   6.755
 8561POPC   C3A39569  37.637  25.240   7.055
 8561POPC   C4A39570  37.672  25.314   7.355
 8561POPC   C1B39571  37.931  25.237   6.455
 8561POPC   C2B39572  37.937  25.164   6.755
 8561POPC   C3B39573  37.915  25.177   7.055
 8561POPC   C4B39574  37.949  25.181   7.355
 8562POPC   NC339575  44.691  19.077   5.555
 8562POPC   PO439576  44.655  19.056   5.855
 8562POPC   GL139577  44.624  19.044   6.155
 8562POPC   GL239578  44.757  19.071   6.155
 8562POPC   C1A39579  44.669  19.042   6.455
 8562POPC   D2A39580  44.658  19.026   6.755
 8562POPC   C3A39581  44.631  19.016   7.055
 8562POPC   C4A39582  44.703  19.087   7.355
 8562POPC   C1B39583  44.892  19.114   6.455
 8562POPC   C2B39584  44.925  19.067   6.755
 8562POPC   C3B39585  44.882  19.089   7.055
 8562POPC   C4B39586  44.949  19.053   7.355
 8563POPC   NC339587  39.255  16.705   5.555
 8563POPC   PO439588  39.198  16.698   5.855
 8563POPC   GL139589  39.279  16.702   6.155
 8563POPC   GL239590  39.305  16.867   6.155
 8563POPC   C1A39591  39.210  16.737   6.455
 8563POPC   D2A39592  39.197  16.751   6.755
 8563POPC   C3A39593  39.188  16.704   7.055
 8563POPC   C4A39594  39.198  16.700   7.355
 8563POPC   C1B39595  39.318  16.990   6.455
 8563POPC   C2B39596  39.275  16.936   6.755
 8563POPC   C3B39597  39.324  16.966   7.055
 8563POPC   C4B39598  39.267  16.983   7.355
 8564POPC   NC339599  22.949   7.397   5.555
 8564POPC   PO439600  22.980   7.403   5.855
 8564POPC   GL139601  22.927   7.448   6.155
 8564POPC   GL239602  22.931   7.311   6.155
 8564POPC   C1A39603  22.901   7.385   6.455
 8564POPC   D2A39604  22.947   7.432   6.755
 8564POPC   C3A39605  22.919   7.423   7.055
 8564POPC   C4A39606  22.949   7.420   7.355
 8564POPC   C1B39607  22.890   7.148   6.455
 8564POPC   C2B39608  22.938   7.197   6.755
 8564POPC   C3B39609  22.842   7.217   7.055
 8564POPC   C4B39610  22.877   7.206   7.355
 8565POPC   NC339611   4.345  29.936   5.555
 8565POPC   PO439612   4.335  29.879   5.855
 8565POPC   GL139613   4.290  29.925   6.155
 8565POPC   GL239614   4.474  29.927   6.155
 8565POPC   C1A39615   4.311  29.941   6.455
 8565POPC   D2A39616   4.340  29.947   6.755
 8565POPC   C3A39617   4.323  29.946   7.055
 8565POPC   C4A39618   4.303  29.921   7.355
 8565POPC   C1B39619   4.519  29.995   6.455
 8565POPC   C2B39620   4.591  29.970   6.755
 8565POPC   C3B39621   4.522  29.973   7.055
 8565POPC   C4B39622   4.577  29.979   7.355
 8566POPC   NC339623   2.037  15.938   5.555
 8566POPC   PO439624   1.990  15.943   5.855
 8566POPC   GL139625   2.015  15.978   6.155
 8566POPC   GL239626   1.882  15.971   6.155
 8566POPC   C1A39627   1.993  15.968   6.455
 8566POPC   D2A39628   1.998  15.968   6.755
 8566POPC   C3A39629   1.956  15.947   7.055
 8566POPC   C4A39630   1.957  15.928   7.355
 8566POPC   C1B39631   1.782  15.996   6.455
 8566POPC   C2B39632   1.754  16.077   6.755
 8566POPC   C3B39633   1.744  16.068   7.055
 8566POPC   C4B39634   1.741  16.055   7.355
 8567POPC   NC339635  38.415  43.159   5.555
 8567POPC   PO439636  38.437  43.067   5.855
 8567POPC   GL139637  38.479  43.065   6.155
 8567POPC   GL239638  38.329  43.183   6.155
 8567POPC   C1A39639  38.477  43.145   6.455
 8567POPC   D2A39640  38.494  43.080   6.755
 8567POPC   C3A39641  38.501  43.087   7.055
 8567POPC   C4A39642  38.435  43.079   7.355
 8567POPC   C1B39643  38.297  43.328   6.455
 8567POPC   C2B39644  38.263  43.259   6.755
 8567POPC   C3B39645  38.271  43.316   7.055
 8567POPC   C4B39646  38.305  43.341   7.355
 8568POPC   NC339647  43.140  39.229   5.555
 8568POPC   PO439648  43.073  39.269   5.855
 8568POPC   GL139649  43.152  39.253   6.155
 8568POPC   GL239650  43.024  39.125   6.155
 8568POPC   C1A39651  43.074  39.223   6.455
 8568POPC   D2A39652  43.109  39.237   6.755
 8568POPC   C3A39653  43.062  39.279   7.055
 8568POPC   C4A39654  43.115  39.239   7.355
 8568POPC   C1B39655  42.915  39.043   6.455
 8568POPC   C2B39656  42.896  39.098   6.755
 8568POPC   C3B39657  42.943  39.034   7.055
 8568POPC   C4B39658  42.901  39.126   7.355
 8569POPC   NC339659  11.257  19.030   5.555
 8569POPC   PO439660  11.313  19.045   5.855
 8569POPC   GL139661  11.330  19.021   6.155
 8569POPC   GL239662  11.423  19.024   6.155
 8569POPC   C1A39663  11.264  19.011   6.455
 8569POPC   D2A39664  11.301  19.058   6.755
 8569POPC   C3A39665  11.324  19.016   7.055
 8569POPC   C4A39666  11.294  19.093   7.355
 8569POPC   C1B39667  11.466  18.852   6.455
 8569POPC   C2B39668  11.529  18.860   6.755
 8569POPC   C3B39669  11.537  18.895   7.055
 8569POPC   C4B39670  11.472  18.905   7.355
 8570POPC   NC339671   0.439  36.090   5.555
 8570POPC   PO439672   0.445  36.104   5.855
 8570POPC   GL139673   0.456  36.112   6.155
 8570POPC   GL239674   0.454  35.971   6.155
 8570POPC   C1A39675   0.449  36.147   6.455
 8570POPC   D2A39676   0.480  36.094   6.755
 8570POPC   C3A39677   0.447  36.147   7.055
 8570POPC   C4A39678   0.408  36.104   7.355
 8570POPC   C1B39679   0.497  35.866   6.455
 8570POPC   C2B39680   0.455  35.855   6.755
 8570POPC   C3B39681   0.539  35.916   7.055
 8570POPC   C4B39682   0.543  35.863   7.355
 8571POPC   NC339683  25.230  12.854   5.555
 8571POPC   PO439684  25.250  12.806   5.855
 8571POPC   GL139685  25.311  12.857   6.155
 8571POPC   GL239686  25.156  12.902   6.155
 8571POPC   C1A39687  25.311  12.879   6.455
 8571POPC   D2A39688  25.264  12.812   6.755
 8571POPC   C3A39689  25.224  12.804   7.055
 8571POPC   C4A39690  25.260  12.886   7.355
 8571POPC   C1B39691  25.072  12.994   6.455
 8571POPC   C2B39692  25.036  12.999   6.755
 8571POPC   C3B39693  25.064  13.043   7.055
 8571POPC   C4B39694  25.063  13.057   7.355
 8572POPC   NC339695  15.922   1.959   5.555
 8572POPC   PO439696  15.960   2.017   5.855
 8572POPC   GL139697  15.960   2.003   6.155
 8572POPC   GL239698  16.035   2.060   6.155
 8572POPC   C1A39699  15.979   1.963   6.455
 8572POPC   D2A39700  15.928   1.960   6.755
 8572POPC   C3A39701  15.913   2.023   7.055
 8572POPC   C4A39702  15.930   1.949   7.355
 8572POPC   C1B39703  16.132   2.161   6.455
 8572POPC   C2B39704  16.077   2.230   6.755
 8572POPC   C3B39705  16.137   2.163   7.055
 8572POPC   C4B39706  16.094   2.206   7.355
 8573POPC   NC339707   4.317  26.042   5.555
 8573POPC   PO439708   4.293  26.061   5.855
 8573POPC   GL139709   4.321  26.074   6.155
 8573POPC   GL239710   4.201  25.957   6.155
 8573POPC   C1A39711   4.351  26.075   6.455
 8573POPC   D2A39712   4.338  26.071   6.755
 8573POPC   C3A39713   4.269  26.006   7.055
 8573POPC   C4A39714   4.359  26.074   7.355
 8573POPC   C1B39715   4.053  25.912   6.455
 8573POPC   C2B39716   4.117  25.916   6.755
 8573POPC   C3B39717   4.078  25.963   7.055
 8573POPC   C4B39718   4.062  25.911   7.355
 8574POPC   NC339719  38.410  15.228   5.555
 8574POPC   PO439720  38.470  15.164   5.855
 8574POPC   GL139721  38.493  15.220   6.155
 8574POPC   GL239722  38.379  15.187   6.155
 8574POPC   C1A39723  38.412  15.224   6.455
 8574POPC   D2A39724  38.476  15.166   6.755
 8574POPC   C3A39725  38.488  15.206   7.055
 8574POPC   C4A39726  38.453  15.185   7.355
 8574POPC   C1B39727  38.215  15.172   6.455
 8574POPC   C2B39728  38.252  15.247   6.755
 8574POPC   C3B39729  38.193  15.241   7.055
 8574POPC   C4B39730  38.245  15.207   7.355
 8575POPC   NC339731  23.739  37.677   5.555
 8575POPC   PO439732  23.687  37.714   5.855
 8575POPC   GL139733  23.706  37.669   6.155
 8575POPC   GL239734  23.556  37.738   6.155
 8575POPC   C1A39735  23.735  37.708   6.455
 8575POPC   D2A39736  23.755  37.728   6.755
 8575POPC   C3A39737  23.678  37.725   7.055
 8575POPC   C4A39738  23.665  37.644   7.355
 8575POPC   C1B39739  23.509  37.785   6.455
 8575POPC   C2B39740  23.523  37.787   6.755
 8575POPC   C3B39741  23.472  37.755   7.055
 8575POPC   C4B39742  23.486  37.758   7.355
 8576POPC   NC339743   0.467  25.229   5.555
 8576POPC   PO439744   0.435  25.249   5.855
 8576POPC   GL139745   0.463  25.221   6.155
 8576POPC   GL239746   0.494  25.340   6.155
 8576POPC   C1A39747   0.426  25.279   6.455
 8576POPC   D2A39748   0.425  25.229   6.755
 8576POPC   C3A39749   0.412  25.293   7.055
 8576POPC   C4A39750   0.418  25.291   7.355
 8576POPC   C1B39751   0.578  25.478   6.455
 8576POPC   C2B39752   0.526  25.461   6.755
 8576POPC   C3B39753   0.550  25.512   7.055
 8576POPC   C4B39754   0.531  25.472   7.355
 8577POPC   NC339755  21.384  26.052   5.555
 8577POPC   PO439756  21.382  26.019   5.855
 8577POPC   GL139757  21.398  26.077   6.155
 8577POPC   GL239758  21.412  25.882   6.155
 8577POPC   C1A39759  21.415  26.017   6.455
 8577POPC   D2A39760  21.416  26.016   6.755
 8577POPC   C3A39761  21.364  26.061   7.055
 8577POPC   C4A39762  21.411  26.064   7.355
 8577POPC   C1B39763  21.347  25.815   6.455
 8577POPC   C2B39764  21.324  25.765   6.755
 8577POPC   C3B39765  21.359  25.761   7.055
 8577POPC   C4B39766  21.376  25.784   7.355
 8578POPC   NC339767  22.981  36.139   5.555
 8578POPC   PO439768  22.977  36.137   5.855
 8578POPC   GL139769  22.940  36.146   6.155
 8578POPC   GL239770  22.797  36.189   6.155
 8578POPC   C1A39771  22.949  36.147   6.455
 8578POPC   D2A39772  22.946  36.111   6.755
 8578POPC   C3A39773  22.904  36.168   7.055
 8578POPC   C4A39774  22.936  36.146   7.355
 8578POPC   C1B39775  22.729  36.178   6.455
 8578POPC   C2B39776  22.640  36.130   6.755
 8578POPC   C3B39777  22.730  36.183   7.055
 8578POPC   C4B39778  22.667  36.130   7.355
 8579POPC   NC339779  22.182  20.609   5.555
 8579POPC   PO439780  22.121  20.605   5.855
 8579POPC   GL139781  22.204  20.619   6.155
 8579POPC   GL239782  22.070  20.683   6.155
 8579POPC   C1A39783  22.136  20.578   6.455
 8579POPC   D2A39784  22.190  20.608   6.755
 8579POPC   C3A39785  22.115  20.659   7.055
 8579POPC   C4A39786  22.181  20.652   7.355
 8579POPC   C1B39787  21.878  20.684   6.455
 8579POPC   C2B39788  21.963  20.742   6.755
 8579POPC   C3B39789  21.891  20.730   7.055
 8579POPC   C4B39790  21.969  20.739   7.355
 8580POPC   NC339791   8.167  33.049   5.555
 8580POPC   PO439792   8.216  33.012   5.855
 8580POPC   GL139793   8.177  32.991   6.155
 8580POPC   GL239794   8.302  33.150   6.155
 8580POPC   C1A39795   8.226  33.006   6.455
 8580POPC   D2A39796   8.225  33.024   6.755
 8580POPC   C3A39797   8.246  32.982   7.055
 8580POPC   C4A39798   8.195  33.001   7.355
 8580POPC   C1B39799   8.323  33.290   6.455
 8580POPC   C2B39800   8.301  33.230   6.755
 8580POPC   C3B39801   8.262  33.292   7.055
 8580POPC   C4B39802   8.293  33.254   7.355
 8581POPC   NC339803   1.210  33.835   5.555
 8581POPC   PO439804   1.218  33.843   5.855
 8581POPC   GL139805   1.249  33.810   6.155
 8581POPC   GL239806   1.214  33.675   6.155
 8581POPC   C1A39807   1.185  33.790   6.455
 8581POPC   D2A39808   1.222  33.822   6.755
 8581POPC   C3A39809   1.253  33.786   7.055
 8581POPC   C4A39810   1.233  33.836   7.355
 8581POPC   C1B39811   1.236  33.559   6.455
 8581POPC   C2B39812   1.241  33.520   6.755
 8581POPC   C3B39813   1.228  33.571   7.055
 8581POPC   C4B39814   1.281  33.554   7.355
 8582POPC   NC339815  27.636  40.806   5.555
 8582POPC   PO439816  27.615  40.828   5.855
 8582POPC   GL139817  27.629  40.770   6.155
 8582POPC   GL239818  27.725  40.874   6.155
 8582POPC   C1A39819  27.598  40.829   6.455
 8582POPC   D2A39820  27.560  40.769   6.755
 8582POPC   C3A39821  27.581  40.814   7.055
 8582POPC   C4A39822  27.557  40.746   7.355
 8582POPC   C1B39823  27.841  40.953   6.455
 8582POPC   C2B39824  27.821  40.880   6.755
 8582POPC   C3B39825  27.792  40.894   7.055
 8582POPC   C4B39826  27.838  40.975   7.355
 8583POPC   NC339827  26.008  12.814   5.555
 8583POPC   PO439828  26.019  12.873   5.855
 8583POPC   GL139829  26.020  12.874   6.155
 8583POPC   GL239830  26.165  12.898   6.155
 8583POPC   C1A39831  26.083  12.805   6.455
 8583POPC   D2A39832  26.090  12.821   6.755
 8583POPC   C3A39833  26.067  12.825   7.055
 8583POPC   C4A39834  26.027  12.884   7.355
 8583POPC   C1B39835  26.202  13.033   6.455
 8583POPC   C2B39836  26.253  13.046   6.755
 8583POPC   C3B39837  26.247  12.993   7.055
 8583POPC   C4B39838  26.231  13.023   7.355
 8584POPC   NC339839  27.574  29.967   5.555
 8584POPC   PO439840  27.625  29.968   5.855
 8584POPC   GL139841  27.641  29.882   6.155
 8584POPC   GL239842  27.454  29.931   6.155
 8584POPC   C1A39843  27.604  29.914   6.455
 8584POPC   D2A39844  27.561  29.950   6.755
 8584POPC   C3A39845  27.620  29.876   7.055
 8584POPC   C4A39846  27.634  29.875   7.355
 8584POPC   C1B39847  27.361  29.999   6.455
 8584POPC   C2B39848  27.300  30.011   6.755
 8584POPC   C3B39849  27.342  30.011   7.055
 8584POPC   C4B39850  27.382  29.998   7.355
 8585POPC   NC339851  22.195  36.111   5.555
 8585POPC   PO439852  22.203  36.134   5.855
 8585POPC   GL139853  22.190  36.104   6.155
 8585POPC   GL239854  22.247  36.088   6.155
 8585POPC   C1A39855  22.211  36.101   6.455
 8585POPC   D2A39856  22.194  36.118   6.755
 8585POPC   C3A39857  22.197  36.172   7.055
 8585POPC   C4A39858  22.169  36.152   7.355
 8585POPC   C1B39859  22.360  35.976   6.455
 8585POPC   C2B39860  22.382  35.968   6.755
 8585POPC   C3B39861  22.358  36.007   7.055
 8585POPC   C4B39862  22.349  35.938   7.355
 8586POPC   NC339863   9.774  35.333   5.555
 8586POPC   PO439864   9.738  35.302   5.855
 8586POPC   GL139865   9.750  35.365   6.155
 8586POPC   GL239866   9.729  35.240   6.155
 8586POPC   C1A39867   9.700  35.363   6.455
 8586POPC   D2A39868   9.706  35.357   6.755
 8586POPC   C3A39869   9.756  35.336   7.055
 8586POPC   C4A39870   9.771  35.353   7.355
 8586POPC   C1B39871   9.708  35.101   6.455
 8586POPC   C2B39872   9.701  35.095   6.755
 8586POPC   C3B39873   9.657  35.125   7.055
 8586POPC   C4B39874   9.696  35.082   7.355
 8587POPC   NC339875  40.050  16.681   5.555
 8587POPC   PO439876  39.997  16.744   5.855
 8587POPC   GL139877  39.973  16.736   6.155
 8587POPC   GL239878  40.042  16.589   6.155
 8587POPC   C1A39879  40.008  16.704   6.455
 8587POPC   D2A39880  40.042  16.741   6.755
 8587POPC   C3A39881  40.042  16.688   7.055
 8587POPC   C4A39882  40.036  16.734   7.355
 8587POPC   C1B39883  39.987  16.492   6.455
 8587POPC   C2B39884  39.996  16.456   6.755
 8587POPC   C3B39885  39.947  16.480   7.055
 8587POPC   C4B39886  39.941  16.478   7.355
 8588POPC   NC339887  12.123  26.862   5.555
 8588POPC   PO439888  12.099  26.864   5.855
 8588POPC   GL139889  12.081  26.821   6.155
 8588POPC   GL239890  12.167  26.727   6.155
 8588POPC   C1A39891  12.087  26.847   6.455
 8588POPC   D2A39892  12.075  26.776   6.755
 8588POPC   C3A39893  12.045  26.786   7.055
 8588POPC   C4A39894  12.041  26.861   7.355
 8588POPC   C1B39895  12.212  26.620   6.455
 8588POPC   C2B39896  12.195  26.646   6.755
 8588POPC   C3B39897  12.205  26.584   7.055
 8588POPC   C4B39898  12.254  26.594   7.355
 8589POPC   NC339899  22.195   1.963   5.555
 8589POPC   PO439900  22.149   1.954   5.855
 8589POPC   GL139901  22.196   2.033   6.155
 8589POPC   GL239902  22.226   1.859   6.155
 8589POPC   C1A39903  22.195   2.025   6.455
 8589POPC   D2A39904  22.176   2.007   6.755
 8589POPC   C3A39905  22.192   2.035   7.055
 8589POPC   C4A39906  22.172   1.988   7.355
 8589POPC   C1B39907  22.309   1.796   6.455
 8589POPC   C2B39908  22.253   1.785   6.755
 8589POPC   C3B39909  22.290   1.777   7.055
 8589POPC   C4B39910  22.263   1.800   7.355
 8590POPC   NC339911  34.575  26.086   5.555
 8590POPC   PO439912  34.621  26.016   5.855
 8590POPC   GL139913  34.558  25.996   6.155
 8590POPC   GL239914  34.563  25.943   6.155
 8590POPC   C1A39915  34.618  26.067   6.455
 8590POPC   D2A39916  34.546  26.021   6.755
 8590POPC   C3A39917  34.598  26.006   7.055
 8590POPC   C4A39918  34.615  26.002   7.355
 8590POPC   C1B39919  34.556  25.767   6.455
 8590POPC   C2B39920  34.573  25.807   6.755
 8590POPC   C3B39921  34.548  25.835   7.055
 8590POPC   C4B39922  34.589  25.789   7.355
 8591POPC   NC339923  30.698  24.454   5.555
 8591POPC   PO439924  30.747  24.532   5.855
 8591POPC   GL139925  30.730  24.530   6.155
 8591POPC   GL239926  30.572  24.487   6.155
 8591POPC   C1A39927  30.708  24.450   6.455
 8591POPC   D2A39928  30.657  24.527   6.755
 8591POPC   C3A39929  30.729  24.496   7.055
 8591POPC   C4A39930  30.744  24.441   7.355
 8591POPC   C1B39931  30.443  24.394   6.455
 8591POPC   C2B39932  30.411  24.398   6.755
 8591POPC   C3B39933  30.444  24.462   7.055
 8591POPC   C4B39934  30.469  24.437   7.355
 8592POPC   NC339935  11.342  25.307   5.555
 8592POPC   PO439936  11.258  25.290   5.855
 8592POPC   GL139937  11.264  25.247   6.155
 8592POPC   GL239938  11.191  25.214   6.155
 8592POPC   C1A39939  11.279  25.240   6.455
 8592POPC   D2A39940  11.313  25.276   6.755
 8592POPC   C3A39941  11.307  25.221   7.055
 8592POPC   C4A39942  11.343  25.239   7.355
 8592POPC   C1B39943  11.174  25.115   6.455
 8592POPC   C2B39944  11.125  25.042   6.755
 8592POPC   C3B39945  11.159  25.065   7.055
 8592POPC   C4B39946  11.192  25.076   7.355
 8593POPC   NC339947  29.186  12.879   5.555
 8593POPC   PO439948  29.116  12.819   5.855
 8593POPC   GL139949  29.107  12.828   6.155
 8593POPC   GL239950  29.287  12.902   6.155
 8593POPC   C1A39951  29.115  12.890   6.455
 8593POPC   D2A39952  29.171  12.852   6.755
 8593POPC   C3A39953  29.187  12.897   7.055
 8593POPC   C4A39954  29.174  12.864   7.355
 8593POPC   C1B39955  29.433  12.869   6.455
 8593POPC   C2B39956  29.361  12.897   6.755
 8593POPC   C3B39957  29.397  12.953   7.055
 8593POPC   C4B39958  29.377  12.952   7.355
 8594POPC   NC339959  32.277  26.018   5.555
 8594POPC   PO439960  32.260  26.004   5.855
 8594POPC   GL139961  32.230  25.993   6.155
 8594POPC   GL239962  32.394  26.005   6.155
 8594POPC   C1A39963  32.249  26.079   6.455
 8594POPC   D2A39964  32.269  26.088   6.755
 8594POPC   C3A39965  32.242  26.074   7.055
 8594POPC   C4A39966  32.220  25.994   7.355
 8594POPC   C1B39967  32.524  25.996   6.455
 8594POPC   C2B39968  32.510  25.997   6.755
 8594POPC   C3B39969  32.474  26.045   7.055
 8594POPC   C4B39970  32.533  26.082   7.355
 8595POPC   NC339971  36.908  10.533   5.555
 8595POPC   PO439972  36.908  10.509   5.855
 8595POPC   GL139973  36.866  10.555   6.155
 8595POPC   GL239974  36.892  10.603   6.155
 8595POPC   C1A39975  36.923  10.482   6.455
 8595POPC   D2A39976  36.946  10.491   6.755
 8595POPC   C3A39977  36.909  10.541   7.055
 8595POPC   C4A39978  36.862  10.512   7.355
 8595POPC   C1B39979  36.815  10.801   6.455
 8595POPC   C2B39980  36.827  10.782   6.755
 8595POPC   C3B39981  36.887  10.734   7.055
 8595POPC   C4B39982  36.886  10.814   7.355
 8596POPC   NC339983  29.940  43.909   5.555
 8596POPC   PO439984  29.909  43.887   5.855
 8596POPC   GL139985  29.883  43.838   6.155
 8596POPC   GL239986  30.011  43.897   6.155
 8596POPC   C1A39987  29.965  43.852   6.455
 8596POPC   D2A39988  29.872  43.850   6.755
 8596POPC   C3A39989  29.937  43.921   7.055
 8596POPC   C4A39990  29.963  43.891   7.355
 8596POPC   C1B39991  30.210  43.876   6.455
 8596POPC   C2B39992  30.198  43.848   6.755
 8596POPC   C3B39993  30.179  43.858   7.055
 8596POPC   C4B39994  30.146  43.821   7.355
 8597POPC   NC339995  36.162   5.824   5.555
 8597POPC   PO439996  36.083   5.916   5.855
 8597POPC   GL139997  36.087   5.900   6.155
 8597POPC   GL239998  36.043   5.936   6.155
 8597POPC   C1A39999  36.079   5.865   6.455
 8597POPC   D2A40000  36.106   5.848   6.755
 8597POPC   C3A40001  36.173   5.839   7.055
 8597POPC   C4A40002  36.152   5.914   7.355
 8597POPC   C1B40003  35.865   5.913   6.455
 8597POPC   C2B40004  35.840   5.932   6.755
 8597POPC   C3B40005  35.838   5.938   7.055
 8597POPC   C4B40006  35.909   5.916   7.355
 8598POPC   NC340007  22.129  18.250   5.555
 8598POPC   PO440008  22.132  18.310   5.855
 8598POPC   GL140009  22.148  18.264   6.155
 8598POPC   GL240010  22.287  18.250   6.155
 8598POPC   C1A40011  22.185  18.311   6.455
 8598POPC   D2A40012  22.193  18.287   6.755
 8598POPC   C3A40013  22.212  18.316   7.055
 8598POPC   C4A40014  22.166  18.234   7.355
 8598POPC   C1B40015  22.453  18.305   6.455
 8598POPC   C2B40016  22.429  18.217   6.755
 8598POPC   C3B40017  22.384  18.234   7.055
 8598POPC   C4B40018  22.425  18.206   7.355
 8599POPC   NC340019  36.079   5.082   5.555
 8599POPC   PO440020  36.145   5.124   5.855
 8599POPC   GL140021  36.097   5.084   6.155
 8599POPC   GL240022  36.114   4.955   6.155
 8599POPC   C1A40023  36.143   5.132   6.455
 8599POPC   D2A40024  36.141   5.052   6.755
 8599POPC   C3A40025  36.131   5.081   7.055
 8599POPC   C4A40026  36.089   5.098   7.355
 8599POPC   C1B40027  36.194   4.862   6.455
 8599POPC   C2B40028  36.159   4.880   6.755
 8599POPC   C3B40029  36.184   4.877   7.055
 8599POPC   C4B40030  36.197   4.846   7.355
 8600POPC   NC340031  39.204   0.405   5.555
 8600POPC   PO440032  39.206   0.403   5.855
 8600POPC   GL140033  39.182   0.402   6.155
 8600POPC   GL240034  39.278   0.524   6.155
 8600POPC   C1A40035  39.230   0.481   6.455
 8600POPC   D2A40036  39.213   0.483   6.755
 8600POPC   C3A40037  39.190   0.438   7.055
 8600POPC   C4A40038  39.228   0.418   7.355
 8600POPC   C1B40039  39.323   0.640   6.455
 8600POPC   C2B40040  39.337   0.675   6.755
 8600POPC   C3B40041  39.278   0.686   7.055
 8600POPC   C4B40042  39.326   0.631   7.355
 8601POPC   NC340043   8.157   2.765   5.555
 8601POPC   PO440044   8.173   2.798   5.855
 8601POPC   GL140045   8.212   2.762   6.155
 8601POPC   GL240046   8.282   2.679   6.155
 8601POPC   C1A40047   8.210   2.743   6.455
 8601POPC   D2A40048   8.204   2.721   6.755
 8601POPC   C3A40049   8.164   2.801   7.055
 8601POPC   C4A40050   8.201   2.793   7.355
 8601POPC   C1B40051   8.395   2.593   6.455
 8601POPC   C2B40052   8.337   2.606   6.755
 8601POPC   C3B40053   8.399   2.535   7.055
 8601POPC   C4B40054   8.406   2.608   7.355
 8602POPC   NC340055   8.970   1.948   5.555
 8602POPC   PO440056   8.989   1.965   5.855
 8602POPC   GL140057   8.987   1.993   6.155
 8602POPC   GL240058   9.057   2.091   6.155
 8602POPC   C1A40059   8.926   2.006   6.455
 8602POPC   D2A40060   8.931   1.965   6.755
 8602POPC   C3A40061   8.955   1.988   7.055
 8602POPC   C4A40062   8.931   2.011   7.355
 8602POPC   C1B40063   9.064   2.267   6.455
 8602POPC   C2B40064   9.076   2.271   6.755
 8602POPC   C3B40065   9.020   2.186   7.055
 8602POPC   C4B40066   9.065   2.242   7.355
 8603POPC   NC340067   7.446  43.867   5.555
 8603POPC   PO440068   7.421  43.896   5.855
 8603POPC   GL140069   7.376  43.875   6.155
 8603POPC   GL240070   7.541  43.858   6.155
 8603POPC   C1A40071   7.422  43.893   6.455
 8603POPC   D2A40072   7.390  43.850   6.755
 8603POPC   C3A40073   7.402  43.879   7.055
 8603POPC   C4A40074   7.453  43.848   7.355
 8603POPC   C1B40075   7.646  43.865   6.455
 8603POPC   C2B40076   7.691  43.824   6.755
 8603POPC   C3B40077   7.625  43.855   7.055
 8603POPC   C4B40078   7.697  43.871   7.355
 8604POPC   NC340079  20.627  40.826   5.555
 8604POPC   PO440080  20.571  40.736   5.855
 8604POPC   GL140081  20.624  40.811   6.155
 8604POPC   GL240082  20.718  40.918   6.155
 8604POPC   C1A40083  20.609  40.748   6.455
 8604POPC   D2A40084  20.564  40.786   6.755
 8604POPC   C3A40085  20.655  40.789   7.055
 8604POPC   C4A40086  20.601  40.813   7.355
 8604POPC   C1B40087  20.732  41.031   6.455
 8604POPC   C2B40088  20.717  41.021   6.755
 8604POPC   C3B40089  20.780  41.014   7.055
 8604POPC   C4B40090  20.775  40.988   7.355
 8605POPC   NC340091   7.435  26.853   5.555
 8605POPC   PO440092   7.432  26.773   5.855
 8605POPC   GL140093   7.405  26.838   6.155
 8605POPC   GL240094   7.466  26.982   6.155
 8605POPC   C1A40095   7.455  26.844   6.455
 8605POPC   D2A40096   7.468  26.803   6.755
 8605POPC   C3A40097   7.439  26.860   7.055
 8605POPC   C4A40098   7.397  26.854   7.355
 8605POPC   C1B40099   7.503  27.039   6.455
 8605POPC   C2B40100   7.540  27.007   6.755
 8605POPC   C3B40101   7.524  27.011   7.055
 8605POPC   C4B40102   7.545  27.078   7.355
 8606POPC   NC340103  25.307  15.140   5.555
 8606POPC   PO440104  25.246  15.218   5.855
 8606POPC   GL140105  25.311  15.209   6.155
 8606POPC   GL240106  25.190  15.095   6.155
 8606POPC   C1A40107  25.272  15.132   6.455
 8606POPC   D2A40108  25.259  15.190   6.755
 8606POPC   C3A40109  25.243  15.143   7.055
 8606POPC   C4A40110  25.313  15.148   7.355
 8606POPC   C1B40111  25.256  14.908   6.455
 8606POPC   C2B40112  25.188  14.925   6.755
 8606POPC   C3B40113  25.207  14.893   7.055
 8606POPC   C4B40114  25.200  14.977   7.355
 8607POPC   NC340115  24.440  19.097   5.555
 8607POPC   PO440116  24.500  19.077   5.855
 8607POPC   GL140117  24.487  19.059   6.155
 8607POPC   GL240118  24.386  19.116   6.155
 8607POPC   C1A40119  24.466  19.009   6.455
 8607POPC   D2A40120  24.527  19.085   6.755
 8607POPC   C3A40121  24.446  19.023   7.055
 8607POPC   C4A40122  24.460  19.106   7.355
 8607POPC   C1B40123  24.255  19.092   6.455
 8607POPC   C2B40124  24.227  19.164   6.755
 8607POPC   C3B40125  24.291  19.173   7.055
 8607POPC   C4B40126  24.250  19.159   7.355
 8608POPC   NC340127  22.919  41.528   5.555
 8608POPC   PO440128  22.967  41.545   5.855
 8608POPC   GL140129  22.938  41.510   6.155
 8608POPC   GL240130  22.820  41.601   6.155
 8608POPC   C1A40131  22.909  41.584   6.455
 8608POPC   D2A40132  22.900  41.538   6.755
 8608POPC   C3A40133  22.910  41.548   7.055
 8608POPC   C4A40134  22.940  41.564   7.355
 8608POPC   C1B40135  22.752  41.658   6.455
 8608POPC   C2B40136  22.704  41.659   6.755
 8608POPC   C3B40137  22.744  41.649   7.055
 8608POPC   C4B40138  22.660  41.682   7.355
 8609POPC   NC340139  43.063   5.105   5.555
 8609POPC   PO440140  43.132   5.132   5.855
 8609POPC   GL140141  43.108   5.081   6.155
 8609POPC   GL240142  43.244   5.097   6.155
 8609POPC   C1A40143  43.086   5.097   6.455
 8609POPC   D2A40144  43.145   5.089   6.755
 8609POPC   C3A40145  43.068   5.058   7.055
 8609POPC   C4A40146  43.090   5.081   7.355
 8609POPC   C1B40147  43.381   5.168   6.455
 8609POPC   C2B40148  43.292   5.145   6.755
 8609POPC   C3B40149  43.306   5.199   7.055
 8609POPC   C4B40150  43.316   5.227   7.355
 8610POPC   NC340151  23.694  33.833   5.555
 8610POPC   PO440152  23.703  33.771   5.855
 8610POPC   GL140153  23.703  33.790   6.155
 8610POPC   GL240154  23.838  33.839   6.155
 8610POPC   C1A40155  23.738  33.779   6.455
 8610POPC   D2A40156  23.684  33.817   6.755
 8610POPC   C3A40157  23.703  33.786   7.055
 8610POPC   C4A40158  23.740  33.785   7.355
 8610POPC   C1B40159  23.951  33.937   6.455
 8610POPC   C2B40160  23.970  33.865   6.755
 8610POPC   C3B40161  23.953  33.937   7.055
 8610POPC   C4B40162  23.893  33.884   7.355
 8611POPC   NC340163   1.216  31.513   5.555
 8611POPC   PO440164   1.206  31.517   5.855
 8611POPC   GL140165   1.174  31.512   6.155
 8611POPC   GL240166   1.058  31.535   6.155
 8611POPC   C1A40167   1.205  31.469   6.455
 8611POPC   D2A40168   1.231  31.451   6.755
 8611POPC   C3A40169   1.169  31.446   7.055
 8611POPC   C4A40170   1.171  31.460   7.355
 8611POPC   C1B40171   0.956  31.505   6.455
 8611POPC   C2B40172   0.989  31.538   6.755
 8611POPC   C3B40173   1.019  31.559   7.055
 8611POPC   C4B40174   0.976  31.590   7.355
 8612POPC   NC340175  34.591   1.947   5.555
 8612POPC   PO440176  34.545   1.978   5.855
 8612POPC   GL140177  34.550   2.002   6.155
 8612POPC   GL240178  34.540   2.141   6.155
 8612POPC   C1A40179  34.544   1.945   6.455
 8612POPC   D2A40180  34.601   2.014   6.755
 8612POPC   C3A40181  34.610   1.995   7.055
 8612POPC   C4A40182  34.618   1.981   7.355
 8612POPC   C1B40183  34.529   2.251   6.455
 8612POPC   C2B40184  34.577   2.279   6.755
 8612POPC   C3B40185  34.501   2.219   7.055
 8612POPC   C4B40186  34.496   2.254   7.355
 8613POPC   NC340187  26.862   5.101   5.555
 8613POPC   PO440188  26.792   5.049   5.855
 8613POPC   GL140189  26.854   5.085   6.155
 8613POPC   GL240190  26.757   4.974   6.155
 8613POPC   C1A40191  26.790   5.063   6.455
 8613POPC   D2A40192  26.786   5.078   6.755
 8613POPC   C3A40193  26.783   5.098   7.055
 8613POPC   C4A40194  26.781   5.138   7.355
 8613POPC   C1B40195  26.640   4.929   6.455
 8613POPC   C2B40196  26.686   4.915   6.755
 8613POPC   C3B40197  26.659   4.876   7.055
 8613POPC   C4B40198  26.653   4.943   7.355
 8614POPC   NC340199   0.474   2.026   5.555
 8614POPC   PO440200   0.427   1.941   5.855
 8614POPC   GL140201   0.440   1.983   6.155
 8614POPC   GL240202   0.412   1.886   6.155
 8614POPC   C1A40203   0.398   1.942   6.455
 8614POPC   D2A40204   0.401   2.021   6.755
 8614POPC   C3A40205   0.442   1.991   7.055
 8614POPC   C4A40206   0.400   1.977   7.355
 8614POPC   C1B40207   0.507   1.771   6.455
 8614POPC   C2B40208   0.504   1.735   6.755
 8614POPC   C3B40209   0.454   1.702   7.055
 8614POPC   C4B40210   0.409   1.726   7.355
 8615POPC   NC340211  12.117  22.922   5.555
 8615POPC   PO440212  12.096  22.913   5.855
 8615POPC   GL140213  12.039  22.982   6.155
 8615POPC   GL240214  11.956  22.854   6.155
 8615POPC   C1A40215  12.124  22.969   6.455
 8615POPC   D2A40216  12.030  22.979   6.755
 8615POPC   C3A40217  12.087  22.974   7.055
 8615POPC   C4A40218  12.082  22.929   7.355
 8615POPC   C1B40219  11.949  22.768   6.455
 8615POPC   C2B40220  11.904  22.779   6.755
 8615POPC   C3B40221  11.883  22.719   7.055
 8615POPC   C4B40222  11.873  22.775   7.355
 8616POPC   NC340223  22.948  40.050   5.555
 8616POPC   PO440224  22.954  40.019   5.855
 8616POPC   GL140225  22.933  40.051   6.155
 8616POPC   GL240226  23.021  39.901   6.155
 8616POPC   C1A40227  22.960  39.977   6.455
 8616POPC   D2A40228  22.970  40.041   6.755
 8616POPC   C3A40229  22.944  39.984   7.055
 8616POPC   C4A40230  22.940  40.047   7.355
 8616POPC   C1B40231  23.183  39.894   6.455
 8616POPC   C2B40232  23.170  39.914   6.755
 8616POPC   C3B40233  23.145  39.914   7.055
 8616POPC   C4B40234  23.166  39.882   7.355
 8617POPC   NC340235  15.963  42.357   5.555
 8617POPC   PO440236  15.915  42.317   5.855
 8617POPC   GL140237  15.976  42.300   6.155
 8617POPC   GL240238  16.036  42.325   6.155
 8617POPC   C1A40239  15.967  42.336   6.455
 8617POPC   D2A40240  15.966  42.384   6.755
 8617POPC   C3A40241  15.965  42.304   7.055
 8617POPC   C4A40242  15.959  42.362   7.355
 8617POPC   C1B40243  16.225  42.271   6.455
 8617POPC   C2B40244  16.214  42.264   6.755
 8617POPC   C3B40245  16.184  42.321   7.055
 8617POPC   C4B40246  16.168  42.286   7.355
 8618POPC   NC340247  41.580   5.127   5.555
 8618POPC   PO440248  41.541   5.128   5.855
 8618POPC   GL140249  41.559   5.108   6.155
 8618POPC   GL240250  41.521   4.957   6.155
 8618POPC   C1A40251  41.544   5.081   6.455
 8618POPC   D2A40252  41.559   5.122   6.755
 8618POPC   C3A40253  41.533   5.059   7.055
 8618POPC   C4A40254  41.521   5.124   7.355
 8618POPC   C1B40255  41.560   4.864   6.455
 8618POPC   C2B40256  41.563   4.850   6.755
 8618POPC   C3B40257  41.543   4.858   7.055
 8618POPC   C4B40258  41.605   4.822   7.355
 8619POPC   NC340259  10.488  19.084   5.555
 8619POPC   PO440260  10.541  19.078   5.855
 8619POPC   GL140261  10.474  19.079   6.155
 8619POPC   GL240262  10.461  19.227   6.155
 8619POPC   C1A40263  10.530  19.073   6.455
 8619POPC   D2A40264  10.482  19.086   6.755
 8619POPC   C3A40265  10.505  19.018   7.055
 8619POPC   C4A40266  10.499  19.036   7.355
 8619POPC   C1B40267  10.478  19.276   6.455
 8619POPC   C2B40268  10.482  19.259   6.755
 8619POPC   C3B40269  10.524  19.349   7.055
 8619POPC   C4B40270  10.450  19.329   7.355
 8620POPC   NC340271  42.319  26.040   5.555
 8620POPC   PO440272  42.331  26.065   5.855
 8620POPC   GL140273  42.322  26.087   6.155
 8620POPC   GL240274  42.396  25.953   6.155
 8620POPC   C1A40275  42.338  26.021   6.455
 8620POPC   D2A40276  42.323  26.023   6.755
 8620POPC   C3A40277  42.326  26.010   7.055
 8620POPC   C4A40278  42.290  26.050   7.355
 8620POPC   C1B40279  42.492  25.868   6.455
 8620POPC   C2B40280  42.482  25.928   6.755
 8620POPC   C3B40281  42.540  25.869   7.055
 8620POPC   C4B40282  42.569  25.894   7.355
 8621POPC   NC340283  31.505  29.110   5.555
 8621POPC   PO440284  31.473  29.127   5.855
 8621POPC   GL140285  31.435  29.177   6.155
 8621POPC   GL240286  31.380  29.178   6.155
 8621POPC   C1A40287  31.475  29.097   6.455
 8621POPC   D2A40288  31.465  29.105   6.755
 8621POPC   C3A40289  31.438  29.121   7.055
 8621POPC   C4A40290  31.478  29.128   7.355
 8621POPC   C1B40291  31.225  29.167   6.455
 8621POPC   C2B40292  31.185  29.170   6.755
 8621POPC   C3B40293  31.196  29.135   7.055
 8621POPC   C4B40294  31.264  29.158   7.355
 8622POPC   NC340295  20.568  15.919   5.555
 8622POPC   PO440296  20.586  15.926   5.855
 8622POPC   GL140297  20.635  15.928   6.155
 8622POPC   GL240298  20.525  15.841   6.155
 8622POPC   C1A40299  20.613  15.934   6.455
 8622POPC   D2A40300  20.580  15.963   6.755
 8622POPC   C3A40301  20.607  15.950   7.055
 8622POPC   C4A40302  20.586  15.941   7.355
 8622POPC   C1B40303  20.398  15.809   6.455
 8622POPC   C2B40304  20.367  15.809   6.755
 8622POPC   C3B40305  20.415  15.854   7.055
 8622POPC   C4B40306  20.379  15.853   7.355
 8623POPC   NC340307   4.301  33.755   5.555
 8623POPC   PO440308   4.351  33.807   5.855
 8623POPC   GL140309   4.303  33.807   6.155
 8623POPC   GL240310   4.235  33.732   6.155
 8623POPC   C1A40311   4.279  33.825   6.455
 8623POPC   D2A40312   4.352  33.834   6.755
 8623POPC   C3A40313   4.326  33.780   7.055
 8623POPC   C4A40314   4.341  33.756   7.355
 8623POPC   C1B40315   4.043  33.718   6.455
 8623POPC   C2B40316   4.045  33.774   6.755
 8623POPC   C3B40317   4.069  33.727   7.055
 8623POPC   C4B40318   4.106  33.780   7.355
 8624POPC   NC340319  33.829  16.750   5.555
 8624POPC   PO440320  33.797  16.707   5.855
 8624POPC   GL140321  33.776  16.724   6.155
 8624POPC   GL240322  33.804  16.609   6.155
 8624POPC   C1A40323  33.836  16.772   6.455
 8624POPC   D2A40324  33.819  16.741   6.755
 8624POPC   C3A40325  33.809  16.716   7.055
 8624POPC   C4A40326  33.751  16.718   7.355
 8624POPC   C1B40327  33.702  16.480   6.455
 8624POPC   C2B40328  33.744  16.460   6.755
 8624POPC   C3B40329  33.717  16.536   7.055
 8624POPC   C4B40330  33.769  16.527   7.355
 8625POPC   NC340331  28.381  27.577   5.555
 8625POPC   PO440332  28.383  27.543   5.855
 8625POPC   GL140333  28.398  27.637   6.155
 8625POPC   GL240334  28.292  27.577   6.155
 8625POPC   C1A40335  28.410  27.603   6.455
 8625POPC   D2A40336  28.366  27.557   6.755
 8625POPC   C3A40337  28.415  27.639   7.055
 8625POPC   C4A40338  28.343  27.594   7.355
 8625POPC   C1B40339  28.119  27.652   6.455
 8625POPC   C2B40340  28.164  27.659   6.755
 8625POPC   C3B40341  28.132  27.632   7.055
 8625POPC   C4B40342  28.076  27.648   7.355
 8626POPC   NC340343  42.361  39.212   5.555
 8626POPC   PO440344  42.289  39.226   5.855
 8626POPC   GL140345  42.374  39.240   6.155
 8626POPC   GL240346  42.437  39.113   6.155
 8626POPC   C1A40347  42.323  39.258   6.455
 8626POPC   D2A40348  42.311  39.231   6.755
 8626POPC   C3A40349  42.292  39.203   7.055
 8626POPC   C4A40350  42.335  39.204   7.355
 8626POPC   C1B40351  42.525  39.089   6.455
 8626POPC   C2B40352  42.486  39.029   6.755
 8626POPC   C3B40353  42.505  39.074   7.055
 8626POPC   C4B40354  42.491  39.081   7.355
 8627POPC   NC340355  13.620  19.797   5.555
 8627POPC   PO440356  13.667  19.795   5.855
 8627POPC   GL140357  13.612  19.861   6.155
 8627POPC   GL240358  13.485  19.879   6.155
 8627POPC   C1A40359  13.660  19.807   6.455
 8627POPC   D2A40360  13.648  19.874   6.755
 8627POPC   C3A40361  13.599  19.840   7.055
 8627POPC   C4A40362  13.654  19.857   7.355
 8627POPC   C1B40363  13.419  19.986   6.455
 8627POPC   C2B40364  13.424  19.976   6.755
 8627POPC   C3B40365  13.376  19.975   7.055
 8627POPC   C4B40366  13.451  19.919   7.355
 8628POPC   NC340367  26.069  19.074   5.555
 8628POPC   PO440368  26.069  19.049   5.855
 8628POPC   GL140369  26.053  19.035   6.155
 8628POPC   GL240370  26.071  18.912   6.155
 8628POPC   C1A40371  26.082  19.018   6.455
 8628POPC   D2A40372  26.011  19.021   6.755
 8628POPC   C3A40373  26.065  19.020   7.055
 8628POPC   C4A40374  25.997  19.075   7.355
 8628POPC   C1B40375  25.998  18.845   6.455
 8628POPC   C2B40376  26.047  18.826   6.755
 8628POPC   C3B40377  26.089  18.763   7.055
 8628POPC   C4B40378  26.085  18.834   7.355
 8629POPC   NC340379   6.664   3.518   5.555
 8629POPC   PO440380   6.649   3.491   5.855
 8629POPC   GL140381   6.654   3.549   6.155
 8629POPC   GL240382   6.556   3.684   6.155
 8629POPC   C1A40383   6.634   3.563   6.455
 8629POPC   D2A40384   6.611   3.549   6.755
 8629POPC   C3A40385   6.603   3.556   7.055
 8629POPC   C4A40386   6.678   3.525   7.355
 8629POPC   C1B40387   6.554   3.718   6.455
 8629POPC   C2B40388   6.480   3.797   6.755
 8629POPC   C3B40389   6.471   3.790   7.055
 8629POPC   C4B40390   6.461   3.713   7.355
 8630POPC   NC340391  44.672  11.278   5.555
 8630POPC   PO440392  44.677  11.313   5.855
 8630POPC   GL140393  44.638  11.327   6.155
 8630POPC   GL240394  44.669  11.173   6.155
 8630POPC   C1A40395  44.676  11.298   6.455
 8630POPC   D2A40396  44.685  11.271   6.755
 8630POPC   C3A40397  44.686  11.302   7.055
 8630POPC   C4A40398  44.666  11.284   7.355
 8630POPC   C1B40399  44.703  11.082   6.455
 8630POPC   C2B40400  44.697  11.071   6.755
 8630POPC   C3B40401  44.686  11.050   7.055
 8630POPC   C4B40402  44.737  11.014   7.355
 8631POPC   NC340403  26.035   6.645   5.555
 8631POPC   PO440404  26.076   6.660   5.855
 8631POPC   GL140405  26.088   6.655   6.155
 8631POPC   GL240406  25.930   6.705   6.155
 8631POPC   C1A40407  26.071   6.677   6.455
 8631POPC   D2A40408  26.063   6.603   6.755
 8631POPC   C3A40409  26.074   6.609   7.055
 8631POPC   C4A40410  26.089   6.649   7.355
 8631POPC   C1B40411  25.790   6.822   6.455
 8631POPC   C2B40412  25.876   6.756   6.755
 8631POPC   C3B40413  25.799   6.731   7.055
 8631POPC   C4B40414  25.874   6.819   7.355
 8632POPC   NC340415  16.760  11.326   5.555
 8632POPC   PO440416  16.716  11.333   5.855
 8632POPC   GL140417  16.685  11.326   6.155
 8632POPC   GL240418  16.651  11.290   6.155
 8632POPC   C1A40419  16.774  11.303   6.455
 8632POPC   D2A40420  16.749  11.293   6.755
 8632POPC   C3A40421  16.682  11.319   7.055
 8632POPC   C4A40422  16.705  11.332   7.355
 8632POPC   C1B40423  16.522  11.293   6.455
 8632POPC   C2B40424  16.493  11.241   6.755
 8632POPC   C3B40425  16.497  11.286   7.055
 8632POPC   C4B40426  16.508  11.300   7.355
 8633POPC   NC340427   9.704  19.028   5.555
 8633POPC   PO440428   9.794  19.083   5.855
 8633POPC   GL140429   9.711  19.030   6.155
 8633POPC   GL240430   9.648  19.121   6.155
 8633POPC   C1A40431   9.702  19.048   6.455
 8633POPC   D2A40432   9.760  19.074   6.755
 8633POPC   C3A40433   9.743  19.105   7.055
 8633POPC   C4A40434   9.790  19.049   7.355
 8633POPC   C1B40435   9.506  19.072   6.455
 8633POPC   C2B40436   9.497  19.119   6.755
 8633POPC   C3B40437   9.507  19.131   7.055
 8633POPC   C4B40438   9.549  19.068   7.355
 8634POPC   NC340439  43.863  10.568   5.555
 8634POPC   PO440440  43.863  10.510   5.855
 8634POPC   GL140441  43.838  10.549   6.155
 8634POPC   GL240442  43.856  10.376   6.155
 8634POPC   C1A40443  43.930  10.511   6.455
 8634POPC   D2A40444  43.882  10.531   6.755
 8634POPC   C3A40445  43.859  10.538   7.055
 8634POPC   C4A40446  43.930  10.510   7.355
 8634POPC   C1B40447  43.827  10.281   6.455
 8634POPC   C2B40448  43.784  10.278   6.755
 8634POPC   C3B40449  43.824  10.297   7.055
 8634POPC   C4B40450  43.842  10.299   7.355
 8635POPC   NC340451  43.839   3.563   5.555
 8635POPC   PO440452  43.871   3.530   5.855
 8635POPC   GL140453  43.890   3.509   6.155
 8635POPC   GL240454  43.841   3.695   6.155
 8635POPC   C1A40455  43.927   3.580   6.455
 8635POPC   D2A40456  43.910   3.515   6.755
 8635POPC   C3A40457  43.900   3.536   7.055
 8635POPC   C4A40458  43.865   3.549   7.355
 8635POPC   C1B40459  43.713   3.773   6.455
 8635POPC   C2B40460  43.759   3.750   6.755
 8635POPC   C3B40461  43.776   3.756   7.055
 8635POPC   C4B40462  43.731   3.768   7.355
 8636POPC   NC340463  33.017  19.090   5.555
 8636POPC   PO440464  33.035  19.050   5.855
 8636POPC   GL140465  33.002  19.036   6.155
 8636POPC   GL240466  32.971  18.946   6.155
 8636POPC   C1A40467  33.061  19.049   6.455
 8636POPC   D2A40468  33.027  19.016   6.755
 8636POPC   C3A40469  32.989  19.025   7.055
 8636POPC   C4A40470  33.072  19.066   7.355
 8636POPC   C1B40471  33.034  18.840   6.455
 8636POPC   C2B40472  32.976  18.847   6.755
 8636POPC   C3B40473  33.038  18.787   7.055
 8636POPC   C4B40474  32.971  18.778   7.355
 8637POPC   NC340475  25.289  30.718   5.555
 8637POPC   PO440476  25.265  30.717   5.855
 8637POPC   GL140477  25.291  30.687   6.155
 8637POPC   GL240478  25.264  30.566   6.155
 8637POPC   C1A40479  25.273  30.660   6.455
 8637POPC   D2A40480  25.295  30.708   6.755
 8637POPC   C3A40481  25.256  30.701   7.055
 8637POPC   C4A40482  25.277  30.714   7.355
 8637POPC   C1B40483  25.148  30.435   6.455
 8637POPC   C2B40484  25.143  30.479   6.755
 8637POPC   C3B40485  25.174  30.432   7.055
 8637POPC   C4B40486  25.144  30.476   7.355
 8638POPC   NC340487  13.629  22.175   5.555
 8638POPC   PO440488  13.583  22.179   5.855
 8638POPC   GL140489  13.653  22.172   6.155
 8638POPC   GL240490  13.747  22.072   6.155
 8638POPC   C1A40491  13.667  22.112   6.455
 8638POPC   D2A40492  13.592  22.186   6.755
 8638POPC   C3A40493  13.579  22.186   7.055
 8638POPC   C4A40494  13.648  22.116   7.355
 8638POPC   C1B40495  13.822  22.009   6.455
 8638POPC   C2B40496  13.773  22.049   6.755
 8638POPC   C3B40497  13.837  21.977   7.055
 8638POPC   C4B40498  13.804  22.032   7.355
 8639POPC   NC340499  27.626  35.349   5.555
 8639POPC   PO440500  27.582  35.391   5.855
 8639POPC   GL140501  27.592  35.357   6.155
 8639POPC   GL240502  27.459  35.321   6.155
 8639POPC   C1A40503  27.549  35.354   6.455
 8639POPC   D2A40504  27.633  35.320   6.755
 8639POPC   C3A40505  27.582  35.359   7.055
 8639POPC   C4A40506  27.638  35.400   7.355
 8639POPC   C1B40507  27.338  35.329   6.455
 8639POPC   C2B40508  27.349  35.354   6.755
 8639POPC   C3B40509  27.323  35.359   7.055
 8639POPC   C4B40510  27.379  35.347   7.355
 8640POPC   NC340511  44.685  23.684   5.555
 8640POPC   PO440512  44.639  23.703   5.855
 8640POPC   GL140513  44.643  23.753   6.155
 8640POPC   GL240514  44.608  23.827   6.155
 8640POPC   C1A40515  44.687  23.666   6.455
 8640POPC   D2A40516  44.633  23.689   6.755
 8640POPC   C3A40517  44.658  23.716   7.055
 8640POPC   C4A40518  44.653  23.697   7.355
 8640POPC   C1B40519  44.539  23.913   6.455
 8640POPC   C2B40520  44.583  23.957   6.755
 8640POPC   C3B40521  44.539  23.914   7.055
 8640POPC   C4B40522  44.551  23.884   7.355
 8641POPC   NC340523  19.068   5.092   5.555
 8641POPC   PO440524  19.068   5.141   5.855
 8641POPC   GL140525  19.084   5.118   6.155
 8641POPC   GL240526  19.056   5.011   6.155
 8641POPC   C1A40527  19.018   5.052   6.455
 8641POPC   D2A40528  19.061   5.118   6.755
 8641POPC   C3A40529  19.068   5.052   7.055
 8641POPC   C4A40530  19.087   5.047   7.355
 8641POPC   C1B40531  18.970   4.842   6.455
 8641POPC   C2B40532  18.934   4.847   6.755
 8641POPC   C3B40533  18.921   4.888   7.055
 8641POPC   C4B40534  18.963   4.862   7.355
 8642POPC   NC340535  15.187   8.187   5.555
 8642POPC   PO440536  15.227   8.188   5.855
 8642POPC   GL140537  15.166   8.171   6.155
 8642POPC   GL240538  15.181   8.049   6.155
 8642POPC   C1A40539  15.193   8.160   6.455
 8642POPC   D2A40540  15.132   8.183   6.755
 8642POPC   C3A40541  15.164   8.175   7.055
 8642POPC   C4A40542  15.164   8.228   7.355
 8642POPC   C1B40543  15.215   7.907   6.455
 8642POPC   C2B40544  15.197   7.948   6.755
 8642POPC   C3B40545  15.200   7.950   7.055
 8642POPC   C4B40546  15.201   7.919   7.355
 8643POPC   NC340547  42.312  22.928   5.555
 8643POPC   PO440548  42.337  22.966   5.855
 8643POPC   GL140549  42.311  22.912   6.155
 8643POPC   GL240550  42.180  22.941   6.155
 8643POPC   C1A40551  42.327  22.970   6.455
 8643POPC   D2A40552  42.371  22.890   6.755
 8643POPC   C3A40553  42.325  22.930   7.055
 8643POPC   C4A40554  42.377  22.902   7.355
 8643POPC   C1B40555  42.044  22.903   6.455
 8643POPC   C2B40556  42.125  22.931   6.755
 8643POPC   C3B40557  42.073  22.937   7.055
 8643POPC   C4B40558  42.051  22.938   7.355
 8644POPC   NC340559  36.871  16.757   5.555
 8644POPC   PO440560  36.901  16.698   5.855
 8644POPC   GL140561  36.906  16.709   6.155
 8644POPC   GL240562  36.767  16.707   6.155
 8644POPC   C1A40563  36.889  16.720   6.455
 8644POPC   D2A40564  36.890  16.690   6.755
 8644POPC   C3A40565  36.926  16.696   7.055
 8644POPC   C4A40566  36.879  16.733   7.355
 8644POPC   C1B40567  36.647  16.721   6.455
 8644POPC   C2B40568  36.618  16.652   6.755
 8644POPC   C3B40569  36.617  16.719   7.055
 8644POPC   C4B40570  36.682  16.684   7.355
 8645POPC   NC340571  39.271  33.012   5.555
 8645POPC   PO440572  39.206  33.037   5.855
 8645POPC   GL140573  39.279  33.067   6.155
 8645POPC   GL240574  39.332  33.034   6.155
 8645POPC   C1A40575  39.247  32.999   6.455
 8645POPC   D2A40576  39.276  33.054   6.755
 8645POPC   C3A40577  39.237  33.028   7.055
 8645POPC   C4A40578  39.270  33.012   7.355
 8645POPC   C1B40579  39.429  32.958   6.455
 8645POPC   C2B40580  39.528  32.948   6.755
 8645POPC   C3B40581  39.516  32.992   7.055
 8645POPC   C4B40582  39.434  33.015   7.355
 8646POPC   NC340583  19.050  15.941   5.555
 8646POPC   PO440584  19.025  15.989   5.855
 8646POPC   GL140585  19.091  15.910   6.155
 8646POPC   GL240586  19.186  15.903   6.155
 8646POPC   C1A40587  19.069  15.925   6.455
 8646POPC   D2A40588  19.041  16.002   6.755
 8646POPC   C3A40589  19.018  16.003   7.055
 8646POPC   C4A40590  19.033  15.921   7.355
 8646POPC   C1B40591  19.290  15.873   6.455
 8646POPC   C2B40592  19.279  15.919   6.755
 8646POPC   C3B40593  19.266  15.830   7.055
 8646POPC   C4B40594  19.322  15.889   7.355
 8647POPC   NC340595  29.139  15.206   5.555
 8647POPC   PO440596  29.131  15.171   5.855
 8647POPC   GL140597  29.176  15.173   6.155
 8647POPC   GL240598  29.216  15.030   6.155
 8647POPC   C1A40599  29.101  15.185   6.455
 8647POPC   D2A40600  29.175  15.155   6.755
 8647POPC   C3A40601  29.164  15.167   7.055
 8647POPC   C4A40602  29.124  15.135   7.355
 8647POPC   C1B40603  29.242  14.908   6.455
 8647POPC   C2B40604  29.228  14.907   6.755
 8647POPC   C3B40605  29.235  14.910   7.055
 8647POPC   C4B40606  29.182  14.962   7.355
 8648POPC   NC340607  23.716  14.360   5.555
 8648POPC   PO440608  23.674  14.357   5.855
 8648POPC   GL140609  23.685  14.373   6.155
 8648POPC   GL240610  23.561  14.498   6.155
 8648POPC   C1A40611  23.685  14.385   6.455
 8648POPC   D2A40612  23.762  14.368   6.755
 8648POPC   C3A40613  23.734  14.438   7.055
 8648POPC   C4A40614  23.669  14.372   7.355
 8648POPC   C1B40615  23.477  14.555   6.455
 8648POPC   C2B40616  23.506  14.561   6.755
 8648POPC   C3B40617  23.448  14.511   7.055
 8648POPC   C4B40618  23.441  14.496   7.355
 8649POPC   NC340619   4.279  15.196   5.555
 8649POPC   PO440620   4.317  15.170   5.855
 8649POPC   GL140621   4.330  15.210   6.155
 8649POPC   GL240622   4.319  15.314   6.155
 8649POPC   C1A40623   4.352  15.132   6.455
 8649POPC   D2A40624   4.273  15.178   6.755
 8649POPC   C3A40625   4.309  15.139   7.055
 8649POPC   C4A40626   4.346  15.192   7.355
 8649POPC   C1B40627   4.390  15.392   6.455
 8649POPC   C2B40628   4.393  15.380   6.755
 8649POPC   C3B40629   4.361  15.383   7.055
 8649POPC   C4B40630   4.342  15.395   7.355
 8650POPC   NC340631   6.674  15.998   5.555
 8650POPC   PO440632   6.655  15.957   5.855
 8650POPC   GL140633   6.669  15.971   6.155
 8650POPC   GL240634   6.649  15.867   6.155
 8650POPC   C1A40635   6.635  15.913   6.455
 8650POPC   D2A40636   6.667  15.918   6.755
 8650POPC   C3A40637   6.670  15.981   7.055
 8650POPC   C4A40638   6.647  15.968   7.355
 8650POPC   C1B40639   6.662  15.753   6.455
 8650POPC   C2B40640   6.599  15.687   6.755
 8650POPC   C3B40641   6.620  15.661   7.055
 8650POPC   C4B40642   6.695  15.662   7.355
 8651POPC   NC340643  40.753  31.508   5.555
 8651POPC   PO440644  40.830  31.436   5.855
 8651POPC   GL140645  40.763  31.478   6.155
 8651POPC   GL240646  40.646  31.454   6.155
 8651POPC   C1A40647  40.814  31.487   6.455
 8651POPC   D2A40648  40.776  31.436   6.755
 8651POPC   C3A40649  40.822  31.427   7.055
 8651POPC   C4A40650  40.742  31.483   7.355
 8651POPC   C1B40651  40.534  31.445   6.455
 8651POPC   C2B40652  40.566  31.483   6.755
 8651POPC   C3B40653  40.570  31.524   7.055
 8651POPC   C4B40654  40.569  31.446   7.355
 8652POPC   NC340655  42.318  14.410   5.555
 8652POPC   PO440656  42.335  14.450   5.855
 8652POPC   GL140657  42.288  14.364   6.155
 8652POPC   GL240658  42.487  14.441   6.155
 8652POPC   C1A40659  42.367  14.406   6.455
 8652POPC   D2A40660  42.298  14.440   6.755
 8652POPC   C3A40661  42.315  14.406   7.055
 8652POPC   C4A40662  42.345  14.382   7.355
 8652POPC   C1B40663  42.557  14.586   6.455
 8652POPC   C2B40664  42.583  14.507   6.755
 8652POPC   C3B40665  42.539  14.550   7.055
 8652POPC   C4B40666  42.579  14.517   7.355
 8653POPC   NC340667  37.716  11.339   5.555
 8653POPC   PO440668  37.713  11.342   5.855
 8653POPC   GL140669  37.683  11.279   6.155
 8653POPC   GL240670  37.581  11.349   6.155
 8653POPC   C1A40671  37.654  11.269   6.455
 8653POPC   D2A40672  37.675  11.319   6.755
 8653POPC   C3A40673  37.717  11.259   7.055
 8653POPC   C4A40674  37.632  11.350   7.355
 8653POPC   C1B40675  37.462  11.514   6.455
 8653POPC   C2B40676  37.501  11.442   6.755
 8653POPC   C3B40677  37.462  11.476   7.055
 8653POPC   C4B40678  37.530  11.474   7.355
 8654POPC   NC340679  41.549  12.824   5.555
 8654POPC   PO440680  41.602  12.896   5.855
 8654POPC   GL140681  41.556  12.867   6.155
 8654POPC   GL240682  41.520  12.996   6.155
 8654POPC   C1A40683  41.569  12.831   6.455
 8654POPC   D2A40684  41.546  12.817   6.755
 8654POPC   C3A40685  41.533  12.880   7.055
 8654POPC   C4A40686  41.582  12.886   7.355
 8654POPC   C1B40687  41.538  13.131   6.455
 8654POPC   C2B40688  41.533  13.142   6.755
 8654POPC   C3B40689  41.537  13.103   7.055
 8654POPC   C4B40690  41.551  13.099   7.355
 8655POPC   NC340691  29.139   2.005   5.555
 8655POPC   PO440692  29.186   1.944   5.855
 8655POPC   GL140693  29.151   2.028   6.155
 8655POPC   GL240694  29.231   2.066   6.155
 8655POPC   C1A40695  29.126   2.029   6.455
 8655POPC   D2A40696  29.152   2.004   6.755
 8655POPC   C3A40697  29.176   1.940   7.055
 8655POPC   C4A40698  29.174   1.988   7.355
 8655POPC   C1B40699  29.371   2.011   6.455
 8655POPC   C2B40700  29.388   2.089   6.755
 8655POPC   C3B40701  29.354   2.094   7.055
 8655POPC   C4B40702  29.425   2.082   7.355
 8656POPC   NC340703  44.700  16.003   5.555
 8656POPC   PO440704  44.693  15.972   5.855
 8656POPC   GL140705  44.688  15.915   6.155
 8656POPC   GL240706  44.781  15.881   6.155
 8656POPC   C1A40707  44.653  15.991   6.455
 8656POPC   D2A40708  44.626  16.001   6.755
 8656POPC   C3A40709  44.625  15.968   7.055
 8656POPC   C4A40710  44.670  15.998   7.355
 8656POPC   C1B40711  44.917  15.857   6.455
 8656POPC   C2B40712  44.828  15.839   6.755
 8656POPC   C3B40713  44.873  15.826   7.055
 8656POPC   C4B40714  44.836  15.787   7.355
 8657POPC   NC340715   1.993   3.589   5.555
 8657POPC   PO440716   1.963   3.534   5.855
 8657POPC   GL140717   1.996   3.533   6.155
 8657POPC   GL240718   2.080   3.643   6.155
 8657POPC   C1A40719   2.012   3.533   6.455
 8657POPC   D2A40720   1.976   3.512   6.755
 8657POPC   C3A40721   2.021   3.541   7.055
 8657POPC   C4A40722   1.984   3.560   7.355
 8657POPC   C1B40723   2.156   3.772   6.455
 8657POPC   C2B40724   2.188   3.739   6.755
 8657POPC   C3B40725   2.142   3.768   7.055
 8657POPC   C4B40726   2.114   3.725   7.355
 8658POPC   NC340727  39.279   1.967   5.555
 8658POPC   PO440728  39.270   1.982   5.855
 8658POPC   GL140729  39.249   2.034   6.155
 8658POPC   GL240730  39.265   2.112   6.155
 8658POPC   C1A40731  39.277   2.024   6.455
 8658POPC   D2A40732  39.244   1.970   6.755
 8658POPC   C3A40733  39.230   1.978   7.055
 8658POPC   C4A40734  39.215   2.030   7.355
 8658POPC   C1B40735  39.239   2.226   6.455
 8658POPC   C2B40736  39.248   2.268   6.755
 8658POPC   C3B40737  39.263   2.234   7.055
 8658POPC   C4B40738  39.266   2.222   7.355
 8659POPC   NC340739   2.028  35.323   5.555
 8659POPC   PO440740   1.943  35.320   5.855
 8659POPC   GL140741   1.984  35.386   6.155
 8659POPC   GL240742   1.851  35.293   6.155
 8659POPC   C1A40743   1.954  35.317   6.455
 8659POPC   D2A40744   2.011  35.381   6.755
 8659POPC   C3A40745   1.963  35.308   7.055
 8659POPC   C4A40746   2.016  35.330   7.355
 8659POPC   C1B40747   1.782  35.221   6.455
 8659POPC   C2B40748   1.794  35.203   6.755
 8659POPC   C3B40749   1.797  35.209   7.055
 8659POPC   C4B40750   1.728  35.289   7.355
 8660POPC   NC340751   8.164  33.849   5.555
 8660POPC   PO440752   8.176  33.766   5.855
 8660POPC   GL140753   8.170  33.763   6.155
 8660POPC   GL240754   8.109  33.739   6.155
 8660POPC   C1A40755   8.225  33.768   6.455
 8660POPC   D2A40756   8.237  33.844   6.755
 8660POPC   C3A40757   8.177  33.844   7.055
 8660POPC   C4A40758   8.179  33.823   7.355
 8660POPC   C1B40759   7.922  33.711   6.455
 8660POPC   C2B40760   7.924  33.736   6.755
 8660POPC   C3B40761   7.953  33.696   7.055
 8660POPC   C4B40762   7.964  33.760   7.355
 8661POPC   NC340763   1.953  16.777   5.555
 8661POPC   PO440764   2.028  16.779   5.855
 8661POPC   GL140765   2.006  16.721   6.155
 8661POPC   GL240766   2.043  16.788   6.155
 8661POPC   C1A40767   1.953  16.775   6.455
 8661POPC   D2A40768   2.026  16.696   6.755
 8661POPC   C3A40769   2.028  16.721   7.055
 8661POPC   C4A40770   1.960  16.763   7.355
 8661POPC   C1B40771   2.167  16.895   6.455
 8661POPC   C2B40772   2.178  16.910   6.755
 8661POPC   C3B40773   2.227  16.856   7.055
 8661POPC   C4B40774   2.149  16.902   7.355
 8662POPC   NC340775  16.706  15.980   5.555
 8662POPC   PO440776  16.705  15.997   5.855
 8662POPC   GL140777  16.690  15.949   6.155
 8662POPC   GL240778  16.751  16.047   6.155
 8662POPC   C1A40779  16.769  15.937   6.455
 8662POPC   D2A40780  16.765  15.977   6.755
 8662POPC   C3A40781  16.696  15.939   7.055
 8662POPC   C4A40782  16.758  15.966   7.355
 8662POPC   C1B40783  16.741  16.191   6.455
 8662POPC   C2B40784  16.748  16.195   6.755
 8662POPC   C3B40785  16.736  16.220   7.055
 8662POPC   C4B40786  16.819  16.156   7.355
 8663POPC   NC340787   5.053  32.984   5.555
 8663POPC   PO440788   5.044  33.070   5.855
 8663POPC   GL140789   5.129  33.068   6.155
 8663POPC   GL240790   5.131  33.127   6.155
 8663POPC   C1A40791   5.106  32.993   6.455
 8663POPC   D2A40792   5.086  33.038   6.755
 8663POPC   C3A40793   5.044  33.062   7.055
 8663POPC   C4A40794   5.132  33.053   7.355
 8663POPC   C1B40795   5.265  33.164   6.455
 8663POPC   C2B40796   5.302  33.200   6.755
 8663POPC   C3B40797   5.296  33.190   7.055
 8663POPC   C4B40798   5.227  33.226   7.355
 8664POPC   NC340799  26.769  27.569   5.555
 8664POPC   PO440800  26.865  27.625   5.855
 8664POPC   GL140801  26.821  27.544   6.155
 8664POPC   GL240802  26.807  27.460   6.155
 8664POPC   C1A40803  26.810  27.640   6.455
 8664POPC   D2A40804  26.803  27.571   6.755
 8664POPC   C3A40805  26.842  27.594   7.055
 8664POPC   C4A40806  26.773  27.632   7.355
 8664POPC   C1B40807  26.761  27.396   6.455
 8664POPC   C2B40808  26.799  27.344   6.755
 8664POPC   C3B40809  26.778  27.352   7.055
 8664POPC   C4B40810  26.770  27.364   7.355
 8665POPC   NC340811  27.597  15.174   5.555
 8665POPC   PO440812  27.571  15.163   5.855
 8665POPC   GL140813  27.597  15.142   6.155
 8665POPC   GL240814  27.520  15.340   6.155
 8665POPC   C1A40815  27.588  15.154   6.455
 8665POPC   D2A40816  27.559  15.166   6.755
 8665POPC   C3A40817  27.569  15.153   7.055
 8665POPC   C4A40818  27.642  15.209   7.355
 8665POPC   C1B40819  27.548  15.461   6.455
 8665POPC   C2B40820  27.516  15.432   6.755
 8665POPC   C3B40821  27.544  15.392   7.055
 8665POPC   C4B40822  27.498  15.421   7.355
 8666POPC   NC340823  29.162   0.483   5.555
 8666POPC   PO440824  29.129   0.405   5.855
 8666POPC   GL140825  29.147   0.394   6.155
 8666POPC   GL240826  29.281   0.421   6.155
 8666POPC   C1A40827  29.186   0.428   6.455
 8666POPC   D2A40828  29.127   0.467   6.755
 8666POPC   C3A40829  29.185   0.411   7.055
 8666POPC   C4A40830  29.184   0.435   7.355
 8666POPC   C1B40831  29.366   0.332   6.455
 8666POPC   C2B40832  29.345   0.397   6.755
 8666POPC   C3B40833  29.364   0.368   7.055
 8666POPC   C4B40834  29.340   0.382   7.355
 8667POPC   NC340835   7.402   6.620   5.555
 8667POPC   PO440836   7.390   6.620   5.855
 8667POPC   GL140837   7.416   6.598   6.155
 8667POPC   GL240838   7.479   6.698   6.155
 8667POPC   C1A40839   7.433   6.682   6.455
 8667POPC   D2A40840   7.440   6.617   6.755
 8667POPC   C3A40841   7.418   6.607   7.055
 8667POPC   C4A40842   7.381   6.630   7.355
 8667POPC   C1B40843   7.582   6.855   6.455
 8667POPC   C2B40844   7.644   6.787   6.755
 8667POPC   C3B40845   7.578   6.830   7.055
 8667POPC   C4B40846   7.556   6.852   7.355
 8668POPC   NC340847  15.149  33.831   5.555
 8668POPC   PO440848  15.137  33.795   5.855
 8668POPC   GL140849  15.159  33.848   6.155
 8668POPC   GL240850  15.334  33.809   6.155
 8668POPC   C1A40851  15.197  33.793   6.455
 8668POPC   D2A40852  15.215  33.796   6.755
 8668POPC   C3A40853  15.177  33.776   7.055
 8668POPC   C4A40854  15.144  33.791   7.355
 8668POPC   C1B40855  15.473  33.820   6.455
 8668POPC   C2B40856  15.379  33.882   6.755
 8668POPC   C3B40857  15.463  33.870   7.055
 8668POPC   C4B40858  15.436  33.841   7.355
 8669POPC   NC340859   8.231  21.373   5.555
 8669POPC   PO440860   8.244  21.362   5.855
 8669POPC   GL140861   8.237  21.342   6.155
 8669POPC   GL240862   8.196  21.258   6.155
 8669POPC   C1A40863   8.235  21.357   6.455
 8669POPC   D2A40864   8.172  21.402   6.755
 8669POPC   C3A40865   8.203  21.364   7.055
 8669POPC   C4A40866   8.204  21.354   7.355
 8669POPC   C1B40867   8.273  21.179   6.455
 8669POPC   C2B40868   8.337  21.165   6.755
 8669POPC   C3B40869   8.334  21.134   7.055
 8669POPC   C4B40870   8.245  21.202   7.355
 8670POPC   NC340871   7.380  23.706   5.555
 8670POPC   PO440872   7.396  23.685   5.855
 8670POPC   GL140873   7.398  23.685   6.155
 8670POPC   GL240874   7.270  23.616   6.155
 8670POPC   C1A40875   7.436  23.764   6.455
 8670POPC   D2A40876   7.431  23.693   6.755
 8670POPC   C3A40877   7.402  23.756   7.055
 8670POPC   C4A40878   7.460  23.693   7.355
 8670POPC   C1B40879   7.152  23.642   6.455
 8670POPC   C2B40880   7.164  23.578   6.755
 8670POPC   C3B40881   7.197  23.629   7.055
 8670POPC   C4B40882   7.164  23.589   7.355
 8671POPC   NC340883  42.297  32.268   5.555
 8671POPC   PO440884  42.325  32.266   5.855
 8671POPC   GL140885  42.286  32.202   6.155
 8671POPC   GL240886  42.245  32.269   6.155
 8671POPC   C1A40887  42.369  32.258   6.455
 8671POPC   D2A40888  42.292  32.205   6.755
 8671POPC   C3A40889  42.300  32.223   7.055
 8671POPC   C4A40890  42.303  32.220   7.355
 8671POPC   C1B40891  42.096  32.363   6.455
 8671POPC   C2B40892  42.075  32.336   6.755
 8671POPC   C3B40893  42.091  32.332   7.055
 8671POPC   C4B40894  42.145  32.354   7.355
 8672POPC   NC340895  18.251  28.331   5.555
 8672POPC   PO440896  18.257  28.354   5.855
 8672POPC   GL140897  18.263  28.381   6.155
 8672POPC   GL240898  18.225  28.281   6.155
 8672POPC   C1A40899  18.245  28.338   6.455
 8672POPC   D2A40900  18.306  28.356   6.755
 8672POPC   C3A40901  18.295  28.335   7.055
 8672POPC   C4A40902  18.324  28.365   7.355
 8672POPC   C1B40903  18.181  28.143   6.455
 8672POPC   C2B40904  18.198  28.096   6.755
 8672POPC   C3B40905  18.158  28.165   7.055
 8672POPC   C4B40906  18.170  28.177   7.355
 8673POPC   NC340907  35.303  16.689   5.555
 8673POPC   PO440908  35.310  16.764   5.855
 8673POPC   GL140909  35.328  16.724   6.155
 8673POPC   GL240910  35.237  16.738   6.155
 8673POPC   C1A40911  35.372  16.724   6.455
 8673POPC   D2A40912  35.332  16.760   6.755
 8673POPC   C3A40913  35.308  16.687   7.055
 8673POPC   C4A40914  35.351  16.700   7.355
 8673POPC   C1B40915  35.140  16.820   6.455
 8673POPC   C2B40916  35.109  16.810   6.755
 8673POPC   C3B40917  35.122  16.834   7.055
 8673POPC   C4B40918  35.139  16.771   7.355
 8674POPC   NC340919  39.996  42.292   5.555
 8674POPC   PO440920  40.054  42.311   5.855
 8674POPC   GL140921  39.993  42.290   6.155
 8674POPC   GL240922  39.940  42.407   6.155
 8674POPC   C1A40923  40.052  42.360   6.455
 8674POPC   D2A40924  40.049  42.308   6.755
 8674POPC   C3A40925  39.977  42.294   7.055
 8674POPC   C4A40926  39.973  42.366   7.355
 8674POPC   C1B40927  39.910  42.546   6.455
 8674POPC   C2B40928  39.874  42.591   6.755
 8674POPC   C3B40929  39.849  42.517   7.055
 8674POPC   C4B40930  39.847  42.526   7.355
 8675POPC   NC340931  26.798  11.256   5.555
 8675POPC   PO440932  26.776  11.276   5.855
 8675POPC   GL140933  26.838  11.289   6.155
 8675POPC   GL240934  26.937  11.379   6.155
 8675POPC   C1A40935  26.791  11.300   6.455
 8675POPC   D2A40936  26.768  11.301   6.755
 8675POPC   C3A40937  26.778  11.347   7.055
 8675POPC   C4A40938  26.822  11.347   7.355
 8675POPC   C1B40939  27.015  11.338   6.455
 8675POPC   C2B40940  27.094  11.373   6.755
 8675POPC   C3B40941  27.015  11.406   7.055
 8675POPC   C4B40942  27.065  11.429   7.355
 8676POPC   NC340943  38.438   0.459   5.555
 8676POPC   PO440944  38.481   0.420   5.855
 8676POPC   GL140945  38.478   0.475   6.155
 8676POPC   GL240946  38.410   0.533   6.155
 8676POPC   C1A40947  38.439   0.389   6.455
 8676POPC   D2A40948  38.446   0.486   6.755
 8676POPC   C3A40949  38.486   0.409   7.055
 8676POPC   C4A40950  38.466   0.455   7.355
 8676POPC   C1B40951  38.346   0.606   6.455
 8676POPC   C2B40952  38.268   0.649   6.755
 8676POPC   C3B40953  38.328   0.606   7.055
 8676POPC   C4B40954  38.309   0.646   7.355
 8677POPC   NC340955  35.343   1.228   5.555
 8677POPC   PO440956  35.318   1.174   5.855
 8677POPC   GL140957  35.344   1.239   6.155
 8677POPC   GL240958  35.348   1.334   6.155
 8677POPC   C1A40959  35.357   1.207   6.455
 8677POPC   D2A40960  35.394   1.250   6.755
 8677POPC   C3A40961  35.333   1.181   7.055
 8677POPC   C4A40962  35.392   1.189   7.355
 8677POPC   C1B40963  35.228   1.443   6.455
 8677POPC   C2B40964  35.248   1.477   6.755
 8677POPC   C3B40965  35.318   1.449   7.055
 8677POPC   C4B40966  35.306   1.490   7.355
 8678POPC   NC340967  29.901   5.868   5.555
 8678POPC   PO440968  29.881   5.911   5.855
 8678POPC   GL140969  29.921   5.871   6.155
 8678POPC   GL240970  29.964   6.035   6.155
 8678POPC   C1A40971  29.912   5.863   6.455
 8678POPC   D2A40972  29.958   5.902   6.755
 8678POPC   C3A40973  29.941   5.855   7.055
 8678POPC   C4A40974  29.931   5.912   7.355
 8678POPC   C1B40975  29.903   6.092   6.455
 8678POPC   C2B40976  29.916   6.143   6.755
 8678POPC   C3B40977  29.904   6.098   7.055
 8678POPC   C4B40978  29.946   6.072   7.355
 8679POPC   NC340979  37.655   2.785   5.555
 8679POPC   PO440980  37.697   2.811   5.855
 8679POPC   GL140981  37.633   2.716   6.155
 8679POPC   GL240982  37.608   2.841   6.155
 8679POPC   C1A40983  37.646   2.810   6.455
 8679POPC   D2A40984  37.676   2.743   6.755
 8679POPC   C3A40985  37.681   2.775   7.055
 8679POPC   C4A40986  37.693   2.778   7.355
 8679POPC   C1B40987  37.500   2.966   6.455
 8679POPC   C2B40988  37.511   2.936   6.755
 8679POPC   C3B40989  37.531   2.974   7.055
 8679POPC   C4B40990  37.472   2.974   7.355
 8680POPC   NC340991  32.269  19.809   5.555
 8680POPC   PO440992  32.290  19.812   5.855
 8680POPC   GL140993  32.263  19.792   6.155
 8680POPC   GL240994  32.189  19.965   6.155
 8680POPC   C1A40995  32.270  19.810   6.455
 8680POPC   D2A40996  32.226  19.854   6.755
 8680POPC   C3A40997  32.283  19.878   7.055
 8680POPC   C4A40998  32.227  19.875   7.355
 8680POPC   C1B40999  32.210  20.089   6.455
 8680POPC   C2B41000  32.184  20.036   6.755
 8680POPC   C3B41001  32.180  20.129   7.055
 8680POPC   C4B41002  32.225  20.075   7.355
 8681POPC   NC341003   2.725  26.780   5.555
 8681POPC   PO441004   2.788  26.866   5.855
 8681POPC   GL141005   2.786  26.781   6.155
 8681POPC   GL241006   2.754  26.900   6.155
 8681POPC   C1A41007   2.777  26.771   6.455
 8681POPC   D2A41008   2.776  26.837   6.755
 8681POPC   C3A41009   2.760  26.797   7.055
 8681POPC   C4A41010   2.807  26.799   7.355
 8681POPC   C1B41011   2.605  27.063   6.455
 8681POPC   C2B41012   2.646  27.009   6.755
 8681POPC   C3B41013   2.676  27.082   7.055
 8681POPC   C4B41014   2.598  27.040   7.355
 8682POPC   NC341015  31.512  20.613   5.555
 8682POPC   PO441016  31.446  20.561   5.855
 8682POPC   GL141017  31.424  20.642   6.155
 8682POPC   GL241018  31.559  20.548   6.155
 8682POPC   C1A41019  31.439  20.646   6.455
 8682POPC   D2A41020  31.477  20.654   6.755
 8682POPC   C3A41021  31.429  20.615   7.055
 8682POPC   C4A41022  31.438  20.587   7.355
 8682POPC   C1B41023  31.674  20.618   6.455
 8682POPC   C2B41024  31.699  20.614   6.755
 8682POPC   C3B41025  31.701  20.568   7.055
 8682POPC   C4B41026  31.670  20.581   7.355
 8683POPC   NC341027  24.480  17.472   5.555
 8683POPC   PO441028  24.511  17.486   5.855
 8683POPC   GL141029  24.519  17.544   6.155
 8683POPC   GL241030  24.612  17.594   6.155
 8683POPC   C1A41031  24.440  17.461   6.455
 8683POPC   D2A41032  24.491  17.483   6.755
 8683POPC   C3A41033  24.444  17.501   7.055
 8683POPC   C4A41034  24.509  17.518   7.355
 8683POPC   C1B41035  24.679  17.646   6.455
 8683POPC   C2B41036  24.695  17.670   6.755
 8683POPC   C3B41037  24.670  17.669   7.055
 8683POPC   C4B41038  24.731  17.627   7.355
 8684POPC   NC341039  33.783  15.953   5.555
 8684POPC   PO441040  33.847  15.997   5.855
 8684POPC   GL141041  33.787  15.952   6.155
 8684POPC   GL241042  33.840  16.007   6.155
 8684POPC   C1A41043  33.826  15.984   6.455
 8684POPC   D2A41044  33.754  15.957   6.755
 8684POPC   C3A41045  33.781  15.960   7.055
 8684POPC   C4A41046  33.759  15.978   7.355
 8684POPC   C1B41047  33.929  16.130   6.455
 8684POPC   C2B41048  33.938  16.127   6.755
 8684POPC   C3B41049  34.000  16.157   7.055
 8684POPC   C4B41050  33.999  16.153   7.355
 8685POPC   NC341051  20.572  34.546   5.555
 8685POPC   PO441052  20.561  34.559   5.855
 8685POPC   GL141053  20.632  34.612   6.155
 8685POPC   GL241054  20.620  34.702   6.155
 8685POPC   C1A41055  20.628  34.548   6.455
 8685POPC   D2A41056  20.589  34.583   6.755
 8685POPC   C3A41057  20.600  34.581   7.055
 8685POPC   C4A41058  20.632  34.613   7.355
 8685POPC   C1B41059  20.549  34.813   6.455
 8685POPC   C2B41060  20.602  34.777   6.755
 8685POPC   C3B41061  20.552  34.789   7.055
 8685POPC   C4B41062  20.546  34.794   7.355
 8686POPC   NC341063  40.772   1.986   5.555
 8686POPC   PO441064  40.797   1.967   5.855
 8686POPC   GL141065  40.783   1.956   6.155
 8686POPC   GL241066  40.937   1.989   6.155
 8686POPC   C1A41067  40.754   1.999   6.455
 8686POPC   D2A41068  40.775   2.031   6.755
 8686POPC   C3A41069  40.793   2.037   7.055
 8686POPC   C4A41070  40.788   2.015   7.355
 8686POPC   C1B41071  41.062   1.946   6.455
 8686POPC   C2B41072  41.052   1.953   6.755
 8686POPC   C3B41073  41.070   1.961   7.055
 8686POPC   C4B41074  41.076   1.966   7.355
 8687POPC   NC341075   8.212  37.680   5.555
 8687POPC   PO441076   8.240  37.647   5.855
 8687POPC   GL141077   8.222  37.654   6.155
 8687POPC   GL241078   8.284  37.599   6.155
 8687POPC   C1A41079   8.163  37.701   6.455
 8687POPC   D2A41080   8.242  37.652   6.755
 8687POPC   C3A41081   8.182  37.691   7.055
 8687POPC   C4A41082   8.230  37.698   7.355
 8687POPC   C1B41083   8.436  37.602   6.455
 8687POPC   C2B41084   8.467  37.622   6.755
 8687POPC   C3B41085   8.445  37.579   7.055
 8687POPC   C4B41086   8.428  37.625   7.355
 8688POPC   NC341087  28.381  22.899   5.555
 8688POPC   PO441088  28.385  22.943   5.855
 8688POPC   GL141089  28.412  22.929   6.155
 8688POPC   GL241090  28.376  23.105   6.155
 8688POPC   C1A41091  28.368  22.964   6.455
 8688POPC   D2A41092  28.395  22.965   6.755
 8688POPC   C3A41093  28.335  22.936   7.055
 8688POPC   C4A41094  28.414  22.933   7.355
 8688POPC   C1B41095  28.402  23.168   6.455
 8688POPC   C2B41096  28.364  23.197   6.755
 8688POPC   C3B41097  28.380  23.193   7.055
 8688POPC   C4B41098  28.404  23.228   7.355
 8689POPC   NC341099  42.290  29.109   5.555
 8689POPC   PO441100  42.314  29.110   5.855
 8689POPC   GL141101  42.339  29.110   6.155
 8689POPC   GL241102  42.223  29.208   6.155
 8689POPC   C1A41103  42.384  29.183   6.455
 8689POPC   D2A41104  42.303  29.181   6.755
 8689POPC   C3A41105  42.335  29.192   7.055
 8689POPC   C4A41106  42.340  29.194   7.355
 8689POPC   C1B41107  42.241  29.333   6.455
 8689POPC   C2B41108  42.157  29.304   6.755
 8689POPC   C3B41109  42.193  29.371   7.055
 8689POPC   C4B41110  42.175  29.340   7.355
 8690POPC   NC341111  38.481   7.376   5.555
 8690POPC   PO441112  38.450   7.400   5.855
 8690POPC   GL141113  38.499   7.458   6.155
 8690POPC   GL241114  38.327   7.441   6.155
 8690POPC   C1A41115  38.447   7.460   6.455
 8690POPC   D2A41116  38.453   7.403   6.755
 8690POPC   C3A41117  38.493   7.449   7.055
 8690POPC   C4A41118  38.458   7.406   7.355
 8690POPC   C1B41119  38.243   7.507   6.455
 8690POPC   C2B41120  38.236   7.513   6.755
 8690POPC   C3B41121  38.287   7.529   7.055
 8690POPC   C4B41122  38.285   7.510   7.355
 8691POPC   NC341123  39.990  17.498   5.555
 8691POPC   PO441124  40.048  17.542   5.855
 8691POPC   GL141125  39.995  17.504   6.155
 8691POPC   GL241126  40.005  17.659   6.155
 8691POPC   C1A41127  40.046  17.477   6.455
 8691POPC   D2A41128  39.977  17.555   6.755
 8691POPC   C3A41129  40.001  17.535   7.055
 8691POPC   C4A41130  39.985  17.525   7.355
 8691POPC   C1B41131  40.115  17.745   6.455
 8691POPC   C2B41132  40.117  17.767   6.755
 8691POPC   C3B41133  40.071  17.773   7.055
 8691POPC   C4B41134  40.038  17.751   7.355
 8692POPC   NC341135  15.986  20.578   5.555
 8692POPC   PO441136  16.005  20.581   5.855
 8692POPC   GL141137  15.957  20.564   6.155
 8692POPC   GL241138  15.894  20.763   6.155
 8692POPC   C1A41139  15.952  20.650   6.455
 8692POPC   D2A41140  15.958  20.567   6.755
 8692POPC   C3A41141  15.998  20.575   7.055
 8692POPC   C4A41142  15.987  20.658   7.355
 8692POPC   C1B41143  15.830  20.847   6.455
 8692POPC   C2B41144  15.806  20.817   6.755
 8692POPC   C3B41145  15.829  20.875   7.055
 8692POPC   C4B41146  15.820  20.836   7.355
 8693POPC   NC341147  36.097  21.342   5.555
 8693POPC   PO441148  36.156  21.383   5.855
 8693POPC   GL141149  36.092  21.391   6.155
 8693POPC   GL241150  35.995  21.385   6.155
 8693POPC   C1A41151  36.144  21.412   6.455
 8693POPC   D2A41152  36.093  21.427   6.755
 8693POPC   C3A41153  36.127  21.422   7.055
 8693POPC   C4A41154  36.128  21.357   7.355
 8693POPC   C1B41155  35.923  21.364   6.455
 8693POPC   C2B41156  35.843  21.430   6.755
 8693POPC   C3B41157  35.917  21.408   7.055
 8693POPC   C4B41158  35.850  21.442   7.355
 8694POPC   NC341159   3.564  38.437   5.555
 8694POPC   PO441160   3.508  38.430   5.855
 8694POPC   GL141161   3.586  38.444   6.155
 8694POPC   GL241162   3.497  38.592   6.155
 8694POPC   C1A41163   3.544  38.451   6.455
 8694POPC   D2A41164   3.557  38.452   6.755
 8694POPC   C3A41165   3.496  38.479   7.055
 8694POPC   C4A41166   3.564  38.429   7.355
 8694POPC   C1B41167   3.449  38.643   6.455
 8694POPC   C2B41168   3.458  38.645   6.755
 8694POPC   C3B41169   3.501  38.689   7.055
 8694POPC   C4B41170   3.454  38.677   7.355
 8695POPC   NC341171  26.017  30.676   5.555
 8695POPC   PO441172  26.043  30.732   5.855
 8695POPC   GL141173  26.086  30.653   6.155
 8695POPC   GL241174  26.139  30.726   6.155
 8695POPC   C1A41175  26.008  30.693   6.455
 8695POPC   D2A41176  26.009  30.721   6.755
 8695POPC   C3A41177  26.087  30.731   7.055
 8695POPC   C4A41178  26.083  30.685   7.355
 8695POPC   C1B41179  26.311  30.805   6.455
 8695POPC   C2B41180  26.325  30.772   6.755
 8695POPC   C3B41181  26.318  30.803   7.055
 8695POPC   C4B41182  26.242  30.818   7.355
 8696POPC   NC341183  35.305  18.240   5.555
 8696POPC   PO441184  35.384  18.260   5.855
 8696POPC   GL141185  35.338  18.250   6.155
 8696POPC   GL241186  35.490  18.323   6.155
 8696POPC   C1A41187  35.321  18.279   6.455
 8696POPC   D2A41188  35.384  18.292   6.755
 8696POPC   C3A41189  35.400  18.275   7.055
 8696POPC   C4A41190  35.304  18.299   7.355
 8696POPC   C1B41191  35.638  18.297   6.455
 8696POPC   C2B41192  35.566  18.321   6.755
 8696POPC   C3B41193  35.617  18.297   7.055
 8696POPC   C4B41194  35.583  18.301   7.355
 8697POPC   NC341195  30.690  26.079   5.555
 8697POPC   PO441196  30.733  26.077   5.855
 8697POPC   GL141197  30.649  26.084   6.155
 8697POPC   GL241198  30.598  25.895   6.155
 8697POPC   C1A41199  30.661  26.018   6.455
 8697POPC   D2A41200  30.739  26.072   6.755
 8697POPC   C3A41201  30.650  26.010   7.055
 8697POPC   C4A41202  30.714  26.065   7.355
 8697POPC   C1B41203  30.578  25.858   6.455
 8697POPC   C2B41204  30.529  25.795   6.755
 8697POPC   C3B41205  30.601  25.859   7.055
 8697POPC   C4B41206  30.546  25.836   7.355
 8698POPC   NC341207  14.364  32.999   5.555
 8698POPC   PO441208  14.357  32.996   5.855
 8698POPC   GL141209  14.389  33.052   6.155
 8698POPC   GL241210  14.444  32.934   6.155
 8698POPC   C1A41211  14.380  33.028   6.455
 8698POPC   D2A41212  14.434  33.024   6.755
 8698POPC   C3A41213  14.385  33.064   7.055
 8698POPC   C4A41214  14.420  33.009   7.355
 8698POPC   C1B41215  14.560  32.782   6.455
 8698POPC   C2B41216  14.482  32.813   6.755
 8698POPC   C3B41217  14.532  32.832   7.055
 8698POPC   C4B41218  14.546  32.755   7.355
 8699POPC   NC341219  14.372  44.644   5.555
 8699POPC   PO441220  14.410  44.631   5.855
 8699POPC   GL141221  14.359  44.679   6.155
 8699POPC   GL241222  14.318  44.629   6.155
 8699POPC   C1A41223  14.416  44.706   6.455
 8699POPC   D2A41224  14.389  44.698   6.755
 8699POPC   C3A41225  14.371  44.621   7.055
 8699POPC   C4A41226  14.366  44.657   7.355
 8699POPC   C1B41227  14.169  44.612   6.455
 8699POPC   C2B41228  14.165  44.574   6.755
 8699POPC   C3B41229  14.115  44.587   7.055
 8699POPC   C4B41230  14.167  44.638   7.355
 8700POPC   NC341231   2.740  15.961   5.555
 8700POPC   PO441232   2.751  15.946   5.855
 8700POPC   GL141233   2.766  15.911   6.155
 8700POPC   GL241234   2.686  16.060   6.155
 8700POPC   C1A41235   2.717  15.985   6.455
 8700POPC   D2A41236   2.726  15.911   6.755
 8700POPC   C3A41237   2.722  15.946   7.055
 8700POPC   C4A41238   2.736  15.936   7.355
 8700POPC   C1B41239   2.662  16.191   6.455
 8700POPC   C2B41240   2.680  16.174   6.755
 8700POPC   C3B41241   2.648  16.156   7.055
 8700POPC   C4B41242   2.683  16.167   7.355
 8701POPC   NC341243  42.294  15.202   5.555
 8701POPC   PO441244  42.368  15.206   5.855
 8701POPC   GL141245  42.347  15.203   6.155
 8701POPC   GL241246  42.410  15.263   6.155
 8701POPC   C1A41247  42.332  15.166   6.455
 8701POPC   D2A41248  42.337  15.145   6.755
 8701POPC   C3A41249  42.376  15.218   7.055
 8701POPC   C4A41250  42.298  15.199   7.355
 8701POPC   C1B41251  42.483  15.389   6.455
 8701POPC   C2B41252  42.566  15.342   6.755
 8701POPC   C3B41253  42.531  15.329   7.055
 8701POPC   C4B41254  42.538  15.379   7.355
 8702POPC   NC341255  22.207  39.279   5.555
 8702POPC   PO441256  22.135  39.225   5.855
 8702POPC   GL141257  22.115  39.245   6.155
 8702POPC   GL241258  22.011  39.184   6.155
 8702POPC   C1A41259  22.161  39.216   6.455
 8702POPC   D2A41260  22.179  39.256   6.755
 8702POPC   C3A41261  22.125  39.199   7.055
 8702POPC   C4A41262  22.120  39.280   7.355
 8702POPC   C1B41263  21.915  39.069   6.455
 8702POPC   C2B41264  21.989  39.135   6.755
 8702POPC   C3B41265  21.898  39.109   7.055
 8702POPC   C4B41266  21.981  39.095   7.355
 8703POPC   NC341267   1.991  25.280   5.555
 8703POPC   PO441268   2.031  25.250   5.855
 8703POPC   GL141269   1.971  25.305   6.155
 8703POPC   GL241270   1.958  25.344   6.155
 8703POPC   C1A41271   2.039  25.277   6.455
 8703POPC   D2A41272   1.951  25.256   6.755
 8703POPC   C3A41273   2.015  25.227   7.055
 8703POPC   C4A41274   1.998  25.247   7.355
 8703POPC   C1B41275   2.046  25.531   6.455
 8703POPC   C2B41276   2.025  25.496   6.755
 8703POPC   C3B41277   2.051  25.538   7.055
 8703POPC   C4B41278   2.018  25.546   7.355
 8704POPC   NC341279  20.624  43.874   5.555
 8704POPC   PO441280  20.648  43.934   5.855
 8704POPC   GL141281  20.634  43.839   6.155
 8704POPC   GL241282  20.614  43.739   6.155
 8704POPC   C1A41283  20.630  43.889   6.455
 8704POPC   D2A41284  20.561  43.845   6.755
 8704POPC   C3A41285  20.627  43.920   7.055
 8704POPC   C4A41286  20.593  43.903   7.355
 8704POPC   C1B41287  20.563  43.646   6.455
 8704POPC   C2B41288  20.634  43.668   6.755
 8704POPC   C3B41289  20.620  43.635   7.055
 8704POPC   C4B41290  20.563  43.653   7.355
 8705POPC   NC341291  38.457   2.749   5.555
 8705POPC   PO441292  38.474   2.746   5.855
 8705POPC   GL141293  38.418   2.775   6.155
 8705POPC   GL241294  38.560   2.694   6.155
 8705POPC   C1A41295  38.485   2.767   6.455
 8705POPC   D2A41296  38.472   2.805   6.755
 8705POPC   C3A41297  38.419   2.738   7.055
 8705POPC   C4A41298  38.502   2.736   7.355
 8705POPC   C1B41299  38.548   2.572   6.455
 8705POPC   C2B41300  38.635   2.588   6.755
 8705POPC   C3B41301  38.585   2.527   7.055
 8705POPC   C4B41302  38.560   2.522   7.355
 8706POPC   NC341303  23.753  38.481   5.555
 8706POPC   PO441304  23.719  38.466   5.855
 8706POPC   GL141305  23.689  38.418   6.155
 8706POPC   GL241306  23.676  38.294   6.155
 8706POPC   C1A41307  23.681  38.482   6.455
 8706POPC   D2A41308  23.718  38.466   6.755
 8706POPC   C3A41309  23.712  38.424   7.055
 8706POPC   C4A41310  23.673  38.470   7.355
 8706POPC   C1B41311  23.611  38.197   6.455
 8706POPC   C2B41312  23.616  38.165   6.755
 8706POPC   C3B41313  23.697  38.244   7.055
 8706POPC   C4B41314  23.606  38.223   7.355
 8707POPC   NC341315  15.131  10.476   5.555
 8707POPC   PO441316  15.137  10.553   5.855
 8707POPC   GL141317  15.165  10.539   6.155
 8707POPC   GL241318  15.068  10.494   6.155
 8707POPC   C1A41319  15.169  10.554   6.455
 8707POPC   D2A41320  15.223  10.560   6.755
 8707POPC   C3A41321  15.141  10.496   7.055
 8707POPC   C4A41322  15.187  10.564   7.355
 8707POPC   C1B41323  14.988  10.454   6.455
 8707POPC   C2B41324  14.895  10.402   6.755
 8707POPC   C3B41325  14.923  10.473   7.055
 8707POPC   C4B41326  14.925  10.415   7.355
 8708POPC   NC341327  29.940  26.786   5.555
 8708POPC   PO441328  29.966  26.809   5.855
 8708POPC   GL141329  29.948  26.818   6.155
 8708POPC   GL241330  29.773  26.870   6.155
 8708POPC   C1A41331  29.912  26.781   6.455
 8708POPC   D2A41332  29.899  26.816   6.755
 8708POPC   C3A41333  29.899  26.806   7.055
 8708POPC   C4A41334  29.930  26.809   7.355
 8708POPC   C1B41335  29.714  26.849   6.455
 8708POPC   C2B41336  29.729  26.920   6.755
 8708POPC   C3B41337  29.654  26.912   7.055
 8708POPC   C4B41338  29.710  26.915   7.355
 8709POPC   NC341339  37.635   9.734   5.555
 8709POPC   PO441340  37.682   9.708   5.855
 8709POPC   GL141341  37.682   9.706   6.155
 8709POPC   GL241342  37.580   9.721   6.155
 8709POPC   C1A41343  37.650   9.757   6.455
 8709POPC   D2A41344  37.661   9.750   6.755
 8709POPC   C3A41345  37.651   9.707   7.055
 8709POPC   C4A41346  37.723   9.775   7.355
 8709POPC   C1B41347  37.483   9.691   6.455
 8709POPC   C2B41348  37.468   9.684   6.755
 8709POPC   C3B41349  37.435   9.672   7.055
 8709POPC   C4B41350  37.451   9.699   7.355
 8710POPC   NC341351  30.743   4.320   5.555
 8710POPC   PO441352  30.734   4.367   5.855
 8710POPC   GL141353  30.740   4.295   6.155
 8710POPC   GL241354  30.767   4.205   6.155
 8710POPC   C1A41355  30.724   4.317   6.455
 8710POPC   D2A41356  30.729   4.327   6.755
 8710POPC   C3A41357  30.741   4.273   7.055
 8710POPC   C4A41358  30.719   4.322   7.355
 8710POPC   C1B41359  30.817   4.091   6.455
 8710POPC   C2B41360  30.878   4.072   6.755
 8710POPC   C3B41361  30.828   4.117   7.055
 8710POPC   C4B41362  30.846   4.098   7.355
 8711POPC   NC341363  34.534  27.598   5.555
 8711POPC   PO441364  34.526  27.561   5.855
 8711POPC   GL141365  34.560  27.580   6.155
 8711POPC   GL241366  34.603  27.513   6.155
 8711POPC   C1A41367  34.548  27.581   6.455
 8711POPC   D2A41368  34.607  27.615   6.755
 8711POPC   C3A41369  34.545  27.602   7.055
 8711POPC   C4A41370  34.535  27.621   7.355
 8711POPC   C1B41371  34.667  27.308   6.455
 8711POPC   C2B41372  34.655  27.320   6.755
 8711POPC   C3B41373  34.650  27.313   7.055
 8711POPC   C4B41374  34.606  27.309   7.355
 8712POPC   NC341375  18.248  12.093   5.555
 8712POPC   PO441376  18.267  12.081   5.855
 8712POPC   GL141377  18.301  12.091   6.155
 8712POPC   GL241378  18.164  12.046   6.155
 8712POPC   C1A41379  18.251  12.028   6.455
 8712POPC   D2A41380  18.297  12.124   6.755
 8712POPC   C3A41381  18.244  12.062   7.055
 8712POPC   C4A41382  18.288  12.076   7.355
 8712POPC   C1B41383  18.015  11.979   6.455
 8712POPC   C2B41384  18.077  11.989   6.755
 8712POPC   C3B41385  18.043  11.967   7.055
 8712POPC   C4B41386  17.998  11.976   7.355
 8713POPC   NC341387  22.146  40.002   5.555
 8713POPC   PO441388  22.124  39.989   5.855
 8713POPC   GL141389  22.189  40.041   6.155
 8713POPC   GL241390  22.219  39.917   6.155
 8713POPC   C1A41391  22.122  40.032   6.455
 8713POPC   D2A41392  22.148  40.052   6.755
 8713POPC   C3A41393  22.210  39.958   7.055
 8713POPC   C4A41394  22.177  39.967   7.355
 8713POPC   C1B41395  22.225  39.785   6.455
 8713POPC   C2B41396  22.259  39.798   6.755
 8713POPC   C3B41397  22.227  39.796   7.055
 8713POPC   C4B41398  22.307  39.747   7.355
 8714POPC   NC341399  16.736  17.468   5.555
 8714POPC   PO441400  16.766  17.471   5.855
 8714POPC   GL141401  16.717  17.505   6.155
 8714POPC   GL241402  16.672  17.388   6.155
 8714POPC   C1A41403  16.692  17.514   6.455
 8714POPC   D2A41404  16.750  17.556   6.755
 8714POPC   C3A41405  16.756  17.542   7.055
 8714POPC   C4A41406  16.734  17.507   7.355
 8714POPC   C1B41407  16.738  17.239   6.455
 8714POPC   C2B41408  16.728  17.212   6.755
 8714POPC   C3B41409  16.718  17.264   7.055
 8714POPC   C4B41410  16.673  17.220   7.355
 8715POPC   NC341411  26.779  10.569   5.555
 8715POPC   PO441412  26.844  10.571   5.855
 8715POPC   GL141413  26.817  10.551   6.155
 8715POPC   GL241414  26.851  10.406   6.155
 8715POPC   C1A41415  26.828  10.570   6.455
 8715POPC   D2A41416  26.786  10.571   6.755
 8715POPC   C3A41417  26.782  10.547   7.055
 8715POPC   C4A41418  26.856  10.486   7.355
 8715POPC   C1B41419  26.868  10.283   6.455
 8715POPC   C2B41420  26.841  10.276   6.755
 8715POPC   C3B41421  26.877  10.282   7.055
 8715POPC   C4B41422  26.896  10.240   7.355
 8716POPC   NC341423   6.596   1.215   5.555
 8716POPC   PO441424   6.609   1.258   5.855
 8716POPC   GL141425   6.654   1.219   6.155
 8716POPC   GL241426   6.733   1.297   6.155
 8716POPC   C1A41427   6.595   1.220   6.455
 8716POPC   D2A41428   6.598   1.194   6.755
 8716POPC   C3A41429   6.685   1.230   7.055
 8716POPC   C4A41430   6.631   1.202   7.355
 8716POPC   C1B41431   6.856   1.361   6.455
 8716POPC   C2B41432   6.804   1.391   6.755
 8716POPC   C3B41433   6.878   1.401   7.055
 8716POPC   C4B41434   6.867   1.350   7.355
 8717POPC   NC341435  29.195  19.876   5.555
 8717POPC   PO441436  29.109  19.855   5.855
 8717POPC   GL141437  29.104  19.800   6.155
 8717POPC   GL241438  29.053  19.751   6.155
 8717POPC   C1A41439  29.187  19.792   6.455
 8717POPC   D2A41440  29.148  19.877   6.755
 8717POPC   C3A41441  29.151  19.872   7.055
 8717POPC   C4A41442  29.141  19.858   7.355
 8717POPC   C1B41443  28.934  19.609   6.455
 8717POPC   C2B41444  29.005  19.676   6.755
 8717POPC   C3B41445  29.017  19.606   7.055
 8717POPC   C4B41446  29.012  19.659   7.355
 8718POPC   NC341447  41.570   7.460   5.555
 8718POPC   PO441448  41.527   7.461   5.855
 8718POPC   GL141449  41.597   7.463   6.155
 8718POPC   GL241450  41.506   7.344   6.155
 8718POPC   C1A41451  41.553   7.445   6.455
 8718POPC   D2A41452  41.574   7.419   6.755
 8718POPC   C3A41453  41.541   7.387   7.055
 8718POPC   C4A41454  41.516   7.375   7.355
 8718POPC   C1B41455  41.558   7.203   6.455
 8718POPC   C2B41456  41.493   7.146   6.755
 8718POPC   C3B41457  41.551   7.126   7.055
 8718POPC   C4B41458  41.487   7.164   7.355
 8719POPC   NC341459  21.394  33.059   5.555
 8719POPC   PO441460  21.405  32.988   5.855
 8719POPC   GL141461  21.435  33.067   6.155
 8719POPC   GL241462  21.481  33.074   6.155
 8719POPC   C1A41463  21.386  33.006   6.455
 8719POPC   D2A41464  21.416  33.026   6.755
 8719POPC   C3A41465  21.410  33.060   7.055
 8719POPC   C4A41466  21.392  32.995   7.355
 8719POPC   C1B41467  21.558  33.169   6.455
 8719POPC   C2B41468  21.565  33.176   6.755
 8719POPC   C3B41469  21.618  33.166   7.055
 8719POPC   C4B41470  21.628  33.178   7.355
 8720POPC   NC341471  40.748  30.733   5.555
 8720POPC   PO441472  40.802  30.688   5.855
 8720POPC   GL141473  40.816  30.724   6.155
 8720POPC   GL241474  40.847  30.795   6.155
 8720POPC   C1A41475  40.782  30.669   6.455
 8720POPC   D2A41476  40.808  30.733   6.755
 8720POPC   C3A41477  40.737  30.728   7.055
 8720POPC   C4A41478  40.794  30.676   7.355
 8720POPC   C1B41479  40.937  30.910   6.455
 8720POPC   C2B41480  40.983  30.918   6.755
 8720POPC   C3B41481  40.940  30.841   7.055
 8720POPC   C4B41482  40.997  30.912   7.355
 8721POPC   NC341483  24.476  43.928   5.555
 8721POPC   PO441484  24.441  43.868   5.855
 8721POPC   GL141485  24.460  43.894   6.155
 8721POPC   GL241486  24.638  43.961   6.155
 8721POPC   C1A41487  24.442  43.862   6.455
 8721POPC   D2A41488  24.451  43.900   6.755
 8721POPC   C3A41489  24.460  43.885   7.055
 8721POPC   C4A41490  24.479  43.850   7.355
 8721POPC   C1B41491  24.695  44.076   6.455
 8721POPC   C2B41492  24.706  43.995   6.755
 8721POPC   C3B41493  24.680  44.053   7.055
 8721POPC   C4B41494  24.729  44.073   7.355
 8722POPC   NC341495  22.136   3.574   5.555
 8722POPC   PO441496  22.174   3.527   5.855
 8722POPC   GL141497  22.174   3.542   6.155
 8722POPC   GL241498  22.072   3.401   6.155
 8722POPC   C1A41499  22.121   3.571   6.455
 8722POPC   D2A41500  22.188   3.516   6.755
 8722POPC   C3A41501  22.201   3.577   7.055
 8722POPC   C4A41502  22.141   3.526   7.355
 8722POPC   C1B41503  22.107   3.325   6.455
 8722POPC   C2B41504  22.069   3.314   6.755
 8722POPC   C3B41505  22.019   3.300   7.055
 8722POPC   C4B41506  22.023   3.323   7.355
 8723POPC   NC341507   8.930  21.347   5.555
 8723POPC   PO441508   8.966  21.405   5.855
 8723POPC   GL141509   9.014  21.351   6.155
 8723POPC   GL241510   9.003  21.237   6.155
 8723POPC   C1A41511   9.013  21.366   6.455
 8723POPC   D2A41512   8.930  21.389   6.755
 8723POPC   C3A41513   8.993  21.351   7.055
 8723POPC   C4A41514   8.927  21.415   7.355
 8723POPC   C1B41515   9.088  21.129   6.455
 8723POPC   C2B41516   9.087  21.149   6.755
 8723POPC   C3B41517   9.064  21.158   7.055
 8723POPC   C4B41518   9.020  21.131   7.355
 8724POPC   NC341519  29.932  22.135   5.555
 8724POPC   PO441520  29.918  22.169   5.855
 8724POPC   GL141521  29.874  22.114   6.155
 8724POPC   GL241522  29.866  22.035   6.155
 8724POPC   C1A41523  29.877  22.191   6.455
 8724POPC   D2A41524  29.938  22.206   6.755
 8724POPC   C3A41525  29.925  22.194   7.055
 8724POPC   C4A41526  29.937  22.188   7.355
 8724POPC   C1B41527  29.800  21.989   6.455
 8724POPC   C2B41528  29.774  21.945   6.755
 8724POPC   C3B41529  29.822  21.991   7.055
 8724POPC   C4B41530  29.764  21.977   7.355
 8725POPC   NC341531  42.343  40.783   5.555
 8725POPC   PO441532  42.376  40.799   5.855
 8725POPC   GL141533  42.355  40.795   6.155
 8725POPC   GL241534  42.301  40.677   6.155
 8725POPC   C1A41535  42.350  40.780   6.455
 8725POPC   D2A41536  42.325  40.790   6.755
 8725POPC   C3A41537  42.309  40.796   7.055
 8725POPC   C4A41538  42.384  40.734   7.355
 8725POPC   C1B41539  42.194  40.618   6.455
 8725POPC   C2B41540  42.212  40.646   6.755
 8725POPC   C3B41541  42.144  40.640   7.055
 8725POPC   C4B41542  42.189  40.608   7.355
 8726POPC   NC341543  30.693  30.672   5.555
 8726POPC   PO441544  30.710  30.671   5.855
 8726POPC   GL141545  30.674  30.701   6.155
 8726POPC   GL241546  30.720  30.801   6.155
 8726POPC   C1A41547  30.724  30.715   6.455
 8726POPC   D2A41548  30.731  30.713   6.755
 8726POPC   C3A41549  30.745  30.705   7.055
 8726POPC   C4A41550  30.722  30.661   7.355
 8726POPC   C1B41551  30.707  30.923   6.455
 8726POPC   C2B41552  30.748  30.989   6.755
 8726POPC   C3B41553  30.743  30.924   7.055
 8726POPC   C4B41554  30.705  30.937   7.355
 8727POPC   NC341555  44.659  22.919   5.555
 8727POPC   PO441556  44.692  22.918   5.855
 8727POPC   GL141557  44.655  22.969   6.155
 8727POPC   GL241558  44.725  22.812   6.155
 8727POPC   C1A41559  44.629  22.916   6.455
 8727POPC   D2A41560  44.614  22.909   6.755
 8727POPC   C3A41561  44.618  22.893   7.055
 8727POPC   C4A41562  44.699  22.892   7.355
 8727POPC   C1B41563  44.724  22.736   6.455
 8727POPC   C2B41564  44.697  22.659   6.755
 8727POPC   C3B41565  44.674  22.723   7.055
 8727POPC   C4B41566  44.738  22.661   7.355
 8728POPC   NC341567  36.099   6.596   5.555
 8728POPC   PO441568  36.131   6.604   5.855
 8728POPC   GL141569  36.102   6.618   6.155
 8728POPC   GL241570  36.050   6.753   6.155
 8728POPC   C1A41571  36.079   6.601   6.455
 8728POPC   D2A41572  36.110   6.667   6.755
 8728POPC   C3A41573  36.135   6.631   7.055
 8728POPC   C4A41574  36.130   6.602   7.355
 8728POPC   C1B41575  35.951   6.771   6.455
 8728POPC   C2B41576  35.890   6.804   6.755
 8728POPC   C3B41577  35.934   6.748   7.055
 8728POPC   C4B41578  35.929   6.816   7.355
 8729POPC   NC341579   4.295  36.101   5.555
 8729POPC   PO441580   4.320  36.103   5.855
 8729POPC   GL141581   4.270  36.089   6.155
 8729POPC   GL241582   4.422  36.231   6.155
 8729POPC   C1A41583   4.325  36.090   6.455
 8729POPC   D2A41584   4.274  36.083   6.755
 8729POPC   C3A41585   4.287  36.135   7.055
 8729POPC   C4A41586   4.350  36.137   7.355
 8729POPC   C1B41587   4.569  36.222   6.455
 8729POPC   C2B41588   4.550  36.240   6.755
 8729POPC   C3B41589   4.568  36.246   7.055
 8729POPC   C4B41590   4.559  36.267   7.355
 8730POPC   NC341591   3.507  22.145   5.555
 8730POPC   PO441592   3.551  22.210   5.855
 8730POPC   GL141593   3.572  22.145   6.155
 8730POPC   GL241594   3.633  22.194   6.155
 8730POPC   C1A41595   3.587  22.161   6.455
 8730POPC   D2A41596   3.558  22.118   6.755
 8730POPC   C3A41597   3.521  22.182   7.055
 8730POPC   C4A41598   3.540  22.195   7.355
 8730POPC   C1B41599   3.836  22.105   6.455
 8730POPC   C2B41600   3.801  22.190   6.755
 8730POPC   C3B41601   3.829  22.150   7.055
 8730POPC   C4B41602   3.821  22.113   7.355
 8731POPC   NC341603  43.837  19.787   5.555
 8731POPC   PO441604  43.859  19.835   5.855
 8731POPC   GL141605  43.900  19.838   6.155
 8731POPC   GL241606  44.052  19.861   6.155
 8731POPC   C1A41607  43.896  19.800   6.455
 8731POPC   D2A41608  43.906  19.859   6.755
 8731POPC   C3A41609  43.879  19.880   7.055
 8731POPC   C4A41610  43.840  19.843   7.355
 8731POPC   C1B41611  44.118  19.765   6.455
 8731POPC   C2B41612  44.139  19.752   6.755
 8731POPC   C3B41613  44.129  19.843   7.055
 8731POPC   C4B41614  44.108  19.832   7.355
 8732POPC   NC341615   9.750  30.717   5.555
 8732POPC   PO441616   9.784  30.721   5.855
 8732POPC   GL141617   9.762  30.654   6.155
 8732POPC   GL241618   9.841  30.802   6.155
 8732POPC   C1A41619   9.788  30.668   6.455
 8732POPC   D2A41620   9.708  30.694   6.755
 8732POPC   C3A41621   9.731  30.707   7.055
 8732POPC   C4A41622   9.711  30.677   7.355
 8732POPC   C1B41623   9.876  30.839   6.455
 8732POPC   C2B41624   9.861  30.918   6.755
 8732POPC   C3B41625   9.883  30.881   7.055
 8732POPC   C4B41626   9.914  30.873   7.355
 8733POPC   NC341627   1.210  36.902   5.555
 8733POPC   PO441628   1.239  36.873   5.855
 8733POPC   GL141629   1.219  36.934   6.155
 8733POPC   GL241630   1.293  36.901   6.155
 8733POPC   C1A41631   1.201  36.907   6.455
 8733POPC   D2A41632   1.230  36.897   6.755
 8733POPC   C3A41633   1.200  36.945   7.055
 8733POPC   C4A41634   1.166  36.892   7.355
 8733POPC   C1B41635   1.402  36.858   6.455
 8733POPC   C2B41636   1.459  36.771   6.755
 8733POPC   C3B41637   1.474  36.773   7.055
 8733POPC   C4B41638   1.410  36.803   7.355
 8734POPC   NC341639   0.458  39.192   5.555
 8734POPC   PO441640   0.486  39.238   5.855
 8734POPC   GL141641   0.450  39.202   6.155
 8734POPC   GL241642   0.405  39.125   6.155
 8734POPC   C1A41643   0.471  39.277   6.455
 8734POPC   D2A41644   0.406  39.202   6.755
 8734POPC   C3A41645   0.430  39.280   7.055
 8734POPC   C4A41646   0.464  39.229   7.355
 8734POPC   C1B41647   0.290  39.024   6.455
 8734POPC   C2B41648   0.236  39.017   6.755
 8734POPC   C3B41649   0.321  39.062   7.055
 8734POPC   C4B41650   0.234  38.994   7.355
 8735POPC   NC341651  16.754  36.925   5.555
 8735POPC   PO441652  16.693  36.873   5.855
 8735POPC   GL141653  16.760  36.947   6.155
 8735POPC   GL241654  16.686  36.847   6.155
 8735POPC   C1A41655  16.770  36.888   6.455
 8735POPC   D2A41656  16.762  36.949   6.755
 8735POPC   C3A41657  16.751  36.919   7.055
 8735POPC   C4A41658  16.697  36.864   7.355
 8735POPC   C1B41659  16.561  36.708   6.455
 8735POPC   C2B41660  16.527  36.712   6.755
 8735POPC   C3B41661  16.516  36.704   7.055
 8735POPC   C4B41662  16.529  36.722   7.355
 8736POPC   NC341663  15.930  33.806   5.555
 8736POPC   PO441664  15.944  33.793   5.855
 8736POPC   GL141665  15.907  33.809   6.155
 8736POPC   GL241666  15.890  33.921   6.155
 8736POPC   C1A41667  16.004  33.764   6.455
 8736POPC   D2A41668  15.971  33.803   6.755
 8736POPC   C3A41669  16.002  33.823   7.055
 8736POPC   C4A41670  15.939  33.776   7.355
 8736POPC   C1B41671  15.855  34.030   6.455
 8736POPC   C2B41672  15.895  34.007   6.755
 8736POPC   C3B41673  15.892  34.024   7.055
 8736POPC   C4B41674  15.872  34.041   7.355
 8737POPC   NC341675  23.691  18.254   5.555
 8737POPC   PO441676  23.682  18.267   5.855
 8737POPC   GL141677  23.701  18.245   6.155
 8737POPC   GL241678  23.669  18.378   6.155
 8737POPC   C1A41679  23.723  18.315   6.455
 8737POPC   D2A41680  23.718  18.329   6.755
 8737POPC   C3A41681  23.759  18.331   7.055
 8737POPC   C4A41682  23.748  18.279   7.355
 8737POPC   C1B41683  23.677  18.564   6.455
 8737POPC   C2B41684  23.645  18.474   6.755
 8737POPC   C3B41685  23.621  18.565   7.055
 8737POPC   C4B41686  23.629  18.514   7.355
 8738POPC   NC341687   3.499   8.928   5.555
 8738POPC   PO441688   3.562   8.997   5.855
 8738POPC   GL141689   3.575   8.927   6.155
 8738POPC   GL241690   3.445   9.052   6.155
 8738POPC   C1A41691   3.511   8.985   6.455
 8738POPC   D2A41692   3.549   8.997   6.755
 8738POPC   C3A41693   3.517   8.952   7.055
 8738POPC   C4A41694   3.525   8.945   7.355
 8738POPC   C1B41695   3.414   9.137   6.455
 8738POPC   C2B41696   3.367   9.149   6.755
 8738POPC   C3B41697   3.370   9.203   7.055
 8738POPC   C4B41698   3.412   9.161   7.355
 8739POPC   NC341699  10.494  17.507   5.555
 8739POPC   PO441700  10.548  17.536   5.855
 8739POPC   GL141701  10.518  17.517   6.155
 8739POPC   GL241702  10.601  17.567   6.155
 8739POPC   C1A41703  10.553  17.514   6.455
 8739POPC   D2A41704  10.515  17.522   6.755
 8739POPC   C3A41705  10.515  17.522   7.055
 8739POPC   C4A41706  10.507  17.481   7.355
 8739POPC   C1B41707  10.760  17.670   6.455
 8739POPC   C2B41708  10.792  17.633   6.755
 8739POPC   C3B41709  10.753  17.655   7.055
 8739POPC   C4B41710  10.698  17.637   7.355
 8740POPC   NC341711  21.386  17.512   5.555
 8740POPC   PO441712  21.338  17.542   5.855
 8740POPC   GL141713  21.375  17.525   6.155
 8740POPC   GL241714  21.444  17.596   6.155
 8740POPC   C1A41715  21.354  17.495   6.455
 8740POPC   D2A41716  21.415  17.541   6.755
 8740POPC   C3A41717  21.375  17.550   7.055
 8740POPC   C4A41718  21.348  17.498   7.355
 8740POPC   C1B41719  21.442  17.767   6.455
 8740POPC   C2B41720  21.484  17.750   6.755
 8740POPC   C3B41721  21.497  17.769   7.055
 8740POPC   C4B41722  21.438  17.686   7.355
 8741POPC   NC341723  13.608  37.631   5.555
 8741POPC   PO441724  13.654  37.726   5.855
 8741POPC   GL141725  13.632  37.719   6.155
 8741POPC   GL241726  13.704  37.694   6.155
 8741POPC   C1A41727  13.646  37.714   6.455
 8741POPC   D2A41728  13.620  37.650   6.755
 8741POPC   C3A41729  13.594  37.675   7.055
 8741POPC   C4A41730  13.663  37.723   7.355
 8741POPC   C1B41731  13.862  37.742   6.455
 8741POPC   C2B41732  13.902  37.745   6.755
 8741POPC   C3B41733  13.923  37.716   7.055
 8741POPC   C4B41734  13.858  37.725   7.355
 8742POPC   NC341735  41.605  16.718   5.555
 8742POPC   PO441736  41.536  16.701   5.855
 8742POPC   GL141737  41.606  16.721   6.155
 8742POPC   GL241738  41.437  16.654   6.155
 8742POPC   C1A41739  41.539  16.712   6.455
 8742POPC   D2A41740  41.531  16.733   6.755
 8742POPC   C3A41741  41.581  16.728   7.055
 8742POPC   C4A41742  41.512  16.742   7.355
 8742POPC   C1B41743  41.344  16.635   6.455
 8742POPC   C2B41744  41.337  16.628   6.755
 8742POPC   C3B41745  41.346  16.664   7.055
 8742POPC   C4B41746  41.285  16.638   7.355
 8743POPC   NC341747  19.818   6.599   5.555
 8743POPC   PO441748  19.791   6.657   5.855
 8743POPC   GL141749  19.880   6.643   6.155
 8743POPC   GL241750  19.905   6.549   6.155
 8743POPC   C1A41751  19.806   6.607   6.455
 8743POPC   D2A41752  19.869   6.617   6.755
 8743POPC   C3A41753  19.881   6.682   7.055
 8743POPC   C4A41754  19.864   6.664   7.355
 8743POPC   C1B41755  19.985   6.400   6.455
 8743POPC   C2B41756  19.912   6.432   6.755
 8743POPC   C3B41757  19.971   6.429   7.055
 8743POPC   C4B41758  19.948   6.474   7.355
 8744POPC   NC341759  17.507   7.466   5.555
 8744POPC   PO441760  17.534   7.396   5.855
 8744POPC   GL141761  17.513   7.397   6.155
 8744POPC   GL241762  17.403   7.378   6.155
 8744POPC   C1A41763  17.476   7.460   6.455
 8744POPC   D2A41764  17.505   7.454   6.755
 8744POPC   C3A41765  17.471   7.435   7.055
 8744POPC   C4A41766  17.543   7.397   7.355
 8744POPC   C1B41767  17.290   7.293   6.455
 8744POPC   C2B41768  17.313   7.328   6.755
 8744POPC   C3B41769  17.297   7.339   7.055
 8744POPC   C4B41770  17.328   7.275   7.355
 8745POPC   NC341771   6.687  28.361   5.555
 8745POPC   PO441772   6.674  28.333   5.855
 8745POPC   GL141773   6.601  28.394   6.155
 8745POPC   GL241774   6.751  28.259   6.155
 8745POPC   C1A41775   6.691  28.350   6.455
 8745POPC   D2A41776   6.617  28.390   6.755
 8745POPC   C3A41777   6.602  28.408   7.055
 8745POPC   C4A41778   6.672  28.360   7.355
 8745POPC   C1B41779   6.794  28.170   6.455
 8745POPC   C2B41780   6.813  28.152   6.755
 8745POPC   C3B41781   6.843  28.243   7.055
 8745POPC   C4B41782   6.876  28.237   7.355
 8746POPC   NC341783  23.682  10.475   5.555
 8746POPC   PO441784  23.761  10.485   5.855
 8746POPC   GL141785  23.750  10.547   6.155
 8746POPC   GL241786  23.602  10.554   6.155
 8746POPC   C1A41787  23.674  10.507   6.455
 8746POPC   D2A41788  23.717  10.483   6.755
 8746POPC   C3A41789  23.677  10.568   7.055
 8746POPC   C4A41790  23.737  10.512   7.355
 8746POPC   C1B41791  23.458  10.559   6.455
 8746POPC   C2B41792  23.452  10.573   6.755
 8746POPC   C3B41793  23.427  10.574   7.055
 8746POPC   C4B41794  23.430  10.563   7.355
 8747POPC   NC341795  10.551  39.218   5.555
 8747POPC   PO441796  10.504  39.225   5.855
 8747POPC   GL141797  10.542  39.218   6.155
 8747POPC   GL241798  10.430  39.202   6.155
 8747POPC   C1A41799  10.532  39.269   6.455
 8747POPC   D2A41800  10.546  39.215   6.755
 8747POPC   C3A41801  10.517  39.260   7.055
 8747POPC   C4A41802  10.531  39.197   7.355
 8747POPC   C1B41803  10.244  39.185   6.455
 8747POPC   C2B41804  10.273  39.247   6.755
 8747POPC   C3B41805  10.305  39.207   7.055
 8747POPC   C4B41806  10.251  39.207   7.355
 8748POPC   NC341807  40.030  40.792   5.555
 8748POPC   PO441808  39.992  40.764   5.855
 8748POPC   GL141809  39.973  40.749   6.155
 8748POPC   GL241810  39.912  40.832   6.155
 8748POPC   C1A41811  39.988  40.733   6.455
 8748POPC   D2A41812  39.962  40.796   6.755
 8748POPC   C3A41813  40.039  40.748   7.055
 8748POPC   C4A41814  40.003  40.775   7.355
 8748POPC   C1B41815  39.749  40.808   6.455
 8748POPC   C2B41816  39.723  40.787   6.755
 8748POPC   C3B41817  39.720  40.765   7.055
 8748POPC   C4B41818  39.751  40.839   7.355
 8749POPC   NC341819  32.208   3.511   5.555
 8749POPC   PO441820  32.295   3.518   5.855
 8749POPC   GL141821  32.204   3.533   6.155
 8749POPC   GL241822  32.079   3.521   6.155
 8749POPC   C1A41823  32.293   3.510   6.455
 8749POPC   D2A41824  32.290   3.576   6.755
 8749POPC   C3A41825  32.242   3.574   7.055
 8749POPC   C4A41826  32.290   3.495   7.355
 8749POPC   C1B41827  32.009   3.486   6.455
 8749POPC   C2B41828  32.011   3.465   6.755
 8749POPC   C3B41829  32.000   3.511   7.055
 8749POPC   C4B41830  31.957   3.514   7.355
 8750POPC   NC341831  21.413  36.084   5.555
 8750POPC   PO441832  21.379  36.140   5.855
 8750POPC   GL141833  21.403  36.109   6.155
 8750POPC   GL241834  21.301  36.047   6.155
 8750POPC   C1A41835  21.359  36.146   6.455
 8750POPC   D2A41836  21.358  36.120   6.755
 8750POPC   C3A41837  21.358  36.159   7.055
 8750POPC   C4A41838  21.392  36.104   7.355
 8750POPC   C1B41839  21.188  35.998   6.455
 8750POPC   C2B41840  21.131  35.945   6.755
 8750POPC   C3B41841  21.142  35.992   7.055
 8750POPC   C4B41842  21.210  35.985   7.355
 8751POPC   NC341843  43.069  40.807   5.555
 8751POPC   PO441844  43.104  40.775   5.855
 8751POPC   GL141845  43.141  40.825   6.155
 8751POPC   GL241846  43.017  40.661   6.155
 8751POPC   C1A41847  43.099  40.734   6.455
 8751POPC   D2A41848  43.069  40.833   6.755
 8751POPC   C3A41849  43.146  40.812   7.055
 8751POPC   C4A41850  43.137  40.787   7.355
 8751POPC   C1B41851  42.993  40.528   6.455
 8751POPC   C2B41852  43.051  40.589   6.755
 8751POPC   C3B41853  43.040  40.506   7.055
 8751POPC   C4B41854  43.067  40.504   7.355
 8752POPC   NC341855  35.397  23.752   5.555
 8752POPC   PO441856  35.391  23.712   5.855
 8752POPC   GL141857  35.338  23.684   6.155
 8752POPC   GL241858  35.266  23.678   6.155
 8752POPC   C1A41859  35.362  23.670   6.455
 8752POPC   D2A41860  35.330  23.690   6.755
 8752POPC   C3A41861  35.332  23.725   7.055
 8752POPC   C4A41862  35.313  23.665   7.355
 8752POPC   C1B41863  35.124  23.734   6.455
 8752POPC   C2B41864  35.059  23.691   6.755
 8752POPC   C3B41865  35.081  23.743   7.055
 8752POPC   C4B41866  35.115  23.696   7.355
 8753POPC   NC341867   1.235   5.871   5.555
 8753POPC   PO441868   1.167   5.913   5.855
 8753POPC   GL141869   1.245   5.913   6.155
 8753POPC   GL241870   1.278   5.807   6.155
 8753POPC   C1A41871   1.225   5.825   6.455
 8753POPC   D2A41872   1.213   5.831   6.755
 8753POPC   C3A41873   1.201   5.846   7.055
 8753POPC   C4A41874   1.192   5.904   7.355
 8753POPC   C1B41875   1.416   5.743   6.455
 8753POPC   C2B41876   1.357   5.697   6.755
 8753POPC   C3B41877   1.395   5.751   7.055
 8753POPC   C4B41878   1.378   5.729   7.355
 8754POPC   NC341879  33.000   0.408   5.555
 8754POPC   PO441880  32.984   0.452   5.855
 8754POPC   GL141881  33.018   0.417   6.155
 8754POPC   GL241882  32.925   0.474   6.155
 8754POPC   C1A41883  33.045   0.461   6.455
 8754POPC   D2A41884  32.997   0.468   6.755
 8754POPC   C3A41885  33.061   0.465   7.055
 8754POPC   C4A41886  33.003   0.467   7.355
 8754POPC   C1B41887  32.815   0.611   6.455
 8754POPC   C2B41888  32.849   0.581   6.755
 8754POPC   C3B41889  32.783   0.605   7.055
 8754POPC   C4B41890  32.782   0.594   7.355
 8755POPC   NC341891  39.979  13.625   5.555
 8755POPC   PO441892  39.958  13.627   5.855
 8755POPC   GL141893  40.001  13.664   6.155
 8755POPC   GL241894  39.946  13.721   6.155
 8755POPC   C1A41895  40.004  13.653   6.455
 8755POPC   D2A41896  40.000  13.598   6.755
 8755POPC   C3A41897  39.983  13.670   7.055
 8755POPC   C4A41898  40.019  13.667   7.355
 8755POPC   C1B41899  39.926  13.888   6.455
 8755POPC   C2B41900  39.935  13.824   6.755
 8755POPC   C3B41901  39.942  13.855   7.055
 8755POPC   C4B41902  39.949  13.889   7.355
 8756POPC   NC341903   8.222  38.466   5.555
 8756POPC   PO441904   8.156  38.494   5.855
 8756POPC   GL141905   8.206  38.447   6.155
 8756POPC   GL241906   8.255  38.354   6.155
 8756POPC   C1A41907   8.208  38.484   6.455
 8756POPC   D2A41908   8.246  38.408   6.755
 8756POPC   C3A41909   8.163  38.501   7.055
 8756POPC   C4A41910   8.242  38.406   7.355
 8756POPC   C1B41911   8.264  38.177   6.455
 8756POPC   C2B41912   8.293  38.206   6.755
 8756POPC   C3B41913   8.321  38.211   7.055
 8756POPC   C4B41914   8.232  38.212   7.355
 8757POPC   NC341915   8.192   4.273   5.555
 8757POPC   PO441916   8.224   4.327   5.855
 8757POPC   GL141917   8.175   4.298   6.155
 8757POPC   GL241918   8.125   4.189   6.155
 8757POPC   C1A41919   8.171   4.316   6.455
 8757POPC   D2A41920   8.217   4.285   6.755
 8757POPC   C3A41921   8.213   4.275   7.055
 8757POPC   C4A41922   8.181   4.285   7.355
 8757POPC   C1B41923   8.047   4.134   6.455
 8757POPC   C2B41924   8.050   4.072   6.755
 8757POPC   C3B41925   8.084   4.050   7.055
 8757POPC   C4B41926   8.059   4.137   7.355
 8758POPC   NC341927  43.122  34.559   5.555
 8758POPC   PO441928  43.101  34.534   5.855
 8758POPC   GL141929  43.063  34.587   6.155
 8758POPC   GL241930  43.098  34.685   6.155
 8758POPC   C1A41931  43.076  34.561   6.455
 8758POPC   D2A41932  43.065  34.602   6.755
 8758POPC   C3A41933  43.125  34.570   7.055
 8758POPC   C4A41934  43.103  34.536   7.355
 8758POPC   C1B41935  43.117  34.790   6.455
 8758POPC   C2B41936  43.113  34.796   6.755
 8758POPC   C3B41937  43.118  34.855   7.055
 8758POPC   C4B41938  43.122  34.830   7.355
 8759POPC   NC341939  22.165   0.414   5.555
 8759POPC   PO441940  22.117   0.488   5.855
 8759POPC   GL141941  22.134   0.452   6.155
 8759POPC   GL241942  22.141   0.578   6.155
 8759POPC   C1A41943  22.176   0.450   6.455
 8759POPC   D2A41944  22.195   0.410   6.755
 8759POPC   C3A41945  22.129   0.434   7.055
 8759POPC   C4A41946  22.126   0.486   7.355
 8759POPC   C1B41947  22.130   0.693   6.455
 8759POPC   C2B41948  22.132   0.651   6.755
 8759POPC   C3B41949  22.150   0.702   7.055
 8759POPC   C4B41950  22.099   0.658   7.355
 8760POPC   NC341951  11.327  44.648   5.555
 8760POPC   PO441952  11.311  44.623   5.855
 8760POPC   GL141953  11.299  44.662   6.155
 8760POPC   GL241954  11.180  44.725   6.155
 8760POPC   C1A41955  11.332  44.638   6.455
 8760POPC   D2A41956  11.258  44.636   6.755
 8760POPC   C3A41957  11.305  44.636   7.055
 8760POPC   C4A41958  11.292  44.664   7.355
 8760POPC   C1B41959  11.193  44.878   6.455
 8760POPC   C2B41960  11.147  44.898   6.755
 8760POPC   C3B41961  11.123  44.813   7.055
 8760POPC   C4B41962  11.120  44.841   7.355
 8761POPC   NC341963  43.135  18.297   5.555
 8761POPC   PO441964  43.096  18.302   5.855
 8761POPC   GL141965  43.123  18.318   6.155
 8761POPC   GL241966  43.141  18.407   6.155
 8761POPC   C1A41967  43.074  18.270   6.455
 8761POPC   D2A41968  43.145  18.323   6.755
 8761POPC   C3A41969  43.074  18.305   7.055
 8761POPC   C4A41970  43.109  18.324   7.355
 8761POPC   C1B41971  43.218  18.509   6.455
 8761POPC   C2B41972  43.215  18.463   6.755
 8761POPC   C3B41973  43.228  18.456   7.055
 8761POPC   C4B41974  43.241  18.499   7.355
 8762POPC   NC341975  19.101  42.337   5.555
 8762POPC   PO441976  19.034  42.301   5.855
 8762POPC   GL141977  19.054  42.335   6.155
 8762POPC   GL241978  18.998  42.434   6.155
 8762POPC   C1A41979  19.107  42.307   6.455
 8762POPC   D2A41980  19.097  42.321   6.755
 8762POPC   C3A41981  19.091  42.344   7.055
 8762POPC   C4A41982  19.108  42.378   7.355
 8762POPC   C1B41983  18.884  42.530   6.455
 8762POPC   C2B41984  18.904  42.498   6.755
 8762POPC   C3B41985  18.899  42.541   7.055
 8762POPC   C4B41986  18.873  42.455   7.355
 8763POPC   NC341987  22.173  34.543   5.555
 8763POPC   PO441988  22.113  34.570   5.855
 8763POPC   GL141989  22.207  34.575   6.155
 8763POPC   GL241990  22.140  34.655   6.155
 8763POPC   C1A41991  22.159  34.545   6.455
 8763POPC   D2A41992  22.164  34.553   6.755
 8763POPC   C3A41993  22.195  34.531   7.055
 8763POPC   C4A41994  22.129  34.568   7.355
 8763POPC   C1B41995  22.056  34.774   6.455
 8763POPC   C2B41996  22.133  34.859   6.755
 8763POPC   C3B41997  22.139  34.801   7.055
 8763POPC   C4B41998  22.124  34.785   7.355
 8764POPC   NC341999  41.517   8.997   5.555
 8764POPC   PO442000  41.580   8.929   5.855
 8764POPC   GL142001  41.604   8.991   6.155
 8764POPC   GL242002  41.466   8.883   6.155
 8764POPC   C1A42003  41.552   8.982   6.455
 8764POPC   D2A42004  41.545   9.007   6.755
 8764POPC   C3A42005  41.554   8.968   7.055
 8764POPC   C4A42006  41.519   8.999   7.355
 8764POPC   C1B42007  41.407   8.795   6.455
 8764POPC   C2B42008  41.463   8.740   6.755
 8764POPC   C3B42009  41.423   8.796   7.055
 8764POPC   C4B42010  41.450   8.730   7.355
 8765POPC   NC342011  39.984   2.025   5.555
 8765POPC   PO442012  39.999   2.018   5.855
 8765POPC   GL142013  39.981   2.032   6.155
 8765POPC   GL242014  40.023   2.144   6.155
 8765POPC   C1A42015  39.995   2.023   6.455
 8765POPC   D2A42016  40.030   1.991   6.755
 8765POPC   C3A42017  40.012   2.035   7.055
 8765POPC   C4A42018  39.959   1.941   7.355
 8765POPC   C1B42019  39.955   2.205   6.455
 8765POPC   C2B42020  39.995   2.262   6.755
 8765POPC   C3B42021  39.952   2.212   7.055
 8765POPC   C4B42022  40.018   2.245   7.355
 8766POPC   NC342023  15.165  32.206   5.555
 8766POPC   PO442024  15.203  32.226   5.855
 8766POPC   GL142025  15.156  32.259   6.155
 8766POPC   GL242026  15.340  32.196   6.155
 8766POPC   C1A42027  15.221  32.263   6.455
 8766POPC   D2A42028  15.220  32.224   6.755
 8766POPC   C3A42029  15.208  32.237   7.055
 8766POPC   C4A42030  15.165  32.211   7.355
 8766POPC   C1B42031  15.407  32.138   6.455
 8766POPC   C2B42032  15.450  32.104   6.755
 8766POPC   C3B42033  15.430  32.192   7.055
 8766POPC   C4B42034  15.363  32.166   7.355
 8767POPC   NC342035  34.536   2.803   5.555
 8767POPC   PO442036  34.602   2.727   5.855
 8767POPC   GL142037  34.600   2.767   6.155
 8767POPC   GL242038  34.419   2.761   6.155
 8767POPC   C1A42039  34.542   2.806   6.455
 8767POPC   D2A42040  34.571   2.791   6.755
 8767POPC   C3A42041  34.536   2.767   7.055
 8767POPC   C4A42042  34.586   2.774   7.355
 8767POPC   C1B42043  34.334   2.814   6.455
 8767POPC   C2B42044  34.315   2.787   6.755
 8767POPC   C3B42045  34.375   2.834   7.055
 8767POPC   C4B42046  34.326   2.859   7.355
 8768POPC   NC342047  29.954   3.577   5.555
 8768POPC   PO442048  29.921   3.590   5.855
 8768POPC   GL142049  29.880   3.590   6.155
 8768POPC   GL242050  29.934   3.437   6.155
 8768POPC   C1A42051  29.881   3.534   6.455
 8768POPC   D2A42052  29.939   3.500   6.755
 8768POPC   C3A42053  29.894   3.502   7.055
 8768POPC   C4A42054  29.966   3.521   7.355
 8768POPC   C1B42055  30.050   3.341   6.455
 8768POPC   C2B42056  29.988   3.322   6.755
 8768POPC   C3B42057  30.046   3.358   7.055
 8768POPC   C4B42058  29.975   3.271   7.355
 8769POPC   NC342059  15.949  34.563   5.555
 8769POPC   PO442060  15.959  34.563   5.855
 8769POPC   GL142061  15.989  34.595   6.155
 8769POPC   GL242062  15.879  34.607   6.155
 8769POPC   C1A42063  15.936  34.563   6.455
 8769POPC   D2A42064  15.968  34.582   6.755
 8769POPC   C3A42065  15.925  34.566   7.055
 8769POPC   C4A42066  15.972  34.575   7.355
 8769POPC   C1B42067  15.717  34.719   6.455
 8769POPC   C2B42068  15.711  34.717   6.755
 8769POPC   C3B42069  15.774  34.727   7.055
 8769POPC   C4B42070  15.805  34.700   7.355
 8770POPC   NC342071   5.890  37.726   5.555
 8770POPC   PO442072   5.893  37.668   5.855
 8770POPC   GL142073   5.849  37.705   6.155
 8770POPC   GL242074   5.944  37.633   6.155
 8770POPC   C1A42075   5.913  37.631   6.455
 8770POPC   D2A42076   5.900  37.661   6.755
 8770POPC   C3A42077   5.842  37.686   7.055
 8770POPC   C4A42078   5.832  37.671   7.355
 8770POPC   C1B42079   6.119  37.622   6.455
 8770POPC   C2B42080   6.141  37.619   6.755
 8770POPC   C3B42081   6.093  37.592   7.055
 8770POPC   C4B42082   6.101  37.607   7.355
 8771POPC   NC342083   2.814   2.727   5.555
 8771POPC   PO442084   2.743   2.774   5.855
 8771POPC   GL142085   2.724   2.770   6.155
 8771POPC   GL242086   2.891   2.902   6.155
 8771POPC   C1A42087   2.724   2.765   6.455
 8771POPC   D2A42088   2.806   2.743   6.755
 8771POPC   C3A42089   2.751   2.770   7.055
 8771POPC   C4A42090   2.791   2.729   7.355
 8771POPC   C1B42091   2.874   2.943   6.455
 8771POPC   C2B42092   2.900   2.950   6.755
 8771POPC   C3B42093   2.899   2.931   7.055
 8771POPC   C4B42094   2.947   2.964   7.355
 8772POPC   NC342095  41.509   8.207   5.555
 8772POPC   PO442096  41.579   8.218   5.855
 8772POPC   GL142097  41.572   8.189   6.155
 8772POPC   GL242098  41.536   8.100   6.155
 8772POPC   C1A42099  41.568   8.194   6.455
 8772POPC   D2A42100  41.598   8.218   6.755
 8772POPC   C3A42101  41.533   8.211   7.055
 8772POPC   C4A42102  41.525   8.160   7.355
 8772POPC   C1B42103  41.389   8.004   6.455
 8772POPC   C2B42104  41.374   8.029   6.755
 8772POPC   C3B42105  41.409   8.011   7.055
 8772POPC   C4B42106  41.428   7.992   7.355
 8773POPC   NC342107   2.763  38.502   5.555
 8773POPC   PO442108   2.735  38.409   5.855
 8773POPC   GL142109   2.778  38.477   6.155
 8773POPC   GL242110   2.733  38.357   6.155
 8773POPC   C1A42111   2.785  38.462   6.455
 8773POPC   D2A42112   2.814  38.466   6.755
 8773POPC   C3A42113   2.805  38.478   7.055
 8773POPC   C4A42114   2.728  38.466   7.355
 8773POPC   C1B42115   2.651  38.220   6.455
 8773POPC   C2B42116   2.660  38.242   6.755
 8773POPC   C3B42117   2.662  38.256   7.055
 8773POPC   C4B42118   2.663  38.276   7.355
 8774POPC   NC342119  44.641  13.591   5.555
 8774POPC   PO442120  44.635  13.656   5.855
 8774POPC   GL142121  44.616  13.581   6.155
 8774POPC   GL242122  44.572  13.676   6.155
 8774POPC   C1A42123  44.616  13.674   6.455
 8774POPC   D2A42124  44.617  13.673   6.755
 8774POPC   C3A42125  44.639  13.612   7.055
 8774POPC   C4A42126  44.686  13.631   7.355
 8774POPC   C1B42127  44.496  13.731   6.455
 8774POPC   C2B42128  44.437  13.809   6.755
 8774POPC   C3B42129  44.401  13.777   7.055
 8774POPC   C4B42130  44.445  13.780   7.355
 8775POPC   NC342131   5.861  29.194   5.555
 8775POPC   PO442132   5.837  29.171   5.855
 8775POPC   GL142133   5.901  29.130   6.155
 8775POPC   GL242134   5.811  29.020   6.155
 8775POPC   C1A42135   5.887  29.187   6.455
 8775POPC   D2A42136   5.881  29.130   6.755
 8775POPC   C3A42137   5.830  29.112   7.055
 8775POPC   C4A42138   5.833  29.134   7.355
 8775POPC   C1B42139   5.730  28.972   6.455
 8775POPC   C2B42140   5.655  29.016   6.755
 8775POPC   C3B42141   5.655  28.999   7.055
 8775POPC   C4B42142   5.737  28.984   7.355
 8776POPC   NC342143  25.218  27.553   5.555
 8776POPC   PO442144  25.286  27.617   5.855
 8776POPC   GL142145  25.282  27.573   6.155
 8776POPC   GL242146  25.371  27.533   6.155
 8776POPC   C1A42147  25.263  27.627   6.455
 8776POPC   D2A42148  25.266  27.589   6.755
 8776POPC   C3A42149  25.225  27.634   7.055
 8776POPC   C4A42150  25.239  27.643   7.355
 8776POPC   C1B42151  25.503  27.435   6.455
 8776POPC   C2B42152  25.485  27.402   6.755
 8776POPC   C3B42153  25.461  27.474   7.055
 8776POPC   C4B42154  25.438  27.439   7.355
 8777POPC   NC342155  44.689  14.443   5.555
 8777POPC   PO442156  44.665  14.437   5.855
 8777POPC   GL142157  44.681  14.380   6.155
 8777POPC   GL242158  44.722  14.324   6.155
 8777POPC   C1A42159  44.709  14.383   6.455
 8777POPC   D2A42160  44.677  14.445   6.755
 8777POPC   C3A42161  44.623  14.419   7.055
 8777POPC   C4A42162  44.630  14.378   7.355
 8777POPC   C1B42163  44.683  14.154   6.455
 8777POPC   C2B42164  44.729  14.131   6.755
 8777POPC   C3B42165  44.675  14.175   7.055
 8777POPC   C4B42166  44.661  14.149   7.355
 8778POPC   NC342167  30.684  26.769   5.555
 8778POPC   PO442168  30.685  26.793   5.855
 8778POPC   GL142169  30.726  26.829   6.155
 8778POPC   GL242170  30.813  26.848   6.155
 8778POPC   C1A42171  30.742  26.846   6.455
 8778POPC   D2A42172  30.741  26.836   6.755
 8778POPC   C3A42173  30.709  26.800   7.055
 8778POPC   C4A42174  30.718  26.783   7.355
 8778POPC   C1B42175  30.921  26.881   6.455
 8778POPC   C2B42176  30.881  26.866   6.755
 8778POPC   C3B42177  30.896  26.860   7.055
 8778POPC   C4B42178  30.963  26.895   7.355
 8779POPC   NC342179  30.736  15.941   5.555
 8779POPC   PO442180  30.693  15.997   5.855
 8779POPC   GL142181  30.717  15.991   6.155
 8779POPC   GL242182  30.753  15.862   6.155
 8779POPC   C1A42183  30.700  16.004   6.455
 8779POPC   D2A42184  30.656  15.912   6.755
 8779POPC   C3A42185  30.740  15.914   7.055
 8779POPC   C4A42186  30.713  15.964   7.355
 8779POPC   C1B42187  30.846  15.720   6.455
 8779POPC   C2B42188  30.849  15.785   6.755
 8779POPC   C3B42189  30.817  15.733   7.055
 8779POPC   C4B42190  30.820  15.801   7.355
 8780POPC   NC342191  44.698   1.183   5.555
 8780POPC   PO442192  44.706   1.166   5.855
 8780POPC   GL142193  44.667   1.241   6.155
 8780POPC   GL242194  44.819   1.180   6.155
 8780POPC   C1A42195  44.625   1.241   6.455
 8780POPC   D2A42196  44.691   1.253   6.755
 8780POPC   C3A42197  44.708   1.262   7.055
 8780POPC   C4A42198  44.699   1.192   7.355
 8780POPC   C1B42199  44.869   1.097   6.455
 8780POPC   C2B42200  44.827   1.101   6.755
 8780POPC   C3B42201  44.868   1.063   7.055
 8780POPC   C4B42202  44.916   1.086   7.355
 8781POPC   NC342203   9.011  33.025   5.555
 8781POPC   PO442204   8.933  33.031   5.855
 8781POPC   GL142205   8.948  33.059   6.155
 8781POPC   GL242206   9.064  32.963   6.155
 8781POPC   C1A42207   8.948  33.062   6.455
 8781POPC   D2A42208   8.969  32.996   6.755
 8781POPC   C3A42209   8.942  33.033   7.055
 8781POPC   C4A42210   9.010  32.988   7.355
 8781POPC   C1B42211   9.207  32.965   6.455
 8781POPC   C2B42212   9.199  32.946   6.755
 8781POPC   C3B42213   9.217  33.007   7.055
 8781POPC   C4B42214   9.179  32.943   7.355
 8782POPC   NC342215  40.783  22.896   5.555
 8782POPC   PO442216  40.733  22.950   5.855
 8782POPC   GL142217  40.736  22.967   6.155
 8782POPC   GL242218  40.698  22.961   6.155
 8782POPC   C1A42219  40.750  22.907   6.455
 8782POPC   D2A42220  40.746  22.896   6.755
 8782POPC   C3A42221  40.765  22.979   7.055
 8782POPC   C4A42222  40.767  22.931   7.355
 8782POPC   C1B42223  40.517  22.948   6.455
 8782POPC   C2B42224  40.569  23.000   6.755
 8782POPC   C3B42225  40.487  22.995   7.055
 8782POPC   C4B42226  40.574  22.997   7.355
 8783POPC   NC342227   7.421  21.414   5.555
 8783POPC   PO442228   7.470  21.368   5.855
 8783POPC   GL142229   7.433  21.371   6.155
 8783POPC   GL242230   7.559  21.272   6.155
 8783POPC   C1A42231   7.431  21.363   6.455
 8783POPC   D2A42232   7.392  21.364   6.755
 8783POPC   C3A42233   7.435  21.372   7.055
 8783POPC   C4A42234   7.389  21.387   7.355
 8783POPC   C1B42235   7.597  21.199   6.455
 8783POPC   C2B42236   7.589  21.226   6.755
 8783POPC   C3B42237   7.577  21.208   7.055
 8783POPC   C4B42238   7.633  21.174   7.355
 8784POPC   NC342239  37.661   6.627   5.555
 8784POPC   PO442240  37.641   6.663   5.855
 8784POPC   GL142241  37.637   6.685   6.155
 8784POPC   GL242242  37.667   6.812   6.155
 8784POPC   C1A42243  37.704   6.684   6.455
 8784POPC   D2A42244  37.634   6.644   6.755
 8784POPC   C3A42245  37.691   6.611   7.055
 8784POPC   C4A42246  37.662   6.690   7.355
 8784POPC   C1B42247  37.755   6.880   6.455
 8784POPC   C2B42248  37.771   6.929   6.755
 8784POPC   C3B42249  37.785   6.904   7.055
 8784POPC   C4B42250  37.728   6.924   7.355
 8785POPC   NC342251  25.271   7.414   5.555
 8785POPC   PO442252  25.293   7.407   5.855
 8785POPC   GL142253  25.237   7.457   6.155
 8785POPC   GL242254  25.373   7.372   6.155
 8785POPC   C1A42255  25.313   7.469   6.455
 8785POPC   D2A42256  25.285   7.415   6.755
 8785POPC   C3A42257  25.264   7.453   7.055
 8785POPC   C4A42258  25.288   7.417   7.355
 8785POPC   C1B42259  25.541   7.448   6.455
 8785POPC   C2B42260  25.529   7.414   6.755
 8785POPC   C3B42261  25.511   7.409   7.055
 8785POPC   C4B42262  25.542   7.404   7.355
 8786POPC   NC342263  23.731  13.607   5.555
 8786POPC   PO442264  23.716  13.603   5.855
 8786POPC   GL142265  23.739  13.637   6.155
 8786POPC   GL242266  23.624  13.570   6.155
 8786POPC   C1A42267  23.695  13.620   6.455
 8786POPC   D2A42268  23.758  13.654   6.755
 8786POPC   C3A42269  23.753  13.604   7.055
 8786POPC   C4A42270  23.744  13.670   7.355
 8786POPC   C1B42271  23.542  13.501   6.455
 8786POPC   C2B42272  23.554  13.525   6.755
 8786POPC   C3B42273  23.518  13.470   7.055
 8786POPC   C4B42274  23.478  13.522   7.355
 8787POPC   NC342275  19.100  28.328   5.555
 8787POPC   PO442276  19.055  28.336   5.855
 8787POPC   GL142277  19.063  28.338   6.155
 8787POPC   GL242278  19.209  28.350   6.155
 8787POPC   C1A42279  19.070  28.415   6.455
 8787POPC   D2A42280  19.068  28.415   6.755
 8787POPC   C3A42281  19.098  28.323   7.055
 8787POPC   C4A42282  19.074  28.400   7.355
 8787POPC   C1B42283  19.311  28.280   6.455
 8787POPC   C2B42284  19.326  28.245   6.755
 8787POPC   C3B42285  19.289  28.284   7.055
 8787POPC   C4B42286  19.236  28.300   7.355
 8788POPC   NC342287  14.413  18.290   5.555
 8788POPC   PO442288  14.405  18.293   5.855
 8788POPC   GL142289  14.423  18.293   6.155
 8788POPC   GL242290  14.552  18.355   6.155
 8788POPC   C1A42291  14.381  18.288   6.455
 8788POPC   D2A42292  14.376  18.281   6.755
 8788POPC   C3A42293  14.385  18.242   7.055
 8788POPC   C4A42294  14.438  18.321   7.355
 8788POPC   C1B42295  14.627  18.324   6.455
 8788POPC   C2B42296  14.659  18.391   6.755
 8788POPC   C3B42297  14.681  18.311   7.055
 8788POPC   C4B42298  14.683  18.362   7.355
 8789POPC   NC342299   5.127  43.931   5.555
 8789POPC   PO442300   5.126  43.934   5.855
 8789POPC   GL142301   5.058  43.909   6.155
 8789POPC   GL242302   5.074  43.810   6.155
 8789POPC   C1A42303   5.097  43.932   6.455
 8789POPC   D2A42304   5.101  43.877   6.755
 8789POPC   C3A42305   5.141  43.881   7.055
 8789POPC   C4A42306   5.105  43.847   7.355
 8789POPC   C1B42307   5.117  43.657   6.455
 8789POPC   C2B42308   5.163  43.683   6.755
 8789POPC   C3B42309   5.184  43.613   7.055
 8789POPC   C4B42310   5.164  43.672   7.355
 8790POPC   NC342311  34.556   8.937   5.555
 8790POPC   PO442312  34.527   9.018   5.855
 8790POPC   GL142313  34.572   8.957   6.155
 8790POPC   GL242314  34.527   8.923   6.155
 8790POPC   C1A42315  34.575   9.001   6.455
 8790POPC   D2A42316  34.587   8.927   6.755
 8790POPC   C3A42317  34.585   8.942   7.055
 8790POPC   C4A42318  34.581   8.933   7.355
 8790POPC   C1B42319  34.390   8.814   6.455
 8790POPC   C2B42320  34.417   8.798   6.755
 8790POPC   C3B42321  34.427   8.753   7.055
 8790POPC   C4B42322  34.438   8.839   7.355
 8791POPC   NC342323   1.969  29.939   5.555
 8791POPC   PO442324   1.978  29.942   5.855
 8791POPC   GL142325   1.942  29.945   6.155
 8791POPC   GL242326   2.126  29.871   6.155
 8791POPC   C1A42327   1.967  29.881   6.455
 8791POPC   D2A42328   2.016  29.934   6.755
 8791POPC   C3A42329   2.027  29.920   7.055
 8791POPC   C4A42330   1.984  29.917   7.355
 8791POPC   C1B42331   2.151  29.726   6.455
 8791POPC   C2B42332   2.153  29.741   6.755
 8791POPC   C3B42333   2.156  29.809   7.055
 8791POPC   C4B42334   2.139  29.750   7.355
 8792POPC   NC342335  26.864  30.695   5.555
 8792POPC   PO442336  26.800  30.669   5.855
 8792POPC   GL142337  26.864  30.671   6.155
 8792POPC   GL242338  26.923  30.603   6.155
 8792POPC   C1A42339  26.824  30.737   6.455
 8792POPC   D2A42340  26.864  30.732   6.755
 8792POPC   C3A42341  26.792  30.708   7.055
 8792POPC   C4A42342  26.779  30.650   7.355
 8792POPC   C1B42343  26.948  30.551   6.455
 8792POPC   C2B42344  27.005  30.562   6.755
 8792POPC   C3B42345  26.945  30.540   7.055
 8792POPC   C4B42346  26.983  30.495   7.355
 8793POPC   NC342347  38.426   8.161   5.555
 8793POPC   PO442348  38.492   8.218   5.855
 8793POPC   GL142349  38.488   8.208   6.155
 8793POPC   GL242350  38.597   8.102   6.155
 8793POPC   C1A42351  38.464   8.190   6.455
 8793POPC   D2A42352  38.477   8.189   6.755
 8793POPC   C3A42353  38.459   8.169   7.055
 8793POPC   C4A42354  38.491   8.178   7.355
 8793POPC   C1B42355  38.643   8.115   6.455
 8793POPC   C2B42356  38.709   8.042   6.755
 8793POPC   C3B42357  38.680   8.041   7.055
 8793POPC   C4B42358  38.718   8.083   7.355
 8794POPC   NC342359   1.957  15.226   5.555
 8794POPC   PO442360   1.985  15.130   5.855
 8794POPC   GL142361   2.019  15.204   6.155
 8794POPC   GL242362   2.102  15.133   6.155
 8794POPC   C1A42363   1.997  15.135   6.455
 8794POPC   D2A42364   1.968  15.184   6.755
 8794POPC   C3A42365   1.961  15.211   7.055
 8794POPC   C4A42366   1.949  15.161   7.355
 8794POPC   C1B42367   2.269  15.135   6.455
 8794POPC   C2B42368   2.241  15.077   6.755
 8794POPC   C3B42369   2.258  15.053   7.055
 8794POPC   C4B42370   2.183  15.122   7.355
 8795POPC   NC342371   9.757  22.895   5.555
 8795POPC   PO442372   9.701  22.985   5.855
 8795POPC   GL142373   9.735  22.957   6.155
 8795POPC   GL242374   9.660  22.985   6.155
 8795POPC   C1A42375   9.780  22.902   6.455
 8795POPC   D2A42376   9.781  22.889   6.755
 8795POPC   C3A42377   9.720  22.987   7.055
 8795POPC   C4A42378   9.797  22.917   7.355
 8795POPC   C1B42379   9.531  23.027   6.455
 8795POPC   C2B42380   9.578  23.056   6.755
 8795POPC   C3B42381   9.521  23.050   7.055
 8795POPC   C4B42382   9.529  23.024   7.355
 8796POPC   NC342383   5.903  15.909   5.555
 8796POPC   PO442384   5.844  15.911   5.855
 8796POPC   GL142385   5.824  15.991   6.155
 8796POPC   GL242386   5.957  15.887   6.155
 8796POPC   C1A42387   5.830  15.994   6.455
 8796POPC   D2A42388   5.896  16.003   6.755
 8796POPC   C3A42389   5.823  15.922   7.055
 8796POPC   C4A42390   5.819  15.912   7.355
 8796POPC   C1B42391   5.991  15.782   6.455
 8796POPC   C2B42392   6.041  15.750   6.755
 8796POPC   C3B42393   5.989  15.784   7.055
 8796POPC   C4B42394   5.959  15.750   7.355
 8797POPC   NC342395  12.086  23.665   5.555
 8797POPC   PO442396  12.090  23.673   5.855
 8797POPC   GL142397  12.074  23.689   6.155
 8797POPC   GL242398  12.067  23.858   6.155
 8797POPC   C1A42399  12.087  23.735   6.455
 8797POPC   D2A42400  12.119  23.744   6.755
 8797POPC   C3A42401  12.030  23.681   7.055
 8797POPC   C4A42402  12.052  23.687   7.355
 8797POPC   C1B42403  12.080  23.975   6.455
 8797POPC   C2B42404  12.121  23.978   6.755
 8797POPC   C3B42405  12.153  23.994   7.055
 8797POPC   C4B42406  12.068  23.949   7.355
 8798POPC   NC342407  33.789  22.907   5.555
 8798POPC   PO442408  33.826  22.935   5.855
 8798POPC   GL142409  33.804  22.951   6.155
 8798POPC   GL242410  33.889  22.970   6.155
 8798POPC   C1A42411  33.796  22.911   6.455
 8798POPC   D2A42412  33.784  22.912   6.755
 8798POPC   C3A42413  33.773  22.962   7.055
 8798POPC   C4A42414  33.803  22.920   7.355
 8798POPC   C1B42415  34.071  23.034   6.455
 8798POPC   C2B42416  34.016  23.047   6.755
 8798POPC   C3B42417  34.070  23.031   7.055
 8798POPC   C4B42418  33.992  22.956   7.355
 8799POPC   NC342419  19.054  36.108   5.555
 8799POPC   PO442420  19.086  36.121   5.855
 8799POPC   GL142421  19.038  36.165   6.155
 8799POPC   GL242422  19.166  36.059   6.155
 8799POPC   C1A42423  19.049  36.110   6.455
 8799POPC   D2A42424  19.052  36.141   6.755
 8799POPC   C3A42425  19.066  36.110   7.055
 8799POPC   C4A42426  19.076  36.113   7.355
 8799POPC   C1B42427  19.250  36.080   6.455
 8799POPC   C2B42428  19.303  36.067   6.755
 8799POPC   C3B42429  19.326  36.053   7.055
 8799POPC   C4B42430  19.261  35.993   7.355
 8800POPC   NC342431  33.825  14.406   5.555
 8800POPC   PO442432  33.757  14.375   5.855
 8800POPC   GL142433  33.806  14.439   6.155
 8800POPC   GL242434  33.715  14.356   6.155
 8800POPC   C1A42435  33.839  14.364   6.455
 8800POPC   D2A42436  33.757  14.447   6.755
 8800POPC   C3A42437  33.840  14.393   7.055
 8800POPC   C4A42438  33.825  14.450   7.355
 8800POPC   C1B42439  33.580  14.236   6.455
 8800POPC   C2B42440  33.586  14.273   6.755
 8800POPC   C3B42441  33.580  14.206   7.055
 8800POPC   C4B42442  33.645  14.295   7.355
 8801POPC   NC342443  41.535  15.149   5.555
 8801POPC   PO442444  41.523  15.191   5.855
 8801POPC   GL142445  41.585  15.214   6.155
 8801POPC   GL242446  41.595  15.285   6.155
 8801POPC   C1A42447  41.567  15.144   6.455
 8801POPC   D2A42448  41.601  15.175   6.755
 8801POPC   C3A42449  41.593  15.205   7.055
 8801POPC   C4A42450  41.594  15.131   7.355
 8801POPC   C1B42451  41.634  15.410   6.455
 8801POPC   C2B42452  41.656  15.421   6.755
 8801POPC   C3B42453  41.679  15.357   7.055
 8801POPC   C4B42454  41.696  15.381   7.355
 8802POPC   NC342455  44.704  26.782   5.555
 8802POPC   PO442456  44.647  26.819   5.855
 8802POPC   GL142457  44.694  26.817   6.155
 8802POPC   GL242458  44.767  26.677   6.155
 8802POPC   C1A42459  44.635  26.843   6.455
 8802POPC   D2A42460  44.654  26.863   6.755
 8802POPC   C3A42461  44.625  26.792   7.055
 8802POPC   C4A42462  44.665  26.774   7.355
 8802POPC   C1B42463  44.782  26.628   6.455
 8802POPC   C2B42464  44.793  26.615   6.755
 8802POPC   C3B42465  44.818  26.580   7.055
 8802POPC   C4B42466  44.741  26.596   7.355
 8803POPC   NC342467  28.343  14.363   5.555
 8803POPC   PO442468  28.373  14.371   5.855
 8803POPC   GL142469  28.414  14.420   6.155
 8803POPC   GL242470  28.453  14.341   6.155
 8803POPC   C1A42471  28.364  14.356   6.455
 8803POPC   D2A42472  28.386  14.434   6.755
 8803POPC   C3A42473  28.370  14.407   7.055
 8803POPC   C4A42474  28.363  14.380   7.355
 8803POPC   C1B42475  28.618  14.267   6.455
 8803POPC   C2B42476  28.547  14.279   6.755
 8803POPC   C3B42477  28.628  14.293   7.055
 8803POPC   C4B42478  28.565  14.301   7.355
 8804POPC   NC342479  12.119  34.602   5.555
 8804POPC   PO442480  12.062  34.605   5.855
 8804POPC   GL142481  12.116  34.544   6.155
 8804POPC   GL242482  12.018  34.449   6.155
 8804POPC   C1A42483  12.092  34.557   6.455
 8804POPC   D2A42484  12.108  34.567   6.755
 8804POPC   C3A42485  12.104  34.573   7.055
 8804POPC   C4A42486  12.066  34.612   7.355
 8804POPC   C1B42487  11.913  34.362   6.455
 8804POPC   C2B42488  11.928  34.333   6.755
 8804POPC   C3B42489  11.893  34.377   7.055
 8804POPC   C4B42490  11.933  34.379   7.355
 8805POPC   NC342491  13.637  36.135   5.555
 8805POPC   PO442492  13.590  36.081   5.855
 8805POPC   GL142493  13.648  36.163   6.155
 8805POPC   GL242494  13.520  36.199   6.155
 8805POPC   C1A42495  13.648  36.111   6.455
 8805POPC   D2A42496  13.668  36.078   6.755
 8805POPC   C3A42497  13.633  36.107   7.055
 8805POPC   C4A42498  13.625  36.130   7.355
 8805POPC   C1B42499  13.380  36.189   6.455
 8805POPC   C2B42500  13.423  36.180   6.755
 8805POPC   C3B42501  13.405  36.202   7.055
 8805POPC   C4B42502  13.391  36.216   7.355
 8806POPC   NC342503  15.177  39.262   5.555
 8806POPC   PO442504  15.139  39.252   5.855
 8806POPC   GL142505  15.153  39.263   6.155
 8806POPC   GL242506  15.268  39.318   6.155
 8806POPC   C1A42507  15.200  39.269   6.455
 8806POPC   D2A42508  15.149  39.274   6.755
 8806POPC   C3A42509  15.201  39.195   7.055
 8806POPC   C4A42510  15.218  39.241   7.355
 8806POPC   C1B42511  15.439  39.364   6.455
 8806POPC   C2B42512  15.434  39.386   6.755
 8806POPC   C3B42513  15.398  39.383   7.055
 8806POPC   C4B42514  15.376  39.365   7.355
 8807POPC   NC342515   5.133  13.634   5.555
 8807POPC   PO442516   5.116  13.599   5.855
 8807POPC   GL142517   5.127  13.633   6.155
 8807POPC   GL242518   5.013  13.571   6.155
 8807POPC   C1A42519   5.143  13.622   6.455
 8807POPC   D2A42520   5.116  13.653   6.755
 8807POPC   C3A42521   5.082  13.662   7.055
 8807POPC   C4A42522   5.127  13.663   7.355
 8807POPC   C1B42523   4.892  13.578   6.455
 8807POPC   C2B42524   4.900  13.575   6.755
 8807POPC   C3B42525   4.857  13.513   7.055
 8807POPC   C4B42526   4.867  13.543   7.355
 8808POPC   NC342527  22.980   9.006   5.555
 8808POPC   PO442528  22.968   8.984   5.855
 8808POPC   GL142529  22.981   9.003   6.155
 8808POPC   GL242530  22.876   9.092   6.155
 8808POPC   C1A42531  22.970   9.022   6.455
 8808POPC   D2A42532  22.958   8.926   6.755
 8808POPC   C3A42533  22.966   8.999   7.055
 8808POPC   C4A42534  22.955   8.933   7.355
 8808POPC   C1B42535  22.761   9.117   6.455
 8808POPC   C2B42536  22.796   9.136   6.755
 8808POPC   C3B42537  22.740   9.184   7.055
 8808POPC   C4B42538  22.731   9.202   7.355
 8809POPC   NC342539  39.218   6.639   5.555
 8809POPC   PO442540  39.196   6.669   5.855
 8809POPC   GL142541  39.224   6.630   6.155
 8809POPC   GL242542  39.324   6.556   6.155
 8809POPC   C1A42543  39.213   6.629   6.455
 8809POPC   D2A42544  39.263   6.631   6.755
 8809POPC   C3A42545  39.198   6.692   7.055
 8809POPC   C4A42546  39.215   6.622   7.355
 8809POPC   C1B42547  39.328   6.439   6.455
 8809POPC   C2B42548  39.371   6.456   6.755
 8809POPC   C3B42549  39.350   6.460   7.055
 8809POPC   C4B42550  39.336   6.411   7.355
 8810POPC   NC342551  25.303  13.630   5.555
 8810POPC   PO442552  25.276  13.616   5.855
 8810POPC   GL142553  25.225  13.596   6.155
 8810POPC   GL242554  25.348  13.527   6.155
 8810POPC   C1A42555  25.231  13.657   6.455
 8810POPC   D2A42556  25.230  13.633   6.755
 8810POPC   C3A42557  25.313  13.624   7.055
 8810POPC   C4A42558  25.291  13.643   7.355
 8810POPC   C1B42559  25.424  13.494   6.455
 8810POPC   C2B42560  25.429  13.496   6.755
 8810POPC   C3B42561  25.438  13.451   7.055
 8810POPC   C4B42562  25.466  13.535   7.355
 8811POPC   NC342563  22.949   5.865   5.555
 8811POPC   PO442564  22.987   5.899   5.855
 8811POPC   GL142565  22.901   5.856   6.155
 8811POPC   GL242566  22.868   5.775   6.155
 8811POPC   C1A42567  22.974   5.872   6.455
 8811POPC   D2A42568  22.953   5.908   6.755
 8811POPC   C3A42569  22.938   5.851   7.055
 8811POPC   C4A42570  22.945   5.866   7.355
 8811POPC   C1B42571  22.900   5.588   6.455
 8811POPC   C2B42572  22.884   5.633   6.755
 8811POPC   C3B42573  22.845   5.599   7.055
 8811POPC   C4B42574  22.904   5.681   7.355
 8812POPC   NC342575  16.744  24.441   5.555
 8812POPC   PO442576  16.732  24.530   5.855
 8812POPC   GL142577  16.715  24.522   6.155
 8812POPC   GL242578  16.725  24.360   6.155
 8812POPC   C1A42579  16.730  24.491   6.455
 8812POPC   D2A42580  16.740  24.449   6.755
 8812POPC   C3A42581  16.693  24.530   7.055
 8812POPC   C4A42582  16.729  24.501   7.355
 8812POPC   C1B42583  16.723  24.243   6.455
 8812POPC   C2B42584  16.698  24.218   6.755
 8812POPC   C3B42585  16.634  24.279   7.055
 8812POPC   C4B42586  16.647  24.290   7.355
 8813POPC   NC342587   2.767  21.389   5.555
 8813POPC   PO442588   2.785  21.390   5.855
 8813POPC   GL142589   2.734  21.342   6.155
 8813POPC   GL242590   2.797  21.264   6.155
 8813POPC   C1A42591   2.719  21.361   6.455
 8813POPC   D2A42592   2.751  21.353   6.755
 8813POPC   C3A42593   2.763  21.403   7.055
 8813POPC   C4A42594   2.813  21.380   7.355
 8813POPC   C1B42595   2.811  21.155   6.455
 8813POPC   C2B42596   2.876  21.114   6.755
 8813POPC   C3B42597   2.846  21.170   7.055
 8813POPC   C4B42598   2.899  21.201   7.355
 8814POPC   NC342599   8.176  13.607   5.555
 8814POPC   PO442600   8.217  13.654   5.855
 8814POPC   GL142601   8.222  13.638   6.155
 8814POPC   GL242602   8.070  13.725   6.155
 8814POPC   C1A42603   8.233  13.671   6.455
 8814POPC   D2A42604   8.150  13.674   6.755
 8814POPC   C3A42605   8.203  13.620   7.055
 8814POPC   C4A42606   8.181  13.600   7.355
 8814POPC   C1B42607   8.048  13.841   6.455
 8814POPC   C2B42608   8.000  13.768   6.755
 8814POPC   C3B42609   8.017  13.845   7.055
 8814POPC   C4B42610   8.005  13.828   7.355
 8815POPC   NC342611  33.023   5.077   5.555
 8815POPC   PO442612  33.052   5.060   5.855
 8815POPC   GL142613  32.986   5.077   6.155
 8815POPC   GL242614  33.131   5.082   6.155
 8815POPC   C1A42615  33.033   5.098   6.455
 8815POPC   D2A42616  33.074   5.104   6.755
 8815POPC   C3A42617  33.071   5.096   7.055
 8815POPC   C4A42618  33.072   5.124   7.355
 8815POPC   C1B42619  33.275   5.072   6.455
 8815POPC   C2B42620  33.285   5.084   6.755
 8815POPC   C3B42621  33.254   5.070   7.055
 8815POPC   C4B42622  33.270   5.026   7.355
 8816POPC   NC342623  37.636  26.014   5.555
 8816POPC   PO442624  37.680  26.030   5.855
 8816POPC   GL142625  37.718  26.071   6.155
 8816POPC   GL242626  37.826  26.068   6.155
 8816POPC   C1A42627  37.716  26.076   6.455
 8816POPC   D2A42628  37.671  26.030   6.755
 8816POPC   C3A42629  37.640  26.048   7.055
 8816POPC   C4A42630  37.645  26.053   7.355
 8816POPC   C1B42631  37.954  26.083   6.455
 8816POPC   C2B42632  37.929  26.011   6.755
 8816POPC   C3B42633  37.971  26.059   7.055
 8816POPC   C4B42634  37.903  26.024   7.355
 8817POPC   NC342635  17.515  38.418   5.555
 8817POPC   PO442636  17.500  38.480   5.855
 8817POPC   GL142637  17.537  38.422   6.155
 8817POPC   GL242638  17.619  38.409   6.155
 8817POPC   C1A42639  17.553  38.409   6.455
 8817POPC   D2A42640  17.550  38.478   6.755
 8817POPC   C3A42641  17.487  38.505   7.055
 8817POPC   C4A42642  17.540  38.419   7.355
 8817POPC   C1B42643  17.749  38.273   6.455
 8817POPC   C2B42644  17.724  38.334   6.755
 8817POPC   C3B42645  17.671  38.312   7.055
 8817POPC   C4B42646  17.748  38.284   7.355
 8818POPC   NC342647   9.784  43.888   5.555
 8818POPC   PO442648   9.764  43.855   5.855
 8818POPC   GL142649   9.717  43.848   6.155
 8818POPC   GL242650   9.689  43.825   6.155
 8818POPC   C1A42651   9.750  43.914   6.455
 8818POPC   D2A42652   9.788  43.892   6.755
 8818POPC   C3A42653   9.780  43.857   7.055
 8818POPC   C4A42654   9.705  43.895   7.355
 8818POPC   C1B42655   9.544  43.678   6.455
 8818POPC   C2B42656   9.574  43.681   6.755
 8818POPC   C3B42657   9.613  43.741   7.055
 8818POPC   C4B42658   9.540  43.658   7.355
 8819POPC   NC342659  26.830   7.405   5.555
 8819POPC   PO442660  26.814   7.422   5.855
 8819POPC   GL142661  26.801   7.427   6.155
 8819POPC   GL242662  26.918   7.410   6.155
 8819POPC   C1A42663  26.867   7.404   6.455
 8819POPC   D2A42664  26.867   7.373   6.755
 8819POPC   C3A42665  26.776   7.387   7.055
 8819POPC   C4A42666  26.825   7.404   7.355
 8819POPC   C1B42667  27.022   7.359   6.455
 8819POPC   C2B42668  27.079   7.412   6.755
 8819POPC   C3B42669  27.024   7.371   7.055
 8819POPC   C4B42670  27.074   7.392   7.355
 8820POPC   NC342671  22.971  15.212   5.555
 8820POPC   PO442672  22.893  15.227   5.855
 8820POPC   GL142673  22.913  15.161   6.155
 8820POPC   GL242674  23.047  15.238   6.155
 8820POPC   C1A42675  22.985  15.220   6.455
 8820POPC   D2A42676  22.890  15.217   6.755
 8820POPC   C3A42677  22.938  15.143   7.055
 8820POPC   C4A42678  22.924  15.149   7.355
 8820POPC   C1B42679  23.088  15.332   6.455
 8820POPC   C2B42680  23.179  15.321   6.755
 8820POPC   C3B42681  23.156  15.298   7.055
 8820POPC   C4B42682  23.097  15.338   7.355
 8821POPC   NC342683  29.891  43.111   5.555
 8821POPC   PO442684  29.908  43.132   5.855
 8821POPC   GL142685  29.872  43.158   6.155
 8821POPC   GL242686  30.029  43.123   6.155
 8821POPC   C1A42687  29.952  43.122   6.455
 8821POPC   D2A42688  29.917  43.123   6.755
 8821POPC   C3A42689  29.884  43.099   7.055
 8821POPC   C4A42690  29.905  43.115   7.355
 8821POPC   C1B42691  30.208  43.074   6.455
 8821POPC   C2B42692  30.193  43.089   6.755
 8821POPC   C3B42693  30.155  43.031   7.055
 8821POPC   C4B42694  30.184  43.017   7.355
 8822POPC   NC342695  44.683  15.139   5.555
 8822POPC   PO442696  44.625  15.182   5.855
 8822POPC   GL142697  44.679  15.203   6.155
 8822POPC   GL242698  44.560  15.103   6.155
 8822POPC   C1A42699  44.660  15.216   6.455
 8822POPC   D2A42700  44.675  15.131   6.755
 8822POPC   C3A42701  44.666  15.219   7.055
 8822POPC   C4A42702  44.710  15.196   7.355
 8822POPC   C1B42703  44.579  14.935   6.455
 8822POPC   C2B42704  44.549  14.990   6.755
 8822POPC   C3B42705  44.553  14.990   7.055
 8822POPC   C4B42706  44.574  14.927   7.355
 8823POPC   NC342707  27.567  22.115   5.555
 8823POPC   PO442708  27.618  22.178   5.855
 8823POPC   GL142709  27.572  22.135   6.155
 8823POPC   GL242710  27.683  22.088   6.155
 8823POPC   C1A42711  27.612  22.141   6.455
 8823POPC   D2A42712  27.553  22.128   6.755
 8823POPC   C3A42713  27.573  22.163   7.055
 8823POPC   C4A42714  27.593  22.124   7.355
 8823POPC   C1B42715  27.790  22.068   6.455
 8823POPC   C2B42716  27.799  21.993   6.755
 8823POPC   C3B42717  27.760  22.039   7.055
 8823POPC   C4B42718  27.832  22.013   7.355
 8824POPC   NC342719  37.635  18.262   5.555
 8824POPC   PO442720  37.723  18.322   5.855
 8824POPC   GL142721  37.685  18.319   6.155
 8824POPC   GL242722  37.635  18.195   6.155
 8824POPC   C1A42723  37.664  18.245   6.455
 8824POPC   D2A42724  37.687  18.331   6.755
 8824POPC   C3A42725  37.651  18.310   7.055
 8824POPC   C4A42726  37.701  18.310   7.355
 8824POPC   C1B42727  37.565  18.085   6.455
 8824POPC   C2B42728  37.564  18.044   6.755
 8824POPC   C3B42729  37.504  18.127   7.055
 8824POPC   C4B42730  37.501  18.091   7.355
 8825POPC   NC342731  40.767  25.222   5.555
 8825POPC   PO442732  40.777  25.278   5.855
 8825POPC   GL142733  40.770  25.245   6.155
 8825POPC   GL242734  40.901  25.298   6.155
 8825POPC   C1A42735  40.818  25.260   6.455
 8825POPC   D2A42736  40.782  25.252   6.755
 8825POPC   C3A42737  40.735  25.239   7.055
 8825POPC   C4A42738  40.744  25.303   7.355
 8825POPC   C1B42739  41.021  25.461   6.455
 8825POPC   C2B42740  40.954  25.454   6.755
 8825POPC   C3B42741  40.966  25.443   7.055
 8825POPC   C4B42742  40.933  25.393   7.355
 8826POPC   NC342743  19.805   0.482   5.555
 8826POPC   PO442744  19.811   0.455   5.855
 8826POPC   GL142745  19.838   0.402   6.155
 8826POPC   GL242746  19.699   0.482   6.155
 8826POPC   C1A42747  19.796   0.395   6.455
 8826POPC   D2A42748  19.875   0.403   6.755
 8826POPC   C3A42749  19.816   0.483   7.055
 8826POPC   C4A42750  19.831   0.397   7.355
 8826POPC   C1B42751  19.679   0.648   6.455
 8826POPC   C2B42752  19.624   0.582   6.755
 8826POPC   C3B42753  19.693   0.607   7.055
 8826POPC   C4B42754  19.656   0.600   7.355
 8827POPC   NC342755  24.521   1.971   5.555
 8827POPC   PO442756  24.486   1.946   5.855
 8827POPC   GL142757  24.447   2.032   6.155
 8827POPC   GL242758  24.360   2.023   6.155
 8827POPC   C1A42759  24.442   1.983   6.455
 8827POPC   D2A42760  24.476   1.965   6.755
 8827POPC   C3A42761  24.446   2.032   7.055
 8827POPC   C4A42762  24.508   2.008   7.355
 8827POPC   C1B42763  24.194   2.002   6.455
 8827POPC   C2B42764  24.258   1.928   6.755
 8827POPC   C3B42765  24.205   1.967   7.055
 8827POPC   C4B42766  24.261   1.971   7.355
 8828POPC   NC342767   7.446  38.421   5.555
 8828POPC   PO442768   7.437  38.463   5.855
 8828POPC   GL142769   7.416  38.458   6.155
 8828POPC   GL242770   7.324  38.520   6.155
 8828POPC   C1A42771   7.400  38.419   6.455
 8828POPC   D2A42772   7.380  38.502   6.755
 8828POPC   C3A42773   7.375  38.462   7.055
 8828POPC   C4A42774   7.446  38.446   7.355
 8828POPC   C1B42775   7.177  38.610   6.455
 8828POPC   C2B42776   7.236  38.618   6.755
 8828POPC   C3B42777   7.169  38.578   7.055
 8828POPC   C4B42778   7.256  38.585   7.355
 8829POPC   NC342779  12.818  25.256   5.555
 8829POPC   PO442780  12.827  25.279   5.855
 8829POPC   GL142781  12.838  25.269   6.155
 8829POPC   GL242782  12.905  25.139   6.155
 8829POPC   C1A42783  12.882  25.275   6.455
 8829POPC   D2A42784  12.814  25.243   6.755
 8829POPC   C3A42785  12.829  25.278   7.055
 8829POPC   C4A42786  12.880  25.315   7.355
 8829POPC   C1B42787  12.916  25.007   6.455
 8829POPC   C2B42788  12.955  24.991   6.755
 8829POPC   C3B42789  12.938  25.062   7.055
 8829POPC   C4B42790  12.951  25.011   7.355
 8830POPC   NC342791  10.529  24.513   5.555
 8830POPC   PO442792  10.512  24.537   5.855
 8830POPC   GL142793  10.538  24.463   6.155
 8830POPC   GL242794  10.607  24.565   6.155
 8830POPC   C1A42795  10.570  24.468   6.455
 8830POPC   D2A42796  10.486  24.499   6.755
 8830POPC   C3A42797  10.508  24.528   7.055
 8830POPC   C4A42798  10.560  24.447   7.355
 8830POPC   C1B42799  10.728  24.562   6.455
 8830POPC   C2B42800  10.745  24.562   6.755
 8830POPC   C3B42801  10.730  24.586   7.055
 8830POPC   C4B42802  10.770  24.550   7.355
 8831POPC   NC342803  29.944  44.692   5.555
 8831POPC   PO442804  29.940  44.654   5.855
 8831POPC   GL142805  29.894  44.709   6.155
 8831POPC   GL242806  30.069  44.560   6.155
 8831POPC   C1A42807  29.896  44.668   6.455
 8831POPC   D2A42808  29.969  44.691   6.755
 8831POPC   C3A42809  29.926  44.645   7.055
 8831POPC   C4A42810  29.917  44.668   7.355
 8831POPC   C1B42811  30.108  44.525   6.455
 8831POPC   C2B42812  30.187  44.550   6.755
 8831POPC   C3B42813  30.116  44.569   7.055
 8831POPC   C4B42814  30.134  44.562   7.355
 8832POPC   NC342815   3.513  27.567   5.555
 8832POPC   PO442816   3.509  27.573   5.855
 8832POPC   GL142817   3.518  27.640   6.155
 8832POPC   GL242818   3.657  27.690   6.155
 8832POPC   C1A42819   3.523  27.641   6.455
 8832POPC   D2A42820   3.579  27.633   6.755
 8832POPC   C3A42821   3.573  27.640   7.055
 8832POPC   C4A42822   3.528  27.578   7.355
 8832POPC   C1B42823   3.764  27.774   6.455
 8832POPC   C2B42824   3.716  27.716   6.755
 8832POPC   C3B42825   3.797  27.688   7.055
 8832POPC   C4B42826   3.732  27.767   7.355
 8833POPC   NC342827   5.139  33.756   5.555
 8833POPC   PO442828   5.047  33.764   5.855
 8833POPC   GL142829   5.121  33.791   6.155
 8833POPC   GL242830   5.166  33.665   6.155
 8833POPC   C1A42831   5.093  33.788   6.455
 8833POPC   D2A42832   5.056  33.763   6.755
 8833POPC   C3A42833   5.069  33.763   7.055
 8833POPC   C4A42834   5.111  33.762   7.355
 8833POPC   C1B42835   5.159  33.571   6.455
 8833POPC   C2B42836   5.104  33.508   6.755
 8833POPC   C3B42837   5.113  33.590   7.055
 8833POPC   C4B42838   5.138  33.553   7.355
 8834POPC   NC342839  22.192  43.155   5.555
 8834POPC   PO442840  22.145  43.159   5.855
 8834POPC   GL142841  22.206  43.092   6.155
 8834POPC   GL242842  22.087  43.168   6.155
 8834POPC   C1A42843  22.194  43.123   6.455
 8834POPC   D2A42844  22.141  43.138   6.755
 8834POPC   C3A42845  22.136  43.147   7.055
 8834POPC   C4A42846  22.126  43.096   7.355
 8834POPC   C1B42847  21.942  43.199   6.455
 8834POPC   C2B42848  21.963  43.241   6.755
 8834POPC   C3B42849  21.939  43.248   7.055
 8834POPC   C4B42850  21.996  43.245   7.355
 8835POPC   NC342851  41.590  40.819   5.555
 8835POPC   PO442852  41.605  40.761   5.855
 8835POPC   GL142853  41.530  40.742   6.155
 8835POPC   GL242854  41.411  40.820   6.155
 8835POPC   C1A42855  41.579  40.811   6.455
 8835POPC   D2A42856  41.584  40.773   6.755
 8835POPC   C3A42857  41.542  40.741   7.055
 8835POPC   C4A42858  41.516  40.786   7.355
 8835POPC   C1B42859  41.370  40.952   6.455
 8835POPC   C2B42860  41.374  40.926   6.755
 8835POPC   C3B42861  41.347  40.932   7.055
 8835POPC   C4B42862  41.311  40.949   7.355
 8836POPC   NC342863   9.758  26.017   5.555
 8836POPC   PO442864   9.708  26.086   5.855
 8836POPC   GL142865   9.756  26.019   6.155
 8836POPC   GL242866   9.709  26.154   6.155
 8836POPC   C1A42867   9.723  26.089   6.455
 8836POPC   D2A42868   9.743  26.017   6.755
 8836POPC   C3A42869   9.706  26.086   7.055
 8836POPC   C4A42870   9.767  26.013   7.355
 8836POPC   C1B42871   9.548  26.219   6.455
 8836POPC   C2B42872   9.557  26.190   6.755
 8836POPC   C3B42873   9.605  26.241   7.055
 8836POPC   C4B42874   9.546  26.183   7.355
 8837POPC   NC342875  26.844  38.493   5.555
 8837POPC   PO442876  26.770  38.434   5.855
 8837POPC   GL142877  26.840  38.454   6.155
 8837POPC   GL242878  26.885  38.500   6.155
 8837POPC   C1A42879  26.851  38.476   6.455
 8837POPC   D2A42880  26.851  38.453   6.755
 8837POPC   C3A42881  26.773  38.421   7.055
 8837POPC   C4A42882  26.790  38.500   7.355
 8837POPC   C1B42883  26.989  38.591   6.455
 8837POPC   C2B42884  27.046  38.590   6.755
 8837POPC   C3B42885  26.966  38.580   7.055
 8837POPC   C4B42886  27.043  38.651   7.355
 8838POPC   NC342887   3.518  17.478   5.555
 8838POPC   PO442888   3.561  17.468   5.855
 8838POPC   GL142889   3.547  17.467   6.155
 8838POPC   GL242890   3.427  17.465   6.155
 8838POPC   C1A42891   3.553  17.522   6.455
 8838POPC   D2A42892   3.496  17.537   6.755
 8838POPC   C3A42893   3.520  17.487   7.055
 8838POPC   C4A42894   3.516  17.475   7.355
 8838POPC   C1B42895   3.341  17.302   6.455
 8838POPC   C2B42896   3.352  17.301   6.755
 8838POPC   C3B42897   3.363  17.303   7.055
 8838POPC   C4B42898   3.322  17.360   7.355
 8839POPC   NC342899  40.740   6.622   5.555
 8839POPC   PO442900  40.754   6.676   5.855
 8839POPC   GL142901  40.753   6.673   6.155
 8839POPC   GL242902  40.701   6.735   6.155
 8839POPC   C1A42903  40.766   6.632   6.455
 8839POPC   D2A42904  40.776   6.693   6.755
 8839POPC   C3A42905  40.800   6.652   7.055
 8839POPC   C4A42906  40.827   6.601   7.355
 8839POPC   C1B42907  40.572   6.764   6.455
 8839POPC   C2B42908  40.539   6.743   6.755
 8839POPC   C3B42909  40.536   6.740   7.055
 8839POPC   C4B42910  40.584   6.751   7.355
 8840POPC   NC342911  13.626  42.301   5.555
 8840POPC   PO442912  13.596  42.366   5.855
 8840POPC   GL142913  13.589  42.312   6.155
 8840POPC   GL242914  13.672  42.487   6.155
 8840POPC   C1A42915  13.623  42.332   6.455
 8840POPC   D2A42916  13.651  42.365   6.755
 8840POPC   C3A42917  13.639  42.317   7.055
 8840POPC   C4A42918  13.652  42.292   7.355
 8840POPC   C1B42919  13.754  42.547   6.455
 8840POPC   C2B42920  13.785  42.591   6.755
 8840POPC   C3B42921  13.755  42.539   7.055
 8840POPC   C4B42922  13.703  42.591   7.355
 8841POPC   NC342923  39.960   7.393   5.555
 8841POPC   PO442924  40.055   7.421   5.855
 8841POPC   GL142925  39.964   7.395   6.155
 8841POPC   GL242926  39.992   7.274   6.155
 8841POPC   C1A42927  40.055   7.379   6.455
 8841POPC   D2A42928  40.016   7.399   6.755
 8841POPC   C3A42929  39.982   7.457   7.055
 8841POPC   C4A42930  40.035   7.410   7.355
 8841POPC   C1B42931  40.024   7.218   6.455
 8841POPC   C2B42932  39.997   7.192   6.755
 8841POPC   C3B42933  40.041   7.136   7.055
 8841POPC   C4B42934  40.061   7.220   7.355
 8842POPC   NC342935  27.634  30.714   5.555
 8842POPC   PO442936  27.561  30.654   5.855
 8842POPC   GL142937  27.639  30.712   6.155
 8842POPC   GL242938  27.611  30.616   6.155
 8842POPC   C1A42939  27.613  30.674   6.455
 8842POPC   D2A42940  27.631  30.666   6.755
 8842POPC   C3A42941  27.616  30.690   7.055
 8842POPC   C4A42942  27.618  30.718   7.355
 8842POPC   C1B42943  27.626  30.474   6.455
 8842POPC   C2B42944  27.657  30.482   6.755
 8842POPC   C3B42945  27.659  30.411   7.055
 8842POPC   C4B42946  27.604  30.427   7.355
 8843POPC   NC342947  42.297   0.446   5.555
 8843POPC   PO442948  42.373   0.391   5.855
 8843POPC   GL142949  42.348   0.468   6.155
 8843POPC   GL242950  42.331   0.293   6.155
 8843POPC   C1A42951  42.362   0.484   6.455
 8843POPC   D2A42952  42.290   0.478   6.755
 8843POPC   C3A42953  42.384   0.487   7.055
 8843POPC   C4A42954  42.370   0.440   7.355
 8843POPC   C1B42955  42.380   0.218   6.455
 8843POPC   C2B42956  42.352   0.197   6.755
 8843POPC   C3B42957  42.413   0.220   7.055
 8843POPC   C4B42958  42.340   0.242   7.355
 8844POPC   NC342959   6.611  15.201   5.555
 8844POPC   PO442960   6.690  15.224   5.855
 8844POPC   GL142961   6.678  15.139   6.155
 8844POPC   GL242962   6.770  15.255   6.155
 8844POPC   C1A42963   6.644  15.224   6.455
 8844POPC   D2A42964   6.635  15.196   6.755
 8844POPC   C3A42965   6.681  15.151   7.055
 8844POPC   C4A42966   6.634  15.207   7.355
 8844POPC   C1B42967   6.935  15.269   6.455
 8844POPC   C2B42968   6.892  15.259   6.755
 8844POPC   C3B42969   6.897  15.208   7.055
 8844POPC   C4B42970   6.875  15.229   7.355
 8845POPC   NC342971  17.547  32.997   5.555
 8845POPC   PO442972  17.544  33.070   5.855
 8845POPC   GL142973  17.515  33.014   6.155
 8845POPC   GL242974  17.638  33.042   6.155
 8845POPC   C1A42975  17.459  32.977   6.455
 8845POPC   D2A42976  17.504  32.990   6.755
 8845POPC   C3A42977  17.537  33.035   7.055
 8845POPC   C4A42978  17.533  33.037   7.355
 8845POPC   C1B42979  17.759  32.920   6.455
 8845POPC   C2B42980  17.734  32.926   6.755
 8845POPC   C3B42981  17.789  32.975   7.055
 8845POPC   C4B42982  17.764  33.011   7.355
 8846POPC   NC342983   2.809  14.421   5.555
 8846POPC   PO442984   2.799  14.406   5.855
 8846POPC   GL142985   2.737  14.369   6.155
 8846POPC   GL242986   2.786  14.313   6.155
 8846POPC   C1A42987   2.782  14.414   6.455
 8846POPC   D2A42988   2.748  14.430   6.755
 8846POPC   C3A42989   2.751  14.388   7.055
 8846POPC   C4A42990   2.793  14.375   7.355
 8846POPC   C1B42991   2.824  14.120   6.455
 8846POPC   C2B42992   2.818  14.166   6.755
 8846POPC   C3B42993   2.852  14.176   7.055
 8846POPC   C4B42994   2.814  14.209   7.355
 8847POPC   NC342995  36.946  14.441   5.555
 8847POPC   PO442996  36.867  14.414   5.855
 8847POPC   GL142997  36.880  14.417   6.155
 8847POPC   GL242998  36.829  14.349   6.155
 8847POPC   C1A42999  36.856  14.453   6.455
 8847POPC   D2A43000  36.879  14.421   6.755
 8847POPC   C3A43001  36.889  14.372   7.055
 8847POPC   C4A43002  36.881  14.381   7.355
 8847POPC   C1B43003  36.709  14.260   6.455
 8847POPC   C2B43004  36.720  14.188   6.755
 8847POPC   C3B43005  36.703  14.220   7.055
 8847POPC   C4B43006  36.756  14.260   7.355
 8848POPC   NC343007  38.451  10.569   5.555
 8848POPC   PO443008  38.409  10.493   5.855
 8848POPC   GL143009  38.417  10.488   6.155
 8848POPC   GL243010  38.498  10.611   6.155
 8848POPC   C1A43011  38.409  10.526   6.455
 8848POPC   D2A43012  38.408  10.558   6.755
 8848POPC   C3A43013  38.425  10.496   7.055
 8848POPC   C4A43014  38.449  10.570   7.355
 8848POPC   C1B43015  38.594  10.718   6.455
 8848POPC   C2B43016  38.546  10.776   6.755
 8848POPC   C3B43017  38.533  10.736   7.055
 8848POPC   C4B43018  38.586  10.701   7.355
 8849POPC   NC343019   2.731  17.459   5.555
 8849POPC   PO443020   2.794  17.492   5.855
 8849POPC   GL143021   2.777  17.474   6.155
 8849POPC   GL243022   2.900  17.581   6.155
 8849POPC   C1A43023   2.768  17.458   6.455
 8849POPC   D2A43024   2.768  17.495   6.755
 8849POPC   C3A43025   2.717  17.526   7.055
 8849POPC   C4A43026   2.777  17.483   7.355
 8849POPC   C1B43027   3.003  17.521   6.455
 8849POPC   C2B43028   2.979  17.570   6.755
 8849POPC   C3B43029   3.045  17.578   7.055
 8849POPC   C4B43030   3.017  17.612   7.355
 8850POPC   NC343031   5.901  25.226   5.555
 8850POPC   PO443032   5.819  25.311   5.855
 8850POPC   GL143033   5.860  25.253   6.155
 8850POPC   GL243034   5.989  25.187   6.155
 8850POPC   C1A43035   5.878  25.302   6.455
 8850POPC   D2A43036   5.829  25.285   6.755
 8850POPC   C3A43037   5.864  25.248   7.055
 8850POPC   C4A43038   5.868  25.232   7.355
 8850POPC   C1B43039   6.114  25.063   6.455
 8850POPC   C2B43040   6.034  25.108   6.755
 8850POPC   C3B43041   6.038  25.133   7.055
 8850POPC   C4B43042   6.036  25.069   7.355
 8851POPC   NC343043   9.740  26.818   5.555
 8851POPC   PO443044   9.798  26.861   5.855
 8851POPC   GL143045   9.783  26.863   6.155
 8851POPC   GL243046   9.619  26.732   6.155
 8851POPC   C1A43047   9.723  26.864   6.455
 8851POPC   D2A43048   9.721  26.852   6.755
 8851POPC   C3A43049   9.701  26.817   7.055
 8851POPC   C4A43050   9.758  26.777   7.355
 8851POPC   C1B43051   9.495  26.702   6.455
 8851POPC   C2B43052   9.512  26.675   6.755
 8851POPC   C3B43053   9.558  26.701   7.055
 8851POPC   C4B43054   9.559  26.706   7.355
 8852POPC   NC343055  44.623  41.594   5.555
 8852POPC   PO443056  44.683  41.583   5.855
 8852POPC   GL143057  44.705  41.569   6.155
 8852POPC   GL243058  44.775  41.456   6.155
 8852POPC   C1A43059  44.672  41.591   6.455
 8852POPC   D2A43060  44.630  41.605   6.755
 8852POPC   C3A43061  44.655  41.575   7.055
 8852POPC   C4A43062  44.680  41.554   7.355
 8852POPC   C1B43063  44.852  41.432   6.455
 8852POPC   C2B43064  44.887  41.367   6.755
 8852POPC   C3B43065  44.848  41.352   7.055
 8852POPC   C4B43066  44.855  41.351   7.355
 8853POPC   NC343067   6.620  40.010   5.555
 8853POPC   PO443068   6.672  40.001   5.855
 8853POPC   GL143069   6.668  39.995   6.155
 8853POPC   GL243070   6.509  40.068   6.155
 8853POPC   C1A43071   6.680  39.981   6.455
 8853POPC   D2A43072   6.615  40.034   6.755
 8853POPC   C3A43073   6.651  39.997   7.055
 8853POPC   C4A43074   6.680  39.969   7.355
 8853POPC   C1B43075   6.515  40.196   6.455
 8853POPC   C2B43076   6.479  40.204   6.755
 8853POPC   C3B43077   6.426  40.142   7.055
 8853POPC   C4B43078   6.483  40.219   7.355
 8854POPC   NC343079  43.157  36.942   5.555
 8854POPC   PO443080  43.063  36.866   5.855
 8854POPC   GL143081  43.104  36.909   6.155
 8854POPC   GL243082  43.058  36.830   6.155
 8854POPC   C1A43083  43.094  36.931   6.455
 8854POPC   D2A43084  43.113  36.879   6.755
 8854POPC   C3A43085  43.077  36.873   7.055
 8854POPC   C4A43086  43.119  36.907   7.355
 8854POPC   C1B43087  42.954  36.680   6.455
 8854POPC   C2B43088  43.005  36.707   6.755
 8854POPC   C3B43089  43.010  36.752   7.055
 8854POPC   C4B43090  42.935  36.716   7.355
 8855POPC   NC343091  23.735   8.190   5.555
 8855POPC   PO443092  23.675   8.194   5.855
 8855POPC   GL143093  23.669   8.201   6.155
 8855POPC   GL243094  23.637   8.306   6.155
 8855POPC   C1A43095  23.740   8.167   6.455
 8855POPC   D2A43096  23.743   8.233   6.755
 8855POPC   C3A43097  23.685   8.180   7.055
 8855POPC   C4A43098  23.669   8.213   7.355
 8855POPC   C1B43099  23.559   8.412   6.455
 8855POPC   C2B43100  23.568   8.362   6.755
 8855POPC   C3B43101  23.545   8.357   7.055
 8855POPC   C4B43102  23.574   8.345   7.355
 8856POPC   NC343103   8.941   0.394   5.555
 8856POPC   PO443104   8.964   0.462   5.855
 8856POPC   GL143105   9.013   0.421   6.155
 8856POPC   GL243106   8.989   0.574   6.155
 8856POPC   C1A43107   8.954   0.404   6.455
 8856POPC   D2A43108   8.946   0.474   6.755
 8856POPC   C3A43109   8.963   0.487   7.055
 8856POPC   C4A43110   8.965   0.486   7.355
 8856POPC   C1B43111   9.123   0.673   6.455
 8856POPC   C2B43112   9.060   0.649   6.755
 8856POPC   C3B43113   9.107   0.623   7.055
 8856POPC   C4B43114   9.096   0.676   7.355
 8857POPC   NC343115   7.430   3.500   5.555
 8857POPC   PO443116   7.387   3.528   5.855
 8857POPC   GL143117   7.462   3.516   6.155
 8857POPC   GL243118   7.570   3.516   6.155
 8857POPC   C1A43119   7.427   3.512   6.455
 8857POPC   D2A43120   7.381   3.541   6.755
 8857POPC   C3A43121   7.415   3.501   7.055
 8857POPC   C4A43122   7.380   3.514   7.355
 8857POPC   C1B43123   7.665   3.540   6.455
 8857POPC   C2B43124   7.617   3.601   6.755
 8857POPC   C3B43125   7.627   3.595   7.055
 8857POPC   C4B43126   7.709   3.622   7.355
 8858POPC   NC343127  21.373  30.725   5.555
 8858POPC   PO443128  21.406  30.696   5.855
 8858POPC   GL143129  21.372  30.692   6.155
 8858POPC   GL243130  21.306  30.760   6.155
 8858POPC   C1A43131  21.340  30.653   6.455
 8858POPC   D2A43132  21.417  30.718   6.755
 8858POPC   C3A43133  21.400  30.678   7.055
 8858POPC   C4A43134  21.344  30.686   7.355
 8858POPC   C1B43135  21.172  30.759   6.455
 8858POPC   C2B43136  21.171  30.739   6.755
 8858POPC   C3B43137  21.172  30.805   7.055
 8858POPC   C4B43138  21.174  30.734   7.355
 8859POPC   NC343139   0.454   7.432   5.555
 8859POPC   PO443140   0.464   7.375   5.855
 8859POPC   GL143141   0.468   7.391   6.155
 8859POPC   GL243142   0.582   7.340   6.155
 8859POPC   C1A43143   0.397   7.426   6.455
 8859POPC   D2A43144   0.485   7.440   6.755
 8859POPC   C3A43145   0.461   7.408   7.055
 8859POPC   C4A43146   0.451   7.403   7.355
 8859POPC   C1B43147   0.640   7.326   6.455
 8859POPC   C2B43148   0.661   7.319   6.755
 8859POPC   C3B43149   0.677   7.364   7.055
 8859POPC   C4B43150   0.711   7.322   7.355
 8860POPC   NC343151  28.405  24.494   5.555
 8860POPC   PO443152  28.416  24.523   5.855
 8860POPC   GL143153  28.356  24.461   6.155
 8860POPC   GL243154  28.285  24.517   6.155
 8860POPC   C1A43155  28.328  24.535   6.455
 8860POPC   D2A43156  28.345  24.458   6.755
 8860POPC   C3A43157  28.381  24.521   7.055
 8860POPC   C4A43158  28.356  24.490   7.355
 8860POPC   C1B43159  28.137  24.590   6.455
 8860POPC   C2B43160  28.140  24.597   6.755
 8860POPC   C3B43161  28.163  24.646   7.055
 8860POPC   C4B43162  28.167  24.659   7.355
 8861POPC   NC343163  12.056  20.588   5.555
 8861POPC   PO443164  12.091  20.572   5.855
 8861POPC   GL143165  12.031  20.576   6.155
 8861POPC   GL243166  11.970  20.666   6.155
 8861POPC   C1A43167  12.080  20.659   6.455
 8861POPC   D2A43168  12.035  20.562   6.755
 8861POPC   C3A43169  12.057  20.572   7.055
 8861POPC   C4A43170  12.121  20.572   7.355
 8861POPC   C1B43171  11.801  20.587   6.455
 8861POPC   C2B43172  11.790  20.654   6.755
 8861POPC   C3B43173  11.790  20.646   7.055
 8861POPC   C4B43174  11.784  20.653   7.355
 8862POPC   NC343175  40.795  26.853   5.555
 8862POPC   PO443176  40.800  26.770   5.855
 8862POPC   GL143177  40.771  26.803   6.155
 8862POPC   GL243178  40.882  26.729   6.155
 8862POPC   C1A43179  40.811  26.835   6.455
 8862POPC   D2A43180  40.811  26.859   6.755
 8862POPC   C3A43181  40.738  26.792   7.055
 8862POPC   C4A43182  40.764  26.806   7.355
 8862POPC   C1B43183  41.047  26.708   6.455
 8862POPC   C2B43184  40.970  26.697   6.755
 8862POPC   C3B43185  41.024  26.661   7.055
 8862POPC   C4B43186  41.032  26.685   7.355
 8863POPC   NC343187  35.381  35.376   5.555
 8863POPC   PO443188  35.309  35.334   5.855
 8863POPC   GL143189  35.363  35.397   6.155
 8863POPC   GL243190  35.471  35.366   6.155
 8863POPC   C1A43191  35.383  35.371   6.455
 8863POPC   D2A43192  35.355  35.401   6.755
 8863POPC   C3A43193  35.377  35.308   7.055
 8863POPC   C4A43194  35.396  35.367   7.355
 8863POPC   C1B43195  35.546  35.485   6.455
 8863POPC   C2B43196  35.530  35.450   6.755
 8863POPC   C3B43197  35.574  35.507   7.055
 8863POPC   C4B43198  35.572  35.472   7.355
 8864POPC   NC343199  40.818   5.856   5.555
 8864POPC   PO443200  40.812   5.840   5.855
 8864POPC   GL143201  40.766   5.822   6.155
 8864POPC   GL243202  40.638   5.806   6.155
 8864POPC   C1A43203  40.801   5.911   6.455
 8864POPC   D2A43204  40.811   5.846   6.755
 8864POPC   C3A43205  40.764   5.866   7.055
 8864POPC   C4A43206  40.745   5.827   7.355
 8864POPC   C1B43207  40.531   5.716   6.455
 8864POPC   C2B43208  40.540   5.804   6.755
 8864POPC   C3B43209  40.586   5.718   7.055
 8864POPC   C4B43210  40.588   5.773   7.355
 8865POPC   NC343211   6.653  25.272   5.555
 8865POPC   PO443212   6.609  25.272   5.855
 8865POPC   GL143213   6.668  25.249   6.155
 8865POPC   GL243214   6.633  25.411   6.155
 8865POPC   C1A43215   6.625  25.228   6.455
 8865POPC   D2A43216   6.643  25.226   6.755
 8865POPC   C3A43217   6.612  25.245   7.055
 8865POPC   C4A43218   6.634  25.224   7.355
 8865POPC   C1B43219   6.631  25.483   6.455
 8865POPC   C2B43220   6.612  25.530   6.755
 8865POPC   C3B43221   6.665  25.549   7.055
 8865POPC   C4B43222   6.689  25.494   7.355
 8866POPC   NC343223  18.236   4.362   5.555
 8866POPC   PO443224  18.314   4.314   5.855
 8866POPC   GL143225  18.279   4.346   6.155
 8866POPC   GL243226  18.412   4.308   6.155
 8866POPC   C1A43227  18.275   4.363   6.455
 8866POPC   D2A43228  18.295   4.280   6.755
 8866POPC   C3A43229  18.309   4.296   7.055
 8866POPC   C4A43230  18.332   4.364   7.355
 8866POPC   C1B43231  18.548   4.441   6.455
 8866POPC   C2B43232  18.496   4.425   6.755
 8866POPC   C3B43233  18.555   4.434   7.055
 8866POPC   C4B43234  18.563   4.377   7.355
 8867POPC   NC343235  10.497   8.197   5.555
 8867POPC   PO443236  10.525   8.203   5.855
 8867POPC   GL143237  10.574   8.186   6.155
 8867POPC   GL243238  10.432   8.114   6.155
 8867POPC   C1A43239  10.526   8.210   6.455
 8867POPC   D2A43240  10.520   8.225   6.755
 8867POPC   C3A43241  10.573   8.194   7.055
 8867POPC   C4A43242  10.550   8.198   7.355
 8867POPC   C1B43243  10.325   8.147   6.455
 8867POPC   C2B43244  10.244   8.109   6.755
 8867POPC   C3B43245  10.321   8.155   7.055
 8867POPC   C4B43246  10.322   8.068   7.355
 8868POPC   NC343247  19.036  25.297   5.555
 8868POPC   PO443248  19.024  25.258   5.855
 8868POPC   GL143249  19.019  25.257   6.155
 8868POPC   GL243250  18.910  25.244   6.155
 8868POPC   C1A43251  19.052  25.245   6.455
 8868POPC   D2A43252  19.094  25.266   6.755
 8868POPC   C3A43253  19.083  25.217   7.055
 8868POPC   C4A43254  19.045  25.231   7.355
 8868POPC   C1B43255  18.834  25.245   6.455
 8868POPC   C2B43256  18.812  25.214   6.755
 8868POPC   C3B43257  18.760  25.297   7.055
 8868POPC   C4B43258  18.764  25.301   7.355
 8869POPC   NC343259   2.026   7.405   5.555
 8869POPC   PO443260   2.036   7.468   5.855
 8869POPC   GL143261   1.987   7.409   6.155
 8869POPC   GL243262   2.152   7.458   6.155
 8869POPC   C1A43263   1.984   7.410   6.455
 8869POPC   D2A43264   1.963   7.387   6.755
 8869POPC   C3A43265   2.022   7.390   7.055
 8869POPC   C4A43266   1.980   7.371   7.355
 8869POPC   C1B43267   2.261   7.459   6.455
 8869POPC   C2B43268   2.281   7.417   6.755
 8869POPC   C3B43269   2.201   7.451   7.055
 8869POPC   C4B43270   2.279   7.465   7.355
 8870POPC   NC343271  20.647  11.333   5.555
 8870POPC   PO443272  20.621  11.297   5.855
 8870POPC   GL143273  20.577  11.265   6.155
 8870POPC   GL243274  20.644  11.209   6.155
 8870POPC   C1A43275  20.568  11.318   6.455
 8870POPC   D2A43276  20.643  11.296   6.755
 8870POPC   C3A43277  20.615  11.264   7.055
 8870POPC   C4A43278  20.581  11.310   7.355
 8870POPC   C1B43279  20.562  11.005   6.455
 8870POPC   C2B43280  20.592  11.080   6.755
 8870POPC   C3B43281  20.584  11.063   7.055
 8870POPC   C4B43282  20.638  11.035   7.355
 8871POPC   NC343283  20.601  15.164   5.555
 8871POPC   PO443284  20.596  15.204   5.855
 8871POPC   GL143285  20.633  15.172   6.155
 8871POPC   GL243286  20.654  15.329   6.155
 8871POPC   C1A43287  20.582  15.209   6.455
 8871POPC   D2A43288  20.604  15.130   6.755
 8871POPC   C3A43289  20.584  15.194   7.055
 8871POPC   C4A43290  20.587  15.219   7.355
 8871POPC   C1B43291  20.660  15.439   6.455
 8871POPC   C2B43292  20.637  15.379   6.755
 8871POPC   C3B43293  20.694  15.466   7.055
 8871POPC   C4B43294  20.604  15.381   7.355
 8872POPC   NC343295  44.636  42.293   5.555
 8872POPC   PO443296  44.661  42.304   5.855
 8872POPC   GL143297  44.629  42.345   6.155
 8872POPC   GL243298  44.517  42.356   6.155
 8872POPC   C1A43299  44.677  42.319   6.455
 8872POPC   D2A43300  44.682  42.352   6.755
 8872POPC   C3A43301  44.640  42.302   7.055
 8872POPC   C4A43302  44.634  42.369   7.355
 8872POPC   C1B43303  44.386  42.355   6.455
 8872POPC   C2B43304  44.458  42.337   6.755
 8872POPC   C3B43305  44.428  42.363   7.055
 8872POPC   C4B43306  44.409  42.370   7.355
 8873POPC   NC343307  22.123  38.435   5.555
 8873POPC   PO443308  22.173  38.482   5.855
 8873POPC   GL143309  22.209  38.440   6.155
 8873POPC   GL243310  22.224  38.568   6.155
 8873POPC   C1A43311  22.120  38.411   6.455
 8873POPC   D2A43312  22.120  38.488   6.755
 8873POPC   C3A43313  22.179  38.502   7.055
 8873POPC   C4A43314  22.195  38.470   7.355
 8873POPC   C1B43315  22.255  38.635   6.455
 8873POPC   C2B43316  22.303  38.732   6.755
 8873POPC   C3B43317  22.255  38.693   7.055
 8873POPC   C4B43318  22.290  38.717   7.355
 8874POPC   NC343319   6.684  16.748   5.555
 8874POPC   PO443320   6.694  16.726   5.855
 8874POPC   GL143321   6.609  16.697   6.155
 8874POPC   GL243322   6.724  16.577   6.155
 8874POPC   C1A43323   6.694  16.742   6.455
 8874POPC   D2A43324   6.602  16.742   6.755
 8874POPC   C3A43325   6.663  16.709   7.055
 8874POPC   C4A43326   6.637  16.776   7.355
 8874POPC   C1B43327   6.759  16.551   6.455
 8874POPC   C2B43328   6.774  16.500   6.755
 8874POPC   C3B43329   6.751  16.490   7.055
 8874POPC   C4B43330   6.794  16.553   7.355
 8875POPC   NC343331  21.358   6.655   5.555
 8875POPC   PO443332  21.365   6.665   5.855
 8875POPC   GL143333  21.383   6.638   6.155
 8875POPC   GL243334  21.331   6.764   6.155
 8875POPC   C1A43335  21.407   6.678   6.455
 8875POPC   D2A43336  21.435   6.692   6.755
 8875POPC   C3A43337  21.397   6.603   7.055
 8875POPC   C4A43338  21.432   6.670   7.355
 8875POPC   C1B43339  21.247   6.847   6.455
 8875POPC   C2B43340  21.302   6.826   6.755
 8875POPC   C3B43341  21.266   6.839   7.055
 8875POPC   C4B43342  21.269   6.881   7.355
 8876POPC   NC343343  26.773  18.290   5.555
 8876POPC   PO443344  26.829  18.283   5.855
 8876POPC   GL143345  26.828  18.265   6.155
 8876POPC   GL243346  26.689  18.219   6.155
 8876POPC   C1A43347  26.775  18.256   6.455
 8876POPC   D2A43348  26.800  18.273   6.755
 8876POPC   C3A43349  26.828  18.274   7.055
 8876POPC   C4A43350  26.867  18.330   7.355
 8876POPC   C1B43351  26.581  18.205   6.455
 8876POPC   C2B43352  26.591  18.224   6.755
 8876POPC   C3B43353  26.566  18.272   7.055
 8876POPC   C4B43354  26.545  18.297   7.355
 8877POPC   NC343355  20.657   9.785   5.555
 8877POPC   PO443356  20.599   9.747   5.855
 8877POPC   GL143357  20.639   9.735   6.155
 8877POPC   GL243358  20.488   9.675   6.155
 8877POPC   C1A43359  20.610   9.771   6.455
 8877POPC   D2A43360  20.605   9.700   6.755
 8877POPC   C3A43361  20.652   9.704   7.055
 8877POPC   C4A43362  20.609   9.767   7.355
 8877POPC   C1B43363  20.414   9.536   6.455
 8877POPC   C2B43364  20.501   9.571   6.755
 8877POPC   C3B43365  20.437   9.531   7.055
 8877POPC   C4B43366  20.446   9.544   7.355
 8878POPC   NC343367   5.085  37.665   5.555
 8878POPC   PO443368   5.132  37.663   5.855
 8878POPC   GL143369   5.064  37.634   6.155
 8878POPC   GL243370   5.231  37.641   6.155
 8878POPC   C1A43371   5.073  37.701   6.455
 8878POPC   D2A43372   5.106  37.653   6.755
 8878POPC   C3A43373   5.138  37.682   7.055
 8878POPC   C4A43374   5.139  37.729   7.355
 8878POPC   C1B43375   5.342  37.565   6.455
 8878POPC   C2B43376   5.284  37.594   6.755
 8878POPC   C3B43377   5.366  37.565   7.055
 8878POPC   C4B43378   5.306  37.575   7.355
 8879POPC   NC343379  33.023   5.840   5.555
 8879POPC   PO443380  33.063   5.858   5.855
 8879POPC   GL143381  32.976   5.886   6.155
 8879POPC   GL243382  32.963   6.004   6.155
 8879POPC   C1A43383  33.019   5.842   6.455
 8879POPC   D2A43384  33.046   5.836   6.755
 8879POPC   C3A43385  32.996   5.919   7.055
 8879POPC   C4A43386  32.998   5.898   7.355
 8879POPC   C1B43387  32.898   6.082   6.455
 8879POPC   C2B43388  32.867   6.045   6.755
 8879POPC   C3B43389  32.918   6.061   7.055
 8879POPC   C4B43390  32.923   6.074   7.355
 8880POPC   NC343391  27.574  14.358   5.555
 8880POPC   PO443392  27.629  14.374   5.855
 8880POPC   GL143393  27.564  14.357   6.155
 8880POPC   GL243394  27.464  14.424   6.155
 8880POPC   C1A43395  27.618  14.419   6.455
 8880POPC   D2A43396  27.602  14.388   6.755
 8880POPC   C3A43397  27.588  14.368   7.055
 8880POPC   C4A43398  27.589  14.366   7.355
 8880POPC   C1B43399  27.348  14.350   6.455
 8880POPC   C2B43400  27.295  14.426   6.755
 8880POPC   C3B43401  27.388  14.383   7.055
 8880POPC   C4B43402  27.385  14.378   7.355
 8881POPC   NC343403  36.889  23.750   5.555
 8881POPC   PO443404  36.864  23.753   5.855
 8881POPC   GL143405  36.948  23.683   6.155
 8881POPC   GL243406  36.920  23.823   6.155
 8881POPC   C1A43407  36.858  23.743   6.455
 8881POPC   D2A43408  36.856  23.730   6.755
 8881POPC   C3A43409  36.916  23.764   7.055
 8881POPC   C4A43410  36.897  23.735   7.355
 8881POPC   C1B43411  36.931  24.001   6.455
 8881POPC   C2B43412  36.967  23.953   6.755
 8881POPC   C3B43413  36.946  23.933   7.055
 8881POPC   C4B43414  36.941  23.948   7.355
 8882POPC   NC343415   1.188  22.146   5.555
 8882POPC   PO443416   1.244  22.118   5.855
 8882POPC   GL143417   1.173  22.201   6.155
 8882POPC   GL243418   1.129  22.206   6.155
 8882POPC   C1A43419   1.246  22.172   6.455
 8882POPC   D2A43420   1.237  22.156   6.755
 8882POPC   C3A43421   1.263  22.131   7.055
 8882POPC   C4A43422   1.183  22.126   7.355
 8882POPC   C1B43423   1.050  22.302   6.455
 8882POPC   C2B43424   1.012  22.309   6.755
 8882POPC   C3B43425   0.985  22.272   7.055
 8882POPC   C4B43426   0.990  22.319   7.355
 8883POPC   NC343427  30.743   3.567   5.555
 8883POPC   PO443428  30.701   3.536   5.855
 8883POPC   GL143429  30.704   3.584   6.155
 8883POPC   GL243430  30.647   3.412   6.155
 8883POPC   C1A43431  30.684   3.513   6.455
 8883POPC   D2A43432  30.705   3.510   6.755
 8883POPC   C3A43433  30.726   3.579   7.055
 8883POPC   C4A43434  30.671   3.513   7.355
 8883POPC   C1B43435  30.539   3.345   6.455
 8883POPC   C2B43436  30.530   3.355   6.755
 8883POPC   C3B43437  30.528   3.362   7.055
 8883POPC   C4B43438  30.569   3.295   7.355
 8884POPC   NC343439  43.877  26.778   5.555
 8884POPC   PO443440  43.890  26.818   5.855
 8884POPC   GL143441  43.875  26.851   6.155
 8884POPC   GL243442  43.969  26.877   6.155
 8884POPC   C1A43443  43.898  26.776   6.455
 8884POPC   D2A43444  43.853  26.841   6.755
 8884POPC   C3A43445  43.922  26.805   7.055
 8884POPC   C4A43446  43.874  26.810   7.355
 8884POPC   C1B43447  44.116  26.894   6.455
 8884POPC   C2B43448  44.137  26.943   6.755
 8884POPC   C3B43449  44.101  26.889   7.055
 8884POPC   C4B43450  44.077  26.920   7.355
 8885POPC   NC343451  21.379  43.129   5.555
 8885POPC   PO443452  21.359  43.101   5.855
 8885POPC   GL143453  21.379  43.125   6.155
 8885POPC   GL243454  21.499  42.981   6.155
 8885POPC   C1A43455  21.387  43.131   6.455
 8885POPC   D2A43456  21.432  43.067   6.755
 8885POPC   C3A43457  21.436  43.087   7.055
 8885POPC   C4A43458  21.385  43.077   7.355
 8885POPC   C1B43459  21.501  42.885   6.455
 8885POPC   C2B43460  21.487  42.904   6.755
 8885POPC   C3B43461  21.556  42.950   7.055
 8885POPC   C4B43462  21.489  42.859   7.355
 8886POPC   NC343463   5.859  23.762   5.555
 8886POPC   PO443464   5.905  23.667   5.855
 8886POPC   GL143465   5.854  23.704   6.155
 8886POPC   GL243466   5.827  23.565   6.155
 8886POPC   C1A43467   5.854  23.691   6.455
 8886POPC   D2A43468   5.848  23.669   6.755
 8886POPC   C3A43469   5.823  23.748   7.055
 8886POPC   C4A43470   5.913  23.719   7.355
 8886POPC   C1B43471   5.863  23.445   6.455
 8886POPC   C2B43472   5.820  23.488   6.755
 8886POPC   C3B43473   5.839  23.458   7.055
 8886POPC   C4B43474   5.780  23.468   7.355
 8887POPC   NC343475   7.452  37.670   5.555
 8887POPC   PO443476   7.388  37.728   5.855
 8887POPC   GL143477   7.395  37.720   6.155
 8887POPC   GL243478   7.378  37.581   6.155
 8887POPC   C1A43479   7.460  37.661   6.455
 8887POPC   D2A43480   7.445  37.672   6.755
 8887POPC   C3A43481   7.455  37.631   7.055
 8887POPC   C4A43482   7.386  37.718   7.355
 8887POPC   C1B43483   7.277  37.441   6.455
 8887POPC   C2B43484   7.282  37.536   6.755
 8887POPC   C3B43485   7.246  37.467   7.055
 8887POPC   C4B43486   7.306  37.467   7.355
 8888POPC   NC343487   7.470  19.847   5.555
 8888POPC   PO443488   7.449  19.878   5.855
 8888POPC   GL143489   7.420  19.786   6.155
 8888POPC   GL243490   7.482  19.756   6.155
 8888POPC   C1A43491   7.450  19.869   6.455
 8888POPC   D2A43492   7.411  19.827   6.755
 8888POPC   C3A43493   7.374  19.789   7.055
 8888POPC   C4A43494   7.387  19.838   7.355
 8888POPC   C1B43495   7.647  19.631   6.455
 8888POPC   C2B43496   7.645  19.721   6.755
 8888POPC   C3B43497   7.640  19.642   7.055
 8888POPC   C4B43498   7.613  19.632   7.355
 8889POPC   NC343499  10.517  43.159   5.555
 8889POPC   PO443500  10.509  43.091   5.855
 8889POPC   GL143501  10.485  43.145   6.155
 8889POPC   GL243502  10.433  43.070   6.155
 8889POPC   C1A43503  10.530  43.152   6.455
 8889POPC   D2A43504  10.549  43.077   6.755
 8889POPC   C3A43505  10.491  43.123   7.055
 8889POPC   C4A43506  10.553  43.145   7.355
 8889POPC   C1B43507  10.286  43.024   6.455
 8889POPC   C2B43508  10.331  42.974   6.755
 8889POPC   C3B43509  10.271  43.003   7.055
 8889POPC   C4B43510  10.343  43.026   7.355
 8890POPC   NC343511  36.946  32.265   5.555
 8890POPC   PO443512  36.887  32.235   5.855
 8890POPC   GL143513  36.874  32.257   6.155
 8890POPC   GL243514  36.998  32.357   6.155
 8890POPC   C1A43515  36.873  32.282   6.455
 8890POPC   D2A43516  36.917  32.217   6.755
 8890POPC   C3A43517  36.926  32.215   7.055
 8890POPC   C4A43518  36.893  32.203   7.355
 8890POPC   C1B43519  37.041  32.407   6.455
 8890POPC   C2B43520  37.099  32.480   6.755
 8890POPC   C3B43521  37.067  32.496   7.055
 8890POPC   C4B43522  37.048  32.465   7.355
 8891POPC   NC343523   2.724  18.282   5.555
 8891POPC   PO443524   2.728  18.316   5.855
 8891POPC   GL143525   2.768  18.239   6.155
 8891POPC   GL243526   2.840  18.214   6.155
 8891POPC   C1A43527   2.749  18.237   6.455
 8891POPC   D2A43528   2.757  18.323   6.755
 8891POPC   C3A43529   2.723  18.298   7.055
 8891POPC   C4A43530   2.774  18.329   7.355
 8891POPC   C1B43531   3.023  18.112   6.455
 8891POPC   C2B43532   3.025  18.154   6.755
 8891POPC   C3B43533   2.968  18.167   7.055
 8891POPC   C4B43534   3.021  18.141   7.355
 8892POPC   NC343535  43.136  39.979   5.555
 8892POPC   PO443536  43.123  39.958   5.855
 8892POPC   GL143537  43.145  39.987   6.155
 8892POPC   GL243538  43.122  39.925   6.155
 8892POPC   C1A43539  43.082  40.000   6.455
 8892POPC   D2A43540  43.125  40.016   6.755
 8892POPC   C3A43541  43.109  40.000   7.055
 8892POPC   C4A43542  43.078  39.968   7.355
 8892POPC   C1B43543  43.174  39.777   6.455
 8892POPC   C2B43544  43.210  39.732   6.755
 8892POPC   C3B43545  43.210  39.816   7.055
 8892POPC   C4B43546  43.196  39.754   7.355
 8893POPC   NC343547  16.750   7.468   5.555
 8893POPC   PO443548  16.709   7.414   5.855
 8893POPC   GL143549  16.764   7.371   6.155
 8893POPC   GL243550  16.710   7.551   6.155
 8893POPC   C1A43551  16.780   7.470   6.455
 8893POPC   D2A43552  16.712   7.376   6.755
 8893POPC   C3A43553  16.729   7.470   7.055
 8893POPC   C4A43554  16.773   7.405   7.355
 8893POPC   C1B43555  16.714   7.692   6.455
 8893POPC   C2B43556  16.701   7.676   6.755
 8893POPC   C3B43557  16.675   7.688   7.055
 8893POPC   C4B43558  16.715   7.708   7.355
 8894POPC   NC343559  41.565  34.546   5.555
 8894POPC   PO443560  41.557  34.624   5.855
 8894POPC   GL143561  41.549  34.612   6.155
 8894POPC   GL243562  41.474  34.454   6.155
 8894POPC   C1A43563  41.582  34.564   6.455
 8894POPC   D2A43564  41.509  34.607   6.755
 8894POPC   C3A43565  41.593  34.557   7.055
 8894POPC   C4A43566  41.570  34.550   7.355
 8894POPC   C1B43567  41.392  34.332   6.455
 8894POPC   C2B43568  41.462  34.410   6.755
 8894POPC   C3B43569  41.406  34.331   7.055
 8894POPC   C4B43570  41.380  34.388   7.355
 8895POPC   NC343571  44.668  44.698   5.555
 8895POPC   PO443572  44.622  44.677   5.855
 8895POPC   GL143573  44.699  44.626   6.155
 8895POPC   GL243574  44.542  44.672   6.155
 8895POPC   C1A43575  44.648  44.671   6.455
 8895POPC   D2A43576  44.658  44.648   6.755
 8895POPC   C3A43577  44.646  44.685   7.055
 8895POPC   C4A43578  44.705  44.613   7.355
 8895POPC   C1B43579  44.463  44.732   6.455
 8895POPC   C2B43580  44.375  44.676   6.755
 8895POPC   C3B43581  44.413  44.658   7.055
 8895POPC   C4B43582  44.423  44.722   7.355
 8896POPC   NC343583  43.088  20.657   5.555
 8896POPC   PO443584  43.098  20.642   5.855
 8896POPC   GL143585  43.097  20.583   6.155
 8896POPC   GL243586  43.156  20.449   6.155
 8896POPC   C1A43587  43.066  20.646   6.455
 8896POPC   D2A43588  43.141  20.616   6.755
 8896POPC   C3A43589  43.099  20.596   7.055
 8896POPC   C4A43590  43.150  20.659   7.355
 8896POPC   C1B43591  43.101  20.395   6.455
 8896POPC   C2B43592  43.065  20.377   6.755
 8896POPC   C3B43593  43.100  20.361   7.055
 8896POPC   C4B43594  43.083  20.377   7.355
 8897POPC   NC343595  43.104  24.514   5.555
 8897POPC   PO443596  43.062  24.445   5.855
 8897POPC   GL143597  43.068  24.487   6.155
 8897POPC   GL243598  43.255  24.431   6.155
 8897POPC   C1A43599  43.111  24.537   6.455
 8897POPC   D2A43600  43.063  24.510   6.755
 8897POPC   C3A43601  43.117  24.445   7.055
 8897POPC   C4A43602  43.112  24.482   7.355
 8897POPC   C1B43603  43.290  24.334   6.455
 8897POPC   C2B43604  43.306  24.367   6.755
 8897POPC   C3B43605  43.301  24.297   7.055
 8897POPC   C4B43606  43.288  24.342   7.355
 8898POPC   NC343607   8.961   6.691   5.555
 8898POPC   PO443608   9.021   6.601   5.855
 8898POPC   GL143609   8.985   6.638   6.155
 8898POPC   GL243610   8.897   6.623   6.155
 8898POPC   C1A43611   8.989   6.609   6.455
 8898POPC   D2A43612   8.968   6.649   6.755
 8898POPC   C3A43613   8.966   6.660   7.055
 8898POPC   C4A43614   8.968   6.672   7.355
 8898POPC   C1B43615   8.773   6.706   6.455
 8898POPC   C2B43616   8.739   6.638   6.755
 8898POPC   C3B43617   8.761   6.665   7.055
 8898POPC   C4B43618   8.760   6.677   7.355
 8899POPC   NC343619  36.134   1.220   5.555
 8899POPC   PO443620  36.088   1.186   5.855
 8899POPC   GL143621  36.099   1.263   6.155
 8899POPC   GL243622  36.005   1.219   6.155
 8899POPC   C1A43623  36.091   1.208   6.455
 8899POPC   D2A43624  36.164   1.179   6.755
 8899POPC   C3A43625  36.158   1.226   7.055
 8899POPC   C4A43626  36.134   1.258   7.355
 8899POPC   C1B43627  35.918   1.300   6.455
 8899POPC   C2B43628  35.921   1.313   6.755
 8899POPC   C3B43629  35.899   1.306   7.055
 8899POPC   C4B43630  35.909   1.350   7.355
 8900POPC   NC343631   9.782  14.452   5.555
 8900POPC   PO443632   9.774  14.374   5.855
 8900POPC   GL143633   9.746  14.357   6.155
 8900POPC   GL243634   9.826  14.313   6.155
 8900POPC   C1A43635   9.706  14.391   6.455
 8900POPC   D2A43636   9.721  14.359   6.755
 8900POPC   C3A43637   9.789  14.406   7.055
 8900POPC   C4A43638   9.791  14.451   7.355
 8900POPC   C1B43639   9.957  14.229   6.455
 8900POPC   C2B43640   9.930  14.207   6.755
 8900POPC   C3B43641   9.898  14.221   7.055
 8900POPC   C4B43642   9.952  14.225   7.355
 8901POPC   NC343643   8.972  34.530   5.555
 8901POPC   PO443644   8.976  34.558   5.855
 8901POPC   GL143645   8.959  34.586   6.155
 8901POPC   GL243646   9.034  34.450   6.155
 8901POPC   C1A43647   8.932  34.548   6.455
 8901POPC   D2A43648   8.972  34.572   6.755
 8901POPC   C3A43649   8.999  34.580   7.055
 8901POPC   C4A43650   8.952  34.568   7.355
 8901POPC   C1B43651   9.075  34.321   6.455
 8901POPC   C2B43652   9.081  34.338   6.755
 8901POPC   C3B43653   9.033  34.312   7.055
 8901POPC   C4B43654   9.055  34.354   7.355
 8902POPC   NC343655  29.156   8.156   5.555
 8902POPC   PO443656  29.125   8.183   5.855
 8902POPC   GL143657  29.156   8.161   6.155
 8902POPC   GL243658  29.079   8.329   6.155
 8902POPC   C1A43659  29.120   8.234   6.455
 8902POPC   D2A43660  29.154   8.196   6.755
 8902POPC   C3A43661  29.144   8.162   7.055
 8902POPC   C4A43662  29.194   8.212   7.355
 8902POPC   C1B43663  28.998   8.408   6.455
 8902POPC   C2B43664  29.013   8.456   6.755
 8902POPC   C3B43665  28.970   8.452   7.055
 8902POPC   C4B43666  28.980   8.396   7.355
 8903POPC   NC343667  37.646   0.470   5.555
 8903POPC   PO443668  37.640   0.428   5.855
 8903POPC   GL143669  37.683   0.472   6.155
 8903POPC   GL243670  37.806   0.543   6.155
 8903POPC   C1A43671  37.639   0.450   6.455
 8903POPC   D2A43672  37.694   0.480   6.755
 8903POPC   C3A43673  37.695   0.459   7.055
 8903POPC   C4A43674  37.635   0.456   7.355
 8903POPC   C1B43675  37.874   0.528   6.455
 8903POPC   C2B43676  37.937   0.541   6.755
 8903POPC   C3B43677  37.929   0.521   7.055
 8903POPC   C4B43678  37.853   0.572   7.355
 8904POPC   NC343679  27.583  36.926   5.555
 8904POPC   PO443680  27.604  36.950   5.855
 8904POPC   GL143681  27.624  36.875   6.155
 8904POPC   GL243682  27.425  36.857   6.155
 8904POPC   C1A43683  27.622  36.860   6.455
 8904POPC   D2A43684  27.642  36.874   6.755
 8904POPC   C3A43685  27.575  36.943   7.055
 8904POPC   C4A43686  27.582  36.865   7.355
 8904POPC   C1B43687  27.365  36.815   6.455
 8904POPC   C2B43688  27.338  36.853   6.755
 8904POPC   C3B43689  27.358  36.842   7.055
 8904POPC   C4B43690  27.325  36.868   7.355
 8905POPC   NC343691  19.037   3.577   5.555
 8905POPC   PO443692  19.078   3.586   5.855
 8905POPC   GL143693  19.058   3.536   6.155
 8905POPC   GL243694  19.014   3.703   6.155
 8905POPC   C1A43695  19.063   3.528   6.455
 8905POPC   D2A43696  19.040   3.576   6.755
 8905POPC   C3A43697  19.096   3.526   7.055
 8905POPC   C4A43698  19.037   3.509   7.355
 8905POPC   C1B43699  19.079   3.747   6.455
 8905POPC   C2B43700  19.069   3.761   6.755
 8905POPC   C3B43701  19.034   3.751   7.055
 8905POPC   C4B43702  19.086   3.794   7.355
 8906POPC   NC343703  42.299   5.117   5.555
 8906POPC   PO443704  42.365   5.111   5.855
 8906POPC   GL143705  42.291   5.122   6.155
 8906POPC   GL243706  42.471   4.978   6.155
 8906POPC   C1A43707  42.307   5.093   6.455
 8906POPC   D2A43708  42.310   5.048   6.755
 8906POPC   C3A43709  42.372   5.054   7.055
 8906POPC   C4A43710  42.322   5.126   7.355
 8906POPC   C1B43711  42.543   4.937   6.455
 8906POPC   C2B43712  42.493   4.943   6.755
 8906POPC   C3B43713  42.500   4.895   7.055
 8906POPC   C4B43714  42.565   4.905   7.355
 8907POPC   NC343715  24.537  15.217   5.555
 8907POPC   PO443716  24.480  15.205   5.855
 8907POPC   GL143717  24.441  15.182   6.155
 8907POPC   GL243718  24.567  15.164   6.155
 8907POPC   C1A43719  24.527  15.195   6.455
 8907POPC   D2A43720  24.478  15.185   6.755
 8907POPC   C3A43721  24.514  15.131   7.055
 8907POPC   C4A43722  24.447  15.147   7.355
 8907POPC   C1B43723  24.674  15.084   6.455
 8907POPC   C2B43724  24.713  15.095   6.755
 8907POPC   C3B43725  24.710  15.084   7.055
 8907POPC   C4B43726  24.718  15.107   7.355
 8908POPC   NC343727   7.399  32.250   5.555
 8908POPC   PO443728   7.406  32.227   5.855
 8908POPC   GL143729   7.420  32.277   6.155
 8908POPC   GL243730   7.288  32.185   6.155
 8908POPC   C1A43731   7.432  32.261   6.455
 8908POPC   D2A43732   7.385  32.264   6.755
 8908POPC   C3A43733   7.411  32.250   7.055
 8908POPC   C4A43734   7.395  32.219   7.355
 8908POPC   C1B43735   7.140  32.203   6.455
 8908POPC   C2B43736   7.177  32.197   6.755
 8908POPC   C3B43737   7.138  32.206   7.055
 8908POPC   C4B43738   7.207  32.134   7.355
 8909POPC   NC343739   0.407  23.684   5.555
 8909POPC   PO443740   0.415  23.722   5.855
 8909POPC   GL143741   0.442  23.737   6.155
 8909POPC   GL243742   0.344  23.753   6.155
 8909POPC   C1A43743   0.425  23.738   6.455
 8909POPC   D2A43744   0.412  23.749   6.755
 8909POPC   C3A43745   0.482  23.714   7.055
 8909POPC   C4A43746   0.401  23.711   7.355
 8909POPC   C1B43747   0.164  23.841   6.455
 8909POPC   C2B43748   0.164  23.787   6.755
 8909POPC   C3B43749   0.243  23.822   7.055
 8909POPC   C4B43750   0.231  23.767   7.355
 8910POPC   NC343751  15.959  13.648   5.555
 8910POPC   PO443752  15.909  13.612   5.855
 8910POPC   GL143753  15.983  13.641   6.155
 8910POPC   GL243754  15.897  13.726   6.155
 8910POPC   C1A43755  15.918  13.587   6.455
 8910POPC   D2A43756  15.908  13.622   6.755
 8910POPC   C3A43757  15.979  13.677   7.055
 8910POPC   C4A43758  16.002  13.601   7.355
 8910POPC   C1B43759  15.882  13.902   6.455
 8910POPC   C2B43760  15.824  13.833   6.755
 8910POPC   C3B43761  15.842  13.831   7.055
 8910POPC   C4B43762  15.815  13.854   7.355
 8911POPC   NC343763  43.156  29.157   5.555
 8911POPC   PO443764  43.088  29.134   5.855
 8911POPC   GL143765  43.138  29.135   6.155
 8911POPC   GL243766  43.042  29.234   6.155
 8911POPC   C1A43767  43.086  29.096   6.455
 8911POPC   D2A43768  43.126  29.136   6.755
 8911POPC   C3A43769  43.104  29.110   7.055
 8911POPC   C4A43770  43.143  29.101   7.355
 8911POPC   C1B43771  42.925  29.259   6.455
 8911POPC   C2B43772  42.884  29.328   6.755
 8911POPC   C3B43773  42.870  29.332   7.055
 8911POPC   C4B43774  42.929  29.312   7.355
 8912POPC   NC343775  10.502  19.793   5.555
 8912POPC   PO443776  10.545  19.876   5.855
 8912POPC   GL143777  10.521  19.800   6.155
 8912POPC   GL243778  10.675  19.909   6.155
 8912POPC   C1A43779  10.476  19.881   6.455
 8912POPC   D2A43780  10.485  19.799   6.755
 8912POPC   C3A43781  10.573  19.868   7.055
 8912POPC   C4A43782  10.530  19.870   7.355
 8912POPC   C1B43783  10.746  19.858   6.455
 8912POPC   C2B43784  10.791  19.932   6.755
 8912POPC   C3B43785  10.748  19.954   7.055
 8912POPC   C4B43786  10.755  19.951   7.355
 8913POPC   NC343787  36.893  15.211   5.555
 8913POPC   PO443788  36.881  15.185   5.855
 8913POPC   GL143789  36.861  15.210   6.155
 8913POPC   GL243790  36.786  15.151   6.155
 8913POPC   C1A43791  36.882  15.143   6.455
 8913POPC   D2A43792  36.928  15.133   6.755
 8913POPC   C3A43793  36.932  15.206   7.055
 8913POPC   C4A43794  36.933  15.156   7.355
 8913POPC   C1B43795  36.612  15.188   6.455
 8913POPC   C2B43796  36.699  15.133   6.755
 8913POPC   C3B43797  36.606  15.187   7.055
 8913POPC   C4B43798  36.678  15.142   7.355
 8914POPC   NC343799   6.623  24.471   5.555
 8914POPC   PO443800   6.663  24.473   5.855
 8914POPC   GL143801   6.619  24.443   6.155
 8914POPC   GL243802   6.751  24.563   6.155
 8914POPC   C1A43803   6.612  24.445   6.455
 8914POPC   D2A43804   6.647  24.442   6.755
 8914POPC   C3A43805   6.687  24.470   7.055
 8914POPC   C4A43806   6.666  24.452   7.355
 8914POPC   C1B43807   6.841  24.523   6.455
 8914POPC   C2B43808   6.914  24.541   6.755
 8914POPC   C3B43809   6.902  24.537   7.055
 8914POPC   C4B43810   6.915  24.611   7.355
 8915POPC   NC343811  42.359   6.680   5.555
 8915POPC   PO443812  42.335   6.632   5.855
 8915POPC   GL143813  42.329   6.631   6.155
 8915POPC   GL243814  42.475   6.642   6.155
 8915POPC   C1A43815  42.361   6.625   6.455
 8915POPC   D2A43816  42.294   6.694   6.755
 8915POPC   C3A43817  42.315   6.618   7.055
 8915POPC   C4A43818  42.370   6.664   7.355
 8915POPC   C1B43819  42.564   6.619   6.455
 8915POPC   C2B43820  42.586   6.606   6.755
 8915POPC   C3B43821  42.579   6.591   7.055
 8915POPC   C4B43822  42.626   6.615   7.355
 8916POPC   NC343823  23.730  35.377   5.555
 8916POPC   PO443824  23.703  35.305   5.855
 8916POPC   GL143825  23.674  35.330   6.155
 8916POPC   GL243826  23.638  35.440   6.155
 8916POPC   C1A43827  23.751  35.348   6.455
 8916POPC   D2A43828  23.735  35.379   6.755
 8916POPC   C3A43829  23.667  35.337   7.055
 8916POPC   C4A43830  23.683  35.304   7.355
 8916POPC   C1B43831  23.624  35.624   6.455
 8916POPC   C2B43832  23.652  35.583   6.755
 8916POPC   C3B43833  23.622  35.549   7.055
 8916POPC   C4B43834  23.606  35.632   7.355
 8917POPC   NC343835  42.384   7.467   5.555
 8917POPC   PO443836  42.324   7.441   5.855
 8917POPC   GL143837  42.356   7.404   6.155
 8917POPC   GL243838  42.329   7.556   6.155
 8917POPC   C1A43839  42.332   7.394   6.455
 8917POPC   D2A43840  42.346   7.387   6.755
 8917POPC   C3A43841  42.347   7.394   7.055
 8917POPC   C4A43842  42.303   7.392   7.355
 8917POPC   C1B43843  42.228   7.676   6.455
 8917POPC   C2B43844  42.234   7.674   6.755
 8917POPC   C3B43845  42.274   7.684   7.055
 8917POPC   C4B43846  42.266   7.640   7.355
 8918POPC   NC343847  44.615  18.289   5.555
 8918POPC   PO443848  44.699  18.290   5.855
 8918POPC   GL143849  44.669  18.301   6.155
 8918POPC   GL243850  44.779  18.273   6.155
 8918POPC   C1A43851  44.684  18.321   6.455
 8918POPC   D2A43852  44.618  18.280   6.755
 8918POPC   C3A43853  44.685  18.247   7.055
 8918POPC   C4A43854  44.619  18.268   7.355
 8918POPC   C1B43855  44.925  18.327   6.455
 8918POPC   C2B43856  44.935  18.358   6.755
 8918POPC   C3B43857  44.867  18.378   7.055
 8918POPC   C4B43858  44.908  18.360   7.355
 8919POPC   NC343859   3.571  26.015   5.555
 8919POPC   PO443860   3.539  26.033   5.855
 8919POPC   GL143861   3.579  26.054   6.155
 8919POPC   GL243862   3.370  26.015   6.155
 8919POPC   C1A43863   3.536  26.012   6.455
 8919POPC   D2A43864   3.498  26.049   6.755
 8919POPC   C3A43865   3.542  26.040   7.055
 8919POPC   C4A43866   3.553  26.083   7.355
 8919POPC   C1B43867   3.305  26.030   6.455
 8919POPC   C2B43868   3.246  26.094   6.755
 8919POPC   C3B43869   3.271  26.113   7.055
 8919POPC   C4B43870   3.341  26.039   7.355
 8920POPC   NC343871  36.919  12.069   5.555
 8920POPC   PO443872  36.877  12.065   5.855
 8920POPC   GL143873  36.945  12.119   6.155
 8920POPC   GL243874  36.947  11.942   6.155
 8920POPC   C1A43875  36.865  12.082   6.455
 8920POPC   D2A43876  36.873  12.028   6.755
 8920POPC   C3A43877  36.870  12.049   7.055
 8920POPC   C4A43878  36.927  12.083   7.355
 8920POPC   C1B43879  36.969  11.868   6.455
 8920POPC   C2B43880  36.993  11.872   6.755
 8920POPC   C3B43881  36.936  11.852   7.055
 8920POPC   C4B43882  36.929  11.809   7.355
 8921POPC   NC343883  23.714   9.719   5.555
 8921POPC   PO443884  23.706   9.761   5.855
 8921POPC   GL143885  23.738   9.796   6.155
 8921POPC   GL243886  23.608   9.877   6.155
 8921POPC   C1A43887  23.732   9.726   6.455
 8921POPC   D2A43888  23.693   9.784   6.755
 8921POPC   C3A43889  23.710   9.784   7.055
 8921POPC   C4A43890  23.734   9.798   7.355
 8921POPC   C1B43891  23.581   9.994   6.455
 8921POPC   C2B43892  23.538   9.930   6.755
 8921POPC   C3B43893  23.584   9.949   7.055
 8921POPC   C4B43894  23.576   9.970   7.355
 8922POPC   NC343895  24.478  38.473   5.555
 8922POPC   PO443896  24.470  38.451   5.855
 8922POPC   GL143897  24.495  38.472   6.155
 8922POPC   GL243898  24.387  38.519   6.155
 8922POPC   C1A43899  24.463  38.501   6.455
 8922POPC   D2A43900  24.476  38.434   6.755
 8922POPC   C3A43901  24.495  38.483   7.055
 8922POPC   C4A43902  24.522  38.434   7.355
 8922POPC   C1B43903  24.386  38.657   6.455
 8922POPC   C2B43904  24.394  38.633   6.755
 8922POPC   C3B43905  24.334  38.714   7.055
 8922POPC   C4B43906  24.428  38.721   7.355
 8923POPC   NC343907  24.538  12.123   5.555
 8923POPC   PO443908  24.501  12.031   5.855
 8923POPC   GL143909  24.507  12.039   6.155
 8923POPC   GL243910  24.446  12.186   6.155
 8923POPC   C1A43911  24.523  12.030   6.455
 8923POPC   D2A43912  24.451  12.095   6.755
 8923POPC   C3A43913  24.521  12.121   7.055
 8923POPC   C4A43914  24.499  12.093   7.355
 8923POPC   C1B43915  24.308  12.324   6.455
 8923POPC   C2B43916  24.364  12.294   6.755
 8923POPC   C3B43917  24.345  12.271   7.055
 8923POPC   C4B43918  24.396  12.238   7.355
 8924POPC   NC343919   8.972  10.526   5.555
 8924POPC   PO443920   9.003  10.496   5.855
 8924POPC   GL143921   8.943  10.543   6.155
 8924POPC   GL243922   8.869  10.607   6.155
 8924POPC   C1A43923   8.986  10.543   6.455
 8924POPC   D2A43924   8.946  10.568   6.755
 8924POPC   C3A43925   8.940  10.528   7.055
 8924POPC   C4A43926   8.972  10.547   7.355
 8924POPC   C1B43927   8.768  10.667   6.455
 8924POPC   C2B43928   8.770  10.612   6.755
 8924POPC   C3B43929   8.778  10.601   7.055
 8924POPC   C4B43930   8.791  10.688   7.355
 8925POPC   NC343931  28.393  31.429   5.555
 8925POPC   PO443932  28.395  31.493   5.855
 8925POPC   GL143933  28.403  31.456   6.155
 8925POPC   GL243934  28.490  31.483   6.155
 8925POPC   C1A43935  28.375  31.483   6.455
 8925POPC   D2A43936  28.416  31.449   6.755
 8925POPC   C3A43937  28.371  31.436   7.055
 8925POPC   C4A43938  28.349  31.505   7.355
 8925POPC   C1B43939  28.645  31.538   6.455
 8925POPC   C2B43940  28.574  31.526   6.755
 8925POPC   C3B43941  28.615  31.578   7.055
 8925POPC   C4B43942  28.582  31.592   7.355
 8926POPC   NC343943   5.831  18.304   5.555
 8926POPC   PO443944   5.820  18.271   5.855
 8926POPC   GL143945   5.903  18.315   6.155
 8926POPC   GL243946   5.996  18.259   6.155
 8926POPC   C1A43947   5.869  18.251   6.455
 8926POPC   D2A43948   5.823  18.278   6.755
 8926POPC   C3A43949   5.877  18.242   7.055
 8926POPC   C4A43950   5.855  18.325   7.355
 8926POPC   C1B43951   6.148  18.222   6.455
 8926POPC   C2B43952   6.096  18.176   6.755
 8926POPC   C3B43953   6.139  18.207   7.055
 8926POPC   C4B43954   6.063  18.156   7.355
 8927POPC   NC343955  32.981  30.712   5.555
 8927POPC   PO443956  33.046  30.673   5.855
 8927POPC   GL143957  33.028  30.683   6.155
 8927POPC   GL243958  33.125  30.783   6.155
 8927POPC   C1A43959  33.042  30.723   6.455
 8927POPC   D2A43960  32.979  30.692   6.755
 8927POPC   C3A43961  32.997  30.653   7.055
 8927POPC   C4A43962  33.030  30.710   7.355
 8927POPC   C1B43963  33.150  30.877   6.455
 8927POPC   C2B43964  33.138  30.914   6.755
 8927POPC   C3B43965  33.213  30.872   7.055
 8927POPC   C4B43966  33.133  30.863   7.355
 8928POPC   NC343967  17.463  36.161   5.555
 8928POPC   PO443968  17.487  36.150   5.855
 8928POPC   GL143969  17.529  36.161   6.155
 8928POPC   GL243970  17.489  36.240   6.155
 8928POPC   C1A43971  17.481  36.101   6.455
 8928POPC   D2A43972  17.500  36.139   6.755
 8928POPC   C3A43973  17.494  36.091   7.055
 8928POPC   C4A43974  17.458  36.142   7.355
 8928POPC   C1B43975  17.415  36.347   6.455
 8928POPC   C2B43976  17.398  36.338   6.755
 8928POPC   C3B43977  17.338  36.310   7.055
 8928POPC   C4B43978  17.416  36.303   7.355
 8929POPC   NC343979   0.447  27.578   5.555
 8929POPC   PO443980   0.403  27.592   5.855
 8929POPC   GL143981   0.442  27.552   6.155
 8929POPC   GL243982   0.396  27.443   6.155
 8929POPC   C1A43983   0.434  27.620   6.455
 8929POPC   D2A43984   0.446  27.622   6.755
 8929POPC   C3A43985   0.460  27.633   7.055
 8929POPC   C4A43986   0.471  27.587   7.355
 8929POPC   C1B43987   0.283  27.373   6.455
 8929POPC   C2B43988   0.254  27.385   6.755
 8929POPC   C3B43989   0.292  27.370   7.055
 8929POPC   C4B43990   0.279  27.377   7.355
 8930POPC   NC343991  24.509   7.418   5.555
 8930POPC   PO443992  24.440   7.466   5.855
 8930POPC   GL143993  24.499   7.406   6.155
 8930POPC   GL243994  24.497   7.312   6.155
 8930POPC   C1A43995  24.474   7.456   6.455
 8930POPC   D2A43996  24.451   7.451   6.755
 8930POPC   C3A43997  24.477   7.420   7.055
 8930POPC   C4A43998  24.505   7.457   7.355
 8930POPC   C1B43999  24.374   7.138   6.455
 8930POPC   C2B44000  24.434   7.167   6.755
 8930POPC   C3B44001  24.397   7.154   7.055
 8930POPC   C4B44002  24.433   7.184   7.355
 8931POPC   NC344003   1.226  22.931   5.555
 8931POPC   PO444004   1.205  22.976   5.855
 8931POPC   GL144005   1.241  22.893   6.155
 8931POPC   GL244006   1.134  23.033   6.155
 8931POPC   C1A44007   1.263  22.906   6.455
 8931POPC   D2A44008   1.257  22.918   6.755
 8931POPC   C3A44009   1.244  22.895   7.055
 8931POPC   C4A44010   1.206  22.928   7.355
 8931POPC   C1B44011   1.077  23.144   6.455
 8931POPC   C2B44012   1.085  23.071   6.755
 8931POPC   C3B44013   1.013  23.142   7.055
 8931POPC   C4B44014   1.092  23.125   7.355
 8932POPC   NC344015   1.247  40.005   5.555
 8932POPC   PO444016   1.207  40.013   5.855
 8932POPC   GL144017   1.206  39.988   6.155
 8932POPC   GL244018   1.196  40.114   6.155
 8932POPC   C1A44019   1.215  39.993   6.455
 8932POPC   D2A44020   1.204  40.016   6.755
 8932POPC   C3A44021   1.227  40.048   7.055
 8932POPC   C4A44022   1.243  39.996   7.355
 8932POPC   C1B44023   1.181  40.280   6.455
 8932POPC   C2B44024   1.143  40.293   6.755
 8932POPC   C3B44025   1.109  40.207   7.055
 8932POPC   C4B44026   1.127  40.233   7.355
 8933POPC   NC344027  12.897  42.381   5.555
 8933POPC   PO444028  12.840  42.342   5.855
 8933POPC   GL144029  12.890  42.309   6.155
 8933POPC   GL244030  12.792  42.504   6.155
 8933POPC   C1A44031  12.839  42.338   6.455
 8933POPC   D2A44032  12.843  42.376   6.755
 8933POPC   C3A44033  12.861  42.333   7.055
 8933POPC   C4A44034  12.880  42.288   7.355
 8933POPC   C1B44035  12.746  42.613   6.455
 8933POPC   C2B44036  12.769  42.534   6.755
 8933POPC   C3B44037  12.785  42.547   7.055
 8933POPC   C4B44038  12.820  42.549   7.355
 8934POPC   NC344039  29.170  15.954   5.555
 8934POPC   PO444040  29.162  15.976   5.855
 8934POPC   GL144041  29.144  15.974   6.155
 8934POPC   GL244042  29.240  15.991   6.155
 8934POPC   C1A44043  29.099  15.924   6.455
 8934POPC   D2A44044  29.101  15.961   6.755
 8934POPC   C3A44045  29.150  15.942   7.055
 8934POPC   C4A44046  29.183  15.949   7.355
 8934POPC   C1B44047  29.440  15.892   6.455
 8934POPC   C2B44048  29.349  15.942   6.755
 8934POPC   C3B44049  29.377  15.892   7.055
 8934POPC   C4B44050  29.401  15.885   7.355
 8935POPC   NC344051  15.990  40.762   5.555
 8935POPC   PO444052  15.944  40.818   5.855
 8935POPC   GL144053  15.924  40.772   6.155
 8935POPC   GL244054  15.884  40.676   6.155
 8935POPC   C1A44055  15.977  40.828   6.455
 8935POPC   D2A44056  15.929  40.789   6.755
 8935POPC   C3A44057  15.980  40.812   7.055
 8935POPC   C4A44058  15.976  40.826   7.355
 8935POPC   C1B44059  15.854  40.609   6.455
 8935POPC   C2B44060  15.811  40.610   6.755
 8935POPC   C3B44061  15.853  40.588   7.055
 8935POPC   C4B44062  15.853  40.577   7.355
 8936POPC   NC344063   1.168  37.671   5.555
 8936POPC   PO444064   1.196  37.645   5.855
 8936POPC   GL144065   1.241  37.699   6.155
 8936POPC   GL244066   1.195  37.593   6.155
 8936POPC   C1A44067   1.253  37.664   6.455
 8936POPC   D2A44068   1.263  37.705   6.755
 8936POPC   C3A44069   1.170  37.641   7.055
 8936POPC   C4A44070   1.242  37.691   7.355
 8936POPC   C1B44071   1.154  37.411   6.455
 8936POPC   C2B44072   1.146  37.427   6.755
 8936POPC   C3B44073   1.122  37.436   7.055
 8936POPC   C4B44074   1.106  37.407   7.355
 8937POPC   NC344075  43.097  43.856   5.555
 8937POPC   PO444076  43.101  43.890   5.855
 8937POPC   GL144077  43.155  43.915   6.155
 8937POPC   GL244078  43.067  43.723   6.155
 8937POPC   C1A44079  43.143  43.892   6.455
 8937POPC   D2A44080  43.140  43.918   6.755
 8937POPC   C3A44081  43.148  43.905   7.055
 8937POPC   C4A44082  43.132  43.886   7.355
 8937POPC   C1B44083  43.009  43.646   6.455
 8937POPC   C2B44084  42.990  43.650   6.755
 8937POPC   C3B44085  43.013  43.674   7.055
 8937POPC   C4B44086  42.995  43.628   7.355
 8938POPC   NC344087   4.355   4.342   5.555
 8938POPC   PO444088   4.364   4.310   5.855
 8938POPC   GL144089   4.273   4.316   6.155
 8938POPC   GL244090   4.344   4.434   6.155
 8938POPC   C1A44091   4.315   4.295   6.455
 8938POPC   D2A44092   4.342   4.282   6.755
 8938POPC   C3A44093   4.274   4.347   7.055
 8938POPC   C4A44094   4.296   4.284   7.355
 8938POPC   C1B44095   4.445   4.522   6.455
 8938POPC   C2B44096   4.456   4.580   6.755
 8938POPC   C3B44097   4.411   4.522   7.055
 8938POPC   C4B44098   4.443   4.545   7.355
 8939POPC   NC344099   0.470  22.166   5.555
 8939POPC   PO444100   0.417  22.116   5.855
 8939POPC   GL144101   0.466  22.150   6.155
 8939POPC   GL244102   0.337  22.263   6.155
 8939POPC   C1A44103   0.480  22.117   6.455
 8939POPC   D2A44104   0.478  22.116   6.755
 8939POPC   C3A44105   0.397  22.179   7.055
 8939POPC   C4A44106   0.414  22.144   7.355
 8939POPC   C1B44107   0.310  22.426   6.455
 8939POPC   C2B44108   0.270  22.351   6.755
 8939POPC   C3B44109   0.333  22.404   7.055
 8939POPC   C4B44110   0.333  22.338   7.355
 8940POPC   NC344111  43.894  26.007   5.555
 8940POPC   PO444112  43.911  26.024   5.855
 8940POPC   GL144113  43.926  26.075   6.155
 8940POPC   GL244114  44.023  26.039   6.155
 8940POPC   C1A44115  43.912  26.002   6.455
 8940POPC   D2A44116  43.913  26.054   6.755
 8940POPC   C3A44117  43.910  26.060   7.055
 8940POPC   C4A44118  43.857  26.014   7.355
 8940POPC   C1B44119  44.175  26.046   6.455
 8940POPC   C2B44120  44.165  26.019   6.755
 8940POPC   C3B44121  44.106  26.088   7.055
 8940POPC   C4B44122  44.129  26.088   7.355
 8941POPC   NC344123  44.673  39.993   5.555
 8941POPC   PO444124  44.712  40.031   5.855
 8941POPC   GL144125  44.623  40.051   6.155
 8941POPC   GL244126  44.652  40.110   6.155
 8941POPC   C1A44127  44.637  40.020   6.455
 8941POPC   D2A44128  44.690  40.000   6.755
 8941POPC   C3A44129  44.694  40.020   7.055
 8941POPC   C4A44130  44.708  40.037   7.355
 8941POPC   C1B44131  44.714  40.275   6.455
 8941POPC   C2B44132  44.704  40.217   6.755
 8941POPC   C3B44133  44.677  40.251   7.055
 8941POPC   C4B44134  44.661  40.263   7.355
 8942POPC   NC344135  35.381  38.504   5.555
 8942POPC   PO444136  35.357  38.503   5.855
 8942POPC   GL144137  35.393  38.435   6.155
 8942POPC   GL244138  35.276  38.563   6.155
 8942POPC   C1A44139  35.308  38.425   6.455
 8942POPC   D2A44140  35.326  38.478   6.755
 8942POPC   C3A44141  35.319  38.435   7.055
 8942POPC   C4A44142  35.358  38.487   7.355
 8942POPC   C1B44143  35.228  38.710   6.455
 8942POPC   C2B44144  35.210  38.654   6.755
 8942POPC   C3B44145  35.270  38.705   7.055
 8942POPC   C4B44146  35.235  38.688   7.355
 8943POPC   NC344147  43.141  43.092   5.555
 8943POPC   PO444148  43.120  43.130   5.855
 8943POPC   GL144149  43.086  43.075   6.155
 8943POPC   GL244150  43.012  43.209   6.155
 8943POPC   C1A44151  43.118  43.098   6.455
 8943POPC   D2A44152  43.141  43.144   6.755
 8943POPC   C3A44153  43.077  43.110   7.055
 8943POPC   C4A44154  43.124  43.126   7.355
 8943POPC   C1B44155  42.986  43.292   6.455
 8943POPC   C2B44156  42.965  43.274   6.755
 8943POPC   C3B44157  43.007  43.313   7.055
 8943POPC   C4B44158  43.012  43.370   7.355
 8944POPC   NC344159  14.380  20.654   5.555
 8944POPC   PO444160  14.405  20.586   5.855
 8944POPC   GL144161  14.365  20.626   6.155
 8944POPC   GL244162  14.451  20.722   6.155
 8944POPC   C1A44163  14.358  20.570   6.455
 8944POPC   D2A44164  14.438  20.619   6.755
 8944POPC   C3A44165  14.355  20.582   7.055
 8944POPC   C4A44166  14.393  20.594   7.355
 8944POPC   C1B44167  14.536  20.792   6.455
 8944POPC   C2B44168  14.502  20.824   6.755
 8944POPC   C3B44169  14.479  20.810   7.055
 8944POPC   C4B44170  14.495  20.835   7.355
 8945POPC   NC344171  12.109  40.778   5.555
 8945POPC   PO444172  12.072  40.771   5.855
 8945POPC   GL144173  12.045  40.750   6.155
 8945POPC   GL244174  11.967  40.856   6.155
 8945POPC   C1A44175  12.050  40.749   6.455
 8945POPC   D2A44176  12.088  40.789   6.755
 8945POPC   C3A44177  12.108  40.810   7.055
 8945POPC   C4A44178  12.111  40.830   7.355
 8945POPC   C1B44179  11.866  40.949   6.455
 8945POPC   C2B44180  11.919  40.975   6.755
 8945POPC   C3B44181  11.860  40.967   7.055
 8945POPC   C4B44182  11.925  40.914   7.355
 8946POPC   NC344183   3.565  30.732   5.555
 8946POPC   PO444184   3.513  30.652   5.855
 8946POPC   GL144185   3.523  30.674   6.155
 8946POPC   GL244186   3.429  30.623   6.155
 8946POPC   C1A44187   3.496  30.655   6.455
 8946POPC   D2A44188   3.589  30.696   6.755
 8946POPC   C3A44189   3.568  30.654   7.055
 8946POPC   C4A44190   3.567  30.713   7.355
 8946POPC   C1B44191   3.387  30.580   6.455
 8946POPC   C2B44192   3.376  30.500   6.755
 8946POPC   C3B44193   3.322  30.550   7.055
 8946POPC   C4B44194   3.375  30.580   7.355
 8947POPC   NC344195  37.673  17.464   5.555
 8947POPC   PO444196  37.656  17.483   5.855
 8947POPC   GL144197  37.715  17.480   6.155
 8947POPC   GL244198  37.831  17.601   6.155
 8947POPC   C1A44199  37.652  17.535   6.455
 8947POPC   D2A44200  37.714  17.502   6.755
 8947POPC   C3A44201  37.692  17.522   7.055
 8947POPC   C4A44202  37.716  17.458   7.355
 8947POPC   C1B44203  37.919  17.593   6.455
 8947POPC   C2B44204  37.895  17.663   6.755
 8947POPC   C3B44205  37.869  17.617   7.055
 8947POPC   C4B44206  37.919  17.613   7.355
 8948POPC   NC344207  22.169  29.187   5.555
 8948POPC   PO444208  22.191  29.111   5.855
 8948POPC   GL144209  22.136  29.118   6.155
 8948POPC   GL244210  22.135  29.214   6.155
 8948POPC   C1A44211  22.113  29.144   6.455
 8948POPC   D2A44212  22.135  29.184   6.755
 8948POPC   C3A44213  22.140  29.138   7.055
 8948POPC   C4A44214  22.163  29.121   7.355
 8948POPC   C1B44215  21.986  29.378   6.455
 8948POPC   C2B44216  22.035  29.365   6.755
 8948POPC   C3B44217  22.013  29.362   7.055
 8948POPC   C4B44218  21.971  29.306   7.355
 8949POPC   NC344219  12.069  36.854   5.555
 8949POPC   PO444220  12.063  36.899   5.855
 8949POPC   GL144221  12.123  36.919   6.155
 8949POPC   GL244222  12.055  36.820   6.155
 8949POPC   C1A44223  12.103  36.919   6.455
 8949POPC   D2A44224  12.053  36.877   6.755
 8949POPC   C3A44225  12.121  36.896   7.055
 8949POPC   C4A44226  12.115  36.886   7.355
 8949POPC   C1B44227  12.054  36.642   6.455
 8949POPC   C2B44228  12.078  36.622   6.755
 8949POPC   C3B44229  12.082  36.664   7.055
 8949POPC   C4B44230  11.993  36.674   7.355
 8950POPC   NC344231  40.739  27.607   5.555
 8950POPC   PO444232  40.793  27.598   5.855
 8950POPC   GL144233  40.822  27.590   6.155
 8950POPC   GL244234  40.652  27.697   6.155
 8950POPC   C1A44235  40.749  27.569   6.455
 8950POPC   D2A44236  40.743  27.580   6.755
 8950POPC   C3A44237  40.759  27.599   7.055
 8950POPC   C4A44238  40.751  27.629   7.355
 8950POPC   C1B44239  40.569  27.738   6.455
 8950POPC   C2B44240  40.624  27.761   6.755
 8950POPC   C3B44241  40.571  27.774   7.055
 8950POPC   C4B44242  40.571  27.791   7.355
 8951POPC   NC344243  26.848  15.130   5.555
 8951POPC   PO444244  26.782  15.154   5.855
 8951POPC   GL144245  26.792  15.212   6.155
 8951POPC   GL244246  26.976  15.259   6.155
 8951POPC   C1A44247  26.768  15.194   6.455
 8951POPC   D2A44248  26.848  15.227   6.755
 8951POPC   C3A44249  26.838  15.133   7.055
 8951POPC   C4A44250  26.824  15.227   7.355
 8951POPC   C1B44251  27.065  15.282   6.455
 8951POPC   C2B44252  27.065  15.251   6.755
 8951POPC   C3B44253  26.992  15.242   7.055
 8951POPC   C4B44254  27.091  15.276   7.355
 8952POPC   NC344255  43.093   1.223   5.555
 8952POPC   PO444256  43.118   1.244   5.855
 8952POPC   GL144257  43.091   1.209   6.155
 8952POPC   GL244258  43.030   1.242   6.155
 8952POPC   C1A44259  43.111   1.237   6.455
 8952POPC   D2A44260  43.150   1.195   6.755
 8952POPC   C3A44261  43.079   1.173   7.055
 8952POPC   C4A44262  43.090   1.238   7.355
 8952POPC   C1B44263  42.919   1.309   6.455
 8952POPC   C2B44264  42.901   1.337   6.755
 8952POPC   C3B44265  42.938   1.321   7.055
 8952POPC   C4B44266  42.953   1.401   7.355
 8953POPC   NC344267  36.104  15.158   5.555
 8953POPC   PO444268  36.092  15.147   5.855
 8953POPC   GL144269  36.119  15.133   6.155
 8953POPC   GL244270  36.076  15.317   6.155
 8953POPC   C1A44271  36.139  15.151   6.455
 8953POPC   D2A44272  36.176  15.209   6.755
 8953POPC   C3A44273  36.129  15.152   7.055
 8953POPC   C4A44274  36.131  15.209   7.355
 8953POPC   C1B44275  35.913  15.324   6.455
 8953POPC   C2B44276  35.947  15.383   6.755
 8953POPC   C3B44277  35.960  15.371   7.055
 8953POPC   C4B44278  35.978  15.348   7.355
 8954POPC   NC344279  26.801  43.893   5.555
 8954POPC   PO444280  26.805  43.864   5.855
 8954POPC   GL144281  26.830  43.878   6.155
 8954POPC   GL244282  26.831  43.992   6.155
 8954POPC   C1A44283  26.853  43.913   6.455
 8954POPC   D2A44284  26.798  43.840   6.755
 8954POPC   C3A44285  26.785  43.842   7.055
 8954POPC   C4A44286  26.787  43.914   7.355
 8954POPC   C1B44287  26.935  44.160   6.455
 8954POPC   C2B44288  26.880  44.152   6.755
 8954POPC   C3B44289  26.928  44.142   7.055
 8954POPC   C4B44290  26.896  44.132   7.355
 8955POPC   NC344291  20.650  32.219   5.555
 8955POPC   PO444292  20.582  32.273   5.855
 8955POPC   GL144293  20.568  32.227   6.155
 8955POPC   GL244294  20.465  32.330   6.155
 8955POPC   C1A44295  20.593  32.240   6.455
 8955POPC   D2A44296  20.605  32.273   6.755
 8955POPC   C3A44297  20.655  32.255   7.055
 8955POPC   C4A44298  20.584  32.213   7.355
 8955POPC   C1B44299  20.393  32.316   6.455
 8955POPC   C2B44300  20.433  32.317   6.755
 8955POPC   C3B44301  20.341  32.395   7.055
 8955POPC   C4B44302  20.414  32.362   7.355
 8956POPC   NC344303   2.763  42.348   5.555
 8956POPC   PO444304   2.721  42.356   5.855
 8956POPC   GL144305   2.812  42.355   6.155
 8956POPC   GL244306   2.812  42.483   6.155
 8956POPC   C1A44307   2.805  42.378   6.455
 8956POPC   D2A44308   2.751  42.329   6.755
 8956POPC   C3A44309   2.725  42.321   7.055
 8956POPC   C4A44310   2.766  42.353   7.355
 8956POPC   C1B44311   2.790  42.614   6.455
 8956POPC   C2B44312   2.754  42.570   6.755
 8956POPC   C3B44313   2.765  42.562   7.055
 8956POPC   C4B44314   2.744  42.580   7.355
 8957POPC   NC344315  33.039  25.234   5.555
 8957POPC   PO444316  33.053  25.263   5.855
 8957POPC   GL144317  33.032  25.234   6.155
 8957POPC   GL244318  32.940  25.250   6.155
 8957POPC   C1A44319  33.067  25.279   6.455
 8957POPC   D2A44320  33.069  25.305   6.755
 8957POPC   C3A44321  33.009  25.308   7.055
 8957POPC   C4A44322  33.052  25.299   7.355
 8957POPC   C1B44323  32.825  25.127   6.455
 8957POPC   C2B44324  32.800  25.158   6.755
 8957POPC   C3B44325  32.768  25.138   7.055
 8957POPC   C4B44326  32.750  25.115   7.355
 8958POPC   NC344327  39.245   9.700   5.555
 8958POPC   PO444328  39.191   9.707   5.855
 8958POPC   GL144329  39.242   9.713   6.155
 8958POPC   GL244330  39.260   9.637   6.155
 8958POPC   C1A44331  39.194   9.770   6.455
 8958POPC   D2A44332  39.259   9.736   6.755
 8958POPC   C3A44333  39.197   9.723   7.055
 8958POPC   C4A44334  39.230   9.772   7.355
 8958POPC   C1B44335  39.318   9.485   6.455
 8958POPC   C2B44336  39.302   9.519   6.755
 8958POPC   C3B44337  39.280   9.469   7.055
 8958POPC   C4B44338  39.264   9.532   7.355
 8959POPC   NC344339  26.049   5.047   5.555
 8959POPC   PO444340  26.030   5.123   5.855
 8959POPC   GL144341  26.062   5.113   6.155
 8959POPC   GL244342  25.931   5.231   6.155
 8959POPC   C1A44343  26.007   5.057   6.455
 8959POPC   D2A44344  26.045   5.105   6.755
 8959POPC   C3A44345  26.086   5.051   7.055
 8959POPC   C4A44346  26.083   5.078   7.355
 8959POPC   C1B44347  25.845   5.279   6.455
 8959POPC   C2B44348  25.875   5.245   6.755
 8959POPC   C3B44349  25.914   5.286   7.055
 8959POPC   C4B44350  25.874   5.260   7.355
 8960POPC   NC344351   8.198  29.118   5.555
 8960POPC   PO444352   8.203  29.120   5.855
 8960POPC   GL144353   8.202  29.099   6.155
 8960POPC   GL244354   8.351  29.119   6.155
 8960POPC   C1A44355   8.232  29.186   6.455
 8960POPC   D2A44356   8.224  29.117   6.755
 8960POPC   C3A44357   8.166  29.102   7.055
 8960POPC   C4A44358   8.210  29.135   7.355
 8960POPC   C1B44359   8.425  29.153   6.455
 8960POPC   C2B44360   8.436  29.189   6.755
 8960POPC   C3B44361   8.451  29.204   7.055
 8960POPC   C4B44362   8.451  29.132   7.355
 8961POPC   NC344363   0.408  39.981   5.555
 8961POPC   PO444364   0.472  39.968   5.855
 8961POPC   GL144365   0.429  40.050   6.155
 8961POPC   GL244366   0.267  39.958   6.155
 8961POPC   C1A44367   0.486  40.050   6.455
 8961POPC   D2A44368   0.484  39.990   6.755
 8961POPC   C3A44369   0.481  40.021   7.055
 8961POPC   C4A44370   0.391  40.002   7.355
 8961POPC   C1B44371   0.153  40.013   6.455
 8961POPC   C2B44372   0.173  39.975   6.755
 8961POPC   C3B44373   0.193  39.983   7.055
 8961POPC   C4B44374   0.146  39.928   7.355
 8962POPC   NC344375   0.470  19.080   5.555
 8962POPC   PO444376   0.421  19.104   5.855
 8962POPC   GL144377   0.433  19.101   6.155
 8962POPC   GL244378   0.481  19.187   6.155
 8962POPC   C1A44379   0.457  19.054   6.455
 8962POPC   D2A44380   0.420  19.103   6.755
 8962POPC   C3A44381   0.468  19.017   7.055
 8962POPC   C4A44382   0.399  19.009   7.355
 8962POPC   C1B44383   0.547  19.304   6.455
 8962POPC   C2B44384   0.544  19.305   6.755
 8962POPC   C3B44385   0.606  19.301   7.055
 8962POPC   C4B44386   0.613  19.314   7.355
 8963POPC   NC344387   0.413  28.402   5.555
 8963POPC   PO444388   0.466  28.411   5.855
 8963POPC   GL144389   0.407  28.328   6.155
 8963POPC   GL244390   0.347  28.487   6.155
 8963POPC   C1A44391   0.396  28.394   6.455
 8963POPC   D2A44392   0.432  28.372   6.755
 8963POPC   C3A44393   0.481  28.384   7.055
 8963POPC   C4A44394   0.464  28.409   7.355
 8963POPC   C1B44395   0.339  28.565   6.455
 8963POPC   C2B44396   0.351  28.602   6.755
 8963POPC   C3B44397   0.359  28.637   7.055
 8963POPC   C4B44398   0.365  28.647   7.355
 8964POPC   NC344399  41.528   2.019   5.555
 8964POPC   PO444400  41.513   2.018   5.855
 8964POPC   GL144401  41.605   1.942   6.155
 8964POPC   GL244402  41.553   1.831   6.155
 8964POPC   C1A44403  41.599   1.957   6.455
 8964POPC   D2A44404  41.557   1.985   6.755
 8964POPC   C3A44405  41.573   1.943   7.055
 8964POPC   C4A44406  41.525   1.955   7.355
 8964POPC   C1B44407  41.527   1.709   6.455
 8964POPC   C2B44408  41.546   1.769   6.755
 8964POPC   C3B44409  41.540   1.783   7.055
 8964POPC   C4B44410  41.568   1.757   7.355
 8965POPC   NC344411  43.913  29.096   5.555
 8965POPC   PO444412  43.928  29.178   5.855
 8965POPC   GL144413  43.889  29.174   6.155
 8965POPC   GL244414  43.771  29.069   6.155
 8965POPC   C1A44415  43.860  29.123   6.455
 8965POPC   D2A44416  43.863  29.132   6.755
 8965POPC   C3A44417  43.909  29.105   7.055
 8965POPC   C4A44418  43.906  29.141   7.355
 8965POPC   C1B44419  43.697  28.996   6.455
 8965POPC   C2B44420  43.746  28.919   6.755
 8965POPC   C3B44421  43.762  28.916   7.055
 8965POPC   C4B44422  43.742  28.931   7.355
 8966POPC   NC344423  33.018   3.569   5.555
 8966POPC   PO444424  32.989   3.587   5.855
 8966POPC   GL144425  33.032   3.545   6.155
 8966POPC   GL244426  33.008   3.383   6.155
 8966POPC   C1A44427  33.030   3.536   6.455
 8966POPC   D2A44428  33.026   3.511   6.755
 8966POPC   C3A44429  33.060   3.581   7.055
 8966POPC   C4A44430  33.038   3.518   7.355
 8966POPC   C1B44431  32.968   3.266   6.455
 8966POPC   C2B44432  33.022   3.323   6.755
 8966POPC   C3B44433  32.980   3.275   7.055
 8966POPC   C4B44434  32.984   3.294   7.355
 8967POPC   NC344435  43.102  27.608   5.555
 8967POPC   PO444436  43.149  27.624   5.855
 8967POPC   GL144437  43.103  27.639   6.155
 8967POPC   GL244438  43.011  27.533   6.155
 8967POPC   C1A44439  43.064  27.561   6.455
 8967POPC   D2A44440  43.145  27.558   6.755
 8967POPC   C3A44441  43.075  27.609   7.055
 8967POPC   C4A44442  43.147  27.641   7.355
 8967POPC   C1B44443  42.951  27.408   6.455
 8967POPC   C2B44444  42.982  27.386   6.755
 8967POPC   C3B44445  42.995  27.435   7.055
 8967POPC   C4B44446  42.927  27.422   7.355
 8968POPC   NC344447  29.884  30.682   5.555
 8968POPC   PO444448  29.898  30.650   5.855
 8968POPC   GL144449  29.964  30.730   6.155
 8968POPC   GL244450  30.002  30.644   6.155
 8968POPC   C1A44451  29.905  30.689   6.455
 8968POPC   D2A44452  29.934  30.717   6.755
 8968POPC   C3A44453  29.905  30.735   7.055
 8968POPC   C4A44454  29.927  30.673   7.355
 8968POPC   C1B44455  30.154  30.560   6.455
 8968POPC   C2B44456  30.122  30.502   6.755
 8968POPC   C3B44457  30.088  30.527   7.055
 8968POPC   C4B44458  30.132  30.550   7.355
 8969POPC   NC344459  40.052   0.431   5.555
 8969POPC   PO444460  40.042   0.473   5.855
 8969POPC   GL144461  40.010   0.427   6.155
 8969POPC   GL244462  40.108   0.454   6.155
 8969POPC   C1A44463  40.052   0.458   6.455
 8969POPC   D2A44464  39.959   0.430   6.755
 8969POPC   C3A44465  40.007   0.454   7.055
 8969POPC   C4A44466  40.021   0.453   7.355
 8969POPC   C1B44467  40.301   0.405   6.455
 8969POPC   C2B44468  40.227   0.418   6.755
 8969POPC   C3B44469  40.284   0.413   7.055
 8969POPC   C4B44470  40.243   0.464   7.355
 8970POPC   NC344471  41.554  18.247   5.555
 8970POPC   PO444472  41.549  18.262   5.855
 8970POPC   GL144473  41.573  18.264   6.155
 8970POPC   GL244474  41.414  18.311   6.155
 8970POPC   C1A44475  41.564  18.330   6.455
 8970POPC   D2A44476  41.600  18.258   6.755
 8970POPC   C3A44477  41.560  18.332   7.055
 8970POPC   C4A44478  41.559  18.311   7.355
 8970POPC   C1B44479  41.348  18.328   6.455
 8970POPC   C2B44480  41.359  18.322   6.755
 8970POPC   C3B44481  41.277  18.292   7.055
 8970POPC   C4B44482  41.289  18.302   7.355
 8971POPC   NC344483  10.547  22.170   5.555
 8971POPC   PO444484  10.505  22.210   5.855
 8971POPC   GL144485  10.534  22.185   6.155
 8971POPC   GL244486  10.655  22.046   6.155
 8971POPC   C1A44487  10.531  22.201   6.455
 8971POPC   D2A44488  10.487  22.206   6.755
 8971POPC   C3A44489  10.573  22.192   7.055
 8971POPC   C4A44490  10.534  22.158   7.355
 8971POPC   C1B44491  10.693  22.039   6.455
 8971POPC   C2B44492  10.764  22.006   6.755
 8971POPC   C3B44493  10.719  22.008   7.055
 8971POPC   C4B44494  10.735  21.991   7.355
 8972POPC   NC344495  14.363  22.168   5.555
 8972POPC   PO444496  14.370  22.208   5.855
 8972POPC   GL144497  14.371  22.144   6.155
 8972POPC   GL244498  14.441  21.999   6.155
 8972POPC   C1A44499  14.357  22.161   6.455
 8972POPC   D2A44500  14.397  22.161   6.755
 8972POPC   C3A44501  14.404  22.168   7.055
 8972POPC   C4A44502  14.406  22.152   7.355
 8972POPC   C1B44503  14.414  21.901   6.455
 8972POPC   C2B44504  14.416  21.876   6.755
 8972POPC   C3B44505  14.362  21.959   7.055
 8972POPC   C4B44506  14.419  21.891   7.355
 8973POPC   NC344507  22.143   7.428   5.555
 8973POPC   PO444508  22.143   7.436   5.855
 8973POPC   GL144509  22.172   7.402   6.155
 8973POPC   GL244510  22.182   7.294   6.155
 8973POPC   C1A44511  22.130   7.437   6.455
 8973POPC   D2A44512  22.173   7.388   6.755
 8973POPC   C3A44513  22.169   7.415   7.055
 8973POPC   C4A44514  22.121   7.453   7.355
 8973POPC   C1B44515  22.217   7.186   6.455
 8973POPC   C2B44516  22.149   7.169   6.755
 8973POPC   C3B44517  22.169   7.199   7.055
 8973POPC   C4B44518  22.168   7.198   7.355
 8974POPC   NC344519  15.981   1.239   5.555
 8974POPC   PO444520  15.984   1.224   5.855
 8974POPC   GL144521  15.936   1.180   6.155
 8974POPC   GL244522  15.891   1.122   6.155
 8974POPC   C1A44523  15.993   1.249   6.455
 8974POPC   D2A44524  15.986   1.245   6.755
 8974POPC   C3A44525  15.916   1.258   7.055
 8974POPC   C4A44526  15.972   1.241   7.355
 8974POPC   C1B44527  15.879   1.000   6.455
 8974POPC   C2B44528  15.932   1.005   6.755
 8974POPC   C3B44529  15.933   0.927   7.055
 8974POPC   C4B44530  15.895   0.969   7.355
 8975POPC   NC344531   1.979  27.590   5.555
 8975POPC   PO444532   1.941  27.638   5.855
 8975POPC   GL144533   1.949  27.623   6.155
 8975POPC   GL244534   2.049  27.685   6.155
 8975POPC   C1A44535   1.998  27.581   6.455
 8975POPC   D2A44536   1.968  27.562   6.755
 8975POPC   C3A44537   1.979  27.616   7.055
 8975POPC   C4A44538   1.997  27.559   7.355
 8975POPC   C1B44539   2.056  27.784   6.455
 8975POPC   C2B44540   2.126  27.794   6.755
 8975POPC   C3B44541   2.058  27.807   7.055
 8975POPC   C4B44542   2.114  27.806   7.355
 8976POPC   NC344543  30.738  21.381   5.555
 8976POPC   PO444544  30.696  21.399   5.855
 8976POPC   GL144545  30.743  21.393   6.155
 8976POPC   GL244546  30.733  21.470   6.155
 8976POPC   C1A44547  30.741  21.338   6.455
 8976POPC   D2A44548  30.738  21.355   6.755
 8976POPC   C3A44549  30.707  21.339   7.055
 8976POPC   C4A44550  30.728  21.393   7.355
 8976POPC   C1B44551  30.773  21.665   6.455
 8976POPC   C2B44552  30.777  21.607   6.755
 8976POPC   C3B44553  30.761  21.627   7.055
 8976POPC   C4B44554  30.776  21.569   7.355
 8977POPC   NC344555  25.271  10.571   5.555
 8977POPC   PO444556  25.281  10.572   5.855
 8977POPC   GL144557  25.253  10.493   6.155
 8977POPC   GL244558  25.155  10.545   6.155
 8977POPC   C1A44559  25.274  10.571   6.455
 8977POPC   D2A44560  25.280  10.514   6.755
 8977POPC   C3A44561  25.301  10.551   7.055
 8977POPC   C4A44562  25.252  10.518   7.355
 8977POPC   C1B44563  25.009  10.499   6.455
 8977POPC   C2B44564  25.049  10.482   6.755
 8977POPC   C3B44565  25.063  10.425   7.055
 8977POPC   C4B44566  24.971  10.456   7.355
 8978POPC   NC344567  39.978  14.432   5.555
 8978POPC   PO444568  40.008  14.380   5.855
 8978POPC   GL144569  40.003  14.428   6.155
 8978POPC   GL244570  40.174  14.370   6.155
 8978POPC   C1A44571  40.031  14.426   6.455
 8978POPC   D2A44572  40.010  14.435   6.755
 8978POPC   C3A44573  39.983  14.379   7.055
 8978POPC   C4A44574  40.053  14.367   7.355
 8978POPC   C1B44575  40.283  14.414   6.455
 8978POPC   C2B44576  40.208  14.337   6.755
 8978POPC   C3B44577  40.256  14.407   7.055
 8978POPC   C4B44578  40.304  14.346   7.355
 8979POPC   NC344579  36.165  29.129   5.555
 8979POPC   PO444580  36.164  29.101   5.855
 8979POPC   GL144581  36.149  29.171   6.155
 8979POPC   GL244582  36.049  29.133   6.155
 8979POPC   C1A44583  36.138  29.119   6.455
 8979POPC   D2A44584  36.153  29.165   6.755
 8979POPC   C3A44585  36.109  29.147   7.055
 8979POPC   C4A44586  36.164  29.100   7.355
 8979POPC   C1B44587  35.891  29.096   6.455
 8979POPC   C2B44588  35.895  29.079   6.755
 8979POPC   C3B44589  35.866  29.075   7.055
 8979POPC   C4B44590  35.928  29.010   7.355
 8980POPC   NC344591  44.627  29.920   5.555
 8980POPC   PO444592  44.650  29.898   5.855
 8980POPC   GL144593  44.628  29.927   6.155
 8980POPC   GL244594  44.569  30.020   6.155
 8980POPC   C1A44595  44.621  29.949   6.455
 8980POPC   D2A44596  44.680  29.876   6.755
 8980POPC   C3A44597  44.686  29.923   7.055
 8980POPC   C4A44598  44.672  29.911   7.355
 8980POPC   C1B44599  44.602  30.158   6.455
 8980POPC   C2B44600  44.603  30.133   6.755
 8980POPC   C3B44601  44.570  30.122   7.055
 8980POPC   C4B44602  44.547  30.179   7.355
 8981POPC   NC344603   8.983  30.692   5.555
 8981POPC   PO444604   8.980  30.685   5.855
 8981POPC   GL144605   8.977  30.700   6.155
 8981POPC   GL244606   8.956  30.612   6.155
 8981POPC   C1A44607   8.927  30.699   6.455
 8981POPC   D2A44608   9.002  30.685   6.755
 8981POPC   C3A44609   8.923  30.743   7.055
 8981POPC   C4A44610   9.017  30.657   7.355
 8981POPC   C1B44611   8.867  30.420   6.455
 8981POPC   C2B44612   8.932  30.508   6.755
 8981POPC   C3B44613   8.933  30.415   7.055
 8981POPC   C4B44614   8.882  30.450   7.355
 8982POPC   NC344615  18.255  15.954   5.555
 8982POPC   PO444616  18.289  15.959   5.855
 8982POPC   GL144617  18.306  15.988   6.155
 8982POPC   GL244618  18.208  15.868   6.155
 8982POPC   C1A44619  18.271  15.986   6.455
 8982POPC   D2A44620  18.255  16.004   6.755
 8982POPC   C3A44621  18.246  15.916   7.055
 8982POPC   C4A44622  18.237  15.989   7.355
 8982POPC   C1B44623  18.263  15.739   6.455
 8982POPC   C2B44624  18.190  15.674   6.755
 8982POPC   C3B44625  18.169  15.716   7.055
 8982POPC   C4B44626  18.256  15.699   7.355
 8983POPC   NC344627  27.620  12.034   5.555
 8983POPC   PO444628  27.634  12.082   5.855
 8983POPC   GL144629  27.561  12.068   6.155
 8983POPC   GL244630  27.498  12.144   6.155
 8983POPC   C1A44631  27.601  12.045   6.455
 8983POPC   D2A44632  27.548  12.124   6.755
 8983POPC   C3A44633  27.565  12.122   7.055
 8983POPC   C4A44634  27.581  12.080   7.355
 8983POPC   C1B44635  27.403  12.284   6.455
 8983POPC   C2B44636  27.475  12.247   6.755
 8983POPC   C3B44637  27.401  12.275   7.055
 8983POPC   C4B44638  27.427  12.253   7.355
 8984POPC   NC344639  12.118  19.041   5.555
 8984POPC   PO444640  12.086  19.034   5.855
 8984POPC   GL144641  12.071  19.058   6.155
 8984POPC   GL244642  11.935  19.117   6.155
 8984POPC   C1A44643  12.063  19.039   6.455
 8984POPC   D2A44644  12.095  19.034   6.755
 8984POPC   C3A44645  12.102  19.076   7.055
 8984POPC   C4A44646  12.110  19.033   7.355
 8984POPC   C1B44647  11.851  19.259   6.455
 8984POPC   C2B44648  11.871  19.182   6.755
 8984POPC   C3B44649  11.877  19.257   7.055
 8984POPC   C4B44650  11.908  19.257   7.355
 8985POPC   NC344651  24.445   8.209   5.555
 8985POPC   PO444652  24.525   8.194   5.855
 8985POPC   GL144653  24.524   8.224   6.155
 8985POPC   GL244654  24.552   8.313   6.155
 8985POPC   C1A44655  24.493   8.224   6.455
 8985POPC   D2A44656  24.512   8.247   6.755
 8985POPC   C3A44657  24.538   8.161   7.055
 8985POPC   C4A44658  24.445   8.173   7.355
 8985POPC   C1B44659  24.661   8.441   6.455
 8985POPC   C2B44660  24.665   8.370   6.755
 8985POPC   C3B44661  24.581   8.448   7.055
 8985POPC   C4B44662  24.631   8.364   7.355
 8986POPC   NC344663  12.105  25.271   5.555
 8986POPC   PO444664  12.123  25.271   5.855
 8986POPC   GL144665  12.067  25.256   6.155
 8986POPC   GL244666  12.128  25.185   6.155
 8986POPC   C1A44667  12.037  25.216   6.455
 8986POPC   D2A44668  12.122  25.281   6.755
 8986POPC   C3A44669  12.064  25.284   7.055
 8986POPC   C4A44670  12.113  25.286   7.355
 8986POPC   C1B44671  12.183  25.011   6.455
 8986POPC   C2B44672  12.139  25.005   6.755
 8986POPC   C3B44673  12.167  25.075   7.055
 8986POPC   C4B44674  12.192  25.004   7.355
 8987POPC   NC344675   5.082  20.616   5.555
 8987POPC   PO444676   5.068  20.655   5.855
 8987POPC   GL144677   5.110  20.601   6.155
 8987POPC   GL244678   5.050  20.732   6.155
 8987POPC   C1A44679   5.110  20.627   6.455
 8987POPC   D2A44680   5.051  20.599   6.755
 8987POPC   C3A44681   5.086  20.644   7.055
 8987POPC   C4A44682   5.110  20.617   7.355
 8987POPC   C1B44683   5.075  20.885   6.455
 8987POPC   C2B44684   5.086  20.885   6.755
 8987POPC   C3B44685   5.088  20.816   7.055
 8987POPC   C4B44686   5.077  20.835   7.355
 8988POPC   NC344687   2.004  41.516   5.555
 8988POPC   PO444688   2.020  41.539   5.855
 8988POPC   GL144689   1.989  41.541   6.155
 8988POPC   GL244690   1.954  41.698   6.155
 8988POPC   C1A44691   2.021  41.593   6.455
 8988POPC   D2A44692   1.998  41.545   6.755
 8988POPC   C3A44693   1.987  41.595   7.055
 8988POPC   C4A44694   2.016  41.532   7.355
 8988POPC   C1B44695   1.895  41.813   6.455
 8988POPC   C2B44696   1.843  41.744   6.755
 8988POPC   C3B44697   1.845  41.735   7.055
 8988POPC   C4B44698   1.845  41.762   7.355
 8989POPC   NC344699  35.330  31.522   5.555
 8989POPC   PO444700  35.357  31.508   5.855
 8989POPC   GL144701  35.371  31.507   6.155
 8989POPC   GL244702  35.318  31.547   6.155
 8989POPC   C1A44703  35.313  31.468   6.455
 8989POPC   D2A44704  35.380  31.434   6.755
 8989POPC   C3A44705  35.366  31.438   7.055
 8989POPC   C4A44706  35.396  31.520   7.355
 8989POPC   C1B44707  35.296  31.713   6.455
 8989POPC   C2B44708  35.307  31.699   6.755
 8989POPC   C3B44709  35.304  31.760   7.055
 8989POPC   C4B44710  35.379  31.725   7.355
 8990POPC   NC344711  12.894  29.115   5.555
 8990POPC   PO444712  12.855  29.172   5.855
 8990POPC   GL144713  12.886  29.135   6.155
 8990POPC   GL244714  12.945  29.100   6.155
 8990POPC   C1A44715  12.824  29.129   6.455
 8990POPC   D2A44716  12.895  29.174   6.755
 8990POPC   C3A44717  12.832  29.158   7.055
 8990POPC   C4A44718  12.854  29.148   7.355
 8990POPC   C1B44719  13.062  29.087   6.455
 8990POPC   C2B44720  13.111  29.126   6.755
 8990POPC   C3B44721  13.079  29.101   7.055
 8990POPC   C4B44722  13.059  29.044   7.355
 8991POPC   NC344723   0.457   1.203   5.555
 8991POPC   PO444724   0.406   1.237   5.855
 8991POPC   GL144725   0.402   1.227   6.155
 8991POPC   GL244726   0.411   1.320   6.155
 8991POPC   C1A44727   0.466   1.205   6.455
 8991POPC   D2A44728   0.461   1.236   6.755
 8991POPC   C3A44729   0.407   1.253   7.055
 8991POPC   C4A44730   0.480   1.201   7.355
 8991POPC   C1B44731   0.385   1.433   6.455
 8991POPC   C2B44732   0.386   1.491   6.755
 8991POPC   C3B44733   0.369   1.432   7.055
 8991POPC   C4B44734   0.355   1.489   7.355
 8992POPC   NC344735  43.853   1.221   5.555
 8992POPC   PO444736  43.885   1.249   5.855
 8992POPC   GL144737  43.884   1.177   6.155
 8992POPC   GL244738  43.944   1.119   6.155
 8992POPC   C1A44739  43.853   1.235   6.455
 8992POPC   D2A44740  43.931   1.173   6.755
 8992POPC   C3A44741  43.887   1.190   7.055
 8992POPC   C4A44742  43.868   1.186   7.355
 8992POPC   C1B44743  44.017   1.023   6.455
 8992POPC   C2B44744  43.959   1.032   6.755
 8992POPC   C3B44745  43.988   0.965   7.055
 8992POPC   C4B44746  43.949   1.027   7.355
 8993POPC   NC344747   6.604  31.435   5.555
 8993POPC   PO444748   6.614  31.457   5.855
 8993POPC   GL144749   6.643  31.499   6.155
 8993POPC   GL244750   6.638  31.308   6.155
 8993POPC   C1A44751   6.626  31.485   6.455
 8993POPC   D2A44752   6.634  31.482   6.755
 8993POPC   C3A44753   6.679  31.507   7.055
 8993POPC   C4A44754   6.673  31.438   7.355
 8993POPC   C1B44755   6.566  31.192   6.455
 8993POPC   C2B44756   6.518  31.203   6.755
 8993POPC   C3B44757   6.504  31.237   7.055
 8993POPC   C4B44758   6.507  31.215   7.355
 8994POPC   NC344759  38.423   9.020   5.555
 8994POPC   PO444760  38.424   8.989   5.855
 8994POPC   GL144761  38.501   9.004   6.155
 8994POPC   GL244762  38.366   9.020   6.155
 8994POPC   C1A44763  38.446   8.934   6.455
 8994POPC   D2A44764  38.480   8.966   6.755
 8994POPC   C3A44765  38.425   8.986   7.055
 8994POPC   C4A44766  38.490   9.008   7.355
 8994POPC   C1B44767  38.178   9.042   6.455
 8994POPC   C2B44768  38.189   9.038   6.755
 8994POPC   C3B44769  38.223   8.978   7.055
 8994POPC   C4B44770  38.200   8.996   7.355
 8995POPC   NC344771  26.806  42.337   5.555
 8995POPC   PO444772  26.812  42.380   5.855
 8995POPC   GL144773  26.844  42.303   6.155
 8995POPC   GL244774  26.760  42.201   6.155
 8995POPC   C1A44775  26.831  42.344   6.455
 8995POPC   D2A44776  26.812  42.381   6.755
 8995POPC   C3A44777  26.834  42.299   7.055
 8995POPC   C4A44778  26.783  42.357   7.355
 8995POPC   C1B44779  26.676  42.063   6.455
 8995POPC   C2B44780  26.755  42.127   6.755
 8995POPC   C3B44781  26.742  42.122   7.055
 8995POPC   C4B44782  26.736  42.114   7.355
 8996POPC   NC344783  18.291  36.160   5.555
 8996POPC   PO444784  18.287  36.125   5.855
 8996POPC   GL144785  18.315  36.112   6.155
 8996POPC   GL244786  18.200  36.168   6.155
 8996POPC   C1A44787  18.318  36.153   6.455
 8996POPC   D2A44788  18.246  36.078   6.755
 8996POPC   C3A44789  18.289  36.163   7.055
 8996POPC   C4A44790  18.245  36.111   7.355
 8996POPC   C1B44791  18.000  36.148   6.455
 8996POPC   C2B44792  18.037  36.221   6.755
 8996POPC   C3B44793  17.993  36.162   7.055
 8996POPC   C4B44794  18.044  36.215   7.355
 8997POPC   NC344795   8.220  28.359   5.555
 8997POPC   PO444796   8.166  28.401   5.855
 8997POPC   GL144797   8.213  28.352   6.155
 8997POPC   GL244798   8.128  28.219   6.155
 8997POPC   C1A44799   8.151  28.383   6.455
 8997POPC   D2A44800   8.151  28.327   6.755
 8997POPC   C3A44801   8.202  28.368   7.055
 8997POPC   C4A44802   8.223  28.401   7.355
 8997POPC   C1B44803   8.111  28.179   6.455
 8997POPC   C2B44804   8.123  28.132   6.755
 8997POPC   C3B44805   8.041  28.127   7.055
 8997POPC   C4B44806   8.136  28.142   7.355
 8998POPC   NC344807  36.932   2.029   5.555
 8998POPC   PO444808  36.949   2.021   5.855
 8998POPC   GL144809  36.935   1.956   6.155
 8998POPC   GL244810  36.911   2.150   6.155
 8998POPC   C1A44811  36.938   1.959   6.455
 8998POPC   D2A44812  36.937   2.010   6.755
 8998POPC   C3A44813  36.903   1.984   7.055
 8998POPC   C4A44814  36.856   1.997   7.355
 8998POPC   C1B44815  36.818   2.189   6.455
 8998POPC   C2B44816  36.791   2.252   6.755
 8998POPC   C3B44817  36.863   2.192   7.055
 8998POPC   C4B44818  36.851   2.257   7.355
 8999POPC   NC344819  39.273  18.322   5.555
 8999POPC   PO444820  39.198  18.267   5.855
 8999POPC   GL144821  39.274  18.298   6.155
 8999POPC   GL244822  39.329  18.369   6.155
 8999POPC   C1A44823  39.212  18.292   6.455
 8999POPC   D2A44824  39.185  18.318   6.755
 8999POPC   C3A44825  39.218  18.305   7.055
 8999POPC   C4A44826  39.274  18.307   7.355
 8999POPC   C1B44827  39.453  18.326   6.455
 8999POPC   C2B44828  39.504  18.339   6.755
 8999POPC   C3B44829  39.500  18.385   7.055
 8999POPC   C4B44830  39.489  18.387   7.355
 9000POPC   NC344831  40.739  24.520   5.555
 9000POPC   PO444832  40.805  24.500   5.855
 9000POPC   GL144833  40.773  24.501   6.155
 9000POPC   GL244834  40.692  24.562   6.155
 9000POPC   C1A44835  40.756  24.500   6.455
 9000POPC   D2A44836  40.788  24.519   6.755
 9000POPC   C3A44837  40.829  24.482   7.055
 9000POPC   C4A44838  40.828  24.500   7.355
 9000POPC   C1B44839  40.596  24.649   6.455
 9000POPC   C2B44840  40.662  24.687   6.755
 9000POPC   C3B44841  40.632  24.691   7.055
 9000POPC   C4B44842  40.569  24.673   7.355
 9001POPC   NC344843  13.587  22.979   5.555
 9001POPC   PO444844  13.646  22.948   5.855
 9001POPC   GL144845  13.631  22.957   6.155
 9001POPC   GL244846  13.514  23.011   6.155
 9001POPC   C1A44847  13.600  22.888   6.455
 9001POPC   D2A44848  13.617  22.938   6.755
 9001POPC   C3A44849  13.619  22.968   7.055
 9001POPC   C4A44850  13.614  22.898   7.355
 9001POPC   C1B44851  13.433  23.075   6.455
 9001POPC   C2B44852  13.410  23.001   6.755
 9001POPC   C3B44853  13.352  23.015   7.055
 9001POPC   C4B44854  13.408  23.059   7.355
 9002POPC   NC344855  20.639   2.729   5.555
 9002POPC   PO444856  20.576   2.744   5.855
 9002POPC   GL144857  20.612   2.809   6.155
 9002POPC   GL244858  20.476   2.721   6.155
 9002POPC   C1A44859  20.613   2.762   6.455
 9002POPC   D2A44860  20.576   2.748   6.755
 9002POPC   C3A44861  20.580   2.760   7.055
 9002POPC   C4A44862  20.573   2.732   7.355
 9002POPC   C1B44863  20.326   2.775   6.455
 9002POPC   C2B44864  20.356   2.794   6.755
 9002POPC   C3B44865  20.408   2.804   7.055
 9002POPC   C4B44866  20.363   2.725   7.355
 9003POPC   NC344867  12.877  36.088   5.555
 9003POPC   PO444868  12.811  36.153   5.855
 9003POPC   GL144869  12.819  36.104   6.155
 9003POPC   GL244870  12.935  35.980   6.155
 9003POPC   C1A44871  12.830  36.131   6.455
 9003POPC   D2A44872  12.818  36.169   6.755
 9003POPC   C3A44873  12.901  36.155   7.055
 9003POPC   C4A44874  12.879  36.157   7.355
 9003POPC   C1B44875  12.913  35.860   6.455
 9003POPC   C2B44876  12.933  35.914   6.755
 9003POPC   C3B44877  12.930  35.849   7.055
 9003POPC   C4B44878  12.938  35.907   7.355
 9004POPC   NC344879  26.088  18.265   5.555
 9004POPC   PO444880  26.056  18.256   5.855
 9004POPC   GL144881  26.002  18.276   6.155
 9004POPC   GL244882  25.884  18.272   6.155
 9004POPC   C1A44883  26.056  18.310   6.455
 9004POPC   D2A44884  26.051  18.280   6.755
 9004POPC   C3A44885  26.056  18.309   7.055
 9004POPC   C4A44886  26.080  18.313   7.355
 9004POPC   C1B44887  25.762  18.188   6.455
 9004POPC   C2B44888  25.851  18.181   6.755
 9004POPC   C3B44889  25.853  18.191   7.055
 9004POPC   C4B44890  25.843  18.227   7.355
 9005POPC   NC344891  23.673  21.424   5.555
 9005POPC   PO444892  23.719  21.391   5.855
 9005POPC   GL144893  23.720  21.370   6.155
 9005POPC   GL244894  23.623  21.492   6.155
 9005POPC   C1A44895  23.737  21.423   6.455
 9005POPC   D2A44896  23.746  21.411   6.755
 9005POPC   C3A44897  23.690  21.364   7.055
 9005POPC   C4A44898  23.682  21.407   7.355
 9005POPC   C1B44899  23.560  21.572   6.455
 9005POPC   C2B44900  23.561  21.641   6.755
 9005POPC   C3B44901  23.531  21.595   7.055
 9005POPC   C4B44902  23.540  21.548   7.355
 9006POPC   NC344903  32.294  36.904   5.555
 9006POPC   PO444904  32.228  36.861   5.855
 9006POPC   GL144905  32.287  36.933   6.155
 9006POPC   GL244906  32.199  36.953   6.155
 9006POPC   C1A44907  32.248  36.949   6.455
 9006POPC   D2A44908  32.281  36.949   6.755
 9006POPC   C3A44909  32.223  36.870   7.055
 9006POPC   C4A44910  32.202  36.883   7.355
 9006POPC   C1B44911  32.055  37.057   6.455
 9006POPC   C2B44912  32.098  37.081   6.755
 9006POPC   C3B44913  32.072  37.103   7.055
 9006POPC   C4B44914  32.037  37.102   7.355
 9007POPC   NC344915   9.767  22.203   5.555
 9007POPC   PO444916   9.734  22.183   5.855
 9007POPC   GL144917   9.747  22.163   6.155
 9007POPC   GL244918   9.839  22.301   6.155
 9007POPC   C1A44919   9.792  22.136   6.455
 9007POPC   D2A44920   9.710  22.145   6.755
 9007POPC   C3A44921   9.798  22.142   7.055
 9007POPC   C4A44922   9.743  22.145   7.355
 9007POPC   C1B44923   9.878  22.396   6.455
 9007POPC   C2B44924   9.865  22.381   6.755
 9007POPC   C3B44925   9.866  22.433   7.055
 9007POPC   C4B44926   9.853  22.357   7.355
 9008POPC   NC344927  20.650  12.807   5.555
 9008POPC   PO444928  20.606  12.820   5.855
 9008POPC   GL144929  20.597  12.863   6.155
 9008POPC   GL244930  20.510  12.750   6.155
 9008POPC   C1A44931  20.651  12.837   6.455
 9008POPC   D2A44932  20.645  12.882   6.755
 9008POPC   C3A44933  20.624  12.844   7.055
 9008POPC   C4A44934  20.562  12.872   7.355
 9008POPC   C1B44935  20.498  12.679   6.455
 9008POPC   C2B44936  20.430  12.685   6.755
 9008POPC   C3B44937  20.511  12.600   7.055
 9008POPC   C4B44938  20.426  12.624   7.355
 9009POPC   NC344939   6.606  33.070   5.555
 9009POPC   PO444940   6.631  32.993   5.855
 9009POPC   GL144941   6.624  33.019   6.155
 9009POPC   GL244942   6.737  32.927   6.155
 9009POPC   C1A44943   6.647  33.010   6.455
 9009POPC   D2A44944   6.688  33.008   6.755
 9009POPC   C3A44945   6.676  33.022   7.055
 9009POPC   C4A44946   6.657  33.002   7.355
 9009POPC   C1B44947   6.779  32.792   6.455
 9009POPC   C2B44948   6.720  32.838   6.755
 9009POPC   C3B44949   6.754  32.812   7.055
 9009POPC   C4B44950   6.781  32.812   7.355
 9010POPC   NC344951  33.822   1.170   5.555
 9010POPC   PO444952  33.848   1.174   5.855
 9010POPC   GL144953  33.830   1.192   6.155
 9010POPC   GL244954  33.756   1.079   6.155
 9010POPC   C1A44955  33.808   1.209   6.455
 9010POPC   D2A44956  33.755   1.189   6.755
 9010POPC   C3A44957  33.766   1.171   7.055
 9010POPC   C4A44958  33.837   1.212   7.355
 9010POPC   C1B44959  33.638   1.049   6.455
 9010POPC   C2B44960  33.639   1.052   6.755
 9010POPC   C3B44961  33.657   1.090   7.055
 9010POPC   C4B44962  33.616   1.070   7.355
 9011POPC   NC344963  29.191  23.700   5.555
 9011POPC   PO444964  29.104  23.764   5.855
 9011POPC   GL144965  29.181  23.728   6.155
 9011POPC   GL244966  29.075  23.660   6.155
 9011POPC   C1A44967  29.179  23.702   6.455
 9011POPC   D2A44968  29.165  23.712   6.755
 9011POPC   C3A44969  29.116  23.707   7.055
 9011POPC   C4A44970  29.121  23.741   7.355
 9011POPC   C1B44971  28.931  23.530   6.455
 9011POPC   C2B44972  28.998  23.528   6.755
 9011POPC   C3B44973  28.968  23.531   7.055
 9011POPC   C4B44974  28.987  23.543   7.355
 9012POPC   NC344975   9.787   6.684   5.555
 9012POPC   PO444976   9.739   6.694   5.855
 9012POPC   GL144977   9.723   6.600   6.155
 9012POPC   GL244978   9.811   6.764   6.155
 9012POPC   C1A44979   9.795   6.686   6.455
 9012POPC   D2A44980   9.721   6.647   6.755
 9012POPC   C3A44981   9.733   6.610   7.055
 9012POPC   C4A44982   9.717   6.688   7.355
 9012POPC   C1B44983   9.840   6.876   6.455
 9012POPC   C2B44984   9.752   6.850   6.755
 9012POPC   C3B44985   9.792   6.880   7.055
 9012POPC   C4B44986   9.765   6.931   7.355
 9013POPC   NC344987  16.726  19.822   5.555
 9013POPC   PO444988  16.725  19.840   5.855
 9013POPC   GL144989  16.715  19.852   6.155
 9013POPC   GL244990  16.761  19.744   6.155
 9013POPC   C1A44991  16.714  19.792   6.455
 9013POPC   D2A44992  16.681  19.841   6.755
 9013POPC   C3A44993  16.684  19.831   7.055
 9013POPC   C4A44994  16.697  19.825   7.355
 9013POPC   C1B44995  16.689  19.633   6.455
 9013POPC   C2B44996  16.719  19.555   6.755
 9013POPC   C3B44997  16.737  19.565   7.055
 9013POPC   C4B44998  16.692  19.606   7.355
 9014POPC   NC344999  35.343   6.669   5.555
 9014POPC   PO445000  35.395   6.644   5.855
 9014POPC   GL145001  35.303   6.638   6.155
 9014POPC   GL245002  35.406   6.578   6.155
 9014POPC   C1A45003  35.389   6.610   6.455
 9014POPC   D2A45004  35.371   6.663   6.755
 9014POPC   C3A45005  35.312   6.609   7.055
 9014POPC   C4A45006  35.374   6.690   7.355
 9014POPC   C1B45007  35.523   6.509   6.455
 9014POPC   C2B45008  35.505   6.480   6.755
 9014POPC   C3B45009  35.546   6.514   7.055
 9014POPC   C4B45010  35.510   6.456   7.355
 9015POPC   NC345011  22.120   8.980   5.555
 9015POPC   PO445012  22.122   8.984   5.855
 9015POPC   GL145013  22.151   8.923   6.155
 9015POPC   GL245014  22.090   9.065   6.155
 9015POPC   C1A45015  22.128   8.976   6.455
 9015POPC   D2A45016  22.136   8.943   6.755
 9015POPC   C3A45017  22.117   8.967   7.055
 9015POPC   C4A45018  22.143   8.935   7.355
 9015POPC   C1B45019  21.960   9.193   6.455
 9015POPC   C2B45020  22.009   9.138   6.755
 9015POPC   C3B45021  22.027   9.124   7.055
 9015POPC   C4B45022  22.051   9.214   7.355
 9016POPC   NC345023  12.868  23.674   5.555
 9016POPC   PO445024  12.824  23.752   5.855
 9016POPC   GL145025  12.872  23.713   6.155
 9016POPC   GL245026  12.740  23.865   6.155
 9016POPC   C1A45027  12.869  23.718   6.455
 9016POPC   D2A45028  12.843  23.667   6.755
 9016POPC   C3A45029  12.803  23.745   7.055
 9016POPC   C4A45030  12.875  23.675   7.355
 9016POPC   C1B45031  12.752  23.967   6.455
 9016POPC   C2B45032  12.706  23.884   6.755
 9016POPC   C3B45033  12.670  23.960   7.055
 9016POPC   C4B45034  12.699  23.961   7.355
 9017POPC   NC345035  25.224  14.402   5.555
 9017POPC   PO445036  25.298  14.356   5.855
 9017POPC   GL145037  25.274  14.410   6.155
 9017POPC   GL245038  25.253  14.498   6.155
 9017POPC   C1A45039  25.277  14.365   6.455
 9017POPC   D2A45040  25.289  14.380   6.755
 9017POPC   C3A45041  25.243  14.357   7.055
 9017POPC   C4A45042  25.282  14.443   7.355
 9017POPC   C1B45043  25.249  14.678   6.455
 9017POPC   C2B45044  25.259  14.676   6.755
 9017POPC   C3B45045  25.226  14.647   7.055
 9017POPC   C4B45046  25.230  14.659   7.355
 9018POPC   NC345047  29.118   7.449   5.555
 9018POPC   PO445048  29.152   7.458   5.855
 9018POPC   GL145049  29.132   7.469   6.155
 9018POPC   GL245050  29.159   7.338   6.155
 9018POPC   C1A45051  29.145   7.395   6.455
 9018POPC   D2A45052  29.178   7.410   6.755
 9018POPC   C3A45053  29.131   7.384   7.055
 9018POPC   C4A45054  29.121   7.414   7.355
 9018POPC   C1B45055  29.070   7.195   6.455
 9018POPC   C2B45056  29.055   7.179   6.755
 9018POPC   C3B45057  29.114   7.141   7.055
 9018POPC   C4B45058  29.044   7.169   7.355
 9019POPC   NC345059  15.153  22.958   5.555
 9019POPC   PO445060  15.184  22.951   5.855
 9019POPC   GL145061  15.222  22.934   6.155
 9019POPC   GL245062  15.183  23.033   6.155
 9019POPC   C1A45063  15.135  22.961   6.455
 9019POPC   D2A45064  15.195  22.950   6.755
 9019POPC   C3A45065  15.151  22.977   7.055
 9019POPC   C4A45066  15.146  22.932   7.355
 9019POPC   C1B45067  15.222  23.183   6.455
 9019POPC   C2B45068  15.202  23.132   6.755
 9019POPC   C3B45069  15.276  23.164   7.055
 9019POPC   C4B45070  15.266  23.207   7.355
 9020POPC   NC345071   2.790  24.520   5.555
 9020POPC   PO445072   2.810  24.524   5.855
 9020POPC   GL145073   2.755  24.468   6.155
 9020POPC   GL245074   2.683  24.585   6.155
 9020POPC   C1A45075   2.778  24.520   6.455
 9020POPC   D2A45076   2.767  24.481   6.755
 9020POPC   C3A45077   2.807  24.499   7.055
 9020POPC   C4A45078   2.775  24.506   7.355
 9020POPC   C1B45079   2.562  24.706   6.455
 9020POPC   C2B45080   2.636  24.694   6.755
 9020POPC   C3B45081   2.606  24.649   7.055
 9020POPC   C4B45082   2.621  24.649   7.355
 9021POPC   NC345083  36.079  19.058   5.555
 9021POPC   PO445084  36.143  19.015   5.855
 9021POPC   GL145085  36.121  19.050   6.155
 9021POPC   GL245086  36.103  18.973   6.155
 9021POPC   C1A45087  36.086  19.107   6.455
 9021POPC   D2A45088  36.175  19.037   6.755
 9021POPC   C3A45089  36.157  19.029   7.055
 9021POPC   C4A45090  36.104  19.097   7.355
 9021POPC   C1B45091  36.134  18.762   6.455
 9021POPC   C2B45092  36.169  18.794   6.755
 9021POPC   C3B45093  36.147  18.764   7.055
 9021POPC   C4B45094  36.142  18.798   7.355
 9022POPC   NC345095   3.546  25.296   5.555
 9022POPC   PO445096   3.509  25.257   5.855
 9022POPC   GL145097   3.585  25.270   6.155
 9022POPC   GL245098   3.494  25.410   6.155
 9022POPC   C1A45099   3.539  25.235   6.455
 9022POPC   D2A45100   3.579  25.281   6.755
 9022POPC   C3A45101   3.518  25.273   7.055
 9022POPC   C4A45102   3.572  25.227   7.355
 9022POPC   C1B45103   3.508  25.525   6.455
 9022POPC   C2B45104   3.563  25.492   6.755
 9022POPC   C3B45105   3.483  25.491   7.055
 9022POPC   C4B45106   3.578  25.554   7.355
 9023POPC   NC345107  40.791   8.967   5.555
 9023POPC   PO445108  40.735   8.973   5.855
 9023POPC   GL145109  40.810   8.974   6.155
 9023POPC   GL245110  40.695   9.087   6.155
 9023POPC   C1A45111  40.831   8.996   6.455
 9023POPC   D2A45112  40.777   8.958   6.755
 9023POPC   C3A45113  40.804   8.950   7.055
 9023POPC   C4A45114  40.769   9.007   7.355
 9023POPC   C1B45115  40.612   9.125   6.455
 9023POPC   C2B45116  40.618   9.081   6.755
 9023POPC   C3B45117  40.551   9.138   7.055
 9023POPC   C4B45118  40.530   9.091   7.355
 9024POPC   NC345119  40.761  28.413   5.555
 9024POPC   PO445120  40.782  28.379   5.855
 9024POPC   GL145121  40.824  28.394   6.155
 9024POPC   GL245122  40.875  28.419   6.155
 9024POPC   C1A45123  40.758  28.388   6.455
 9024POPC   D2A45124  40.786  28.410   6.755
 9024POPC   C3A45125  40.802  28.395   7.055
 9024POPC   C4A45126  40.760  28.338   7.355
 9024POPC   C1B45127  41.018  28.495   6.455
 9024POPC   C2B45128  41.029  28.549   6.755
 9024POPC   C3B45129  40.932  28.471   7.055
 9024POPC   C4B45130  40.943  28.544   7.355
 9025POPC   NC345131  27.552   9.718   5.555
 9025POPC   PO445132  27.638   9.730   5.855
 9025POPC   GL145133  27.621   9.768   6.155
 9025POPC   GL245134  27.670   9.779   6.155
 9025POPC   C1A45135  27.581   9.699   6.455
 9025POPC   D2A45136  27.546   9.763   6.755
 9025POPC   C3A45137  27.574   9.728   7.055
 9025POPC   C4A45138  27.581   9.743   7.355
 9025POPC   C1B45139  27.845   9.778   6.455
 9025POPC   C2B45140  27.889   9.715   6.755
 9025POPC   C3B45141  27.809   9.717   7.055
 9025POPC   C4B45142  27.830   9.746   7.355
 9026POPC   NC345143  29.939  25.300   5.555
 9026POPC   PO445144  29.915  25.309   5.855
 9026POPC   GL145145  29.892  25.315   6.155
 9026POPC   GL245146  29.809  25.227   6.155
 9026POPC   C1A45147  29.924  25.234   6.455
 9026POPC   D2A45148  29.894  25.229   6.755
 9026POPC   C3A45149  29.889  25.276   7.055
 9026POPC   C4A45150  29.957  25.269   7.355
 9026POPC   C1B45151  29.702  25.104   6.455
 9026POPC   C2B45152  29.746  25.176   6.755
 9026POPC   C3B45153  29.741  25.174   7.055
 9026POPC   C4B45154  29.687  25.174   7.355
 9027POPC   NC345155  15.221  38.409   5.555
 9027POPC   PO445156  15.208  38.491   5.855
 9027POPC   GL145157  15.133  38.449   6.155
 9027POPC   GL245158  15.293  38.535   6.155
 9027POPC   C1A45159  15.192  38.472   6.455
 9027POPC   D2A45160  15.163  38.425   6.755
 9027POPC   C3A45161  15.163  38.415   7.055
 9027POPC   C4A45162  15.191  38.413   7.355
 9027POPC   C1B45163  15.351  38.594   6.455
 9027POPC   C2B45164  15.394  38.620   6.755
 9027POPC   C3B45165  15.372  38.675   7.055
 9027POPC   C4B45166  15.384  38.688   7.355
 9028POPC   NC345167   2.789   6.688   5.555
 9028POPC   PO445168   2.788   6.621   5.855
 9028POPC   GL145169   2.769   6.607   6.155
 9028POPC   GL245170   2.727   6.782   6.155
 9028POPC   C1A45171   2.800   6.601   6.455
 9028POPC   D2A45172   2.725   6.641   6.755
 9028POPC   C3A45173   2.732   6.603   7.055
 9028POPC   C4A45174   2.799   6.637   7.355
 9028POPC   C1B45175   2.768   6.874   6.455
 9028POPC   C2B45176   2.752   6.909   6.755
 9028POPC   C3B45177   2.704   6.922   7.055
 9028POPC   C4B45178   2.734   6.860   7.355
 9029POPC   NC345179  43.921  15.217   5.555
 9029POPC   PO445180  43.862  15.201   5.855
 9029POPC   GL145181  43.876  15.201   6.155
 9029POPC   GL245182  43.928  15.091   6.155
 9029POPC   C1A45183  43.848  15.171   6.455
 9029POPC   D2A45184  43.891  15.172   6.755
 9029POPC   C3A45185  43.933  15.140   7.055
 9029POPC   C4A45186  43.852  15.221   7.355
 9029POPC   C1B45187  43.992  14.996   6.455
 9029POPC   C2B45188  43.979  14.913   6.755
 9029POPC   C3B45189  44.038  14.996   7.055
 9029POPC   C4B45190  44.044  14.968   7.355
 9030POPC   NC345191  21.359  44.648   5.555
 9030POPC   PO445192  21.409  44.643   5.855
 9030POPC   GL145193  21.383  44.679   6.155
 9030POPC   GL245194  21.255  44.581   6.155
 9030POPC   C1A45195  21.432  44.640   6.455
 9030POPC   D2A45196  21.344  44.706   6.755
 9030POPC   C3A45197  21.370  44.624   7.055
 9030POPC   C4A45198  21.370  44.674   7.355
 9030POPC   C1B45199  21.113  44.536   6.455
 9030POPC   C2B45200  21.151  44.533   6.755
 9030POPC   C3B45201  21.121  44.526   7.055
 9030POPC   C4B45202  21.199  44.556   7.355
 9031POPC   NC345203   8.209  41.526   5.555
 9031POPC   PO445204   8.155  41.581   5.855
 9031POPC   GL145205   8.176  41.522   6.155
 9031POPC   GL245206   8.294  41.414   6.155
 9031POPC   C1A45207   8.202  41.563   6.455
 9031POPC   D2A45208   8.199  41.588   6.755
 9031POPC   C3A45209   8.153  41.527   7.055
 9031POPC   C4A45210   8.161  41.514   7.355
 9031POPC   C1B45211   8.377  41.361   6.455
 9031POPC   C2B45212   8.324  41.359   6.755
 9031POPC   C3B45213   8.344  41.369   7.055
 9031POPC   C4B45214   8.318  41.334   7.355
 9032POPC   NC345215  35.311  39.189   5.555
 9032POPC   PO445216  35.308  39.228   5.855
 9032POPC   GL145217  35.399  39.202   6.155
 9032POPC   GL245218  35.257  39.332   6.155
 9032POPC   C1A45219  35.353  39.213   6.455
 9032POPC   D2A45220  35.394  39.202   6.755
 9032POPC   C3A45221  35.379  39.231   7.055
 9032POPC   C4A45222  35.304  39.248   7.355
 9032POPC   C1B45223  35.164  39.331   6.455
 9032POPC   C2B45224  35.093  39.311   6.755
 9032POPC   C3B45225  35.129  39.361   7.055
 9032POPC   C4B45226  35.130  39.299   7.355
 9033POPC   NC345227   9.783  27.584   5.555
 9033POPC   PO445228   9.756  27.550   5.855
 9033POPC   GL145229   9.744  27.610   6.155
 9033POPC   GL245230   9.776  27.503   6.155
 9033POPC   C1A45231   9.740  27.549   6.455
 9033POPC   D2A45232   9.725  27.564   6.755
 9033POPC   C3A45233   9.759  27.617   7.055
 9033POPC   C4A45234   9.716  27.592   7.355
 9033POPC   C1B45235   9.750  27.366   6.455
 9033POPC   C2B45236   9.710  27.319   6.755
 9033POPC   C3B45237   9.696  27.296   7.055
 9033POPC   C4B45238   9.702  27.379   7.355
 9034POPC   NC345239  39.256  23.724   5.555
 9034POPC   PO445240  39.187  23.735   5.855
 9034POPC   GL145241  39.242  23.746   6.155
 9034POPC   GL245242  39.219  23.792   6.155
 9034POPC   C1A45243  39.230  23.740   6.455
 9034POPC   D2A45244  39.233  23.698   6.755
 9034POPC   C3A45245  39.266  23.674   7.055
 9034POPC   C4A45246  39.261  23.672   7.355
 9034POPC   C1B45247  39.287  24.009   6.455
 9034POPC   C2B45248  39.307  23.967   6.755
 9034POPC   C3B45249  39.279  23.961   7.055
 9034POPC   C4B45250  39.256  23.992   7.355
 9035POPC   NC345251  24.444   3.570   5.555
 9035POPC   PO445252  24.500   3.495   5.855
 9035POPC   GL145253  24.519   3.564   6.155
 9035POPC   GL245254  24.492   3.625   6.155
 9035POPC   C1A45255  24.513   3.562   6.455
 9035POPC   D2A45256  24.483   3.495   6.755
 9035POPC   C3A45257  24.447   3.506   7.055
 9035POPC   C4A45258  24.497   3.564   7.355
 9035POPC   C1B45259  24.465   3.763   6.455
 9035POPC   C2B45260  24.466   3.750   6.755
 9035POPC   C3B45261  24.539   3.751   7.055
 9035POPC   C4B45262  24.539   3.792   7.355
 9036POPC   NC345263   7.452  11.336   5.555
 9036POPC   PO445264   7.409  11.332   5.855
 9036POPC   GL145265   7.444  11.297   6.155
 9036POPC   GL245266   7.368  11.175   6.155
 9036POPC   C1A45267   7.469  11.325   6.455
 9036POPC   D2A45268   7.440  11.295   6.755
 9036POPC   C3A45269   7.435  11.267   7.055
 9036POPC   C4A45270   7.461  11.337   7.355
 9036POPC   C1B45271   7.402  11.048   6.455
 9036POPC   C2B45272   7.373  11.024   6.755
 9036POPC   C3B45273   7.421  11.033   7.055
 9036POPC   C4B45274   7.323  11.061   7.355
 9037POPC   NC345275   4.308  14.426   5.555
 9037POPC   PO445276   4.295  14.361   5.855
 9037POPC   GL145277   4.284  14.438   6.155
 9037POPC   GL245278   4.423  14.460   6.155
 9037POPC   C1A45279   4.307  14.376   6.455
 9037POPC   D2A45280   4.347  14.406   6.755
 9037POPC   C3A45281   4.319  14.378   7.055
 9037POPC   C4A45282   4.335  14.355   7.355
 9037POPC   C1B45283   4.591  14.543   6.455
 9037POPC   C2B45284   4.532  14.528   6.755
 9037POPC   C3B45285   4.586  14.470   7.055
 9037POPC   C4B45286   4.565  14.493   7.355
 9038POPC   NC345287  24.473   1.244   5.555
 9038POPC   PO445288  24.536   1.237   5.855
 9038POPC   GL145289  24.451   1.164   6.155
 9038POPC   GL245290  24.504   1.076   6.155
 9038POPC   C1A45291  24.515   1.198   6.455
 9038POPC   D2A45292  24.526   1.191   6.755
 9038POPC   C3A45293  24.513   1.250   7.055
 9038POPC   C4A45294  24.479   1.165   7.355
 9038POPC   C1B45295  24.539   0.986   6.455
 9038POPC   C2B45296  24.587   1.000   6.755
 9038POPC   C3B45297  24.612   0.981   7.055
 9038POPC   C4B45298  24.523   0.931   7.355
 9039POPC   NC345299  27.623  17.543   5.555
 9039POPC   PO445300  27.592  17.526   5.855
 9039POPC   GL145301  27.613  17.462   6.155
 9039POPC   GL245302  27.724  17.497   6.155
 9039POPC   C1A45303  27.562  17.546   6.455
 9039POPC   D2A45304  27.626  17.525   6.755
 9039POPC   C3A45305  27.622  17.501   7.055
 9039POPC   C4A45306  27.550  17.526   7.355
 9039POPC   C1B45307  27.822  17.414   6.455
 9039POPC   C2B45308  27.791  17.442   6.755
 9039POPC   C3B45309  27.789  17.441   7.055
 9039POPC   C4B45310  27.779  17.380   7.355
 9040POPC   NC345311  40.743  38.484   5.555
 9040POPC   PO445312  40.800  38.502   5.855
 9040POPC   GL145313  40.738  38.452   6.155
 9040POPC   GL245314  40.743  38.334   6.155
 9040POPC   C1A45315  40.765  38.489   6.455
 9040POPC   D2A45316  40.792  38.425   6.755
 9040POPC   C3A45317  40.766  38.455   7.055
 9040POPC   C4A45318  40.751  38.466   7.355
 9040POPC   C1B45319  40.779  38.185   6.455
 9040POPC   C2B45320  40.818  38.179   6.755
 9040POPC   C3B45321  40.731  38.207   7.055
 9040POPC   C4B45322  40.765  38.253   7.355
 9041POPC   NC345323  27.604   4.282   5.555
 9041POPC   PO445324  27.630   4.331   5.855
 9041POPC   GL145325  27.642   4.331   6.155
 9041POPC   GL245326  27.650   4.257   6.155
 9041POPC   C1A45327  27.627   4.309   6.455
 9041POPC   D2A45328  27.592   4.277   6.755
 9041POPC   C3A45329  27.561   4.326   7.055
 9041POPC   C4A45330  27.568   4.292   7.355
 9041POPC   C1B45331  27.820   4.184   6.455
 9041POPC   C2B45332  27.728   4.095   6.755
 9041POPC   C3B45333  27.753   4.162   7.055
 9041POPC   C4B45334  27.788   4.187   7.355
 9042POPC   NC345335  29.161  42.375   5.555
 9042POPC   PO445336  29.181  42.345   5.855
 9042POPC   GL145337  29.112  42.350   6.155
 9042POPC   GL245338  29.078  42.246   6.155
 9042POPC   C1A45339  29.175  42.327   6.455
 9042POPC   D2A45340  29.134  42.330   6.755
 9042POPC   C3A45341  29.110  42.323   7.055
 9042POPC   C4A45342  29.097  42.292   7.355
 9042POPC   C1B45343  29.061  42.050   6.455
 9042POPC   C2B45344  29.056  42.043   6.755
 9042POPC   C3B45345  29.107  42.073   7.055
 9042POPC   C4B45346  29.093  42.137   7.355
 9043POPC   NC345347   8.235   5.083   5.555
 9043POPC   PO445348   8.229   5.103   5.855
 9043POPC   GL145349   8.207   5.064   6.155
 9043POPC   GL245350   8.329   5.016   6.155
 9043POPC   C1A45351   8.160   5.108   6.455
 9043POPC   D2A45352   8.168   5.068   6.755
 9043POPC   C3A45353   8.185   5.113   7.055
 9043POPC   C4A45354   8.168   5.111   7.355
 9043POPC   C1B45355   8.406   4.900   6.455
 9043POPC   C2B45356   8.388   4.920   6.755
 9043POPC   C3B45357   8.364   4.924   7.055
 9043POPC   C4B45358   8.354   4.968   7.355
 9044POPC   NC345359  44.625   2.758   5.555
 9044POPC   PO445360  44.650   2.813   5.855
 9044POPC   GL145361  44.622   2.756   6.155
 9044POPC   GL245362  44.630   2.681   6.155
 9044POPC   C1A45363  44.644   2.739   6.455
 9044POPC   D2A45364  44.631   2.756   6.755
 9044POPC   C3A45365  44.646   2.762   7.055
 9044POPC   C4A45366  44.636   2.764   7.355
 9044POPC   C1B45367  44.719   2.553   6.455
 9044POPC   C2B45368  44.703   2.526   6.755
 9044POPC   C3B45369  44.670   2.484   7.055
 9044POPC   C4B45370  44.653   2.485   7.355
 9045POPC   NC345371   1.988   1.261   5.555
 9045POPC   PO445372   1.952   1.248   5.855
 9045POPC   GL145373   2.000   1.211   6.155
 9045POPC   GL245374   1.948   1.306   6.155
 9045POPC   C1A45375   1.982   1.232   6.455
 9045POPC   D2A45376   2.008   1.177   6.755
 9045POPC   C3A45377   1.998   1.254   7.055
 9045POPC   C4A45378   1.989   1.230   7.355
 9045POPC   C1B45379   1.922   1.461   6.455
 9045POPC   C2B45380   1.989   1.459   6.755
 9045POPC   C3B45381   1.959   1.485   7.055
 9045POPC   C4B45382   2.001   1.508   7.355
 9046POPC   NC345383  20.650  33.818   5.555
 9046POPC   PO445384  20.645  33.834   5.855
 9046POPC   GL145385  20.592  33.827   6.155
 9046POPC   GL245386  20.551  33.863   6.155
 9046POPC   C1A45387  20.611  33.835   6.455
 9046POPC   D2A45388  20.582  33.809   6.755
 9046POPC   C3A45389  20.582  33.829   7.055
 9046POPC   C4A45390  20.561  33.778   7.355
 9046POPC   C1B45391  20.437  33.995   6.455
 9046POPC   C2B45392  20.499  34.009   6.755
 9046POPC   C3B45393  20.423  33.977   7.055
 9046POPC   C4B45394  20.474  33.995   7.355
 9047POPC   NC345395  26.822  12.110   5.555
 9047POPC   PO445396  26.770  12.068   5.855
 9047POPC   GL145397  26.859  12.105   6.155
 9047POPC   GL245398  26.906  12.194   6.155
 9047POPC   C1A45399  26.857  12.033   6.455
 9047POPC   D2A45400  26.771  12.047   6.755
 9047POPC   C3A45401  26.833  12.101   7.055
 9047POPC   C4A45402  26.807  12.026   7.355
 9047POPC   C1B45403  26.940  12.317   6.455
 9047POPC   C2B45404  26.935  12.263   6.755
 9047POPC   C3B45405  26.981  12.265   7.055
 9047POPC   C4B45406  26.891  12.290   7.355
 9048POPC   NC345407   5.055  39.982   5.555
 9048POPC   PO445408   5.065  39.995   5.855
 9048POPC   GL145409   5.138  40.010   6.155
 9048POPC   GL245410   5.120  39.868   6.155
 9048POPC   C1A45411   5.064  40.048   6.455
 9048POPC   D2A45412   5.055  40.020   6.755
 9048POPC   C3A45413   5.072  40.032   7.055
 9048POPC   C4A45414   5.049  40.008   7.355
 9048POPC   C1B45415   5.237  39.788   6.455
 9048POPC   C2B45416   5.234  39.801   6.755
 9048POPC   C3B45417   5.193  39.787   7.055
 9048POPC   C4B45418   5.247  39.753   7.355
 9049POPC   NC345419  26.083  12.087   5.555
 9049POPC   PO445420  26.006  12.082   5.855
 9049POPC   GL145421  26.052  12.033   6.155
 9049POPC   GL245422  26.162  12.203   6.155
 9049POPC   C1A45423  26.009  12.056   6.455
 9049POPC   D2A45424  26.033  12.039   6.755
 9049POPC   C3A45425  25.998  12.078   7.055
 9049POPC   C4A45426  26.073  12.066   7.355
 9049POPC   C1B45427  26.238  12.222   6.455
 9049POPC   C2B45428  26.247  12.226   6.755
 9049POPC   C3B45429  26.189  12.273   7.055
 9049POPC   C4B45430  26.193  12.196   7.355
 9050POPC   NC345431  14.437  25.243   5.555
 9050POPC   PO445432  14.442  25.302   5.855
 9050POPC   GL145433  14.372  25.280   6.155
 9050POPC   GL245434  14.488  25.169   6.155
 9050POPC   C1A45435  14.450  25.253   6.455
 9050POPC   D2A45436  14.424  25.277   6.755
 9050POPC   C3A45437  14.388  25.287   7.055
 9050POPC   C4A45438  14.410  25.283   7.355
 9050POPC   C1B45439  14.588  25.164   6.455
 9050POPC   C2B45440  14.594  25.185   6.755
 9050POPC   C3B45441  14.642  25.180   7.055
 9050POPC   C4B45442  14.624  25.165   7.355
 9051POPC   NC345443  21.422   4.341   5.555
 9051POPC   PO445444  21.392   4.276   5.855
 9051POPC   GL145445  21.369   4.280   6.155
 9051POPC   GL245446  21.344   4.399   6.155
 9051POPC   C1A45447  21.401   4.294   6.455
 9051POPC   D2A45448  21.408   4.334   6.755
 9051POPC   C3A45449  21.365   4.325   7.055
 9051POPC   C4A45450  21.354   4.351   7.355
 9051POPC   C1B45451  21.276   4.542   6.455
 9051POPC   C2B45452  21.269   4.478   6.755
 9051POPC   C3B45453  21.228   4.553   7.055
 9051POPC   C4B45454  21.217   4.529   7.355
 9052POPC   NC345455   8.205  17.555   5.555
 9052POPC   PO445456   8.171  17.479   5.855
 9052POPC   GL145457   8.220  17.488   6.155
 9052POPC   GL245458   8.234  17.642   6.155
 9052POPC   C1A45459   8.176  17.470   6.455
 9052POPC   D2A45460   8.204  17.488   6.755
 9052POPC   C3A45461   8.177  17.459   7.055
 9052POPC   C4A45462   8.220  17.547   7.355
 9052POPC   C1B45463   8.144  17.754   6.455
 9052POPC   C2B45464   8.220  17.758   6.755
 9052POPC   C3B45465   8.158  17.786   7.055
 9052POPC   C4B45466   8.236  17.728   7.355
 9053POPC   NC345467  15.917  35.363   5.555
 9053POPC   PO445468  15.924  35.350   5.855
 9053POPC   GL145469  15.936  35.326   6.155
 9053POPC   GL245470  16.042  35.332   6.155
 9053POPC   C1A45471  15.913  35.361   6.455
 9053POPC   D2A45472  16.003  35.322   6.755
 9053POPC   C3A45473  15.941  35.390   7.055
 9053POPC   C4A45474  15.986  35.379   7.355
 9053POPC   C1B45475  16.160  35.365   6.455
 9053POPC   C2B45476  16.207  35.330   6.755
 9053POPC   C3B45477  16.158  35.406   7.055
 9053POPC   C4B45478  16.217  35.357   7.355
 9054POPC   NC345479   9.708  20.619   5.555
 9054POPC   PO445480   9.769  20.646   5.855
 9054POPC   GL145481   9.721  20.577   6.155
 9054POPC   GL245482   9.801  20.700   6.155
 9054POPC   C1A45483   9.771  20.578   6.455
 9054POPC   D2A45484   9.719  20.659   6.755
 9054POPC   C3A45485   9.798  20.575   7.055
 9054POPC   C4A45486   9.740  20.635   7.355
 9054POPC   C1B45487   9.856  20.811   6.455
 9054POPC   C2B45488   9.853  20.809   6.755
 9054POPC   C3B45489   9.875  20.879   7.055
 9054POPC   C4B45490   9.885  20.867   7.355
 9055POPC   NC345491  41.540  28.337   5.555
 9055POPC   PO445492  41.542  28.380   5.855
 9055POPC   GL145493  41.527  28.412   6.155
 9055POPC   GL245494  41.475  28.359   6.155
 9055POPC   C1A45495  41.596  28.356   6.455
 9055POPC   D2A45496  41.544  28.353   6.755
 9055POPC   C3A45497  41.601  28.388   7.055
 9055POPC   C4A45498  41.524  28.358   7.355
 9055POPC   C1B45499  41.289  28.329   6.455
 9055POPC   C2B45500  41.262  28.306   6.755
 9055POPC   C3B45501  41.307  28.377   7.055
 9055POPC   C4B45502  41.352  28.331   7.355
 9056POPC   NC345503   4.312  18.310   5.555
 9056POPC   PO445504   4.366  18.266   5.855
 9056POPC   GL145505   4.346  18.264   6.155
 9056POPC   GL245506   4.379  18.131   6.155
 9056POPC   C1A45507   4.283  18.269   6.455
 9056POPC   D2A45508   4.286  18.306   6.755
 9056POPC   C3A45509   4.332  18.298   7.055
 9056POPC   C4A45510   4.343  18.234   7.355
 9056POPC   C1B45511   4.304  18.010   6.455
 9056POPC   C2B45512   4.301  18.003   6.755
 9056POPC   C3B45513   4.347  18.032   7.055
 9056POPC   C4B45514   4.330  18.050   7.355
 9057POPC   NC345515  33.074   2.016   5.555
 9057POPC   PO445516  33.003   1.999   5.855
 9057POPC   GL145517  33.007   1.940   6.155
 9057POPC   GL245518  32.862   1.960   6.155
 9057POPC   C1A45519  33.041   1.942   6.455
 9057POPC   D2A45520  33.071   2.038   6.755
 9057POPC   C3A45521  33.049   2.035   7.055
 9057POPC   C4A45522  33.055   2.032   7.355
 9057POPC   C1B45523  32.805   1.959   6.455
 9057POPC   C2B45524  32.802   1.926   6.755
 9057POPC   C3B45525  32.741   1.981   7.055
 9057POPC   C4B45526  32.816   1.912   7.355
 9058POPC   NC345527  40.013  44.661   5.555
 9058POPC   PO445528  40.012  44.634   5.855
 9058POPC   GL145529  39.971  44.647   6.155
 9058POPC   GL245530  40.115  44.727   6.155
 9058POPC   C1A45531  39.972  44.657   6.455
 9058POPC   D2A45532  39.964  44.674   6.755
 9058POPC   C3A45533  39.967  44.671   7.055
 9058POPC   C4A45534  40.011  44.708   7.355
 9058POPC   C1B45535  40.194  44.698   6.455
 9058POPC   C2B45536  40.274  44.761   6.755
 9058POPC   C3B45537  40.290  44.719   7.055
 9058POPC   C4B45538  40.265  44.731   7.355
 9059POPC   NC345539  38.427  29.165   5.555
 9059POPC   PO445540  38.432  29.134   5.855
 9059POPC   GL145541  38.453  29.114   6.155
 9059POPC   GL245542  38.338  29.070   6.155
 9059POPC   C1A45543  38.498  29.120   6.455
 9059POPC   D2A45544  38.438  29.106   6.755
 9059POPC   C3A45545  38.434  29.168   7.055
 9059POPC   C4A45546  38.438  29.194   7.355
 9059POPC   C1B45547  38.272  28.944   6.455
 9059POPC   C2B45548  38.312  28.914   6.755
 9059POPC   C3B45549  38.343  28.973   7.055
 9059POPC   C4B45550  38.284  28.987   7.355
 9060POPC   NC345551   4.280  27.638   5.555
 9060POPC   PO445552   4.328  27.604   5.855
 9060POPC   GL145553   4.305  27.560   6.155
 9060POPC   GL245554   4.242  27.544   6.155
 9060POPC   C1A45555   4.344  27.546   6.455
 9060POPC   D2A45556   4.301  27.620   6.755
 9060POPC   C3A45557   4.311  27.615   7.055
 9060POPC   C4A45558   4.293  27.599   7.355
 9060POPC   C1B45559   4.080  27.580   6.455
 9060POPC   C2B45560   4.088  27.561   6.755
 9060POPC   C3B45561   4.027  27.582   7.055
 9060POPC   C4B45562   4.043  27.489   7.355
 9061POPC   NC345563   1.167  19.806   5.555
 9061POPC   PO445564   1.243  19.823   5.855
 9061POPC   GL145565   1.243  19.862   6.155
 9061POPC   GL245566   1.124  19.906   6.155
 9061POPC   C1A45567   1.212  19.830   6.455
 9061POPC   D2A45568   1.167  19.790   6.755
 9061POPC   C3A45569   1.248  19.876   7.055
 9061POPC   C4A45570   1.217  19.865   7.355
 9061POPC   C1B45571   1.032  19.957   6.455
 9061POPC   C2B45572   1.012  19.912   6.755
 9061POPC   C3B45573   0.942  19.977   7.055
 9061POPC   C4B45574   1.002  19.973   7.355
 9062POPC   NC345575  19.875  28.403   5.555
 9062POPC   PO445576  19.867  28.327   5.855
 9062POPC   GL145577  19.812  28.397   6.155
 9062POPC   GL245578  19.687  28.388   6.155
 9062POPC   C1A45579  19.855  28.363   6.455
 9062POPC   D2A45580  19.799  28.415   6.755
 9062POPC   C3A45581  19.812  28.354   7.055
 9062POPC   C4A45582  19.825  28.371   7.355
 9062POPC   C1B45583  19.591  28.429   6.455
 9062POPC   C2B45584  19.634  28.464   6.755
 9062POPC   C3B45585  19.607  28.451   7.055
 9062POPC   C4B45586  19.601  28.460   7.355
 9063POPC   NC345587  25.221  37.714   5.555
 9063POPC   PO445588  25.249  37.680   5.855
 9063POPC   GL145589  25.255  37.680   6.155
 9063POPC   GL245590  25.134  37.706   6.155
 9063POPC   C1A45591  25.247  37.724   6.455
 9063POPC   D2A45592  25.265  37.718   6.755
 9063POPC   C3A45593  25.278  37.711   7.055
 9063POPC   C4A45594  25.265  37.693   7.355
 9063POPC   C1B45595  25.074  37.708   6.455
 9063POPC   C2B45596  24.986  37.793   6.755
 9063POPC   C3B45597  25.056  37.750   7.055
 9063POPC   C4B45598  25.046  37.756   7.355
 9064POPC   NC345599  19.851  39.219   5.555
 9064POPC   PO445600  19.842  39.276   5.855
 9064POPC   GL145601  19.823  39.255   6.155
 9064POPC   GL245602  19.987  39.214   6.155
 9064POPC   C1A45603  19.789  39.253   6.455
 9064POPC   D2A45604  19.867  39.188   6.755
 9064POPC   C3A45605  19.870  39.264   7.055
 9064POPC   C4A45606  19.874  39.182   7.355
 9064POPC   C1B45607  20.106  39.072   6.455
 9064POPC   C2B45608  20.027  39.098   6.755
 9064POPC   C3B45609  20.101  39.157   7.055
 9064POPC   C4B45610  20.096  39.138   7.355
 9065POPC   NC345611  31.429  32.254   5.555
 9065POPC   PO445612  31.497  32.201   5.855
 9065POPC   GL145613  31.484  32.275   6.155
 9065POPC   GL245614  31.322  32.225   6.155
 9065POPC   C1A45615  31.496  32.204   6.455
 9065POPC   D2A45616  31.435  32.234   6.755
 9065POPC   C3A45617  31.489  32.282   7.055
 9065POPC   C4A45618  31.512  32.253   7.355
 9065POPC   C1B45619  31.267  32.128   6.455
 9065POPC   C2B45620  31.251  32.122   6.755
 9065POPC   C3B45621  31.222  32.155   7.055
 9065POPC   C4B45622  31.297  32.110   7.355
 9066POPC   NC345623  28.418  13.669   5.555
 9066POPC   PO445624  28.399  13.649   5.855
 9066POPC   GL145625  28.332  13.673   6.155
 9066POPC   GL245626  28.496  13.507   6.155
 9066POPC   C1A45627  28.346  13.665   6.455
 9066POPC   D2A45628  28.350  13.657   6.755
 9066POPC   C3A45629  28.351  13.601   7.055
 9066POPC   C4A45630  28.333  13.630   7.355
 9066POPC   C1B45631  28.587  13.412   6.455
 9066POPC   C2B45632  28.554  13.406   6.755
 9066POPC   C3B45633  28.502  13.469   7.055
 9066POPC   C4B45634  28.513  13.442   7.355
 9067POPC   NC345635  41.591  14.406   5.555
 9067POPC   PO445636  41.535  14.361   5.855
 9067POPC   GL145637  41.534  14.406   6.155
 9067POPC   GL245638  41.509  14.272   6.155
 9067POPC   C1A45639  41.600  14.388   6.455
 9067POPC   D2A45640  41.591  14.427   6.755
 9067POPC   C3A45641  41.543  14.360   7.055
 9067POPC   C4A45642  41.536  14.435   7.355
 9067POPC   C1B45643  41.426  14.175   6.455
 9067POPC   C2B45644  41.380  14.182   6.755
 9067POPC   C3B45645  41.357  14.200   7.055
 9067POPC   C4B45646  41.416  14.207   7.355
 9068POPC   NC345647   8.197  23.678   5.555
 9068POPC   PO445648   8.189  23.700   5.855
 9068POPC   GL145649   8.196  23.724   6.155
 9068POPC   GL245650   8.089  23.648   6.155
 9068POPC   C1A45651   8.157  23.680   6.455
 9068POPC   D2A45652   8.171  23.723   6.755
 9068POPC   C3A45653   8.240  23.762   7.055
 9068POPC   C4A45654   8.169  23.715   7.355
 9068POPC   C1B45655   8.100  23.505   6.455
 9068POPC   C2B45656   8.049  23.510   6.755
 9068POPC   C3B45657   8.067  23.544   7.055
 9068POPC   C4B45658   8.077  23.538   7.355
 9069POPC   NC345659  42.368   8.182   5.555
 9069POPC   PO445660  42.293   8.170   5.855
 9069POPC   GL145661  42.324   8.218   6.155
 9069POPC   GL245662  42.300   8.320   6.155
 9069POPC   C1A45663  42.384   8.234   6.455
 9069POPC   D2A45664  42.379   8.209   6.755
 9069POPC   C3A45665  42.344   8.239   7.055
 9069POPC   C4A45666  42.306   8.218   7.355
 9069POPC   C1B45667  42.185   8.375   6.455
 9069POPC   C2B45668  42.196   8.397   6.755
 9069POPC   C3B45669  42.220   8.382   7.055
 9069POPC   C4B45670  42.172   8.429   7.355
 9070POPC   NC345671  39.983  23.688   5.555
 9070POPC   PO445672  40.021  23.717   5.855
 9070POPC   GL145673  40.047  23.710   6.155
 9070POPC   GL245674  39.898  23.572   6.155
 9070POPC   C1A45675  39.993  23.672   6.455
 9070POPC   D2A45676  40.002  23.683   6.755
 9070POPC   C3A45677  39.974  23.669   7.055
 9070POPC   C4A45678  40.029  23.727   7.355
 9070POPC   C1B45679  39.882  23.532   6.455
 9070POPC   C2B45680  39.842  23.543   6.755
 9070POPC   C3B45681  39.849  23.503   7.055
 9070POPC   C4B45682  39.860  23.528   7.355
 9071POPC   NC345683  18.286  33.063   5.555
 9071POPC   PO445684  18.308  32.997   5.855
 9071POPC   GL145685  18.291  32.994   6.155
 9071POPC   GL245686  18.315  32.881   6.155
 9071POPC   C1A45687  18.244  33.058   6.455
 9071POPC   D2A45688  18.328  32.984   6.755
 9071POPC   C3A45689  18.326  33.057   7.055
 9071POPC   C4A45690  18.240  33.037   7.355
 9071POPC   C1B45691  18.270  32.792   6.455
 9071POPC   C2B45692  18.257  32.793   6.755
 9071POPC   C3B45693  18.336  32.770   7.055
 9071POPC   C4B45694  18.270  32.797   7.355
 9072POPC   NC345695  31.484  28.381   5.555
 9072POPC   PO445696  31.482  28.341   5.855
 9072POPC   GL145697  31.432  28.352   6.155
 9072POPC   GL245698  31.397  28.483   6.155
 9072POPC   C1A45699  31.493  28.401   6.455
 9072POPC   D2A45700  31.459  28.408   6.755
 9072POPC   C3A45701  31.493  28.365   7.055
 9072POPC   C4A45702  31.457  28.321   7.355
 9072POPC   C1B45703  31.319  28.551   6.455
 9072POPC   C2B45704  31.313  28.533   6.755
 9072POPC   C3B45705  31.347  28.568   7.055
 9072POPC   C4B45706  31.309  28.554   7.355
 9073POPC   NC345707  12.062  29.872   5.555
 9073POPC   PO445708  12.050  29.873   5.855
 9073POPC   GL145709  12.046  29.963   6.155
 9073POPC   GL245710  12.111  29.803   6.155
 9073POPC   C1A45711  12.066  29.905   6.455
 9073POPC   D2A45712  12.076  29.890   6.755
 9073POPC   C3A45713  12.120  29.963   7.055
 9073POPC   C4A45714  12.097  29.924   7.355
 9073POPC   C1B45715  12.209  29.677   6.455
 9073POPC   C2B45716  12.133  29.661   6.755
 9073POPC   C3B45717  12.209  29.667   7.055
 9073POPC   C4B45718  12.190  29.730   7.355
 9074POPC   NC345719  31.460   6.638   5.555
 9074POPC   PO445720  31.480   6.606   5.855
 9074POPC   GL145721  31.479   6.629   6.155
 9074POPC   GL245722  31.580   6.514   6.155
 9074POPC   C1A45723  31.516   6.669   6.455
 9074POPC   D2A45724  31.503   6.629   6.755
 9074POPC   C3A45725  31.425   6.614   7.055
 9074POPC   C4A45726  31.516   6.624   7.355
 9074POPC   C1B45727  31.661   6.432   6.455
 9074POPC   C2B45728  31.628   6.476   6.755
 9074POPC   C3B45729  31.630   6.523   7.055
 9074POPC   C4B45730  31.630   6.435   7.355
 9075POPC   NC345731   2.784  25.281   5.555
 9075POPC   PO445732   2.815  25.251   5.855
 9075POPC   GL145733   2.755  25.277   6.155
 9075POPC   GL245734   2.635  25.185   6.155
 9075POPC   C1A45735   2.744  25.250   6.455
 9075POPC   D2A45736   2.727  25.218   6.755
 9075POPC   C3A45737   2.814  25.306   7.055
 9075POPC   C4A45738   2.732  25.291   7.355
 9075POPC   C1B45739   2.602  25.120   6.455
 9075POPC   C2B45740   2.625  25.055   6.755
 9075POPC   C3B45741   2.598  25.063   7.055
 9075POPC   C4B45742   2.540  25.063   7.355
 9076POPC   NC345743  36.949  44.695   5.555
 9076POPC   PO445744  36.867  44.704   5.855
 9076POPC   GL145745  36.885  44.688   6.155
 9076POPC   GL245746  36.989  44.738   6.155
 9076POPC   C1A45747  36.856  44.692   6.455
 9076POPC   D2A45748  36.933  44.673   6.755
 9076POPC   C3A45749  36.953  44.686   7.055
 9076POPC   C4A45750  36.939  44.622   7.355
 9076POPC   C1B45751  37.022  44.834   6.455
 9076POPC   C2B45752  37.083  44.887   6.755
 9076POPC   C3B45753  37.066  44.831   7.055
 9076POPC   C4B45754  37.059  44.814   7.355
 9077POPC   NC345755   7.449  28.376   5.555
 9077POPC   PO445756   7.464  28.331   5.855
 9077POPC   GL145757   7.405  28.331   6.155
 9077POPC   GL245758   7.336  28.431   6.155
 9077POPC   C1A45759   7.465  28.383   6.455
 9077POPC   D2A45760   7.450  28.376   6.755
 9077POPC   C3A45761   7.422  28.404   7.055
 9077POPC   C4A45762   7.392  28.321   7.355
 9077POPC   C1B45763   7.317  28.591   6.455
 9077POPC   C2B45764   7.281  28.562   6.755
 9077POPC   C3B45765   7.292  28.585   7.055
 9077POPC   C4B45766   7.262  28.600   7.355
 9078POPC   NC345767   5.824  44.686   5.555
 9078POPC   PO445768   5.894  44.643   5.855
 9078POPC   GL145769   5.848  44.672   6.155
 9078POPC   GL245770   5.984  44.598   6.155
 9078POPC   C1A45771   5.872  44.699   6.455
 9078POPC   D2A45772   5.820  44.683   6.755
 9078POPC   C3A45773   5.879  44.638   7.055
 9078POPC   C4A45774   5.906  44.619   7.355
 9078POPC   C1B45775   6.015  44.440   6.455
 9078POPC   C2B45776   6.000  44.506   6.755
 9078POPC   C3B45777   6.074  44.435   7.055
 9078POPC   C4B45778   6.042  44.521   7.355
 9079POPC   NC345779  20.581  29.145   5.555
 9079POPC   PO445780  20.659  29.124   5.855
 9079POPC   GL145781  20.575  29.180   6.155
 9079POPC   GL245782  20.507  29.102   6.155
 9079POPC   C1A45783  20.655  29.129   6.455
 9079POPC   D2A45784  20.636  29.131   6.755
 9079POPC   C3A45785  20.625  29.148   7.055
 9079POPC   C4A45786  20.630  29.165   7.355
 9079POPC   C1B45787  20.409  29.110   6.455
 9079POPC   C2B45788  20.344  29.121   6.755
 9079POPC   C3B45789  20.322  29.123   7.055
 9079POPC   C4B45790  20.381  29.129   7.355
 9080POPC   NC345791  40.764   7.450   5.555
 9080POPC   PO445792  40.815   7.371   5.855
 9080POPC   GL145793  40.806   7.414   6.155
 9080POPC   GL245794  40.737   7.499   6.155
 9080POPC   C1A45795  40.821   7.423   6.455
 9080POPC   D2A45796  40.808   7.443   6.755
 9080POPC   C3A45797  40.826   7.449   7.055
 9080POPC   C4A45798  40.782   7.463   7.355
 9080POPC   C1B45799  40.705   7.657   6.455
 9080POPC   C2B45800  40.669   7.622   6.755
 9080POPC   C3B45801  40.693   7.633   7.055
 9080POPC   C4B45802  40.678   7.687   7.355
 9081POPC   NC345803  20.630  36.168   5.555
 9081POPC   PO445804  20.616  36.144   5.855
 9081POPC   GL145805  20.613  36.109   6.155
 9081POPC   GL245806  20.640  36.014   6.155
 9081POPC   C1A45807  20.653  36.132   6.455
 9081POPC   D2A45808  20.650  36.157   6.755
 9081POPC   C3A45809  20.628  36.082   7.055
 9081POPC   C4A45810  20.644  36.107   7.355
 9081POPC   C1B45811  20.694  35.923   6.455
 9081POPC   C2B45812  20.656  35.842   6.755
 9081POPC   C3B45813  20.616  35.857   7.055
 9081POPC   C4B45814  20.607  35.922   7.355
 9082POPC   NC345815  27.577   5.838   5.555
 9082POPC   PO445816  27.572   5.914   5.855
 9082POPC   GL145817  27.568   5.842   6.155
 9082POPC   GL245818  27.657   5.982   6.155
 9082POPC   C1A45819  27.545   5.854   6.455
 9082POPC   D2A45820  27.626   5.879   6.755
 9082POPC   C3A45821  27.552   5.829   7.055
 9082POPC   C4A45822  27.611   5.883   7.355
 9082POPC   C1B45823  27.805   6.013   6.455
 9082POPC   C2B45824  27.782   6.032   6.755
 9082POPC   C3B45825  27.816   6.024   7.055
 9082POPC   C4B45826  27.753   6.090   7.355
 9083POPC   NC345827  39.980  26.846   5.555
 9083POPC   PO445828  39.976  26.790   5.855
 9083POPC   GL145829  40.030  26.777   6.155
 9083POPC   GL245830  39.888  26.890   6.155
 9083POPC   C1A45831  40.002  26.822   6.455
 9083POPC   D2A45832  40.016  26.853   6.755
 9083POPC   C3A45833  39.975  26.813   7.055
 9083POPC   C4A45834  40.034  26.812   7.355
 9083POPC   C1B45835  39.802  26.961   6.455
 9083POPC   C2B45836  39.793  26.926   6.755
 9083POPC   C3B45837  39.802  26.946   7.055
 9083POPC   C4B45838  39.771  27.015   7.355
 9084POPC   NC345839  24.467  30.730   5.555
 9084POPC   PO445840  24.450  30.691   5.855
 9084POPC   GL145841  24.514  30.665   6.155
 9084POPC   GL245842  24.402  30.759   6.155
 9084POPC   C1A45843  24.472  30.732   6.455
 9084POPC   D2A45844  24.472  30.727   6.755
 9084POPC   C3A45845  24.495  30.738   7.055
 9084POPC   C4A45846  24.471  30.735   7.355
 9084POPC   C1B45847  24.224  30.770   6.455
 9084POPC   C2B45848  24.278  30.824   6.755
 9084POPC   C3B45849  24.282  30.763   7.055
 9084POPC   C4B45850  24.236  30.771   7.355
 9085POPC   NC345851   6.625  36.162   5.555
 9085POPC   PO445852   6.599  36.176   5.855
 9085POPC   GL145853   6.622  36.167   6.155
 9085POPC   GL245854   6.536  36.080   6.155
 9085POPC   C1A45855   6.642  36.173   6.455
 9085POPC   D2A45856   6.675  36.116   6.755
 9085POPC   C3A45857   6.614  36.080   7.055
 9085POPC   C4A45858   6.602  36.112   7.355
 9085POPC   C1B45859   6.410  36.098   6.455
 9085POPC   C2B45860   6.360  36.090   6.755
 9085POPC   C3B45861   6.367  36.075   7.055
 9085POPC   C4B45862   6.383  36.095   7.355
 9086POPC   NC345863  21.394  13.660   5.555
 9086POPC   PO445864  21.338  13.667   5.855
 9086POPC   GL145865  21.370  13.596   6.155
 9086POPC   GL245866  21.433  13.725   6.155
 9086POPC   C1A45867  21.428  13.662   6.455
 9086POPC   D2A45868  21.346  13.634   6.755
 9086POPC   C3A45869  21.392  13.620   7.055
 9086POPC   C4A45870  21.341  13.618   7.355
 9086POPC   C1B45871  21.356  13.913   6.455
 9086POPC   C2B45872  21.383  13.903   6.755
 9086POPC   C3B45873  21.384  13.881   7.055
 9086POPC   C4B45874  21.364  13.855   7.355
 9087POPC   NC345875   3.533  23.681   5.555
 9087POPC   PO445876   3.591  23.736   5.855
 9087POPC   GL145877   3.543  23.751   6.155
 9087POPC   GL245878   3.471  23.809   6.155
 9087POPC   C1A45879   3.547  23.707   6.455
 9087POPC   D2A45880   3.506  23.748   6.755
 9087POPC   C3A45881   3.543  23.710   7.055
 9087POPC   C4A45882   3.509  23.733   7.355
 9087POPC   C1B45883   3.504  23.945   6.455
 9087POPC   C2B45884   3.459  24.001   6.755
 9087POPC   C3B45885   3.501  23.935   7.055
 9087POPC   C4B45886   3.469  23.925   7.355
 9088POPC   NC345887  17.484   0.406   5.555
 9088POPC   PO445888  17.479   0.417   5.855
 9088POPC   GL145889  17.517   0.412   6.155
 9088POPC   GL245890  17.415   0.555   6.155
 9088POPC   C1A45891  17.520   0.435   6.455
 9088POPC   D2A45892  17.521   0.436   6.755
 9088POPC   C3A45893  17.459   0.453   7.055
 9088POPC   C4A45894  17.535   0.487   7.355
 9088POPC   C1B45895  17.306   0.657   6.455
 9088POPC   C2B45896  17.290   0.661   6.755
 9088POPC   C3B45897  17.298   0.577   7.055
 9088POPC   C4B45898  17.317   0.619   7.355
 9089POPC   NC345899  15.940   9.755   5.555
 9089POPC   PO445900  15.995   9.790   5.855
 9089POPC   GL145901  15.991   9.707   6.155
 9089POPC   GL245902  16.097   9.704   6.155
 9089POPC   C1A45903  15.932   9.709   6.455
 9089POPC   D2A45904  15.965   9.749   6.755
 9089POPC   C3A45905  15.976   9.704   7.055
 9089POPC   C4A45906  15.945   9.758   7.355
 9089POPC   C1B45907  16.150   9.601   6.455
 9089POPC   C2B45908  16.124   9.615   6.755
 9089POPC   C3B45909  16.127   9.541   7.055
 9089POPC   C4B45910  16.194   9.563   7.355
 9090POPC   NC345911  30.700   8.192   5.555
 9090POPC   PO445912  30.723   8.226   5.855
 9090POPC   GL145913  30.654   8.226   6.155
 9090POPC   GL245914  30.843   8.218   6.155
 9090POPC   C1A45915  30.712   8.222   6.455
 9090POPC   D2A45916  30.694   8.178   6.755
 9090POPC   C3A45917  30.659   8.159   7.055
 9090POPC   C4A45918  30.744   8.210   7.355
 9090POPC   C1B45919  30.923   8.162   6.455
 9090POPC   C2B45920  30.973   8.174   6.755
 9090POPC   C3B45921  30.986   8.177   7.055
 9090POPC   C4B45922  30.941   8.137   7.355
 9091POPC   NC345923  27.583  43.862   5.555
 9091POPC   PO445924  27.641  43.857   5.855
 9091POPC   GL145925  27.570  43.919   6.155
 9091POPC   GL245926  27.570  44.013   6.155
 9091POPC   C1A45927  27.600  43.867   6.455
 9091POPC   D2A45928  27.583  43.904   6.755
 9091POPC   C3A45929  27.559  43.899   7.055
 9091POPC   C4A45930  27.580  43.842   7.355
 9091POPC   C1B45931  27.647  44.107   6.455
 9091POPC   C2B45932  27.593  44.139   6.755
 9091POPC   C3B45933  27.652  44.161   7.055
 9091POPC   C4B45934  27.607  44.179   7.355
 9092POPC   NC345935   3.558  29.961   5.555
 9092POPC   PO445936   3.568  29.946   5.855
 9092POPC   GL145937   3.546  29.890   6.155
 9092POPC   GL245938   3.466  29.893   6.155
 9092POPC   C1A45939   3.518  29.927   6.455
 9092POPC   D2A45940   3.510  29.965   6.755
 9092POPC   C3A45941   3.516  29.911   7.055
 9092POPC   C4A45942   3.545  29.926   7.355
 9092POPC   C1B45943   3.303  29.813   6.455
 9092POPC   C2B45944   3.286  29.842   6.755
 9092POPC   C3B45945   3.326  29.843   7.055
 9092POPC   C4B45946   3.333  29.757   7.355
 9093POPC   NC345947   2.763  36.944   5.555
 9093POPC   PO445948   2.747  36.925   5.855
 9093POPC   GL145949   2.794  36.938   6.155
 9093POPC   GL245950   2.684  36.854   6.155
 9093POPC   C1A45951   2.717  36.875   6.455
 9093POPC   D2A45952   2.737  36.951   6.755
 9093POPC   C3A45953   2.800  36.884   7.055
 9093POPC   C4A45954   2.717  36.893   7.355
 9093POPC   C1B45955   2.562  36.750   6.455
 9093POPC   C2B45956   2.581  36.715   6.755
 9093POPC   C3B45957   2.530  36.742   7.055
 9093POPC   C4B45958   2.618  36.790   7.355
 9094POPC   NC345959  22.932  43.898   5.555
 9094POPC   PO445960  22.956  43.845   5.855
 9094POPC   GL145961  22.957  43.869   6.155
 9094POPC   GL245962  22.876  43.835   6.155
 9094POPC   C1A45963  22.980  43.885   6.455
 9094POPC   D2A45964  22.938  43.883   6.755
 9094POPC   C3A45965  22.960  43.876   7.055
 9094POPC   C4A45966  22.944  43.898   7.355
 9094POPC   C1B45967  22.737  43.790   6.455
 9094POPC   C2B45968  22.720  43.749   6.755
 9094POPC   C3B45969  22.735  43.767   7.055
 9094POPC   C4B45970  22.752  43.783   7.355
 9095POPC   NC345971  38.418  13.645   5.555
 9095POPC   PO445972  38.450  13.600   5.855
 9095POPC   GL145973  38.449  13.620   6.155
 9095POPC   GL245974  38.295  13.566   6.155
 9095POPC   C1A45975  38.427  13.665   6.455
 9095POPC   D2A45976  38.503  13.653   6.755
 9095POPC   C3A45977  38.416  13.640   7.055
 9095POPC   C4A45978  38.474  13.580   7.355
 9095POPC   C1B45979  38.279  13.488   6.455
 9095POPC   C2B45980  38.253  13.465   6.755
 9095POPC   C3B45981  38.237  13.494   7.055
 9095POPC   C4B45982  38.241  13.543   7.355
 9096POPC   NC345983  13.665  18.299   5.555
 9096POPC   PO445984  13.613  18.258   5.855
 9096POPC   GL145985  13.650  18.241   6.155
 9096POPC   GL245986  13.775  18.259   6.155
 9096POPC   C1A45987  13.640  18.329   6.455
 9096POPC   D2A45988  13.667  18.238   6.755
 9096POPC   C3A45989  13.581  18.283   7.055
 9096POPC   C4A45990  13.652  18.294   7.355
 9096POPC   C1B45991  13.845  18.244   6.455
 9096POPC   C2B45992  13.914  18.268   6.755
 9096POPC   C3B45993  13.836  18.221   7.055
 9096POPC   C4B45994  13.856  18.264   7.355
 9097POPC   NC345995  24.511   6.616   5.555
 9097POPC   PO445996  24.510   6.666   5.855
 9097POPC   GL145997  24.499   6.687   6.155
 9097POPC   GL245998  24.553   6.768   6.155
 9097POPC   C1A45999  24.519   6.666   6.455
 9097POPC   D2A46000  24.443   6.602   6.755
 9097POPC   C3A46001  24.539   6.684   7.055
 9097POPC   C4A46002  24.454   6.668   7.355
 9097POPC   C1B46003  24.628   6.884   6.455
 9097POPC   C2B46004  24.614   6.881   6.755
 9097POPC   C3B46005  24.582   6.804   7.055
 9097POPC   C4B46006  24.632   6.841   7.355
 9098POPC   NC346007  39.183  12.869   5.555
 9098POPC   PO446008  39.263  12.868   5.855
 9098POPC   GL146009  39.249  12.838   6.155
 9098POPC   GL246010  39.202  12.697   6.155
 9098POPC   C1A46011  39.192  12.832   6.455
 9098POPC   D2A46012  39.226  12.853   6.755
 9098POPC   C3A46013  39.270  12.823   7.055
 9098POPC   C4A46014  39.276  12.813   7.355
 9098POPC   C1B46015  39.116  12.660   6.455
 9098POPC   C2B46016  39.147  12.569   6.755
 9098POPC   C3B46017  39.113  12.567   7.055
 9098POPC   C4B46018  39.120  12.596   7.355
 9099POPC   NC346019  18.241  38.421   5.555
 9099POPC   PO446020  18.280  38.503   5.855
 9099POPC   GL146021  18.253  38.431   6.155
 9099POPC   GL246022  18.373  38.580   6.155
 9099POPC   C1A46023  18.250  38.441   6.455
 9099POPC   D2A46024  18.243  38.468   6.755
 9099POPC   C3A46025  18.308  38.448   7.055
 9099POPC   C4A46026  18.282  38.498   7.355
 9099POPC   C1B46027  18.449  38.617   6.455
 9099POPC   C2B46028  18.461  38.625   6.755
 9099POPC   C3B46029  18.449  38.616   7.055
 9099POPC   C4B46030  18.383  38.661   7.355
 9100POPC   NC346031  26.776  17.551   5.555
 9100POPC   PO446032  26.786  17.527   5.855
 9100POPC   GL146033  26.778  17.481   6.155
 9100POPC   GL246034  26.663  17.550   6.155
 9100POPC   C1A46035  26.801  17.541   6.455
 9100POPC   D2A46036  26.853  17.553   6.755
 9100POPC   C3A46037  26.779  17.495   7.055
 9100POPC   C4A46038  26.788  17.547   7.355
 9100POPC   C1B46039  26.613  17.525   6.455
 9100POPC   C2B46040  26.595  17.539   6.755
 9100POPC   C3B46041  26.565  17.544   7.055
 9100POPC   C4B46042  26.566  17.505   7.355
 9101POPC   NC346043  28.395  15.946   5.555
 9101POPC   PO446044  28.335  15.983   5.855
 9101POPC   GL146045  28.400  15.931   6.155
 9101POPC   GL246046  28.452  16.013   6.155
 9101POPC   C1A46047  28.337  15.960   6.455
 9101POPC   D2A46048  28.395  15.911   6.755
 9101POPC   C3A46049  28.416  15.988   7.055
 9101POPC   C4A46050  28.344  15.966   7.355
 9101POPC   C1B46051  28.662  15.927   6.455
 9101POPC   C2B46052  28.652  15.973   6.755
 9101POPC   C3B46053  28.650  15.954   7.055
 9101POPC   C4B46054  28.601  15.974   7.355
 9102POPC   NC346055  13.638  23.747   5.555
 9102POPC   PO446056  13.653  23.703   5.855
 9102POPC   GL146057  13.629  23.743   6.155
 9102POPC   GL246058  13.764  23.685   6.155
 9102POPC   C1A46059  13.603  23.746   6.455
 9102POPC   D2A46060  13.608  23.734   6.755
 9102POPC   C3A46061  13.604  23.762   7.055
 9102POPC   C4A46062  13.656  23.666   7.355
 9102POPC   C1B46063  13.858  23.707   6.455
 9102POPC   C2B46064  13.886  23.682   6.755
 9102POPC   C3B46065  13.834  23.625   7.055
 9102POPC   C4B46066  13.868  23.612   7.355
 9103POPC   NC346067  29.171   2.746   5.555
 9103POPC   PO446068  29.143   2.798   5.855
 9103POPC   GL146069  29.148   2.761   6.155
 9103POPC   GL246070  29.057   2.670   6.155
 9103POPC   C1A46071  29.151   2.739   6.455
 9103POPC   D2A46072  29.107   2.722   6.755
 9103POPC   C3A46073  29.166   2.770   7.055
 9103POPC   C4A46074  29.136   2.797   7.355
 9103POPC   C1B46075  28.920   2.592   6.455
 9103POPC   C2B46076  28.888   2.584   6.755
 9103POPC   C3B46077  28.885   2.593   7.055
 9103POPC   C4B46078  28.900   2.644   7.355
 9104POPC   NC346079  42.323  41.539   5.555
 9104POPC   PO446080  42.318  41.590   5.855
 9104POPC   GL146081  42.346  41.588   6.155
 9104POPC   GL246082  42.376  41.468   6.155
 9104POPC   C1A46083  42.310  41.512   6.455
 9104POPC   D2A46084  42.367  41.567   6.755
 9104POPC   C3A46085  42.329  41.594   7.055
 9104POPC   C4A46086  42.371  41.598   7.355
 9104POPC   C1B46087  42.415  41.298   6.455
 9104POPC   C2B46088  42.450  41.361   6.755
 9104POPC   C3B46089  42.465  41.387   7.055
 9104POPC   C4B46090  42.432  41.337   7.355
 9105POPC   NC346091  25.235  11.283   5.555
 9105POPC   PO446092  25.216  11.310   5.855
 9105POPC   GL146093  25.216  11.280   6.155
 9105POPC   GL246094  25.358  11.335   6.155
 9105POPC   C1A46095  25.258  11.346   6.455
 9105POPC   D2A46096  25.222  11.268   6.755
 9105POPC   C3A46097  25.255  11.261   7.055
 9105POPC   C4A46098  25.224  11.322   7.355
 9105POPC   C1B46099  25.479  11.356   6.455
 9105POPC   C2B46100  25.489  11.413   6.755
 9105POPC   C3B46101  25.457  11.346   7.055
 9105POPC   C4B46102  25.507  11.364   7.355
 9106POPC   NC346103   3.510  33.825   5.555
 9106POPC   PO446104   3.590  33.819   5.855
 9106POPC   GL146105   3.570  33.770   6.155
 9106POPC   GL246106   3.420  33.708   6.155
 9106POPC   C1A46107   3.538  33.778   6.455
 9106POPC   D2A46108   3.561  33.801   6.755
 9106POPC   C3A46109   3.500  33.792   7.055
 9106POPC   C4A46110   3.543  33.837   7.355
 9106POPC   C1B46111   3.293  33.640   6.455
 9106POPC   C2B46112   3.335  33.660   6.755
 9106POPC   C3B46113   3.337  33.650   7.055
 9106POPC   C4B46114   3.380  33.653   7.355
 9107POPC   NC346115  37.642  27.641   5.555
 9107POPC   PO446116  37.665  27.560   5.855
 9107POPC   GL146117  37.662  27.620   6.155
 9107POPC   GL246118  37.642  27.708   6.155
 9107POPC   C1A46119  37.670  27.595   6.455
 9107POPC   D2A46120  37.723  27.590   6.755
 9107POPC   C3A46121  37.640  27.552   7.055
 9107POPC   C4A46122  37.690  27.572   7.355
 9107POPC   C1B46123  37.603  27.839   6.455
 9107POPC   C2B46124  37.630  27.808   6.755
 9107POPC   C3B46125  37.596  27.875   7.055
 9107POPC   C4B46126  37.619  27.841   7.355
 9108POPC   NC346127  35.336   7.402   5.555
 9108POPC   PO446128  35.351   7.416   5.855
 9108POPC   GL146129  35.340   7.377   6.155
 9108POPC   GL246130  35.507   7.367   6.155
 9108POPC   C1A46131  35.364   7.395   6.455
 9108POPC   D2A46132  35.308   7.377   6.755
 9108POPC   C3A46133  35.379   7.446   7.055
 9108POPC   C4A46134  35.322   7.381   7.355
 9108POPC   C1B46135  35.634   7.338   6.455
 9108POPC   C2B46136  35.591   7.372   6.755
 9108POPC   C3B46137  35.549   7.395   7.055
 9108POPC   C4B46138  35.558   7.392   7.355
 9109POPC   NC346139   9.777   1.243   5.555
 9109POPC   PO446140   9.791   1.239   5.855
 9109POPC   GL146141   9.754   1.262   6.155
 9109POPC   GL246142   9.637   1.205   6.155
 9109POPC   C1A46143   9.756   1.244   6.455
 9109POPC   D2A46144   9.795   1.236   6.755
 9109POPC   C3A46145   9.764   1.231   7.055
 9109POPC   C4A46146   9.702   1.242   7.355
 9109POPC   C1B46147   9.487   1.253   6.455
 9109POPC   C2B46148   9.505   1.282   6.755
 9109POPC   C3B46149   9.549   1.321   7.055
 9109POPC   C4B46150   9.529   1.310   7.355
 9110POPC   NC346151  38.440  17.528   5.555
 9110POPC   PO446152  38.426  17.487   5.855
 9110POPC   GL146153  38.489  17.551   6.155
 9110POPC   GL246154  38.410  17.371   6.155
 9110POPC   C1A46155  38.481  17.552   6.455
 9110POPC   D2A46156  38.411  17.542   6.755
 9110POPC   C3A46157  38.471  17.517   7.055
 9110POPC   C4A46158  38.498  17.552   7.355
 9110POPC   C1B46159  38.465  17.258   6.455
 9110POPC   C2B46160  38.421  17.259   6.755
 9110POPC   C3B46161  38.446  17.231   7.055
 9110POPC   C4B46162  38.451  17.258   7.355
 9111POPC   NC346163  31.504  19.023   5.555
 9111POPC   PO446164  31.457  19.059   5.855
 9111POPC   GL146165  31.434  19.055   6.155
 9111POPC   GL246166  31.598  19.109   6.155
 9111POPC   C1A46167  31.494  19.086   6.455
 9111POPC   D2A46168  31.445  19.087   6.755
 9111POPC   C3A46169  31.438  19.053   7.055
 9111POPC   C4A46170  31.430  19.058   7.355
 9111POPC   C1B46171  31.750  19.140   6.455
 9111POPC   C2B46172  31.710  19.186   6.755
 9111POPC   C3B46173  31.668  19.200   7.055
 9111POPC   C4B46174  31.718  19.141   7.355
 9112POPC   NC346175  44.647  25.998   5.555
 9112POPC   PO446176  44.696  26.081   5.855
 9112POPC   GL146177  44.634  26.009   6.155
 9112POPC   GL246178  44.668  25.908   6.155
 9112POPC   C1A46179  44.651  26.048   6.455
 9112POPC   D2A46180  44.665  26.045   6.755
 9112POPC   C3A46181  44.703  26.067   7.055
 9112POPC   C4A46182  44.648  26.043   7.355
 9112POPC   C1B46183  44.650  25.775   6.455
 9112POPC   C2B46184  44.718  25.742   6.755
 9112POPC   C3B46185  44.680  25.788   7.055
 9112POPC   C4B46186  44.685  25.762   7.355
 9113POPC   NC346187  12.894  30.671   5.555
 9113POPC   PO446188  12.897  30.676   5.855
 9113POPC   GL146189  12.853  30.665   6.155
 9113POPC   GL246190  12.768  30.644   6.155
 9113POPC   C1A46191  12.841  30.675   6.455
 9113POPC   D2A46192  12.871  30.735   6.755
 9113POPC   C3A46193  12.844  30.727   7.055
 9113POPC   C4A46194  12.841  30.652   7.355
 9113POPC   C1B46195  12.703  30.546   6.455
 9113POPC   C2B46196  12.744  30.515   6.755
 9113POPC   C3B46197  12.654  30.515   7.055
 9113POPC   C4B46198  12.681  30.541   7.355
 9114POPC   NC346199  39.198   8.166   5.555
 9114POPC   PO446200  39.256   8.180   5.855
 9114POPC   GL146201  39.275   8.221   6.155
 9114POPC   GL246202  39.292   8.312   6.155
 9114POPC   C1A46203  39.220   8.221   6.455
 9114POPC   D2A46204  39.195   8.167   6.755
 9114POPC   C3A46205  39.254   8.205   7.055
 9114POPC   C4A46206  39.254   8.187   7.355
 9114POPC   C1B46207  39.412   8.358   6.455
 9114POPC   C2B46208  39.396   8.321   6.755
 9114POPC   C3B46209  39.467   8.326   7.055
 9114POPC   C4B46210  39.460   8.352   7.355
 9115POPC   NC346211   5.824  24.517   5.555
 9115POPC   PO446212   5.885  24.539   5.855
 9115POPC   GL146213   5.853  24.451   6.155
 9115POPC   GL246214   5.823  24.351   6.155
 9115POPC   C1A46215   5.856  24.479   6.455
 9115POPC   D2A46216   5.885  24.501   6.755
 9115POPC   C3A46217   5.847  24.476   7.055
 9115POPC   C4A46218   5.863  24.479   7.355
 9115POPC   C1B46219   5.911  24.231   6.455
 9115POPC   C2B46220   5.835  24.192   6.755
 9115POPC   C3B46221   5.870  24.237   7.055
 9115POPC   C4B46222   5.899  24.250   7.355
 9116POPC   NC346223  42.321  43.847   5.555
 9116POPC   PO446224  42.359  43.871   5.855
 9116POPC   GL146225  42.335  43.850   6.155
 9116POPC   GL246226  42.325  43.758   6.155
 9116POPC   C1A46227  42.374  43.892   6.455
 9116POPC   D2A46228  42.364  43.855   6.755
 9116POPC   C3A46229  42.307  43.860   7.055
 9116POPC   C4A46230  42.288  43.890   7.355
 9116POPC   C1B46231  42.306  43.664   6.455
 9116POPC   C2B46232  42.340  43.678   6.755
 9116POPC   C3B46233  42.248  43.681   7.055
 9116POPC   C4B46234  42.322  43.652   7.355
 9117POPC   NC346235  30.713   1.241   5.555
 9117POPC   PO446236  30.719   1.213   5.855
 9117POPC   GL146237  30.703   1.248   6.155
 9117POPC   GL246238  30.781   1.262   6.155
 9117POPC   C1A46239  30.746   1.180   6.455
 9117POPC   D2A46240  30.718   1.180   6.755
 9117POPC   C3A46241  30.738   1.209   7.055
 9117POPC   C4A46242  30.673   1.249   7.355
 9117POPC   C1B46243  30.977   1.254   6.455
 9117POPC   C2B46244  30.965   1.214   6.755
 9117POPC   C3B46245  30.899   1.212   7.055
 9117POPC   C4B46246  30.897   1.276   7.355
 9118POPC   NC346247  44.620  40.830   5.555
 9118POPC   PO446248  44.686  40.824   5.855
 9118POPC   GL146249  44.701  40.787   6.155
 9118POPC   GL246250  44.565  40.836   6.155
 9118POPC   C1A46251  44.706  40.777   6.455
 9118POPC   D2A46252  44.695  40.806   6.755
 9118POPC   C3A46253  44.662  40.829   7.055
 9118POPC   C4A46254  44.617  40.810   7.355
 9118POPC   C1B46255  44.441  40.962   6.455
 9118POPC   C2B46256  44.444  40.933   6.755
 9118POPC   C3B46257  44.504  40.926   7.055
 9118POPC   C4B46258  44.430  40.956   7.355
 9119POPC   NC346259   3.561   2.804   5.555
 9119POPC   PO446260   3.566   2.731   5.855
 9119POPC   GL146261   3.545   2.783   6.155
 9119POPC   GL246262   3.474   2.631   6.155
 9119POPC   C1A46263   3.552   2.720   6.455
 9119POPC   D2A46264   3.541   2.814   6.755
 9119POPC   C3A46265   3.538   2.745   7.055
 9119POPC   C4A46266   3.514   2.719   7.355
 9119POPC   C1B46267   3.439   2.521   6.455
 9119POPC   C2B46268   3.376   2.573   6.755
 9119POPC   C3B46269   3.409   2.523   7.055
 9119POPC   C4B46270   3.390   2.550   7.355
 9120POPC   NC346271  35.345   4.275   5.555
 9120POPC   PO446272  35.365   4.271   5.855
 9120POPC   GL146273  35.342   4.326   6.155
 9120POPC   GL246274  35.266   4.250   6.155
 9120POPC   C1A46275  35.357   4.358   6.455
 9120POPC   D2A46276  35.304   4.302   6.755
 9120POPC   C3A46277  35.315   4.294   7.055
 9120POPC   C4A46278  35.346   4.322   7.355
 9120POPC   C1B46279  35.267   4.057   6.455
 9120POPC   C2B46280  35.262   4.146   6.755
 9120POPC   C3B46281  35.276   4.107   7.055
 9120POPC   C4B46282  35.193   4.101   7.355
 9121POPC   NC346283  18.262   2.793   5.555
 9121POPC   PO446284  18.311   2.743   5.855
 9121POPC   GL146285  18.237   2.756   6.155
 9121POPC   GL246286  18.293   2.629   6.155
 9121POPC   C1A46287  18.322   2.739   6.455
 9121POPC   D2A46288  18.318   2.764   6.755
 9121POPC   C3A46289  18.289   2.722   7.055
 9121POPC   C4A46290  18.268   2.769   7.355
 9121POPC   C1B46291  18.293   2.541   6.455
 9121POPC   C2B46292  18.249   2.531   6.755
 9121POPC   C3B46293  18.272   2.524   7.055
 9121POPC   C4B46294  18.254   2.506   7.355
 9122POPC   NC346295  11.303  43.916   5.555
 9122POPC   PO446296  11.252  43.936   5.855
 9122POPC   GL146297  11.343  43.868   6.155
 9122POPC   GL246298  11.454  43.929   6.155
 9122POPC   C1A46299  11.259  43.849   6.455
 9122POPC   D2A46300  11.251  43.888   6.755
 9122POPC   C3A46301  11.258  43.886   7.055
 9122POPC   C4A46302  11.333  43.882   7.355
 9122POPC   C1B46303  11.520  43.922   6.455
 9122POPC   C2B46304  11.522  43.957   6.755
 9122POPC   C3B46305  11.561  43.926   7.055
 9122POPC   C4B46306  11.581  43.968   7.355
 9123POPC   NC346307  34.609  37.632   5.555
 9123POPC   PO446308  34.610  37.705   5.855
 9123POPC   GL146309  34.553  37.634   6.155
 9123POPC   GL246310  34.545  37.761   6.155
 9123POPC   C1A46311  34.578  37.705   6.455
 9123POPC   D2A46312  34.552  37.638   6.755
 9123POPC   C3A46313  34.604  37.648   7.055
 9123POPC   C4A46314  34.565  37.722   7.355
 9123POPC   C1B46315  34.468  37.923   6.455
 9123POPC   C2B46316  34.475  37.921   6.755
 9123POPC   C3B46317  34.442  37.862   7.055
 9123POPC   C4B46318  34.428  37.923   7.355
 9124POPC   NC346319   5.103  30.648   5.555
 9124POPC   PO446320   5.062  30.680   5.855
 9124POPC   GL146321   5.078  30.698   6.155
 9124POPC   GL246322   5.061  30.857   6.155
 9124POPC   C1A46323   5.139  30.662   6.455
 9124POPC   D2A46324   5.092  30.647   6.755
 9124POPC   C3A46325   5.142  30.661   7.055
 9124POPC   C4A46326   5.137  30.655   7.355
 9124POPC   C1B46327   5.071  30.901   6.455
 9124POPC   C2B46328   5.131  30.922   6.755
 9124POPC   C3B46329   5.090  30.898   7.055
 9124POPC   C4B46330   5.071  30.936   7.355
 9125POPC   NC346331   2.725   4.273   5.555
 9125POPC   PO446332   2.811   4.276   5.855
 9125POPC   GL146333   2.813   4.298   6.155
 9125POPC   GL246334   2.752   4.181   6.155
 9125POPC   C1A46335   2.799   4.278   6.455
 9125POPC   D2A46336   2.726   4.293   6.755
 9125POPC   C3A46337   2.787   4.360   7.055
 9125POPC   C4A46338   2.787   4.282   7.355
 9125POPC   C1B46339   2.627   4.134   6.455
 9125POPC   C2B46340   2.632   4.079   6.755
 9125POPC   C3B46341   2.690   4.112   7.055
 9125POPC   C4B46342   2.646   4.132   7.355
 9126POPC   NC346343  43.099  12.110   5.555
 9126POPC   PO446344  43.066  12.040   5.855
 9126POPC   GL146345  43.113  12.114   6.155
 9126POPC   GL246346  43.203  12.108   6.155
 9126POPC   C1A46347  43.123  12.115   6.455
 9126POPC   D2A46348  43.154  12.097   6.755
 9126POPC   C3A46349  43.121  12.067   7.055
 9126POPC   C4A46350  43.063  12.039   7.355
 9126POPC   C1B46351  43.340  12.171   6.455
 9126POPC   C2B46352  43.327  12.089   6.755
 9126POPC   C3B46353  43.334  12.114   7.055
 9126POPC   C4B46354  43.399  12.127   7.355
 9127POPC   NC346355  29.913  37.728   5.555
 9127POPC   PO446356  29.953  37.659   5.855
 9127POPC   GL146357  29.925  37.638   6.155
 9127POPC   GL246358  30.017  37.702   6.155
 9127POPC   C1A46359  29.930  37.659   6.455
 9127POPC   D2A46360  29.900  37.680   6.755
 9127POPC   C3A46361  29.901  37.654   7.055
 9127POPC   C4A46362  29.875  37.632   7.355
 9127POPC   C1B46363  30.135  37.801   6.455
 9127POPC   C2B46364  30.131  37.784   6.755
 9127POPC   C3B46365  30.111  37.739   7.055
 9127POPC   C4B46366  30.113  37.734   7.355
 9128POPC   NC346367  28.354  36.923   5.555
 9128POPC   PO446368  28.344  36.914   5.855
 9128POPC   GL146369  28.412  36.939   6.155
 9128POPC   GL246370  28.423  36.769   6.155
 9128POPC   C1A46371  28.380  36.858   6.455
 9128POPC   D2A46372  28.356  36.887   6.755
 9128POPC   C3A46373  28.350  36.898   7.055
 9128POPC   C4A46374  28.345  36.927   7.355
 9128POPC   C1B46375  28.411  36.647   6.455
 9128POPC   C2B46376  28.358  36.628   6.755
 9128POPC   C3B46377  28.329  36.666   7.055
 9128POPC   C4B46378  28.409  36.611   7.355
 9129POPC   NC346379  16.745  32.996   5.555
 9129POPC   PO446380  16.708  32.999   5.855
 9129POPC   GL146381  16.717  33.035   6.155
 9129POPC   GL246382  16.645  32.931   6.155
 9129POPC   C1A46383  16.712  33.055   6.455
 9129POPC   D2A46384  16.705  33.065   6.755
 9129POPC   C3A46385  16.738  33.024   7.055
 9129POPC   C4A46386  16.700  32.976   7.355
 9129POPC   C1B46387  16.593  32.837   6.455
 9129POPC   C2B46388  16.593  32.851   6.755
 9129POPC   C3B46389  16.579  32.840   7.055
 9129POPC   C4B46390  16.592  32.765   7.355
 9130POPC   NC346391   5.048  36.176   5.555
 9130POPC   PO446392   5.057  36.082   5.855
 9130POPC   GL146393   5.046  36.117   6.155
 9130POPC   GL246394   5.018  36.023   6.155
 9130POPC   C1A46395   5.124  36.083   6.455
 9130POPC   D2A46396   5.126  36.156   6.755
 9130POPC   C3A46397   5.046  36.111   7.055
 9130POPC   C4A46398   5.070  36.091   7.355
 9130POPC   C1B46399   4.924  35.945   6.455
 9130POPC   C2B46400   4.882  36.001   6.755
 9130POPC   C3B46401   4.906  36.007   7.055
 9130POPC   C4B46402   4.841  36.006   7.355
 9131POPC   NC346403   1.944  24.516   5.555
 9131POPC   PO446404   1.997  24.496   5.855
 9131POPC   GL146405   1.995  24.506   6.155
 9131POPC   GL246406   2.056  24.422   6.155
 9131POPC   C1A46407   1.985  24.472   6.455
 9131POPC   D2A46408   1.942  24.483   6.755
 9131POPC   C3A46409   1.974  24.497   7.055
 9131POPC   C4A46410   1.955  24.537   7.355
 9131POPC   C1B46411   2.178  24.273   6.455
 9131POPC   C2B46412   2.172  24.371   6.755
 9131POPC   C3B46413   2.131  24.342   7.055
 9131POPC   C4B46414   2.176  24.342   7.355
 9132POPC   NC346415  11.264  23.699   5.555
 9132POPC   PO446416  11.326  23.666   5.855
 9132POPC   GL146417  11.260  23.747   6.155
 9132POPC   GL246418  11.398  23.756   6.155
 9132POPC   C1A46419  11.349  23.760   6.455
 9132POPC   D2A46420  11.331  23.751   6.755
 9132POPC   C3A46421  11.259  23.721   7.055
 9132POPC   C4A46422  11.342  23.755   7.355
 9132POPC   C1B46423  11.498  23.821   6.455
 9132POPC   C2B46424  11.519  23.774   6.755
 9132POPC   C3B46425  11.510  23.757   7.055
 9132POPC   C4B46426  11.502  23.827   7.355
 9133POPC   NC346427   2.798   1.964   5.555
 9133POPC   PO446428   2.736   2.030   5.855
 9133POPC   GL146429   2.803   2.000   6.155
 9133POPC   GL246430   2.646   2.122   6.155
 9133POPC   C1A46431   2.806   2.008   6.455
 9133POPC   D2A46432   2.730   1.952   6.755
 9133POPC   C3A46433   2.741   2.015   7.055
 9133POPC   C4A46434   2.734   2.018   7.355
 9133POPC   C1B46435   2.572   2.210   6.455
 9133POPC   C2B46436   2.552   2.194   6.755
 9133POPC   C3B46437   2.643   2.182   7.055
 9133POPC   C4B46438   2.641   2.162   7.355
 9134POPC   NC346439  21.395  12.858   5.555
 9134POPC   PO446440  21.356  12.901   5.855
 9134POPC   GL146441  21.406  12.854   6.155
 9134POPC   GL246442  21.283  12.905   6.155
 9134POPC   C1A46443  21.418  12.886   6.455
 9134POPC   D2A46444  21.405  12.822   6.755
 9134POPC   C3A46445  21.431  12.812   7.055
 9134POPC   C4A46446  21.374  12.845   7.355
 9134POPC   C1B46447  21.139  12.988   6.455
 9134POPC   C2B46448  21.190  12.974   6.755
 9134POPC   C3B46449  21.147  12.991   7.055
 9134POPC   C4B46450  21.123  12.999   7.355
 9135POPC   NC346451   7.384  22.124   5.555
 9135POPC   PO446452   7.410  22.188   5.855
 9135POPC   GL146453   7.416  22.158   6.155
 9135POPC   GL246454   7.348  22.306   6.155
 9135POPC   C1A46455   7.414  22.207   6.455
 9135POPC   D2A46456   7.435  22.209   6.755
 9135POPC   C3A46457   7.393  22.115   7.055
 9135POPC   C4A46458   7.434  22.178   7.355
 9135POPC   C1B46459   7.303  22.375   6.455
 9135POPC   C2B46460   7.250  22.335   6.755
 9135POPC   C3B46461   7.256  22.351   7.055
 9135POPC   C4B46462   7.296  22.411   7.355
 9136POPC   NC346463  10.549  31.499   5.555
 9136POPC   PO446464  10.509  31.522   5.855
 9136POPC   GL146465  10.488  31.471   6.155
 9136POPC   GL246466  10.466  31.622   6.155
 9136POPC   C1A46467  10.538  31.434   6.455
 9136POPC   D2A46468  10.520  31.425   6.755
 9136POPC   C3A46469  10.572  31.462   7.055
 9136POPC   C4A46470  10.543  31.440   7.355
 9136POPC   C1B46471  10.458  31.747   6.455
 9136POPC   C2B46472  10.461  31.739   6.755
 9136POPC   C3B46473  10.414  31.670   7.055
 9136POPC   C4B46474  10.429  31.682   7.355
 9137POPC   NC346475   0.462  14.453   5.555
 9137POPC   PO446476   0.445  14.388   5.855
 9137POPC   GL146477   0.437  14.367   6.155
 9137POPC   GL246478   0.472  14.296   6.155
 9137POPC   C1A46479   0.439  14.422   6.455
 9137POPC   D2A46480   0.434  14.366   6.755
 9137POPC   C3A46481   0.487  14.422   7.055
 9137POPC   C4A46482   0.466  14.436   7.355
 9137POPC   C1B46483   0.552  14.235   6.455
 9137POPC   C2B46484   0.547  14.172   6.755
 9137POPC   C3B46485   0.622  14.197   7.055
 9137POPC   C4B46486   0.551  14.181   7.355
 9138POPC   NC346487  21.406  29.912   5.555
 9138POPC   PO446488  21.433  29.905   5.855
 9138POPC   GL146489  21.427  29.872   6.155
 9138POPC   GL246490  21.248  29.895   6.155
 9138POPC   C1A46491  21.344  29.903   6.455
 9138POPC   D2A46492  21.397  29.880   6.755
 9138POPC   C3A46493  21.384  29.872   7.055
 9138POPC   C4A46494  21.388  29.947   7.355
 9138POPC   C1B46495  21.210  29.840   6.455
 9138POPC   C2B46496  21.175  29.810   6.755
 9138POPC   C3B46497  21.142  29.784   7.055
 9138POPC   C4B46498  21.183  29.788   7.355
 9139POPC   NC346499  23.698   5.916   5.555
 9139POPC   PO446500  23.677   5.831   5.855
 9139POPC   GL146501  23.668   5.884   6.155
 9139POPC   GL246502  23.677   6.016   6.155
 9139POPC   C1A46503  23.725   5.910   6.455
 9139POPC   D2A46504  23.700   5.848   6.755
 9139POPC   C3A46505  23.690   5.883   7.055
 9139POPC   C4A46506  23.724   5.880   7.355
 9139POPC   C1B46507  23.709   6.158   6.455
 9139POPC   C2B46508  23.710   6.089   6.755
 9139POPC   C3B46509  23.720   6.138   7.055
 9139POPC   C4B46510  23.684   6.094   7.355
 9140POPC   NC346511  30.653  20.577   5.555
 9140POPC   PO446512  30.673  20.614   5.855
 9140POPC   GL146513  30.690  20.567   6.155
 9140POPC   GL246514  30.836  20.681   6.155
 9140POPC   C1A46515  30.649  20.563   6.455
 9140POPC   D2A46516  30.687  20.614   6.755
 9140POPC   C3A46517  30.734  20.599   7.055
 9140POPC   C4A46518  30.720  20.641   7.355
 9140POPC   C1B46519  30.896  20.695   6.455
 9140POPC   C2B46520  30.931  20.791   6.755
 9140POPC   C3B46521  30.865  20.735   7.055
 9140POPC   C4B46522  30.912  20.730   7.355
 9141POPC   NC346523   8.924  29.914   5.555
 9141POPC   PO446524   8.946  29.964   5.855
 9141POPC   GL146525   9.010  29.962   6.155
 9141POPC   GL246526   8.934  30.018   6.155
 9141POPC   C1A46527   8.989  29.886   6.455
 9141POPC   D2A46528   8.979  29.948   6.755
 9141POPC   C3A46529   9.018  29.889   7.055
 9141POPC   C4A46530   8.944  29.956   7.355
 9141POPC   C1B46531   8.917  30.165   6.455
 9141POPC   C2B46532   8.918  30.176   6.755
 9141POPC   C3B46533   8.997  30.212   7.055
 9141POPC   C4B46534   8.920  30.209   7.355
 9142POPC   NC346535   8.927  20.592   5.555
 9142POPC   PO446536   9.002  20.565   5.855
 9142POPC   GL146537   8.988  20.564   6.155
 9142POPC   GL246538   8.917  20.513   6.155
 9142POPC   C1A46539   8.983  20.596   6.455
 9142POPC   D2A46540   8.990  20.637   6.755
 9142POPC   C3A46541   9.014  20.639   7.055
 9142POPC   C4A46542   9.003  20.586   7.355
 9142POPC   C1B46543   8.935  20.348   6.455
 9142POPC   C2B46544   8.984  20.371   6.755
 9142POPC   C3B46545   8.926  20.332   7.055
 9142POPC   C4B46546   8.964  20.326   7.355
 9143POPC   NC346547   5.900  26.804   5.555
 9143POPC   PO446548   5.897  26.824   5.855
 9143POPC   GL146549   5.905  26.862   6.155
 9143POPC   GL246550   5.989  26.823   6.155
 9143POPC   C1A46551   5.860  26.862   6.455
 9143POPC   D2A46552   5.865  26.857   6.755
 9143POPC   C3A46553   5.854  26.791   7.055
 9143POPC   C4A46554   5.827  26.822   7.355
 9143POPC   C1B46555   6.070  26.822   6.455
 9143POPC   C2B46556   6.118  26.755   6.755
 9143POPC   C3B46557   6.144  26.804   7.055
 9143POPC   C4B46558   6.115  26.752   7.355
 9144POPC   NC346559  22.978  19.105   5.555
 9144POPC   PO446560  22.959  19.013   5.855
 9144POPC   GL146561  22.889  19.079   6.155
 9144POPC   GL246562  22.982  19.183   6.155
 9144POPC   C1A46563  22.971  19.093   6.455
 9144POPC   D2A46564  22.933  19.090   6.755
 9144POPC   C3A46565  22.988  19.089   7.055
 9144POPC   C4A46566  22.932  19.046   7.355
 9144POPC   C1B46567  23.157  19.240   6.455
 9144POPC   C2B46568  23.159  19.183   6.755
 9144POPC   C3B46569  23.087  19.272   7.055
 9144POPC   C4B46570  23.082  19.255   7.355
 9145POPC   NC346571  41.557  29.954   5.555
 9145POPC   PO446572  41.536  29.904   5.855
 9145POPC   GL146573  41.590  29.910   6.155
 9145POPC   GL246574  41.590  29.821   6.155
 9145POPC   C1A46575  41.548  29.960   6.455
 9145POPC   D2A46576  41.520  29.875   6.755
 9145POPC   C3A46577  41.564  29.959   7.055
 9145POPC   C4A46578  41.512  29.953   7.355
 9145POPC   C1B46579  41.678  29.650   6.455
 9145POPC   C2B46580  41.640  29.686   6.755
 9145POPC   C3B46581  41.666  29.720   7.055
 9145POPC   C4B46582  41.638  29.706   7.355
 9146POPC   NC346583   0.471  40.770   5.555
 9146POPC   PO446584   0.484  40.772   5.855
 9146POPC   GL146585   0.416  40.749   6.155
 9146POPC   GL246586   0.301  40.723   6.155
 9146POPC   C1A46587   0.417  40.832   6.455
 9146POPC   D2A46588   0.389  40.759   6.755
 9146POPC   C3A46589   0.400  40.769   7.055
 9146POPC   C4A46590   0.406  40.807   7.355
 9146POPC   C1B46591   0.194  40.755   6.455
 9146POPC   C2B46592   0.230  40.791   6.755
 9146POPC   C3B46593   0.226  40.780   7.055
 9146POPC   C4B46594   0.175  40.799   7.355
 9147POPC   NC346595  15.919  31.430   5.555
 9147POPC   PO446596  15.939  31.506   5.855
 9147POPC   GL146597  15.967  31.486   6.155
 9147POPC   GL246598  16.050  31.578   6.155
 9147POPC   C1A46599  15.955  31.456   6.455
 9147POPC   D2A46600  15.961  31.488   6.755
 9147POPC   C3A46601  15.979  31.510   7.055
 9147POPC   C4A46602  15.906  31.450   7.355
 9147POPC   C1B46603  16.150  31.708   6.455
 9147POPC   C2B46604  16.137  31.718   6.755
 9147POPC   C3B46605  16.055  31.644   7.055
 9147POPC   C4B46606  16.144  31.707   7.355
 9148POPC   NC346607   1.981  43.854   5.555
 9148POPC   PO446608   1.996  43.868   5.855
 9148POPC   GL146609   1.990  43.862   6.155
 9148POPC   GL246610   1.873  43.770   6.155
 9148POPC   C1A46611   1.959  43.890   6.455
 9148POPC   D2A46612   2.000  43.841   6.755
 9148POPC   C3A46613   2.015  43.911   7.055
 9148POPC   C4A46614   1.989  43.897   7.355
 9148POPC   C1B46615   1.802  43.724   6.455
 9148POPC   C2B46616   1.781  43.765   6.755
 9148POPC   C3B46617   1.761  43.785   7.055
 9148POPC   C4B46618   1.738  43.709   7.355
 9149POPC   NC346619  33.779  34.569   5.555
 9149POPC   PO446620  33.766  34.588   5.855
 9149POPC   GL146621  33.757  34.565   6.155
 9149POPC   GL246622  33.931  34.609   6.155
 9149POPC   C1A46623  33.823  34.555   6.455
 9149POPC   D2A46624  33.841  34.552   6.755
 9149POPC   C3A46625  33.828  34.602   7.055
 9149POPC   C4A46626  33.775  34.617   7.355
 9149POPC   C1B46627  33.992  34.665   6.455
 9149POPC   C2B46628  34.066  34.676   6.755
 9149POPC   C3B46629  34.054  34.640   7.055
 9149POPC   C4B46630  34.088  34.679   7.355
 9150POPC   NC346631  30.678   2.777   5.555
 9150POPC   PO446632  30.666   2.770   5.855
 9150POPC   GL146633  30.737   2.762   6.155
 9150POPC   GL246634  30.626   2.672   6.155
 9150POPC   C1A46635  30.719   2.739   6.455
 9150POPC   D2A46636  30.663   2.773   6.755
 9150POPC   C3A46637  30.734   2.764   7.055
 9150POPC   C4A46638  30.734   2.773   7.355
 9150POPC   C1B46639  30.557   2.566   6.455
 9150POPC   C2B46640  30.543   2.556   6.755
 9150POPC   C3B46641  30.537   2.541   7.055
 9150POPC   C4B46642  30.520   2.579   7.355
 9151POPC   NC346643   2.719  22.934   5.555
 9151POPC   PO446644   2.810  22.891   5.855
 9151POPC   GL146645   2.749  22.911   6.155
 9151POPC   GL246646   2.733  23.069   6.155
 9151POPC   C1A46647   2.753  22.954   6.455
 9151POPC   D2A46648   2.746  22.975   6.755
 9151POPC   C3A46649   2.779  22.911   7.055
 9151POPC   C4A46650   2.745  22.897   7.355
 9151POPC   C1B46651   2.689  23.130   6.455
 9151POPC   C2B46652   2.702  23.192   6.755
 9151POPC   C3B46653   2.638  23.127   7.055
 9151POPC   C4B46654   2.666  23.209   7.355
 9152POPC   NC346655  41.562  42.339   5.555
 9152POPC   PO446656  41.589  42.346   5.855
 9152POPC   GL146657  41.600  42.381   6.155
 9152POPC   GL246658  41.550  42.175   6.155
 9152POPC   C1A46659  41.590  42.308   6.455
 9152POPC   D2A46660  41.556  42.329   6.755
 9152POPC   C3A46661  41.595  42.313   7.055
 9152POPC   C4A46662  41.573  42.321   7.355
 9152POPC   C1B46663  41.554  42.084   6.455
 9152POPC   C2B46664  41.537  42.125   6.755
 9152POPC   C3B46665  41.592  42.036   7.055
 9152POPC   C4B46666  41.518  42.059   7.355
 9153POPC   NC346667  11.267  39.991   5.555
 9153POPC   PO446668  11.334  39.969   5.855
 9153POPC   GL146669  11.330  39.988   6.155
 9153POPC   GL246670  11.281  39.906   6.155
 9153POPC   C1A46671  11.335  39.981   6.455
 9153POPC   D2A46672  11.289  39.981   6.755
 9153POPC   C3A46673  11.258  39.971   7.055
 9153POPC   C4A46674  11.323  40.000   7.355
 9153POPC   C1B46675  11.357  39.744   6.455
 9153POPC   C2B46676  11.349  39.743   6.755
 9153POPC   C3B46677  11.356  39.778   7.055
 9153POPC   C4B46678  11.329  39.793   7.355
 9154POPC   NC346679   6.652  44.667   5.555
 9154POPC   PO446680   6.670  44.636   5.855
 9154POPC   GL146681   6.624  44.617   6.155
 9154POPC   GL246682   6.550  44.605   6.155
 9154POPC   C1A46683   6.648  44.709   6.455
 9154POPC   D2A46684   6.606  44.694   6.755
 9154POPC   C3A46685   6.595  44.616   7.055
 9154POPC   C4A46686   6.650  44.661   7.355
 9154POPC   C1B46687   6.466  44.532   6.455
 9154POPC   C2B46688   6.440  44.532   6.755
 9154POPC   C3B46689   6.437  44.461   7.055
 9154POPC   C4B46690   6.496  44.494   7.355
 9155POPC   NC346691  23.759  44.648   5.555
 9155POPC   PO446692  23.671  44.631   5.855
 9155POPC   GL146693  23.762  44.695   6.155
 9155POPC   GL246694  23.832  44.578   6.155
 9155POPC   C1A46695  23.673  44.663   6.455
 9155POPC   D2A46696  23.744  44.671   6.755
 9155POPC   C3A46697  23.752  44.678   7.055
 9155POPC   C4A46698  23.757  44.694   7.355
 9155POPC   C1B46699  23.870  44.556   6.455
 9155POPC   C2B46700  23.927  44.552   6.755
 9155POPC   C3B46701  23.891  44.464   7.055
 9155POPC   C4B46702  23.944  44.511   7.355
 9156POPC   NC346703  12.100  43.930   5.555
 9156POPC   PO446704  12.027  43.907   5.855
 9156POPC   GL146705  12.085  43.917   6.155
 9156POPC   GL246706  12.091  43.782   6.155
 9156POPC   C1A46707  12.044  43.839   6.455
 9156POPC   D2A46708  12.070  43.875   6.755
 9156POPC   C3A46709  12.105  43.911   7.055
 9156POPC   C4A46710  12.074  43.861   7.355
 9156POPC   C1B46711  12.036  43.648   6.455
 9156POPC   C2B46712  12.019  43.686   6.755
 9156POPC   C3B46713  12.045  43.607   7.055
 9156POPC   C4B46714  12.075  43.622   7.355
 9157POPC   NC346715  28.397   9.739   5.555
 9157POPC   PO446716  28.357   9.701   5.855
 9157POPC   GL146717  28.328   9.782   6.155
 9157POPC   GL246718  28.278   9.731   6.155
 9157POPC   C1A46719  28.376   9.776   6.455
 9157POPC   D2A46720  28.389   9.745   6.755
 9157POPC   C3A46721  28.322   9.719   7.055
 9157POPC   C4A46722  28.397   9.788   7.355
 9157POPC   C1B46723  28.078   9.667   6.455
 9157POPC   C2B46724  28.091   9.719   6.755
 9157POPC   C3B46725  28.098   9.719   7.055
 9157POPC   C4B46726  28.103   9.732   7.355
 9158POPC   NC346727  43.837  23.686   5.555
 9158POPC   PO446728  43.875  23.676   5.855
 9158POPC   GL146729  43.889  23.705   6.155
 9158POPC   GL246730  43.780  23.777   6.155
 9158POPC   C1A46731  43.857  23.736   6.455
 9158POPC   D2A46732  43.889  23.742   6.755
 9158POPC   C3A46733  43.924  23.732   7.055
 9158POPC   C4A46734  43.921  23.711   7.355
 9158POPC   C1B46735  43.692  23.916   6.455
 9158POPC   C2B46736  43.689  23.937   6.755
 9158POPC   C3B46737  43.672  23.870   7.055
 9158POPC   C4B46738  43.730  23.922   7.355
 9159POPC   NC346739   7.465  36.890   5.555
 9159POPC   PO446740   7.469  36.892   5.855
 9159POPC   GL146741   7.420  36.950   6.155
 9159POPC   GL246742   7.480  37.022   6.155
 9159POPC   C1A46743   7.402  36.866   6.455
 9159POPC   D2A46744   7.442  36.947   6.755
 9159POPC   C3A46745   7.384  36.916   7.055
 9159POPC   C4A46746   7.453  36.911   7.355
 9159POPC   C1B46747   7.613  37.083   6.455
 9159POPC   C2B46748   7.562  37.135   6.755
 9159POPC   C3B46749   7.605  37.075   7.055
 9159POPC   C4B46750   7.623  37.082   7.355
 9160POPC   NC346751  20.627  41.589   5.555
 9160POPC   PO446752  20.612  41.584   5.855
 9160POPC   GL146753  20.606  41.567   6.155
 9160POPC   GL246754  20.636  41.452   6.155
 9160POPC   C1A46755  20.563  41.520   6.455
 9160POPC   D2A46756  20.640  41.532   6.755
 9160POPC   C3A46757  20.638  41.537   7.055
 9160POPC   C4A46758  20.570  41.555   7.355
 9160POPC   C1B46759  20.670  41.359   6.455
 9160POPC   C2B46760  20.727  41.286   6.755
 9160POPC   C3B46761  20.658  41.352   7.055
 9160POPC   C4B46762  20.681  41.365   7.355
 9161POPC   NC346763  25.304   2.807   5.555
 9161POPC   PO446764  25.233   2.779   5.855
 9161POPC   GL146765  25.233   2.772   6.155
 9161POPC   GL246766  25.112   2.837   6.155
 9161POPC   C1A46767  25.262   2.748   6.455
 9161POPC   D2A46768  25.298   2.742   6.755
 9161POPC   C3A46769  25.273   2.798   7.055
 9161POPC   C4A46770  25.266   2.767   7.355
 9161POPC   C1B46771  25.043   2.799   6.455
 9161POPC   C2B46772  25.041   2.838   6.755
 9161POPC   C3B46773  25.035   2.812   7.055
 9161POPC   C4B46774  25.038   2.888   7.355
 9162POPC   NC346775  13.580  33.025   5.555
 9162POPC   PO446776  13.677  32.998   5.855
 9162POPC   GL146777  13.596  33.047   6.155
 9162POPC   GL246778  13.793  33.032   6.155
 9162POPC   C1A46779  13.614  33.004   6.455
 9162POPC   D2A46780  13.596  33.040   6.755
 9162POPC   C3A46781  13.619  32.981   7.055
 9162POPC   C4A46782  13.600  33.045   7.355
 9162POPC   C1B46783  13.882  33.102   6.455
 9162POPC   C2B46784  13.874  33.058   6.755
 9162POPC   C3B46785  13.864  33.044   7.055
 9162POPC   C4B46786  13.918  33.102   7.355
 9163POPC   NC346787   3.511  44.641   5.555
 9163POPC   PO446788   3.566  44.671   5.855
 9163POPC   GL146789   3.556  44.631   6.155
 9163POPC   GL246790   3.403  44.653   6.155
 9163POPC   C1A46791   3.498  44.648   6.455
 9163POPC   D2A46792   3.503  44.618   6.755
 9163POPC   C3A46793   3.574  44.658   7.055
 9163POPC   C4A46794   3.540  44.633   7.355
 9163POPC   C1B46795   3.325  44.639   6.455
 9163POPC   C2B46796   3.322  44.638   6.755
 9163POPC   C3B46797   3.256  44.664   7.055
 9163POPC   C4B46798   3.316  44.671   7.355
 9164POPC   NC346799  24.515  41.602   5.555
 9164POPC   PO446800  24.507  41.581   5.855
 9164POPC   GL146801  24.464  41.603   6.155
 9164POPC   GL246802  24.368  41.617   6.155
 9164POPC   C1A46803  24.496  41.607   6.455
 9164POPC   D2A46804  24.495  41.559   6.755
 9164POPC   C3A46805  24.494  41.599   7.055
 9164POPC   C4A46806  24.528  41.550   7.355
 9164POPC   C1B46807  24.213  41.668   6.455
 9164POPC   C2B46808  24.221  41.665   6.755
 9164POPC   C3B46809  24.269  41.584   7.055
 9164POPC   C4B46810  24.214  41.618   7.355
 9165POPC   NC346811   5.078   0.398   5.555
 9165POPC   PO446812   5.109   0.479   5.855
 9165POPC   GL146813   5.098   0.405   6.155
 9165POPC   GL246814   5.085   0.511   6.155
 9165POPC   C1A46815   5.116   0.420   6.455
 9165POPC   D2A46816   5.079   0.429   6.755
 9165POPC   C3A46817   5.061   0.419   7.055
 9165POPC   C4A46818   5.052   0.415   7.355
 9165POPC   C1B46819   4.933   0.630   6.455
 9165POPC   C2B46820   5.017   0.623   6.755
 9165POPC   C3B46821   4.953   0.637   7.055
 9165POPC   C4B46822   4.972   0.696   7.355
 9166POPC   NC346823  19.860  17.545   5.555
 9166POPC   PO446824  19.850  17.528   5.855
 9166POPC   GL146825  19.790  17.501   6.155
 9166POPC   GL246826  19.891  17.358   6.155
 9166POPC   C1A46827  19.874  17.476   6.455
 9166POPC   D2A46828  19.848  17.487   6.755
 9166POPC   C3A46829  19.822  17.551   7.055
 9166POPC   C4A46830  19.811  17.512   7.355
 9166POPC   C1B46831  19.955  17.232   6.455
 9166POPC   C2B46832  19.953  17.268   6.755
 9166POPC   C3B46833  19.888  17.245   7.055
 9166POPC   C4B46834  19.948  17.229   7.355
 9167POPC   NC346835  22.910   5.099   5.555
 9167POPC   PO446836  22.986   5.079   5.855
 9167POPC   GL146837  22.898   5.075   6.155
 9167POPC   GL246838  23.085   5.132   6.155
 9167POPC   C1A46839  22.913   5.057   6.455
 9167POPC   D2A46840  22.948   5.120   6.755
 9167POPC   C3A46841  22.945   5.071   7.055
 9167POPC   C4A46842  22.980   5.100   7.355
 9167POPC   C1B46843  23.210   5.146   6.455
 9167POPC   C2B46844  23.184   5.141   6.755
 9167POPC   C3B46845  23.186   5.198   7.055
 9167POPC   C4B46846  23.162   5.175   7.355
 9168POPC   NC346847  17.478  14.410   5.555
 9168POPC   PO446848  17.519  14.406   5.855
 9168POPC   GL146849  17.514  14.377   6.155
 9168POPC   GL246850  17.563  14.337   6.155
 9168POPC   C1A46851  17.491  14.431   6.455
 9168POPC   D2A46852  17.496  14.361   6.755
 9168POPC   C3A46853  17.473  14.441   7.055
 9168POPC   C4A46854  17.489  14.413   7.355
 9168POPC   C1B46855  17.721  14.273   6.455
 9168POPC   C2B46856  17.758  14.246   6.755
 9168POPC   C3B46857  17.684  14.285   7.055
 9168POPC   C4B46858  17.728  14.287   7.355
 9169POPC   NC346859  35.371  26.089   5.555
 9169POPC   PO446860  35.343  26.035   5.855
 9169POPC   GL146861  35.316  26.000   6.155
 9169POPC   GL246862  35.310  26.168   6.155
 9169POPC   C1A46863  35.370  26.072   6.455
 9169POPC   D2A46864  35.351  26.073   6.755
 9169POPC   C3A46865  35.374  26.015   7.055
 9169POPC   C4A46866  35.353  26.021   7.355
 9169POPC   C1B46867  35.353  26.298   6.455
 9169POPC   C2B46868  35.293  26.296   6.755
 9169POPC   C3B46869  35.336  26.243   7.055
 9169POPC   C4B46870  35.285  26.338   7.355
 9170POPC   NC346871  41.604   1.195   5.555
 9170POPC   PO446872  41.517   1.183   5.855
 9170POPC   GL146873  41.540   1.220   6.155
 9170POPC   GL246874  41.612   1.113   6.155
 9170POPC   C1A46875  41.512   1.200   6.455
 9170POPC   D2A46876  41.541   1.223   6.755
 9170POPC   C3A46877  41.570   1.254   7.055
 9170POPC   C4A46878  41.592   1.251   7.355
 9170POPC   C1B46879  41.671   1.010   6.455
 9170POPC   C2B46880  41.633   0.961   6.755
 9170POPC   C3B46881  41.627   1.012   7.055
 9170POPC   C4B46882  41.669   0.974   7.355
 9171POPC   NC346883   5.108  34.542   5.555
 9171POPC   PO446884   5.074  34.576   5.855
 9171POPC   GL146885   5.128  34.589   6.155
 9171POPC   GL246886   5.003  34.594   6.155
 9171POPC   C1A46887   5.044  34.570   6.455
 9171POPC   D2A46888   5.099  34.571   6.755
 9171POPC   C3A46889   5.089  34.600   7.055
 9171POPC   C4A46890   5.084  34.544   7.355
 9171POPC   C1B46891   4.845  34.551   6.455
 9171POPC   C2B46892   4.850  34.563   6.755
 9171POPC   C3B46893   4.874  34.499   7.055
 9171POPC   C4B46894   4.799  34.582   7.355
 9172POPC   NC346895  35.326  22.144   5.555
 9172POPC   PO446896  35.360  22.138   5.855
 9172POPC   GL146897  35.324  22.197   6.155
 9172POPC   GL246898  35.445  22.065   6.155
 9172POPC   C1A46899  35.377  22.130   6.455
 9172POPC   D2A46900  35.321  22.187   6.755
 9172POPC   C3A46901  35.335  22.177   7.055
 9172POPC   C4A46902  35.307  22.188   7.355
 9172POPC   C1B46903  35.608  22.020   6.455
 9172POPC   C2B46904  35.556  22.028   6.755
 9172POPC   C3B46905  35.605  22.053   7.055
 9172POPC   C4B46906  35.543  22.074   7.355
 9173POPC   NC346907   6.668  39.217   5.555
 9173POPC   PO446908   6.681  39.267   5.855
 9173POPC   GL146909   6.688  39.195   6.155
 9173POPC   GL246910   6.570  39.135   6.155
 9173POPC   C1A46911   6.692  39.228   6.455
 9173POPC   D2A46912   6.608  39.224   6.755
 9173POPC   C3A46913   6.646  39.189   7.055
 9173POPC   C4A46914   6.601  39.246   7.355
 9173POPC   C1B46915   6.403  39.090   6.455
 9173POPC   C2B46916   6.474  39.081   6.755
 9173POPC   C3B46917   6.388  39.122   7.055
 9173POPC   C4B46918   6.430  39.102   7.355
 9174POPC   NC346919  12.109  39.982   5.555
 9174POPC   PO446920  12.101  39.960   5.855
 9174POPC   GL146921  12.115  40.016   6.155
 9174POPC   GL246922  12.090  39.931   6.155
 9174POPC   C1A46923  12.101  40.017   6.455
 9174POPC   D2A46924  12.117  40.015   6.755
 9174POPC   C3A46925  12.034  40.056   7.055
 9174POPC   C4A46926  12.124  40.017   7.355
 9174POPC   C1B46927  12.106  39.755   6.455
 9174POPC   C2B46928  12.120  39.797   6.755
 9174POPC   C3B46929  12.118  39.795   7.055
 9174POPC   C4B46930  12.110  39.769   7.355
 9175POPC   NC346931  24.537  15.924   5.555
 9175POPC   PO446932  24.462  15.923   5.855
 9175POPC   GL146933  24.448  15.940   6.155
 9175POPC   GL246934  24.568  15.934   6.155
 9175POPC   C1A46935  24.491  15.941   6.455
 9175POPC   D2A46936  24.531  15.931   6.755
 9175POPC   C3A46937  24.533  15.923   7.055
 9175POPC   C4A46938  24.510  15.938   7.355
 9175POPC   C1B46939  24.739  16.023   6.455
 9175POPC   C2B46940  24.717  15.955   6.755
 9175POPC   C3B46941  24.707  16.024   7.055
 9175POPC   C4B46942  24.761  16.035   7.355
 9176POPC   NC346943  11.294   9.701   5.555
 9176POPC   PO446944  11.305   9.730   5.855
 9176POPC   GL146945  11.343   9.753   6.155
 9176POPC   GL246946  11.213   9.774   6.155
 9176POPC   C1A46947  11.260   9.727   6.455
 9176POPC   D2A46948  11.313   9.737   6.755
 9176POPC   C3A46949  11.276   9.737   7.055
 9176POPC   C4A46950  11.268   9.756   7.355
 9176POPC   C1B46951  11.072   9.837   6.455
 9176POPC   C2B46952  11.061   9.900   6.755
 9176POPC   C3B46953  11.102   9.860   7.055
 9176POPC   C4B46954  11.024   9.885   7.355
 9177POPC   NC346955  22.140  12.806   5.555
 9177POPC   PO446956  22.200  12.831   5.855
 9177POPC   GL146957  22.154  12.841   6.155
 9177POPC   GL246958  22.299  12.965   6.155
 9177POPC   C1A46959  22.117  12.853   6.455
 9177POPC   D2A46960  22.137  12.892   6.755
 9177POPC   C3A46961  22.117  12.850   7.055
 9177POPC   C4A46962  22.167  12.843   7.355
 9177POPC   C1B46963  22.325  12.984   6.455
 9177POPC   C2B46964  22.371  13.068   6.755
 9177POPC   C3B46965  22.388  13.035   7.055
 9177POPC   C4B46966  22.393  13.060   7.355
 9178POPC   NC346967   7.393  17.534   5.555
 9178POPC   PO446968   7.427  17.547   5.855
 9178POPC   GL146969   7.439  17.481   6.155
 9178POPC   GL246970   7.253  17.501   6.155
 9178POPC   C1A46971   7.423  17.542   6.455
 9178POPC   D2A46972   7.439  17.497   6.755
 9178POPC   C3A46973   7.447  17.507   7.055
 9178POPC   C4A46974   7.442  17.521   7.355
 9178POPC   C1B46975   7.192  17.583   6.455
 9178POPC   C2B46976   7.154  17.543   6.755
 9178POPC   C3B46977   7.184  17.550   7.055
 9178POPC   C4B46978   7.178  17.507   7.355
 9179POPC   NC346979  24.464  40.760   5.555
 9179POPC   PO446980  24.475  40.813   5.855
 9179POPC   GL146981  24.509  40.805   6.155
 9179POPC   GL246982  24.343  40.741   6.155
 9179POPC   C1A46983  24.452  40.789   6.455
 9179POPC   D2A46984  24.517  40.807   6.755
 9179POPC   C3A46985  24.535  40.797   7.055
 9179POPC   C4A46986  24.490  40.808   7.355
 9179POPC   C1B46987  24.198  40.741   6.455
 9179POPC   C2B46988  24.259  40.785   6.755
 9179POPC   C3B46989  24.244  40.754   7.055
 9179POPC   C4B46990  24.238  40.780   7.355
 9180POPC   NC346991  14.401  40.775   5.555
 9180POPC   PO446992  14.369  40.779   5.855
 9180POPC   GL146993  14.374  40.745   6.155
 9180POPC   GL246994  14.319  40.704   6.155
 9180POPC   C1A46995  14.433  40.762   6.455
 9180POPC   D2A46996  14.406  40.744   6.755
 9180POPC   C3A46997  14.379  40.778   7.055
 9180POPC   C4A46998  14.360  40.774   7.355
 9180POPC   C1B46999  14.244  40.672   6.455
 9180POPC   C2B47000  14.208  40.640   6.755
 9180POPC   C3B47001  14.187  40.683   7.055
 9180POPC   C4B47002  14.206  40.687   7.355
 9181POPC   NC347003   9.780   0.431   5.555
 9181POPC   PO447004   9.793   0.389   5.855
 9181POPC   GL147005   9.771   0.439   6.155
 9181POPC   GL247006   9.700   0.601   6.155
 9181POPC   C1A47007   9.744   0.422   6.455
 9181POPC   D2A47008   9.731   0.477   6.755
 9181POPC   C3A47009   9.785   0.433   7.055
 9181POPC   C4A47010   9.742   0.472   7.355
 9181POPC   C1B47011   9.749   0.700   6.455
 9181POPC   C2B47012   9.739   0.660   6.755
 9181POPC   C3B47013   9.732   0.679   7.055
 9181POPC   C4B47014   9.699   0.715   7.355
 9182POPC   NC347015   2.802  15.139   5.555
 9182POPC   PO447016   2.779  15.179   5.855
 9182POPC   GL147017   2.793  15.141   6.155
 9182POPC   GL247018   2.615  15.191   6.155
 9182POPC   C1A47019   2.795  15.199   6.455
 9182POPC   D2A47020   2.763  15.212   6.755
 9182POPC   C3A47021   2.792  15.184   7.055
 9182POPC   C4A47022   2.786  15.224   7.355
 9182POPC   C1B47023   2.482  15.190   6.455
 9182POPC   C2B47024   2.516  15.207   6.755
 9182POPC   C3B47025   2.525  15.135   7.055
 9182POPC   C4B47026   2.493  15.157   7.355
 9183POPC   NC347027  21.337  40.805   5.555
 9183POPC   PO447028  21.336  40.733   5.855
 9183POPC   GL147029  21.345  40.734   6.155
 9183POPC   GL247030  21.303  40.710   6.155
 9183POPC   C1A47031  21.408  40.785   6.455
 9183POPC   D2A47032  21.378  40.759   6.755
 9183POPC   C3A47033  21.359  40.802   7.055
 9183POPC   C4A47034  21.399  40.800   7.355
 9183POPC   C1B47035  21.143  40.652   6.455
 9183POPC   C2B47036  21.230  40.665   6.755
 9183POPC   C3B47037  21.205  40.626   7.055
 9183POPC   C4B47038  21.220  40.650   7.355
 9184POPC   NC347039   1.978  36.082   5.555
 9184POPC   PO447040   1.999  36.091   5.855
 9184POPC   GL147041   1.996  36.125   6.155
 9184POPC   GL247042   1.906  36.062   6.155
 9184POPC   C1A47043   1.961  36.081   6.455
 9184POPC   D2A47044   1.991  36.150   6.755
 9184POPC   C3A47045   1.948  36.105   7.055
 9184POPC   C4A47046   1.959  36.109   7.355
 9184POPC   C1B47047   1.836  36.003   6.455
 9184POPC   C2B47048   1.774  35.934   6.755
 9184POPC   C3B47049   1.747  36.011   7.055
 9184POPC   C4B47050   1.782  35.989   7.355
 9185POPC   NC347051  18.317   7.441   5.555
 9185POPC   PO447052  18.258   7.422   5.855
 9185POPC   GL147053  18.239   7.463   6.155
 9185POPC   GL247054  18.274   7.559   6.155
 9185POPC   C1A47055  18.261   7.454   6.455
 9185POPC   D2A47056  18.321   7.402   6.755
 9185POPC   C3A47057  18.255   7.444   7.055
 9185POPC   C4A47058  18.265   7.403   7.355
 9185POPC   C1B47059  18.175   7.688   6.455
 9185POPC   C2B47060  18.216   7.630   6.755
 9185POPC   C3B47061  18.127   7.689   7.055
 9185POPC   C4B47062  18.128   7.635   7.355
 9186POPC   NC347063  14.448  19.809   5.555
 9186POPC   PO447064  14.426  19.855   5.855
 9186POPC   GL147065  14.449  19.859   6.155
 9186POPC   GL247066  14.380  19.730   6.155
 9186POPC   C1A47067  14.364  19.796   6.455
 9186POPC   D2A47068  14.355  19.858   6.755
 9186POPC   C3A47069  14.427  19.817   7.055
 9186POPC   C4A47070  14.410  19.872   7.355
 9186POPC   C1B47071  14.393  19.553   6.455
 9186POPC   C2B47072  14.423  19.575   6.755
 9186POPC   C3B47073  14.472  19.628   7.055
 9186POPC   C4B47074  14.460  19.612   7.355
 9187POPC   NC347075  30.650  44.686   5.555
 9187POPC   PO447076  30.703  44.642   5.855
 9187POPC   GL147077  30.711  44.651   6.155
 9187POPC   GL247078  30.578  44.770   6.155
 9187POPC   C1A47079  30.649  44.638   6.455
 9187POPC   D2A47080  30.650  44.682   6.755
 9187POPC   C3A47081  30.685  44.694   7.055
 9187POPC   C4A47082  30.688  44.695   7.355
 9187POPC   C1B47083  30.523  44.909   6.455
 9187POPC   C2B47084  30.530  44.843   6.755
 9187POPC   C3B47085  30.601  44.915   7.055
 9187POPC   C4B47086  30.537  44.823   7.355
 9188POPC   NC347087   3.563  43.111   5.555
 9188POPC   PO447088   3.543  43.093   5.855
 9188POPC   GL147089   3.536  43.101   6.155
 9188POPC   GL247090   3.445  43.247   6.155
 9188POPC   C1A47091   3.583  43.151   6.455
 9188POPC   D2A47092   3.530  43.138   6.755
 9188POPC   C3A47093   3.521  43.148   7.055
 9188POPC   C4A47094   3.526  43.106   7.355
 9188POPC   C1B47095   3.388  43.299   6.455
 9188POPC   C2B47096   3.428  43.270   6.755
 9188POPC   C3B47097   3.377  43.311   7.055
 9188POPC   C4B47098   3.340  43.293   7.355
 9189POPC   NC347099   7.371  39.275   5.555
 9189POPC   PO447100   7.393  39.204   5.855
 9189POPC   GL147101   7.397  39.236   6.155
 9189POPC   GL247102   7.532  39.312   6.155
 9189POPC   C1A47103   7.417  39.228   6.455
 9189POPC   D2A47104   7.462  39.205   6.755
 9189POPC   C3A47105   7.410  39.257   7.055
 9189POPC   C4A47106   7.413  39.251   7.355
 9189POPC   C1B47107   7.546  39.456   6.455
 9189POPC   C2B47108   7.630  39.436   6.755
 9189POPC   C3B47109   7.606  39.430   7.055
 9189POPC   C4B47110   7.568  39.445   7.355
 9190POPC   NC347111  16.731  44.696   5.555
 9190POPC   PO447112  16.757  44.665   5.855
 9190POPC   GL147113  16.774  44.689   6.155
 9190POPC   GL247114  16.894  44.687   6.155
 9190POPC   C1A47115  16.698  44.710   6.455
 9190POPC   D2A47116  16.771  44.694   6.755
 9190POPC   C3A47117  16.760  44.616   7.055
 9190POPC   C4A47118  16.756  44.673   7.355
 9190POPC   C1B47119  17.003  44.744   6.455
 9190POPC   C2B47120  16.979  44.761   6.755
 9190POPC   C3B47121  16.980  44.803   7.055
 9190POPC   C4B47122  16.963  44.727   7.355
 9191POPC   NC347123  12.861  20.625   5.555
 9191POPC   PO447124  12.882  20.604   5.855
 9191POPC   GL147125  12.865  20.576   6.155
 9191POPC   GL247126  12.996  20.528   6.155
 9191POPC   C1A47127  12.856  20.601   6.455
 9191POPC   D2A47128  12.866  20.563   6.755
 9191POPC   C3A47129  12.873  20.641   7.055
 9191POPC   C4A47130  12.902  20.596   7.355
 9191POPC   C1B47131  13.048  20.505   6.455
 9191POPC   C2B47132  13.053  20.442   6.755
 9191POPC   C3B47133  13.015  20.430   7.055
 9191POPC   C4B47134  13.048  20.482   7.355
 9192POPC   NC347135  26.005   2.036   5.555
 9192POPC   PO447136  26.007   1.943   5.855
 9192POPC   GL147137  26.041   1.987   6.155
 9192POPC   GL247138  25.907   2.100   6.155
 9192POPC   C1A47139  26.069   1.957   6.455
 9192POPC   D2A47140  26.080   2.005   6.755
 9192POPC   C3A47141  26.083   2.001   7.055
 9192POPC   C4A47142  26.042   1.988   7.355
 9192POPC   C1B47143  25.842   2.173   6.455
 9192POPC   C2B47144  25.816   2.184   6.755
 9192POPC   C3B47145  25.850   2.162   7.055
 9192POPC   C4B47146  25.844   2.187   7.355
 9193POPC   NC347147  38.461  24.501   5.555
 9193POPC   PO447148  38.473  24.522   5.855
 9193POPC   GL147149  38.441  24.539   6.155
 9193POPC   GL247150  38.416  24.626   6.155
 9193POPC   C1A47151  38.458  24.510   6.455
 9193POPC   D2A47152  38.425  24.503   6.755
 9193POPC   C3A47153  38.433  24.526   7.055
 9193POPC   C4A47154  38.419  24.525   7.355
 9193POPC   C1B47155  38.324  24.726   6.455
 9193POPC   C2B47156  38.275  24.647   6.755
 9193POPC   C3B47157  38.306  24.674   7.055
 9193POPC   C4B47158  38.264  24.657   7.355
 9194POPC   NC347159   5.122  11.324   5.555
 9194POPC   PO447160   5.092  11.275   5.855
 9194POPC   GL147161   5.079  11.271   6.155
 9194POPC   GL247162   5.107  11.427   6.155
 9194POPC   C1A47163   5.098  11.259   6.455
 9194POPC   D2A47164   5.077  11.316   6.755
 9194POPC   C3A47165   5.064  11.271   7.055
 9194POPC   C4A47166   5.077  11.339   7.355
 9194POPC   C1B47167   5.145  11.505   6.455
 9194POPC   C2B47168   5.216  11.550   6.755
 9194POPC   C3B47169   5.177  11.519   7.055
 9194POPC   C4B47170   5.155  11.539   7.355
 9195POPC   NC347171  43.115  33.019   5.555
 9195POPC   PO447172  43.115  32.975   5.855
 9195POPC   GL147173  43.123  33.024   6.155
 9195POPC   GL247174  43.215  33.031   6.155
 9195POPC   C1A47175  43.114  33.013   6.455
 9195POPC   D2A47176  43.086  33.072   6.755
 9195POPC   C3A47177  43.114  32.993   7.055
 9195POPC   C4A47178  43.100  32.981   7.355
 9195POPC   C1B47179  43.398  32.976   6.455
 9195POPC   C2B47180  43.408  32.997   6.755
 9195POPC   C3B47181  43.390  32.990   7.055
 9195POPC   C4B47182  43.318  33.015   7.355
 9196POPC   NC347183  33.051  22.161   5.555
 9196POPC   PO447184  33.029  22.164   5.855
 9196POPC   GL147185  33.005  22.114   6.155
 9196POPC   GL247186  33.086  22.198   6.155
 9196POPC   C1A47187  33.043  22.143   6.455
 9196POPC   D2A47188  33.035  22.206   6.755
 9196POPC   C3A47189  33.007  22.165   7.055
 9196POPC   C4A47190  33.069  22.161   7.355
 9196POPC   C1B47191  33.214  22.358   6.455
 9196POPC   C2B47192  33.182  22.350   6.755
 9196POPC   C3B47193  33.230  22.294   7.055
 9196POPC   C4B47194  33.167  22.285   7.355
 9197POPC   NC347195   5.911  35.330   5.555
 9197POPC   PO447196   5.852  35.356   5.855
 9197POPC   GL147197   5.902  35.347   6.155
 9197POPC   GL247198   5.995  35.449   6.155
 9197POPC   C1A47199   5.829  35.323   6.455
 9197POPC   D2A47200   5.881  35.308   6.755
 9197POPC   C3A47201   5.824  35.379   7.055
 9197POPC   C4A47202   5.896  35.400   7.355
 9197POPC   C1B47203   6.124  35.423   6.455
 9197POPC   C2B47204   6.059  35.432   6.755
 9197POPC   C3B47205   6.130  35.429   7.055
 9197POPC   C4B47206   6.056  35.509   7.355
 9198POPC   NC347207  38.419  41.560   5.555
 9198POPC   PO447208  38.475  41.589   5.855
 9198POPC   GL147209  38.453  41.510   6.155
 9198POPC   GL247210  38.439  41.683   6.155
 9198POPC   C1A47211  38.432  41.544   6.455
 9198POPC   D2A47212  38.495  41.537   6.755
 9198POPC   C3A47213  38.420  41.512   7.055
 9198POPC   C4A47214  38.478  41.557   7.355
 9198POPC   C1B47215  38.329  41.818   6.455
 9198POPC   C2B47216  38.337  41.797   6.755
 9198POPC   C3B47217  38.357  41.768   7.055
 9198POPC   C4B47218  38.381  41.745   7.355
 9199POPC   NC347219  27.594  41.575   5.555
 9199POPC   PO447220  27.572  41.594   5.855
 9199POPC   GL147221  27.611  41.568   6.155
 9199POPC   GL247222  27.489  41.635   6.155
 9199POPC   C1A47223  27.555  41.584   6.455
 9199POPC   D2A47224  27.570  41.594   6.755
 9199POPC   C3A47225  27.573  41.519   7.055
 9199POPC   C4A47226  27.634  41.582   7.355
 9199POPC   C1B47227  27.439  41.775   6.455
 9199POPC   C2B47228  27.446  41.759   6.755
 9199POPC   C3B47229  27.482  41.795   7.055
 9199POPC   C4B47230  27.423  41.751   7.355
 9200POPC   NC347231  35.340  15.160   5.555
 9200POPC   PO447232  35.382  15.210   5.855
 9200POPC   GL147233  35.337  15.193   6.155
 9200POPC   GL247234  35.247  15.121   6.155
 9200POPC   C1A47235  35.312  15.196   6.455
 9200POPC   D2A47236  35.333  15.147   6.755
 9200POPC   C3A47237  35.366  15.186   7.055
 9200POPC   C4A47238  35.349  15.194   7.355
 9200POPC   C1B47239  35.165  15.036   6.455
 9200POPC   C2B47240  35.153  14.956   6.755
 9200POPC   C3B47241  35.134  15.013   7.055
 9200POPC   C4B47242  35.178  15.040   7.355
 9201POPC   NC347243  28.326  38.473   5.555
 9201POPC   PO447244  28.374  38.468   5.855
 9201POPC   GL147245  28.342  38.414   6.155
 9201POPC   GL247246  28.518  38.434   6.155
 9201POPC   C1A47247  28.335  38.457   6.455
 9201POPC   D2A47248  28.354  38.455   6.755
 9201POPC   C3A47249  28.391  38.428   7.055
 9201POPC   C4A47250  28.410  38.471   7.355
 9201POPC   C1B47251  28.561  38.363   6.455
 9201POPC   C2B47252  28.606  38.365   6.755
 9201POPC   C3B47253  28.542  38.301   7.055
 9201POPC   C4B47254  28.570  38.304   7.355
 9202POPC   NC347255  34.622  35.369   5.555
 9202POPC   PO447256  34.616  35.364   5.855
 9202POPC   GL147257  34.580  35.369   6.155
 9202POPC   GL247258  34.572  35.251   6.155
 9202POPC   C1A47259  34.528  35.332   6.455
 9202POPC   D2A47260  34.608  35.327   6.755
 9202POPC   C3A47261  34.612  35.383   7.055
 9202POPC   C4A47262  34.615  35.329   7.355
 9202POPC   C1B47263  34.502  35.056   6.455
 9202POPC   C2B47264  34.592  35.148   6.755
 9202POPC   C3B47265  34.567  35.102   7.055
 9202POPC   C4B47266  34.554  35.091   7.355
 9203POPC   NC347267  17.528  15.190   5.555
 9203POPC   PO447268  17.470  15.173   5.855
 9203POPC   GL147269  17.509  15.210   6.155
 9203POPC   GL247270  17.428  15.069   6.155
 9203POPC   C1A47271  17.529  15.159   6.455
 9203POPC   D2A47272  17.531  15.202   6.755
 9203POPC   C3A47273  17.556  15.200   7.055
 9203POPC   C4A47274  17.521  15.195   7.355
 9203POPC   C1B47275  17.454  14.972   6.455
 9203POPC   C2B47276  17.408  14.966   6.755
 9203POPC   C3B47277  17.425  14.968   7.055
 9203POPC   C4B47278  17.470  14.960   7.355
 9204POPC   NC347279  22.920  12.872   5.555
 9204POPC   PO447280  22.973  12.895   5.855
 9204POPC   GL147281  22.902  12.817   6.155
 9204POPC   GL247282  22.886  13.010   6.155
 9204POPC   C1A47283  22.967  12.882   6.455
 9204POPC   D2A47284  22.982  12.830   6.755
 9204POPC   C3A47285  22.918  12.865   7.055
 9204POPC   C4A47286  22.952  12.845   7.355
 9204POPC   C1B47287  22.857  13.043   6.455
 9204POPC   C2B47288  22.820  13.066   6.755
 9204POPC   C3B47289  22.825  13.034   7.055
 9204POPC   C4B47290  22.853  13.107   7.355
 9205POPC   NC347291  38.463   6.694   5.555
 9205POPC   PO447292  38.438   6.599   5.855
 9205POPC   GL147293  38.495   6.667   6.155
 9205POPC   GL247294  38.549   6.527   6.155
 9205POPC   C1A47295  38.495   6.678   6.455
 9205POPC   D2A47296  38.455   6.656   6.755
 9205POPC   C3A47297  38.464   6.685   7.055
 9205POPC   C4A47298  38.464   6.681   7.355
 9205POPC   C1B47299  38.587   6.403   6.455
 9205POPC   C2B47300  38.653   6.401   6.755
 9205POPC   C3B47301  38.589   6.478   7.055
 9205POPC   C4B47302  38.627   6.399   7.355
 9206POPC   NC347303  19.063  43.157   5.555
 9206POPC   PO447304  19.072  43.063   5.855
 9206POPC   GL147305  19.093  43.134   6.155
 9206POPC   GL247306  18.944  43.236   6.155
 9206POPC   C1A47307  19.083  43.154   6.455
 9206POPC   D2A47308  19.020  43.141   6.755
 9206POPC   C3A47309  19.074  43.121   7.055
 9206POPC   C4A47310  19.052  43.089   7.355
 9206POPC   C1B47311  18.934  43.291   6.455
 9206POPC   C2B47312  18.898  43.306   6.755
 9206POPC   C3B47313  18.850  43.313   7.055
 9206POPC   C4B47314  18.863  43.299   7.355
 9207POPC   NC347315  42.323  10.480   5.555
 9207POPC   PO447316  42.363  10.522   5.855
 9207POPC   GL147317  42.323  10.487   6.155
 9207POPC   GL247318  42.417  10.491   6.155
 9207POPC   C1A47319  42.326  10.474   6.455
 9207POPC   D2A47320  42.371  10.542   6.755
 9207POPC   C3A47321  42.322  10.528   7.055
 9207POPC   C4A47322  42.374  10.519   7.355
 9207POPC   C1B47323  42.528  10.352   6.455
 9207POPC   C2B47324  42.502  10.327   6.755
 9207POPC   C3B47325  42.558  10.315   7.055
 9207POPC   C4B47326  42.573  10.407   7.355
 9208POPC   NC347327  39.198  14.377   5.555
 9208POPC   PO447328  39.279  14.394   5.855
 9208POPC   GL147329  39.239  14.363   6.155
 9208POPC   GL247330  39.258  14.496   6.155
 9208POPC   C1A47331  39.276  14.428   6.455
 9208POPC   D2A47332  39.186  14.392   6.755
 9208POPC   C3A47333  39.182  14.413   7.055
 9208POPC   C4A47334  39.279  14.365   7.355
 9208POPC   C1B47335  39.219  14.650   6.455
 9208POPC   C2B47336  39.228  14.621   6.755
 9208POPC   C3B47337  39.181  14.612   7.055
 9208POPC   C4B47338  39.189  14.610   7.355
 9209POPC   NC347339  10.491  28.321   5.555
 9209POPC   PO447340  10.525  28.361   5.855
 9209POPC   GL147341  10.517  28.385   6.155
 9209POPC   GL247342  10.582  28.268   6.155
 9209POPC   C1A47343  10.520  28.373   6.455
 9209POPC   D2A47344  10.482  28.380   6.755
 9209POPC   C3A47345  10.533  28.335   7.055
 9209POPC   C4A47346  10.486  28.371   7.355
 9209POPC   C1B47347  10.589  28.143   6.455
 9209POPC   C2B47348  10.626  28.104   6.755
 9209POPC   C3B47349  10.624  28.108   7.055
 9209POPC   C4B47350  10.638  28.136   7.355
 9210POPC   NC347351   7.390  13.625   5.555
 9210POPC   PO447352   7.456  13.659   5.855
 9210POPC   GL147353   7.426  13.604   6.155
 9210POPC   GL247354   7.524  13.707   6.155
 9210POPC   C1A47355   7.417  13.611   6.455
 9210POPC   D2A47356   7.377  13.638   6.755
 9210POPC   C3A47357   7.470  13.653   7.055
 9210POPC   C4A47358   7.416  13.669   7.355
 9210POPC   C1B47359   7.542  13.846   6.455
 9210POPC   C2B47360   7.604  13.849   6.755
 9210POPC   C3B47361   7.525  13.818   7.055
 9210POPC   C4B47362   7.593  13.837   7.355
 9211POPC   NC347363  34.612   5.831   5.555
 9211POPC   PO447364  34.569   5.842   5.855
 9211POPC   GL147365  34.576   5.835   6.155
 9211POPC   GL247366  34.480   5.789   6.155
 9211POPC   C1A47367  34.592   5.917   6.455
 9211POPC   D2A47368  34.576   5.895   6.755
 9211POPC   C3A47369  34.592   5.866   7.055
 9211POPC   C4A47370  34.557   5.827   7.355
 9211POPC   C1B47371  34.300   5.794   6.455
 9211POPC   C2B47372  34.311   5.813   6.755
 9211POPC   C3B47373  34.341   5.819   7.055
 9211POPC   C4B47374  34.331   5.739   7.355
 9212POPC   NC347375   4.366  38.461   5.555
 9212POPC   PO447376   4.271  38.409   5.855
 9212POPC   GL147377   4.286  38.425   6.155
 9212POPC   GL247378   4.413  38.338   6.155
 9212POPC   C1A47379   4.331  38.450   6.455
 9212POPC   D2A47380   4.306  38.438   6.755
 9212POPC   C3A47381   4.327  38.420   7.055
 9212POPC   C4A47382   4.326  38.442   7.355
 9212POPC   C1B47383   4.460  38.280   6.455
 9212POPC   C2B47384   4.471  38.209   6.755
 9212POPC   C3B47385   4.501  38.232   7.055
 9212POPC   C4B47386   4.489  38.213   7.355
 9213POPC   NC347387  26.033  34.606   5.555
 9213POPC   PO447388  26.012  34.573   5.855
 9213POPC   GL147389  26.007  34.570   6.155
 9213POPC   GL247390  25.906  34.650   6.155
 9213POPC   C1A47391  25.992  34.560   6.455
 9213POPC   D2A47392  26.007  34.607   6.755
 9213POPC   C3A47393  26.028  34.620   7.055
 9213POPC   C4A47394  26.071  34.604   7.355
 9213POPC   C1B47395  25.755  34.681   6.455
 9213POPC   C2B47396  25.816  34.690   6.755
 9213POPC   C3B47397  25.813  34.663   7.055
 9213POPC   C4B47398  25.821  34.615   7.355
 9214POPC   NC347399  15.211   3.494   5.555
 9214POPC   PO447400  15.172   3.565   5.855
 9214POPC   GL147401  15.206   3.566   6.155
 9214POPC   GL247402  15.095   3.489   6.155
 9214POPC   C1A47403  15.144   3.498   6.455
 9214POPC   D2A47404  15.142   3.552   6.755
 9214POPC   C3A47405  15.137   3.508   7.055
 9214POPC   C4A47406  15.198   3.534   7.355
 9214POPC   C1B47407  14.980   3.349   6.455
 9214POPC   C2B47408  15.002   3.304   6.755
 9214POPC   C3B47409  15.070   3.337   7.055
 9214POPC   C4B47410  15.062   3.390   7.355
 9215POPC   NC347411  19.057  15.177   5.555
 9215POPC   PO447412  19.014  15.222   5.855
 9215POPC   GL147413  19.092  15.221   6.155
 9215POPC   GL247414  19.167  15.232   6.155
 9215POPC   C1A47415  19.022  15.202   6.455
 9215POPC   D2A47416  19.062  15.208   6.755
 9215POPC   C3A47417  19.050  15.149   7.055
 9215POPC   C4A47418  19.069  15.153   7.355
 9215POPC   C1B47419  19.302  15.298   6.455
 9215POPC   C2B47420  19.259  15.326   6.755
 9215POPC   C3B47421  19.272  15.336   7.055
 9215POPC   C4B47422  19.215  15.306   7.355
 9216POPC   NC347423   4.325  15.932   5.555
 9216POPC   PO447424   4.299  15.931   5.855
 9216POPC   GL147425   4.360  16.003   6.155
 9216POPC   GL247426   4.239  15.967   6.155
 9216POPC   C1A47427   4.358  16.004   6.455
 9216POPC   D2A47428   4.280  15.924   6.755
 9216POPC   C3A47429   4.356  15.996   7.055
 9216POPC   C4A47430   4.275  15.968   7.355
 9216POPC   C1B47431   4.034  15.939   6.455
 9216POPC   C2B47432   4.107  15.940   6.755
 9216POPC   C3B47433   4.034  15.918   7.055
 9216POPC   C4B47434   4.079  15.894   7.355
 9217POPC   NC347435  31.510  17.464   5.555
 9217POPC   PO447436  31.468  17.501   5.855
 9217POPC   GL147437  31.477  17.554   6.155
 9217POPC   GL247438  31.609  17.546   6.155
 9217POPC   C1A47439  31.493  17.481   6.455
 9217POPC   D2A47440  31.430  17.503   6.755
 9217POPC   C3A47441  31.431  17.465   7.055
 9217POPC   C4A47442  31.459  17.482   7.355
 9217POPC   C1B47443  31.711  17.530   6.455
 9217POPC   C2B47444  31.711  17.455   6.755
 9217POPC   C3B47445  31.672  17.480   7.055
 9217POPC   C4B47446  31.772  17.451   7.355
 9218POPC   NC347447  36.120  35.350   5.555
 9218POPC   PO447448  36.153  35.322   5.855
 9218POPC   GL147449  36.088  35.369   6.155
 9218POPC   GL247450  36.278  35.294   6.155
 9218POPC   C1A47451  36.095  35.358   6.455
 9218POPC   D2A47452  36.121  35.371   6.755
 9218POPC   C3A47453  36.116  35.307   7.055
 9218POPC   C4A47454  36.156  35.359   7.355
 9218POPC   C1B47455  36.320  35.211   6.455
 9218POPC   C2B47456  36.340  35.258   6.755
 9218POPC   C3B47457  36.383  35.268   7.055
 9218POPC   C4B47458  36.383  35.250   7.355
 9219POPC   NC347459  28.406  20.590   5.555
 9219POPC   PO447460  28.375  20.647   5.855
 9219POPC   GL147461  28.352  20.606   6.155
 9219POPC   GL247462  28.390  20.459   6.155
 9219POPC   C1A47463  28.333  20.630   6.455
 9219POPC   D2A47464  28.365  20.582   6.755
 9219POPC   C3A47465  28.369  20.603   7.055
 9219POPC   C4A47466  28.355  20.605   7.355
 9219POPC   C1B47467  28.397  20.396   6.455
 9219POPC   C2B47468  28.396  20.372   6.755
 9219POPC   C3B47469  28.403  20.400   7.055
 9219POPC   C4B47470  28.416  20.404   7.355
 9220POPC   NC347471  19.812  36.935   5.555
 9220POPC   PO447472  19.821  36.947   5.855
 9220POPC   GL147473  19.854  36.930   6.155
 9220POPC   GL247474  19.950  36.996   6.155
 9220POPC   C1A47475  19.836  36.940   6.455
 9220POPC   D2A47476  19.835  36.929   6.755
 9220POPC   C3A47477  19.861  36.911   7.055
 9220POPC   C4A47478  19.869  36.873   7.355
 9220POPC   C1B47479  20.102  36.994   6.455
 9220POPC   C2B47480  20.062  36.959   6.755
 9220POPC   C3B47481  20.018  36.972   7.055
 9220POPC   C4B47482  20.016  37.045   7.355
 9221POPC   NC347483  33.000  23.753   5.555
 9221POPC   PO447484  33.071  23.758   5.855
 9221POPC   GL147485  33.015  23.716   6.155
 9221POPC   GL247486  33.059  23.790   6.155
 9221POPC   C1A47487  32.990  23.699   6.455
 9221POPC   D2A47488  33.042  23.761   6.755
 9221POPC   C3A47489  33.064  23.749   7.055
 9221POPC   C4A47490  33.038  23.724   7.355
 9221POPC   C1B47491  33.136  23.920   6.455
 9221POPC   C2B47492  33.164  23.918   6.755
 9221POPC   C3B47493  33.108  23.924   7.055
 9221POPC   C4B47494  33.083  23.916   7.355
 9222POPC   NC347495   1.177  28.338   5.555
 9222POPC   PO447496   1.215  28.350   5.855
 9222POPC   GL147497   1.203  28.322   6.155
 9222POPC   GL247498   1.345  28.381   6.155
 9222POPC   C1A47499   1.202  28.329   6.455
 9222POPC   D2A47500   1.210  28.403   6.755
 9222POPC   C3A47501   1.196  28.417   7.055
 9222POPC   C4A47502   1.190  28.327   7.355
 9222POPC   C1B47503   1.444  28.491   6.455
 9222POPC   C2B47504   1.494  28.414   6.755
 9222POPC   C3B47505   1.402  28.496   7.055
 9222POPC   C4B47506   1.459  28.500   7.355
 9223POPC   NC347507  22.936  17.516   5.555
 9223POPC   PO447508  22.951  17.554   5.855
 9223POPC   GL147509  22.915  17.554   6.155
 9223POPC   GL247510  22.914  17.619   6.155
 9223POPC   C1A47511  22.941  17.465   6.455
 9223POPC   D2A47512  22.961  17.538   6.755
 9223POPC   C3A47513  22.890  17.534   7.055
 9223POPC   C4A47514  22.945  17.505   7.355
 9223POPC   C1B47515  22.811  17.676   6.455
 9223POPC   C2B47516  22.791  17.705   6.755
 9223POPC   C3B47517  22.760  17.711   7.055
 9223POPC   C4B47518  22.786  17.744   7.355
 9224POPC   NC347519  12.851  26.070   5.555
 9224POPC   PO447520  12.828  26.057   5.855
 9224POPC   GL147521  12.828  26.030   6.155
 9224POPC   GL247522  12.768  25.939   6.155
 9224POPC   C1A47523  12.883  26.026   6.455
 9224POPC   D2A47524  12.869  26.055   6.755
 9224POPC   C3A47525  12.871  26.089   7.055
 9224POPC   C4A47526  12.840  26.034   7.355
 9224POPC   C1B47527  12.671  25.858   6.455
 9224POPC   C2B47528  12.627  25.868   6.755
 9224POPC   C3B47529  12.702  25.841   7.055
 9224POPC   C4B47530  12.688  25.919   7.355
 9225POPC   NC347531  23.703  19.866   5.555
 9225POPC   PO447532  23.692  19.850   5.855
 9225POPC   GL147533  23.694  19.882   6.155
 9225POPC   GL247534  23.801  19.716   6.155
 9225POPC   C1A47535  23.667  19.792   6.455
 9225POPC   D2A47536  23.730  19.872   6.755
 9225POPC   C3A47537  23.716  19.846   7.055
 9225POPC   C4A47538  23.670  19.813   7.355
 9225POPC   C1B47539  23.817  19.621   6.455
 9225POPC   C2B47540  23.839  19.656   6.755
 9225POPC   C3B47541  23.825  19.591   7.055
 9225POPC   C4B47542  23.881  19.613   7.355
 9226POPC   NC347543  40.746   3.493   5.555
 9226POPC   PO447544  40.824   3.554   5.855
 9226POPC   GL147545  40.744   3.586   6.155
 9226POPC   GL247546  40.928   3.597   6.155
 9226POPC   C1A47547  40.824   3.534   6.455
 9226POPC   D2A47548  40.798   3.557   6.755
 9226POPC   C3A47549  40.747   3.569   7.055
 9226POPC   C4A47550  40.783   3.569   7.355
 9226POPC   C1B47551  41.030   3.578   6.455
 9226POPC   C2B47552  41.017   3.662   6.755
 9226POPC   C3B47553  41.014   3.592   7.055
 9226POPC   C4B47554  41.039   3.656   7.355
 9227POPC   NC347555  20.650  13.588   5.555
 9227POPC   PO447556  20.565  13.579   5.855
 9227POPC   GL147557  20.640  13.671   6.155
 9227POPC   GL247558  20.539  13.639   6.155
 9227POPC   C1A47559  20.564  13.611   6.455
 9227POPC   D2A47560  20.607  13.611   6.755
 9227POPC   C3A47561  20.632  13.646   7.055
 9227POPC   C4A47562  20.576  13.676   7.355
 9227POPC   C1B47563  20.391  13.606   6.455
 9227POPC   C2B47564  20.372  13.571   6.755
 9227POPC   C3B47565  20.400  13.613   7.055
 9227POPC   C4B47566  20.370  13.578   7.355
 9228POPC   NC347567  21.392   7.400   5.555
 9228POPC   PO447568  21.428   7.454   5.855
 9228POPC   GL147569  21.410   7.400   6.155
 9228POPC   GL247570  21.286   7.414   6.155
 9228POPC   C1A47571  21.346   7.378   6.455
 9228POPC   D2A47572  21.380   7.431   6.755
 9228POPC   C3A47573  21.431   7.390   7.055
 9228POPC   C4A47574  21.376   7.420   7.355
 9228POPC   C1B47575  21.108   7.373   6.455
 9228POPC   C2B47576  21.107   7.425   6.755
 9228POPC   C3B47577  21.130   7.462   7.055
 9228POPC   C4B47578  21.186   7.377   7.355
 9229POPC   NC347579  19.074  36.855   5.555
 9229POPC   PO447580  19.034  36.885   5.855
 9229POPC   GL147581  19.056  36.884   6.155
 9229POPC   GL247582  19.183  36.850   6.155
 9229POPC   C1A47583  19.058  36.912   6.455
 9229POPC   D2A47584  19.060  36.939   6.755
 9229POPC   C3A47585  19.042  36.912   7.055
 9229POPC   C4A47586  19.013  36.931   7.355
 9229POPC   C1B47587  19.286  36.823   6.455
 9229POPC   C2B47588  19.302  36.847   6.755
 9229POPC   C3B47589  19.335  36.832   7.055
 9229POPC   C4B47590  19.337  36.824   7.355
 9230POPC   NC347591  40.776  19.011   5.555
 9230POPC   PO447592  40.744  19.013   5.855
 9230POPC   GL147593  40.800  19.077   6.155
 9230POPC   GL247594  40.728  19.132   6.155
 9230POPC   C1A47595  40.774  19.080   6.455
 9230POPC   D2A47596  40.766  19.049   6.755
 9230POPC   C3A47597  40.734  19.074   7.055
 9230POPC   C4A47598  40.810  19.082   7.355
 9230POPC   C1B47599  40.646  19.320   6.455
 9230POPC   C2B47600  40.691  19.304   6.755
 9230POPC   C3B47601  40.730  19.272   7.055
 9230POPC   C4B47602  40.712  19.298   7.355
 9231POPC   NC347603   5.123  15.152   5.555
 9231POPC   PO447604   5.109  15.152   5.855
 9231POPC   GL147605   5.058  15.198   6.155
 9231POPC   GL247606   5.224  15.154   6.155
 9231POPC   C1A47607   5.064  15.198   6.455
 9231POPC   D2A47608   5.064  15.218   6.755
 9231POPC   C3A47609   5.053  15.187   7.055
 9231POPC   C4A47610   5.084  15.135   7.355
 9231POPC   C1B47611   5.302  15.182   6.455
 9231POPC   C2B47612   5.356  15.138   6.755
 9231POPC   C3B47613   5.388  15.173   7.055
 9231POPC   C4B47614   5.368  15.176   7.355
 9232POPC   NC347615  15.161   9.753   5.555
 9232POPC   PO447616  15.194   9.755   5.855
 9232POPC   GL147617  15.155   9.779   6.155
 9232POPC   GL247618  15.093   9.894   6.155
 9232POPC   C1A47619  15.199   9.755   6.455
 9232POPC   D2A47620  15.213   9.776   6.755
 9232POPC   C3A47621  15.155   9.783   7.055
 9232POPC   C4A47622  15.209   9.738   7.355
 9232POPC   C1B47623  15.045   9.928   6.455
 9232POPC   C2B47624  15.083   9.972   6.755
 9232POPC   C3B47625  15.069   9.965   7.055
 9232POPC   C4B47626  15.001  10.004   7.355
 9233POPC   NC347627  25.996  41.589   5.555
 9233POPC   PO447628  26.020  41.523   5.855
 9233POPC   GL147629  26.024  41.572   6.155
 9233POPC   GL247630  26.137  41.572   6.155
 9233POPC   C1A47631  26.046  41.547   6.455
 9233POPC   D2A47632  26.017  41.572   6.755
 9233POPC   C3A47633  26.071  41.602   7.055
 9233POPC   C4A47634  26.028  41.598   7.355
 9233POPC   C1B47635  26.288  41.574   6.455
 9233POPC   C2B47636  26.269  41.541   6.755
 9233POPC   C3B47637  26.258  41.506   7.055
 9233POPC   C4B47638  26.289  41.547   7.355
 9234POPC   NC347639  11.272   8.933   5.555
 9234POPC   PO447640  11.279   8.966   5.855
 9234POPC   GL147641  11.276   8.938   6.155
 9234POPC   GL247642  11.428   8.976   6.155
 9234POPC   C1A47643  11.343   8.986   6.455
 9234POPC   D2A47644  11.302   8.961   6.755
 9234POPC   C3A47645  11.299   9.006   7.055
 9234POPC   C4A47646  11.310   9.010   7.355
 9234POPC   C1B47647  11.522   9.010   6.455
 9234POPC   C2B47648  11.536   8.950   6.755
 9234POPC   C3B47649  11.562   9.040   7.055
 9234POPC   C4B47650  11.576   8.964   7.355
 9235POPC   NC347651  11.286  36.861   5.555
 9235POPC   PO447652  11.286  36.930   5.855
 9235POPC   GL147653  11.348  36.926   6.155
 9235POPC   GL247654  11.144  36.893   6.155
 9235POPC   C1A47655  11.284  36.906   6.455
 9235POPC   D2A47656  11.319  36.938   6.755
 9235POPC   C3A47657  11.332  36.947   7.055
 9235POPC   C4A47658  11.297  36.934   7.355
 9235POPC   C1B47659  11.017  36.919   6.455
 9235POPC   C2B47660  11.033  36.898   6.755
 9235POPC   C3B47661  11.067  36.954   7.055
 9235POPC   C4B47662  11.050  36.857   7.355
 9236POPC   NC347663   2.747  27.561   5.555
 9236POPC   PO447664   2.811  27.571   5.855
 9236POPC   GL147665   2.778  27.591   6.155
 9236POPC   GL247666   2.914  27.650   6.155
 9236POPC   C1A47667   2.776  27.610   6.455
 9236POPC   D2A47668   2.723  27.551   6.755
 9236POPC   C3A47669   2.749  27.626   7.055
 9236POPC   C4A47670   2.812  27.569   7.355
 9236POPC   C1B47671   3.029  27.686   6.455
 9236POPC   C2B47672   2.938  27.727   6.755
 9236POPC   C3B47673   2.989  27.696   7.055
 9236POPC   C4B47674   2.942  27.693   7.355
 9237POPC   NC347675   6.606  22.122   5.555
 9237POPC   PO447676   6.654  22.192   5.855
 9237POPC   GL147677   6.655  22.211   6.155
 9237POPC   GL247678   6.649  22.255   6.155
 9237POPC   C1A47679   6.625  22.115   6.455
 9237POPC   D2A47680   6.660  22.145   6.755
 9237POPC   C3A47681   6.642  22.120   7.055
 9237POPC   C4A47682   6.601  22.115   7.355
 9237POPC   C1B47683   6.797  22.377   6.455
 9237POPC   C2B47684   6.750  22.343   6.755
 9237POPC   C3B47685   6.738  22.367   7.055
 9237POPC   C4B47686   6.744  22.350   7.355
 9238POPC   NC347687   1.251  13.591   5.555
 9238POPC   PO447688   1.247  13.596   5.855
 9238POPC   GL147689   1.204  13.598   6.155
 9238POPC   GL247690   1.221  13.550   6.155
 9238POPC   C1A47691   1.230  13.664   6.455
 9238POPC   D2A47692   1.186  13.643   6.755
 9238POPC   C3A47693   1.254  13.589   7.055
 9238POPC   C4A47694   1.244  13.588   7.355
 9238POPC   C1B47695   1.186  13.364   6.455
 9238POPC   C2B47696   1.108  13.411   6.755
 9238POPC   C3B47697   1.097  13.342   7.055
 9238POPC   C4B47698   1.104  13.397   7.355
 9239POPC   NC347699  15.962  24.473   5.555
 9239POPC   PO447700  15.973  24.519   5.855
 9239POPC   GL147701  15.930  24.518   6.155
 9239POPC   GL247702  16.108  24.456   6.155
 9239POPC   C1A47703  15.997  24.519   6.455
 9239POPC   D2A47704  15.917  24.517   6.755
 9239POPC   C3A47705  15.966  24.527   7.055
 9239POPC   C4A47706  15.929  24.455   7.355
 9239POPC   C1B47707  16.185  24.432   6.455
 9239POPC   C2B47708  16.228  24.422   6.755
 9239POPC   C3B47709  16.231  24.366   7.055
 9239POPC   C4B47710  16.152  24.429   7.355
 9240POPC   NC347711  41.559   4.324   5.555
 9240POPC   PO447712  41.545   4.357   5.855
 9240POPC   GL147713  41.585   4.272   6.155
 9240POPC   GL247714  41.630   4.228   6.155
 9240POPC   C1A47715  41.567   4.285   6.455
 9240POPC   D2A47716  41.562   4.307   6.755
 9240POPC   C3A47717  41.537   4.338   7.055
 9240POPC   C4A47718  41.573   4.321   7.355
 9240POPC   C1B47719  41.793   4.141   6.455
 9240POPC   C2B47720  41.815   4.148   6.755
 9240POPC   C3B47721  41.722   4.137   7.055
 9240POPC   C4B47722  41.801   4.170   7.355
 9241POPC   NC347723   3.567  15.183   5.555
 9241POPC   PO447724   3.532  15.177   5.855
 9241POPC   GL147725   3.531  15.154   6.155
 9241POPC   GL247726   3.563  15.028   6.155
 9241POPC   C1A47727   3.516  15.170   6.455
 9241POPC   D2A47728   3.530  15.179   6.755
 9241POPC   C3A47729   3.502  15.194   7.055
 9241POPC   C4A47730   3.557  15.141   7.355
 9241POPC   C1B47731   3.509  14.912   6.455
 9241POPC   C2B47732   3.553  14.964   6.755
 9241POPC   C3B47733   3.605  14.969   7.055
 9241POPC   C4B47734   3.563  14.892   7.355
 9242POPC   NC347735  12.882  35.312   5.555
 9242POPC   PO447736  12.875  35.317   5.855
 9242POPC   GL147737  12.836  35.366   6.155
 9242POPC   GL247738  12.725  35.308   6.155
 9242POPC   C1A47739  12.802  35.385   6.455
 9242POPC   D2A47740  12.878  35.360   6.755
 9242POPC   C3A47741  12.834  35.311   7.055
 9242POPC   C4A47742  12.892  35.332   7.355
 9242POPC   C1B47743  12.587  35.241   6.455
 9242POPC   C2B47744  12.615  35.272   6.755
 9242POPC   C3B47745  12.622  35.246   7.055
 9242POPC   C4B47746  12.594  35.248   7.355
 9243POPC   NC347747  11.302   7.381   5.555
 9243POPC   PO447748  11.301   7.384   5.855
 9243POPC   GL147749  11.263   7.421   6.155
 9243POPC   GL247750  11.466   7.401   6.155
 9243POPC   C1A47751  11.274   7.427   6.455
 9243POPC   D2A47752  11.258   7.374   6.755
 9243POPC   C3A47753  11.252   7.426   7.055
 9243POPC   C4A47754  11.309   7.439   7.355
 9243POPC   C1B47755  11.564   7.305   6.455
 9243POPC   C2B47756  11.545   7.339   6.755
 9243POPC   C3B47757  11.512   7.358   7.055
 9243POPC   C4B47758  11.534   7.372   7.355
 9244POPC   NC347759  36.949   9.011   5.555
 9244POPC   PO447760  36.882   8.972   5.855
 9244POPC   GL147761  36.927   8.987   6.155
 9244POPC   GL247762  36.953   9.101   6.155
 9244POPC   C1A47763  36.872   8.969   6.455
 9244POPC   D2A47764  36.946   8.959   6.755
 9244POPC   C3A47765  36.926   8.972   7.055
 9244POPC   C4A47766  36.873   8.984   7.355
 9244POPC   C1B47767  37.066   9.103   6.455
 9244POPC   C2B47768  37.110   9.178   6.755
 9244POPC   C3B47769  37.049   9.125   7.055
 9244POPC   C4B47770  37.037   9.100   7.355
 9245POPC   NC347771  32.210   5.875   5.555
 9245POPC   PO447772  32.276   5.894   5.855
 9245POPC   GL147773  32.255   5.824   6.155
 9245POPC   GL247774  32.337   5.913   6.155
 9245POPC   C1A47775  32.276   5.829   6.455
 9245POPC   D2A47776  32.276   5.875   6.755
 9245POPC   C3A47777  32.252   5.888   7.055
 9245POPC   C4A47778  32.249   5.884   7.355
 9245POPC   C1B47779  32.476   5.987   6.455
 9245POPC   C2B47780  32.449   5.934   6.755
 9245POPC   C3B47781  32.474   5.988   7.055
 9245POPC   C4B47782  32.465   6.009   7.355
 9246POPC   NC347783   5.081  25.306   5.555
 9246POPC   PO447784   5.125  25.288   5.855
 9246POPC   GL147785   5.098  25.283   6.155
 9246POPC   GL247786   5.206  25.224   6.155
 9246POPC   C1A47787   5.095  25.297   6.455
 9246POPC   D2A47788   5.073  25.310   6.755
 9246POPC   C3A47789   5.097  25.280   7.055
 9246POPC   C4A47790   5.104  25.263   7.355
 9246POPC   C1B47791   5.279  25.104   6.455
 9246POPC   C2B47792   5.267  25.176   6.755
 9246POPC   C3B47793   5.338  25.114   7.055
 9246POPC   C4B47794   5.338  25.126   7.355
 9247POPC   NC347795   8.240  42.319   5.555
 9247POPC   PO447796   8.152  42.286   5.855
 9247POPC   GL147797   8.186  42.375   6.155
 9247POPC   GL247798   8.343  42.260   6.155
 9247POPC   C1A47799   8.159  42.354   6.455
 9247POPC   D2A47800   8.183  42.297   6.755
 9247POPC   C3A47801   8.195  42.339   7.055
 9247POPC   C4A47802   8.238  42.315   7.355
 9247POPC   C1B47803   8.452  42.265   6.455
 9247POPC   C2B47804   8.389  42.293   6.755
 9247POPC   C3B47805   8.488  42.256   7.055
 9247POPC   C4B47806   8.446  42.304   7.355
 9248POPC   NC347807  25.244  42.352   5.555
 9248POPC   PO447808  25.292  42.338   5.855
 9248POPC   GL147809  25.219  42.364   6.155
 9248POPC   GL247810  25.200  42.275   6.155
 9248POPC   C1A47811  25.223  42.354   6.455
 9248POPC   D2A47812  25.315  42.369   6.755
 9248POPC   C3A47813  25.238  42.285   7.055
 9248POPC   C4A47814  25.306  42.343   7.355
 9248POPC   C1B47815  25.118  42.172   6.455
 9248POPC   C2B47816  25.110  42.141   6.755
 9248POPC   C3B47817  25.055  42.206   7.055
 9248POPC   C4B47818  25.130  42.152   7.355
 9249POPC   NC347819   4.279  21.343   5.555
 9249POPC   PO447820   4.274  21.396   5.855
 9249POPC   GL147821   4.354  21.429   6.155
 9249POPC   GL247822   4.400  21.367   6.155
 9249POPC   C1A47823   4.326  21.388   6.455
 9249POPC   D2A47824   4.311  21.357   6.755
 9249POPC   C3A47825   4.328  21.435   7.055
 9249POPC   C4A47826   4.324  21.385   7.355
 9249POPC   C1B47827   4.497  21.298   6.455
 9249POPC   C2B47828   4.578  21.272   6.755
 9249POPC   C3B47829   4.523  21.276   7.055
 9249POPC   C4B47830   4.587  21.315   7.355
 9250POPC   NC347831  30.672   7.379   5.555
 9250POPC   PO447832  30.678   7.449   5.855
 9250POPC   GL147833  30.671   7.417   6.155
 9250POPC   GL247834  30.597   7.363   6.155
 9250POPC   C1A47835  30.669   7.388   6.455
 9250POPC   D2A47836  30.710   7.420   6.755
 9250POPC   C3A47837  30.692   7.415   7.055
 9250POPC   C4A47838  30.675   7.394   7.355
 9250POPC   C1B47839  30.605   7.220   6.455
 9250POPC   C2B47840  30.545   7.216   6.755
 9250POPC   C3B47841  30.605   7.160   7.055
 9250POPC   C4B47842  30.565   7.167   7.355
 9251POPC   NC347843   7.386   5.075   5.555
 9251POPC   PO447844   7.418   5.074   5.855
 9251POPC   GL147845   7.452   5.069   6.155
 9251POPC   GL247846   7.443   5.243   6.155
 9251POPC   C1A47847   7.450   5.078   6.455
 9251POPC   D2A47848   7.385   5.093   6.755
 9251POPC   C3A47849   7.423   5.108   7.055
 9251POPC   C4A47850   7.434   5.074   7.355
 9251POPC   C1B47851   7.587   5.310   6.455
 9251POPC   C2B47852   7.589   5.353   6.755
 9251POPC   C3B47853   7.594   5.311   7.055
 9251POPC   C4B47854   7.572   5.294   7.355
 9252POPC   NC347855  25.248   1.943   5.555
 9252POPC   PO447856  25.270   1.962   5.855
 9252POPC   GL147857  25.279   1.984   6.155
 9252POPC   GL247858  25.257   1.864   6.155
 9252POPC   C1A47859  25.273   1.947   6.455
 9252POPC   D2A47860  25.273   2.029   6.755
 9252POPC   C3A47861  25.264   2.003   7.055
 9252POPC   C4A47862  25.301   1.990   7.355
 9252POPC   C1B47863  25.329   1.736   6.455
 9252POPC   C2B47864  25.334   1.715   6.755
 9252POPC   C3B47865  25.305   1.701   7.055
 9252POPC   C4B47866  25.347   1.750   7.355
 9253POPC   NC347867   9.753  44.694   5.555
 9253POPC   PO447868   9.708  44.633   5.855
 9253POPC   GL147869   9.782  44.706   6.155
 9253POPC   GL247870   9.795  44.775   6.155
 9253POPC   C1A47871   9.774  44.631   6.455
 9253POPC   D2A47872   9.716  44.684   6.755
 9253POPC   C3A47873   9.729  44.691   7.055
 9253POPC   C4A47874   9.734  44.681   7.355
 9253POPC   C1B47875   9.797  44.885   6.455
 9253POPC   C2B47876   9.835  44.939   6.755
 9253POPC   C3B47877   9.824  44.920   7.055
 9253POPC   C4B47878   9.796  44.928   7.355
 9254POPC   NC347879   9.013  22.940   5.555
 9254POPC   PO447880   9.012  22.961   5.855
 9254POPC   GL147881   8.943  22.954   6.155
 9254POPC   GL247882   8.821  22.890   6.155
 9254POPC   C1A47883   8.987  22.915   6.455
 9254POPC   D2A47884   8.959  22.947   6.755
 9254POPC   C3A47885   8.973  22.943   7.055
 9254POPC   C4A47886   8.982  22.934   7.355
 9254POPC   C1B47887   8.801  22.774   6.455
 9254POPC   C2B47888   8.783  22.811   6.755
 9254POPC   C3B47889   8.742  22.800   7.055
 9254POPC   C4B47890   8.779  22.811   7.355
 9255POPC   NC347891  29.165  10.508   5.555
 9255POPC   PO447892  29.185  10.481   5.855
 9255POPC   GL147893  29.168  10.545   6.155
 9255POPC   GL247894  29.053  10.667   6.155
 9255POPC   C1A47895  29.117  10.562   6.455
 9255POPC   D2A47896  29.137  10.563   6.755
 9255POPC   C3A47897  29.147  10.527   7.055
 9255POPC   C4A47898  29.142  10.508   7.355
 9255POPC   C1B47899  29.002  10.764   6.455
 9255POPC   C2B47900  28.958  10.699   6.755
 9255POPC   C3B47901  28.967  10.764   7.055
 9255POPC   C4B47902  29.021  10.722   7.355
 9256POPC   NC347903  27.580   2.740   5.555
 9256POPC   PO447904  27.548   2.756   5.855
 9256POPC   GL147905  27.582   2.728   6.155
 9256POPC   GL247906  27.676   2.767   6.155
 9256POPC   C1A47907  27.581   2.725   6.455
 9256POPC   D2A47908  27.543   2.780   6.755
 9256POPC   C3A47909  27.595   2.783   7.055
 9256POPC   C4A47910  27.572   2.798   7.355
 9256POPC   C1B47911  27.848   2.877   6.455
 9256POPC   C2B47912  27.840   2.899   6.755
 9256POPC   C3B47913  27.813   2.872   7.055
 9256POPC   C4B47914  27.783   2.857   7.355
 9257POPC   NC347915  10.490  33.037   5.555
 9257POPC   PO447916  10.546  32.996   5.855
 9257POPC   GL147917  10.563  32.991   6.155
 9257POPC   GL247918  10.522  33.157   6.155
 9257POPC   C1A47919  10.508  32.977   6.455
 9257POPC   D2A47920  10.497  32.978   6.755
 9257POPC   C3A47921  10.501  32.993   7.055
 9257POPC   C4A47922  10.478  33.074   7.355
 9257POPC   C1B47923  10.515  33.275   6.455
 9257POPC   C2B47924  10.562  33.225   6.755
 9257POPC   C3B47925  10.590  33.286   7.055
 9257POPC   C4B47926  10.533  33.270   7.355
 9258POPC   NC347927  22.936  20.655   5.555
 9258POPC   PO447928  22.975  20.644   5.855
 9258POPC   GL147929  22.953  20.597   6.155
 9258POPC   GL247930  22.862  20.485   6.155
 9258POPC   C1A47931  22.977  20.636   6.455
 9258POPC   D2A47932  22.986  20.642   6.755
 9258POPC   C3A47933  22.888  20.628   7.055
 9258POPC   C4A47934  22.903  20.660   7.355
 9258POPC   C1B47935  22.778  20.495   6.455
 9258POPC   C2B47936  22.785  20.398   6.755
 9258POPC   C3B47937  22.727  20.411   7.055
 9258POPC   C4B47938  22.777  20.486   7.355
 9259POPC   NC347939  12.839   8.167   5.555
 9259POPC   PO447940  12.886   8.196   5.855
 9259POPC   GL147941  12.878   8.197   6.155
 9259POPC   GL247942  12.762   8.107   6.155
 9259POPC   C1A47943  12.883   8.189   6.455
 9259POPC   D2A47944  12.813   8.219   6.755
 9259POPC   C3A47945  12.814   8.157   7.055
 9259POPC   C4A47946  12.879   8.178   7.355
 9259POPC   C1B47947  12.700   8.015   6.455
 9259POPC   C2B47948  12.687   8.048   6.755
 9259POPC   C3B47949  12.671   7.987   7.055
 9259POPC   C4B47950  12.714   7.998   7.355
 9260POPC   NC347951  32.215   2.781   5.555
 9260POPC   PO447952  32.212   2.736   5.855
 9260POPC   GL147953  32.235   2.741   6.155
 9260POPC   GL247954  32.132   2.807   6.155
 9260POPC   C1A47955  32.227   2.764   6.455
 9260POPC   D2A47956  32.253   2.765   6.755
 9260POPC   C3A47957  32.234   2.775   7.055
 9260POPC   C4A47958  32.209   2.740   7.355
 9260POPC   C1B47959  32.022   2.978   6.455
 9260POPC   C2B47960  32.033   2.900   6.755
 9260POPC   C3B47961  32.096   2.907   7.055
 9260POPC   C4B47962  32.084   2.975   7.355
 9261POPC   NC347963  26.023  29.951   5.555
 9261POPC   PO447964  26.059  29.915   5.855
 9261POPC   GL147965  26.087  29.899   6.155
 9261POPC   GL247966  26.047  29.816   6.155
 9261POPC   C1A47967  26.016  29.958   6.455
 9261POPC   D2A47968  26.004  29.926   6.755
 9261POPC   C3A47969  26.056  29.895   7.055
 9261POPC   C4A47970  26.050  29.970   7.355
 9261POPC   C1B47971  26.125  29.721   6.455
 9261POPC   C2B47972  26.147  29.673   6.755
 9261POPC   C3B47973  26.156  29.702   7.055
 9261POPC   C4B47974  26.141  29.656   7.355
 9262POPC   NC347975  35.385   5.137   5.555
 9262POPC   PO447976  35.363   5.090   5.855
 9262POPC   GL147977  35.335   5.116   6.155
 9262POPC   GL247978  35.306   4.929   6.155
 9262POPC   C1A47979  35.400   5.131   6.455
 9262POPC   D2A47980  35.331   5.066   6.755
 9262POPC   C3A47981  35.339   5.103   7.055
 9262POPC   C4A47982  35.347   5.068   7.355
 9262POPC   C1B47983  35.308   4.812   6.455
 9262POPC   C2B47984  35.316   4.812   6.755
 9262POPC   C3B47985  35.258   4.847   7.055
 9262POPC   C4B47986  35.312   4.869   7.355
 9263POPC   NC347987   1.261  38.450   5.555
 9263POPC   PO447988   1.212  38.501   5.855
 9263POPC   GL147989   1.263  38.495   6.155
 9263POPC   GL247990   1.297  38.390   6.155
 9263POPC   C1A47991   1.174  38.471   6.455
 9263POPC   D2A47992   1.240  38.469   6.755
 9263POPC   C3A47993   1.192  38.429   7.055
 9263POPC   C4A47994   1.259  38.438   7.355
 9263POPC   C1B47995   1.318  38.227   6.455
 9263POPC   C2B47996   1.328  38.251   6.755
 9263POPC   C3B47997   1.398  38.247   7.055
 9263POPC   C4B47998   1.364  38.254   7.355
 9264POPC   NC347999   3.554  31.425   5.555
 9264POPC   PO448000   3.558  31.453   5.855
 9264POPC   GL148001   3.568  31.480   6.155
 9264POPC   GL248002   3.675  31.467   6.155
 9264POPC   C1A48003   3.504  31.428   6.455
 9264POPC   D2A48004   3.518  31.458   6.755
 9264POPC   C3A48005   3.494  31.456   7.055
 9264POPC   C4A48006   3.495  31.433   7.355
 9264POPC   C1B48007   3.799  31.473   6.455
 9264POPC   C2B48008   3.820  31.463   6.755
 9264POPC   C3B48009   3.834  31.490   7.055
 9264POPC   C4B48010   3.765  31.545   7.355
 9265POPC   NC348011   0.404  16.743   5.555
 9265POPC   PO448012   0.453  16.747   5.855
 9265POPC   GL148013   0.452  16.731   6.155
 9265POPC   GL248014   0.500  16.582   6.155
 9265POPC   C1A48015   0.405  16.749   6.455
 9265POPC   D2A48016   0.481  16.779   6.755
 9265POPC   C3A48017   0.448  16.681   7.055
 9265POPC   C4A48018   0.430  16.712   7.355
 9265POPC   C1B48019   0.552  16.528   6.455
 9265POPC   C2B48020   0.530  16.550   6.755
 9265POPC   C3B48021   0.529  16.470   7.055
 9265POPC   C4B48022   0.528  16.516   7.355
 9266POPC   NC348023  37.663   1.987   5.555
 9266POPC   PO448024  37.649   1.979   5.855
 9266POPC   GL148025  37.714   1.990   6.155
 9266POPC   GL248026  37.536   2.020   6.155
 9266POPC   C1A48027  37.726   2.003   6.455
 9266POPC   D2A48028  37.683   1.970   6.755
 9266POPC   C3A48029  37.697   1.959   7.055
 9266POPC   C4A48030  37.727   2.025   7.355
 9266POPC   C1B48031  37.450   2.012   6.455
 9266POPC   C2B48032  37.482   2.030   6.755
 9266POPC   C3B48033  37.426   2.001   7.055
 9266POPC   C4B48034  37.405   2.063   7.355
 9267POPC   NC348035  40.757   1.172   5.555
 9267POPC   PO448036  40.825   1.194   5.855
 9267POPC   GL148037  40.764   1.262   6.155
 9267POPC   GL248038  40.943   1.248   6.155
 9267POPC   C1A48039  40.775   1.217   6.455
 9267POPC   D2A48040  40.786   1.237   6.755
 9267POPC   C3A48041  40.741   1.251   7.055
 9267POPC   C4A48042  40.828   1.227   7.355
 9267POPC   C1B48043  41.050   1.169   6.455
 9267POPC   C2B48044  41.060   1.227   6.755
 9267POPC   C3B48045  41.012   1.213   7.055
 9267POPC   C4B48046  41.022   1.171   7.355
 9268POPC   NC348047  31.484   7.389   5.555
 9268POPC   PO448048  31.504   7.428   5.855
 9268POPC   GL148049  31.499   7.383   6.155
 9268POPC   GL248050  31.487   7.553   6.155
 9268POPC   C1A48051  31.504   7.371   6.455
 9268POPC   D2A48052  31.473   7.396   6.755
 9268POPC   C3A48053  31.449   7.437   7.055
 9268POPC   C4A48054  31.494   7.413   7.355
 9268POPC   C1B48055  31.550   7.669   6.455
 9268POPC   C2B48056  31.569   7.618   6.755
 9268POPC   C3B48057  31.512   7.704   7.055
 9268POPC   C4B48058  31.516   7.693   7.355
 9269POPC   NC348059  44.618   5.883   5.555
 9269POPC   PO448060  44.682   5.828   5.855
 9269POPC   GL148061  44.684   5.898   6.155
 9269POPC   GL248062  44.535   5.944   6.155
 9269POPC   C1A48063  44.632   5.865   6.455
 9269POPC   D2A48064  44.707   5.912   6.755
 9269POPC   C3A48065  44.708   5.845   7.055
 9269POPC   C4A48066  44.616   5.852   7.355
 9269POPC   C1B48067  44.390   5.985   6.455
 9269POPC   C2B48068  44.459   5.928   6.755
 9269POPC   C3B48069  44.468   5.902   7.055
 9269POPC   C4B48070  44.453   5.940   7.355
 9270POPC   NC348071  12.070  39.201   5.555
 9270POPC   PO448072  12.036  39.253   5.855
 9270POPC   GL148073  12.095  39.258   6.155
 9270POPC   GL248074  12.025  39.131   6.155
 9270POPC   C1A48075  12.102  39.190   6.455
 9270POPC   D2A48076  12.032  39.208   6.755
 9270POPC   C3A48077  12.049  39.260   7.055
 9270POPC   C4A48078  12.054  39.238   7.355
 9270POPC   C1B48079  11.918  39.053   6.455
 9270POPC   C2B48080  11.899  39.120   6.755
 9270POPC   C3B48081  11.834  39.093   7.055
 9270POPC   C4B48082  11.906  39.093   7.355
 9271POPC   NC348083  39.276  41.556   5.555
 9271POPC   PO448084  39.216  41.564   5.855
 9271POPC   GL148085  39.251  41.521   6.155
 9271POPC   GL248086  39.310  41.600   6.155
 9271POPC   C1A48087  39.248  41.555   6.455
 9271POPC   D2A48088  39.274  41.548   6.755
 9271POPC   C3A48089  39.234  41.607   7.055
 9271POPC   C4A48090  39.209  41.557   7.355
 9271POPC   C1B48091  39.389  41.693   6.455
 9271POPC   C2B48092  39.372  41.760   6.755
 9271POPC   C3B48093  39.412  41.743   7.055
 9271POPC   C4B48094  39.456  41.724   7.355
 9272POPC   NC348095  25.311  16.002   5.555
 9272POPC   PO448096  25.257  15.996   5.855
 9272POPC   GL148097  25.220  15.965   6.155
 9272POPC   GL248098  25.198  16.097   6.155
 9272POPC   C1A48099  25.277  15.981   6.455
 9272POPC   D2A48100  25.255  15.916   6.755
 9272POPC   C3A48101  25.243  15.949   7.055
 9272POPC   C4A48102  25.273  15.906   7.355
 9272POPC   C1B48103  25.176  16.142   6.455
 9272POPC   C2B48104  25.096  16.213   6.755
 9272POPC   C3B48105  25.128  16.175   7.055
 9272POPC   C4B48106  25.137  16.136   7.355
 9273POPC   NC348107  15.948  16.779   5.555
 9273POPC   PO448108  15.977  16.701   5.855
 9273POPC   GL148109  15.912  16.761   6.155
 9273POPC   GL248110  15.844  16.779   6.155
 9273POPC   C1A48111  15.929  16.690   6.455
 9273POPC   D2A48112  15.908  16.684   6.755
 9273POPC   C3A48113  15.949  16.715   7.055
 9273POPC   C4A48114  15.966  16.699   7.355
 9273POPC   C1B48115  15.687  16.701   6.455
 9273POPC   C2B48116  15.728  16.743   6.755
 9273POPC   C3B48117  15.657  16.736   7.055
 9273POPC   C4B48118  15.676  16.725   7.355
 9274POPC   NC348119  15.993   0.437   5.555
 9274POPC   PO448120  15.978   0.445   5.855
 9274POPC   GL148121  15.911   0.416   6.155
 9274POPC   GL248122  15.796   0.435   6.155
 9274POPC   C1A48123  15.956   0.392   6.455
 9274POPC   D2A48124  16.003   0.449   6.755
 9274POPC   C3A48125  15.927   0.437   7.055
 9274POPC   C4A48126  15.911   0.393   7.355
 9274POPC   C1B48127  15.676   0.402   6.455
 9274POPC   C2B48128  15.671   0.392   6.755
 9274POPC   C3B48129  15.753   0.398   7.055
 9274POPC   C4B48130  15.687   0.421   7.355
 9275POPC   NC348131   1.969  29.112   5.555
 9275POPC   PO448132   2.026  29.168   5.855
 9275POPC   GL148133   1.953  29.189   6.155
 9275POPC   GL248134   1.824  29.080   6.155
 9275POPC   C1A48135   1.971  29.137   6.455
 9275POPC   D2A48136   2.032  29.125   6.755
 9275POPC   C3A48137   2.014  29.113   7.055
 9275POPC   C4A48138   2.033  29.130   7.355
 9275POPC   C1B48139   1.708  29.084   6.455
 9275POPC   C2B48140   1.758  29.109   6.755
 9275POPC   C3B48141   1.742  29.084   7.055
 9275POPC   C4B48142   1.790  29.115   7.355
 9276POPC   NC348143   5.072  36.939   5.555
 9276POPC   PO448144   5.073  36.876   5.855
 9276POPC   GL148145   5.099  36.934   6.155
 9276POPC   GL248146   5.177  36.927   6.155
 9276POPC   C1A48147   5.131  36.937   6.455
 9276POPC   D2A48148   5.058  36.925   6.755
 9276POPC   C3A48149   5.091  36.915   7.055
 9276POPC   C4A48150   5.120  36.902   7.355
 9276POPC   C1B48151   5.287  37.008   6.455
 9276POPC   C2B48152   5.262  36.996   6.755
 9276POPC   C3B48153   5.352  36.997   7.055
 9276POPC   C4B48154   5.339  37.074   7.355
 9277POPC   NC348155  22.899  31.501   5.555
 9277POPC   PO448156  22.908  31.425   5.855
 9277POPC   GL148157  22.916  31.520   6.155
 9277POPC   GL248158  22.861  31.335   6.155
 9277POPC   C1A48159  22.978  31.506   6.455
 9277POPC   D2A48160  22.965  31.520   6.755
 9277POPC   C3A48161  22.977  31.472   7.055
 9277POPC   C4A48162  22.968  31.467   7.355
 9277POPC   C1B48163  22.794  31.286   6.455
 9277POPC   C2B48164  22.759  31.302   6.755
 9277POPC   C3B48165  22.730  31.256   7.055
 9277POPC   C4B48166  22.800  31.257   7.355
 9278POPC   NC348167  36.884   7.462   5.555
 9278POPC   PO448168  36.922   7.406   5.855
 9278POPC   GL148169  36.884   7.399   6.155
 9278POPC   GL248170  37.026   7.348   6.155
 9278POPC   C1A48171  36.886   7.457   6.455
 9278POPC   D2A48172  36.887   7.427   6.755
 9278POPC   C3A48173  36.864   7.464   7.055
 9278POPC   C4A48174  36.881   7.406   7.355
 9278POPC   C1B48175  37.045   7.290   6.455
 9278POPC   C2B48176  37.130   7.223   6.755
 9278POPC   C3B48177  37.105   7.206   7.055
 9278POPC   C4B48178  37.045   7.270   7.355
 9279POPC   NC348179   6.667  27.634   5.555
 9279POPC   PO448180   6.665  27.608   5.855
 9279POPC   GL148181   6.656  27.565   6.155
 9279POPC   GL248182   6.524  27.521   6.155
 9279POPC   C1A48183   6.676  27.606   6.455
 9279POPC   D2A48184   6.693  27.599   6.755
 9279POPC   C3A48185   6.600  27.579   7.055
 9279POPC   C4A48186   6.661  27.563   7.355
 9279POPC   C1B48187   6.416  27.593   6.455
 9279POPC   C2B48188   6.421  27.572   6.755
 9279POPC   C3B48189   6.408  27.532   7.055
 9279POPC   C4B48190   6.418  27.571   7.355
 9280POPC   NC348191  18.299  37.648   5.555
 9280POPC   PO448192  18.307  37.651   5.855
 9280POPC   GL148193  18.321  37.637   6.155
 9280POPC   GL248194  18.266  37.766   6.155
 9280POPC   C1A48195  18.263  37.678   6.455
 9280POPC   D2A48196  18.303  37.671   6.755
 9280POPC   C3A48197  18.260  37.649   7.055
 9280POPC   C4A48198  18.264  37.698   7.355
 9280POPC   C1B48199  18.278  37.909   6.455
 9280POPC   C2B48200  18.283  37.973   6.755
 9280POPC   C3B48201  18.354  37.958   7.055
 9280POPC   C4B48202  18.329  37.890   7.355
 9281POPC   NC348203  39.990  12.810   5.555
 9281POPC   PO448204  40.055  12.813   5.855
 9281POPC   GL148205  39.991  12.822   6.155
 9281POPC   GL248206  40.109  12.782   6.155
 9281POPC   C1A48207  40.006  12.869   6.455
 9281POPC   D2A48208  39.983  12.832   6.755
 9281POPC   C3A48209  39.963  12.840   7.055
 9281POPC   C4A48210  39.996  12.834   7.355
 9281POPC   C1B48211  40.186  12.742   6.455
 9281POPC   C2B48212  40.192  12.749   6.755
 9281POPC   C3B48213  40.247  12.716   7.055
 9281POPC   C4B48214  40.215  12.677   7.355
 9282POPC   NC348215  28.335   8.989   5.555
 9282POPC   PO448216  28.363   8.975   5.855
 9282POPC   GL148217  28.347   9.009   6.155
 9282POPC   GL248218  28.404   9.065   6.155
 9282POPC   C1A48219  28.402   8.978   6.455
 9282POPC   D2A48220  28.359   8.925   6.755
 9282POPC   C3A48221  28.391   8.964   7.055
 9282POPC   C4A48222  28.330   8.969   7.355
 9282POPC   C1B48223  28.448   9.190   6.455
 9282POPC   C2B48224  28.437   9.223   6.755
 9282POPC   C3B48225  28.431   9.220   7.055
 9282POPC   C4B48226  28.417   9.241   7.355
 9283POPC   NC348227  32.238  20.636   5.555
 9283POPC   PO448228  32.202  20.576   5.855
 9283POPC   GL148229  32.271  20.599   6.155
 9283POPC   GL248230  32.311  20.457   6.155
 9283POPC   C1A48231  32.200  20.604   6.455
 9283POPC   D2A48232  32.258  20.578   6.755
 9283POPC   C3A48233  32.266  20.633   7.055
 9283POPC   C4A48234  32.268  20.588   7.355
 9283POPC   C1B48235  32.357  20.398   6.455
 9283POPC   C2B48236  32.409  20.422   6.755
 9283POPC   C3B48237  32.425  20.389   7.055
 9283POPC   C4B48238  32.371  20.421   7.355
 9284POPC   NC348239   8.202  22.129   5.555
 9284POPC   PO448240   8.218  22.118   5.855
 9284POPC   GL148241   8.229  22.131   6.155
 9284POPC   GL248242   8.117  22.194   6.155
 9284POPC   C1A48243   8.179  22.116   6.455
 9284POPC   D2A48244   8.222  22.147   6.755
 9284POPC   C3A48245   8.158  22.114   7.055
 9284POPC   C4A48246   8.218  22.190   7.355
 9284POPC   C1B48247   7.966  22.219   6.455
 9284POPC   C2B48248   7.936  22.224   6.755
 9284POPC   C3B48249   7.939  22.236   7.055
 9284POPC   C4B48250   7.982  22.233   7.355
 9285POPC   NC348251  17.495  15.978   5.555
 9285POPC   PO448252  17.474  15.942   5.855
 9285POPC   GL148253  17.460  15.978   6.155
 9285POPC   GL248254  17.425  15.859   6.155
 9285POPC   C1A48255  17.547  16.003   6.455
 9285POPC   D2A48256  17.514  15.984   6.755
 9285POPC   C3A48257  17.480  15.950   7.055
 9285POPC   C4A48258  17.541  15.980   7.355
 9285POPC   C1B48259  17.403  15.702   6.455
 9285POPC   C2B48260  17.421  15.680   6.755
 9285POPC   C3B48261  17.388  15.773   7.055
 9285POPC   C4B48262  17.427  15.771   7.355
 9286POPC   NC348263  21.361  29.168   5.555
 9286POPC   PO448264  21.435  29.171   5.855
 9286POPC   GL148265  21.429  29.132   6.155
 9286POPC   GL248266  21.338  29.235   6.155
 9286POPC   C1A48267  21.423  29.108   6.455
 9286POPC   D2A48268  21.396  29.151   6.755
 9286POPC   C3A48269  21.348  29.191   7.055
 9286POPC   C4A48270  21.391  29.184   7.355
 9286POPC   C1B48271  21.244  29.372   6.455
 9286POPC   C2B48272  21.287  29.360   6.755
 9286POPC   C3B48273  21.291  29.361   7.055
 9286POPC   C4B48274  21.240  29.330   7.355
 9287POPC   NC348275  40.012   5.139   5.555
 9287POPC   PO448276  39.985   5.063   5.855
 9287POPC   GL148277  40.029   5.126   6.155
 9287POPC   GL248278  39.922   5.056   6.155
 9287POPC   C1A48279  40.004   5.140   6.455
 9287POPC   D2A48280  40.048   5.120   6.755
 9287POPC   C3A48281  39.965   5.080   7.055
 9287POPC   C4A48282  40.016   5.109   7.355
 9287POPC   C1B48283  39.792   5.027   6.455
 9287POPC   C2B48284  39.735   5.025   6.755
 9287POPC   C3B48285  39.796   4.986   7.055
 9287POPC   C4B48286  39.739   5.065   7.355
 9288POPC   NC348287  10.565  27.627   5.555
 9288POPC   PO448288  10.488  27.557   5.855
 9288POPC   GL148289  10.571  27.631   6.155
 9288POPC   GL248290  10.414  27.552   6.155
 9288POPC   C1A48291  10.497  27.614   6.455
 9288POPC   D2A48292  10.535  27.548   6.755
 9288POPC   C3A48293  10.499  27.639   7.055
 9288POPC   C4A48294  10.498  27.560   7.355
 9288POPC   C1B48295  10.341  27.424   6.455
 9288POPC   C2B48296  10.318  27.490   6.755
 9288POPC   C3B48297  10.345  27.463   7.055
 9288POPC   C4B48298  10.290  27.497   7.355
 9289POPC   NC348299  39.270  39.982   5.555
 9289POPC   PO448300  39.277  40.055   5.855
 9289POPC   GL148301  39.210  40.054   6.155
 9289POPC   GL248302  39.144  39.969   6.155
 9289POPC   C1A48303  39.259  40.023   6.455
 9289POPC   D2A48304  39.273  40.056   6.755
 9289POPC   C3A48305  39.253  40.019   7.055
 9289POPC   C4A48306  39.192  40.016   7.355
 9289POPC   C1B48307  38.993  39.863   6.455
 9289POPC   C2B48308  38.966  39.926   6.755
 9289POPC   C3B48309  39.024  39.928   7.055
 9289POPC   C4B48310  39.006  39.916   7.355
 9290POPC   NC348311  24.512   4.330   5.555
 9290POPC   PO448312  24.515   4.353   5.855
 9290POPC   GL148313  24.508   4.359   6.155
 9290POPC   GL248314  24.377   4.270   6.155
 9290POPC   C1A48315  24.510   4.296   6.455
 9290POPC   D2A48316  24.519   4.281   6.755
 9290POPC   C3A48317  24.462   4.272   7.055
 9290POPC   C4A48318  24.470   4.330   7.355
 9290POPC   C1B48319  24.305   4.175   6.455
 9290POPC   C2B48320  24.307   4.151   6.755
 9290POPC   C3B48321  24.319   4.136   7.055
 9290POPC   C4B48322  24.272   4.184   7.355
 9291POPC   NC348323  42.340  18.298   5.555
 9291POPC   PO448324  42.325  18.296   5.855
 9291POPC   GL148325  42.372  18.244   6.155
 9291POPC   GL248326  42.237  18.228   6.155
 9291POPC   C1A48327  42.349  18.257   6.455
 9291POPC   D2A48328  42.295  18.322   6.755
 9291POPC   C3A48329  42.314  18.327   7.055
 9291POPC   C4A48330  42.351  18.282   7.355
 9291POPC   C1B48331  42.118  18.115   6.455
 9291POPC   C2B48332  42.123  18.089   6.755
 9291POPC   C3B48333  42.105  18.167   7.055
 9291POPC   C4B48334  42.117  18.125   7.355
 9292POPC   NC348335  21.359   2.725   5.555
 9292POPC   PO448336  21.398   2.741   5.855
 9292POPC   GL148337  21.406   2.748   6.155
 9292POPC   GL248338  21.256   2.690   6.155
 9292POPC   C1A48339  21.417   2.794   6.455
 9292POPC   D2A48340  21.371   2.750   6.755
 9292POPC   C3A48341  21.414   2.780   7.055
 9292POPC   C4A48342  21.345   2.781   7.355
 9292POPC   C1B48343  21.192   2.586   6.455
 9292POPC   C2B48344  21.211   2.546   6.755
 9292POPC   C3B48345  21.203   2.543   7.055
 9292POPC   C4B48346  21.240   2.557   7.355
 9293POPC   NC348347  39.248  26.063   5.555
 9293POPC   PO448348  39.205  26.044   5.855
 9293POPC   GL148349  39.199  26.081   6.155
 9293POPC   GL248350  39.325  25.991   6.155
 9293POPC   C1A48351  39.252  26.024   6.455
 9293POPC   D2A48352  39.199  26.013   6.755
 9293POPC   C3A48353  39.279  26.041   7.055
 9293POPC   C4A48354  39.255  26.087   7.355
 9293POPC   C1B48355  39.445  25.922   6.455
 9293POPC   C2B48356  39.383  25.907   6.755
 9293POPC   C3B48357  39.385  25.897   7.055
 9293POPC   C4B48358  39.410  25.847   7.355
 9294POPC   NC348359  44.673  33.021   5.555
 9294POPC   PO448360  44.658  33.047   5.855
 9294POPC   GL148361  44.630  33.044   6.155
 9294POPC   GL248362  44.778  32.948   6.155
 9294POPC   C1A48363  44.684  33.066   6.455
 9294POPC   D2A48364  44.614  32.984   6.755
 9294POPC   C3A48365  44.653  33.020   7.055
 9294POPC   C4A48366  44.656  32.992   7.355
 9294POPC   C1B48367  44.760  32.784   6.455
 9294POPC   C2B48368  44.805  32.792   6.755
 9294POPC   C3B48369  44.823  32.857   7.055
 9294POPC   C4B48370  44.766  32.828   7.355
 9295POPC   NC348371  15.960  15.913   5.555
 9295POPC   PO448372  15.917  15.948   5.855
 9295POPC   GL148373  15.927  15.996   6.155
 9295POPC   GL248374  15.828  15.980   6.155
 9295POPC   C1A48375  15.969  15.937   6.455
 9295POPC   D2A48376  15.920  15.914   6.755
 9295POPC   C3A48377  15.949  15.929   7.055
 9295POPC   C4A48378  15.961  15.947   7.355
 9295POPC   C1B48379  15.669  16.030   6.455
 9295POPC   C2B48380  15.758  16.061   6.755
 9295POPC   C3B48381  15.684  16.052   7.055
 9295POPC   C4B48382  15.734  16.063   7.355
 9296POPC   NC348383  14.433   7.458   5.555
 9296POPC   PO448384  14.374   7.418   5.855
 9296POPC   GL148385  14.410   7.465   6.155
 9296POPC   GL248386  14.301   7.341   6.155
 9296POPC   C1A48387  14.366   7.467   6.455
 9296POPC   D2A48388  14.418   7.413   6.755
 9296POPC   C3A48389  14.377   7.375   7.055
 9296POPC   C4A48390  14.378   7.414   7.355
 9296POPC   C1B48391  14.305   7.236   6.455
 9296POPC   C2B48392  14.322   7.231   6.755
 9296POPC   C3B48393  14.294   7.207   7.055
 9296POPC   C4B48394  14.328   7.234   7.355
 9297POPC   NC348395  22.144  40.823   5.555
 9297POPC   PO448396  22.210  40.766   5.855
 9297POPC   GL148397  22.139  40.807   6.155
 9297POPC   GL248398  22.160  40.950   6.155
 9297POPC   C1A48399  22.129  40.759   6.455
 9297POPC   D2A48400  22.201  40.787   6.755
 9297POPC   C3A48401  22.134  40.818   7.055
 9297POPC   C4A48402  22.139  40.736   7.355
 9297POPC   C1B48403  22.284  40.984   6.455
 9297POPC   C2B48404  22.257  41.007   6.755
 9297POPC   C3B48405  22.205  40.988   7.055
 9297POPC   C4B48406  22.265  41.035   7.355
 9298POPC   NC348407   3.548  32.235   5.555
 9298POPC   PO448408   3.536  32.239   5.855
 9298POPC   GL148409   3.535  32.278   6.155
 9298POPC   GL248410   3.405  32.175   6.155
 9298POPC   C1A48411   3.549  32.226   6.455
 9298POPC   D2A48412   3.536  32.242   6.755
 9298POPC   C3A48413   3.497  32.291   7.055
 9298POPC   C4A48414   3.503  32.234   7.355
 9298POPC   C1B48415   3.400  32.059   6.455
 9298POPC   C2B48416   3.350  32.070   6.755
 9298POPC   C3B48417   3.348  32.091   7.055
 9298POPC   C4B48418   3.381  32.081   7.355
 9299POPC   NC348419  33.760  19.849   5.555
 9299POPC   PO448420  33.812  19.798   5.855
 9299POPC   GL148421  33.841  19.856   6.155
 9299POPC   GL248422  33.629  19.811   6.155
 9299POPC   C1A48423  33.770  19.800   6.455
 9299POPC   D2A48424  33.777  19.838   6.755
 9299POPC   C3A48425  33.781  19.862   7.055
 9299POPC   C4A48426  33.771  19.789   7.355
 9299POPC   C1B48427  33.574  19.757   6.455
 9299POPC   C2B48428  33.520  19.730   6.755
 9299POPC   C3B48429  33.535  19.767   7.055
 9299POPC   C4B48430  33.546  19.786   7.355
 9300POPC   NC348431  43.857  36.088   5.555
 9300POPC   PO448432  43.851  36.170   5.855
 9300POPC   GL148433  43.917  36.094   6.155
 9300POPC   GL248434  43.816  36.190   6.155
 9300POPC   C1A48435  43.935  36.105   6.455
 9300POPC   D2A48436  43.892  36.165   6.755
 9300POPC   C3A48437  43.838  36.154   7.055
 9300POPC   C4A48438  43.912  36.106   7.355
 9300POPC   C1B48439  43.687  36.250   6.455
 9300POPC   C2B48440  43.691  36.263   6.755
 9300POPC   C3B48441  43.691  36.192   7.055
 9300POPC   C4B48442  43.615  36.286   7.355
 9301POPC   NC348443  44.663  31.487   5.555
 9301POPC   PO448444  44.633  31.510   5.855
 9301POPC   GL148445  44.652  31.480   6.155
 9301POPC   GL248446  44.582  31.388   6.155
 9301POPC   C1A48447  44.660  31.426   6.455
 9301POPC   D2A48448  44.696  31.518   6.755
 9301POPC   C3A48449  44.651  31.446   7.055
 9301POPC   C4A48450  44.671  31.431   7.355
 9301POPC   C1B48451  44.584  31.249   6.455
 9301POPC   C2B48452  44.570  31.273   6.755
 9301POPC   C3B48453  44.529  31.302   7.055
 9301POPC   C4B48454  44.500  31.289   7.355
 9302POPC   NC348455   8.156  40.797   5.555
 9302POPC   PO448456   8.164  40.797   5.855
 9302POPC   GL148457   8.220  40.803   6.155
 9302POPC   GL248458   8.290  40.880   6.155
 9302POPC   C1A48459   8.186  40.817   6.455
 9302POPC   D2A48460   8.192  40.777   6.755
 9302POPC   C3A48461   8.153  40.743   7.055
 9302POPC   C4A48462   8.198  40.813   7.355
 9302POPC   C1B48463   8.316  40.986   6.455
 9302POPC   C2B48464   8.308  41.008   6.755
 9302POPC   C3B48465   8.306  41.039   7.055
 9302POPC   C4B48466   8.326  40.981   7.355
 9303POPC   NC348467  44.674  34.531   5.555
 9303POPC   PO448468  44.711  34.579   5.855
 9303POPC   GL148469  44.616  34.598   6.155
 9303POPC   GL248470  44.799  34.556   6.155
 9303POPC   C1A48471  44.704  34.573   6.455
 9303POPC   D2A48472  44.676  34.533   6.755
 9303POPC   C3A48473  44.692  34.577   7.055
 9303POPC   C4A48474  44.655  34.579   7.355
 9303POPC   C1B48475  44.894  34.658   6.455
 9303POPC   C2B48476  44.876  34.674   6.755
 9303POPC   C3B48477  44.881  34.652   7.055
 9303POPC   C4B48478  44.914  34.634   7.355
 9304POPC   NC348479   5.142   4.339   5.555
 9304POPC   PO448480   5.073   4.280   5.855
 9304POPC   GL148481   5.053   4.301   6.155
 9304POPC   GL248482   5.032   4.255   6.155
 9304POPC   C1A48483   5.056   4.363   6.455
 9304POPC   D2A48484   5.090   4.288   6.755
 9304POPC   C3A48485   5.124   4.308   7.055
 9304POPC   C4A48486   5.089   4.336   7.355
 9304POPC   C1B48487   4.862   4.199   6.455
 9304POPC   C2B48488   4.848   4.235   6.755
 9304POPC   C3B48489   4.899   4.161   7.055
 9304POPC   C4B48490   4.853   4.242   7.355
 9305POPC   NC348491   3.492  34.624   5.555
 9305POPC   PO448492   3.493  34.593   5.855
 9305POPC   GL148493   3.574  34.544   6.155
 9305POPC   GL248494   3.449  34.458   6.155
 9305POPC   C1A48495   3.588  34.563   6.455
 9305POPC   D2A48496   3.555  34.620   6.755
 9305POPC   C3A48497   3.526  34.622   7.055
 9305POPC   C4A48498   3.552  34.622   7.355
 9305POPC   C1B48499   3.357  34.363   6.455
 9305POPC   C2B48500   3.395  34.371   6.755
 9305POPC   C3B48501   3.358  34.413   7.055
 9305POPC   C4B48502   3.377  34.351   7.355
 9306POPC   NC348503  26.768  12.817   5.555
 9306POPC   PO448504  26.843  12.848   5.855
 9306POPC   GL148505  26.822  12.813   6.155
 9306POPC   GL248506  26.833  12.743   6.155
 9306POPC   C1A48507  26.865  12.857   6.455
 9306POPC   D2A48508  26.829  12.830   6.755
 9306POPC   C3A48509  26.867  12.827   7.055
 9306POPC   C4A48510  26.841  12.820   7.355
 9306POPC   C1B48511  26.907  12.674   6.455
 9306POPC   C2B48512  26.979  12.612   6.755
 9306POPC   C3B48513  26.961  12.671   7.055
 9306POPC   C4B48514  26.917  12.619   7.355
 9307POPC   NC348515  40.828  43.907   5.555
 9307POPC   PO448516  40.739  43.869   5.855
 9307POPC   GL148517  40.767  43.888   6.155
 9307POPC   GL248518  40.726  43.773   6.155
 9307POPC   C1A48519  40.773  43.873   6.455
 9307POPC   D2A48520  40.769  43.883   6.755
 9307POPC   C3A48521  40.800  43.837   7.055
 9307POPC   C4A48522  40.819  43.837   7.355
 9307POPC   C1B48523  40.557  43.725   6.455
 9307POPC   C2B48524  40.569  43.769   6.755
 9307POPC   C3B48525  40.550  43.680   7.055
 9307POPC   C4B48526  40.543  43.677   7.355
 9308POPC   NC348527   4.342  23.698   5.555
 9308POPC   PO448528   4.323  23.751   5.855
 9308POPC   GL148529   4.290  23.752   6.155
 9308POPC   GL248530   4.454  23.628   6.155
 9308POPC   C1A48531   4.320  23.698   6.455
 9308POPC   D2A48532   4.347  23.679   6.755
 9308POPC   C3A48533   4.348  23.709   7.055
 9308POPC   C4A48534   4.339  23.736   7.355
 9308POPC   C1B48535   4.514  23.594   6.455
 9308POPC   C2B48536   4.502  23.624   6.755
 9308POPC   C3B48537   4.549  23.618   7.055
 9308POPC   C4B48538   4.565  23.604   7.355
 9309POPC   NC348539  15.998   7.404   5.555
 9309POPC   PO448540  15.923   7.434   5.855
 9309POPC   GL148541  15.984   7.442   6.155
 9309POPC   GL248542  15.969   7.493   6.155
 9309POPC   C1A48543  15.985   7.402   6.455
 9309POPC   D2A48544  15.919   7.414   6.755
 9309POPC   C3A48545  15.971   7.384   7.055
 9309POPC   C4A48546  15.963   7.449   7.355
 9309POPC   C1B48547  15.885   7.660   6.455
 9309POPC   C2B48548  15.890   7.663   6.755
 9309POPC   C3B48549  15.854   7.630   7.055
 9309POPC   C4B48550  15.871   7.634   7.355
 9310POPC   NC348551  34.527   3.576   5.555
 9310POPC   PO448552  34.538   3.519   5.855
 9310POPC   GL148553  34.606   3.526   6.155
 9310POPC   GL248554  34.614   3.686   6.155
 9310POPC   C1A48555  34.619   3.528   6.455
 9310POPC   D2A48556  34.596   3.550   6.755
 9310POPC   C3A48557  34.568   3.577   7.055
 9310POPC   C4A48558  34.601   3.563   7.355
 9310POPC   C1B48559  34.691   3.708   6.455
 9310POPC   C2B48560  34.765   3.718   6.755
 9310POPC   C3B48561  34.712   3.687   7.055
 9310POPC   C4B48562  34.699   3.713   7.355
 9311POPC   NC348563  43.154  29.906   5.555
 9311POPC   PO448564  43.143  29.882   5.855
 9311POPC   GL148565  43.149  29.918   6.155
 9311POPC   GL248566  43.238  29.950   6.155
 9311POPC   C1A48567  43.093  29.893   6.455
 9311POPC   D2A48568  43.116  29.900   6.755
 9311POPC   C3A48569  43.065  29.931   7.055
 9311POPC   C4A48570  43.126  29.933   7.355
 9311POPC   C1B48571  43.309  30.024   6.455
 9311POPC   C2B48572  43.283  30.053   6.755
 9311POPC   C3B48573  43.285  30.039   7.055
 9311POPC   C4B48574  43.322  30.021   7.355
 9312POPC   NC348575  13.606  40.810   5.555
 9312POPC   PO448576  13.676  40.775   5.855
 9312POPC   GL148577  13.656  40.768   6.155
 9312POPC   GL248578  13.673  40.703   6.155
 9312POPC   C1A48579  13.624  40.773   6.455
 9312POPC   D2A48580  13.646  40.745   6.755
 9312POPC   C3A48581  13.666  40.755   7.055
 9312POPC   C4A48582  13.662  40.744   7.355
 9312POPC   C1B48583  13.686  40.497   6.455
 9312POPC   C2B48584  13.655  40.548   6.755
 9312POPC   C3B48585  13.711  40.504   7.055
 9312POPC   C4B48586  13.650  40.534   7.355
 9313POPC   NC348587   7.394  42.297   5.555
 9313POPC   PO448588   7.373  42.314   5.855
 9313POPC   GL148589   7.423  42.306   6.155
 9313POPC   GL248590   7.341  42.202   6.155
 9313POPC   C1A48591   7.413  42.364   6.455
 9313POPC   D2A48592   7.410  42.291   6.755
 9313POPC   C3A48593   7.396  42.319   7.055
 9313POPC   C4A48594   7.419  42.320   7.355
 9313POPC   C1B48595   7.292  42.172   6.455
 9313POPC   C2B48596   7.247  42.124   6.755
 9313POPC   C3B48597   7.249  42.101   7.055
 9313POPC   C4B48598   7.265  42.180   7.355
 9314POPC   NC348599  21.350  18.294   5.555
 9314POPC   PO448600  21.416  18.247   5.855
 9314POPC   GL148601  21.346  18.241   6.155
 9314POPC   GL248602  21.499  18.221   6.155
 9314POPC   C1A48603  21.379  18.242   6.455
 9314POPC   D2A48604  21.345  18.307   6.755
 9314POPC   C3A48605  21.396  18.269   7.055
 9314POPC   C4A48606  21.338  18.330   7.355
 9314POPC   C1B48607  21.543  18.078   6.455
 9314POPC   C2B48608  21.522  18.076   6.755
 9314POPC   C3B48609  21.541  18.034   7.055
 9314POPC   C4B48610  21.537  18.032   7.355
 9315POPC   NC348611   2.800  22.129   5.555
 9315POPC   PO448612   2.729  22.118   5.855
 9315POPC   GL148613   2.781  22.177   6.155
 9315POPC   GL248614   2.877  22.234   6.155
 9315POPC   C1A48615   2.796  22.145   6.455
 9315POPC   D2A48616   2.743  22.162   6.755
 9315POPC   C3A48617   2.814  22.174   7.055
 9315POPC   C4A48618   2.772  22.126   7.355
 9315POPC   C1B48619   3.039  22.233   6.455
 9315POPC   C2B48620   2.987  22.302   6.755
 9315POPC   C3B48621   2.961  22.239   7.055
 9315POPC   C4B48622   3.031  22.270   7.355
 9316POPC   NC348623  13.594  32.238   5.555
 9316POPC   PO448624  13.590  32.222   5.855
 9316POPC   GL148625  13.590  32.214   6.155
 9316POPC   GL248626  13.702  32.164   6.155
 9316POPC   C1A48627  13.604  32.230   6.455
 9316POPC   D2A48628  13.608  32.259   6.755
 9316POPC   C3A48629  13.665  32.202   7.055
 9316POPC   C4A48630  13.587  32.245   7.355
 9316POPC   C1B48631  13.780  32.073   6.455
 9316POPC   C2B48632  13.799  32.085   6.755
 9316POPC   C3B48633  13.769  32.084   7.055
 9316POPC   C4B48634  13.764  32.025   7.355
 9317POPC   NC348635  36.172  13.653   5.555
 9317POPC   PO448636  36.096  13.640   5.855
 9317POPC   GL148637  36.116  13.644   6.155
 9317POPC   GL248638  36.021  13.702   6.155
 9317POPC   C1A48639  36.171  13.584   6.455
 9317POPC   D2A48640  36.135  13.638   6.755
 9317POPC   C3A48641  36.141  13.658   7.055
 9317POPC   C4A48642  36.122  13.631   7.355
 9317POPC   C1B48643  35.880  13.715   6.455
 9317POPC   C2B48644  35.929  13.760   6.755
 9317POPC   C3B48645  35.890  13.710   7.055
 9317POPC   C4B48646  35.872  13.737   7.355
 9318POPC   NC348647  24.451   8.940   5.555
 9318POPC   PO448648  24.466   9.021   5.855
 9318POPC   GL148649  24.480   9.003   6.155
 9318POPC   GL248650  24.534   8.837   6.155
 9318POPC   C1A48651  24.498   8.954   6.455
 9318POPC   D2A48652  24.499   8.967   6.755
 9318POPC   C3A48653  24.491   8.944   7.055
 9318POPC   C4A48654  24.500   8.996   7.355
 9318POPC   C1B48655  24.611   8.729   6.455
 9318POPC   C2B48656  24.620   8.795   6.755
 9318POPC   C3B48657  24.615   8.782   7.055
 9318POPC   C4B48658  24.573   8.728   7.355
 9319POPC   NC348659   2.739  11.330   5.555
 9319POPC   PO448660   2.723  11.282   5.855
 9319POPC   GL148661   2.748  11.304   6.155
 9319POPC   GL248662   2.707  11.411   6.155
 9319POPC   C1A48663   2.810  11.337   6.455
 9319POPC   D2A48664   2.756  11.288   6.755
 9319POPC   C3A48665   2.721  11.270   7.055
 9319POPC   C4A48666   2.745  11.270   7.355
 9319POPC   C1B48667   2.650  11.524   6.455
 9319POPC   C2B48668   2.600  11.510   6.755
 9319POPC   C3B48669   2.655  11.500   7.055
 9319POPC   C4B48670   2.603  11.480   7.355
 9320POPC   NC348671   2.019  28.342   5.555
 9320POPC   PO448672   1.969  28.355   5.855
 9320POPC   GL148673   1.971  28.333   6.155
 9320POPC   GL248674   2.145  28.373   6.155
 9320POPC   C1A48675   2.001  28.350   6.455
 9320POPC   D2A48676   2.007  28.357   6.755
 9320POPC   C3A48677   1.947  28.383   7.055
 9320POPC   C4A48678   2.012  28.392   7.355
 9320POPC   C1B48679   2.242  28.350   6.455
 9320POPC   C2B48680   2.281  28.394   6.755
 9320POPC   C3B48681   2.272  28.395   7.055
 9320POPC   C4B48682   2.194  28.366   7.355
 9321POPC   NC348683   5.115   2.726   5.555
 9321POPC   PO448684   5.105   2.740   5.855
 9321POPC   GL148685   5.135   2.813   6.155
 9321POPC   GL248686   5.166   2.837   6.155
 9321POPC   C1A48687   5.113   2.781   6.455
 9321POPC   D2A48688   5.078   2.767   6.755
 9321POPC   C3A48689   5.103   2.742   7.055
 9321POPC   C4A48690   5.098   2.775   7.355
 9321POPC   C1B48691   5.181   2.990   6.455
 9321POPC   C2B48692   5.204   3.011   6.755
 9321POPC   C3B48693   5.138   3.038   7.055
 9321POPC   C4B48694   5.201   2.971   7.355
 9322POPC   NC348695  17.472  39.975   5.555
 9322POPC   PO448696  17.508  40.010   5.855
 9322POPC   GL148697  17.543  40.035   6.155
 9322POPC   GL248698  17.463  39.884   6.155
 9322POPC   C1A48699  17.485  40.038   6.455
 9322POPC   D2A48700  17.475  40.026   6.755
 9322POPC   C3A48701  17.512  39.989   7.055
 9322POPC   C4A48702  17.517  40.023   7.355
 9322POPC   C1B48703  17.539  39.723   6.455
 9322POPC   C2B48704  17.475  39.754   6.755
 9322POPC   C3B48705  17.531  39.730   7.055
 9322POPC   C4B48706  17.510  39.762   7.355
 9323POPC   NC348707   2.028   5.848   5.555
 9323POPC   PO448708   2.020   5.838   5.855
 9323POPC   GL148709   2.001   5.836   6.155
 9323POPC   GL248710   1.910   5.817   6.155
 9323POPC   C1A48711   1.996   5.906   6.455
 9323POPC   D2A48712   1.994   5.827   6.755
 9323POPC   C3A48713   2.021   5.846   7.055
 9323POPC   C4A48714   1.942   5.868   7.355
 9323POPC   C1B48715   1.832   5.705   6.455
 9323POPC   C2B48716   1.812   5.629   6.755
 9323POPC   C3B48717   1.877   5.635   7.055
 9323POPC   C4B48718   1.867   5.688   7.355
 9324POPC   NC348719  23.750  15.186   5.555
 9324POPC   PO448720  23.717  15.147   5.855
 9324POPC   GL148721  23.687  15.208   6.155
 9324POPC   GL248722  23.741  15.327   6.155
 9324POPC   C1A48723  23.747  15.196   6.455
 9324POPC   D2A48724  23.735  15.206   6.755
 9324POPC   C3A48725  23.724  15.158   7.055
 9324POPC   C4A48726  23.739  15.203   7.355
 9324POPC   C1B48727  23.873  15.425   6.455
 9324POPC   C2B48728  23.853  15.375   6.755
 9324POPC   C3B48729  23.892  15.408   7.055
 9324POPC   C4B48730  23.861  15.370   7.355
 9325POPC   NC348731  43.844  17.503   5.555
 9325POPC   PO448732  43.839  17.543   5.855
 9325POPC   GL148733  43.900  17.515   6.155
 9325POPC   GL248734  43.726  17.511   6.155
 9325POPC   C1A48735  43.854  17.509   6.455
 9325POPC   D2A48736  43.924  17.482   6.755
 9325POPC   C3A48737  43.913  17.523   7.055
 9325POPC   C4A48738  43.888  17.496   7.355
 9325POPC   C1B48739  43.676  17.549   6.455
 9325POPC   C2B48740  43.672  17.559   6.755
 9325POPC   C3B48741  43.670  17.553   7.055
 9325POPC   C4B48742  43.651  17.519   7.355
 9326POPC   NC348743   7.465  43.140   5.555
 9326POPC   PO448744   7.383  43.109   5.855
 9326POPC   GL148745   7.410  43.142   6.155
 9326POPC   GL248746   7.472  43.226   6.155
 9326POPC   C1A48747   7.458  43.070   6.455
 9326POPC   D2A48748   7.380  43.115   6.755
 9326POPC   C3A48749   7.459  43.154   7.055
 9326POPC   C4A48750   7.371  43.156   7.355
 9326POPC   C1B48751   7.531  43.291   6.455
 9326POPC   C2B48752   7.575  43.302   6.755
 9326POPC   C3B48753   7.607  43.286   7.055
 9326POPC   C4B48754   7.547  43.329   7.355
 9327POPC   NC348755   1.247  44.704   5.555
 9327POPC   PO448756   1.216  44.629   5.855
 9327POPC   GL148757   1.168  44.688   6.155
 9327POPC   GL248758   1.288  44.649   6.155
 9327POPC   C1A48759   1.193  44.669   6.455
 9327POPC   D2A48760   1.190  44.653   6.755
 9327POPC   C3A48761   1.253  44.651   7.055
 9327POPC   C4A48762   1.238  44.637   7.355
 9327POPC   C1B48763   1.462  44.514   6.455
 9327POPC   C2B48764   1.461  44.591   6.755
 9327POPC   C3B48765   1.470  44.578   7.055
 9327POPC   C4B48766   1.406  44.523   7.355
 9328POPC   NC348767  30.662   5.055   5.555
 9328POPC   PO448768  30.705   5.083   5.855
 9328POPC   GL148769  30.697   5.058   6.155
 9328POPC   GL248770  30.538   5.120   6.155
 9328POPC   C1A48771  30.675   5.056   6.455
 9328POPC   D2A48772  30.733   5.141   6.755
 9328POPC   C3A48773  30.694   5.102   7.055
 9328POPC   C4A48774  30.710   5.137   7.355
 9328POPC   C1B48775  30.446   5.110   6.455
 9328POPC   C2B48776  30.442   5.172   6.755
 9328POPC   C3B48777  30.413   5.183   7.055
 9328POPC   C4B48778  30.431   5.158   7.355
 9329POPC   NC348779  14.378  40.003   5.555
 9329POPC   PO448780  14.414  40.016   5.855
 9329POPC   GL148781  14.377  40.031   6.155
 9329POPC   GL248782  14.298  39.963   6.155
 9329POPC   C1A48783  14.380  40.039   6.455
 9329POPC   D2A48784  14.418  39.982   6.755
 9329POPC   C3A48785  14.362  40.023   7.055
 9329POPC   C4A48786  14.415  40.008   7.355
 9329POPC   C1B48787  14.154  39.969   6.455
 9329POPC   C2B48788  14.160  39.931   6.755
 9329POPC   C3B48789  14.206  39.966   7.055
 9329POPC   C4B48790  14.129  39.967   7.355
 9330POPC   NC348791  26.839   2.725   5.555
 9330POPC   PO448792  26.843   2.774   5.855
 9330POPC   GL148793  26.859   2.778   6.155
 9330POPC   GL248794  26.791   2.869   6.155
 9330POPC   C1A48795  26.822   2.811   6.455
 9330POPC   D2A48796  26.783   2.767   6.755
 9330POPC   C3A48797  26.853   2.805   7.055
 9330POPC   C4A48798  26.789   2.756   7.355
 9330POPC   C1B48799  26.860   2.987   6.455
 9330POPC   C2B48800  26.841   2.998   6.755
 9330POPC   C3B48801  26.833   2.978   7.055
 9330POPC   C4B48802  26.858   3.033   7.355
 9331POPC   NC348803   1.224  18.235   5.555
 9331POPC   PO448804   1.186  18.250   5.855
 9331POPC   GL148805   1.240  18.314   6.155
 9331POPC   GL248806   1.220  18.124   6.155
 9331POPC   C1A48807   1.169  18.332   6.455
 9331POPC   D2A48808   1.243  18.236   6.755
 9331POPC   C3A48809   1.181  18.237   7.055
 9331POPC   C4A48810   1.255  18.263   7.355
 9331POPC   C1B48811   1.359  18.075   6.455
 9331POPC   C2B48812   1.354  18.033   6.755
 9331POPC   C3B48813   1.335  18.016   7.055
 9331POPC   C4B48814   1.355  18.093   7.355
 9332POPC   NC348815  22.923   2.799   5.555
 9332POPC   PO448816  22.944   2.755   5.855
 9332POPC   GL148817  22.968   2.773   6.155
 9332POPC   GL248818  23.080   2.699   6.155
 9332POPC   C1A48819  22.946   2.765   6.455
 9332POPC   D2A48820  22.970   2.718   6.755
 9332POPC   C3A48821  22.935   2.762   7.055
 9332POPC   C4A48822  22.979   2.740   7.355
 9332POPC   C1B48823  23.135   2.665   6.455
 9332POPC   C2B48824  23.149   2.643   6.755
 9332POPC   C3B48825  23.158   2.602   7.055
 9332POPC   C4B48826  23.151   2.655   7.355
 9333POPC   NC348827  38.434   5.843   5.555
 9333POPC   PO448828  38.462   5.856   5.855
 9333POPC   GL148829  38.448   5.826   6.155
 9333POPC   GL248830  38.468   5.766   6.155
 9333POPC   C1A48831  38.441   5.911   6.455
 9333POPC   D2A48832  38.458   5.859   6.755
 9333POPC   C3A48833  38.409   5.841   7.055
 9333POPC   C4A48834  38.492   5.836   7.355
 9333POPC   C1B48835  38.485   5.625   6.455
 9333POPC   C2B48836  38.498   5.607   6.755
 9333POPC   C3B48837  38.487   5.642   7.055
 9333POPC   C4B48838  38.486   5.591   7.355
 9334POPC   NC348839  17.544  39.241   5.555
 9334POPC   PO448840  17.519  39.275   5.855
 9334POPC   GL148841  17.545  39.184   6.155
 9334POPC   GL248842  17.620  39.147   6.155
 9334POPC   C1A48843  17.495  39.217   6.455
 9334POPC   D2A48844  17.482  39.250   6.755
 9334POPC   C3A48845  17.511  39.246   7.055
 9334POPC   C4A48846  17.474  39.279   7.355
 9334POPC   C1B48847  17.699  39.097   6.455
 9334POPC   C2B48848  17.687  39.053   6.755
 9334POPC   C3B48849  17.694  39.094   7.055
 9334POPC   C4B48850  17.720  39.031   7.355
 9335POPC   NC348851  42.364  12.053   5.555
 9335POPC   PO448852  42.321  12.107   5.855
 9335POPC   GL148853  42.309  12.100   6.155
 9335POPC   GL248854  42.206  12.029   6.155
 9335POPC   C1A48855  42.364  12.041   6.455
 9335POPC   D2A48856  42.347  12.122   6.755
 9335POPC   C3A48857  42.369  12.087   7.055
 9335POPC   C4A48858  42.303  12.111   7.355
 9335POPC   C1B48859  42.130  12.026   6.455
 9335POPC   C2B48860  42.073  11.994   6.755
 9335POPC   C3B48861  42.093  11.997   7.055
 9335POPC   C4B48862  42.040  12.065   7.355
 9336POPC   NC348863  21.420   8.162   5.555
 9336POPC   PO448864  21.359   8.152   5.855
 9336POPC   GL148865  21.383   8.191   6.155
 9336POPC   GL248866  21.338   8.277   6.155
 9336POPC   C1A48867  21.359   8.161   6.455
 9336POPC   D2A48868  21.424   8.153   6.755
 9336POPC   C3A48869  21.377   8.199   7.055
 9336POPC   C4A48870  21.390   8.191   7.355
 9336POPC   C1B48871  21.211   8.433   6.455
 9336POPC   C2B48872  21.192   8.387   6.755
 9336POPC   C3B48873  21.287   8.418   7.055
 9336POPC   C4B48874  21.262   8.446   7.355
 9337POPC   NC348875  12.083  19.814   5.555
 9337POPC   PO448876  12.097  19.822   5.855
 9337POPC   GL148877  12.082  19.824   6.155
 9337POPC   GL248878  11.965  19.939   6.155
 9337POPC   C1A48879  12.070  19.830   6.455
 9337POPC   D2A48880  12.072  19.800   6.755
 9337POPC   C3A48881  12.103  19.876   7.055
 9337POPC   C4A48882  12.076  19.829   7.355
 9337POPC   C1B48883  11.852  19.921   6.455
 9337POPC   C2B48884  11.898  19.905   6.755
 9337POPC   C3B48885  11.877  19.986   7.055
 9337POPC   C4B48886  11.817  19.933   7.355
 9338POPC   NC348887  33.004  34.574   5.555
 9338POPC   PO448888  33.073  34.603   5.855
 9338POPC   GL148889  32.993  34.546   6.155
 9338POPC   GL248890  32.972  34.517   6.155
 9338POPC   C1A48891  32.984  34.581   6.455
 9338POPC   D2A48892  33.051  34.574   6.755
 9338POPC   C3A48893  32.989  34.528   7.055
 9338POPC   C4A48894  32.975  34.605   7.355
 9338POPC   C1B48895  32.824  34.417   6.455
 9338POPC   C2B48896  32.859  34.444   6.755
 9338POPC   C3B48897  32.843  34.420   7.055
 9338POPC   C4B48898  32.856  34.391   7.355
 9339POPC   NC348899  26.832  32.271   5.555
 9339POPC   PO448900  26.845  32.234   5.855
 9339POPC   GL148901  26.827  32.249   6.155
 9339POPC   GL248902  26.792  32.370   6.155
 9339POPC   C1A48903  26.799  32.242   6.455
 9339POPC   D2A48904  26.839  32.294   6.755
 9339POPC   C3A48905  26.834  32.208   7.055
 9339POPC   C4A48906  26.843  32.234   7.355
 9339POPC   C1B48907  26.816  32.461   6.455
 9339POPC   C2B48908  26.750  32.500   6.755
 9339POPC   C3B48909  26.787  32.495   7.055
 9339POPC   C4B48910  26.737  32.453   7.355
 9340POPC   NC348911   8.957  17.493   5.555
 9340POPC   PO448912   8.993  17.520   5.855
 9340POPC   GL148913   9.012  17.523   6.155
 9340POPC   GL248914   8.986  17.371   6.155
 9340POPC   C1A48915   8.984  17.495   6.455
 9340POPC   D2A48916   8.931  17.467   6.755
 9340POPC   C3A48917   8.961  17.535   7.055
 9340POPC   C4A48918   8.978  17.493   7.355
 9340POPC   C1B48919   8.963  17.231   6.455
 9340POPC   C2B48920   8.900  17.233   6.755
 9340POPC   C3B48921   8.964  17.283   7.055
 9340POPC   C4B48922   8.883  17.306   7.355
 9341POPC   NC348923  20.571  44.619   5.555
 9341POPC   PO448924  20.654  44.664   5.855
 9341POPC   GL148925  20.571  44.656   6.155
 9341POPC   GL248926  20.646  44.517   6.155
 9341POPC   C1A48927  20.623  44.625   6.455
 9341POPC   D2A48928  20.660  44.645   6.755
 9341POPC   C3A48929  20.629  44.681   7.055
 9341POPC   C4A48930  20.582  44.647   7.355
 9341POPC   C1B48931  20.565  44.411   6.455
 9341POPC   C2B48932  20.555  44.430   6.755
 9341POPC   C3B48933  20.559  44.452   7.055
 9341POPC   C4B48934  20.578  44.430   7.355
 9342POPC   NC348935  18.282  14.399   5.555
 9342POPC   PO448936  18.317  14.394   5.855
 9342POPC   GL148937  18.279  14.446   6.155
 9342POPC   GL248938  18.290  14.305   6.155
 9342POPC   C1A48939  18.284  14.444   6.455
 9342POPC   D2A48940  18.237  14.356   6.755
 9342POPC   C3A48941  18.267  14.447   7.055
 9342POPC   C4A48942  18.274  14.428   7.355
 9342POPC   C1B48943  18.273  14.165   6.455
 9342POPC   C2B48944  18.201  14.150   6.755
 9342POPC   C3B48945  18.235  14.205   7.055
 9342POPC   C4B48946  18.183  14.187   7.355
 9343POPC   NC348947  19.824   8.967   5.555
 9343POPC   PO448948  19.841   8.986   5.855
 9343POPC   GL148949  19.844   8.939   6.155
 9343POPC   GL248950  19.986   8.921   6.155
 9343POPC   C1A48951  19.855   9.001   6.455
 9343POPC   D2A48952  19.829   8.949   6.755
 9343POPC   C3A48953  19.852   8.974   7.055
 9343POPC   C4A48954  19.818   8.928   7.355
 9343POPC   C1B48955  20.113   8.889   6.455
 9343POPC   C2B48956  20.109   8.879   6.755
 9343POPC   C3B48957  20.082   8.853   7.055
 9343POPC   C4B48958  20.109   8.842   7.355
 9344POPC   NC348959  22.959  29.969   5.555
 9344POPC   PO448960  22.919  29.954   5.855
 9344POPC   GL148961  22.890  29.898   6.155
 9344POPC   GL248962  22.790  29.971   6.155
 9344POPC   C1A48963  22.916  29.887   6.455
 9344POPC   D2A48964  22.911  29.904   6.755
 9344POPC   C3A48965  22.978  29.934   7.055
 9344POPC   C4A48966  22.909  29.948   7.355
 9344POPC   C1B48967  22.720  29.980   6.455
 9344POPC   C2B48968  22.733  29.964   6.755
 9344POPC   C3B48969  22.676  29.929   7.055
 9344POPC   C4B48970  22.662  29.960   7.355
 9345POPC   NC348971  12.862  37.683   5.555
 9345POPC   PO448972  12.863  37.668   5.855
 9345POPC   GL148973  12.845  37.647   6.155
 9345POPC   GL248974  12.949  37.578   6.155
 9345POPC   C1A48975  12.854  37.630   6.455
 9345POPC   D2A48976  12.803  37.630   6.755
 9345POPC   C3A48977  12.849  37.701   7.055
 9345POPC   C4A48978  12.859  37.670   7.355
 9345POPC   C1B48979  13.019  37.440   6.455
 9345POPC   C2B48980  12.945  37.515   6.755
 9345POPC   C3B48981  12.954  37.434   7.055
 9345POPC   C4B48982  12.975  37.514   7.355
 9346POPC   NC348983  11.300  42.329   5.555
 9346POPC   PO448984  11.273  42.366   5.855
 9346POPC   GL148985  11.279  42.352   6.155
 9346POPC   GL248986  11.371  42.427   6.155
 9346POPC   C1A48987  11.336  42.292   6.455
 9346POPC   D2A48988  11.251  42.322   6.755
 9346POPC   C3A48989  11.274  42.365   7.055
 9346POPC   C4A48990  11.278  42.333   7.355
 9346POPC   C1B48991  11.404  42.590   6.455
 9346POPC   C2B48992  11.484  42.570   6.755
 9346POPC   C3B48993  11.458  42.531   7.055
 9346POPC   C4B48994  11.460  42.493   7.355
 9347POPC   NC348995  43.118  21.355   5.555
 9347POPC   PO448996  43.118  21.412   5.855
 9347POPC   GL148997  43.128  21.356   6.155
 9347POPC   GL248998  42.972  21.337   6.155
 9347POPC   C1A48999  43.128  21.345   6.455
 9347POPC   D2A49000  43.078  21.340   6.755
 9347POPC   C3A49001  43.127  21.404   7.055
 9347POPC   C4A49002  43.062  21.411   7.355
 9347POPC   C1B49003  42.901  21.235   6.455
 9347POPC   C2B49004  42.914  21.193   6.755
 9347POPC   C3B49005  42.908  21.254   7.055
 9347POPC   C4B49006  42.898  21.166   7.355
 9348POPC   NC349007  26.085  15.190   5.555
 9348POPC   PO449008  26.057  15.179   5.855
 9348POPC   GL149009  26.046  15.184   6.155
 9348POPC   GL249010  26.116  15.087   6.155
 9348POPC   C1A49011  26.051  15.201   6.455
 9348POPC   D2A49012  26.067  15.213   6.755
 9348POPC   C3A49013  26.057  15.161   7.055
 9348POPC   C4A49014  25.997  15.158   7.355
 9348POPC   C1B49015  26.286  15.124   6.455
 9348POPC   C2B49016  26.287  15.120   6.755
 9348POPC   C3B49017  26.318  15.096   7.055
 9348POPC   C4B49018  26.293  15.045   7.355
 9349POPC   NC349019  36.105   7.379   5.555
 9349POPC   PO449020  36.106   7.438   5.855
 9349POPC   GL149021  36.099   7.420   6.155
 9349POPC   GL249022  36.110   7.586   6.155
 9349POPC   C1A49023  36.150   7.424   6.455
 9349POPC   D2A49024  36.176   7.404   6.755
 9349POPC   C3A49025  36.175   7.388   7.055
 9349POPC   C4A49026  36.120   7.452   7.355
 9349POPC   C1B49027  36.231   7.630   6.455
 9349POPC   C2B49028  36.170   7.644   6.755
 9349POPC   C3B49029  36.180   7.616   7.055
 9349POPC   C4B49030  36.219   7.677   7.355
 9350POPC   NC349031  42.297   4.340   5.555
 9350POPC   PO449032  42.334   4.283   5.855
 9350POPC   GL149033  42.354   4.363   6.155
 9350POPC   GL249034  42.181   4.320   6.155
 9350POPC   C1A49035  42.317   4.299   6.455
 9350POPC   D2A49036  42.302   4.333   6.755
 9350POPC   C3A49037  42.361   4.336   7.055
 9350POPC   C4A49038  42.381   4.307   7.355
 9350POPC   C1B49039  42.112   4.446   6.455
 9350POPC   C2B49040  42.091   4.405   6.755
 9350POPC   C3B49041  42.056   4.443   7.055
 9350POPC   C4B49042  42.104   4.449   7.355
 9351POPC   NC349043   0.406  33.006   5.555
 9351POPC   PO449044   0.473  33.070   5.855
 9351POPC   GL149045   0.413  33.053   6.155
 9351POPC   GL249046   0.518  32.984   6.155
 9351POPC   C1A49047   0.392  33.060   6.455
 9351POPC   D2A49048   0.473  32.998   6.755
 9351POPC   C3A49049   0.398  33.072   7.055
 9351POPC   C4A49050   0.394  33.000   7.355
 9351POPC   C1B49051   0.660  32.861   6.455
 9351POPC   C2B49052   0.658  32.829   6.755
 9351POPC   C3B49053   0.662  32.908   7.055
 9351POPC   C4B49054   0.626  32.879   7.355
 9352POPC   NC349055  33.834  23.728   5.555
 9352POPC   PO449056  33.848  23.723   5.855
 9352POPC   GL149057  33.774  23.675   6.155
 9352POPC   GL249058  33.688  23.595   6.155
 9352POPC   C1A49059  33.821  23.729   6.455
 9352POPC   D2A49060  33.836  23.745   6.755
 9352POPC   C3A49061  33.843  23.690   7.055
 9352POPC   C4A49062  33.797  23.731   7.355
 9352POPC   C1B49063  33.643  23.510   6.455
 9352POPC   C2B49064  33.633  23.468   6.755
 9352POPC   C3B49065  33.611  23.523   7.055
 9352POPC   C4B49066  33.641  23.559   7.355
 9353POPC   NC349067   3.494  19.857   5.555
 9353POPC   PO449068   3.542  19.802   5.855
 9353POPC   GL149069   3.512  19.873   6.155
 9353POPC   GL249070   3.529  19.924   6.155
 9353POPC   C1A49071   3.541  19.862   6.455
 9353POPC   D2A49072   3.550  19.838   6.755
 9353POPC   C3A49073   3.561  19.859   7.055
 9353POPC   C4A49074   3.500  19.803   7.355
 9353POPC   C1B49075   3.437  20.054   6.455
 9353POPC   C2B49076   3.433  20.080   6.755
 9353POPC   C3B49077   3.482  20.100   7.055
 9353POPC   C4B49078   3.500  20.074   7.355
 9354POPC   NC349079  19.051   7.379   5.555
 9354POPC   PO449080  19.051   7.409   5.855
 9354POPC   GL149081  19.099   7.417   6.155
 9354POPC   GL249082  18.931   7.428   6.155
 9354POPC   C1A49083  19.054   7.384   6.455
 9354POPC   D2A49084  19.100   7.441   6.755
 9354POPC   C3A49085  19.090   7.431   7.055
 9354POPC   C4A49086  19.101   7.393   7.355
 9354POPC   C1B49087  18.808   7.434   6.455
 9354POPC   C2B49088  18.777   7.413   6.755
 9354POPC   C3B49089  18.790   7.411   7.055
 9354POPC   C4B49090  18.791   7.451   7.355
 9355POPC   NC349091  12.090  44.679   5.555
 9355POPC   PO449092  12.027  44.671   5.855
 9355POPC   GL149093  12.119  44.675   6.155
 9355POPC   GL249094  12.157  44.696   6.155
 9355POPC   C1A49095  12.053  44.635   6.455
 9355POPC   D2A49096  12.088  44.662   6.755
 9355POPC   C3A49097  12.028  44.700   7.055
 9355POPC   C4A49098  12.095  44.677   7.355
 9355POPC   C1B49099  12.307  44.769   6.455
 9355POPC   C2B49100  12.275  44.840   6.755
 9355POPC   C3B49101  12.308  44.822   7.055
 9355POPC   C4B49102  12.288  44.765   7.355
 9356POPC   NC349103  33.797   2.022   5.555
 9356POPC   PO449104  33.768   1.970   5.855
 9356POPC   GL149105  33.764   2.014   6.155
 9356POPC   GL249106  33.753   1.873   6.155
 9356POPC   C1A49107  33.750   2.027   6.455
 9356POPC   D2A49108  33.846   2.039   6.755
 9356POPC   C3A49109  33.766   1.993   7.055
 9356POPC   C4A49110  33.761   2.024   7.355
 9356POPC   C1B49111  33.599   1.868   6.455
 9356POPC   C2B49112  33.619   1.824   6.755
 9356POPC   C3B49113  33.654   1.793   7.055
 9356POPC   C4B49114  33.620   1.773   7.355
 9357POPC   NC349115  31.519  22.186   5.555
 9357POPC   PO449116  31.456  22.170   5.855
 9357POPC   GL149117  31.493  22.187   6.155
 9357POPC   GL249118  31.426  22.289   6.155
 9357POPC   C1A49119  31.444  22.128   6.455
 9357POPC   D2A49120  31.428  22.122   6.755
 9357POPC   C3A49121  31.473  22.128   7.055
 9357POPC   C4A49122  31.497  22.128   7.355
 9357POPC   C1B49123  31.303  22.322   6.455
 9357POPC   C2B49124  31.278  22.342   6.755
 9357POPC   C3B49125  31.364  22.366   7.055
 9357POPC   C4B49126  31.297  22.386   7.355
 9358POPC   NC349127  32.244  17.547   5.555
 9358POPC   PO449128  32.277  17.460   5.855
 9358POPC   GL149129  32.263  17.532   6.155
 9358POPC   GL249130  32.177  17.563   6.155
 9358POPC   C1A49131  32.236  17.477   6.455
 9358POPC   D2A49132  32.213  17.521   6.755
 9358POPC   C3A49133  32.248  17.548   7.055
 9358POPC   C4A49134  32.219  17.493   7.355
 9358POPC   C1B49135  32.008  17.578   6.455
 9358POPC   C2B49136  31.991  17.572   6.755
 9358POPC   C3B49137  32.022  17.611   7.055
 9358POPC   C4B49138  32.007  17.571   7.355
 9359POPC   NC349139   1.942  23.693   5.555
 9359POPC   PO449140   2.010  23.724   5.855
 9359POPC   GL149141   1.975  23.741   6.155
 9359POPC   GL249142   1.934  23.659   6.155
 9359POPC   C1A49143   1.961  23.702   6.455
 9359POPC   D2A49144   1.955  23.736   6.755
 9359POPC   C3A49145   1.958  23.737   7.055
 9359POPC   C4A49146   1.983  23.725   7.355
 9359POPC   C1B49147   1.818  23.547   6.455
 9359POPC   C2B49148   1.753  23.499   6.755
 9359POPC   C3B49149   1.815  23.524   7.055
 9359POPC   C4B49150   1.805  23.542   7.355
 9360POPC   NC349151  26.815  15.979   5.555
 9360POPC   PO449152  26.788  15.952   5.855
 9360POPC   GL149153  26.850  15.990   6.155
 9360POPC   GL249154  26.828  16.081   6.155
 9360POPC   C1A49155  26.780  15.974   6.455
 9360POPC   D2A49156  26.864  15.958   6.755
 9360POPC   C3A49157  26.840  15.944   7.055
 9360POPC   C4A49158  26.801  15.947   7.355
 9360POPC   C1B49159  26.978  16.154   6.455
 9360POPC   C2B49160  26.900  16.148   6.755
 9360POPC   C3B49161  26.918  16.163   7.055
 9360POPC   C4B49162  26.932  16.225   7.355
 9361POPC   NC349163  15.162  34.554   5.555
 9361POPC   PO449164  15.187  34.569   5.855
 9361POPC   GL149165  15.185  34.622   6.155
 9361POPC   GL249166  15.222  34.464   6.155
 9361POPC   C1A49167  15.139  34.617   6.455
 9361POPC   D2A49168  15.156  34.539   6.755
 9361POPC   C3A49169  15.152  34.563   7.055
 9361POPC   C4A49170  15.192  34.527   7.355
 9361POPC   C1B49171  15.325  34.440   6.455
 9361POPC   C2B49172  15.361  34.424   6.755
 9361POPC   C3B49173  15.320  34.432   7.055
 9361POPC   C4B49174  15.334  34.416   7.355
 9362POPC   NC349175  14.377   8.991   5.555
 9362POPC   PO449176  14.370   9.022   5.855
 9362POPC   GL149177  14.365   8.996   6.155
 9362POPC   GL249178  14.264   9.019   6.155
 9362POPC   C1A49179  14.412   8.940   6.455
 9362POPC   D2A49180  14.377   8.944   6.755
 9362POPC   C3A49181  14.371   8.969   7.055
 9362POPC   C4A49182  14.442   8.955   7.355
 9362POPC   C1B49183  14.143   9.029   6.455
 9362POPC   C2B49184  14.127   9.046   6.755
 9362POPC   C3B49185  14.163   9.059   7.055
 9362POPC   C4B49186  14.182   9.094   7.355
 9363POPC   NC349187  15.939  36.091   5.555
 9363POPC   PO449188  15.968  36.110   5.855
 9363POPC   GL149189  15.911  36.171   6.155
 9363POPC   GL249190  16.053  36.029   6.155
 9363POPC   C1A49191  15.935  36.125   6.455
 9363POPC   D2A49192  15.922  36.092   6.755
 9363POPC   C3A49193  15.967  36.104   7.055
 9363POPC   C4A49194  16.000  36.132   7.355
 9363POPC   C1B49195  16.140  36.016   6.455
 9363POPC   C2B49196  16.170  35.984   6.755
 9363POPC   C3B49197  16.147  36.013   7.055
 9363POPC   C4B49198  16.138  36.018   7.355
 9364POPC   NC349199  36.177  29.871   5.555
 9364POPC   PO449200  36.152  29.911   5.855
 9364POPC   GL149201  36.111  29.948   6.155
 9364POPC   GL249202  36.159  30.036   6.155
 9364POPC   C1A49203  36.148  29.940   6.455
 9364POPC   D2A49204  36.158  29.938   6.755
 9364POPC   C3A49205  36.078  29.902   7.055
 9364POPC   C4A49206  36.132  29.946   7.355
 9364POPC   C1B49207  36.202  30.182   6.455
 9364POPC   C2B49208  36.177  30.197   6.755
 9364POPC   C3B49209  36.212  30.146   7.055
 9364POPC   C4B49210  36.229  30.165   7.355
 9365POPC   NC349211  41.594  22.953   5.555
 9365POPC   PO449212  41.578  22.959   5.855
 9365POPC   GL149213  41.537  22.946   6.155
 9365POPC   GL249214  41.570  23.072   6.155
 9365POPC   C1A49215  41.518  22.915   6.455
 9365POPC   D2A49216  41.533  22.937   6.755
 9365POPC   C3A49217  41.522  22.942   7.055
 9365POPC   C4A49218  41.574  22.951   7.355
 9365POPC   C1B49219  41.651  23.195   6.455
 9365POPC   C2B49220  41.662  23.194   6.755
 9365POPC   C3B49221  41.628  23.147   7.055
 9365POPC   C4B49222  41.680  23.206   7.355
 9366POPC   NC349223  26.055  21.429   5.555
 9366POPC   PO449224  26.003  21.419   5.855
 9366POPC   GL149225  26.066  21.407   6.155
 9366POPC   GL249226  25.981  21.408   6.155
 9366POPC   C1A49227  26.019  21.336   6.455
 9366POPC   D2A49228  26.031  21.395   6.755
 9366POPC   C3A49229  26.029  21.363   7.055
 9366POPC   C4A49230  26.038  21.436   7.355
 9366POPC   C1B49231  25.857  21.479   6.455
 9366POPC   C2B49232  25.859  21.548   6.755
 9366POPC   C3B49233  25.792  21.513   7.055
 9366POPC   C4B49234  25.798  21.565   7.355
 9367POPC   NC349235  28.344  42.333   5.555
 9367POPC   PO449236  28.408  42.364   5.855
 9367POPC   GL149237  28.362  42.314   6.155
 9367POPC   GL249238  28.309  42.428   6.155
 9367POPC   C1A49239  28.371  42.328   6.455
 9367POPC   D2A49240  28.413  42.330   6.755
 9367POPC   C3A49241  28.376  42.320   7.055
 9367POPC   C4A49242  28.406  42.360   7.355
 9367POPC   C1B49243  28.190  42.507   6.455
 9367POPC   C2B49244  28.165  42.553   6.755
 9367POPC   C3B49245  28.152  42.537   7.055
 9367POPC   C4B49246  28.215  42.468   7.355
 9368POPC   NC349247   9.002  39.196   5.555
 9368POPC   PO449248   9.012  39.230   5.855
 9368POPC   GL149249   9.004  39.268   6.155
 9368POPC   GL249250   9.088  39.232   6.155
 9368POPC   C1A49251   8.951  39.241   6.455
 9368POPC   D2A49252   8.943  39.230   6.755
 9368POPC   C3A49253   8.927  39.266   7.055
 9368POPC   C4A49254   8.938  39.254   7.355
 9368POPC   C1B49255   9.238  39.281   6.455
 9368POPC   C2B49256   9.243  39.260   6.755
 9368POPC   C3B49257   9.260  39.319   7.055
 9368POPC   C4B49258   9.193  39.335   7.355
 9369POPC   NC349259   6.654  17.531   5.555
 9369POPC   PO449260   6.647  17.521   5.855
 9369POPC   GL149261   6.658  17.489   6.155
 9369POPC   GL249262   6.584  17.595   6.155
 9369POPC   C1A49263   6.630  17.467   6.455
 9369POPC   D2A49264   6.619  17.508   6.755
 9369POPC   C3A49265   6.650  17.550   7.055
 9369POPC   C4A49266   6.611  17.505   7.355
 9369POPC   C1B49267   6.559  17.744   6.455
 9369POPC   C2B49268   6.621  17.709   6.755
 9369POPC   C3B49269   6.575  17.720   7.055
 9369POPC   C4B49270   6.632  17.713   7.355
 9370POPC   NC349271   2.743  19.092   5.555
 9370POPC   PO449272   2.784  19.075   5.855
 9370POPC   GL149273   2.753  19.103   6.155
 9370POPC   GL249274   2.759  18.988   6.155
 9370POPC   C1A49275   2.716  19.056   6.455
 9370POPC   D2A49276   2.798  19.100   6.755
 9370POPC   C3A49277   2.774  19.100   7.055
 9370POPC   C4A49278   2.728  19.067   7.355
 9370POPC   C1B49279   2.677  18.776   6.455
 9370POPC   C2B49280   2.737  18.827   6.755
 9370POPC   C3B49281   2.708  18.796   7.055
 9370POPC   C4B49282   2.711  18.773   7.355
 9371POPC   NC349283  29.930  12.886   5.555
 9371POPC   PO449284  29.930  12.854   5.855
 9371POPC   GL149285  29.947  12.841   6.155
 9371POPC   GL249286  29.901  12.961   6.155
 9371POPC   C1A49287  29.905  12.809   6.455
 9371POPC   D2A49288  29.968  12.804   6.755
 9371POPC   C3A49289  29.918  12.811   7.055
 9371POPC   C4A49290  29.958  12.845   7.355
 9371POPC   C1B49291  29.948  13.077   6.455
 9371POPC   C2B49292  29.876  13.077   6.755
 9371POPC   C3B49293  29.924  13.120   7.055
 9371POPC   C4B49294  29.873  13.073   7.355
 9372POPC   NC349295  40.791  12.897   5.555
 9372POPC   PO449296  40.810  12.847   5.855
 9372POPC   GL149297  40.787  12.895   6.155
 9372POPC   GL249298  40.646  12.804   6.155
 9372POPC   C1A49299  40.780  12.892   6.455
 9372POPC   D2A49300  40.803  12.830   6.755
 9372POPC   C3A49301  40.806  12.854   7.055
 9372POPC   C4A49302  40.786  12.812   7.355
 9372POPC   C1B49303  40.530  12.776   6.455
 9372POPC   C2B49304  40.545  12.770   6.755
 9372POPC   C3B49305  40.551  12.761   7.055
 9372POPC   C4B49306  40.557  12.814   7.355
 9373POPC   NC349307  43.890  43.860   5.555
 9373POPC   PO449308  43.852  43.893   5.855
 9373POPC   GL149309  43.871  43.920   6.155
 9373POPC   GL249310  43.792  43.833   6.155
 9373POPC   C1A49311  43.857  43.856   6.455
 9373POPC   D2A49312  43.845  43.867   6.755
 9373POPC   C3A49313  43.902  43.890   7.055
 9373POPC   C4A49314  43.864  43.846   7.355
 9373POPC   C1B49315  43.640  43.766   6.455
 9373POPC   C2B49316  43.682  43.757   6.755
 9373POPC   C3B49317  43.619  43.774   7.055
 9373POPC   C4B49318  43.684  43.828   7.355
 9374POPC   NC349319  19.056  32.274   5.555
 9374POPC   PO449320  19.037  32.284   5.855
 9374POPC   GL149321  19.097  32.233   6.155
 9374POPC   GL249322  18.913  32.307   6.155
 9374POPC   C1A49323  19.068  32.231   6.455
 9374POPC   D2A49324  19.044  32.245   6.755
 9374POPC   C3A49325  19.099  32.268   7.055
 9374POPC   C4A49326  19.054  32.263   7.355
 9374POPC   C1B49327  18.782  32.237   6.455
 9374POPC   C2B49328  18.822  32.216   6.755
 9374POPC   C3B49329  18.852  32.277   7.055
 9374POPC   C4B49330  18.834  32.312   7.355
 9375POPC   NC349331  29.933   5.113   5.555
 9375POPC   PO449332  29.962   5.109   5.855
 9375POPC   GL149333  29.956   5.095   6.155
 9375POPC   GL249334  30.007   5.044   6.155
 9375POPC   C1A49335  29.968   5.043   6.455
 9375POPC   D2A49336  29.921   5.141   6.755
 9375POPC   C3A49337  29.915   5.072   7.055
 9375POPC   C4A49338  29.911   5.076   7.355
 9375POPC   C1B49339  30.184   5.026   6.455
 9375POPC   C2B49340  30.126   5.001   6.755
 9375POPC   C3B49341  30.175   5.002   7.055
 9375POPC   C4B49342  30.163   4.959   7.355
 9376POPC   NC349343  12.845  43.929   5.555
 9376POPC   PO449344  12.847  43.838   5.855
 9376POPC   GL149345  12.860  43.873   6.155
 9376POPC   GL249346  12.777  43.939   6.155
 9376POPC   C1A49347  12.824  43.911   6.455
 9376POPC   D2A49348  12.819  43.907   6.755
 9376POPC   C3A49349  12.895  43.847   7.055
 9376POPC   C4A49350  12.897  43.876   7.355
 9376POPC   C1B49351  12.593  43.905   6.455
 9376POPC   C2B49352  12.615  43.931   6.755
 9376POPC   C3B49353  12.565  43.949   7.055
 9376POPC   C4B49354  12.614  43.883   7.355
 9377POPC   NC349355   3.506   1.180   5.555
 9377POPC   PO449356   3.492   1.175   5.855
 9377POPC   GL149357   3.553   1.168   6.155
 9377POPC   GL249358   3.676   1.318   6.155
 9377POPC   C1A49359   3.495   1.259   6.455
 9377POPC   D2A49360   3.529   1.260   6.755
 9377POPC   C3A49361   3.568   1.218   7.055
 9377POPC   C4A49362   3.525   1.177   7.355
 9377POPC   C1B49363   3.727   1.380   6.455
 9377POPC   C2B49364   3.799   1.355   6.755
 9377POPC   C3B49365   3.723   1.376   7.055
 9377POPC   C4B49366   3.790   1.346   7.355
 9378POPC   NC349367  26.863   8.237   5.555
 9378POPC   PO449368  26.856   8.220   5.855
 9378POPC   GL149369  26.836   8.160   6.155
 9378POPC   GL249370  26.976   8.156   6.155
 9378POPC   C1A49371  26.784   8.163   6.455
 9378POPC   D2A49372  26.827   8.160   6.755
 9378POPC   C3A49373  26.835   8.222   7.055
 9378POPC   C4A49374  26.856   8.214   7.355
 9378POPC   C1B49375  27.060   8.168   6.455
 9378POPC   C2B49376  27.092   8.136   6.755
 9378POPC   C3B49377  27.085   8.133   7.055
 9378POPC   C4B49378  27.082   8.164   7.355
 9379POPC   NC349379   3.545  41.556   5.555
 9379POPC   PO449380   3.588  41.553   5.855
 9379POPC   GL149381   3.546  41.522   6.155
 9379POPC   GL249382   3.481  41.450   6.155
 9379POPC   C1A49383   3.495  41.586   6.455
 9379POPC   D2A49384   3.563  41.512   6.755
 9379POPC   C3A49385   3.543  41.510   7.055
 9379POPC   C4A49386   3.568  41.534   7.355
 9379POPC   C1B49387   3.377  41.402   6.455
 9379POPC   C2B49388   3.335  41.419   6.755
 9379POPC   C3B49389   3.366  41.427   7.055
 9379POPC   C4B49390   3.318  41.380   7.355
 9380POPC   NC349391  42.337  42.342   5.555
 9380POPC   PO449392  42.368  42.381   5.855
 9380POPC   GL149393  42.368  42.298   6.155
 9380POPC   GL249394  42.200  42.346   6.155
 9380POPC   C1A49395  42.367  42.331   6.455
 9380POPC   D2A49396  42.291  42.377   6.755
 9380POPC   C3A49397  42.305  42.285   7.055
 9380POPC   C4A49398  42.379  42.285   7.355
 9380POPC   C1B49399  42.127  42.436   6.455
 9380POPC   C2B49400  42.126  42.439   6.755
 9380POPC   C3B49401  42.078  42.475   7.055
 9380POPC   C4B49402  42.150  42.419   7.355
 9381POPC   NC349403  33.056  44.628   5.555
 9381POPC   PO449404  32.990  44.694   5.855
 9381POPC   GL149405  33.065  44.668   6.155
 9381POPC   GL249406  33.158  44.630   6.155
 9381POPC   C1A49407  33.020  44.622   6.455
 9381POPC   D2A49408  32.983  44.682   6.755
 9381POPC   C3A49409  33.026  44.676   7.055
 9381POPC   C4A49410  33.006  44.686   7.355
 9381POPC   C1B49411  33.294  44.671   6.455
 9381POPC   C2B49412  33.303  44.659   6.755
 9381POPC   C3B49413  33.264  44.660   7.055
 9381POPC   C4B49414  33.253  44.653   7.355
 9382POPC   NC349415  28.417   3.561   5.555
 9382POPC   PO449416  28.335   3.550   5.855
 9382POPC   GL149417  28.398   3.561   6.155
 9382POPC   GL249418  28.197   3.538   6.155
 9382POPC   C1A49419  28.369   3.495   6.455
 9382POPC   D2A49420  28.404   3.564   6.755
 9382POPC   C3A49421  28.378   3.584   7.055
 9382POPC   C4A49422  28.414   3.491   7.355
 9382POPC   C1B49423  28.133   3.452   6.455
 9382POPC   C2B49424  28.086   3.491   6.755
 9382POPC   C3B49425  28.076   3.482   7.055
 9382POPC   C4B49426  28.130   3.467   7.355
 9383POPC   NC349427  19.831  29.939   5.555
 9383POPC   PO449428  19.788  29.939   5.855
 9383POPC   GL149429  19.883  29.956   6.155
 9383POPC   GL249430  19.933  29.840   6.155
 9383POPC   C1A49431  19.841  29.873   6.455
 9383POPC   D2A49432  19.803  29.925   6.755
 9383POPC   C3A49433  19.825  29.931   7.055
 9383POPC   C4A49434  19.838  29.941   7.355
 9383POPC   C1B49435  19.926  29.681   6.455
 9383POPC   C2B49436  19.932  29.695   6.755
 9383POPC   C3B49437  19.916  29.702   7.055
 9383POPC   C4B49438  19.988  29.664   7.355
 9384POPC   NC349439  32.265   8.226   5.555
 9384POPC   PO449440  32.286   8.203   5.855
 9384POPC   GL149441  32.223   8.158   6.155
 9384POPC   GL249442  32.340   8.087   6.155
 9384POPC   C1A49443  32.240   8.149   6.455
 9384POPC   D2A49444  32.269   8.244   6.755
 9384POPC   C3A49445  32.214   8.211   7.055
 9384POPC   C4A49446  32.269   8.181   7.355
 9384POPC   C1B49447  32.403   8.000   6.455
 9384POPC   C2B49448  32.443   8.003   6.755
 9384POPC   C3B49449  32.438   7.984   7.055
 9384POPC   C4B49450  32.468   7.963   7.355
 9385POPC   NC349451  35.352  19.877   5.555
 9385POPC   PO449452  35.319  19.829   5.855
 9385POPC   GL149453  35.312  19.794   6.155
 9385POPC   GL249454  35.343  19.946   6.155
 9385POPC   C1A49455  35.304  19.824   6.455
 9385POPC   D2A49456  35.355  19.857   6.755
 9385POPC   C3A49457  35.360  19.843   7.055
 9385POPC   C4A49458  35.313  19.884   7.355
 9385POPC   C1B49459  35.448  20.038   6.455
 9385POPC   C2B49460  35.406  20.083   6.755
 9385POPC   C3B49461  35.405  20.063   7.055
 9385POPC   C4B49462  35.427  20.048   7.355
 9386POPC   NC349463   3.527  43.862   5.555
 9386POPC   PO449464   3.554  43.851   5.855
 9386POPC   GL149465   3.539  43.848   6.155
 9386POPC   GL249466   3.619  43.983   6.155
 9386POPC   C1A49467   3.567  43.851   6.455
 9386POPC   D2A49468   3.570  43.894   6.755
 9386POPC   C3A49469   3.555  43.858   7.055
 9386POPC   C4A49470   3.504  43.926   7.355
 9386POPC   C1B49471   3.711  44.025   6.455
 9386POPC   C2B49472   3.682  44.081   6.755
 9386POPC   C3B49473   3.721  44.086   7.055
 9386POPC   C4B49474   3.690  44.092   7.355
 9387POPC   NC349475   4.298  36.951   5.555
 9387POPC   PO449476   4.272  36.855   5.855
 9387POPC   GL149477   4.345  36.913   6.155
 9387POPC   GL249478   4.377  37.006   6.155
 9387POPC   C1A49479   4.319  36.860   6.455
 9387POPC   D2A49480   4.363  36.923   6.755
 9387POPC   C3A49481   4.344  36.895   7.055
 9387POPC   C4A49482   4.355  36.905   7.355
 9387POPC   C1B49483   4.515  37.078   6.455
 9387POPC   C2B49484   4.454  37.050   6.755
 9387POPC   C3B49485   4.484  37.083   7.055
 9387POPC   C4B49486   4.440  37.079   7.355
 9388POPC   NC349487   2.027   5.087   5.555
 9388POPC   PO449488   1.971   5.142   5.855
 9388POPC   GL149489   1.979   5.126   6.155
 9388POPC   GL249490   2.075   5.000   6.155
 9388POPC   C1A49491   1.983   5.078   6.455
 9388POPC   D2A49492   1.971   5.119   6.755
 9388POPC   C3A49493   2.000   5.138   7.055
 9388POPC   C4A49494   1.982   5.132   7.355
 9388POPC   C1B49495   2.072   4.874   6.455
 9388POPC   C2B49496   2.077   4.878   6.755
 9388POPC   C3B49497   2.063   4.819   7.055
 9388POPC   C4B49498   2.117   4.856   7.355
 9389POPC   NC349499   3.530  35.324   5.555
 9389POPC   PO449500   3.555  35.320   5.855
 9389POPC   GL149501   3.549  35.316   6.155
 9389POPC   GL249502   3.647  35.344   6.155
 9389POPC   C1A49503   3.538  35.308   6.455
 9389POPC   D2A49504   3.589  35.315   6.755
 9389POPC   C3A49505   3.539  35.374   7.055
 9389POPC   C4A49506   3.535  35.360   7.355
 9389POPC   C1B49507   3.772  35.413   6.455
 9389POPC   C2B49508   3.768  35.457   6.755
 9389POPC   C3B49509   3.768  35.428   7.055
 9389POPC   C4B49510   3.758  35.389   7.355
 9390POPC   NC349511  26.843  19.058   5.555
 9390POPC   PO449512  26.768  19.102   5.855
 9390POPC   GL149513  26.865  19.092   6.155
 9390POPC   GL249514  26.906  19.119   6.155
 9390POPC   C1A49515  26.821  19.087   6.455
 9390POPC   D2A49516  26.784  19.052   6.755
 9390POPC   C3A49517  26.817  19.084   7.055
 9390POPC   C4A49518  26.795  19.076   7.355
 9390POPC   C1B49519  26.928  19.315   6.455
 9390POPC   C2B49520  26.933  19.218   6.755
 9390POPC   C3B49521  26.989  19.284   7.055
 9390POPC   C4B49522  26.987  19.287   7.355
 9391POPC   NC349523  35.352  15.930   5.555
 9391POPC   PO449524  35.396  15.974   5.855
 9391POPC   GL149525  35.348  15.955   6.155
 9391POPC   GL249526  35.220  16.029   6.155
 9391POPC   C1A49527  35.305  15.955   6.455
 9391POPC   D2A49528  35.346  15.976   6.755
 9391POPC   C3A49529  35.378  15.929   7.055
 9391POPC   C4A49530  35.336  15.971   7.355
 9391POPC   C1B49531  35.183  16.159   6.455
 9391POPC   C2B49532  35.155  16.119   6.755
 9391POPC   C3B49533  35.218  16.101   7.055
 9391POPC   C4B49534  35.141  16.112   7.355
 9392POPC   NC349535  16.689   6.606   5.555
 9392POPC   PO449536  16.754   6.684   5.855
 9392POPC   GL149537  16.743   6.695   6.155
 9392POPC   GL249538  16.660   6.552   6.155
 9392POPC   C1A49539  16.698   6.650   6.455
 9392POPC   D2A49540  16.752   6.637   6.755
 9392POPC   C3A49541  16.747   6.657   7.055
 9392POPC   C4A49542  16.703   6.624   7.355
 9392POPC   C1B49543  16.559   6.405   6.455
 9392POPC   C2B49544  16.576   6.391   6.755
 9392POPC   C3B49545  16.563   6.442   7.055
 9392POPC   C4B49546  16.621   6.413   7.355
 9393POPC   NC349547  26.831   0.487   5.555
 9393POPC   PO449548  26.865   0.466   5.855
 9393POPC   GL149549  26.793   0.480   6.155
 9393POPC   GL249550  26.896   0.360   6.155
 9393POPC   C1A49551  26.865   0.412   6.455
 9393POPC   D2A49552  26.838   0.439   6.755
 9393POPC   C3A49553  26.776   0.469   7.055
 9393POPC   C4A49554  26.830   0.482   7.355
 9393POPC   C1B49555  26.856   0.231   6.455
 9393POPC   C2B49556  26.863   0.207   6.755
 9393POPC   C3B49557  26.940   0.167   7.055
 9393POPC   C4B49558  26.947   0.200   7.355
 9394POPC   NC349559  42.297  13.595   5.555
 9394POPC   PO449560  42.328  13.603   5.855
 9394POPC   GL149561  42.298  13.644   6.155
 9394POPC   GL249562  42.457  13.745   6.155
 9394POPC   C1A49563  42.319  13.586   6.455
 9394POPC   D2A49564  42.289  13.591   6.755
 9394POPC   C3A49565  42.333  13.626   7.055
 9394POPC   C4A49566  42.376  13.648   7.355
 9394POPC   C1B49567  42.516  13.824   6.455
 9394POPC   C2B49568  42.538  13.842   6.755
 9394POPC   C3B49569  42.517  13.848   7.055
 9394POPC   C4B49570  42.532  13.828   7.355
 9395POPC   NC349571  44.621  43.065   5.555
 9395POPC   PO449572  44.687  43.160   5.855
 9395POPC   GL149573  44.701  43.066   6.155
 9395POPC   GL249574  44.766  42.953   6.155
 9395POPC   C1A49575  44.680  43.106   6.455
 9395POPC   D2A49576  44.692  43.081   6.755
 9395POPC   C3A49577  44.665  43.127   7.055
 9395POPC   C4A49578  44.674  43.122   7.355
 9395POPC   C1B49579  44.787  42.924   6.455
 9395POPC   C2B49580  44.806  42.930   6.755
 9395POPC   C3B49581  44.821  42.938   7.055
 9395POPC   C4B49582  44.786  42.901   7.355
 9396POPC   NC349583  42.364  35.336   5.555
 9396POPC   PO449584  42.335  35.311   5.855
 9396POPC   GL149585  42.370  35.392   6.155
 9396POPC   GL249586  42.385  35.279   6.155
 9396POPC   C1A49587  42.292  35.303   6.455
 9396POPC   D2A49588  42.381  35.381   6.755
 9396POPC   C3A49589  42.310  35.329   7.055
 9396POPC   C4A49590  42.380  35.386   7.355
 9396POPC   C1B49591  42.439  35.111   6.455
 9396POPC   C2B49592  42.432  35.070   6.755
 9396POPC   C3B49593  42.432  35.088   7.055
 9396POPC   C4B49594  42.363  35.096   7.355
 9397POPC   NC349595   1.217  15.215   5.555
 9397POPC   PO449596   1.174  15.203   5.855
 9397POPC   GL149597   1.195  15.218   6.155
 9397POPC   GL249598   1.145  15.326   6.155
 9397POPC   C1A49599   1.210  15.180   6.455
 9397POPC   D2A49600   1.220  15.186   6.755
 9397POPC   C3A49601   1.191  15.189   7.055
 9397POPC   C4A49602   1.213  15.155   7.355
 9397POPC   C1B49603   1.045  15.405   6.455
 9397POPC   C2B49604   1.052  15.426   6.755
 9397POPC   C3B49605   1.095  15.378   7.055
 9397POPC   C4B49606   1.032  15.419   7.355
 9398POPC   NC349607  43.916  24.507   5.555
 9398POPC   PO449608  43.890  24.482   5.855
 9398POPC   GL149609  43.928  24.441   6.155
 9398POPC   GL249610  43.814  24.588   6.155
 9398POPC   C1A49611  43.884  24.453   6.455
 9398POPC   D2A49612  43.878  24.517   6.755
 9398POPC   C3A49613  43.906  24.462   7.055
 9398POPC   C4A49614  43.914  24.466   7.355
 9398POPC   C1B49615  43.715  24.653   6.455
 9398POPC   C2B49616  43.684  24.609   6.755
 9398POPC   C3B49617  43.713  24.654   7.055
 9398POPC   C4B49618  43.671  24.642   7.355
 9399POPC   NC349619  19.030  37.704   5.555
 9399POPC   PO449620  19.048  37.711   5.855
 9399POPC   GL149621  19.017  37.645   6.155
 9399POPC   GL249622  19.093  37.552   6.155
 9399POPC   C1A49623  19.084  37.644   6.455
 9399POPC   D2A49624  19.017  37.634   6.755
 9399POPC   C3A49625  19.058  37.693   7.055
 9399POPC   C4A49626  19.054  37.637   7.355
 9399POPC   C1B49627  19.171  37.518   6.455
 9399POPC   C2B49628  19.200  37.473   6.755
 9399POPC   C3B49629  19.254  37.498   7.055
 9399POPC   C4B49630  19.268  37.524   7.355
 9400POPC   NC349631  15.220   0.459   5.555
 9400POPC   PO449632  15.130   0.398   5.855
 9400POPC   GL149633  15.171   0.412   6.155
 9400POPC   GL249634  15.041   0.476   6.155
 9400POPC   C1A49635  15.188   0.400   6.455
 9400POPC   D2A49636  15.175   0.404   6.755
 9400POPC   C3A49637  15.154   0.470   7.055
 9400POPC   C4A49638  15.160   0.397   7.355
 9400POPC   C1B49639  14.962   0.440   6.455
 9400POPC   C2B49640  14.947   0.438   6.755
 9400POPC   C3B49641  14.917   0.492   7.055
 9400POPC   C4B49642  14.922   0.449   7.355
 9401POPC   NC349643  35.319   9.016   5.555
 9401POPC   PO449644  35.369   8.984   5.855
 9401POPC   GL149645  35.337   8.971   6.155
 9401POPC   GL249646  35.235   8.860   6.155
 9401POPC   C1A49647  35.330   8.965   6.455
 9401POPC   D2A49648  35.364   9.021   6.755
 9401POPC   C3A49649  35.316   8.980   7.055
 9401POPC   C4A49650  35.332   8.997   7.355
 9401POPC   C1B49651  35.242   8.744   6.455
 9401POPC   C2B49652  35.263   8.793   6.755
 9401POPC   C3B49653  35.210   8.742   7.055
 9401POPC   C4B49654  35.214   8.715   7.355
 9402POPC   NC349655   9.795  43.111   5.555
 9402POPC   PO449656   9.781  43.068   5.855
 9402POPC   GL149657   9.717  43.121   6.155
 9402POPC   GL249658   9.888  43.134   6.155
 9402POPC   C1A49659   9.742  43.149   6.455
 9402POPC   D2A49660   9.735  43.076   6.755
 9402POPC   C3A49661   9.754  43.082   7.055
 9402POPC   C4A49662   9.759  43.158   7.355
 9402POPC   C1B49663  10.005  43.099   6.455
 9402POPC   C2B49664   9.990  43.103   6.755
 9402POPC   C3B49665  10.030  43.138   7.055
 9402POPC   C4B49666  10.024  43.078   7.355
 9403POPC   NC349667  23.724  12.805   5.555
 9403POPC   PO449668  23.758  12.806   5.855
 9403POPC   GL149669  23.734  12.825   6.155
 9403POPC   GL249670  23.695  12.989   6.155
 9403POPC   C1A49671  23.681  12.854   6.455
 9403POPC   D2A49672  23.679  12.901   6.755
 9403POPC   C3A49673  23.685  12.888   7.055
 9403POPC   C4A49674  23.693  12.886   7.355
 9403POPC   C1B49675  23.641  13.133   6.455
 9403POPC   C2B49676  23.699  13.106   6.755
 9403POPC   C3B49677  23.698  13.075   7.055
 9403POPC   C4B49678  23.682  13.109   7.355
 9404POPC   NC349679  43.863  39.272   5.555
 9404POPC   PO449680  43.920  39.260   5.855
 9404POPC   GL149681  43.922  39.186   6.155
 9404POPC   GL249682  43.987  39.228   6.155
 9404POPC   C1A49683  43.888  39.213   6.455
 9404POPC   D2A49684  43.890  39.253   6.755
 9404POPC   C3A49685  43.932  39.204   7.055
 9404POPC   C4A49686  43.900  39.195   7.355
 9404POPC   C1B49687  44.086  39.275   6.455
 9404POPC   C2B49688  44.122  39.350   6.755
 9404POPC   C3B49689  44.078  39.332   7.055
 9404POPC   C4B49690  44.088  39.361   7.355
 9405POPC   NC349691  17.462   1.167   5.555
 9405POPC   PO449692  17.504   1.258   5.855
 9405POPC   GL149693  17.513   1.203   6.155
 9405POPC   GL249694  17.606   1.198   6.155
 9405POPC   C1A49695  17.500   1.167   6.455
 9405POPC   D2A49696  17.484   1.199   6.755
 9405POPC   C3A49697  17.488   1.175   7.055
 9405POPC   C4A49698  17.508   1.252   7.355
 9405POPC   C1B49699  17.776   1.264   6.455
 9405POPC   C2B49700  17.784   1.277   6.755
 9405POPC   C3B49701  17.783   1.269   7.055
 9405POPC   C4B49702  17.769   1.244   7.355
 9406POPC   NC349703  18.316  13.607   5.555
 9406POPC   PO449704  18.260  13.675   5.855
 9406POPC   GL149705  18.296  13.611   6.155
 9406POPC   GL249706  18.360  13.670   6.155
 9406POPC   C1A49707  18.234  13.633   6.455
 9406POPC   D2A49708  18.323  13.596   6.755
 9406POPC   C3A49709  18.259  13.667   7.055
 9406POPC   C4A49710  18.243  13.588   7.355
 9406POPC   C1B49711  18.471  13.778   6.455
 9406POPC   C2B49712  18.535  13.794   6.755
 9406POPC   C3B49713  18.472  13.724   7.055
 9406POPC   C4B49714  18.451  13.731   7.355
 9407POPC   NC349715  11.285   8.240   5.555
 9407POPC   PO449716  11.269   8.170   5.855
 9407POPC   GL149717  11.346   8.210   6.155
 9407POPC   GL249718  11.141   8.195   6.155
 9407POPC   C1A49719  11.317   8.163   6.455
 9407POPC   D2A49720  11.269   8.217   6.755
 9407POPC   C3A49721  11.337   8.204   7.055
 9407POPC   C4A49722  11.261   8.246   7.355
 9407POPC   C1B49723  11.032   8.263   6.455
 9407POPC   C2B49724  11.103   8.281   6.755
 9407POPC   C3B49725  11.055   8.336   7.055
 9407POPC   C4B49726  11.086   8.279   7.355
 9408POPC   NC349727  26.079  42.313   5.555
 9408POPC   PO449728  26.077  42.324   5.855
 9408POPC   GL149729  26.021  42.327   6.155
 9408POPC   GL249730  26.022  42.179   6.155
 9408POPC   C1A49731  26.038  42.360   6.455
 9408POPC   D2A49732  26.087  42.312   6.755
 9408POPC   C3A49733  26.045  42.295   7.055
 9408POPC   C4A49734  26.023  42.329   7.355
 9408POPC   C1B49735  25.942  42.122   6.455
 9408POPC   C2B49736  25.989  42.108   6.755
 9408POPC   C3B49737  25.990  42.069   7.055
 9408POPC   C4B49738  25.941  42.095   7.355
 9409POPC   NC349739  19.069  13.592   5.555
 9409POPC   PO449740  19.012  13.626   5.855
 9409POPC   GL149741  19.087  13.636   6.155
 9409POPC   GL249742  19.147  13.570   6.155
 9409POPC   C1A49743  19.060  13.595   6.455
 9409POPC   D2A49744  19.062  13.606   6.755
 9409POPC   C3A49745  19.065  13.598   7.055
 9409POPC   C4A49746  19.050  13.646   7.355
 9409POPC   C1B49747  19.173  13.461   6.455
 9409POPC   C2B49748  19.231  13.457   6.755
 9409POPC   C3B49749  19.227  13.431   7.055
 9409POPC   C4B49750  19.217  13.390   7.355
 9410POPC   NC349751  41.548  20.629   5.555
 9410POPC   PO449752  41.548  20.599   5.855
 9410POPC   GL149753  41.547  20.612   6.155
 9410POPC   GL249754  41.710  20.490   6.155
 9410POPC   C1A49755  41.521  20.581   6.455
 9410POPC   D2A49756  41.591  20.653   6.755
 9410POPC   C3A49757  41.583  20.608   7.055
 9410POPC   C4A49758  41.539  20.616   7.355
 9410POPC   C1B49759  41.759  20.469   6.455
 9410POPC   C2B49760  41.740  20.451   6.755
 9410POPC   C3B49761  41.766  20.457   7.055
 9410POPC   C4B49762  41.736  20.483   7.355
 9411POPC   NC349763   6.664  22.902   5.555
 9411POPC   PO449764   6.647  22.897   5.855
 9411POPC   GL149765   6.681  22.890   6.155
 9411POPC   GL249766   6.731  22.905   6.155
 9411POPC   C1A49767   6.666  22.969   6.455
 9411POPC   D2A49768   6.652  22.967   6.755
 9411POPC   C3A49769   6.601  22.981   7.055
 9411POPC   C4A49770   6.617  22.955   7.355
 9411POPC   C1B49771   6.868  22.775   6.455
 9411POPC   C2B49772   6.843  22.754   6.755
 9411POPC   C3B49773   6.901  22.792   7.055
 9411POPC   C4B49774   6.839  22.803   7.355
 9412POPC   NC349775  20.606   7.396   5.555
 9412POPC   PO449776  20.644   7.412   5.855
 9412POPC   GL149777  20.593   7.469   6.155
 9412POPC   GL249778  20.671   7.564   6.155
 9412POPC   C1A49779  20.602   7.377   6.455
 9412POPC   D2A49780  20.603   7.437   6.755
 9412POPC   C3A49781  20.658   7.442   7.055
 9412POPC   C4A49782  20.568   7.393   7.355
 9412POPC   C1B49783  20.735   7.669   6.455
 9412POPC   C2B49784  20.752   7.601   6.755
 9412POPC   C3B49785  20.792   7.643   7.055
 9412POPC   C4B49786  20.725   7.590   7.355
 9413POPC   NC349787  18.332   3.571   5.555
 9413POPC   PO449788  18.298   3.535   5.855
 9413POPC   GL149789  18.329   3.535   6.155
 9413POPC   GL249790  18.260   3.644   6.155
 9413POPC   C1A49791  18.251   3.500   6.455
 9413POPC   D2A49792  18.254   3.554   6.755
 9413POPC   C3A49793  18.279   3.579   7.055
 9413POPC   C4A49794  18.315   3.526   7.355
 9413POPC   C1B49795  18.164   3.812   6.455
 9413POPC   C2B49796  18.175   3.808   6.755
 9413POPC   C3B49797  18.215   3.773   7.055
 9413POPC   C4B49798  18.191   3.779   7.355
 9414POPC   NC349799  33.845   8.154   5.555
 9414POPC   PO449800  33.788   8.187   5.855
 9414POPC   GL149801  33.845   8.175   6.155
 9414POPC   GL249802  33.672   8.051   6.155
 9414POPC   C1A49803  33.783   8.243   6.455
 9414POPC   D2A49804  33.753   8.246   6.755
 9414POPC   C3A49805  33.820   8.163   7.055
 9414POPC   C4A49806  33.844   8.240   7.355
 9414POPC   C1B49807  33.670   8.048   6.455
 9414POPC   C2B49808  33.656   7.980   6.755
 9414POPC   C3B49809  33.679   8.035   7.055
 9414POPC   C4B49810  33.677   7.983   7.355
 9415POPC   NC349811  26.817   1.190   5.555
 9415POPC   PO449812  26.782   1.241   5.855
 9415POPC   GL149813  26.777   1.171   6.155
 9415POPC   GL249814  26.844   1.125   6.155
 9415POPC   C1A49815  26.804   1.179   6.455
 9415POPC   D2A49816  26.820   1.262   6.755
 9415POPC   C3A49817  26.771   1.209   7.055
 9415POPC   C4A49818  26.848   1.175   7.355
 9415POPC   C1B49819  26.804   0.925   6.455
 9415POPC   C2B49820  26.769   0.946   6.755
 9415POPC   C3B49821  26.797   1.002   7.055
 9415POPC   C4B49822  26.854   0.961   7.355
 9416POPC   NC349823  44.657   2.011   5.555
 9416POPC   PO449824  44.632   1.987   5.855
 9416POPC   GL149825  44.647   1.952   6.155
 9416POPC   GL249826  44.692   2.088   6.155
 9416POPC   C1A49827  44.694   1.983   6.455
 9416POPC   D2A49828  44.648   2.029   6.755
 9416POPC   C3A49829  44.662   1.961   7.055
 9416POPC   C4A49830  44.664   2.031   7.355
 9416POPC   C1B49831  44.740   2.254   6.455
 9416POPC   C2B49832  44.734   2.182   6.755
 9416POPC   C3B49833  44.771   2.266   7.055
 9416POPC   C4B49834  44.752   2.275   7.355
 9417POPC   NC349835  18.331   1.225   5.555
 9417POPC   PO449836  18.302   1.209   5.855
 9417POPC   GL149837  18.328   1.194   6.155
 9417POPC   GL249838  18.289   1.082   6.155
 9417POPC   C1A49839  18.293   1.236   6.455
 9417POPC   D2A49840  18.320   1.194   6.755
 9417POPC   C3A49841  18.309   1.226   7.055
 9417POPC   C4A49842  18.314   1.180   7.355
 9417POPC   C1B49843  18.391   0.929   6.455
 9417POPC   C2B49844  18.368   1.020   6.755
 9417POPC   C3B49845  18.330   0.971   7.055
 9417POPC   C4B49846  18.371   0.934   7.355
 9418POPC   NC349847  33.808  22.141   5.555
 9418POPC   PO449848  33.809  22.147   5.855
 9418POPC   GL149849  33.811  22.192   6.155
 9418POPC   GL249850  33.754  22.076   6.155
 9418POPC   C1A49851  33.808  22.145   6.455
 9418POPC   D2A49852  33.834  22.112   6.755
 9418POPC   C3A49853  33.843  22.167   7.055
 9418POPC   C4A49854  33.802  22.115   7.355
 9418POPC   C1B49855  33.580  22.029   6.455
 9418POPC   C2B49856  33.627  21.963   6.755
 9418POPC   C3B49857  33.634  22.037   7.055
 9418POPC   C4B49858  33.652  21.947   7.355
 9419POPC   NC349859  43.887  12.810   5.555
 9419POPC   PO449860  43.857  12.857   5.855
 9419POPC   GL149861  43.837  12.895   6.155
 9419POPC   GL249862  43.777  12.881   6.155
 9419POPC   C1A49863  43.891  12.833   6.455
 9419POPC   D2A49864  43.900  12.873   6.755
 9419POPC   C3A49865  43.928  12.888   7.055
 9419POPC   C4A49866  43.896  12.836   7.355
 9419POPC   C1B49867  43.607  12.827   6.455
 9419POPC   C2B49868  43.659  12.821   6.755
 9419POPC   C3B49869  43.644  12.863   7.055
 9419POPC   C4B49870  43.619  12.850   7.355
 9420POPC   NC349871  19.788  25.234   5.555
 9420POPC   PO449872  19.800  25.277   5.855
 9420POPC   GL149873  19.822  25.243   6.155
 9420POPC   GL249874  19.765  25.109   6.155
 9420POPC   C1A49875  19.790  25.268   6.455
 9420POPC   D2A49876  19.824  25.223   6.755
 9420POPC   C3A49877  19.859  25.235   7.055
 9420POPC   C4A49878  19.884  25.303   7.355
 9420POPC   C1B49879  19.737  25.034   6.455
 9420POPC   C2B49880  19.771  25.016   6.755
 9420POPC   C3B49881  19.764  25.073   7.055
 9420POPC   C4B49882  19.733  25.075   7.355
 9421POPC   NC349883  43.065  26.062   5.555
 9421POPC   PO449884  43.077  26.075   5.855
 9421POPC   GL149885  43.127  26.005   6.155
 9421POPC   GL249886  42.988  25.945   6.155
 9421POPC   C1A49887  43.095  26.053   6.455
 9421POPC   D2A49888  43.128  26.033   6.755
 9421POPC   C3A49889  43.139  26.016   7.055
 9421POPC   C4A49890  43.084  26.049   7.355
 9421POPC   C1B49891  42.915  25.837   6.455
 9421POPC   C2B49892  42.961  25.892   6.755
 9421POPC   C3B49893  42.910  25.889   7.055
 9421POPC   C4B49894  42.936  25.824   7.355
 9422POPC   NC349895  16.775   9.767   5.555
 9422POPC   PO449896  16.686   9.761   5.855
 9422POPC   GL149897  16.757   9.746   6.155
 9422POPC   GL249898  16.677   9.611   6.155
 9422POPC   C1A49899  16.740   9.782   6.455
 9422POPC   D2A49900  16.732   9.725   6.755
 9422POPC   C3A49901  16.729   9.764   7.055
 9422POPC   C4A49902  16.682   9.775   7.355
 9422POPC   C1B49903  16.624   9.533   6.455
 9422POPC   C2B49904  16.574   9.519   6.755
 9422POPC   C3B49905  16.576   9.501   7.055
 9422POPC   C4B49906  16.568   9.504   7.355
 9423POPC   NC349907  18.274   2.037   5.555
 9423POPC   PO449908  18.287   2.000   5.855
 9423POPC   GL149909  18.255   1.974   6.155
 9423POPC   GL249910  18.336   2.079   6.155
 9423POPC   C1A49911  18.311   1.985   6.455
 9423POPC   D2A49912  18.292   1.995   6.755
 9423POPC   C3A49913  18.295   1.952   7.055
 9423POPC   C4A49914  18.252   1.989   7.355
 9423POPC   C1B49915  18.345   2.216   6.455
 9423POPC   C2B49916  18.329   2.246   6.755
 9423POPC   C3B49917  18.319   2.239   7.055
 9423POPC   C4B49918  18.381   2.235   7.355
 9424POPC   NC349919  29.141  25.230   5.555
 9424POPC   PO449920  29.193  25.277   5.855
 9424POPC   GL149921  29.185  25.222   6.155
 9424POPC   GL249922  29.154  25.186   6.155
 9424POPC   C1A49923  29.115  25.288   6.455
 9424POPC   D2A49924  29.100  25.249   6.755
 9424POPC   C3A49925  29.117  25.232   7.055
 9424POPC   C4A49926  29.190  25.243   7.355
 9424POPC   C1B49927  29.161  25.019   6.455
 9424POPC   C2B49928  29.164  25.070   6.755
 9424POPC   C3B49929  29.243  25.044   7.055
 9424POPC   C4B49930  29.219  24.998   7.355
 9425POPC   NC349931   0.475  35.313   5.555
 9425POPC   PO449932   0.438  35.323   5.855
 9425POPC   GL149933   0.400  35.343   6.155
 9425POPC   GL249934   0.454  35.206   6.155
 9425POPC   C1A49935   0.421  35.401   6.455
 9425POPC   D2A49936   0.403  35.304   6.755
 9425POPC   C3A49937   0.472  35.361   7.055
 9425POPC   C4A49938   0.482  35.389   7.355
 9425POPC   C1B49939   0.474  35.091   6.455
 9425POPC   C2B49940   0.497  35.109   6.755
 9425POPC   C3B49941   0.544  35.089   7.055
 9425POPC   C4B49942   0.508  35.095   7.355
 9426POPC   NC349943  36.886   2.760   5.555
 9426POPC   PO449944  36.874   2.757   5.855
 9426POPC   GL149945  36.931   2.757   6.155
 9426POPC   GL249946  36.991   2.656   6.155
 9426POPC   C1A49947  36.908   2.755   6.455
 9426POPC   D2A49948  36.946   2.773   6.755
 9426POPC   C3A49949  36.946   2.736   7.055
 9426POPC   C4A49950  36.942   2.790   7.355
 9426POPC   C1B49951  37.009   2.504   6.455
 9426POPC   C2B49952  37.052   2.546   6.755
 9426POPC   C3B49953  37.024   2.525   7.055
 9426POPC   C4B49954  36.983   2.584   7.355
 9427POPC   NC349955   9.759  23.703   5.555
 9427POPC   PO449956   9.705  23.707   5.855
 9427POPC   GL149957   9.705  23.692   6.155
 9427POPC   GL249958   9.603  23.718   6.155
 9427POPC   C1A49959   9.788  23.718   6.455
 9427POPC   D2A49960   9.704  23.732   6.755
 9427POPC   C3A49961   9.787  23.754   7.055
 9427POPC   C4A49962   9.768  23.687   7.355
 9427POPC   C1B49963   9.526  23.654   6.455
 9427POPC   C2B49964   9.468  23.652   6.755
 9427POPC   C3B49965   9.491  23.650   7.055
 9427POPC   C4B49966   9.481  23.650   7.355
 9428POPC   NC349967   0.420  29.876   5.555
 9428POPC   PO449968   0.450  29.899   5.855
 9428POPC   GL149969   0.401  29.893   6.155
 9428POPC   GL249970   0.574  30.002   6.155
 9428POPC   C1A49971   0.455  29.900   6.455
 9428POPC   D2A49972   0.433  29.901   6.755
 9428POPC   C3A49973   0.414  29.910   7.055
 9428POPC   C4A49974   0.434  29.895   7.355
 9428POPC   C1B49975   0.644  30.045   6.455
 9428POPC   C2B49976   0.676  30.053   6.755
 9428POPC   C3B49977   0.637  30.120   7.055
 9428POPC   C4B49978   0.632  30.050   7.355
 9429POPC   NC349979  24.521  31.452   5.555
 9429POPC   PO449980  24.442  31.465   5.855
 9429POPC   GL149981  24.516  31.428   6.155
 9429POPC   GL249982  24.439  31.323   6.155
 9429POPC   C1A49983  24.538  31.442   6.455
 9429POPC   D2A49984  24.488  31.475   6.755
 9429POPC   C3A49985  24.476  31.427   7.055
 9429POPC   C4A49986  24.441  31.509   7.355
 9429POPC   C1B49987  24.352  31.261   6.455
 9429POPC   C2B49988  24.299  31.317   6.755
 9429POPC   C3B49989  24.371  31.266   7.055
 9429POPC   C4B49990  24.345  31.272   7.355
 9430POPC   NC349991  31.462  29.935   5.555
 9430POPC   PO449992  31.486  29.930   5.855
 9430POPC   GL149993  31.483  29.911   6.155
 9430POPC   GL249994  31.560  30.006   6.155
 9430POPC   C1A49995  31.436  29.910   6.455
 9430POPC   D2A49996  31.460  29.893   6.755
 9430POPC   C3A49997  31.520  29.954   7.055
 9430POPC   C4A49998  31.441  29.906   7.355
 9430POPC   C1B49999  31.540  30.173   6.455
 9430POPC   C2B50000  31.556  30.173   6.755
 9430POPC   C3B50001  31.536  30.146   7.055
 9430POPC   C4B50002  31.555  30.118   7.355
 9431POPC   NC350003  43.914  11.334   5.555
 9431POPC   PO450004  43.867  11.343   5.855
 9431POPC   GL150005  43.924  11.331   6.155
 9431POPC   GL250006  43.756  11.238   6.155
 9431POPC   C1A50007  43.843  11.328   6.455
 9431POPC   D2A50008  43.881  11.270   6.755
 9431POPC   C3A50009  43.921  11.299   7.055
 9431POPC   C4A50010  43.859  11.257   7.355
 9431POPC   C1B50011  43.713  11.114   6.455
 9431POPC   C2B50012  43.675  11.126   6.755
 9431POPC   C3B50013  43.753  11.140   7.055
 9431POPC   C4B50014  43.691  11.127   7.355
 9432POPC   NC350015   7.383  14.445   5.555
 9432POPC   PO450016   7.443  14.440   5.855
 9432POPC   GL150017   7.416  14.380   6.155
 9432POPC   GL250018   7.568  14.518   6.155
 9432POPC   C1A50019   7.399  14.393   6.455
 9432POPC   D2A50020   7.390  14.449   6.755
 9432POPC   C3A50021   7.410  14.444   7.055
 9432POPC   C4A50022   7.437  14.417   7.355
 9432POPC   C1B50023   7.669  14.521   6.455
 9432POPC   C2B50024   7.659  14.525   6.755
 9432POPC   C3B50025   7.653  14.579   7.055
 9432POPC   C4B50026   7.601  14.579   7.355
 9433POPC   NC350027   8.227  14.442   5.555
 9433POPC   PO450028   8.221  14.428   5.855
 9433POPC   GL150029   8.151  14.434   6.155
 9433POPC   GL250030   8.294  14.438   6.155
 9433POPC   C1A50031   8.181  14.426   6.455
 9433POPC   D2A50032   8.194  14.401   6.755
 9433POPC   C3A50033   8.148  14.402   7.055
 9433POPC   C4A50034   8.185  14.442   7.355
 9433POPC   C1B50035   8.416  14.549   6.455
 9433POPC   C2B50036   8.347  14.588   6.755
 9433POPC   C3B50037   8.375  14.508   7.055
 9433POPC   C4B50038   8.432  14.578   7.355
 9434POPC   NC350039  22.206  42.370   5.555
 9434POPC   PO450040  22.139  42.291   5.855
 9434POPC   GL150041  22.166  42.383   6.155
 9434POPC   GL250042  22.278  42.414   6.155
 9434POPC   C1A50043  22.169  42.285   6.455
 9434POPC   D2A50044  22.212  42.323   6.755
 9434POPC   C3A50045  22.165  42.288   7.055
 9434POPC   C4A50046  22.170  42.383   7.355
 9434POPC   C1B50047  22.380  42.499   6.455
 9434POPC   C2B50048  22.325  42.485   6.755
 9434POPC   C3B50049  22.342  42.472   7.055
 9434POPC   C4B50050  22.361  42.432   7.355
 9435POPC   NC350051  30.652  15.198   5.555
 9435POPC   PO450052  30.673  15.139   5.855
 9435POPC   GL150053  30.693  15.227   6.155
 9435POPC   GL250054  30.584  15.168   6.155
 9435POPC   C1A50055  30.715  15.190   6.455
 9435POPC   D2A50056  30.651  15.147   6.755
 9435POPC   C3A50057  30.704  15.202   7.055
 9435POPC   C4A50058  30.711  15.222   7.355
 9435POPC   C1B50059  30.447  15.143   6.455
 9435POPC   C2B50060  30.425  15.081   6.755
 9435POPC   C3B50061  30.497  15.083   7.055
 9435POPC   C4B50062  30.499  15.168   7.355
 9436POPC   NC350063  23.712   8.970   5.555
 9436POPC   PO450064  23.734   8.975   5.855
 9436POPC   GL150065  23.738   8.994   6.155
 9436POPC   GL250066  23.835   9.083   6.155
 9436POPC   C1A50067  23.700   9.006   6.455
 9436POPC   D2A50068  23.745   8.961   6.755
 9436POPC   C3A50069  23.735   9.009   7.055
 9436POPC   C4A50070  23.717   8.969   7.355
 9436POPC   C1B50071  23.856   9.166   6.455
 9436POPC   C2B50072  23.897   9.170   6.755
 9436POPC   C3B50073  23.886   9.135   7.055
 9436POPC   C4B50074  23.846   9.127   7.355
 9437POPC   NC350075  34.616  24.443   5.555
 9437POPC   PO450076  34.537  24.507   5.855
 9437POPC   GL150077  34.529  24.509   6.155
 9437POPC   GL250078  34.472  24.423   6.155
 9437POPC   C1A50079  34.584  24.508   6.455
 9437POPC   D2A50080  34.582  24.512   6.755
 9437POPC   C3A50081  34.554  24.445   7.055
 9437POPC   C4A50082  34.543  24.452   7.355
 9437POPC   C1B50083  34.374  24.376   6.455
 9437POPC   C2B50084  34.372  24.396   6.755
 9437POPC   C3B50085  34.325  24.431   7.055
 9437POPC   C4B50086  34.297  24.384   7.355
 9438POPC   NC350087  42.292  15.912   5.555
 9438POPC   PO450088  42.356  15.983   5.855
 9438POPC   GL150089  42.291  15.943   6.155
 9438POPC   GL250090  42.473  15.848   6.155
 9438POPC   C1A50091  42.344  15.954   6.455
 9438POPC   D2A50092  42.316  15.919   6.755
 9438POPC   C3A50093  42.350  15.949   7.055
 9438POPC   C4A50094  42.362  15.974   7.355
 9438POPC   C1B50095  42.586  15.821   6.455
 9438POPC   C2B50096  42.536  15.816   6.755
 9438POPC   C3B50097  42.592  15.848   7.055
 9438POPC   C4B50098  42.553  15.854   7.355
 9439POPC   NC350099  38.461  19.856   5.555
 9439POPC   PO450100  38.425  19.816   5.855
 9439POPC   GL150101  38.451  19.819   6.155
 9439POPC   GL250102  38.341  19.907   6.155
 9439POPC   C1A50103  38.439  19.882   6.455
 9439POPC   D2A50104  38.478  19.804   6.755
 9439POPC   C3A50105  38.459  19.839   7.055
 9439POPC   C4A50106  38.424  19.829   7.355
 9439POPC   C1B50107  38.184  19.888   6.455
 9439POPC   C2B50108  38.217  19.901   6.755
 9439POPC   C3B50109  38.178  19.913   7.055
 9439POPC   C4B50110  38.179  19.945   7.355
 9440POPC   NC350111  39.182  15.142   5.555
 9440POPC   PO450112  39.184  15.130   5.855
 9440POPC   GL150113  39.253  15.140   6.155
 9440POPC   GL250114  39.128  15.241   6.155
 9440POPC   C1A50115  39.210  15.161   6.455
 9440POPC   D2A50116  39.200  15.132   6.755
 9440POPC   C3A50117  39.254  15.217   7.055
 9440POPC   C4A50118  39.225  15.220   7.355
 9440POPC   C1B50119  39.085  15.374   6.455
 9440POPC   C2B50120  39.055  15.339   6.755
 9440POPC   C3B50121  39.014  15.347   7.055
 9440POPC   C4B50122  39.101  15.349   7.355
 9441POPC   NC350123  36.915  25.260   5.555
 9441POPC   PO450124  36.903  25.241   5.855
 9441POPC   GL150125  36.867  25.285   6.155
 9441POPC   GL250126  36.802  25.147   6.155
 9441POPC   C1A50127  36.860  25.277   6.455
 9441POPC   D2A50128  36.918  25.222   6.755
 9441POPC   C3A50129  36.923  25.281   7.055
 9441POPC   C4A50130  36.896  25.242   7.355
 9441POPC   C1B50131  36.717  25.058   6.455
 9441POPC   C2B50132  36.736  25.075   6.755
 9441POPC   C3B50133  36.762  25.099   7.055
 9441POPC   C4B50134  36.786  25.104   7.355
 9442POPC   NC350135  12.079  38.417   5.555
 9442POPC   PO450136  12.050  38.408   5.855
 9442POPC   GL150137  12.071  38.431   6.155
 9442POPC   GL250138  12.019  38.595   6.155
 9442POPC   C1A50139  12.081  38.486   6.455
 9442POPC   D2A50140  12.104  38.456   6.755
 9442POPC   C3A50141  12.029  38.419   7.055
 9442POPC   C4A50142  12.082  38.450   7.355
 9442POPC   C1B50143  12.014  38.747   6.455
 9442POPC   C2B50144  12.031  38.670   6.755
 9442POPC   C3B50145  12.057  38.742   7.055
 9442POPC   C4B50146  12.064  38.671   7.355
 9443POPC   NC350147  38.462   4.323   5.555
 9443POPC   PO450148  38.503   4.310   5.855
 9443POPC   GL150149  38.459   4.283   6.155
 9443POPC   GL250150  38.319   4.223   6.155
 9443POPC   C1A50151  38.497   4.313   6.455
 9443POPC   D2A50152  38.454   4.313   6.755
 9443POPC   C3A50153  38.487   4.354   7.055
 9443POPC   C4A50154  38.478   4.335   7.355
 9443POPC   C1B50155  38.262   4.221   6.455
 9443POPC   C2B50156  38.217   4.214   6.755
 9443POPC   C3B50157  38.267   4.201   7.055
 9443POPC   C4B50158  38.269   4.207   7.355
 9444POPC   NC350159  18.261  22.917   5.555
 9444POPC   PO450160  18.268  22.906   5.855
 9444POPC   GL150161  18.250  22.898   6.155
 9444POPC   GL250162  18.186  22.789   6.155
 9444POPC   C1A50163  18.265  22.967   6.455
 9444POPC   D2A50164  18.275  22.956   6.755
 9444POPC   C3A50165  18.292  22.928   7.055
 9444POPC   C4A50166  18.326  22.922   7.355
 9444POPC   C1B50167  18.093  22.706   6.455
 9444POPC   C2B50168  18.093  22.706   6.755
 9444POPC   C3B50169  18.186  22.711   7.055
 9444POPC   C4B50170  18.185  22.703   7.355
 9445POPC   NC350171  19.865  39.999   5.555
 9445POPC   PO450172  19.869  40.025   5.855
 9445POPC   GL150173  19.823  40.026   6.155
 9445POPC   GL250174  19.990  40.010   6.155
 9445POPC   C1A50175  19.870  40.037   6.455
 9445POPC   D2A50176  19.790  40.034   6.755
 9445POPC   C3A50177  19.868  39.966   7.055
 9445POPC   C4A50178  19.841  40.036   7.355
 9445POPC   C1B50179  20.083  39.957   6.455
 9445POPC   C2B50180  20.077  39.889   6.755
 9445POPC   C3B50181  20.043  39.949   7.055
 9445POPC   C4B50182  20.044  39.883   7.355
 9446POPC   NC350183   2.013  14.447   5.555
 9446POPC   PO450184   1.962  14.374   5.855
 9446POPC   GL150185   1.980  14.393   6.155
 9446POPC   GL250186   1.957  14.344   6.155
 9446POPC   C1A50187   2.037  14.410   6.455
 9446POPC   D2A50188   1.941  14.387   6.755
 9446POPC   C3A50189   1.952  14.413   7.055
 9446POPC   C4A50190   1.982  14.412   7.355
 9446POPC   C1B50191   1.908  14.198   6.455
 9446POPC   C2B50192   1.854  14.187   6.755
 9446POPC   C3B50193   1.883  14.138   7.055
 9446POPC   C4B50194   1.913  14.208   7.355
 9447POPC   NC350195  30.666  39.995   5.555
 9447POPC   PO450196  30.708  39.995   5.855
 9447POPC   GL150197  30.746  40.013   6.155
 9447POPC   GL250198  30.701  40.159   6.155
 9447POPC   C1A50199  30.743  40.022   6.455
 9447POPC   D2A50200  30.707  40.039   6.755
 9447POPC   C3A50201  30.708  40.050   7.055
 9447POPC   C4A50202  30.680  40.012   7.355
 9447POPC   C1B50203  30.641  40.300   6.455
 9447POPC   C2B50204  30.674  40.259   6.755
 9447POPC   C3B50205  30.697  40.245   7.055
 9447POPC   C4B50206  30.622  40.292   7.355
 9448POPC   NC350207  22.190  41.607   5.555
 9448POPC   PO450208  22.199  41.512   5.855
 9448POPC   GL150209  22.173  41.517   6.155
 9448POPC   GL250210  22.024  41.461   6.155
 9448POPC   C1A50211  22.123  41.599   6.455
 9448POPC   D2A50212  22.187  41.551   6.755
 9448POPC   C3A50213  22.202  41.577   7.055
 9448POPC   C4A50214  22.149  41.576   7.355
 9448POPC   C1B50215  21.949  41.457   6.455
 9448POPC   C2B50216  21.953  41.407   6.755
 9448POPC   C3B50217  21.916  41.409   7.055
 9448POPC   C4B50218  21.909  41.409   7.355
 9449POPC   NC350219  27.579  18.239   5.555
 9449POPC   PO450220  27.554  18.314   5.855
 9449POPC   GL150221  27.570  18.276   6.155
 9449POPC   GL250222  27.479  18.411   6.155
 9449POPC   C1A50223  27.577  18.304   6.455
 9449POPC   D2A50224  27.603  18.297   6.755
 9449POPC   C3A50225  27.586  18.263   7.055
 9449POPC   C4A50226  27.600  18.310   7.355
 9449POPC   C1B50227  27.461  18.415   6.455
 9449POPC   C2B50228  27.370  18.483   6.755
 9449POPC   C3B50229  27.374  18.494   7.055
 9449POPC   C4B50230  27.415  18.501   7.355
 9450POPC   NC350231  22.946   6.638   5.555
 9450POPC   PO450232  22.947   6.632   5.855
 9450POPC   GL150233  22.905   6.601   6.155
 9450POPC   GL250234  22.975   6.550   6.155
 9450POPC   C1A50235  22.953   6.615   6.455
 9450POPC   D2A50236  22.966   6.684   6.755
 9450POPC   C3A50237  22.958   6.677   7.055
 9450POPC   C4A50238  22.888   6.598   7.355
 9450POPC   C1B50239  22.957   6.360   6.455
 9450POPC   C2B50240  22.989   6.395   6.755
 9450POPC   C3B50241  22.986   6.419   7.055
 9450POPC   C4B50242  23.004   6.411   7.355
 9451POPC   NC350243  15.172  37.656   5.555
 9451POPC   PO450244  15.203  37.708   5.855
 9451POPC   GL150245  15.139  37.684   6.155
 9451POPC   GL250246  15.024  37.767   6.155
 9451POPC   C1A50247  15.223  37.682   6.455
 9451POPC   D2A50248  15.215  37.673   6.755
 9451POPC   C3A50249  15.201  37.656   7.055
 9451POPC   C4A50250  15.142  37.631   7.355
 9451POPC   C1B50251  14.948  37.778   6.455
 9451POPC   C2B50252  14.921  37.745   6.755
 9451POPC   C3B50253  14.934  37.768   7.055
 9451POPC   C4B50254  14.995  37.757   7.355
 9452POPC   NC350255   1.996  22.144   5.555
 9452POPC   PO450256   1.975  22.114   5.855
 9452POPC   GL150257   1.954  22.206   6.155
 9452POPC   GL250258   2.020  22.281   6.155
 9452POPC   C1A50259   1.968  22.192   6.455
 9452POPC   D2A50260   1.950  22.173   6.755
 9452POPC   C3A50261   1.945  22.155   7.055
 9452POPC   C4A50262   2.024  22.177   7.355
 9452POPC   C1B50263   2.063  22.378   6.455
 9452POPC   C2B50264   2.078  22.359   6.755
 9452POPC   C3B50265   2.127  22.381   7.055
 9452POPC   C4B50266   2.098  22.367   7.355
 9453POPC   NC350267  20.620   8.930   5.555
 9453POPC   PO450268  20.634   8.923   5.855
 9453POPC   GL150269  20.567   9.002   6.155
 9453POPC   GL250270  20.723   8.900   6.155
 9453POPC   C1A50271  20.632   9.018   6.455
 9453POPC   D2A50272  20.573   8.956   6.755
 9453POPC   C3A50273  20.617   8.931   7.055
 9453POPC   C4A50274  20.642   9.015   7.355
 9453POPC   C1B50275  20.888   8.943   6.455
 9453POPC   C2B50276  20.806   8.907   6.755
 9453POPC   C3B50277  20.892   8.915   7.055
 9453POPC   C4B50278  20.853   8.902   7.355
 9454POPC   NC350279  31.479   0.454   5.555
 9454POPC   PO450280  31.479   0.413   5.855
 9454POPC   GL150281  31.445   0.488   6.155
 9454POPC   GL250282  31.523   0.306   6.155
 9454POPC   C1A50283  31.487   0.406   6.455
 9454POPC   D2A50284  31.479   0.472   6.755
 9454POPC   C3A50285  31.519   0.393   7.055
 9454POPC   C4A50286  31.498   0.400   7.355
 9454POPC   C1B50287  31.556   0.174   6.455
 9454POPC   C2B50288  31.465   0.176   6.755
 9454POPC   C3B50289  31.549   0.221   7.055
 9454POPC   C4B50290  31.536   0.160   7.355
 9455POPC   NC350291   1.215  40.774   5.555
 9455POPC   PO450292   1.220  40.761   5.855
 9455POPC   GL150293   1.256  40.806   6.155
 9455POPC   GL250294   1.178  40.933   6.155
 9455POPC   C1A50295   1.210  40.767   6.455
 9455POPC   D2A50296   1.247  40.806   6.755
 9455POPC   C3A50297   1.206  40.791   7.055
 9455POPC   C4A50298   1.206  40.789   7.355
 9455POPC   C1B50299   1.076  41.025   6.455
 9455POPC   C2B50300   1.044  40.970   6.755
 9455POPC   C3B50301   1.045  40.991   7.055
 9455POPC   C4B50302   1.096  40.965   7.355
 9456POPC   NC350303  22.157  10.521   5.555
 9456POPC   PO450304  22.114  10.516   5.855
 9456POPC   GL150305  22.152  10.548   6.155
 9456POPC   GL250306  22.035  10.609   6.155
 9456POPC   C1A50307  22.144  10.553   6.455
 9456POPC   D2A50308  22.112  10.545   6.755
 9456POPC   C3A50309  22.113  10.529   7.055
 9456POPC   C4A50310  22.176  10.568   7.355
 9456POPC   C1B50311  21.969  10.637   6.455
 9456POPC   C2B50312  21.932  10.677   6.755
 9456POPC   C3B50313  21.974  10.639   7.055
 9456POPC   C4B50314  21.971  10.693   7.355
 9457POPC   NC350315  21.400  34.543   5.555
 9457POPC   PO450316  21.350  34.554   5.855
 9457POPC   GL150317  21.413  34.529   6.155
 9457POPC   GL250318  21.474  34.692   6.155
 9457POPC   C1A50319  21.423  34.533   6.455
 9457POPC   D2A50320  21.405  34.611   6.755
 9457POPC   C3A50321  21.376  34.566   7.055
 9457POPC   C4A50322  21.398  34.619   7.355
 9457POPC   C1B50323  21.596  34.730   6.455
 9457POPC   C2B50324  21.584  34.726   6.755
 9457POPC   C3B50325  21.587  34.796   7.055
 9457POPC   C4B50326  21.546  34.788   7.355
 9458POPC   NC350327  29.149  43.860   5.555
 9458POPC   PO450328  29.176  43.872   5.855
 9458POPC   GL150329  29.140  43.840   6.155
 9458POPC   GL250330  29.289  43.854   6.155
 9458POPC   C1A50331  29.104  43.927   6.455
 9458POPC   D2A50332  29.167  43.886   6.755
 9458POPC   C3A50333  29.166  43.887   7.055
 9458POPC   C4A50334  29.170  43.856   7.355
 9458POPC   C1B50335  29.371  43.792   6.455
 9458POPC   C2B50336  29.316  43.746   6.755
 9458POPC   C3B50337  29.333  43.722   7.055
 9458POPC   C4B50338  29.323  43.770   7.355
 9459POPC   NC350339  23.667   1.184   5.555
 9459POPC   PO450340  23.716   1.260   5.855
 9459POPC   GL150341  23.736   1.225   6.155
 9459POPC   GL250342  23.688   1.340   6.155
 9459POPC   C1A50343  23.758   1.246   6.455
 9459POPC   D2A50344  23.709   1.183   6.755
 9459POPC   C3A50345  23.760   1.247   7.055
 9459POPC   C4A50346  23.761   1.233   7.355
 9459POPC   C1B50347  23.705   1.478   6.455
 9459POPC   C2B50348  23.753   1.450   6.755
 9459POPC   C3B50349  23.759   1.493   7.055
 9459POPC   C4B50350  23.687   1.428   7.355
 9460POPC   NC350351  40.024  24.539   5.555
 9460POPC   PO450352  40.023  24.464   5.855
 9460POPC   GL150353  40.038  24.525   6.155
 9460POPC   GL250354  39.897  24.379   6.155
 9460POPC   C1A50355  40.042  24.529   6.455
 9460POPC   D2A50356  40.035  24.493   6.755
 9460POPC   C3A50357  40.026  24.453   7.055
 9460POPC   C4A50358  40.015  24.481   7.355
 9460POPC   C1B50359  39.845  24.283   6.455
 9460POPC   C2B50360  39.829  24.268   6.755
 9460POPC   C3B50361  39.858  24.258   7.055
 9460POPC   C4B50362  39.859  24.319   7.355
 9461POPC   NC350363  31.444   4.363   5.555
 9461POPC   PO450364  31.428   4.350   5.855
 9461POPC   GL150365  31.501   4.287   6.155
 9461POPC   GL250366  31.562   4.400   6.155
 9461POPC   C1A50367  31.453   4.268   6.455
 9461POPC   D2A50368  31.427   4.314   6.755
 9461POPC   C3A50369  31.522   4.356   7.055
 9461POPC   C4A50370  31.461   4.352   7.355
 9461POPC   C1B50371  31.544   4.515   6.455
 9461POPC   C2B50372  31.632   4.512   6.755
 9461POPC   C3B50373  31.564   4.535   7.055
 9461POPC   C4B50374  31.622   4.559   7.355
 9462POPC   NC350375  38.405  22.131   5.555
 9462POPC   PO450376  38.424  22.168   5.855
 9462POPC   GL150377  38.407  22.169   6.155
 9462POPC   GL250378  38.429  22.019   6.155
 9462POPC   C1A50379  38.505  22.116   6.455
 9462POPC   D2A50380  38.499  22.130   6.755
 9462POPC   C3A50381  38.429  22.162   7.055
 9462POPC   C4A50382  38.466  22.192   7.355
 9462POPC   C1B50383  38.434  21.883   6.455
 9462POPC   C2B50384  38.404  21.924   6.755
 9462POPC   C3B50385  38.451  21.883   7.055
 9462POPC   C4B50386  38.402  21.922   7.355
 9463POPC   NC350387   7.429  15.912   5.555
 9463POPC   PO450388   7.447  15.954   5.855
 9463POPC   GL150389   7.445  15.992   6.155
 9463POPC   GL250390   7.472  15.826   6.155
 9463POPC   C1A50391   7.461  15.984   6.455
 9463POPC   D2A50392   7.396  15.980   6.755
 9463POPC   C3A50393   7.423  15.951   7.055
 9463POPC   C4A50394   7.409  15.958   7.355
 9463POPC   C1B50395   7.478  15.690   6.455
 9463POPC   C2B50396   7.532  15.733   6.755
 9463POPC   C3B50397   7.483  15.706   7.055
 9463POPC   C4B50398   7.486  15.752   7.355
 9464POPC   NC350399  36.944  22.925   5.555
 9464POPC   PO450400  36.911  22.950   5.855
 9464POPC   GL150401  36.888  22.894   6.155
 9464POPC   GL250402  36.828  22.983   6.155
 9464POPC   C1A50403  36.872  22.910   6.455
 9464POPC   D2A50404  36.949  22.892   6.755
 9464POPC   C3A50405  36.923  22.955   7.055
 9464POPC   C4A50406  36.855  22.943   7.355
 9464POPC   C1B50407  36.715  23.154   6.455
 9464POPC   C2B50408  36.689  23.116   6.755
 9464POPC   C3B50409  36.703  23.073   7.055
 9464POPC   C4B50410  36.698  23.153   7.355
 9465POPC   NC350411  17.535  42.311   5.555
 9465POPC   PO450412  17.502  42.308   5.855
 9465POPC   GL150413  17.475  42.299   6.155
 9465POPC   GL250414  17.535  42.487   6.155
 9465POPC   C1A50415  17.485  42.364   6.455
 9465POPC   D2A50416  17.464  42.286   6.755
 9465POPC   C3A50417  17.489  42.346   7.055
 9465POPC   C4A50418  17.486  42.317   7.355
 9465POPC   C1B50419  17.509  42.589   6.455
 9465POPC   C2B50420  17.521  42.600   6.755
 9465POPC   C3B50421  17.582  42.543   7.055
 9465POPC   C4B50422  17.560  42.538   7.355
 9466POPC   NC350423  29.926   4.283   5.555
 9466POPC   PO450424  29.954   4.296   5.855
 9466POPC   GL150425  29.951   4.348   6.155
 9466POPC   GL250426  29.862   4.472   6.155
 9466POPC   C1A50427  29.927   4.344   6.455
 9466POPC   D2A50428  29.907   4.356   6.755
 9466POPC   C3A50429  29.902   4.270   7.055
 9466POPC   C4A50430  29.881   4.314   7.355
 9466POPC   C1B50431  29.779   4.508   6.455
 9466POPC   C2B50432  29.795   4.539   6.755
 9466POPC   C3B50433  29.798   4.569   7.055
 9466POPC   C4B50434  29.820   4.496   7.355
 9467POPC   NC350435  34.590  29.953   5.555
 9467POPC   PO450436  34.615  29.889   5.855
 9467POPC   GL150437  34.548  29.891   6.155
 9467POPC   GL250438  34.455  29.782   6.155
 9467POPC   C1A50439  34.552  29.953   6.455
 9467POPC   D2A50440  34.583  29.902   6.755
 9467POPC   C3A50441  34.557  29.877   7.055
 9467POPC   C4A50442  34.539  29.877   7.355
 9467POPC   C1B50443  34.374  29.761   6.455
 9467POPC   C2B50444  34.407  29.686   6.755
 9467POPC   C3B50445  34.427  29.706   7.055
 9467POPC   C4B50446  34.425  29.705   7.355
 9468POPC   NC350447  25.246  33.783   5.555
 9468POPC   PO450448  25.222  33.784   5.855
 9468POPC   GL150449  25.233  33.788   6.155
 9468POPC   GL250450  25.143  33.832   6.155
 9468POPC   C1A50451  25.252  33.788   6.455
 9468POPC   D2A50452  25.294  33.793   6.755
 9468POPC   C3A50453  25.282  33.824   7.055
 9468POPC   C4A50454  25.305  33.817   7.355
 9468POPC   C1B50455  25.105  33.959   6.455
 9468POPC   C2B50456  25.017  33.958   6.755
 9468POPC   C3B50457  25.026  33.967   7.055
 9468POPC   C4B50458  25.019  33.945   7.355
 9469POPC   NC350459   5.908  16.712   5.555
 9469POPC   PO450460   5.876  16.691   5.855
 9469POPC   GL150461   5.901  16.728   6.155
 9469POPC   GL250462   6.041  16.726   6.155
 9469POPC   C1A50463   5.854  16.736   6.455
 9469POPC   D2A50464   5.883  16.779   6.755
 9469POPC   C3A50465   5.894  16.750   7.055
 9469POPC   C4A50466   5.854  16.778   7.355
 9469POPC   C1B50467   6.074  16.688   6.455
 9469POPC   C2B50468   6.083  16.679   6.755
 9469POPC   C3B50469   6.158  16.747   7.055
 9469POPC   C4B50470   6.111  16.664   7.355
 9470POPC   NC350471  43.102  28.415   5.555
 9470POPC   PO450472  43.076  28.325   5.855
 9470POPC   GL150473  43.105  28.365   6.155
 9470POPC   GL250474  43.089  28.221   6.155
 9470POPC   C1A50475  43.079  28.335   6.455
 9470POPC   D2A50476  43.072  28.333   6.755
 9470POPC   C3A50477  43.093  28.326   7.055
 9470POPC   C4A50478  43.073  28.404   7.355
 9470POPC   C1B50479  43.093  28.164   6.455
 9470POPC   C2B50480  43.148  28.082   6.755
 9470POPC   C3B50481  43.152  28.140   7.055
 9470POPC   C4B50482  43.074  28.071   7.355
 9471POPC   NC350483  24.453   5.098   5.555
 9471POPC   PO450484  24.468   5.095   5.855
 9471POPC   GL150485  24.447   5.057   6.155
 9471POPC   GL250486  24.401   5.025   6.155
 9471POPC   C1A50487  24.524   5.104   6.455
 9471POPC   D2A50488  24.514   5.068   6.755
 9471POPC   C3A50489  24.465   5.142   7.055
 9471POPC   C4A50490  24.488   5.117   7.355
 9471POPC   C1B50491  24.250   4.993   6.455
 9471POPC   C2B50492  24.211   5.031   6.755
 9471POPC   C3B50493  24.255   5.013   7.055
 9471POPC   C4B50494  24.249   4.998   7.355
 9472POPC   NC350495  13.644   1.212   5.555
 9472POPC   PO450496  13.618   1.233   5.855
 9472POPC   GL150497  13.661   1.239   6.155
 9472POPC   GL250498  13.759   1.125   6.155
 9472POPC   C1A50499  13.646   1.204   6.455
 9472POPC   D2A50500  13.589   1.202   6.755
 9472POPC   C3A50501  13.649   1.249   7.055
 9472POPC   C4A50502  13.632   1.175   7.355
 9472POPC   C1B50503  13.860   1.070   6.455
 9472POPC   C2B50504  13.820   1.077   6.755
 9472POPC   C3B50505  13.886   1.094   7.055
 9472POPC   C4B50506  13.821   1.131   7.355
 9473POPC   NC350507  34.613  21.373   5.555
 9473POPC   PO450508  34.546  21.411   5.855
 9473POPC   GL150509  34.616  21.399   6.155
 9473POPC   GL250510  34.694  21.370   6.155
 9473POPC   C1A50511  34.567  21.419   6.455
 9473POPC   D2A50512  34.621  21.378   6.755
 9473POPC   C3A50513  34.576  21.344   7.055
 9473POPC   C4A50514  34.583  21.436   7.355
 9473POPC   C1B50515  34.838  21.331   6.455
 9473POPC   C2B50516  34.776  21.280   6.755
 9473POPC   C3B50517  34.850  21.296   7.055
 9473POPC   C4B50518  34.774  21.291   7.355
 9474POPC   NC350519  43.902   9.728   5.555
 9474POPC   PO450520  43.875   9.702   5.855
 9474POPC   GL150521  43.857   9.701   6.155
 9474POPC   GL250522  43.778   9.878   6.155
 9474POPC   C1A50523  43.856   9.733   6.455
 9474POPC   D2A50524  43.847   9.756   6.755
 9474POPC   C3A50525  43.854   9.735   7.055
 9474POPC   C4A50526  43.839   9.752   7.355
 9474POPC   C1B50527  43.809   9.988   6.455
 9474POPC   C2B50528  43.740   9.932   6.755
 9474POPC   C3B50529  43.770   9.960   7.055
 9474POPC   C4B50530  43.803   9.989   7.355
 9475POPC   NC350531  39.194   3.546   5.555
 9475POPC   PO450532  39.260   3.531   5.855
 9475POPC   GL150533  39.187   3.500   6.155
 9475POPC   GL250534  39.351   3.578   6.155
 9475POPC   C1A50535  39.187   3.580   6.455
 9475POPC   D2A50536  39.206   3.536   6.755
 9475POPC   C3A50537  39.229   3.565   7.055
 9475POPC   C4A50538  39.274   3.513   7.355
 9475POPC   C1B50539  39.477   3.646   6.455
 9475POPC   C2B50540  39.520   3.623   6.755
 9475POPC   C3B50541  39.427   3.593   7.055
 9475POPC   C4B50542  39.476   3.642   7.355
 9476POPC   NC350543  18.270  36.857   5.555
 9476POPC   PO450544  18.287  36.944   5.855
 9476POPC   GL150545  18.309  36.936   6.155
 9476POPC   GL250546  18.186  36.971   6.155
 9476POPC   C1A50547  18.305  36.904   6.455
 9476POPC   D2A50548  18.277  36.899   6.755
 9476POPC   C3A50549  18.326  36.926   7.055
 9476POPC   C4A50550  18.332  36.941   7.355
 9476POPC   C1B50551  18.034  36.993   6.455
 9476POPC   C2B50552  18.075  36.911   6.755
 9476POPC   C3B50553  18.075  36.956   7.055
 9476POPC   C4B50554  18.018  36.984   7.355
 9477POPC   NC350555  24.530  37.691   5.555
 9477POPC   PO450556  24.477  37.721   5.855
 9477POPC   GL150557  24.504  37.662   6.155
 9477POPC   GL250558  24.461  37.785   6.155
 9477POPC   C1A50559  24.515  37.728   6.455
 9477POPC   D2A50560  24.498  37.713   6.755
 9477POPC   C3A50561  24.450  37.673   7.055
 9477POPC   C4A50562  24.511  37.635   7.355
 9477POPC   C1B50563  24.501  37.929   6.455
 9477POPC   C2B50564  24.511  37.901   6.755
 9477POPC   C3B50565  24.451  37.955   7.055
 9477POPC   C4B50566  24.498  37.942   7.355
 9478POPC   NC350567  33.760  25.230   5.555
 9478POPC   PO450568  33.786  25.239   5.855
 9478POPC   GL150569  33.796  25.273   6.155
 9478POPC   GL250570  33.765  25.411   6.155
 9478POPC   C1A50571  33.751  25.268   6.455
 9478POPC   D2A50572  33.759  25.264   6.755
 9478POPC   C3A50573  33.799  25.287   7.055
 9478POPC   C4A50574  33.808  25.239   7.355
 9478POPC   C1B50575  33.781  25.490   6.455
 9478POPC   C2B50576  33.805  25.468   6.755
 9478POPC   C3B50577  33.817  25.539   7.055
 9478POPC   C4B50578  33.751  25.484   7.355
 9479POPC   NC350579  32.279  24.454   5.555
 9479POPC   PO450580  32.297  24.465   5.855
 9479POPC   GL150581  32.274  24.484   6.155
 9479POPC   GL250582  32.368  24.439   6.155
 9479POPC   C1A50583  32.247  24.496   6.455
 9479POPC   D2A50584  32.199  24.480   6.755
 9479POPC   C3A50585  32.236  24.516   7.055
 9479POPC   C4A50586  32.246  24.523   7.355
 9479POPC   C1B50587  32.517  24.492   6.455
 9479POPC   C2B50588  32.543  24.463   6.755
 9479POPC   C3B50589  32.506  24.417   7.055
 9479POPC   C4B50590  32.462  24.454   7.355
 9480POPC   NC350591  41.539  43.885   5.555
 9480POPC   PO450592  41.565  43.851   5.855
 9480POPC   GL150593  41.578  43.901   6.155
 9480POPC   GL250594  41.660  43.898   6.155
 9480POPC   C1A50595  41.544  43.888   6.455
 9480POPC   D2A50596  41.555  43.925   6.755
 9480POPC   C3A50597  41.548  43.858   7.055
 9480POPC   C4A50598  41.533  43.916   7.355
 9480POPC   C1B50599  41.838  43.938   6.455
 9480POPC   C2B50600  41.770  43.942   6.755
 9480POPC   C3B50601  41.824  43.941   7.055
 9480POPC   C4B50602  41.825  43.910   7.355
 9481POPC   NC350603  35.352   2.725   5.555
 9481POPC   PO450604  35.376   2.771   5.855
 9481POPC   GL150605  35.372   2.771   6.155
 9481POPC   GL250606  35.378   2.603   6.155
 9481POPC   C1A50607  35.390   2.780   6.455
 9481POPC   D2A50608  35.395   2.811   6.755
 9481POPC   C3A50609  35.333   2.765   7.055
 9481POPC   C4A50610  35.353   2.780   7.355
 9481POPC   C1B50611  35.452   2.480   6.455
 9481POPC   C2B50612  35.379   2.542   6.755
 9481POPC   C3B50613  35.388   2.531   7.055
 9481POPC   C4B50614  35.374   2.486   7.355
 9482POPC   NC350615  17.510   4.337   5.555
 9482POPC   PO450616  17.517   4.284   5.855
 9482POPC   GL150617  17.509   4.268   6.155
 9482POPC   GL250618  17.466   4.196   6.155
 9482POPC   C1A50619  17.514   4.353   6.455
 9482POPC   D2A50620  17.516   4.366   6.755
 9482POPC   C3A50621  17.499   4.323   7.055
 9482POPC   C4A50622  17.502   4.275   7.355
 9482POPC   C1B50623  17.467   4.083   6.455
 9482POPC   C2B50624  17.402   4.064   6.755
 9482POPC   C3B50625  17.412   4.112   7.055
 9482POPC   C4B50626  17.451   4.097   7.355
 9483POPC   NC350627  32.212  30.683   5.555
 9483POPC   PO450628  32.285  30.714   5.855
 9483POPC   GL150629  32.295  30.664   6.155
 9483POPC   GL250630  32.310  30.826   6.155
 9483POPC   C1A50631  32.263  30.720   6.455
 9483POPC   D2A50632  32.295  30.717   6.755
 9483POPC   C3A50633  32.289  30.729   7.055
 9483POPC   C4A50634  32.273  30.703   7.355
 9483POPC   C1B50635  32.326  30.887   6.455
 9483POPC   C2B50636  32.307  30.899   6.755
 9483POPC   C3B50637  32.329  30.962   7.055
 9483POPC   C4B50638  32.338  30.964   7.355
 9484POPC   NC350639   6.667  38.467   5.555
 9484POPC   PO450640   6.673  38.478   5.855
 9484POPC   GL150641   6.604  38.421   6.155
 9484POPC   GL250642   6.554  38.580   6.155
 9484POPC   C1A50643   6.671  38.447   6.455
 9484POPC   D2A50644   6.606  38.449   6.755
 9484POPC   C3A50645   6.638  38.434   7.055
 9484POPC   C4A50646   6.632  38.482   7.355
 9484POPC   C1B50647   6.509  38.707   6.455
 9484POPC   C2B50648   6.502  38.665   6.755
 9484POPC   C3B50649   6.543  38.636   7.055
 9484POPC   C4B50650   6.487  38.637   7.355
 9485POPC   NC350651  12.098   6.629   5.555
 9485POPC   PO450652  12.041   6.652   5.855
 9485POPC   GL150653  12.056   6.604   6.155
 9485POPC   GL250654  11.980   6.504   6.155
 9485POPC   C1A50655  12.120   6.625   6.455
 9485POPC   D2A50656  12.042   6.694   6.755
 9485POPC   C3A50657  12.082   6.638   7.055
 9485POPC   C4A50658  12.071   6.667   7.355
 9485POPC   C1B50659  11.915   6.432   6.455
 9485POPC   C2B50660  11.950   6.393   6.755
 9485POPC   C3B50661  11.941   6.392   7.055
 9485POPC   C4B50662  11.894   6.448   7.355
 9486POPC   NC350663  20.649  30.692   5.555
 9486POPC   PO450664  20.572  30.727   5.855
 9486POPC   GL150665  20.628  30.717   6.155
 9486POPC   GL250666  20.771  30.737   6.155
 9486POPC   C1A50667  20.580  30.674   6.455
 9486POPC   D2A50668  20.598  30.648   6.755
 9486POPC   C3A50669  20.630  30.666   7.055
 9486POPC   C4A50670  20.585  30.662   7.355
 9486POPC   C1B50671  20.868  30.854   6.455
 9486POPC   C2B50672  20.805  30.838   6.755
 9486POPC   C3B50673  20.820  30.855   7.055
 9486POPC   C4B50674  20.818  30.832   7.355
 9487POPC   NC350675   8.960  24.500   5.555
 9487POPC   PO450676   9.005  24.457   5.855
 9487POPC   GL150677   8.978  24.510   6.155
 9487POPC   GL250678   8.903  24.368   6.155
 9487POPC   C1A50679   9.015  24.454   6.455
 9487POPC   D2A50680   9.007  24.480   6.755
 9487POPC   C3A50681   9.015  24.456   7.055
 9487POPC   C4A50682   8.953  24.500   7.355
 9487POPC   C1B50683   8.944  24.247   6.455
 9487POPC   C2B50684   8.902  24.264   6.755
 9487POPC   C3B50685   8.859  24.248   7.055
 9487POPC   C4B50686   8.942  24.220   7.355
 9488POPC   NC350687  36.885   5.903   5.555
 9488POPC   PO450688  36.951   5.914   5.855
 9488POPC   GL150689  36.896   5.862   6.155
 9488POPC   GL250690  36.938   5.989   6.155
 9488POPC   C1A50691  36.892   5.895   6.455
 9488POPC   D2A50692  36.911   5.831   6.755
 9488POPC   C3A50693  36.918   5.896   7.055
 9488POPC   C4A50694  36.918   5.915   7.355
 9488POPC   C1B50695  37.024   6.032   6.455
 9488POPC   C2B50696  37.085   6.046   6.755
 9488POPC   C3B50697  37.091   6.083   7.055
 9488POPC   C4B50698  37.027   6.110   7.355
 9489POPC   NC350699  29.941   0.419   5.555
 9489POPC   PO450700  29.886   0.408   5.855
 9489POPC   GL150701  29.911   0.484   6.155
 9489POPC   GL250702  29.777   0.418   6.155
 9489POPC   C1A50703  29.889   0.410   6.455
 9489POPC   D2A50704  29.898   0.477   6.755
 9489POPC   C3A50705  29.897   0.447   7.055
 9489POPC   C4A50706  29.911   0.451   7.355
 9489POPC   C1B50707  29.666   0.283   6.455
 9489POPC   C2B50708  29.672   0.347   6.755
 9489POPC   C3B50709  29.667   0.260   7.055
 9489POPC   C4B50710  29.728   0.333   7.355
 9490POPC   NC350711  31.510  26.800   5.555
 9490POPC   PO450712  31.483  26.845   5.855
 9490POPC   GL150713  31.518  26.826   6.155
 9490POPC   GL250714  31.393  26.728   6.155
 9490POPC   C1A50715  31.495  26.844   6.455
 9490POPC   D2A50716  31.503  26.847   6.755
 9490POPC   C3A50717  31.513  26.771   7.055
 9490POPC   C4A50718  31.454  26.786   7.355
 9490POPC   C1B50719  31.269  26.690   6.455
 9490POPC   C2B50720  31.291  26.665   6.755
 9490POPC   C3B50721  31.314  26.680   7.055
 9490POPC   C4B50722  31.285  26.615   7.355
 9491POPC   NC350723  29.966  27.581   5.555
 9491POPC   PO450724  29.970  27.568   5.855
 9491POPC   GL150725  29.902  27.635   6.155
 9491POPC   GL250726  30.007  27.622   6.155
 9491POPC   C1A50727  29.873  27.628   6.455
 9491POPC   D2A50728  29.970  27.581   6.755
 9491POPC   C3A50729  29.958  27.620   7.055
 9491POPC   C4A50730  29.940  27.619   7.355
 9491POPC   C1B50731  30.121  27.740   6.455
 9491POPC   C2B50732  30.074  27.768   6.755
 9491POPC   C3B50733  30.106  27.697   7.055
 9491POPC   C4B50734  30.096  27.709   7.355
 9492POPC   NC350735   7.393  24.497   5.555
 9492POPC   PO450736   7.397  24.525   5.855
 9492POPC   GL150737   7.423  24.526   6.155
 9492POPC   GL250738   7.545  24.540   6.155
 9492POPC   C1A50739   7.422  24.521   6.455
 9492POPC   D2A50740   7.379  24.489   6.755
 9492POPC   C3A50741   7.431  24.491   7.055
 9492POPC   C4A50742   7.453  24.509   7.355
 9492POPC   C1B50743   7.590  24.698   6.455
 9492POPC   C2B50744   7.551  24.697   6.755
 9492POPC   C3B50745   7.559  24.715   7.055
 9492POPC   C4B50746   7.608  24.630   7.355
 9493POPC   NC350747  23.754  32.230   5.555
 9493POPC   PO450748  23.665  32.201   5.855
 9493POPC   GL150749  23.714  32.238   6.155
 9493POPC   GL250750  23.848  32.222   6.155
 9493POPC   C1A50751  23.684  32.265   6.455
 9493POPC   D2A50752  23.740  32.205   6.755
 9493POPC   C3A50753  23.762  32.264   7.055
 9493POPC   C4A50754  23.701  32.258   7.355
 9493POPC   C1B50755  23.902  32.137   6.455
 9493POPC   C2B50756  23.966  32.108   6.755
 9493POPC   C3B50757  23.913  32.119   7.055
 9493POPC   C4B50758  23.914  32.149   7.355
 9494POPC   NC350759   5.103  44.624   5.555
 9494POPC   PO450760   5.096  44.665   5.855
 9494POPC   GL150761   5.105  44.622   6.155
 9494POPC   GL250762   5.210  44.579   6.155
 9494POPC   C1A50763   5.115  44.626   6.455
 9494POPC   D2A50764   5.141  44.654   6.755
 9494POPC   C3A50765   5.122  44.669   7.055
 9494POPC   C4A50766   5.128  44.662   7.355
 9494POPC   C1B50767   5.309  44.567   6.455
 9494POPC   C2B50768   5.302  44.637   6.755
 9494POPC   C3B50769   5.304  44.558   7.055
 9494POPC   C4B50770   5.292  44.554   7.355
 9495POPC   NC350771  37.681  30.699   5.555
 9495POPC   PO450772  37.710  30.670   5.855
 9495POPC   GL150773  37.709  30.653   6.155
 9495POPC   GL250774  37.593  30.790   6.155
 9495POPC   C1A50775  37.634  30.704   6.455
 9495POPC   D2A50776  37.717  30.668   6.755
 9495POPC   C3A50777  37.725  30.713   7.055
 9495POPC   C4A50778  37.708  30.674   7.355
 9495POPC   C1B50779  37.597  30.897   6.455
 9495POPC   C2B50780  37.602  30.969   6.755
 9495POPC   C3B50781  37.608  30.888   7.055
 9495POPC   C4B50782  37.555  30.971   7.355
 9496POPC   NC350783  26.037  14.390   5.555
 9496POPC   PO450784  26.081  14.371   5.855
 9496POPC   GL150785  26.090  14.407   6.155
 9496POPC   GL250786  25.985  14.456   6.155
 9496POPC   C1A50787  26.073  14.409   6.455
 9496POPC   D2A50788  26.008  14.390   6.755
 9496POPC   C3A50789  25.993  14.443   7.055
 9496POPC   C4A50790  26.000  14.355   7.355
 9496POPC   C1B50791  25.872  14.512   6.455
 9496POPC   C2B50792  25.853  14.596   6.755
 9496POPC   C3B50793  25.796  14.551   7.055
 9496POPC   C4B50794  25.852  14.586   7.355
 9497POPC   NC350795  16.704   3.529   5.555
 9497POPC   PO450796  16.695   3.560   5.855
 9497POPC   GL150797  16.761   3.576   6.155
 9497POPC   GL250798  16.891   3.492   6.155
 9497POPC   C1A50799  16.758   3.588   6.455
 9497POPC   D2A50800  16.759   3.563   6.755
 9497POPC   C3A50801  16.765   3.587   7.055
 9497POPC   C4A50802  16.749   3.499   7.355
 9497POPC   C1B50803  16.980   3.570   6.455
 9497POPC   C2B50804  16.990   3.579   6.755
 9497POPC   C3B50805  16.941   3.567   7.055
 9497POPC   C4B50806  16.975   3.559   7.355
 9498POPC   NC350807  29.118  41.601   5.555
 9498POPC   PO450808  29.175  41.573   5.855
 9498POPC   GL150809  29.097  41.514   6.155
 9498POPC   GL250810  29.105  41.692   6.155
 9498POPC   C1A50811  29.182  41.539   6.455
 9498POPC   D2A50812  29.131  41.603   6.755
 9498POPC   C3A50813  29.152  41.576   7.055
 9498POPC   C4A50814  29.164  41.559   7.355
 9498POPC   C1B50815  29.124  41.808   6.455
 9498POPC   C2B50816  29.103  41.844   6.755
 9498POPC   C3B50817  29.122  41.776   7.055
 9498POPC   C4B50818  29.175  41.788   7.355
 9499POPC   NC350819  43.857   0.408   5.555
 9499POPC   PO450820  43.932   0.442   5.855
 9499POPC   GL150821  43.925   0.422   6.155
 9499POPC   GL250822  43.859   0.521   6.155
 9499POPC   C1A50823  43.903   0.423   6.455
 9499POPC   D2A50824  43.882   0.396   6.755
 9499POPC   C3A50825  43.910   0.428   7.055
 9499POPC   C4A50826  43.860   0.412   7.355
 9499POPC   C1B50827  43.830   0.724   6.455
 9499POPC   C2B50828  43.912   0.692   6.755
 9499POPC   C3B50829  43.891   0.667   7.055
 9499POPC   C4B50830  43.860   0.671   7.355
 9500POPC   NC350831   9.744  33.813   5.555
 9500POPC   PO450832   9.723  33.794   5.855
 9500POPC   GL150833   9.721  33.800   6.155
 9500POPC   GL250834   9.864  33.751   6.155
 9500POPC   C1A50835   9.745  33.751   6.455
 9500POPC   D2A50836   9.787  33.833   6.755
 9500POPC   C3A50837   9.733  33.829   7.055
 9500POPC   C4A50838   9.740  33.782   7.355
 9500POPC   C1B50839   9.973  33.751   6.455
 9500POPC   C2B50840   9.966  33.748   6.755
 9500POPC   C3B50841  10.004  33.766   7.055
 9500POPC   C4B50842   9.968  33.723   7.355
 9501POPC   NC350843   1.262  30.653   5.555
 9501POPC   PO450844   1.256  30.648   5.855
 9501POPC   GL150845   1.166  30.665   6.155
 9501POPC   GL250846   1.337  30.697   6.155
 9501POPC   C1A50847   1.229  30.715   6.455
 9501POPC   D2A50848   1.194  30.738   6.755
 9501POPC   C3A50849   1.234  30.681   7.055
 9501POPC   C4A50850   1.178  30.738   7.355
 9501POPC   C1B50851   1.481  30.700   6.455
 9501POPC   C2B50852   1.496  30.696   6.755
 9501POPC   C3B50853   1.490  30.691   7.055
 9501POPC   C4B50854   1.448  30.621   7.355
 9502POPC   NC350855   5.075  43.142   5.555
 9502POPC   PO450856   5.063  43.096   5.855
 9502POPC   GL150857   5.051  43.159   6.155
 9502POPC   GL250858   5.152  42.994   6.155
 9502POPC   C1A50859   5.081  43.119   6.455
 9502POPC   D2A50860   5.064  43.091   6.755
 9502POPC   C3A50861   5.137  43.085   7.055
 9502POPC   C4A50862   5.075  43.142   7.355
 9502POPC   C1B50863   5.237  42.879   6.455
 9502POPC   C2B50864   5.193  42.848   6.755
 9502POPC   C3B50865   5.210  42.878   7.055
 9502POPC   C4B50866   5.201  42.856   7.355
 9503POPC   NC350867  44.657   7.401   5.555
 9503POPC   PO450868  44.682   7.422   5.855
 9503POPC   GL150869  44.631   7.382   6.155
 9503POPC   GL250870  44.589   7.498   6.155
 9503POPC   C1A50871  44.621   7.451   6.455
 9503POPC   D2A50872  44.626   7.445   6.755
 9503POPC   C3A50873  44.645   7.403   7.055
 9503POPC   C4A50874  44.664   7.440   7.355
 9503POPC   C1B50875  44.470   7.606   6.455
 9503POPC   C2B50876  44.492   7.580   6.755
 9503POPC   C3B50877  44.457   7.564   7.055
 9503POPC   C4B50878  44.475   7.585   7.355
 9504POPC   NC350879   8.962   8.165   5.555
 9504POPC   PO450880   8.977   8.151   5.855
 9504POPC   GL150881   8.998   8.184   6.155
 9504POPC   GL250882   9.003   8.272   6.155
 9504POPC   C1A50883   8.940   8.202   6.455
 9504POPC   D2A50884   9.017   8.210   6.755
 9504POPC   C3A50885   8.924   8.152   7.055
 9504POPC   C4A50886   8.949   8.165   7.355
 9504POPC   C1B50887   9.090   8.428   6.455
 9504POPC   C2B50888   9.161   8.409   6.755
 9504POPC   C3B50889   9.156   8.409   7.055
 9504POPC   C4B50890   9.106   8.423   7.355
 9505POPC   NC350891   1.259  17.531   5.555
 9505POPC   PO450892   1.251  17.464   5.855
 9505POPC   GL150893   1.173  17.469   6.155
 9505POPC   GL250894   1.334  17.555   6.155
 9505POPC   C1A50895   1.217  17.534   6.455
 9505POPC   D2A50896   1.177  17.533   6.755
 9505POPC   C3A50897   1.199  17.483   7.055
 9505POPC   C4A50898   1.196  17.467   7.355
 9505POPC   C1B50899   1.458  17.673   6.455
 9505POPC   C2B50900   1.456  17.679   6.755
 9505POPC   C3B50901   1.407  17.631   7.055
 9505POPC   C4B50902   1.460  17.608   7.355
 9506POPC   NC350903  33.751  17.474   5.555
 9506POPC   PO450904  33.796  17.516   5.855
 9506POPC   GL150905  33.826  17.489   6.155
 9506POPC   GL250906  33.698  17.426   6.155
 9506POPC   C1A50907  33.816  17.551   6.455
 9506POPC   D2A50908  33.800  17.553   6.755
 9506POPC   C3A50909  33.839  17.483   7.055
 9506POPC   C4A50910  33.777  17.544   7.355
 9506POPC   C1B50911  33.627  17.242   6.455
 9506POPC   C2B50912  33.626  17.284   6.755
 9506POPC   C3B50913  33.650  17.335   7.055
 9506POPC   C4B50914  33.720  17.264   7.355
 9507POPC   NC350915   1.998   1.974   5.555
 9507POPC   PO450916   1.947   1.996   5.855
 9507POPC   GL150917   1.989   1.956   6.155
 9507POPC   GL250918   2.065   1.949   6.155
 9507POPC   C1A50919   1.955   2.031   6.455
 9507POPC   D2A50920   2.019   2.000   6.755
 9507POPC   C3A50921   1.994   2.030   7.055
 9507POPC   C4A50922   2.017   1.980   7.355
 9507POPC   C1B50923   2.243   1.995   6.455
 9507POPC   C2B50924   2.248   1.969   6.755
 9507POPC   C3B50925   2.278   1.918   7.055
 9507POPC   C4B50926   2.250   1.979   7.355
 9508POPC   NC350927  27.623  29.194   5.555
 9508POPC   PO450928  27.599  29.158   5.855
 9508POPC   GL150929  27.610  29.154   6.155
 9508POPC   GL250930  27.526  29.262   6.155
 9508POPC   C1A50931  27.597  29.128   6.455
 9508POPC   D2A50932  27.566  29.138   6.755
 9508POPC   C3A50933  27.571  29.195   7.055
 9508POPC   C4A50934  27.621  29.124   7.355
 9508POPC   C1B50935  27.457  29.294   6.455
 9508POPC   C2B50936  27.376  29.280   6.755
 9508POPC   C3B50937  27.380  29.333   7.055
 9508POPC   C4B50938  27.388  29.358   7.355
 9509POPC   NC350939  26.000  19.811   5.555
 9509POPC   PO450940  26.062  19.796   5.855
 9509POPC   GL150941  25.996  19.799   6.155
 9509POPC   GL250942  26.045  19.940   6.155
 9509POPC   C1A50943  26.022  19.792   6.455
 9509POPC   D2A50944  26.019  19.794   6.755
 9509POPC   C3A50945  26.030  19.832   7.055
 9509POPC   C4A50946  26.032  19.787   7.355
 9509POPC   C1B50947  25.948  20.034   6.455
 9509POPC   C2B50948  25.936  20.099   6.755
 9509POPC   C3B50949  25.996  20.060   7.055
 9509POPC   C4B50950  25.940  20.058   7.355
 9510POPC   NC350951  32.199  22.958   5.555
 9510POPC   PO450952  32.269  22.901   5.855
 9510POPC   GL150953  32.214  22.892   6.155
 9510POPC   GL250954  32.405  22.987   6.155
 9510POPC   C1A50955  32.283  22.962   6.455
 9510POPC   D2A50956  32.207  22.956   6.755
 9510POPC   C3A50957  32.257  22.970   7.055
 9510POPC   C4A50958  32.247  22.909   7.355
 9510POPC   C1B50959  32.450  22.985   6.455
 9510POPC   C2B50960  32.476  22.986   6.755
 9510POPC   C3B50961  32.449  23.011   7.055
 9510POPC   C4B50962  32.450  23.031   7.355
 9511POPC   NC350963  17.504  10.552   5.555
 9511POPC   PO450964  17.474  10.535   5.855
 9511POPC   GL150965  17.483  10.501   6.155
 9511POPC   GL250966  17.421  10.419   6.155
 9511POPC   C1A50967  17.466  10.529   6.455
 9511POPC   D2A50968  17.477  10.553   6.755
 9511POPC   C3A50969  17.465  10.518   7.055
 9511POPC   C4A50970  17.482  10.501   7.355
 9511POPC   C1B50971  17.421  10.272   6.455
 9511POPC   C2B50972  17.375  10.272   6.755
 9511POPC   C3B50973  17.451  10.283   7.055
 9511POPC   C4B50974  17.450  10.250   7.355
 9512POPC   NC350975   8.975   8.983   5.555
 9512POPC   PO450976   8.957   9.010   5.855
 9512POPC   GL150977   8.966   9.018   6.155
 9512POPC   GL250978   8.856   8.997   6.155
 9512POPC   C1A50979   9.001   8.986   6.455
 9512POPC   D2A50980   8.995   8.955   6.755
 9512POPC   C3A50981   8.923   8.942   7.055
 9512POPC   C4A50982   9.016   9.007   7.355
 9512POPC   C1B50983   8.713   9.002   6.455
 9512POPC   C2B50984   8.738   8.941   6.755
 9512POPC   C3B50985   8.764   9.007   7.055
 9512POPC   C4B50986   8.688   8.957   7.355
 9513POPC   NC350987  13.578   8.156   5.555
 9513POPC   PO450988  13.672   8.199   5.855
 9513POPC   GL150989  13.585   8.184   6.155
 9513POPC   GL250990  13.509   8.232   6.155
 9513POPC   C1A50991  13.636   8.184   6.455
 9513POPC   D2A50992  13.609   8.212   6.755
 9513POPC   C3A50993  13.643   8.232   7.055
 9513POPC   C4A50994  13.583   8.191   7.355
 9513POPC   C1B50995  13.420   8.307   6.455
 9513POPC   C2B50996  13.409   8.258   6.755
 9513POPC   C3B50997  13.428   8.259   7.055
 9513POPC   C4B50998  13.392   8.286   7.355
 9514POPC   NC350999  11.341  21.413   5.555
 9514POPC   PO451000  11.328  21.415   5.855
 9514POPC   GL151001  11.341  21.432   6.155
 9514POPC   GL251002  11.182  21.296   6.155
 9514POPC   C1A51003  11.284  21.380   6.455
 9514POPC   D2A51004  11.294  21.406   6.755
 9514POPC   C3A51005  11.293  21.349   7.055
 9514POPC   C4A51006  11.325  21.381   7.355
 9514POPC   C1B51007  11.141  21.216   6.455
 9514POPC   C2B51008  11.132  21.266   6.755
 9514POPC   C3B51009  11.143  21.192   7.055
 9514POPC   C4B51010  11.115  21.195   7.355
 9515POPC   NC351011   0.402   2.797   5.555
 9515POPC   PO451012   0.416   2.785   5.855
 9515POPC   GL151013   0.388   2.722   6.155
 9515POPC   GL251014   0.390   2.651   6.155
 9515POPC   C1A51015   0.413   2.750   6.455
 9515POPC   D2A51016   0.453   2.779   6.755
 9515POPC   C3A51017   0.457   2.807   7.055
 9515POPC   C4A51018   0.472   2.786   7.355
 9515POPC   C1B51019   0.267   2.560   6.455
 9515POPC   C2B51020   0.345   2.562   6.755
 9515POPC   C3B51021   0.362   2.568   7.055
 9515POPC   C4B51022   0.340   2.540   7.355
 9516POPC   NC351023  27.600  38.430   5.555
 9516POPC   PO451024  27.577  38.486   5.855
 9516POPC   GL151025  27.598  38.425   6.155
 9516POPC   GL251026  27.457  38.372   6.155
 9516POPC   C1A51027  27.625  38.421   6.455
 9516POPC   D2A51028  27.550  38.446   6.755
 9516POPC   C3A51029  27.560  38.502   7.055
 9516POPC   C4A51030  27.600  38.478   7.355
 9516POPC   C1B51031  27.394  38.281   6.455
 9516POPC   C2B51032  27.411  38.308   6.755
 9516POPC   C3B51033  27.390  38.295   7.055
 9516POPC   C4B51034  27.393  38.358   7.355
 9517POPC   NC351035   1.996   0.466   5.555
 9517POPC   PO451036   1.966   0.485   5.855
 9517POPC   GL151037   1.957   0.403   6.155
 9517POPC   GL251038   2.025   0.367   6.155
 9517POPC   C1A51039   1.984   0.416   6.455
 9517POPC   D2A51040   1.957   0.459   6.755
 9517POPC   C3A51041   2.029   0.395   7.055
 9517POPC   C4A51042   2.037   0.422   7.355
 9517POPC   C1B51043   2.106   0.262   6.455
 9517POPC   C2B51044   2.136   0.217   6.755
 9517POPC   C3B51045   2.146   0.233   7.055
 9517POPC   C4B51046   2.149   0.197   7.355
 9518POPC   NC351047  36.133   0.445   5.555
 9518POPC   PO451048  36.083   0.466   5.855
 9518POPC   GL151049  36.164   0.438   6.155
 9518POPC   GL251050  36.126   0.601   6.155
 9518POPC   C1A51051  36.156   0.443   6.455
 9518POPC   D2A51052  36.142   0.486   6.755
 9518POPC   C3A51053  36.168   0.403   7.055
 9518POPC   C4A51054  36.096   0.416   7.355
 9518POPC   C1B51055  36.009   0.706   6.455
 9518POPC   C2B51056  36.070   0.683   6.755
 9518POPC   C3B51057  36.081   0.673   7.055
 9518POPC   C4B51058  36.059   0.634   7.355
 9519POPC   NC351059  27.623  13.634   5.555
 9519POPC   PO451060  27.597  13.666   5.855
 9519POPC   GL151061  27.620  13.627   6.155
 9519POPC   GL251062  27.443  13.560   6.155
 9519POPC   C1A51063  27.574  13.605   6.455
 9519POPC   D2A51064  27.642  13.625   6.755
 9519POPC   C3A51065  27.610  13.607   7.055
 9519POPC   C4A51066  27.610  13.651   7.355
 9519POPC   C1B51067  27.307  13.526   6.455
 9519POPC   C2B51068  27.358  13.605   6.755
 9519POPC   C3B51069  27.313  13.553   7.055
 9519POPC   C4B51070  27.308  13.574   7.355
 9520POPC   NC351071  42.326  20.566   5.555
 9520POPC   PO451072  42.356  20.605   5.855
 9520POPC   GL151073  42.327  20.574   6.155
 9520POPC   GL251074  42.425  20.520   6.155
 9520POPC   C1A51075  42.350  20.613   6.455
 9520POPC   D2A51076  42.368  20.594   6.755
 9520POPC   C3A51077  42.294  20.593   7.055
 9520POPC   C4A51078  42.372  20.605   7.355
 9520POPC   C1B51079  42.560  20.513   6.455
 9520POPC   C2B51080  42.578  20.525   6.755
 9520POPC   C3B51081  42.558  20.551   7.055
 9520POPC   C4B51082  42.517  20.542   7.355
 9521POPC   NC351083  15.177  40.753   5.555
 9521POPC   PO451084  15.214  40.756   5.855
 9521POPC   GL151085  15.217  40.743   6.155
 9521POPC   GL251086  15.139  40.618   6.155
 9521POPC   C1A51087  15.185  40.796   6.455
 9521POPC   D2A51088  15.129  40.749   6.755
 9521POPC   C3A51089  15.168  40.751   7.055
 9521POPC   C4A51090  15.220  40.767   7.355
 9521POPC   C1B51091  15.085  40.554   6.455
 9521POPC   C2B51092  15.127  40.560   6.755
 9521POPC   C3B51093  15.167  40.509   7.055
 9521POPC   C4B51094  15.125  40.571   7.355
 9522POPC   NC351095   3.518  19.035   5.555
 9522POPC   PO451096   3.543  19.046   5.855
 9522POPC   GL151097   3.506  19.020   6.155
 9522POPC   GL251098   3.677  19.093   6.155
 9522POPC   C1A51099   3.590  19.023   6.455
 9522POPC   D2A51100   3.550  19.096   6.755
 9522POPC   C3A51101   3.504  19.039   7.055
 9522POPC   C4A51102   3.493  19.085   7.355
 9522POPC   C1B51103   3.746  19.106   6.455
 9522POPC   C2B51104   3.799  19.067   6.755
 9522POPC   C3B51105   3.786  19.032   7.055
 9522POPC   C4B51106   3.781  19.078   7.355
 9523POPC   NC351107   6.629  29.962   5.555
 9523POPC   PO451108   6.596  29.921   5.855
 9523POPC   GL151109   6.668  29.873   6.155
 9523POPC   GL251110   6.772  29.827   6.155
 9523POPC   C1A51111   6.681  29.932   6.455
 9523POPC   D2A51112   6.603  29.916   6.755
 9523POPC   C3A51113   6.637  29.937   7.055
 9523POPC   C4A51114   6.673  29.926   7.355
 9523POPC   C1B51115   6.866  29.783   6.455
 9523POPC   C2B51116   6.818  29.794   6.755
 9523POPC   C3B51117   6.882  29.798   7.055
 9523POPC   C4B51118   6.874  29.813   7.355
 9524POPC   NC351119  19.875  40.796   5.555
 9524POPC   PO451120  19.870  40.768   5.855
 9524POPC   GL151121  19.799  40.827   6.155
 9524POPC   GL251122  19.911  40.877   6.155
 9524POPC   C1A51123  19.809  40.762   6.455
 9524POPC   D2A51124  19.844  40.782   6.755
 9524POPC   C3A51125  19.809  40.751   7.055
 9524POPC   C4A51126  19.852  40.751   7.355
 9524POPC   C1B51127  19.877  41.024   6.455
 9524POPC   C2B51128  19.944  41.068   6.755
 9524POPC   C3B51129  19.897  40.986   7.055
 9524POPC   C4B51130  19.892  40.975   7.355
 9525POPC   NC351131  43.849  41.580   5.555
 9525POPC   PO451132  43.935  41.579   5.855
 9525POPC   GL151133  43.877  41.513   6.155
 9525POPC   GL251134  43.778  41.517   6.155
 9525POPC   C1A51135  43.864  41.568   6.455
 9525POPC   D2A51136  43.888  41.553   6.755
 9525POPC   C3A51137  43.845  41.589   7.055
 9525POPC   C4A51138  43.907  41.599   7.355
 9525POPC   C1B51139  43.668  41.492   6.455
 9525POPC   C2B51140  43.673  41.437   6.755
 9525POPC   C3B51141  43.616  41.431   7.055
 9525POPC   C4B51142  43.654  41.477   7.355
 9526POPC   NC351143   1.238  11.260   5.555
 9526POPC   PO451144   1.174  11.303   5.855
 9526POPC   GL151145   1.187  11.299   6.155
 9526POPC   GL251146   1.247  11.393   6.155
 9526POPC   C1A51147   1.240  11.330   6.455
 9526POPC   D2A51148   1.179  11.292   6.755
 9526POPC   C3A51149   1.207  11.277   7.055
 9526POPC   C4A51150   1.164  11.320   7.355
 9526POPC   C1B51151   1.287  11.575   6.455
 9526POPC   C2B51152   1.249  11.507   6.755
 9526POPC   C3B51153   1.270  11.551   7.055
 9526POPC   C4B51154   1.262  11.573   7.355
 9527POPC   NC351155  23.721  19.074   5.555
 9527POPC   PO451156  23.705  19.014   5.855
 9527POPC   GL151157  23.689  19.041   6.155
 9527POPC   GL251158  23.653  18.920   6.155
 9527POPC   C1A51159  23.741  19.028   6.455
 9527POPC   D2A51160  23.727  19.040   6.755
 9527POPC   C3A51161  23.732  19.048   7.055
 9527POPC   C4A51162  23.717  19.098   7.355
 9527POPC   C1B51163  23.656  18.789   6.455
 9527POPC   C2B51164  23.689  18.796   6.755
 9527POPC   C3B51165  23.658  18.853   7.055
 9527POPC   C4B51166  23.669  18.789   7.355
 9528POPC   NC351167   7.414   1.237   5.555
 9528POPC   PO451168   7.431   1.218   5.855
 9528POPC   GL151169   7.435   1.213   6.155
 9528POPC   GL251170   7.470   1.062   6.155
 9528POPC   C1A51171   7.457   1.232   6.455
 9528POPC   D2A51172   7.471   1.230   6.755
 9528POPC   C3A51173   7.442   1.216   7.055
 9528POPC   C4A51174   7.423   1.183   7.355
 9528POPC   C1B51175   7.481   0.932   6.455
 9528POPC   C2B51176   7.461   0.974   6.755
 9528POPC   C3B51177   7.467   0.995   7.055
 9528POPC   C4B51178   7.409   0.957   7.355
 9529POPC   NC351179  34.620  28.413   5.555
 9529POPC   PO451180  34.537  28.368   5.855
 9529POPC   GL151181  34.611  28.406   6.155
 9529POPC   GL251182  34.682  28.320   6.155
 9529POPC   C1A51183  34.626  28.358   6.455
 9529POPC   D2A51184  34.540  28.367   6.755
 9529POPC   C3A51185  34.600  28.339   7.055
 9529POPC   C4A51186  34.544  28.413   7.355
 9529POPC   C1B51187  34.724  28.174   6.455
 9529POPC   C2B51188  34.778  28.226   6.755
 9529POPC   C3B51189  34.770  28.163   7.055
 9529POPC   C4B51190  34.759  28.154   7.355
 9530POPC   NC351191  29.153  40.055   5.555
 9530POPC   PO451192  29.169  39.957   5.855
 9530POPC   GL151193  29.188  39.970   6.155
 9530POPC   GL251194  29.255  40.102   6.155
 9530POPC   C1A51195  29.114  39.981   6.455
 9530POPC   D2A51196  29.164  40.054   6.755
 9530POPC   C3A51197  29.160  40.051   7.055
 9530POPC   C4A51198  29.118  40.032   7.355
 9530POPC   C1B51199  29.302  40.214   6.455
 9530POPC   C2B51200  29.319  40.148   6.755
 9530POPC   C3B51201  29.332  40.206   7.055
 9530POPC   C4B51202  29.347  40.147   7.355
 9531POPC   NC351203  15.202  16.707   5.555
 9531POPC   PO451204  15.160  16.712   5.855
 9531POPC   GL151205  15.173  16.736   6.155
 9531POPC   GL251206  15.260  16.671   6.155
 9531POPC   C1A51207  15.186  16.686   6.455
 9531POPC   D2A51208  15.184  16.733   6.755
 9531POPC   C3A51209  15.219  16.733   7.055
 9531POPC   C4A51210  15.154  16.700   7.355
 9531POPC   C1B51211  15.443  16.657   6.455
 9531POPC   C2B51212  15.384  16.689   6.755
 9531POPC   C3B51213  15.431  16.655   7.055
 9531POPC   C4B51214  15.412  16.653   7.355
 9532POPC   NC351215  35.353  29.948   5.555
 9532POPC   PO451216  35.356  29.926   5.855
 9532POPC   GL151217  35.320  29.912   6.155
 9532POPC   GL251218  35.441  30.041   6.155
 9532POPC   C1A51219  35.375  29.932   6.455
 9532POPC   D2A51220  35.370  29.911   6.755
 9532POPC   C3A51221  35.310  29.886   7.055
 9532POPC   C4A51222  35.360  29.944   7.355
 9532POPC   C1B51223  35.595  30.082   6.455
 9532POPC   C2B51224  35.536  30.087   6.755
 9532POPC   C3B51225  35.564  30.074   7.055
 9532POPC   C4B51226  35.508  30.121   7.355
 9533POPC   NC351227  24.467  39.960   5.555
 9533POPC   PO451228  24.482  40.007   5.855
 9533POPC   GL151229  24.532  40.016   6.155
 9533POPC   GL251230  24.590  40.097   6.155
 9533POPC   C1A51231  24.462  40.025   6.455
 9533POPC   D2A51232  24.525  40.018   6.755
 9533POPC   C3A51233  24.536  40.000   7.055
 9533POPC   C4A51234  24.478  40.055   7.355
 9533POPC   C1B51235  24.674  40.136   6.455
 9533POPC   C2B51236  24.698  40.063   6.755
 9533POPC   C3B51237  24.717  40.062   7.055
 9533POPC   C4B51238  24.678  40.146   7.355
 9534POPC   NC351239  19.798  12.849   5.555
 9534POPC   PO451240  19.857  12.860   5.855
 9534POPC   GL151241  19.794  12.854   6.155
 9534POPC   GL251242  19.691  12.895   6.155
 9534POPC   C1A51243  19.872  12.902   6.455
 9534POPC   D2A51244  19.873  12.827   6.755
 9534POPC   C3A51245  19.866  12.834   7.055
 9534POPC   C4A51246  19.847  12.851   7.355
 9534POPC   C1B51247  19.620  12.895   6.455
 9534POPC   C2B51248  19.634  12.909   6.755
 9534POPC   C3B51249  19.643  12.901   7.055
 9534POPC   C4B51250  19.573  12.943   7.355
 9535POPC   NC351251  19.798   5.896   5.555
 9535POPC   PO451252  19.820   5.827   5.855
 9535POPC   GL151253  19.883   5.827   6.155
 9535POPC   GL251254  19.912   5.722   6.155
 9535POPC   C1A51255  19.810   5.884   6.455
 9535POPC   D2A51256  19.867   5.903   6.755
 9535POPC   C3A51257  19.865   5.828   7.055
 9535POPC   C4A51258  19.787   5.912   7.355
 9535POPC   C1B51259  19.889   5.605   6.455
 9535POPC   C2B51260  19.932   5.614   6.755
 9535POPC   C3B51261  19.966   5.645   7.055
 9535POPC   C4B51262  19.956   5.607   7.355
 9536POPC   NC351263  43.067  16.756   5.555
 9536POPC   PO451264  43.155  16.749   5.855
 9536POPC   GL151265  43.118  16.731   6.155
 9536POPC   GL251266  43.056  16.630   6.155
 9536POPC   C1A51267  43.147  16.774   6.455
 9536POPC   D2A51268  43.089  16.741   6.755
 9536POPC   C3A51269  43.063  16.723   7.055
 9536POPC   C4A51270  43.156  16.742   7.355
 9536POPC   C1B51271  43.121  16.528   6.455
 9536POPC   C2B51272  43.098  16.504   6.755
 9536POPC   C3B51273  43.135  16.450   7.055
 9536POPC   C4B51274  43.125  16.469   7.355
 9537POPC   NC351275  21.338  32.285   5.555
 9537POPC   PO451276  21.368  32.240   5.855
 9537POPC   GL151277  21.403  32.217   6.155
 9537POPC   GL251278  21.330  32.323   6.155
 9537POPC   C1A51279  21.411  32.259   6.455
 9537POPC   D2A51280  21.397  32.297   6.755
 9537POPC   C3A51281  21.429  32.289   7.055
 9537POPC   C4A51282  21.338  32.208   7.355
 9537POPC   C1B51283  21.195  32.451   6.455
 9537POPC   C2B51284  21.164  32.388   6.755
 9537POPC   C3B51285  21.220  32.395   7.055
 9537POPC   C4B51286  21.243  32.393   7.355
 9538POPC   NC351287  26.791  20.623   5.555
 9538POPC   PO451288  26.807  20.650   5.855
 9538POPC   GL151289  26.843  20.641   6.155
 9538POPC   GL251290  26.765  20.722   6.155
 9538POPC   C1A51291  26.801  20.620   6.455
 9538POPC   D2A51292  26.839  20.577   6.755
 9538POPC   C3A51293  26.816  20.592   7.055
 9538POPC   C4A51294  26.799  20.606   7.355
 9538POPC   C1B51295  26.746  20.818   6.455
 9538POPC   C2B51296  26.726  20.902   6.755
 9538POPC   C3B51297  26.786  20.807   7.055
 9538POPC   C4B51298  26.728  20.804   7.355
 9539POPC   NC351299   6.673  35.343   5.555
 9539POPC   PO451300   6.681  35.329   5.855
 9539POPC   GL151301   6.662  35.322   6.155
 9539POPC   GL251302   6.686  35.284   6.155
 9539POPC   C1A51303   6.668  35.304   6.455
 9539POPC   D2A51304   6.691  35.321   6.755
 9539POPC   C3A51305   6.685  35.337   7.055
 9539POPC   C4A51306   6.650  35.370   7.355
 9539POPC   C1B51307   6.761  35.110   6.455
 9539POPC   C2B51308   6.805  35.136   6.755
 9539POPC   C3B51309   6.791  35.127   7.055
 9539POPC   C4B51310   6.797  35.130   7.355
 9540POPC   NC351311  27.557  43.092   5.555
 9540POPC   PO451312  27.595  43.134   5.855
 9540POPC   GL151313  27.634  43.140   6.155
 9540POPC   GL251314  27.571  43.030   6.155
 9540POPC   C1A51315  27.593  43.099   6.455
 9540POPC   D2A51316  27.576  43.115   6.755
 9540POPC   C3A51317  27.581  43.144   7.055
 9540POPC   C4A51318  27.563  43.088   7.355
 9540POPC   C1B51319  27.460  42.882   6.455
 9540POPC   C2B51320  27.448  42.852   6.755
 9540POPC   C3B51321  27.510  42.934   7.055
 9540POPC   C4B51322  27.479  42.934   7.355
 9541POPC   NC351323  21.370  12.080   5.555
 9541POPC   PO451324  21.380  12.069   5.855
 9541POPC   GL151325  21.397  12.110   6.155
 9541POPC   GL251326  21.333  11.941   6.155
 9541POPC   C1A51327  21.367  12.068   6.455
 9541POPC   D2A51328  21.390  12.098   6.755
 9541POPC   C3A51329  21.418  12.097   7.055
 9541POPC   C4A51330  21.358  12.119   7.355
 9541POPC   C1B51331  21.204  11.866   6.455
 9541POPC   C2B51332  21.249  11.854   6.755
 9541POPC   C3B51333  21.237  11.853   7.055
 9541POPC   C4B51334  21.191  11.897   7.355
 9542POPC   NC351335  18.313  32.276   5.555
 9542POPC   PO451336  18.286  32.297   5.855
 9542POPC   GL151337  18.301  32.214   6.155
 9542POPC   GL251338  18.408  32.182   6.155
 9542POPC   C1A51339  18.314  32.233   6.455
 9542POPC   D2A51340  18.302  32.243   6.755
 9542POPC   C3A51341  18.298  32.239   7.055
 9542POPC   C4A51342  18.307  32.244   7.355
 9542POPC   C1B51343  18.545  32.128   6.455
 9542POPC   C2B51344  18.449  32.148   6.755
 9542POPC   C3B51345  18.501  32.158   7.055
 9542POPC   C4B51346  18.476  32.113   7.355
 9543POPC   NC351347  28.322  22.133   5.555
 9543POPC   PO451348  28.414  22.150   5.855
 9543POPC   GL151349  28.334  22.115   6.155
 9543POPC   GL251350  28.460  22.250   6.155
 9543POPC   C1A51351  28.375  22.139   6.455
 9543POPC   D2A51352  28.406  22.185   6.755
 9543POPC   C3A51353  28.363  22.119   7.055
 9543POPC   C4A51354  28.391  22.183   7.355
 9543POPC   C1B51355  28.590  22.356   6.455
 9543POPC   C2B51356  28.524  22.313   6.755
 9543POPC   C3B51357  28.531  22.309   7.055
 9543POPC   C4B51358  28.517  22.335   7.355
 9544POPC   NC351359  25.262  39.251   5.555
 9544POPC   PO451360  25.284  39.207   5.855
 9544POPC   GL151361  25.254  39.229   6.155
 9544POPC   GL251362  25.403  39.191   6.155
 9544POPC   C1A51363  25.297  39.202   6.455
 9544POPC   D2A51364  25.282  39.186   6.755
 9544POPC   C3A51365  25.269  39.208   7.055
 9544POPC   C4A51366  25.250  39.236   7.355
 9544POPC   C1B51367  25.537  39.247   6.455
 9544POPC   C2B51368  25.530  39.268   6.755
 9544POPC   C3B51369  25.514  39.247   7.055
 9544POPC   C4B51370  25.500  39.287   7.355
 9545POPC   NC351371  43.159   5.908   5.555
 9545POPC   PO451372  43.100   5.848   5.855
 9545POPC   GL151373  43.113   5.875   6.155
 9545POPC   GL251374  43.101   5.962   6.155
 9545POPC   C1A51375  43.111   5.889   6.455
 9545POPC   D2A51376  43.092   5.915   6.755
 9545POPC   C3A51377  43.092   5.829   7.055
 9545POPC   C4A51378  43.094   5.835   7.355
 9545POPC   C1B51379  43.049   6.125   6.455
 9545POPC   C2B51380  43.098   6.099   6.755
 9545POPC   C3B51381  43.037   6.114   7.055
 9545POPC   C4B51382  43.070   6.076   7.355
 9546POPC   NC351383  29.907  14.394   5.555
 9546POPC   PO451384  29.929  14.359   5.855
 9546POPC   GL151385  29.937  14.445   6.155
 9546POPC   GL251386  30.079  14.393   6.155
 9546POPC   C1A51387  29.952  14.416   6.455
 9546POPC   D2A51388  29.932  14.381   6.755
 9546POPC   C3A51389  29.875  14.393   7.055
 9546POPC   C4A51390  29.906  14.411   7.355
 9546POPC   C1B51391  30.194  14.294   6.455
 9546POPC   C2B51392  30.183  14.384   6.755
 9546POPC   C3B51393  30.168  14.356   7.055
 9546POPC   C4B51394  30.123  14.309   7.355
 9547POPC   NC351395  27.568  33.823   5.555
 9547POPC   PO451396  27.621  33.806   5.855
 9547POPC   GL151397  27.550  33.845   6.155
 9547POPC   GL251398  27.592  33.688   6.155
 9547POPC   C1A51399  27.583  33.842   6.455
 9547POPC   D2A51400  27.548  33.806   6.755
 9547POPC   C3A51401  27.586  33.752   7.055
 9547POPC   C4A51402  27.616  33.775   7.355
 9547POPC   C1B51403  27.491  33.529   6.455
 9547POPC   C2B51404  27.554  33.574   6.755
 9547POPC   C3B51405  27.556  33.517   7.055
 9547POPC   C4B51406  27.544  33.564   7.355
 9548POPC   NC351407  22.122  14.431   5.555
 9548POPC   PO451408  22.197  14.407   5.855
 9548POPC   GL151409  22.192  14.407   6.155
 9548POPC   GL251410  22.249  14.489   6.155
 9548POPC   C1A51411  22.154  14.374   6.455
 9548POPC   D2A51412  22.167  14.362   6.755
 9548POPC   C3A51413  22.114  14.407   7.055
 9548POPC   C4A51414  22.160  14.367   7.355
 9548POPC   C1B51415  22.266  14.575   6.455
 9548POPC   C2B51416  22.332  14.589   6.755
 9548POPC   C3B51417  22.256  14.643   7.055
 9548POPC   C4B51418  22.257  14.589   7.355
 9549POPC   NC351419  14.450  22.955   5.555
 9549POPC   PO451420  14.442  22.916   5.855
 9549POPC   GL151421  14.430  22.913   6.155
 9549POPC   GL251422  14.526  22.852   6.155
 9549POPC   C1A51423  14.360  22.979   6.455
 9549POPC   D2A51424  14.373  22.964   6.755
 9549POPC   C3A51425  14.377  22.901   7.055
 9549POPC   C4A51426  14.416  22.912   7.355
 9549POPC   C1B51427  14.644  22.831   6.455
 9549POPC   C2B51428  14.582  22.822   6.755
 9549POPC   C3B51429  14.616  22.883   7.055
 9549POPC   C4B51430  14.681  22.795   7.355
 9550POPC   NC351431  15.993   8.979   5.555
 9550POPC   PO451432  15.991   8.983   5.855
 9550POPC   GL151433  15.913   8.982   6.155
 9550POPC   GL251434  15.880   8.950   6.155
 9550POPC   C1A51435  15.934   8.949   6.455
 9550POPC   D2A51436  15.906   8.928   6.755
 9550POPC   C3A51437  15.986   8.961   7.055
 9550POPC   C4A51438  15.916   8.987   7.355
 9550POPC   C1B51439  15.714   8.837   6.455
 9550POPC   C2B51440  15.711   8.798   6.755
 9550POPC   C3B51441  15.771   8.827   7.055
 9550POPC   C4B51442  15.741   8.828   7.355
 9551POPC   NC351443  16.762   4.366   5.555
 9551POPC   PO451444  16.741   4.365   5.855
 9551POPC   GL151445  16.781   4.295   6.155
 9551POPC   GL251446  16.608   4.306   6.155
 9551POPC   C1A51447  16.711   4.303   6.455
 9551POPC   D2A51448  16.703   4.306   6.755
 9551POPC   C3A51449  16.772   4.357   7.055
 9551POPC   C4A51450  16.683   4.290   7.355
 9551POPC   C1B51451  16.500   4.266   6.455
 9551POPC   C2B51452  16.474   4.234   6.755
 9551POPC   C3B51453  16.542   4.257   7.055
 9551POPC   C4B51454  16.473   4.179   7.355
 9552POPC   NC351455  11.294  24.444   5.555
 9552POPC   PO451456  11.318  24.510   5.855
 9552POPC   GL151457  11.266  24.529   6.155
 9552POPC   GL251458  11.307  24.317   6.155
 9552POPC   C1A51459  11.295  24.512   6.455
 9552POPC   D2A51460  11.340  24.478   6.755
 9552POPC   C3A51461  11.273  24.466   7.055
 9552POPC   C4A51462  11.255  24.514   7.355
 9552POPC   C1B51463  11.231  24.195   6.455
 9552POPC   C2B51464  11.301  24.199   6.755
 9552POPC   C3B51465  11.261  24.274   7.055
 9552POPC   C4B51466  11.221  24.268   7.355
 9553POPC   NC351467  26.049  43.934   5.555
 9553POPC   PO451468  26.012  43.893   5.855
 9553POPC   GL151469  26.059  43.928   6.155
 9553POPC   GL251470  26.099  43.740   6.155
 9553POPC   C1A51471  26.066  43.901   6.455
 9553POPC   D2A51472  26.078  43.908   6.755
 9553POPC   C3A51473  26.061  43.933   7.055
 9553POPC   C4A51474  26.084  43.886   7.355
 9553POPC   C1B51475  26.041  43.620   6.455
 9553POPC   C2B51476  26.102  43.659   6.755
 9553POPC   C3B51477  26.051  43.625   7.055
 9553POPC   C4B51478  26.023  43.623   7.355
 9554POPC   NC351479   8.966  31.430   5.555
 9554POPC   PO451480   8.963  31.426   5.855
 9554POPC   GL151481   8.984  31.515   6.155
 9554POPC   GL251482   8.946  31.585   6.155
 9554POPC   C1A51483   8.992  31.492   6.455
 9554POPC   D2A51484   9.015  31.425   6.755
 9554POPC   C3A51485   8.971  31.466   7.055
 9554POPC   C4A51486   8.959  31.427   7.355
 9554POPC   C1B51487   8.823  31.662   6.455
 9554POPC   C2B51488   8.859  31.677   6.755
 9554POPC   C3B51489   8.833  31.706   7.055
 9554POPC   C4B51490   8.849  31.711   7.355
 9555POPC   NC351491  39.969  43.132   5.555
 9555POPC   PO451492  40.028  43.077   5.855
 9555POPC   GL151493  40.046  43.113   6.155
 9555POPC   GL251494  39.947  43.034   6.155
 9555POPC   C1A51495  39.975  43.156   6.455
 9555POPC   D2A51496  40.027  43.104   6.755
 9555POPC   C3A51497  39.960  43.105   7.055
 9555POPC   C4A51498  39.984  43.100   7.355
 9555POPC   C1B51499  39.866  42.906   6.455
 9555POPC   C2B51500  39.827  42.927   6.755
 9555POPC   C3B51501  39.850  42.886   7.055
 9555POPC   C4B51502  39.787  42.973   7.355
 9556POPC   NC351503  31.505  30.703   5.555
 9556POPC   PO451504  31.470  30.709   5.855
 9556POPC   GL151505  31.479  30.679   6.155
 9556POPC   GL251506  31.442  30.543   6.155
 9556POPC   C1A51507  31.423  30.652   6.455
 9556POPC   D2A51508  31.515  30.653   6.755
 9556POPC   C3A51509  31.513  30.713   7.055
 9556POPC   C4A51510  31.462  30.677   7.355
 9556POPC   C1B51511  31.471  30.484   6.455
 9556POPC   C2B51512  31.445  30.408   6.755
 9556POPC   C3B51513  31.475  30.401   7.055
 9556POPC   C4B51514  31.464  30.458   7.355
 9557POPC   NC351515  36.885  11.299   5.555
 9557POPC   PO451516  36.882  11.317   5.855
 9557POPC   GL151517  36.876  11.342   6.155
 9557POPC   GL251518  36.897  11.195   6.155
 9557POPC   C1A51519  36.900  11.271   6.455
 9557POPC   D2A51520  36.904  11.301   6.755
 9557POPC   C3A51521  36.952  11.286   7.055
 9557POPC   C4A51522  36.949  11.335   7.355
 9557POPC   C1B51523  36.943  11.042   6.455
 9557POPC   C2B51524  36.955  11.083   6.755
 9557POPC   C3B51525  36.944  11.073   7.055
 9557POPC   C4B51526  36.984  11.058   7.355
 9558POPC   NC351527   2.785  33.814   5.555
 9558POPC   PO451528   2.730  33.783   5.855
 9558POPC   GL151529   2.799  33.803   6.155
 9558POPC   GL251530   2.788  33.663   6.155
 9558POPC   C1A51531   2.720  33.789   6.455
 9558POPC   D2A51532   2.804  33.821   6.755
 9558POPC   C3A51533   2.788  33.783   7.055
 9558POPC   C4A51534   2.779  33.782   7.355
 9558POPC   C1B51535   2.811  33.520   6.455
 9558POPC   C2B51536   2.815  33.587   6.755
 9558POPC   C3B51537   2.822  33.600   7.055
 9558POPC   C4B51538   2.891  33.598   7.355
 9559POPC   NC351539  28.386   4.331   5.555
 9559POPC   PO451540  28.375   4.328   5.855
 9559POPC   GL151541  28.417   4.279   6.155
 9559POPC   GL251542  28.340   4.149   6.155
 9559POPC   C1A51543  28.355   4.295   6.455
 9559POPC   D2A51544  28.380   4.341   6.755
 9559POPC   C3A51545  28.354   4.321   7.055
 9559POPC   C4A51546  28.409   4.288   7.355
 9559POPC   C1B51547  28.313   4.084   6.455
 9559POPC   C2B51548  28.329   4.112   6.755
 9559POPC   C3B51549  28.341   4.093   7.055
 9559POPC   C4B51550  28.303   4.051   7.355
 9560POPC   NC351551  43.856  25.273   5.555
 9560POPC   PO451552  43.843  25.241   5.855
 9560POPC   GL151553  43.909  25.257   6.155
 9560POPC   GL251554  43.988  25.346   6.155
 9560POPC   C1A51555  43.843  25.311   6.455
 9560POPC   D2A51556  43.847  25.308   6.755
 9560POPC   C3A51557  43.897  25.239   7.055
 9560POPC   C4A51558  43.858  25.284   7.355
 9560POPC   C1B51559  44.114  25.380   6.455
 9560POPC   C2B51560  44.083  25.318   6.755
 9560POPC   C3B51561  44.133  25.358   7.055
 9560POPC   C4B51562  44.103  25.379   7.355
 9561POPC   NC351563  38.500  15.972   5.555
 9561POPC   PO451564  38.427  15.929   5.855
 9561POPC   GL151565  38.463  15.937   6.155
 9561POPC   GL251566  38.545  16.036   6.155
 9561POPC   C1A51567  38.475  15.906   6.455
 9561POPC   D2A51568  38.452  15.942   6.755
 9561POPC   C3A51569  38.489  15.941   7.055
 9561POPC   C4A51570  38.487  15.928   7.355
 9561POPC   C1B51571  38.645  16.078   6.455
 9561POPC   C2B51572  38.640  16.171   6.755
 9561POPC   C3B51573  38.665  16.166   7.055
 9561POPC   C4B51574  38.649  16.102   7.355
 9562POPC   NC351575  13.584  43.895   5.555
 9562POPC   PO451576  13.625  43.910   5.855
 9562POPC   GL151577  13.617  43.907   6.155
 9562POPC   GL251578  13.553  43.915   6.155
 9562POPC   C1A51579  13.626  43.922   6.455
 9562POPC   D2A51580  13.589  43.855   6.755
 9562POPC   C3A51581  13.635  43.865   7.055
 9562POPC   C4A51582  13.655  43.880   7.355
 9562POPC   C1B51583  13.427  43.868   6.455
 9562POPC   C2B51584  13.353  43.890   6.755
 9562POPC   C3B51585  13.410  43.865   7.055
 9562POPC   C4B51586  13.413  43.874   7.355
 9563POPC   NC351587  11.302   1.219   5.555
 9563POPC   PO451588  11.298   1.252   5.855
 9563POPC   GL151589  11.290   1.200   6.155
 9563POPC   GL251590  11.205   1.140   6.155
 9563POPC   C1A51591  11.299   1.232   6.455
 9563POPC   D2A51592  11.337   1.244   6.755
 9563POPC   C3A51593  11.349   1.243   7.055
 9563POPC   C4A51594  11.315   1.188   7.355
 9563POPC   C1B51595  11.178   0.972   6.455
 9563POPC   C2B51596  11.156   1.009   6.755
 9563POPC   C3B51597  11.185   1.033   7.055
 9563POPC   C4B51598  11.223   0.956   7.355
 9564POPC   NC351599  26.799  44.639   5.555
 9564POPC   PO451600  26.800  44.688   5.855
 9564POPC   GL151601  26.774  44.700   6.155
 9564POPC   GL251602  26.684  44.703   6.155
 9564POPC   C1A51603  26.850  44.694   6.455
 9564POPC   D2A51604  26.779  44.676   6.755
 9564POPC   C3A51605  26.790  44.639   7.055
 9564POPC   C4A51606  26.810  44.698   7.355
 9564POPC   C1B51607  26.608  44.756   6.455
 9564POPC   C2B51608  26.630  44.752   6.755
 9564POPC   C3B51609  26.617  44.792   7.055
 9564POPC   C4B51610  26.589  44.771   7.355
 9565POPC   NC351611  41.538  43.065   5.555
 9565POPC   PO451612  41.582  43.154   5.855
 9565POPC   GL151613  41.597  43.156   6.155
 9565POPC   GL251614  41.655  43.043   6.155
 9565POPC   C1A51615  41.584  43.098   6.455
 9565POPC   D2A51616  41.573  43.088   6.755
 9565POPC   C3A51617  41.544  43.088   7.055
 9565POPC   C4A51618  41.597  43.082   7.355
 9565POPC   C1B51619  41.735  42.936   6.455
 9565POPC   C2B51620  41.703  42.885   6.755
 9565POPC   C3B51621  41.718  42.890   7.055
 9565POPC   C4B51622  41.744  42.913   7.355
 9566POPC   NC351623  34.607  19.809   5.555
 9566POPC   PO451624  34.578  19.879   5.855
 9566POPC   GL151625  34.573  19.824   6.155
 9566POPC   GL251626  34.726  19.833   6.155
 9566POPC   C1A51627  34.540  19.857   6.455
 9566POPC   D2A51628  34.578  19.813   6.755
 9566POPC   C3A51629  34.586  19.851   7.055
 9566POPC   C4A51630  34.618  19.843   7.355
 9566POPC   C1B51631  34.831  19.794   6.455
 9566POPC   C2B51632  34.787  19.800   6.755
 9566POPC   C3B51633  34.863  19.741   7.055
 9566POPC   C4B51634  34.785  19.781   7.355
 9567POPC   NC351635  44.612  35.304   5.555
 9567POPC   PO451636  44.690  35.384   5.855
 9567POPC   GL151637  44.691  35.356   6.155
 9567POPC   GL251638  44.519  35.246   6.155
 9567POPC   C1A51639  44.652  35.393   6.455
 9567POPC   D2A51640  44.688  35.380   6.755
 9567POPC   C3A51641  44.634  35.355   7.055
 9567POPC   C4A51642  44.618  35.377   7.355
 9567POPC   C1B51643  44.429  35.236   6.455
 9567POPC   C2B51644  44.458  35.242   6.755
 9567POPC   C3B51645  44.501  35.220   7.055
 9567POPC   C4B51646  44.481  35.219   7.355
 9568POPC   NC351647   0.474  20.578   5.555
 9568POPC   PO451648   0.428  20.597   5.855
 9568POPC   GL151649   0.458  20.627   6.155
 9568POPC   GL251650   0.344  20.557   6.155
 9568POPC   C1A51651   0.482  20.659   6.455
 9568POPC   D2A51652   0.486  20.637   6.755
 9568POPC   C3A51653   0.488  20.619   7.055
 9568POPC   C4A51654   0.429  20.561   7.355
 9568POPC   C1B51655   0.276  20.488   6.455
 9568POPC   C2B51656   0.268  20.490   6.755
 9568POPC   C3B51657   0.286  20.485   7.055
 9568POPC   C4B51658   0.224  20.465   7.355
 9569POPC   NC351659  20.643   3.588   5.555
 9569POPC   PO451660  20.607   3.521   5.855
 9569POPC   GL151661  20.612   3.582   6.155
 9569POPC   GL251662  20.770   3.622   6.155
 9569POPC   C1A51663  20.563   3.557   6.455
 9569POPC   D2A51664  20.576   3.577   6.755
 9569POPC   C3A51665  20.573   3.520   7.055
 9569POPC   C4A51666  20.605   3.494   7.355
 9569POPC   C1B51667  20.834   3.632   6.455
 9569POPC   C2B51668  20.827   3.572   6.755
 9569POPC   C3B51669  20.885   3.608   7.055
 9569POPC   C4B51670  20.814   3.638   7.355
 9570POPC   NC351671  17.504  34.561   5.555
 9570POPC   PO451672  17.496  34.570   5.855
 9570POPC   GL151673  17.504  34.574   6.155
 9570POPC   GL251674  17.473  34.719   6.155
 9570POPC   C1A51675  17.502  34.547   6.455
 9570POPC   D2A51676  17.498  34.608   6.755
 9570POPC   C3A51677  17.516  34.606   7.055
 9570POPC   C4A51678  17.539  34.604   7.355
 9570POPC   C1B51679  17.464  34.825   6.455
 9570POPC   C2B51680  17.471  34.805   6.755
 9570POPC   C3B51681  17.454  34.839   7.055
 9570POPC   C4B51682  17.528  34.843   7.355
 9571POPC   NC351683  12.079  33.834   5.555
 9571POPC   PO451684  12.060  33.823   5.855
 9571POPC   GL151685  12.056  33.796   6.155
 9571POPC   GL251686  12.147  33.846   6.155
 9571POPC   C1A51687  12.074  33.849   6.455
 9571POPC   D2A51688  12.081  33.797   6.755
 9571POPC   C3A51689  12.122  33.808   7.055
 9571POPC   C4A51690  12.042  33.840   7.355
 9571POPC   C1B51691  12.270  33.866   6.455
 9571POPC   C2B51692  12.302  33.864   6.755
 9571POPC   C3B51693  12.323  33.883   7.055
 9571POPC   C4B51694  12.328  33.879   7.355
 9572POPC   NC351695   5.906  12.865   5.555
 9572POPC   PO451696   5.888  12.893   5.855
 9572POPC   GL151697   5.819  12.812   6.155
 9572POPC   GL251698   5.910  12.976   6.155
 9572POPC   C1A51699   5.894  12.882   6.455
 9572POPC   D2A51700   5.841  12.870   6.755
 9572POPC   C3A51701   5.844  12.840   7.055
 9572POPC   C4A51702   5.834  12.804   7.355
 9572POPC   C1B51703   5.893  13.083   6.455
 9572POPC   C2B51704   5.819  13.149   6.755
 9572POPC   C3B51705   5.909  13.141   7.055
 9572POPC   C4B51706   5.903  13.083   7.355
 9573POPC   NC351707  32.226   0.407   5.555
 9573POPC   PO451708  32.280   0.407   5.855
 9573POPC   GL151709  32.233   0.471   6.155
 9573POPC   GL251710  32.283   0.295   6.155
 9573POPC   C1A51711  32.277   0.405   6.455
 9573POPC   D2A51712  32.287   0.388   6.755
 9573POPC   C3A51713  32.204   0.458   7.055
 9573POPC   C4A51714  32.216   0.394   7.355
 9573POPC   C1B51715  32.333   0.237   6.455
 9573POPC   C2B51716  32.338   0.219   6.755
 9573POPC   C3B51717  32.354   0.211   7.055
 9573POPC   C4B51718  32.272   0.193   7.355
 9574POPC   NC351719  38.504  21.433   5.555
 9574POPC   PO451720  38.444  21.406   5.855
 9574POPC   GL151721  38.454  21.426   6.155
 9574POPC   GL251722  38.517  21.338   6.155
 9574POPC   C1A51723  38.475  21.348   6.455
 9574POPC   D2A51724  38.429  21.425   6.755
 9574POPC   C3A51725  38.467  21.398   7.055
 9574POPC   C4A51726  38.418  21.339   7.355
 9574POPC   C1B51727  38.622  21.236   6.455
 9574POPC   C2B51728  38.716  21.246   6.755
 9574POPC   C3B51729  38.706  21.247   7.055
 9574POPC   C4B51730  38.626  21.283   7.355
 9575POPC   NC351731  32.293  29.178   5.555
 9575POPC   PO451732  32.287  29.111   5.855
 9575POPC   GL151733  32.278  29.123   6.155
 9575POPC   GL251734  32.188  29.075   6.155
 9575POPC   C1A51735  32.295  29.148   6.455
 9575POPC   D2A51736  32.243  29.172   6.755
 9575POPC   C3A51737  32.240  29.143   7.055
 9575POPC   C4A51738  32.266  29.105   7.355
 9575POPC   C1B51739  32.008  28.974   6.455
 9575POPC   C2B51740  32.061  28.985   6.755
 9575POPC   C3B51741  32.030  28.972   7.055
 9575POPC   C4B51742  32.031  29.025   7.355
 9576POPC   NC351743  11.280  38.460   5.555
 9576POPC   PO451744  11.275  38.434   5.855
 9576POPC   GL151745  11.319  38.440   6.155
 9576POPC   GL251746  11.251  38.617   6.155
 9576POPC   C1A51747  11.330  38.481   6.455
 9576POPC   D2A51748  11.292  38.440   6.755
 9576POPC   C3A51749  11.278  38.410   7.055
 9576POPC   C4A51750  11.332  38.469   7.355
 9576POPC   C1B51751  11.184  38.677   6.455
 9576POPC   C2B51752  11.172  38.694   6.755
 9576POPC   C3B51753  11.260  38.667   7.055
 9576POPC   C4B51754  11.184  38.719   7.355
 9577POPC   NC351755  29.151  32.217   5.555
 9577POPC   PO451756  29.140  32.208   5.855
 9577POPC   GL151757  29.155  32.223   6.155
 9577POPC   GL251758  29.246  32.328   6.155
 9577POPC   C1A51759  29.162  32.280   6.455
 9577POPC   D2A51760  29.159  32.201   6.755
 9577POPC   C3A51761  29.099  32.241   7.055
 9577POPC   C4A51762  29.160  32.283   7.355
 9577POPC   C1B51763  29.347  32.411   6.455
 9577POPC   C2B51764  29.395  32.399   6.755
 9577POPC   C3B51765  29.402  32.403   7.055
 9577POPC   C4B51766  29.397  32.347   7.355
 9578POPC   NC351767  41.518  39.245   5.555
 9578POPC   PO451768  41.534  39.212   5.855
 9578POPC   GL151769  41.526  39.245   6.155
 9578POPC   GL251770  41.669  39.140   6.155
 9578POPC   C1A51771  41.573  39.221   6.455
 9578POPC   D2A51772  41.558  39.236   6.755
 9578POPC   C3A51773  41.556  39.238   7.055
 9578POPC   C4A51774  41.525  39.184   7.355
 9578POPC   C1B51775  41.721  39.067   6.455
 9578POPC   C2B51776  41.734  39.064   6.755
 9578POPC   C3B51777  41.697  39.065   7.055
 9578POPC   C4B51778  41.685  39.044   7.355
 9579POPC   NC351779  41.560  32.287   5.555
 9579POPC   PO451780  41.591  32.267   5.855
 9579POPC   GL151781  41.585  32.286   6.155
 9579POPC   GL251782  41.526  32.140   6.155
 9579POPC   C1A51783  41.605  32.208   6.455
 9579POPC   D2A51784  41.574  32.269   6.755
 9579POPC   C3A51785  41.591  32.296   7.055
 9579POPC   C4A51786  41.523  32.201   7.355
 9579POPC   C1B51787  41.415  32.037   6.455
 9579POPC   C2B51788  41.399  32.046   6.755
 9579POPC   C3B51789  41.400  32.084   7.055
 9579POPC   C4B51790  41.400  31.998   7.355
 9580POPC   NC351791   8.961   5.877   5.555
 9580POPC   PO451792   8.975   5.847   5.855
 9580POPC   GL151793   8.943   5.888   6.155
 9580POPC   GL251794   9.022   6.020   6.155
 9580POPC   C1A51795   8.986   5.888   6.455
 9580POPC   D2A51796   8.944   5.848   6.755
 9580POPC   C3A51797   8.963   5.888   7.055
 9580POPC   C4A51798   8.983   5.832   7.355
 9580POPC   C1B51799   9.041   6.109   6.455
 9580POPC   C2B51800   9.022   6.163   6.755
 9580POPC   C3B51801   9.064   6.121   7.055
 9580POPC   C4B51802   9.023   6.114   7.355
 9581POPC   NC351803  21.342  27.582   5.555
 9581POPC   PO451804  21.422  27.592   5.855
 9581POPC   GL151805  21.358  27.573   6.155
 9581POPC   GL251806  21.485  27.622   6.155
 9581POPC   C1A51807  21.374  27.566   6.455
 9581POPC   D2A51808  21.355  27.585   6.755
 9581POPC   C3A51809  21.389  27.599   7.055
 9581POPC   C4A51810  21.364  27.616   7.355
 9581POPC   C1B51811  21.612  27.622   6.455
 9581POPC   C2B51812  21.625  27.631   6.755
 9581POPC   C3B51813  21.655  27.550   7.055
 9581POPC   C4B51814  21.665  27.637   7.355
 9582POPC   NC351815  35.362  26.864   5.555
 9582POPC   PO451816  35.310  26.838   5.855
 9582POPC   GL151817  35.327  26.821   6.155
 9582POPC   GL251818  35.203  26.765   6.155
 9582POPC   C1A51819  35.303  26.836   6.455
 9582POPC   D2A51820  35.334  26.820   6.755
 9582POPC   C3A51821  35.373  26.858   7.055
 9582POPC   C4A51822  35.317  26.814   7.355
 9582POPC   C1B51823  35.087  26.716   6.455
 9582POPC   C2B51824  35.142  26.716   6.755
 9582POPC   C3B51825  35.156  26.740   7.055
 9582POPC   C4B51826  35.078  26.705   7.355
 9583POPC   NC351827  24.472  22.969   5.555
 9583POPC   PO451828  24.459  22.893   5.855
 9583POPC   GL151829  24.444  22.974   6.155
 9583POPC   GL251830  24.535  22.798   6.155
 9583POPC   C1A51831  24.450  22.969   6.455
 9583POPC   D2A51832  24.445  22.962   6.755
 9583POPC   C3A51833  24.513  22.888   7.055
 9583POPC   C4A51834  24.485  22.974   7.355
 9583POPC   C1B51835  24.549  22.719   6.455
 9583POPC   C2B51836  24.592  22.740   6.755
 9583POPC   C3B51837  24.538  22.699   7.055
 9583POPC   C4B51838  24.604  22.666   7.355
 9584POPC   NC351839  31.437  18.251   5.555
 9584POPC   PO451840  31.496  18.286   5.855
 9584POPC   GL151841  31.480  18.259   6.155
 9584POPC   GL251842  31.528  18.135   6.155
 9584POPC   C1A51843  31.522  18.249   6.455
 9584POPC   D2A51844  31.448  18.240   6.755
 9584POPC   C3A51845  31.453  18.254   7.055
 9584POPC   C4A51846  31.443  18.238   7.355
 9584POPC   C1B51847  31.553  18.016   6.455
 9584POPC   C2B51848  31.614  18.080   6.755
 9584POPC   C3B51849  31.605  18.060   7.055
 9584POPC   C4B51850  31.538  18.047   7.355
 9585POPC   NC351851  13.652  43.102   5.555
 9585POPC   PO451852  13.628  43.119   5.855
 9585POPC   GL151853  13.616  43.090   6.155
 9585POPC   GL251854  13.486  43.000   6.155
 9585POPC   C1A51855  13.620  43.145   6.455
 9585POPC   D2A51856  13.604  43.116   6.755
 9585POPC   C3A51857  13.620  43.115   7.055
 9585POPC   C4A51858  13.629  43.141   7.355
 9585POPC   C1B51859  13.404  42.987   6.455
 9585POPC   C2B51860  13.371  42.983   6.755
 9585POPC   C3B51861  13.455  43.018   7.055
 9585POPC   C4B51862  13.444  42.989   7.355
 9586POPC   NC351863   2.019  21.398   5.555
 9586POPC   PO451864   2.018  21.377   5.855
 9586POPC   GL151865   1.949  21.423   6.155
 9586POPC   GL251866   2.115  21.427   6.155
 9586POPC   C1A51867   1.991  21.427   6.455
 9586POPC   D2A51868   1.989  21.342   6.755
 9586POPC   C3A51869   1.998  21.361   7.055
 9586POPC   C4A51870   1.969  21.374   7.355
 9586POPC   C1B51871   2.268  21.397   6.455
 9586POPC   C2B51872   2.243  21.411   6.755
 9586POPC   C3B51873   2.202  21.389   7.055
 9586POPC   C4B51874   2.204  21.376   7.355
 9587POPC   NC351875  44.634  33.792   5.555
 9587POPC   PO451876  44.620  33.810   5.855
 9587POPC   GL151877  44.637  33.792   6.155
 9587POPC   GL251878  44.825  33.792   6.155
 9587POPC   C1A51879  44.700  33.838   6.455
 9587POPC   D2A51880  44.695  33.844   6.755
 9587POPC   C3A51881  44.636  33.848   7.055
 9587POPC   C4A51882  44.618  33.783   7.355
 9587POPC   C1B51883  44.883  33.758   6.455
 9587POPC   C2B51884  44.947  33.761   6.755
 9587POPC   C3B51885  44.941  33.710   7.055
 9587POPC   C4B51886  44.891  33.742   7.355
 9588POPC   NC351887  43.089   9.700   5.555
 9588POPC   PO451888  43.132   9.749   5.855
 9588POPC   GL151889  43.091   9.764   6.155
 9588POPC   GL251890  43.000   9.649   6.155
 9588POPC   C1A51891  43.090   9.751   6.455
 9588POPC   D2A51892  43.090   9.727   6.755
 9588POPC   C3A51893  43.083   9.767   7.055
 9588POPC   C4A51894  43.089   9.783   7.355
 9588POPC   C1B51895  42.900   9.573   6.455
 9588POPC   C2B51896  42.926   9.565   6.755
 9588POPC   C3B51897  42.939   9.590   7.055
 9588POPC   C4B51898  42.894   9.616   7.355
 9589POPC   NC351899  25.265  19.082   5.555
 9589POPC   PO451900  25.283  19.052   5.855
 9589POPC   GL151901  25.248  19.036   6.155
 9589POPC   GL251902  25.273  19.175   6.155
 9589POPC   C1A51903  25.254  19.068   6.455
 9589POPC   D2A51904  25.312  19.017   6.755
 9589POPC   C3A51905  25.237  19.040   7.055
 9589POPC   C4A51906  25.297  19.071   7.355
 9589POPC   C1B51907  25.313  19.338   6.455
 9589POPC   C2B51908  25.323  19.291   6.755
 9589POPC   C3B51909  25.295  19.282   7.055
 9589POPC   C4B51910  25.282  19.297   7.355
 9590POPC   NC351911   8.946  11.319   5.555
 9590POPC   PO451912   8.959  11.294   5.855
 9590POPC   GL151913   9.009  11.273   6.155
 9590POPC   GL251914   8.871  11.185   6.155
 9590POPC   C1A51915   9.015  11.335   6.455
 9590POPC   D2A51916   8.942  11.317   6.755
 9590POPC   C3A51917   8.971  11.348   7.055
 9590POPC   C4A51918   9.009  11.314   7.355
 9590POPC   C1B51919   8.775  11.076   6.455
 9590POPC   C2B51920   8.786  11.119   6.755
 9590POPC   C3B51921   8.785  11.114   7.055
 9590POPC   C4B51922   8.778  11.147   7.355
 9591POPC   NC351923  19.879   4.268   5.555
 9591POPC   PO451924  19.825   4.353   5.855
 9591POPC   GL151925  19.849   4.352   6.155
 9591POPC   GL251926  19.751   4.399   6.155
 9591POPC   C1A51927  19.787   4.297   6.455
 9591POPC   D2A51928  19.854   4.358   6.755
 9591POPC   C3A51929  19.818   4.315   7.055
 9591POPC   C4A51930  19.845   4.327   7.355
 9591POPC   C1B51931  19.626   4.505   6.455
 9591POPC   C2B51932  19.667   4.488   6.755
 9591POPC   C3B51933  19.651   4.422   7.055
 9591POPC   C4B51934  19.610   4.471   7.355
 9592POPC   NC351935  33.834  27.589   5.555
 9592POPC   PO451936  33.841  27.600   5.855
 9592POPC   GL151937  33.751  27.618   6.155
 9592POPC   GL251938  33.687  27.494   6.155
 9592POPC   C1A51939  33.799  27.634   6.455
 9592POPC   D2A51940  33.821  27.598   6.755
 9592POPC   C3A51941  33.780  27.592   7.055
 9592POPC   C4A51942  33.774  27.601   7.355
 9592POPC   C1B51943  33.619  27.433   6.455
 9592POPC   C2B51944  33.609  27.502   6.755
 9592POPC   C3B51945  33.606  27.467   7.055
 9592POPC   C4B51946  33.570  27.453   7.355
 9593POPC   NC351947   0.452  44.641   5.555
 9593POPC   PO451948   0.480  44.697   5.855
 9593POPC   GL151949   0.413  44.701   6.155
 9593POPC   GL251950   0.348  44.760   6.155
 9593POPC   C1A51951   0.483  44.633   6.455
 9593POPC   D2A51952   0.388  44.651   6.755
 9593POPC   C3A51953   0.414  44.629   7.055
 9593POPC   C4A51954   0.460  44.648   7.355
 9593POPC   C1B51955   0.271  44.805   6.455
 9593POPC   C2B51956   0.203  44.790   6.755
 9593POPC   C3B51957   0.215  44.754   7.055
 9593POPC   C4B51958   0.267  44.840   7.355
 9594POPC   NC351959   7.414   2.030   5.555
 9594POPC   PO451960   7.373   2.020   5.855
 9594POPC   GL151961   7.389   1.986   6.155
 9594POPC   GL251962   7.474   1.842   6.155
 9594POPC   C1A51963   7.406   2.008   6.455
 9594POPC   D2A51964   7.470   1.996   6.755
 9594POPC   C3A51965   7.399   1.954   7.055
 9594POPC   C4A51966   7.395   2.032   7.355
 9594POPC   C1B51967   7.497   1.747   6.455
 9594POPC   C2B51968   7.477   1.735   6.755
 9594POPC   C3B51969   7.511   1.740   7.055
 9594POPC   C4B51970   7.543   1.726   7.355
 9595POPC   NC351971   2.774  29.130   5.555
 9595POPC   PO451972   2.768  29.138   5.855
 9595POPC   GL151973   2.796  29.122   6.155
 9595POPC   GL251974   2.899  29.165   6.155
 9595POPC   C1A51975   2.787  29.190   6.455
 9595POPC   D2A51976   2.780  29.172   6.755
 9595POPC   C3A51977   2.801  29.162   7.055
 9595POPC   C4A51978   2.743  29.195   7.355
 9595POPC   C1B51979   3.035  29.091   6.455
 9595POPC   C2B51980   2.962  29.115   6.755
 9595POPC   C3B51981   2.977  29.091   7.055
 9595POPC   C4B51982   3.027  29.072   7.355
 9596POPC   NC351983  15.169  24.513   5.555
 9596POPC   PO451984  15.218  24.533   5.855
 9596POPC   GL151985  15.141  24.490   6.155
 9596POPC   GL251986  15.297  24.571   6.155
 9596POPC   C1A51987  15.206  24.458   6.455
 9596POPC   D2A51988  15.140  24.492   6.755
 9596POPC   C3A51989  15.148  24.514   7.055
 9596POPC   C4A51990  15.186  24.532   7.355
 9596POPC   C1B51991  15.378  24.684   6.455
 9596POPC   C2B51992  15.394  24.655   6.755
 9596POPC   C3B51993  15.315  24.637   7.055
 9596POPC   C4B51994  15.336  24.649   7.355
 9597POPC   NC351995  14.356  17.536   5.555
 9597POPC   PO451996  14.433  17.533   5.855
 9597POPC   GL151997  14.425  17.524   6.155
 9597POPC   GL251998  14.394  17.625   6.155
 9597POPC   C1A51999  14.410  17.493   6.455
 9597POPC   D2A52000  14.406  17.542   6.755
 9597POPC   C3A52001  14.445  17.476   7.055
 9597POPC   C4A52002  14.436  17.527   7.355
 9597POPC   C1B52003  14.466  17.717   6.455
 9597POPC   C2B52004  14.481  17.731   6.755
 9597POPC   C3B52005  14.437  17.798   7.055
 9597POPC   C4B52006  14.423  17.727   7.355
 9598POPC   NC352007  43.841  27.579   5.555
 9598POPC   PO452008  43.859  27.605   5.855
 9598POPC   GL152009  43.854  27.612   6.155
 9598POPC   GL252010  44.016  27.474   6.155
 9598POPC   C1A52011  43.845  27.557   6.455
 9598POPC   D2A52012  43.844  27.642   6.755
 9598POPC   C3A52013  43.873  27.616   7.055
 9598POPC   C4A52014  43.886  27.610   7.355
 9598POPC   C1B52015  44.070  27.492   6.455
 9598POPC   C2B52016  44.141  27.438   6.755
 9598POPC   C3B52017  44.121  27.481   7.055
 9598POPC   C4B52018  44.104  27.452   7.355
 9599POPC   NC352019  37.668   7.449   5.555
 9599POPC   PO452020  37.671   7.385   5.855
 9599POPC   GL152021  37.639   7.406   6.155
 9599POPC   GL252022  37.719   7.559   6.155
 9599POPC   C1A52023  37.634   7.433   6.455
 9599POPC   D2A52024  37.693   7.428   6.755
 9599POPC   C3A52025  37.669   7.436   7.055
 9599POPC   C4A52026  37.651   7.451   7.355
 9599POPC   C1B52027  37.818   7.597   6.455
 9599POPC   C2B52028  37.813   7.567   6.755
 9599POPC   C3B52029  37.811   7.615   7.055
 9599POPC   C4B52030  37.855   7.564   7.355
 9600POPC   NC352031   8.186  24.506   5.555
 9600POPC   PO452032   8.220  24.532   5.855
 9600POPC   GL152033   8.148  24.463   6.155
 9600POPC   GL252034   8.108  24.485   6.155
 9600POPC   C1A52035   8.232  24.521   6.455
 9600POPC   D2A52036   8.164  24.493   6.755
 9600POPC   C3A52037   8.186  24.479   7.055
 9600POPC   C4A52038   8.201  24.538   7.355
 9600POPC   C1B52039   7.922  24.548   6.455
 9600POPC   C2B52040   7.962  24.560   6.755
 9600POPC   C3B52041   7.919  24.497   7.055
 9600POPC   C4B52042   7.915  24.506   7.355
 9601POPC   NC352043  22.198   1.216   5.555
 9601POPC   PO452044  22.196   1.246   5.855
 9601POPC   GL152045  22.121   1.231   6.155
 9601POPC   GL252046  21.996   1.154   6.155
 9601POPC   C1A52047  22.211   1.219   6.455
 9601POPC   D2A52048  22.163   1.175   6.755
 9601POPC   C3A52049  22.202   1.238   7.055
 9601POPC   C4A52050  22.183   1.248   7.355
 9601POPC   C1B52051  21.889   1.188   6.455
 9601POPC   C2B52052  21.917   1.192   6.755
 9601POPC   C3B52053  21.917   1.240   7.055
 9601POPC   C4B52054  21.884   1.195   7.355
 9602POPC   NC352055   8.197  44.682   5.555
 9602POPC   PO452056   8.231  44.700   5.855
 9602POPC   GL152057   8.210  44.678   6.155
 9602POPC   GL252058   8.283  44.523   6.155
 9602POPC   C1A52059   8.147  44.660   6.455
 9602POPC   D2A52060   8.245  44.624   6.755
 9602POPC   C3A52061   8.180  44.686   7.055
 9602POPC   C4A52062   8.237  44.708   7.355
 9602POPC   C1B52063   8.345  44.409   6.455
 9602POPC   C2B52064   8.304  44.440   6.755
 9602POPC   C3B52065   8.325  44.445   7.055
 9602POPC   C4B52066   8.358  44.480   7.355
 9603POPC   NC352067   5.141  19.816   5.555
 9603POPC   PO452068   5.123  19.850   5.855
 9603POPC   GL152069   5.130  19.840   6.155
 9603POPC   GL252070   5.056  19.903   6.155
 9603POPC   C1A52071   5.118  19.857   6.455
 9603POPC   D2A52072   5.093  19.864   6.755
 9603POPC   C3A52073   5.088  19.807   7.055
 9603POPC   C4A52074   5.064  19.860   7.355
 9603POPC   C1B52075   4.972  20.077   6.455
 9603POPC   C2B52076   4.999  20.074   6.755
 9603POPC   C3B52077   4.912  20.036   7.055
 9603POPC   C4B52078   4.977  20.047   7.355
 9604POPC   NC352079   7.381  27.636   5.555
 9604POPC   PO452080   7.382  27.633   5.855
 9604POPC   GL152081   7.457  27.549   6.155
 9604POPC   GL252082   7.298  27.605   6.155
 9604POPC   C1A52083   7.395  27.592   6.455
 9604POPC   D2A52084   7.414  27.592   6.755
 9604POPC   C3A52085   7.401  27.642   7.055
 9604POPC   C4A52086   7.470  27.561   7.355
 9604POPC   C1B52087   7.208  27.650   6.455
 9604POPC   C2B52088   7.129  27.654   6.755
 9604POPC   C3B52089   7.135  27.619   7.055
 9604POPC   C4B52090   7.148  27.674   7.355
 9605POPC   NC352091  22.198  33.824   5.555
 9605POPC   PO452092  22.187  33.800   5.855
 9605POPC   GL152093  22.197  33.782   6.155
 9605POPC   GL252094  22.042  33.901   6.155
 9605POPC   C1A52095  22.144  33.757   6.455
 9605POPC   D2A52096  22.167  33.794   6.755
 9605POPC   C3A52097  22.207  33.756   7.055
 9605POPC   C4A52098  22.210  33.796   7.355
 9605POPC   C1B52099  22.020  33.948   6.455
 9605POPC   C2B52100  21.992  33.964   6.755
 9605POPC   C3B52101  21.972  33.963   7.055
 9605POPC   C4B52102  22.025  34.000   7.355
 9606POPC   NC352103   1.205  21.350   5.555
 9606POPC   PO452104   1.165  21.424   5.855
 9606POPC   GL152105   1.245  21.398   6.155
 9606POPC   GL252106   1.368  21.455   6.155
 9606POPC   C1A52107   1.229  21.405   6.455
 9606POPC   D2A52108   1.192  21.417   6.755
 9606POPC   C3A52109   1.227  21.415   7.055
 9606POPC   C4A52110   1.249  21.359   7.355
 9606POPC   C1B52111   1.417  21.432   6.455
 9606POPC   C2B52112   1.492  21.429   6.755
 9606POPC   C3B52113   1.500  21.423   7.055
 9606POPC   C4B52114   1.485  21.432   7.355
 9607POPC   NC352115  29.939   8.935   5.555
 9607POPC   PO452116  29.951   9.012   5.855
 9607POPC   GL152117  29.907   9.007   6.155
 9607POPC   GL252118  30.042   9.073   6.155
 9607POPC   C1A52119  29.906   8.936   6.455
 9607POPC   D2A52120  29.943   9.013   6.755
 9607POPC   C3A52121  29.953   9.009   7.055
 9607POPC   C4A52122  29.900   9.004   7.355
 9607POPC   C1B52123  30.060   9.168   6.455
 9607POPC   C2B52124  30.047   9.155   6.755
 9607POPC   C3B52125  30.036   9.157   7.055
 9607POPC   C4B52126  30.099   9.212   7.355
 9608POPC   NC352127  24.440  12.831   5.555
 9608POPC   PO452128  24.476  12.818   5.855
 9608POPC   GL152129  24.475  12.900   6.155
 9608POPC   GL252130  24.534  13.009   6.155
 9608POPC   C1A52131  24.486  12.819   6.455
 9608POPC   D2A52132  24.460  12.821   6.755
 9608POPC   C3A52133  24.515  12.829   7.055
 9608POPC   C4A52134  24.515  12.887   7.355
 9608POPC   C1B52135  24.464  13.139   6.455
 9608POPC   C2B52136  24.511  13.124   6.755
 9608POPC   C3B52137  24.547  13.116   7.055
 9608POPC   C4B52138  24.495  13.097   7.355
 9609POPC   NC352139  31.425   5.058   5.555
 9609POPC   PO452140  31.440   5.092   5.855
 9609POPC   GL152141  31.479   5.086   6.155
 9609POPC   GL252142  31.395   4.941   6.155
 9609POPC   C1A52143  31.500   5.138   6.455
 9609POPC   D2A52144  31.505   5.122   6.755
 9609POPC   C3A52145  31.432   5.111   7.055
 9609POPC   C4A52146  31.515   5.122   7.355
 9609POPC   C1B52147  31.310   4.917   6.455
 9609POPC   C2B52148  31.307   4.895   6.755
 9609POPC   C3B52149  31.332   4.928   7.055
 9609POPC   C4B52150  31.383   4.843   7.355
 9610POPC   NC352151   3.518   5.102   5.555
 9610POPC   PO452152   3.527   5.112   5.855
 9610POPC   GL152153   3.532   5.078   6.155
 9610POPC   GL252154   3.693   5.128   6.155
 9610POPC   C1A52155   3.576   5.096   6.455
 9610POPC   D2A52156   3.571   5.122   6.755
 9610POPC   C3A52157   3.525   5.140   7.055
 9610POPC   C4A52158   3.508   5.052   7.355
 9610POPC   C1B52159   3.790   5.079   6.455
 9610POPC   C2B52160   3.841   5.060   6.755
 9610POPC   C3B52161   3.758   5.111   7.055
 9610POPC   C4B52162   3.790   5.087   7.355
 9611POPC   NC352163  41.600  25.280   5.555
 9611POPC   PO452164  41.573  25.291   5.855
 9611POPC   GL152165  41.572  25.299   6.155
 9611POPC   GL252166  41.650  25.274   6.155
 9611POPC   C1A52167  41.553  25.277   6.455
 9611POPC   D2A52168  41.580  25.279   6.755
 9611POPC   C3A52169  41.594  25.280   7.055
 9611POPC   C4A52170  41.511  25.315   7.355
 9611POPC   C1B52171  41.795  25.245   6.455
 9611POPC   C2B52172  41.821  25.304   6.755
 9611POPC   C3B52173  41.774  25.288   7.055
 9611POPC   C4B52174  41.763  25.234   7.355
 9612POPC   NC352175   8.957  19.865   5.555
 9612POPC   PO452176   8.962  19.793   5.855
 9612POPC   GL152177   9.008  19.825   6.155
 9612POPC   GL252178   9.137  19.834   6.155
 9612POPC   C1A52179   8.976  19.874   6.455
 9612POPC   D2A52180   8.949  19.811   6.755
 9612POPC   C3A52181   9.019  19.875   7.055
 9612POPC   C4A52182   9.011  19.841   7.355
 9612POPC   C1B52183   9.174  19.766   6.455
 9612POPC   C2B52184   9.239  19.798   6.755
 9612POPC   C3B52185   9.260  19.852   7.055
 9612POPC   C4B52186   9.266  19.783   7.355
 9613POPC   NC352187  43.063  31.462   5.555
 9613POPC   PO452188  43.111  31.427   5.855
 9613POPC   GL152189  43.068  31.493   6.155
 9613POPC   GL252190  42.957  31.529   6.155
 9613POPC   C1A52191  43.112  31.520   6.455
 9613POPC   D2A52192  43.061  31.446   6.755
 9613POPC   C3A52193  43.158  31.483   7.055
 9613POPC   C4A52194  43.110  31.490   7.355
 9613POPC   C1B52195  42.836  31.535   6.455
 9613POPC   C2B52196  42.863  31.547   6.755
 9613POPC   C3B52197  42.901  31.561   7.055
 9613POPC   C4B52198  42.883  31.578   7.355
 9614POPC   NC352199   0.470  17.541   5.555
 9614POPC   PO452200   0.446  17.478   5.855
 9614POPC   GL152201   0.426  17.497   6.155
 9614POPC   GL252202   0.538  17.494   6.155
 9614POPC   C1A52203   0.485  17.482   6.455
 9614POPC   D2A52204   0.469  17.468   6.755
 9614POPC   C3A52205   0.439  17.517   7.055
 9614POPC   C4A52206   0.480  17.491   7.355
 9614POPC   C1B52207   0.645  17.520   6.455
 9614POPC   C2B52208   0.673  17.556   6.755
 9614POPC   C3B52209   0.679  17.583   7.055
 9614POPC   C4B52210   0.661  17.534   7.355
 9615POPC   NC352211  20.652  42.328   5.555
 9615POPC   PO452212  20.604  42.328   5.855
 9615POPC   GL152213  20.631  42.311   6.155
 9615POPC   GL252214  20.499  42.318   6.155
 9615POPC   C1A52215  20.634  42.378   6.455
 9615POPC   D2A52216  20.595  42.370   6.755
 9615POPC   C3A52217  20.569  42.376   7.055
 9615POPC   C4A52218  20.657  42.377   7.355
 9615POPC   C1B52219  20.335  42.313   6.455
 9615POPC   C2B52220  20.417  42.290   6.755
 9615POPC   C3B52221  20.348  42.272   7.055
 9615POPC   C4B52222  20.362  42.242   7.355
 9616POPC   NC352223  21.355  38.412   5.555
 9616POPC   PO452224  21.358  38.440   5.855
 9616POPC   GL152225  21.347  38.411   6.155
 9616POPC   GL252226  21.272  38.399   6.155
 9616POPC   C1A52227  21.411  38.485   6.455
 9616POPC   D2A52228  21.402  38.505   6.755
 9616POPC   C3A52229  21.366  38.478   7.055
 9616POPC   C4A52230  21.353  38.461   7.355
 9616POPC   C1B52231  21.168  38.374   6.455
 9616POPC   C2B52232  21.103  38.368   6.755
 9616POPC   C3B52233  21.137  38.351   7.055
 9616POPC   C4B52234  21.176  38.388   7.355
 9617POPC   NC352235  15.986   3.537   5.555
 9617POPC   PO452236  15.957   3.590   5.855
 9617POPC   GL152237  16.000   3.511   6.155
 9617POPC   GL252238  15.885   3.405   6.155
 9617POPC   C1A52239  15.956   3.533   6.455
 9617POPC   D2A52240  15.939   3.541   6.755
 9617POPC   C3A52241  15.917   3.509   7.055
 9617POPC   C4A52242  15.995   3.578   7.355
 9617POPC   C1B52243  15.791   3.305   6.455
 9617POPC   C2B52244  15.768   3.391   6.755
 9617POPC   C3B52245  15.749   3.397   7.055
 9617POPC   C4B52246  15.752   3.395   7.355
 9618POPC   NC352247  12.035  36.149   5.555
 9618POPC   PO452248  12.055  36.119   5.855
 9618POPC   GL152249  12.076  36.086   6.155
 9618POPC   GL252250  12.229  36.107   6.155
 9618POPC   C1A52251  12.037  36.144   6.455
 9618POPC   D2A52252  12.061  36.171   6.755
 9618POPC   C3A52253  12.040  36.152   7.055
 9618POPC   C4A52254  12.062  36.158   7.355
 9618POPC   C1B52255  12.331  36.122   6.455
 9618POPC   C2B52256  12.356  36.074   6.755
 9618POPC   C3B52257  12.279  36.072   7.055
 9618POPC   C4B52258  12.353  36.083   7.355
 9619POPC   NC352259   1.947  26.820   5.555
 9619POPC   PO452260   1.989  26.853   5.855
 9619POPC   GL152261   1.968  26.799   6.155
 9619POPC   GL252262   1.887  26.837   6.155
 9619POPC   C1A52263   1.963  26.858   6.455
 9619POPC   D2A52264   2.039  26.799   6.755
 9619POPC   C3A52265   1.968  26.774   7.055
 9619POPC   C4A52266   1.972  26.850   7.355
 9619POPC   C1B52267   1.716  26.781   6.455
 9619POPC   C2B52268   1.734  26.761   6.755
 9619POPC   C3B52269   1.692  26.847   7.055
 9619POPC   C4B52270   1.693  26.851   7.355
 9620POPC   NC352271   9.702  29.147   5.555
 9620POPC   PO452272   9.726  29.145   5.855
 9620POPC   GL152273   9.724  29.158   6.155
 9620POPC   GL252274   9.827  29.027   6.155
 9620POPC   C1A52275   9.763  29.114   6.455
 9620POPC   D2A52276   9.742  29.130   6.755
 9620POPC   C3A52277   9.792  29.110   7.055
 9620POPC   C4A52278   9.783  29.132   7.355
 9620POPC   C1B52279   9.921  28.986   6.455
 9620POPC   C2B52280   9.871  28.903   6.755
 9620POPC   C3B52281   9.877  28.987   7.055
 9620POPC   C4B52282   9.940  28.976   7.355
 9621POPC   NC352283  33.777  20.593   5.555
 9621POPC   PO452284  33.791  20.639   5.855
 9621POPC   GL152285  33.763  20.581   6.155
 9621POPC   GL252286  33.739  20.526   6.155
 9621POPC   C1A52287  33.771  20.651   6.455
 9621POPC   D2A52288  33.847  20.644   6.755
 9621POPC   C3A52289  33.776  20.603   7.055
 9621POPC   C4A52290  33.799  20.581   7.355
 9621POPC   C1B52291  33.673  20.426   6.455
 9621POPC   C2B52292  33.655  20.409   6.755
 9621POPC   C3B52293  33.656  20.462   7.055
 9621POPC   C4B52294  33.649  20.455   7.355
 9622POPC   NC352295  22.194  33.044   5.555
 9622POPC   PO452296  22.159  33.016   5.855
 9622POPC   GL152297  22.167  33.014   6.155
 9622POPC   GL252298  22.117  33.114   6.155
 9622POPC   C1A52299  22.136  33.057   6.455
 9622POPC   D2A52300  22.162  33.072   6.755
 9622POPC   C3A52301  22.177  33.068   7.055
 9622POPC   C4A52302  22.137  33.062   7.355
 9622POPC   C1B52303  22.120  33.246   6.455
 9622POPC   C2B52304  22.154  33.229   6.755
 9622POPC   C3B52305  22.143  33.259   7.055
 9622POPC   C4B52306  22.124  33.247   7.355
 9623POPC   NC352307   8.992  35.363   5.555
 9623POPC   PO452308   8.983  35.372   5.855
 9623POPC   GL152309   8.979  35.390   6.155
 9623POPC   GL252310   9.088  35.293   6.155
 9623POPC   C1A52311   8.968  35.355   6.455
 9623POPC   D2A52312   8.966  35.314   6.755
 9623POPC   C3A52313   8.993  35.326   7.055
 9623POPC   C4A52314   9.006  35.359   7.355
 9623POPC   C1B52315   9.163  35.263   6.455
 9623POPC   C2B52316   9.213  35.252   6.755
 9623POPC   C3B52317   9.190  35.205   7.055
 9623POPC   C4B52318   9.193  35.199   7.355
 9624POPC   NC352319  34.528   4.307   5.555
 9624POPC   PO452320  34.624   4.335   5.855
 9624POPC   GL152321  34.550   4.319   6.155
 9624POPC   GL252322  34.432   4.264   6.155
 9624POPC   C1A52323  34.587   4.317   6.455
 9624POPC   D2A52324  34.531   4.350   6.755
 9624POPC   C3A52325  34.540   4.305   7.055
 9624POPC   C4A52326  34.602   4.346   7.355
 9624POPC   C1B52327  34.322   4.250   6.455
 9624POPC   C2B52328  34.321   4.245   6.755
 9624POPC   C3B52329  34.362   4.312   7.055
 9624POPC   C4B52330  34.367   4.318   7.355
 9625POPC   NC352331   5.856  36.927   5.555
 9625POPC   PO452332   5.889  36.859   5.855
 9625POPC   GL152333   5.840  36.916   6.155
 9625POPC   GL252334   5.742  36.900   6.155
 9625POPC   C1A52335   5.916  36.878   6.455
 9625POPC   D2A52336   5.904  36.902   6.755
 9625POPC   C3A52337   5.880  36.856   7.055
 9625POPC   C4A52338   5.836  36.928   7.355
 9625POPC   C1B52339   5.589  36.872   6.455
 9625POPC   C2B52340   5.652  36.860   6.755
 9625POPC   C3B52341   5.605  36.929   7.055
 9625POPC   C4B52342   5.611  36.892   7.355
 9626POPC   NC352343  25.263   3.577   5.555
 9626POPC   PO452344  25.307   3.535   5.855
 9626POPC   GL152345  25.259   3.587   6.155
 9626POPC   GL252346  25.326   3.426   6.155
 9626POPC   C1A52347  25.273   3.554   6.455
 9626POPC   D2A52348  25.221   3.562   6.755
 9626POPC   C3A52349  25.302   3.532   7.055
 9626POPC   C4A52350  25.253   3.590   7.355
 9626POPC   C1B52351  25.320   3.339   6.455
 9626POPC   C2B52352  25.285   3.322   6.755
 9626POPC   C3B52353  25.322   3.292   7.055
 9626POPC   C4B52354  25.332   3.282   7.355
 9627POPC   NC352355  29.161   5.883   5.555
 9627POPC   PO452356  29.125   5.873   5.855
 9627POPC   GL152357  29.119   5.892   6.155
 9627POPC   GL252358  29.117   6.042   6.155
 9627POPC   C1A52359  29.107   5.825   6.455
 9627POPC   D2A52360  29.170   5.822   6.755
 9627POPC   C3A52361  29.107   5.837   7.055
 9627POPC   C4A52362  29.125   5.836   7.355
 9627POPC   C1B52363  29.151   6.113   6.455
 9627POPC   C2B52364  29.144   6.114   6.755
 9627POPC   C3B52365  29.182   6.127   7.055
 9627POPC   C4B52366  29.093   6.096   7.355
 9628POPC   NC352367  15.171  36.868   5.555
 9628POPC   PO452368  15.155  36.873   5.855
 9628POPC   GL152369  15.138  36.883   6.155
 9628POPC   GL252370  15.160  37.003   6.155
 9628POPC   C1A52371  15.221  36.889   6.455
 9628POPC   D2A52372  15.194  36.939   6.755
 9628POPC   C3A52373  15.134  36.920   7.055
 9628POPC   C4A52374  15.162  36.951   7.355
 9628POPC   C1B52375  15.214  37.136   6.455
 9628POPC   C2B52376  15.191  37.160   6.755
 9628POPC   C3B52377  15.220  37.149   7.055
 9628POPC   C4B52378  15.246  37.110   7.355
 9629POPC   NC352379  11.338  26.064   5.555
 9629POPC   PO452380  11.304  26.061   5.855
 9629POPC   GL152381  11.286  26.082   6.155
 9629POPC   GL252382  11.266  26.146   6.155
 9629POPC   C1A52383  11.256  26.040   6.455
 9629POPC   D2A52384  11.272  26.035   6.755
 9629POPC   C3A52385  11.347  26.027   7.055
 9629POPC   C4A52386  11.345  26.030   7.355
 9629POPC   C1B52387  11.212  26.289   6.455
 9629POPC   C2B52388  11.157  26.256   6.755
 9629POPC   C3B52389  11.174  26.291   7.055
 9629POPC   C4B52390  11.130  26.303   7.355
 9630POPC   NC352391   8.946   4.365   5.555
 9630POPC   PO452392   8.957   4.334   5.855
 9630POPC   GL152393   8.944   4.314   6.155
 9630POPC   GL252394   9.014   4.409   6.155
 9630POPC   C1A52395   8.945   4.286   6.455
 9630POPC   D2A52396   8.929   4.294   6.755
 9630POPC   C3A52397   8.928   4.366   7.055
 9630POPC   C4A52398   8.965   4.347   7.355
 9630POPC   C1B52399   9.021   4.579   6.455
 9630POPC   C2B52400   9.026   4.579   6.755
 9630POPC   C3B52401   8.997   4.525   7.055
 9630POPC   C4B52402   9.072   4.565   7.355
 9631POPC   NC352403  12.884  38.483   5.555
 9631POPC   PO452404  12.881  38.490   5.855
 9631POPC   GL152405  12.846  38.466   6.155
 9631POPC   GL252406  12.815  38.345   6.155
 9631POPC   C1A52407  12.884  38.467   6.455
 9631POPC   D2A52408  12.839  38.478   6.755
 9631POPC   C3A52409  12.881  38.465   7.055
 9631POPC   C4A52410  12.880  38.444   7.355
 9631POPC   C1B52411  12.812  38.163   6.455
 9631POPC   C2B52412  12.800  38.167   6.755
 9631POPC   C3B52413  12.836  38.239   7.055
 9631POPC   C4B52414  12.870  38.173   7.355
 9632POPC   NC352415   9.723  18.242   5.555
 9632POPC   PO452416   9.722  18.309   5.855
 9632POPC   GL152417   9.754  18.249   6.155
 9632POPC   GL252418   9.876  18.179   6.155
 9632POPC   C1A52419   9.784  18.254   6.455
 9632POPC   D2A52420   9.792  18.262   6.755
 9632POPC   C3A52421   9.732  18.327   7.055
 9632POPC   C4A52422   9.733  18.298   7.355
 9632POPC   C1B52423   9.985  18.182   6.455
 9632POPC   C2B52424   9.973  18.164   6.755
 9632POPC   C3B52425   9.937  18.087   7.055
 9632POPC   C4B52426   9.931  18.186   7.355
 9633POPC   NC352427   5.068  14.429   5.555
 9633POPC   PO452428   5.079  14.390   5.855
 9633POPC   GL152429   5.135  14.405   6.155
 9633POPC   GL252430   5.155  14.329   6.155
 9633POPC   C1A52431   5.082  14.421   6.455
 9633POPC   D2A52432   5.080  14.446   6.755
 9633POPC   C3A52433   5.090  14.375   7.055
 9633POPC   C4A52434   5.052  14.429   7.355
 9633POPC   C1B52435   5.281  14.298   6.455
 9633POPC   C2B52436   5.279  14.278   6.755
 9633POPC   C3B52437   5.324  14.251   7.055
 9633POPC   C4B52438   5.342  14.271   7.355
 9634POPC   NC352439  29.165   3.500   5.555
 9634POPC   PO452440  29.182   3.555   5.855
 9634POPC   GL152441  29.143   3.590   6.155
 9634POPC   GL252442  29.063   3.457   6.155
 9634POPC   C1A52443  29.100   3.566   6.455
 9634POPC   D2A52444  29.152   3.526   6.755
 9634POPC   C3A52445  29.149   3.506   7.055
 9634POPC   C4A52446  29.126   3.512   7.355
 9634POPC   C1B52447  28.955   3.342   6.455
 9634POPC   C2B52448  28.984   3.334   6.755
 9634POPC   C3B52449  28.949   3.353   7.055
 9634POPC   C4B52450  28.973   3.367   7.355
 9635POPC   NC352451   7.427  20.627   5.555
 9635POPC   PO452452   7.463  20.635   5.855
 9635POPC   GL152453   7.386  20.621   6.155
 9635POPC   GL252454   7.427  20.696   6.155
 9635POPC   C1A52455   7.432  20.652   6.455
 9635POPC   D2A52456   7.459  20.564   6.755
 9635POPC   C3A52457   7.461  20.561   7.055
 9635POPC   C4A52458   7.433  20.573   7.355
 9635POPC   C1B52459   7.475  20.904   6.455
 9635POPC   C2B52460   7.474  20.902   6.755
 9635POPC   C3B52461   7.408  20.907   7.055
 9635POPC   C4B52462   7.467  20.892   7.355
 9636POPC   NC352463  40.032  15.202   5.555
 9636POPC   PO452464  40.009  15.131   5.855
 9636POPC   GL152465  40.012  15.225   6.155
 9636POPC   GL252466  39.949  15.255   6.155
 9636POPC   C1A52467  39.972  15.161   6.455
 9636POPC   D2A52468  39.964  15.228   6.755
 9636POPC   C3A52469  39.978  15.152   7.055
 9636POPC   C4A52470  40.002  15.135   7.355
 9636POPC   C1B52471  39.916  15.433   6.455
 9636POPC   C2B52472  39.863  15.398   6.755
 9636POPC   C3B52473  39.867  15.409   7.055
 9636POPC   C4B52474  39.942  15.381   7.355
 9637POPC   NC352475  15.149  23.731   5.555
 9637POPC   PO452476  15.137  23.704   5.855
 9637POPC   GL152477  15.155  23.757   6.155
 9637POPC   GL252478  15.055  23.843   6.155
 9637POPC   C1A52479  15.178  23.713   6.455
 9637POPC   D2A52480  15.130  23.709   6.755
 9637POPC   C3A52481  15.133  23.708   7.055
 9637POPC   C4A52482  15.214  23.751   7.355
 9637POPC   C1B52483  14.966  23.899   6.455
 9637POPC   C2B52484  14.976  23.871   6.755
 9637POPC   C3B52485  14.982  23.931   7.055
 9637POPC   C4B52486  15.006  23.884   7.355
 9638POPC   NC352487  33.046  19.883   5.555
 9638POPC   PO452488  33.000  19.846   5.855
 9638POPC   GL152489  33.035  19.860   6.155
 9638POPC   GL252490  32.940  19.819   6.155
 9638POPC   C1A52491  33.049  19.809   6.455
 9638POPC   D2A52492  33.013  19.797   6.755
 9638POPC   C3A52493  33.044  19.840   7.055
 9638POPC   C4A52494  33.041  19.797   7.355
 9638POPC   C1B52495  32.829  19.709   6.455
 9638POPC   C2B52496  32.804  19.690   6.755
 9638POPC   C3B52497  32.781  19.726   7.055
 9638POPC   C4B52498  32.837  19.694   7.355
 9639POPC   NC352499  37.727   8.175   5.555
 9639POPC   PO452500  37.636   8.184   5.855
 9639POPC   GL152501  37.655   8.162   6.155
 9639POPC   GL252502  37.540   8.150   6.155
 9639POPC   C1A52503  37.706   8.165   6.455
 9639POPC   D2A52504  37.653   8.226   6.755
 9639POPC   C3A52505  37.684   8.186   7.055
 9639POPC   C4A52506  37.722   8.194   7.355
 9639POPC   C1B52507  37.430   8.008   6.455
 9639POPC   C2B52508  37.517   8.088   6.755
 9639POPC   C3B52509  37.428   8.052   7.055
 9639POPC   C4B52510  37.501   8.069   7.355
 9640POPC   NC352511  36.098  26.082   5.555
 9640POPC   PO452512  36.175  26.031   5.855
 9640POPC   GL152513  36.101  25.995   6.155
 9640POPC   GL252514  36.080  26.166   6.155
 9640POPC   C1A52515  36.144  26.031   6.455
 9640POPC   D2A52516  36.081  26.084   6.755
 9640POPC   C3A52517  36.172  26.042   7.055
 9640POPC   C4A52518  36.086  26.079   7.355
 9640POPC   C1B52519  36.017  26.221   6.455
 9640POPC   C2B52520  35.990  26.226   6.755
 9640POPC   C3B52521  36.005  26.313   7.055
 9640POPC   C4B52522  36.020  26.285   7.355
 9641POPC   NC352523  22.174  36.884   5.555
 9641POPC   PO452524  22.142  36.895   5.855
 9641POPC   GL152525  22.165  36.907   6.155
 9641POPC   GL252526  22.193  36.976   6.155
 9641POPC   C1A52527  22.178  36.930   6.455
 9641POPC   D2A52528  22.200  36.876   6.755
 9641POPC   C3A52529  22.182  36.878   7.055
 9641POPC   C4A52530  22.137  36.941   7.355
 9641POPC   C1B52531  22.267  37.082   6.455
 9641POPC   C2B52532  22.229  37.126   6.755
 9641POPC   C3B52533  22.218  37.103   7.055
 9641POPC   C4B52534  22.255  37.091   7.355
 9642POPC   NC352535  27.586  31.517   5.555
 9642POPC   PO452536  27.588  31.490   5.855
 9642POPC   GL152537  27.614  31.442   6.155
 9642POPC   GL252538  27.533  31.348   6.155
 9642POPC   C1A52539  27.615  31.502   6.455
 9642POPC   D2A52540  27.624  31.503   6.755
 9642POPC   C3A52541  27.586  31.448   7.055
 9642POPC   C4A52542  27.620  31.428   7.355
 9642POPC   C1B52543  27.533  31.254   6.455
 9642POPC   C2B52544  27.552  31.259   6.755
 9642POPC   C3B52545  27.550  31.184   7.055
 9642POPC   C4B52546  27.578  31.271   7.355
 9643POPC   NC352547  20.566  28.416   5.555
 9643POPC   PO452548  20.618  28.417   5.855
 9643POPC   GL152549  20.637  28.348   6.155
 9643POPC   GL252550  20.763  28.265   6.155
 9643POPC   C1A52551  20.599  28.407   6.455
 9643POPC   D2A52552  20.606  28.376   6.755
 9643POPC   C3A52553  20.592  28.324   7.055
 9643POPC   C4A52554  20.657  28.377   7.355
 9643POPC   C1B52555  20.838  28.248   6.455
 9643POPC   C2B52556  20.878  28.236   6.755
 9643POPC   C3B52557  20.871  28.257   7.055
 9643POPC   C4B52558  20.822  28.231   7.355
 9644POPC   NC352559  15.137  33.036   5.555
 9644POPC   PO452560  15.142  32.976   5.855
 9644POPC   GL152561  15.187  32.985   6.155
 9644POPC   GL252562  15.251  33.160   6.155
 9644POPC   C1A52563  15.185  33.043   6.455
 9644POPC   D2A52564  15.216  32.975   6.755
 9644POPC   C3A52565  15.160  33.057   7.055
 9644POPC   C4A52566  15.217  33.036   7.355
 9644POPC   C1B52567  15.237  33.222   6.455
 9644POPC   C2B52568  15.256  33.226   6.755
 9644POPC   C3B52569  15.284  33.253   7.055
 9644POPC   C4B52570  15.258  33.269   7.355
 9645POPC   NC352571  29.920  29.944   5.555
 9645POPC   PO452572  29.883  29.899   5.855
 9645POPC   GL152573  29.950  29.930   6.155
 9645POPC   GL252574  30.034  30.049   6.155
 9645POPC   C1A52575  29.898  29.914   6.455
 9645POPC   D2A52576  29.912  29.877   6.755
 9645POPC   C3A52577  29.948  29.937   7.055
 9645POPC   C4A52578  29.896  29.963   7.355
 9645POPC   C1B52579  30.138  30.083   6.455
 9645POPC   C2B52580  30.151  30.129   6.755
 9645POPC   C3B52581  30.055  30.087   7.055
 9645POPC   C4B52582  30.116  30.132   7.355
 9646POPC   NC352583  38.412  26.817   5.555
 9646POPC   PO452584  38.409  26.797   5.855
 9646POPC   GL152585  38.496  26.773   6.155
 9646POPC   GL252586  38.484  26.674   6.155
 9646POPC   C1A52587  38.444  26.822   6.455
 9646POPC   D2A52588  38.417  26.838   6.755
 9646POPC   C3A52589  38.459  26.797   7.055
 9646POPC   C4A52590  38.481  26.804   7.355
 9646POPC   C1B52591  38.400  26.539   6.455
 9646POPC   C2B52592  38.426  26.548   6.755
 9646POPC   C3B52593  38.457  26.612   7.055
 9646POPC   C4B52594  38.480  26.616   7.355
 9647POPC   NC352595   7.408   4.289   5.555
 9647POPC   PO452596   7.372   4.276   5.855
 9647POPC   GL152597   7.372   4.340   6.155
 9647POPC   GL252598   7.342   4.376   6.155
 9647POPC   C1A52599   7.378   4.304   6.455
 9647POPC   D2A52600   7.466   4.329   6.755
 9647POPC   C3A52601   7.405   4.314   7.055
 9647POPC   C4A52602   7.467   4.339   7.355
 9647POPC   C1B52603   7.163   4.490   6.455
 9647POPC   C2B52604   7.169   4.457   6.755
 9647POPC   C3B52605   7.180   4.417   7.055
 9647POPC   C4B52606   7.239   4.403   7.355
 9648POPC   NC352607  12.066   9.791   5.555
 9648POPC   PO452608  12.053   9.703   5.855
 9648POPC   GL152609  12.108   9.734   6.155
 9648POPC   GL252610  12.108   9.891   6.155
 9648POPC   C1A52611  12.026   9.741   6.455
 9648POPC   D2A52612  12.093   9.700   6.755
 9648POPC   C3A52613  12.027   9.766   7.055
 9648POPC   C4A52614  12.092   9.764   7.355
 9648POPC   C1B52615  12.082   9.971   6.455
 9648POPC   C2B52616  12.027  10.003   6.755
 9648POPC   C3B52617  12.112   9.989   7.055
 9648POPC   C4B52618  12.034  10.006   7.355
 9649POPC   NC352619  43.068  35.316   5.555
 9649POPC   PO452620  43.139  35.379   5.855
 9649POPC   GL152621  43.149  35.352   6.155
 9649POPC   GL252622  43.107  35.190   6.155
 9649POPC   C1A52623  43.131  35.321   6.455
 9649POPC   D2A52624  43.068  35.333   6.755
 9649POPC   C3A52625  43.097  35.311   7.055
 9649POPC   C4A52626  43.067  35.396   7.355
 9649POPC   C1B52627  43.068  35.067   6.455
 9649POPC   C2B52628  43.088  35.129   6.755
 9649POPC   C3B52629  43.127  35.089   7.055
 9649POPC   C4B52630  43.073  35.118   7.355
 9650POPC   NC352631  31.434  25.994   5.555
 9650POPC   PO452632  31.426  26.031   5.855
 9650POPC   GL152633  31.425  26.010   6.155
 9650POPC   GL252634  31.472  26.154   6.155
 9650POPC   C1A52635  31.435  26.089   6.455
 9650POPC   D2A52636  31.436  25.999   6.755
 9650POPC   C3A52637  31.448  26.044   7.055
 9650POPC   C4A52638  31.504  25.994   7.355
 9650POPC   C1B52639  31.385  26.253   6.455
 9650POPC   C2B52640  31.388  26.328   6.755
 9650POPC   C3B52641  31.452  26.321   7.055
 9650POPC   C4B52642  31.450  26.289   7.355
 9651POPC   NC352643   7.443  16.768   5.555
 9651POPC   PO452644   7.433  16.730   5.855
 9651POPC   GL152645   7.467  16.721   6.155
 9651POPC   GL252646   7.554  16.771   6.155
 9651POPC   C1A52647   7.388  16.685   6.455
 9651POPC   D2A52648   7.440  16.762   6.755
 9651POPC   C3A52649   7.426  16.756   7.055
 9651POPC   C4A52650   7.449  16.721   7.355
 9651POPC   C1B52651   7.638  16.752   6.455
 9651POPC   C2B52652   7.628  16.726   6.755
 9651POPC   C3B52653   7.632  16.719   7.055
 9651POPC   C4B52654   7.673  16.743   7.355
 9652POPC   NC352655  26.004  15.997   5.555
 9652POPC   PO452656  26.060  15.966   5.855
 9652POPC   GL152657  26.082  15.955   6.155
 9652POPC   GL252658  26.115  15.873   6.155
 9652POPC   C1A52659  26.090  15.909   6.455
 9652POPC   D2A52660  25.993  15.907   6.755
 9652POPC   C3A52661  25.997  15.913   7.055
 9652POPC   C4A52662  26.031  15.939   7.355
 9652POPC   C1B52663  26.192  15.738   6.455
 9652POPC   C2B52664  26.155  15.709   6.755
 9652POPC   C3B52665  26.173  15.732   7.055
 9652POPC   C4B52666  26.183  15.711   7.355
 9653POPC   NC352667  43.104  22.163   5.555
 9653POPC   PO452668  43.158  22.204   5.855
 9653POPC   GL152669  43.088  22.200   6.155
 9653POPC   GL252670  43.064  22.072   6.155
 9653POPC   C1A52671  43.094  22.125   6.455
 9653POPC   D2A52672  43.074  22.204   6.755
 9653POPC   C3A52673  43.137  22.127   7.055
 9653POPC   C4A52674  43.102  22.202   7.355
 9653POPC   C1B52675  42.974  21.974   6.455
 9653POPC   C2B52676  43.028  21.931   6.755
 9653POPC   C3B52677  42.991  21.975   7.055
 9653POPC   C4B52678  42.982  21.975   7.355
 9654POPC   NC352679  33.793   5.843   5.555
 9654POPC   PO452680  33.793   5.853   5.855
 9654POPC   GL152681  33.848   5.904   6.155
 9654POPC   GL252682  33.686   5.823   6.155
 9654POPC   C1A52683  33.824   5.883   6.455
 9654POPC   D2A52684  33.803   5.828   6.755
 9654POPC   C3A52685  33.827   5.833   7.055
 9654POPC   C4A52686  33.812   5.874   7.355
 9654POPC   C1B52687  33.595   5.648   6.455
 9654POPC   C2B52688  33.595   5.645   6.755
 9654POPC   C3B52689  33.628   5.668   7.055
 9654POPC   C4B52690  33.645   5.690   7.355
 9655POPC   NC352691  23.680   4.302   5.555
 9655POPC   PO452692  23.675   4.294   5.855
 9655POPC   GL152693  23.742   4.329   6.155
 9655POPC   GL252694  23.611   4.250   6.155
 9655POPC   C1A52695  23.691   4.328   6.455
 9655POPC   D2A52696  23.745   4.289   6.755
 9655POPC   C3A52697  23.721   4.324   7.055
 9655POPC   C4A52698  23.730   4.351   7.355
 9655POPC   C1B52699  23.496   4.311   6.455
 9655POPC   C2B52700  23.480   4.228   6.755
 9655POPC   C3B52701  23.439   4.260   7.055
 9655POPC   C4B52702  23.431   4.232   7.355
 9656POPC   NC352703  33.044  21.378   5.555
 9656POPC   PO452704  32.976  21.397   5.855
 9656POPC   GL152705  33.054  21.363   6.155
 9656POPC   GL252706  33.137  21.504   6.155
 9656POPC   C1A52707  33.015  21.361   6.455
 9656POPC   D2A52708  33.042  21.385   6.755
 9656POPC   C3A52709  33.033  21.405   7.055
 9656POPC   C4A52710  33.039  21.369   7.355
 9656POPC   C1B52711  33.158  21.589   6.455
 9656POPC   C2B52712  33.207  21.601   6.755
 9656POPC   C3B52713  33.152  21.625   7.055
 9656POPC   C4B52714  33.203  21.590   7.355
 9657POPC   NC352715  40.761   8.196   5.555
 9657POPC   PO452716  40.831   8.223   5.855
 9657POPC   GL152717  40.767   8.153   6.155
 9657POPC   GL252718  40.703   8.062   6.155
 9657POPC   C1A52719  40.752   8.164   6.455
 9657POPC   D2A52720  40.797   8.171   6.755
 9657POPC   C3A52721  40.830   8.226   7.055
 9657POPC   C4A52722  40.746   8.167   7.355
 9657POPC   C1B52723  40.597   8.033   6.455
 9657POPC   C2B52724  40.569   7.986   6.755
 9657POPC   C3B52725  40.595   8.015   7.055
 9657POPC   C4B52726  40.561   8.047   7.355
 9658POPC   NC352727   4.279  42.302   5.555
 9658POPC   PO452728   4.287  42.288   5.855
 9658POPC   GL152729   4.319  42.330   6.155
 9658POPC   GL252730   4.428  42.301   6.155
 9658POPC   C1A52731   4.317  42.325   6.455
 9658POPC   D2A52732   4.311  42.346   6.755
 9658POPC   C3A52733   4.284  42.353   7.055
 9658POPC   C4A52734   4.356  42.286   7.355
 9658POPC   C1B52735   4.547  42.342   6.455
 9658POPC   C2B52736   4.595  42.258   6.755
 9658POPC   C3B52737   4.597  42.295   7.055
 9658POPC   C4B52738   4.565  42.258   7.355
 9659POPC   NC352739  43.156   8.231   5.555
 9659POPC   PO452740  43.069   8.198   5.855
 9659POPC   GL152741  43.138   8.179   6.155
 9659POPC   GL252742  43.170   8.077   6.155
 9659POPC   C1A52743  43.086   8.177   6.455
 9659POPC   D2A52744  43.084   8.224   6.755
 9659POPC   C3A52745  43.065   8.208   7.055
 9659POPC   C4A52746  43.120   8.156   7.355
 9659POPC   C1B52747  43.280   8.062   6.455
 9659POPC   C2B52748  43.247   8.010   6.755
 9659POPC   C3B52749  43.259   8.014   7.055
 9659POPC   C4B52750  43.328   8.064   7.355
 9660POPC   NC352751   5.854  22.186   5.555
 9660POPC   PO452752   5.822  22.198   5.855
 9660POPC   GL152753   5.877  22.142   6.155
 9660POPC   GL252754   5.814  22.085   6.155
 9660POPC   C1A52755   5.909  22.187   6.455
 9660POPC   D2A52756   5.873  22.115   6.755
 9660POPC   C3A52757   5.884  22.171   7.055
 9660POPC   C4A52758   5.908  22.122   7.355
 9660POPC   C1B52759   5.890  21.894   6.455
 9660POPC   C2B52760   5.885  21.876   6.755
 9660POPC   C3B52761   5.880  21.936   7.055
 9660POPC   C4B52762   5.884  21.958   7.355
 9661POPC   NC352763  33.001  29.191   5.555
 9661POPC   PO452764  33.006  29.170   5.855
 9661POPC   GL152765  33.018  29.121   6.155
 9661POPC   GL252766  32.947  29.287   6.155
 9661POPC   C1A52767  33.062  29.106   6.455
 9661POPC   D2A52768  32.982  29.117   6.755
 9661POPC   C3A52769  32.977  29.145   7.055
 9661POPC   C4A52770  33.072  29.176   7.355
 9661POPC   C1B52771  32.904  29.363   6.455
 9661POPC   C2B52772  32.964  29.427   6.755
 9661POPC   C3B52773  32.990  29.358   7.055
 9661POPC   C4B52774  32.969  29.407   7.355
 9662POPC   NC352775  43.068  41.518   5.555
 9662POPC   PO452776  43.063  41.535   5.855
 9662POPC   GL152777  43.120  41.591   6.155
 9662POPC   GL252778  43.202  41.650   6.155
 9662POPC   C1A52779  43.074  41.533   6.455
 9662POPC   D2A52780  43.145  41.554   6.755
 9662POPC   C3A52781  43.104  41.592   7.055
 9662POPC   C4A52782  43.113  41.579   7.355
 9662POPC   C1B52783  43.281  41.647   6.455
 9662POPC   C2B52784  43.314  41.669   6.755
 9662POPC   C3B52785  43.331  41.633   7.055
 9662POPC   C4B52786  43.347  41.663   7.355
 9663POPC   NC352787  38.473  27.640   5.555
 9663POPC   PO452788  38.499  27.567   5.855
 9663POPC   GL152789  38.439  27.569   6.155
 9663POPC   GL252790  38.394  27.725   6.155
 9663POPC   C1A52791  38.418  27.570   6.455
 9663POPC   D2A52792  38.461  27.571   6.755
 9663POPC   C3A52793  38.494  27.576   7.055
 9663POPC   C4A52794  38.490  27.629   7.355
 9663POPC   C1B52795  38.402  27.865   6.455
 9663POPC   C2B52796  38.376  27.864   6.755
 9663POPC   C3B52797  38.396  27.818   7.055
 9663POPC   C4B52798  38.390  27.859   7.355
 9664POPC   NC352799   6.672  43.884   5.555
 9664POPC   PO452800   6.606  43.919   5.855
 9664POPC   GL152801   6.604  43.920   6.155
 9664POPC   GL252802   6.762  43.832   6.155
 9664POPC   C1A52803   6.630  43.919   6.455
 9664POPC   D2A52804   6.641  43.901   6.755
 9664POPC   C3A52805   6.666  43.886   7.055
 9664POPC   C4A52806   6.615  43.848   7.355
 9664POPC   C1B52807   6.831  43.771   6.455
 9664POPC   C2B52808   6.839  43.804   6.755
 9664POPC   C3B52809   6.887  43.810   7.055
 9664POPC   C4B52810   6.913  43.747   7.355
 9665POPC   NC352811  29.897   8.190   5.555
 9665POPC   PO452812  29.915   8.196   5.855
 9665POPC   GL152813  29.937   8.219   6.155
 9665POPC   GL252814  29.763   8.181   6.155
 9665POPC   C1A52815  29.903   8.166   6.455
 9665POPC   D2A52816  29.927   8.178   6.755
 9665POPC   C3A52817  29.873   8.159   7.055
 9665POPC   C4A52818  29.875   8.162   7.355
 9665POPC   C1B52819  29.707   8.156   6.455
 9665POPC   C2B52820  29.648   8.179   6.755
 9665POPC   C3B52821  29.702   8.175   7.055
 9665POPC   C4B52822  29.702   8.156   7.355
 9666POPC   NC352823  28.404  35.305   5.555
 9666POPC   PO452824  28.362  35.350   5.855
 9666POPC   GL152825  28.355  35.379   6.155
 9666POPC   GL252826  28.272  35.445   6.155
 9666POPC   C1A52827  28.369  35.382   6.455
 9666POPC   D2A52828  28.377  35.354   6.755
 9666POPC   C3A52829  28.347  35.337   7.055
 9666POPC   C4A52830  28.414  35.314   7.355
 9666POPC   C1B52831  28.192  35.610   6.455
 9666POPC   C2B52832  28.279  35.602   6.755
 9666POPC   C3B52833  28.199  35.574   7.055
 9666POPC   C4B52834  28.194  35.550   7.355
 9667POPC   NC352835  35.375  30.742   5.555
 9667POPC   PO452836  35.346  30.725   5.855
 9667POPC   GL152837  35.315  30.681   6.155
 9667POPC   GL252838  35.438  30.805   6.155
 9667POPC   C1A52839  35.381  30.677   6.455
 9667POPC   D2A52840  35.362  30.676   6.755
 9667POPC   C3A52841  35.368  30.654   7.055
 9667POPC   C4A52842  35.341  30.691   7.355
 9667POPC   C1B52843  35.514  30.869   6.455
 9667POPC   C2B52844  35.523  30.838   6.755
 9667POPC   C3B52845  35.539  30.851   7.055
 9667POPC   C4B52846  35.547  30.814   7.355
 9668POPC   NC352847   6.664  41.586   5.555
 9668POPC   PO452848   6.644  41.585   5.855
 9668POPC   GL152849   6.695  41.603   6.155
 9668POPC   GL252850   6.487  41.475   6.155
 9668POPC   C1A52851   6.682  41.541   6.455
 9668POPC   D2A52852   6.641  41.563   6.755
 9668POPC   C3A52853   6.617  41.581   7.055
 9668POPC   C4A52854   6.596  41.513   7.355
 9668POPC   C1B52855   6.372  41.479   6.455
 9668POPC   C2B52856   6.373  41.439   6.755
 9668POPC   C3B52857   6.427  41.434   7.055
 9668POPC   C4B52858   6.398  41.486   7.355
 9669POPC   NC352859  43.088  33.786   5.555
 9669POPC   PO452860  43.118  33.796   5.855
 9669POPC   GL152861  43.134  33.847   6.155
 9669POPC   GL252862  43.191  33.884   6.155
 9669POPC   C1A52863  43.121  33.775   6.455
 9669POPC   D2A52864  43.092  33.762   6.755
 9669POPC   C3A52865  43.084  33.753   7.055
 9669POPC   C4A52866  43.080  33.789   7.355
 9669POPC   C1B52867  43.239  34.016   6.455
 9669POPC   C2B52868  43.245  33.993   6.755
 9669POPC   C3B52869  43.192  34.003   7.055
 9669POPC   C4B52870  43.219  34.040   7.355
 9670POPC   NC352871  18.291   0.393   5.555
 9670POPC   PO452872  18.277   0.434   5.855
 9670POPC   GL152873  18.260   0.457   6.155
 9670POPC   GL252874  18.121   0.439   6.155
 9670POPC   C1A52875  18.265   0.482   6.455
 9670POPC   D2A52876  18.329   0.444   6.755
 9670POPC   C3A52877  18.250   0.462   7.055
 9670POPC   C4A52878  18.258   0.463   7.355
 9670POPC   C1B52879  18.017   0.491   6.455
 9670POPC   C2B52880  18.047   0.525   6.755
 9670POPC   C3B52881  17.998   0.495   7.055
 9670POPC   C4B52882  18.000   0.505   7.355
 9671POPC   NC352883  13.610  16.777   5.555
 9671POPC   PO452884  13.670  16.725   5.855
 9671POPC   GL152885  13.667  16.742   6.155
 9671POPC   GL252886  13.668  16.624   6.155
 9671POPC   C1A52887  13.639  16.728   6.455
 9671POPC   D2A52888  13.660  16.702   6.755
 9671POPC   C3A52889  13.663  16.689   7.055
 9671POPC   C4A52890  13.611  16.762   7.355
 9671POPC   C1B52891  13.805  16.555   6.455
 9671POPC   C2B52892  13.799  16.576   6.755
 9671POPC   C3B52893  13.818  16.542   7.055
 9671POPC   C4B52894  13.776  16.540   7.355
 9672POPC   NC352895  26.843  33.068   5.555
 9672POPC   PO452896  26.810  33.063   5.855
 9672POPC   GL152897  26.823  33.047   6.155
 9672POPC   GL252898  26.907  33.102   6.155
 9672POPC   C1A52899  26.776  33.032   6.455
 9672POPC   D2A52900  26.791  33.063   6.755
 9672POPC   C3A52901  26.801  33.064   7.055
 9672POPC   C4A52902  26.777  33.056   7.355
 9672POPC   C1B52903  27.044  33.105   6.455
 9672POPC   C2B52904  27.004  33.132   6.755
 9672POPC   C3B52905  27.042  33.133   7.055
 9672POPC   C4B52906  27.081  33.166   7.355
 9673POPC   NC352907   8.958  28.352   5.555
 9673POPC   PO452908   8.981  28.384   5.855
 9673POPC   GL152909   8.987  28.382   6.155
 9673POPC   GL252910   9.005  28.483   6.155
 9673POPC   C1A52911   8.987  28.389   6.455
 9673POPC   D2A52912   8.990  28.319   6.755
 9673POPC   C3A52913   8.961  28.327   7.055
 9673POPC   C4A52914   8.977  28.415   7.355
 9673POPC   C1B52915   9.183  28.549   6.455
 9673POPC   C2B52916   9.134  28.609   6.755
 9673POPC   C3B52917   9.099  28.562   7.055
 9673POPC   C4B52918   9.126  28.604   7.355
 9674POPC   NC352919   5.864  20.646   5.555
 9674POPC   PO452920   5.853  20.608   5.855
 9674POPC   GL152921   5.858  20.574   6.155
 9674POPC   GL252922   5.897  20.533   6.155
 9674POPC   C1A52923   5.833  20.631   6.455
 9674POPC   D2A52924   5.844  20.597   6.755
 9674POPC   C3A52925   5.890  20.598   7.055
 9674POPC   C4A52926   5.899  20.619   7.355
 9674POPC   C1B52927   5.907  20.358   6.455
 9674POPC   C2B52928   5.951  20.402   6.755
 9674POPC   C3B52929   5.927  20.372   7.055
 9674POPC   C4B52930   5.891  20.326   7.355
 9675POPC   NC352931  12.858  39.218   5.555
 9675POPC   PO452932  12.894  39.221   5.855
 9675POPC   GL152933  12.896  39.270   6.155
 9675POPC   GL252934  12.822  39.083   6.155
 9675POPC   C1A52935  12.823  39.202   6.455
 9675POPC   D2A52936  12.896  39.214   6.755
 9675POPC   C3A52937  12.825  39.265   7.055
 9675POPC   C4A52938  12.825  39.200   7.355
 9675POPC   C1B52939  12.833  39.004   6.455
 9675POPC   C2B52940  12.858  38.999   6.755
 9675POPC   C3B52941  12.799  39.033   7.055
 9675POPC   C4B52942  12.799  38.972   7.355
 9676POPC   NC352943  42.329   9.735   5.555
 9676POPC   PO452944  42.346   9.767   5.855
 9676POPC   GL152945  42.349   9.793   6.155
 9676POPC   GL252946  42.457   9.807   6.155
 9676POPC   C1A52947  42.291   9.745   6.455
 9676POPC   D2A52948  42.304   9.745   6.755
 9676POPC   C3A52949  42.339   9.722   7.055
 9676POPC   C4A52950  42.326   9.795   7.355
 9676POPC   C1B52951  42.505   9.865   6.455
 9676POPC   C2B52952  42.497   9.854   6.755
 9676POPC   C3B52953  42.531   9.901   7.055
 9676POPC   C4B52954  42.514   9.908   7.355
 9677POPC   NC352955   4.350  37.665   5.555
 9677POPC   PO452956   4.309  37.650   5.855
 9677POPC   GL152957   4.357  37.722   6.155
 9677POPC   GL252958   4.338  37.840   6.155
 9677POPC   C1A52959   4.361  37.653   6.455
 9677POPC   D2A52960   4.355  37.631   6.755
 9677POPC   C3A52961   4.330  37.722   7.055
 9677POPC   C4A52962   4.279  37.680   7.355
 9677POPC   C1B52963   4.401  37.880   6.455
 9677POPC   C2B52964   4.445  37.893   6.755
 9677POPC   C3B52965   4.387  37.931   7.055
 9677POPC   C4B52966   4.379  37.867   7.355
 9678POPC   NC352967   4.273  32.978   5.555
 9678POPC   PO452968   4.340  33.024   5.855
 9678POPC   GL152969   4.367  33.001   6.155
 9678POPC   GL252970   4.423  33.136   6.155
 9678POPC   C1A52971   4.303  33.033   6.455
 9678POPC   D2A52972   4.340  33.055   6.755
 9678POPC   C3A52973   4.292  33.072   7.055
 9678POPC   C4A52974   4.346  33.035   7.355
 9678POPC   C1B52975   4.520  33.214   6.455
 9678POPC   C2B52976   4.492  33.179   6.755
 9678POPC   C3B52977   4.518  33.184   7.055
 9678POPC   C4B52978   4.466  33.211   7.355
 9679POPC   NC352979  26.009  11.304   5.555
 9679POPC   PO452980  26.001  11.336   5.855
 9679POPC   GL152981  26.078  11.329   6.155
 9679POPC   GL252982  25.939  11.313   6.155
 9679POPC   C1A52983  26.085  11.284   6.455
 9679POPC   D2A52984  26.030  11.277   6.755
 9679POPC   C3A52985  26.082  11.260   7.055
 9679POPC   C4A52986  26.010  11.315   7.355
 9679POPC   C1B52987  25.807  11.290   6.455
 9679POPC   C2B52988  25.819  11.297   6.755
 9679POPC   C3B52989  25.779  11.260   7.055
 9679POPC   C4B52990  25.779  11.315   7.355
 9680POPC   NC352991  22.963  44.631   5.555
 9680POPC   PO452992  22.904  44.687   5.855
 9680POPC   GL152993  22.978  44.634   6.155
 9680POPC   GL252994  23.031  44.736   6.155
 9680POPC   C1A52995  22.889  44.691   6.455
 9680POPC   D2A52996  22.962  44.711   6.755
 9680POPC   C3A52997  22.926  44.670   7.055
 9680POPC   C4A52998  22.953  44.657   7.355
 9680POPC   C1B52999  23.181  44.726   6.455
 9680POPC   C2B53000  23.201  44.757   6.755
 9680POPC   C3B53001  23.151  44.748   7.055
 9680POPC   C4B53002  23.197  44.752   7.355
 9681POPC   NC353003  23.694  41.586   5.555
 9681POPC   PO453004  23.688  41.544   5.855
 9681POPC   GL153005  23.732  41.523   6.155
 9681POPC   GL253006  23.784  41.541   6.155
 9681POPC   C1A53007  23.726  41.510   6.455
 9681POPC   D2A53008  23.686  41.554   6.755
 9681POPC   C3A53009  23.734  41.604   7.055
 9681POPC   C4A53010  23.680  41.524   7.355
 9681POPC   C1B53011  23.980  41.467   6.455
 9681POPC   C2B53012  23.990  41.525   6.755
 9681POPC   C3B53013  23.911  41.459   7.055
 9681POPC   C4B53014  23.991  41.467   7.355
 9682POPC   NC353015  12.061  32.239   5.555
 9682POPC   PO453016  12.054  32.220   5.855
 9682POPC   GL153017  12.038  32.203   6.155
 9682POPC   GL253018  12.095  32.389   6.155
 9682POPC   C1A53019  12.111  32.251   6.455
 9682POPC   D2A53020  12.086  32.274   6.755
 9682POPC   C3A53021  12.048  32.203   7.055
 9682POPC   C4A53022  12.051  32.202   7.355
 9682POPC   C1B53023  12.188  32.475   6.455
 9682POPC   C2B53024  12.211  32.458   6.755
 9682POPC   C3B53025  12.200  32.439   7.055
 9682POPC   C4B53026  12.191  32.475   7.355
 9683POPC   NC353027  15.924  43.146   5.555
 9683POPC   PO453028  15.940  43.080   5.855
 9683POPC   GL153029  15.992  43.147   6.155
 9683POPC   GL253030  15.943  42.947   6.155
 9683POPC   C1A53031  15.908  43.094   6.455
 9683POPC   D2A53032  15.935  43.121   6.755
 9683POPC   C3A53033  15.951  43.101   7.055
 9683POPC   C4A53034  15.952  43.076   7.355
 9683POPC   C1B53035  15.894  42.864   6.455
 9683POPC   C2B53036  15.879  42.895   6.755
 9683POPC   C3B53037  15.932  42.886   7.055
 9683POPC   C4B53038  15.880  42.854   7.355
 9684POPC   NC353039  37.723  29.920   5.555
 9684POPC   PO453040  37.702  29.933   5.855
 9684POPC   GL153041  37.713  29.952   6.155
 9684POPC   GL253042  37.769  29.982   6.155
 9684POPC   C1A53043  37.721  29.962   6.455
 9684POPC   D2A53044  37.675  29.957   6.755
 9684POPC   C3A53045  37.659  29.932   7.055
 9684POPC   C4A53046  37.717  29.966   7.355
 9684POPC   C1B53047  37.903  29.950   6.455
 9684POPC   C2B53048  37.919  29.994   6.755
 9684POPC   C3B53049  37.956  29.991   7.055
 9684POPC   C4B53050  37.898  29.997   7.355
 9685POPC   NC353051  24.514  35.380   5.555
 9685POPC   PO453052  24.476  35.348   5.855
 9685POPC   GL153053  24.466  35.344   6.155
 9685POPC   GL253054  24.406  35.320   6.155
 9685POPC   C1A53055  24.483  35.311   6.455
 9685POPC   D2A53056  24.445  35.365   6.755
 9685POPC   C3A53057  24.442  35.395   7.055
 9685POPC   C4A53058  24.495  35.359   7.355
 9685POPC   C1B53059  24.249  35.178   6.455
 9685POPC   C2B53060  24.272  35.241   6.755
 9685POPC   C3B53061  24.286  35.173   7.055
 9685POPC   C4B53062  24.307  35.258   7.355
 9686POPC   NC353063  40.756  23.675   5.555
 9686POPC   PO453064  40.741  23.718   5.855
 9686POPC   GL153065  40.770  23.687   6.155
 9686POPC   GL253066  40.821  23.628   6.155
 9686POPC   C1A53067  40.798  23.710   6.455
 9686POPC   D2A53068  40.804  23.706   6.755
 9686POPC   C3A53069  40.800  23.746   7.055
 9686POPC   C4A53070  40.756  23.747   7.355
 9686POPC   C1B53071  40.867  23.436   6.455
 9686POPC   C2B53072  40.863  23.499   6.755
 9686POPC   C3B53073  40.831  23.456   7.055
 9686POPC   C4B53074  40.879  23.496   7.355
 9687POPC   NC353075  26.854  34.564   5.555
 9687POPC   PO453076  26.782  34.593   5.855
 9687POPC   GL153077  26.816  34.621   6.155
 9687POPC   GL253078  26.705  34.677   6.155
 9687POPC   C1A53079  26.856  34.617   6.455
 9687POPC   D2A53080  26.783  34.526   6.755
 9687POPC   C3A53081  26.834  34.537   7.055
 9687POPC   C4A53082  26.813  34.587   7.355
 9687POPC   C1B53083  26.667  34.733   6.455
 9687POPC   C2B53084  26.675  34.750   6.755
 9687POPC   C3B53085  26.599  34.741   7.055
 9687POPC   C4B53086  26.684  34.716   7.355
 9688POPC   NC353087  12.888  24.492   5.555
 9688POPC   PO453088  12.854  24.448   5.855
 9688POPC   GL153089  12.881  24.491   6.155
 9688POPC   GL253090  12.727  24.578   6.155
 9688POPC   C1A53091  12.880  24.481   6.455
 9688POPC   D2A53092  12.820  24.484   6.755
 9688POPC   C3A53093  12.864  24.475   7.055
 9688POPC   C4A53094  12.838  24.446   7.355
 9688POPC   C1B53095  12.603  24.600   6.455
 9688POPC   C2B53096  12.660  24.597   6.755
 9688POPC   C3B53097  12.638  24.664   7.055
 9688POPC   C4B53098  12.603  24.683   7.355
 9689POPC   NC353099  18.289  16.693   5.555
 9689POPC   PO453100  18.307  16.758   5.855
 9689POPC   GL153101  18.281  16.707   6.155
 9689POPC   GL253102  18.189  16.817   6.155
 9689POPC   C1A53103  18.251  16.685   6.455
 9689POPC   D2A53104  18.263  16.780   6.755
 9689POPC   C3A53105  18.309  16.747   7.055
 9689POPC   C4A53106  18.313  16.727   7.355
 9689POPC   C1B53107  18.183  16.950   6.455
 9689POPC   C2B53108  18.134  16.968   6.755
 9689POPC   C3B53109  18.163  16.959   7.055
 9689POPC   C4B53110  18.095  16.905   7.355
 9690POPC   NC353111  10.487   7.403   5.555
 9690POPC   PO453112  10.540   7.410   5.855
 9690POPC   GL153113  10.545   7.447   6.155
 9690POPC   GL253114  10.484   7.534   6.155
 9690POPC   C1A53115  10.481   7.436   6.455
 9690POPC   D2A53116  10.524   7.464   6.755
 9690POPC   C3A53117  10.521   7.416   7.055
 9690POPC   C4A53118  10.557   7.372   7.355
 9690POPC   C1B53119  10.426   7.662   6.455
 9690POPC   C2B53120  10.441   7.643   6.755
 9690POPC   C3B53121  10.472   7.711   7.055
 9690POPC   C4B53122  10.437   7.670   7.355
 9691POPC   NC353123   9.016  32.214   5.555
 9691POPC   PO453124   9.012  32.238   5.855
 9691POPC   GL153125   9.012  32.240   6.155
 9691POPC   GL253126   8.865  32.100   6.155
 9691POPC   C1A53127   8.993  32.205   6.455
 9691POPC   D2A53128   8.938  32.260   6.755
 9691POPC   C3A53129   8.989  32.270   7.055
 9691POPC   C4A53130   8.958  32.280   7.355
 9691POPC   C1B53131   8.798  31.988   6.455
 9691POPC   C2B53132   8.888  32.011   6.755
 9691POPC   C3B53133   8.850  31.997   7.055
 9691POPC   C4B53134   8.830  32.045   7.355
 9692POPC   NC353135  28.358   6.657   5.555
 9692POPC   PO453136  28.389   6.629   5.855
 9692POPC   GL153137  28.368   6.599   6.155
 9692POPC   GL253138  28.367   6.552   6.155
 9692POPC   C1A53139  28.364   6.618   6.455
 9692POPC   D2A53140  28.380   6.643   6.755
 9692POPC   C3A53141  28.342   6.613   7.055
 9692POPC   C4A53142  28.363   6.683   7.355
 9692POPC   C1B53143  28.372   6.365   6.455
 9692POPC   C2B53144  28.337   6.440   6.755
 9692POPC   C3B53145  28.309   6.438   7.055
 9692POPC   C4B53146  28.373   6.358   7.355
 9693POPC   NC353147  37.678  26.825   5.555
 9693POPC   PO453148  37.697  26.867   5.855
 9693POPC   GL153149  37.729  26.782   6.155
 9693POPC   GL253150  37.577  26.716   6.155
 9693POPC   C1A53151  37.686  26.782   6.455
 9693POPC   D2A53152  37.668  26.838   6.755
 9693POPC   C3A53153  37.648  26.772   7.055
 9693POPC   C4A53154  37.693  26.797   7.355
 9693POPC   C1B53155  37.474  26.611   6.455
 9693POPC   C2B53156  37.506  26.612   6.755
 9693POPC   C3B53157  37.512  26.586   7.055
 9693POPC   C4B53158  37.540  26.614   7.355
 9694POPC   NC353159   7.464  19.108   5.555
 9694POPC   PO453160   7.434  19.053   5.855
 9694POPC   GL153161   7.453  19.044   6.155
 9694POPC   GL253162   7.461  19.219   6.155
 9694POPC   C1A53163   7.453  19.093   6.455
 9694POPC   D2A53164   7.468  19.045   6.755
 9694POPC   C3A53165   7.420  19.044   7.055
 9694POPC   C4A53166   7.440  19.063   7.355
 9694POPC   C1B53167   7.523  19.272   6.455
 9694POPC   C2B53168   7.454  19.281   6.755
 9694POPC   C3B53169   7.507  19.311   7.055
 9694POPC   C4B53170   7.535  19.322   7.355
 9695POPC   NC353171  10.515  33.767   5.555
 9695POPC   PO453172  10.502  33.755   5.855
 9695POPC   GL153173  10.508  33.797   6.155
 9695POPC   GL253174  10.538  33.896   6.155
 9695POPC   C1A53175  10.509  33.846   6.455
 9695POPC   D2A53176  10.556  33.758   6.755
 9695POPC   C3A53177  10.522  33.785   7.055
 9695POPC   C4A53178  10.530  33.827   7.355
 9695POPC   C1B53179  10.639  34.023   6.455
 9695POPC   C2B53180  10.633  34.041   6.755
 9695POPC   C3B53181  10.632  33.987   7.055
 9695POPC   C4B53182  10.596  34.033   7.355
 9696POPC   NC353183  19.855  35.363   5.555
 9696POPC   PO453184  19.812  35.333   5.855
 9696POPC   GL153185  19.805  35.305   6.155
 9696POPC   GL253186  19.742  35.465   6.155
 9696POPC   C1A53187  19.838  35.341   6.455
 9696POPC   D2A53188  19.871  35.388   6.755
 9696POPC   C3A53189  19.873  35.369   7.055
 9696POPC   C4A53190  19.837  35.362   7.355
 9696POPC   C1B53191  19.706  35.570   6.455
 9696POPC   C2B53192  19.672  35.568   6.755
 9696POPC   C3B53193  19.711  35.542   7.055
 9696POPC   C4B53194  19.669  35.521   7.355
 9697POPC   NC353195  44.695  36.949   5.555
 9697POPC   PO453196  44.705  36.866   5.855
 9697POPC   GL153197  44.632  36.893   6.155
 9697POPC   GL253198  44.750  36.857   6.155
 9697POPC   C1A53199  44.623  36.935   6.455
 9697POPC   D2A53200  44.656  36.856   6.755
 9697POPC   C3A53201  44.674  36.906   7.055
 9697POPC   C4A53202  44.705  36.935   7.355
 9697POPC   C1B53203  44.864  36.769   6.455
 9697POPC   C2B53204  44.918  36.828   6.755
 9697POPC   C3B53205  44.895  36.815   7.055
 9697POPC   C4B53206  44.909  36.782   7.355
 9698POPC   NC353207   1.983  10.509   5.555
 9698POPC   PO453208   1.971  10.513   5.855
 9698POPC   GL153209   1.999  10.538   6.155
 9698POPC   GL253210   2.077  10.614   6.155
 9698POPC   C1A53211   2.006  10.516   6.455
 9698POPC   D2A53212   1.951  10.491   6.755
 9698POPC   C3A53213   1.949  10.489   7.055
 9698POPC   C4A53214   2.011  10.529   7.355
 9698POPC   C1B53215   2.134  10.759   6.455
 9698POPC   C2B53216   2.148  10.737   6.755
 9698POPC   C3B53217   2.114  10.690   7.055
 9698POPC   C4B53218   2.084  10.756   7.355
 9699POPC   NC353219  14.365  21.403   5.555
 9699POPC   PO453220  14.402  21.368   5.855
 9699POPC   GL153221  14.419  21.410   6.155
 9699POPC   GL253222  14.486  21.267   6.155
 9699POPC   C1A53223  14.358  21.363   6.455
 9699POPC   D2A53224  14.410  21.338   6.755
 9699POPC   C3A53225  14.411  21.399   7.055
 9699POPC   C4A53226  14.399  21.411   7.355
 9699POPC   C1B53227  14.557  21.193   6.455
 9699POPC   C2B53228  14.522  21.234   6.755
 9699POPC   C3B53229  14.599  21.188   7.055
 9699POPC   C4B53230  14.558  21.153   7.355
 9700POPC   NC353231  26.077  43.157   5.555
 9700POPC   PO453232  26.079  43.110   5.855
 9700POPC   GL153233  26.043  43.064   6.155
 9700POPC   GL253234  26.190  43.165   6.155
 9700POPC   C1A53235  26.004  43.064   6.455
 9700POPC   D2A53236  26.036  43.091   6.755
 9700POPC   C3A53237  26.048  43.108   7.055
 9700POPC   C4A53238  26.001  43.110   7.355
 9700POPC   C1B53239  26.290  43.119   6.455
 9700POPC   C2B53240  26.243  43.116   6.755
 9700POPC   C3B53241  26.314  43.118   7.055
 9700POPC   C4B53242  26.291  43.157   7.355
 9701POPC   NC353243  12.046  31.513   5.555
 9701POPC   PO453244  12.037  31.519   5.855
 9701POPC   GL153245  12.102  31.435   6.155
 9701POPC   GL253246  12.233  31.430   6.155
 9701POPC   C1A53247  12.072  31.432   6.455
 9701POPC   D2A53248  12.118  31.430   6.755
 9701POPC   C3A53249  12.090  31.450   7.055
 9701POPC   C4A53250  12.104  31.435   7.355
 9701POPC   C1B53251  12.328  31.465   6.455
 9701POPC   C2B53252  12.333  31.408   6.755
 9701POPC   C3B53253  12.318  31.415   7.055
 9701POPC   C4B53254  12.348  31.404   7.355
 9702POPC   NC353255   5.900   4.320   5.555
 9702POPC   PO453256   5.837   4.287   5.855
 9702POPC   GL153257   5.851   4.318   6.155
 9702POPC   GL253258   5.903   4.239   6.155
 9702POPC   C1A53259   5.909   4.285   6.455
 9702POPC   D2A53260   5.891   4.355   6.755
 9702POPC   C3A53261   5.894   4.334   7.055
 9702POPC   C4A53262   5.885   4.350   7.355
 9702POPC   C1B53263   5.894   4.051   6.455
 9702POPC   C2B53264   5.949   4.119   6.755
 9702POPC   C3B53265   5.907   4.058   7.055
 9702POPC   C4B53266   5.856   4.071   7.355
 9703POPC   NC353267  42.285  36.915   5.555
 9703POPC   PO453268  42.289  36.890   5.855
 9703POPC   GL153269  42.299  36.892   6.155
 9703POPC   GL253270  42.393  37.011   6.155
 9703POPC   C1A53271  42.328  36.876   6.455
 9703POPC   D2A53272  42.303  36.884   6.755
 9703POPC   C3A53273  42.294  36.951   7.055
 9703POPC   C4A53274  42.307  36.946   7.355
 9703POPC   C1B53275  42.440  37.072   6.455
 9703POPC   C2B53276  42.524  37.077   6.755
 9703POPC   C3B53277  42.505  37.140   7.055
 9703POPC   C4B53278  42.523  37.058   7.355
 9704POPC   NC353279   9.008  39.979   5.555
 9704POPC   PO453280   8.924  40.010   5.855
 9704POPC   GL153281   8.954  40.001   6.155
 9704POPC   GL253282   9.063  39.889   6.155
 9704POPC   C1A53283   8.985  39.989   6.455
 9704POPC   D2A53284   9.005  40.055   6.755
 9704POPC   C3A53285   8.926  40.023   7.055
 9704POPC   C4A53286   9.019  40.022   7.355
 9704POPC   C1B53287   9.136  39.820   6.455
 9704POPC   C2B53288   9.161  39.793   6.755
 9704POPC   C3B53289   9.144  39.827   7.055
 9704POPC   C4B53290   9.107  39.826   7.355
 9705POPC   NC353291  36.152  31.465   5.555
 9705POPC   PO453292  36.087  31.456   5.855
 9705POPC   GL153293  36.103  31.431   6.155
 9705POPC   GL253294  36.136  31.356   6.155
 9705POPC   C1A53295  36.155  31.493   6.455
 9705POPC   D2A53296  36.153  31.459   6.755
 9705POPC   C3A53297  36.144  31.465   7.055
 9705POPC   C4A53298  36.168  31.453   7.355
 9705POPC   C1B53299  36.100  31.266   6.455
 9705POPC   C2B53300  36.080  31.210   6.755
 9705POPC   C3B53301  36.068  31.223   7.055
 9705POPC   C4B53302  36.129  31.222   7.355
 9706POPC   NC353303  22.931  11.297   5.555
 9706POPC   PO453304  22.904  11.348   5.855
 9706POPC   GL153305  22.974  11.327   6.155
 9706POPC   GL253306  22.973  11.403   6.155
 9706POPC   C1A53307  22.936  11.278   6.455
 9706POPC   D2A53308  22.938  11.276   6.755
 9706POPC   C3A53309  22.986  11.298   7.055
 9706POPC   C4A53310  22.893  11.257   7.355
 9706POPC   C1B53311  23.045  11.505   6.455
 9706POPC   C2B53312  22.951  11.541   6.755
 9706POPC   C3B53313  23.019  11.514   7.055
 9706POPC   C4B53314  22.953  11.558   7.355
 9707POPC   NC353315  21.383  42.326   5.555
 9707POPC   PO453316  21.337  42.302   5.855
 9707POPC   GL153317  21.392  42.381   6.155
 9707POPC   GL253318  21.479  42.449   6.155
 9707POPC   C1A53319  21.396  42.304   6.455
 9707POPC   D2A53320  21.431  42.373   6.755
 9707POPC   C3A53321  21.408  42.290   7.055
 9707POPC   C4A53322  21.360  42.304   7.355
 9707POPC   C1B53323  21.541  42.506   6.455
 9707POPC   C2B53324  21.533  42.505   6.755
 9707POPC   C3B53325  21.579  42.535   7.055
 9707POPC   C4B53326  21.575  42.544   7.355
 9708POPC   NC353327   0.451  32.273   5.555
 9708POPC   PO453328   0.427  32.280   5.855
 9708POPC   GL153329   0.403  32.200   6.155
 9708POPC   GL253330   0.322  32.138   6.155
 9708POPC   C1A53331   0.439  32.233   6.455
 9708POPC   D2A53332   0.440  32.217   6.755
 9708POPC   C3A53333   0.449  32.277   7.055
 9708POPC   C4A53334   0.398  32.263   7.355
 9708POPC   C1B53335   0.248  32.083   6.455
 9708POPC   C2B53336   0.288  32.049   6.755
 9708POPC   C3B53337   0.288  32.053   7.055
 9708POPC   C4B53338   0.267  32.061   7.355
 9709POPC   NC353339  39.215   5.090   5.555
 9709POPC   PO453340  39.203   5.125   5.855
 9709POPC   GL153341  39.235   5.063   6.155
 9709POPC   GL253342  39.138   5.006   6.155
 9709POPC   C1A53343  39.253   5.086   6.455
 9709POPC   D2A53344  39.232   5.067   6.755
 9709POPC   C3A53345  39.192   5.060   7.055
 9709POPC   C4A53346  39.261   5.104   7.355
 9709POPC   C1B53347  39.015   4.937   6.455
 9709POPC   C2B53348  39.025   4.965   6.755
 9709POPC   C3B53349  39.059   4.918   7.055
 9709POPC   C4B53350  38.994   4.972   7.355
 9710POPC   NC353351  44.614   6.626   5.555
 9710POPC   PO453352  44.681   6.622   5.855
 9710POPC   GL153353  44.642   6.601   6.155
 9710POPC   GL253354  44.585   6.775   6.155
 9710POPC   C1A53355  44.653   6.634   6.455
 9710POPC   D2A53356  44.646   6.607   6.755
 9710POPC   C3A53357  44.635   6.674   7.055
 9710POPC   C4A53358  44.703   6.651   7.355
 9710POPC   C1B53359  44.433   6.795   6.455
 9710POPC   C2B53360  44.467   6.826   6.755
 9710POPC   C3B53361  44.432   6.779   7.055
 9710POPC   C4B53362  44.468   6.828   7.355
 9711POPC   NC353363  35.312  12.091   5.555
 9711POPC   PO453364  35.331  12.027   5.855
 9711POPC   GL153365  35.365  12.084   6.155
 9711POPC   GL253366  35.210  12.036   6.155
 9711POPC   C1A53367  35.326  12.097   6.455
 9711POPC   D2A53368  35.357  12.096   6.755
 9711POPC   C3A53369  35.320  12.105   7.055
 9711POPC   C4A53370  35.378  12.059   7.355
 9711POPC   C1B53371  35.103  11.962   6.455
 9711POPC   C2B53372  35.064  12.009   6.755
 9711POPC   C3B53373  35.100  12.020   7.055
 9711POPC   C4B53374  35.137  12.045   7.355
 9712POPC   NC353375  11.338  26.775   5.555
 9712POPC   PO453376  11.280  26.857   5.855
 9712POPC   GL153377  11.330  26.857   6.155
 9712POPC   GL253378  11.422  26.755   6.155
 9712POPC   C1A53379  11.337  26.812   6.455
 9712POPC   D2A53380  11.323  26.848   6.755
 9712POPC   C3A53381  11.317  26.785   7.055
 9712POPC   C4A53382  11.265  26.778   7.355
 9712POPC   C1B53383  11.410  26.653   6.455
 9712POPC   C2B53384  11.423  26.611   6.755
 9712POPC   C3B53385  11.493  26.633   7.055
 9712POPC   C4B53386  11.422  26.621   7.355
 9713POPC   NC353387  21.398  10.485   5.555
 9713POPC   PO453388  21.412  10.504   5.855
 9713POPC   GL153389  21.363  10.479   6.155
 9713POPC   GL253390  21.266  10.426   6.155
 9713POPC   C1A53391  21.340  10.530   6.455
 9713POPC   D2A53392  21.362  10.485   6.755
 9713POPC   C3A53393  21.424  10.502   7.055
 9713POPC   C4A53394  21.346  10.567   7.355
 9713POPC   C1B53395  21.236  10.326   6.455
 9713POPC   C2B53396  21.279  10.339   6.755
 9713POPC   C3B53397  21.234  10.366   7.055
 9713POPC   C4B53398  21.239  10.336   7.355
 9714POPC   NC353399  25.234  44.645   5.555
 9714POPC   PO453400  25.301  44.659   5.855
 9714POPC   GL153401  25.259  44.671   6.155
 9714POPC   GL253402  25.193  44.490   6.155
 9714POPC   C1A53403  25.292  44.708   6.455
 9714POPC   D2A53404  25.301  44.711   6.755
 9714POPC   C3A53405  25.227  44.640   7.055
 9714POPC   C4A53406  25.247  44.644   7.355
 9714POPC   C1B53407  25.228  44.446   6.455
 9714POPC   C2B53408  25.182  44.453   6.755
 9714POPC   C3B53409  25.192  44.432   7.055
 9714POPC   C4B53410  25.248  44.452   7.355
 9715POPC   NC353411  22.974  34.594   5.555
 9715POPC   PO453412  22.979  34.578   5.855
 9715POPC   GL153413  22.901  34.566   6.155
 9715POPC   GL253414  23.082  34.552   6.155
 9715POPC   C1A53415  22.958  34.619   6.455
 9715POPC   D2A53416  22.970  34.546   6.755
 9715POPC   C3A53417  22.930  34.577   7.055
 9715POPC   C4A53418  22.941  34.596   7.355
 9715POPC   C1B53419  23.174  34.443   6.455
 9715POPC   C2B53420  23.097  34.466   6.755
 9715POPC   C3B53421  23.143  34.428   7.055
 9715POPC   C4B53422  23.159  34.467   7.355
 9716POPC   NC353423  20.598   4.345   5.555
 9716POPC   PO453424  20.641   4.351   5.855
 9716POPC   GL153425  20.636   4.300   6.155
 9716POPC   GL253426  20.516   4.269   6.155
 9716POPC   C1A53427  20.660   4.294   6.455
 9716POPC   D2A53428  20.647   4.336   6.755
 9716POPC   C3A53429  20.642   4.277   7.055
 9716POPC   C4A53430  20.616   4.287   7.355
 9716POPC   C1B53431  20.400   4.266   6.455
 9716POPC   C2B53432  20.399   4.206   6.755
 9716POPC   C3B53433  20.409   4.268   7.055
 9716POPC   C4B53434  20.330   4.221   7.355
 9717POPC   NC353435  35.347  19.054   5.555
 9717POPC   PO453436  35.383  19.096   5.855
 9717POPC   GL153437  35.382  19.076   6.155
 9717POPC   GL253438  35.255  18.998   6.155
 9717POPC   C1A53439  35.326  19.069   6.455
 9717POPC   D2A53440  35.375  19.071   6.755
 9717POPC   C3A53441  35.343  19.058   7.055
 9717POPC   C4A53442  35.381  19.090   7.355
 9717POPC   C1B53443  35.237  18.811   6.455
 9717POPC   C2B53444  35.260  18.844   6.755
 9717POPC   C3B53445  35.242  18.837   7.055
 9717POPC   C4B53446  35.208  18.884   7.355
 9718POPC   NC353447  19.847   3.524   5.555
 9718POPC   PO453448  19.810   3.516   5.855
 9718POPC   GL153449  19.799   3.554   6.155
 9718POPC   GL253450  19.964   3.636   6.155
 9718POPC   C1A53451  19.808   3.544   6.455
 9718POPC   D2A53452  19.809   3.566   6.755
 9718POPC   C3A53453  19.861   3.572   7.055
 9718POPC   C4A53454  19.823   3.514   7.355
 9718POPC   C1B53455  20.037   3.649   6.455
 9718POPC   C2B53456  20.042   3.693   6.755
 9718POPC   C3B53457  20.045   3.634   7.055
 9718POPC   C4B53458  20.042   3.643   7.355
 9719POPC   NC353459  22.930  21.358   5.555
 9719POPC   PO453460  22.910  21.384   5.855
 9719POPC   GL153461  22.908  21.414   6.155
 9719POPC   GL253462  23.048  21.305   6.155
 9719POPC   C1A53463  22.926  21.355   6.455
 9719POPC   D2A53464  22.983  21.379   6.755
 9719POPC   C3A53465  22.924  21.351   7.055
 9719POPC   C4A53466  22.918  21.416   7.355
 9719POPC   C1B53467  23.093  21.186   6.455
 9719POPC   C2B53468  23.132  21.160   6.755
 9719POPC   C3B53469  23.098  21.183   7.055
 9719POPC   C4B53470  23.138  21.210   7.355
 9720POPC   NC353471   8.172  15.991   5.555
 9720POPC   PO453472   8.158  15.950   5.855
 9720POPC   GL153473   8.215  15.908   6.155
 9720POPC   GL253474   8.164  15.824   6.155
 9720POPC   C1A53475   8.246  15.960   6.455
 9720POPC   D2A53476   8.165  15.946   6.755
 9720POPC   C3A53477   8.158  15.943   7.055
 9720POPC   C4A53478   8.228  15.926   7.355
 9720POPC   C1B53479   8.060  15.803   6.455
 9720POPC   C2B53480   8.093  15.725   6.755
 9720POPC   C3B53481   8.050  15.795   7.055
 9720POPC   C4B53482   8.082  15.733   7.355
 9721POPC   NC353483  32.270  39.192   5.555
 9721POPC   PO453484  32.273  39.186   5.855
 9721POPC   GL153485  32.218  39.213   6.155
 9721POPC   GL253486  32.195  39.374   6.155
 9721POPC   C1A53487  32.256  39.206   6.455
 9721POPC   D2A53488  32.265  39.194   6.755
 9721POPC   C3A53489  32.223  39.235   7.055
 9721POPC   C4A53490  32.259  39.247   7.355
 9721POPC   C1B53491  32.129  39.457   6.455
 9721POPC   C2B53492  32.179  39.506   6.755
 9721POPC   C3B53493  32.131  39.460   7.055
 9721POPC   C4B53494  32.144  39.491   7.355
 9722POPC   NC353495  43.876  21.432   5.555
 9722POPC   PO453496  43.867  21.380   5.855
 9722POPC   GL153497  43.927  21.401   6.155
 9722POPC   GL253498  44.003  21.475   6.155
 9722POPC   C1A53499  43.923  21.378   6.455
 9722POPC   D2A53500  43.902  21.340   6.755
 9722POPC   C3A53501  43.933  21.369   7.055
 9722POPC   C4A53502  43.904  21.393   7.355
 9722POPC   C1B53503  44.046  21.523   6.455
 9722POPC   C2B53504  44.101  21.522   6.755
 9722POPC   C3B53505  44.046  21.562   7.055
 9722POPC   C4B53506  44.091  21.486   7.355
 9723POPC   NC353507  39.960  27.592   5.555
 9723POPC   PO453508  40.025  27.627   5.855
 9723POPC   GL153509  39.968  27.610   6.155
 9723POPC   GL253510  39.894  27.589   6.155
 9723POPC   C1A53511  40.057  27.610   6.455
 9723POPC   D2A53512  40.047  27.574   6.755
 9723POPC   C3A53513  40.053  27.595   7.055
 9723POPC   C4A53514  40.044  27.614   7.355
 9723POPC   C1B53515  39.732  27.651   6.455
 9723POPC   C2B53516  39.716  27.658   6.755
 9723POPC   C3B53517  39.746  27.639   7.055
 9723POPC   C4B53518  39.722  27.651   7.355
 9724POPC   NC353519  39.992  18.252   5.555
 9724POPC   PO453520  40.033  18.278   5.855
 9724POPC   GL153521  39.989  18.250   6.155
 9724POPC   GL253522  40.110  18.359   6.155
 9724POPC   C1A53523  40.046  18.239   6.455
 9724POPC   D2A53524  39.993  18.300   6.755
 9724POPC   C3A53525  40.037  18.268   7.055
 9724POPC   C4A53526  39.972  18.247   7.355
 9724POPC   C1B53527  40.292  18.318   6.455
 9724POPC   C2B53528  40.227  18.376   6.755
 9724POPC   C3B53529  40.227  18.333   7.055
 9724POPC   C4B53530  40.267  18.330   7.355
 9725POPC   NC353531  27.587  15.935   5.555
 9725POPC   PO453532  27.603  15.931   5.855
 9725POPC   GL153533  27.596  15.980   6.155
 9725POPC   GL253534  27.622  16.073   6.155
 9725POPC   C1A53535  27.625  15.970   6.455
 9725POPC   D2A53536  27.586  15.931   6.755
 9725POPC   C3A53537  27.565  15.914   7.055
 9725POPC   C4A53538  27.554  15.953   7.355
 9725POPC   C1B53539  27.669  16.226   6.455
 9725POPC   C2B53540  27.693  16.186   6.755
 9725POPC   C3B53541  27.684  16.153   7.055
 9725POPC   C4B53542  27.630  16.215   7.355
 9726POPC   NC353543  22.140  12.096   5.555
 9726POPC   PO453544  22.175  12.065   5.855
 9726POPC   GL153545  22.195  12.027   6.155
 9726POPC   GL253546  22.199  11.992   6.155
 9726POPC   C1A53547  22.118  12.033   6.455
 9726POPC   D2A53548  22.120  12.125   6.755
 9726POPC   C3A53549  22.197  12.089   7.055
 9726POPC   C4A53550  22.158  12.074   7.355
 9726POPC   C1B53551  22.282  11.857   6.455
 9726POPC   C2B53552  22.272  11.797   6.755
 9726POPC   C3B53553  22.277  11.798   7.055
 9726POPC   C4B53554  22.246  11.884   7.355
 9727POPC   NC353555  19.866  38.415   5.555
 9727POPC   PO453556  19.872  38.468   5.855
 9727POPC   GL153557  19.786  38.405   6.155
 9727POPC   GL253558  19.768  38.328   6.155
 9727POPC   C1A53559  19.806  38.499   6.455
 9727POPC   D2A53560  19.811  38.491   6.755
 9727POPC   C3A53561  19.863  38.484   7.055
 9727POPC   C4A53562  19.878  38.486   7.355
 9727POPC   C1B53563  19.608  38.279   6.455
 9727POPC   C2B53564  19.597  38.350   6.755
 9727POPC   C3B53565  19.651  38.305   7.055
 9727POPC   C4B53566  19.653  38.257   7.355
 9728POPC   NC353567  35.378  36.947   5.555
 9728POPC   PO453568  35.349  36.899   5.855
 9728POPC   GL153569  35.356  36.902   6.155
 9728POPC   GL253570  35.411  36.812   6.155
 9728POPC   C1A53571  35.381  36.907   6.455
 9728POPC   D2A53572  35.351  36.925   6.755
 9728POPC   C3A53573  35.315  36.918   7.055
 9728POPC   C4A53574  35.329  36.861   7.355
 9728POPC   C1B53575  35.551  36.658   6.455
 9728POPC   C2B53576  35.528  36.694   6.755
 9728POPC   C3B53577  35.499  36.713   7.055
 9728POPC   C4B53578  35.522  36.662   7.355
 9729POPC   NC353579  15.969  36.865   5.555
 9729POPC   PO453580  15.930  36.858   5.855
 9729POPC   GL153581  15.995  36.866   6.155
 9729POPC   GL253582  16.070  36.821   6.155
 9729POPC   C1A53583  15.925  36.914   6.455
 9729POPC   D2A53584  15.935  36.867   6.755
 9729POPC   C3A53585  15.913  36.930   7.055
 9729POPC   C4A53586  15.936  36.901   7.355
 9729POPC   C1B53587  16.190  36.737   6.455
 9729POPC   C2B53588  16.152  36.791   6.755
 9729POPC   C3B53589  16.122  36.752   7.055
 9729POPC   C4B53590  16.172  36.776   7.355
 9730POPC   NC353591   9.798  37.707   5.555
 9730POPC   PO453592   9.780  37.639   5.855
 9730POPC   GL153593   9.787  37.672   6.155
 9730POPC   GL253594   9.722  37.796   6.155
 9730POPC   C1A53595   9.780  37.643   6.455
 9730POPC   D2A53596   9.768  37.684   6.755
 9730POPC   C3A53597   9.735  37.698   7.055
 9730POPC   C4A53598   9.728  37.671   7.355
 9730POPC   C1B53599   9.762  37.879   6.455
 9730POPC   C2B53600   9.748  37.926   6.755
 9730POPC   C3B53601   9.815  37.925   7.055
 9730POPC   C4B53602   9.764  37.877   7.355
 9731POPC   NC353603   9.764  28.367   5.555
 9731POPC   PO453604   9.706  28.388   5.855
 9731POPC   GL153605   9.746  28.323   6.155
 9731POPC   GL253606   9.624  28.360   6.155
 9731POPC   C1A53607   9.758  28.392   6.455
 9731POPC   D2A53608   9.776  28.418   6.755
 9731POPC   C3A53609   9.728  28.366   7.055
 9731POPC   C4A53610   9.761  28.323   7.355
 9731POPC   C1B53611   9.462  28.342   6.455
 9731POPC   C2B53612   9.529  28.346   6.755
 9731POPC   C3B53613   9.500  28.355   7.055
 9731POPC   C4B53614   9.455  28.382   7.355
 9732POPC   NC353615  11.333  20.576   5.555
 9732POPC   PO453616  11.287  20.572   5.855
 9732POPC   GL153617  11.320  20.640   6.155
 9732POPC   GL253618  11.238  20.591   6.155
 9732POPC   C1A53619  11.343  20.637   6.455
 9732POPC   D2A53620  11.322  20.643   6.755
 9732POPC   C3A53621  11.316  20.637   7.055
 9732POPC   C4A53622  11.302  20.629   7.355
 9732POPC   C1B53623  11.094  20.543   6.455
 9732POPC   C2B53624  11.101  20.460   6.755
 9732POPC   C3B53625  11.127  20.480   7.055
 9732POPC   C4B53626  11.105  20.446   7.355
 9733POPC   NC353627  28.346  44.659   5.555
 9733POPC   PO453628  28.407  44.641   5.855
 9733POPC   GL153629  28.401  44.656   6.155
 9733POPC   GL253630  28.419  44.777   6.155
 9733POPC   C1A53631  28.373  44.648   6.455
 9733POPC   D2A53632  28.378  44.668   6.755
 9733POPC   C3A53633  28.389  44.679   7.055
 9733POPC   C4A53634  28.397  44.663   7.355
 9733POPC   C1B53635  28.534  44.867   6.455
 9733POPC   C2B53636  28.535  44.883   6.755
 9733POPC   C3B53637  28.545  44.890   7.055
 9733POPC   C4B53638  28.514  44.859   7.355
 9734POPC   NC353639   7.468   2.812   5.555
 9734POPC   PO453640   7.381   2.745   5.855
 9734POPC   GL153641   7.410   2.737   6.155
 9734POPC   GL253642   7.255   2.775   6.155
 9734POPC   C1A53643   7.416   2.796   6.455
 9734POPC   D2A53644   7.378   2.767   6.755
 9734POPC   C3A53645   7.421   2.815   7.055
 9734POPC   C4A53646   7.465   2.749   7.355
 9734POPC   C1B53647   7.151   2.740   6.455
 9734POPC   C2B53648   7.131   2.785   6.755
 9734POPC   C3B53649   7.143   2.760   7.055
 9734POPC   C4B53650   7.204   2.782   7.355
 9735POPC   NC353651  40.809  40.771   5.555
 9735POPC   PO453652  40.742  40.790   5.855
 9735POPC   GL153653  40.735  40.810   6.155
 9735POPC   GL253654  40.657  40.832   6.155
 9735POPC   C1A53655  40.808  40.829   6.455
 9735POPC   D2A53656  40.830  40.745   6.755
 9735POPC   C3A53657  40.820  40.775   7.055
 9735POPC   C4A53658  40.801  40.810   7.355
 9735POPC   C1B53659  40.635  40.943   6.455
 9735POPC   C2B53660  40.623  41.019   6.755
 9735POPC   C3B53661  40.669  40.991   7.055
 9735POPC   C4B53662  40.674  41.020   7.355
 9736POPC   NC353663  33.819   2.742   5.555
 9736POPC   PO453664  33.752   2.743   5.855
 9736POPC   GL153665  33.785   2.733   6.155
 9736POPC   GL253666  33.838   2.906   6.155
 9736POPC   C1A53667  33.751   2.753   6.455
 9736POPC   D2A53668  33.785   2.758   6.755
 9736POPC   C3A53669  33.850   2.744   7.055
 9736POPC   C4A53670  33.759   2.806   7.355
 9736POPC   C1B53671  33.973   2.973   6.455
 9736POPC   C2B53672  33.956   2.932   6.755
 9736POPC   C3B53673  33.925   2.907   7.055
 9736POPC   C4B53674  33.921   2.933   7.355
 9737POPC   NC353675  22.137  11.265   5.555
 9737POPC   PO453676  22.197  11.315   5.855
 9737POPC   GL153677  22.173  11.256   6.155
 9737POPC   GL253678  22.081  11.373   6.155
 9737POPC   C1A53679  22.186  11.253   6.455
 9737POPC   D2A53680  22.131  11.342   6.755
 9737POPC   C3A53681  22.177  11.306   7.055
 9737POPC   C4A53682  22.164  11.281   7.355
 9737POPC   C1B53683  22.025  11.541   6.455
 9737POPC   C2B53684  22.023  11.467   6.755
 9737POPC   C3B53685  22.074  11.533   7.055
 9737POPC   C4B53686  22.072  11.475   7.355
 9738POPC   NC353687  38.446  42.360   5.555
 9738POPC   PO453688  38.452  42.298   5.855
 9738POPC   GL153689  38.430  42.298   6.155
 9738POPC   GL253690  38.590  42.337   6.155
 9738POPC   C1A53691  38.451  42.297   6.455
 9738POPC   D2A53692  38.440  42.370   6.755
 9738POPC   C3A53693  38.472  42.344   7.055
 9738POPC   C4A53694  38.441  42.351   7.355
 9738POPC   C1B53695  38.666  42.397   6.455
 9738POPC   C2B53696  38.727  42.359   6.755
 9738POPC   C3B53697  38.694  42.343   7.055
 9738POPC   C4B53698  38.748  42.336   7.355
 9739POPC   NC353699   5.859  29.960   5.555
 9739POPC   PO453700   5.843  29.887   5.855
 9739POPC   GL153701   5.869  29.953   6.155
 9739POPC   GL253702   5.969  29.987   6.155
 9739POPC   C1A53703   5.848  29.965   6.455
 9739POPC   D2A53704   5.904  29.961   6.755
 9739POPC   C3A53705   5.824  29.931   7.055
 9739POPC   C4A53706   5.884  29.909   7.355
 9739POPC   C1B53707   6.050  30.122   6.455
 9739POPC   C2B53708   6.074  30.096   6.755
 9739POPC   C3B53709   6.096  30.097   7.055
 9739POPC   C4B53710   6.087  30.103   7.355
 9740POPC   NC353711  43.888  37.644   5.555
 9740POPC   PO453712  43.896  37.651   5.855
 9740POPC   GL153713  43.846  37.683   6.155
 9740POPC   GL253714  43.759  37.674   6.155
 9740POPC   C1A53715  43.919  37.723   6.455
 9740POPC   D2A53716  43.857  37.633   6.755
 9740POPC   C3A53717  43.919  37.690   7.055
 9740POPC   C4A53718  43.907  37.725   7.355
 9740POPC   C1B53719  43.657  37.649   6.455
 9740POPC   C2B53720  43.649  37.677   6.755
 9740POPC   C3B53721  43.661  37.669   7.055
 9740POPC   C4B53722  43.666  37.691   7.355
 9741POPC   NC353723  36.154  12.071   5.555
 9741POPC   PO453724  36.111  12.109   5.855
 9741POPC   GL153725  36.155  12.096   6.155
 9741POPC   GL253726  36.122  12.162   6.155
 9741POPC   C1A53727  36.086  12.092   6.455
 9741POPC   D2A53728  36.103  12.034   6.755
 9741POPC   C3A53729  36.092  12.070   7.055
 9741POPC   C4A53730  36.121  12.070   7.355
 9741POPC   C1B53731  36.231  12.266   6.455
 9741POPC   C2B53732  36.245  12.302   6.755
 9741POPC   C3B53733  36.185  12.277   7.055
 9741POPC   C4B53734  36.254  12.284   7.355
 9742POPC   NC353735  34.577   5.043   5.555
 9742POPC   PO453736  34.564   5.134   5.855
 9742POPC   GL153737  34.600   5.066   6.155
 9742POPC   GL253738  34.641   5.004   6.155
 9742POPC   C1A53739  34.610   5.096   6.455
 9742POPC   D2A53740  34.580   5.064   6.755
 9742POPC   C3A53741  34.596   5.062   7.055
 9742POPC   C4A53742  34.555   5.102   7.355
 9742POPC   C1B53743  34.705   4.938   6.455
 9742POPC   C2B53744  34.715   4.900   6.755
 9742POPC   C3B53745  34.694   4.932   7.055
 9742POPC   C4B53746  34.776   4.949   7.355
 9743POPC   NC353747  38.482  37.697   5.555
 9743POPC   PO453748  38.423  37.640   5.855
 9743POPC   GL153749  38.432  37.712   6.155
 9743POPC   GL253750  38.467  37.516   6.155
 9743POPC   C1A53751  38.478  37.698   6.455
 9743POPC   D2A53752  38.409  37.666   6.755
 9743POPC   C3A53753  38.446  37.708   7.055
 9743POPC   C4A53754  38.406  37.704   7.355
 9743POPC   C1B53755  38.522  37.418   6.455
 9743POPC   C2B53756  38.434  37.433   6.755
 9743POPC   C3B53757  38.489  37.457   7.055
 9743POPC   C4B53758  38.517  37.464   7.355
 9744POPC   NC353759  19.844   2.030   5.555
 9744POPC   PO453760  19.803   1.947   5.855
 9744POPC   GL153761  19.841   1.966   6.155
 9744POPC   GL253762  19.800   1.835   6.155
 9744POPC   C1A53763  19.857   1.945   6.455
 9744POPC   D2A53764  19.829   1.945   6.755
 9744POPC   C3A53765  19.808   2.011   7.055
 9744POPC   C4A53766  19.850   1.987   7.355
 9744POPC   C1B53767  19.663   1.800   6.455
 9744POPC   C2B53768  19.705   1.750   6.755
 9744POPC   C3B53769  19.696   1.729   7.055
 9744POPC   C4B53770  19.688   1.803   7.355
 9745POPC   NC353771  39.202   5.866   5.555
 9745POPC   PO453772  39.189   5.878   5.855
 9745POPC   GL153773  39.238   5.868   6.155
 9745POPC   GL253774  39.234   5.786   6.155
 9745POPC   C1A53775  39.183   5.834   6.455
 9745POPC   D2A53776  39.211   5.867   6.755
 9745POPC   C3A53777  39.190   5.837   7.055
 9745POPC   C4A53778  39.218   5.883   7.355
 9745POPC   C1B53779  39.329   5.663   6.455
 9745POPC   C2B53780  39.294   5.678   6.755
 9745POPC   C3B53781  39.257   5.673   7.055
 9745POPC   C4B53782  39.307   5.614   7.355
 9746POPC   NC353783  31.477  43.925   5.555
 9746POPC   PO453784  31.513  43.837   5.855
 9746POPC   GL153785  31.493  43.890   6.155
 9746POPC   GL253786  31.640  43.837   6.155
 9746POPC   C1A53787  31.481  43.877   6.455
 9746POPC   D2A53788  31.451  43.903   6.755
 9746POPC   C3A53789  31.505  43.848   7.055
 9746POPC   C4A53790  31.442  43.865   7.355
 9746POPC   C1B53791  31.684  43.825   6.455
 9746POPC   C2B53792  31.726  43.799   6.755
 9746POPC   C3B53793  31.709  43.890   7.055
 9746POPC   C4B53794  31.695  43.872   7.355
 9747POPC   NC353795   4.292  17.524   5.555
 9747POPC   PO453796   4.336  17.549   5.855
 9747POPC   GL153797   4.346  17.502   6.155
 9747POPC   GL253798   4.346  17.589   6.155
 9747POPC   C1A53799   4.309  17.523   6.455
 9747POPC   D2A53800   4.353  17.476   6.755
 9747POPC   C3A53801   4.309  17.503   7.055
 9747POPC   C4A53802   4.287  17.457   7.355
 9747POPC   C1B53803   4.478  17.764   6.455
 9747POPC   C2B53804   4.467  17.750   6.755
 9747POPC   C3B53805   4.475  17.688   7.055
 9747POPC   C4B53806   4.440  17.737   7.355
 9748POPC   NC353807  18.298  33.802   5.555
 9748POPC   PO453808  18.294  33.794   5.855
 9748POPC   GL153809  18.259  33.790   6.155
 9748POPC   GL253810  18.189  33.910   6.155
 9748POPC   C1A53811  18.277  33.771   6.455
 9748POPC   D2A53812  18.293  33.781   6.755
 9748POPC   C3A53813  18.257  33.770   7.055
 9748POPC   C4A53814  18.234  33.753   7.355
 9748POPC   C1B53815  18.133  33.927   6.455
 9748POPC   C2B53816  18.050  33.993   6.755
 9748POPC   C3B53817  18.122  34.012   7.055
 9748POPC   C4B53818  18.098  33.997   7.355
 9749POPC   NC353819   4.304  12.855   5.555
 9749POPC   PO453820   4.359  12.856   5.855
 9749POPC   GL153821   4.337  12.898   6.155
 9749POPC   GL253822   4.176  12.772   6.155
 9749POPC   C1A53823   4.305  12.806   6.455
 9749POPC   D2A53824   4.332  12.846   6.755
 9749POPC   C3A53825   4.270  12.871   7.055
 9749POPC   C4A53826   4.357  12.835   7.355
 9749POPC   C1B53827   4.121  12.726   6.455
 9749POPC   C2B53828   4.113  12.759   6.755
 9749POPC   C3B53829   4.106  12.785   7.055
 9749POPC   C4B53830   4.040  12.759   7.355
 9750POPC   NC353831  31.489   1.981   5.555
 9750POPC   PO453832  31.466   2.022   5.855
 9750POPC   GL153833  31.507   1.993   6.155
 9750POPC   GL253834  31.540   1.845   6.155
 9750POPC   C1A53835  31.517   1.978   6.455
 9750POPC   D2A53836  31.469   1.991   6.755
 9750POPC   C3A53837  31.482   1.999   7.055
 9750POPC   C4A53838  31.430   1.968   7.355
 9750POPC   C1B53839  31.597   1.761   6.455
 9750POPC   C2B53840  31.531   1.743   6.755
 9750POPC   C3B53841  31.527   1.754   7.055
 9750POPC   C4B53842  31.534   1.738   7.355
 9751POPC   NC353843  16.755  40.772   5.555
 9751POPC   PO453844  16.727  40.805   5.855
 9751POPC   GL153845  16.686  40.789   6.155
 9751POPC   GL253846  16.627  40.694   6.155
 9751POPC   C1A53847  16.779  40.800   6.455
 9751POPC   D2A53848  16.706  40.812   6.755
 9751POPC   C3A53849  16.705  40.784   7.055
 9751POPC   C4A53850  16.764  40.742   7.355
 9751POPC   C1B53851  16.578  40.583   6.455
 9751POPC   C2B53852  16.587  40.520   6.755
 9751POPC   C3B53853  16.622  40.533   7.055
 9751POPC   C4B53854  16.570  40.557   7.355
 9752POPC   NC353855  29.926  28.417   5.555
 9752POPC   PO453856  29.942  28.404   5.855
 9752POPC   GL153857  29.933  28.390   6.155
 9752POPC   GL253858  29.821  28.379   6.155
 9752POPC   C1A53859  29.877  28.367   6.455
 9752POPC   D2A53860  29.905  28.407   6.755
 9752POPC   C3A53861  29.875  28.416   7.055
 9752POPC   C4A53862  29.928  28.361   7.355
 9752POPC   C1B53863  29.673  28.385   6.455
 9752POPC   C2B53864  29.677  28.387   6.755
 9752POPC   C3B53865  29.651  28.334   7.055
 9752POPC   C4B53866  29.660  28.307   7.355
 9753POPC   NC353867  21.369   5.821   5.555
 9753POPC   PO453868  21.402   5.897   5.855
 9753POPC   GL153869  21.387   5.824   6.155
 9753POPC   GL253870  21.365   5.773   6.155
 9753POPC   C1A53871  21.345   5.871   6.455
 9753POPC   D2A53872  21.388   5.899   6.755
 9753POPC   C3A53873  21.399   5.875   7.055
 9753POPC   C4A53874  21.397   5.904   7.355
 9753POPC   C1B53875  21.280   5.592   6.455
 9753POPC   C2B53876  21.288   5.683   6.755
 9753POPC   C3B53877  21.297   5.607   7.055
 9753POPC   C4B53878  21.279   5.627   7.355
 9754POPC   NC353879  33.793   4.268   5.555
 9754POPC   PO453880  33.756   4.308   5.855
 9754POPC   GL153881  33.788   4.283   6.155
 9754POPC   GL253882  33.738   4.248   6.155
 9754POPC   C1A53883  33.767   4.293   6.455
 9754POPC   D2A53884  33.760   4.365   6.755
 9754POPC   C3A53885  33.844   4.308   7.055
 9754POPC   C4A53886  33.816   4.299   7.355
 9754POPC   C1B53887  33.672   4.128   6.455
 9754POPC   C2B53888  33.700   4.066   6.755
 9754POPC   C3B53889  33.684   4.043   7.055
 9754POPC   C4B53890  33.653   4.114   7.355
 9755POPC   NC353891   0.392  26.021   5.555
 9755POPC   PO453892   0.413  26.026   5.855
 9755POPC   GL153893   0.482  26.033   6.155
 9755POPC   GL253894   0.414  26.201   6.155
 9755POPC   C1A53895   0.434  26.036   6.455
 9755POPC   D2A53896   0.439  26.069   6.755
 9755POPC   C3A53897   0.438  26.002   7.055
 9755POPC   C4A53898   0.419  26.036   7.355
 9755POPC   C1B53899   0.303  26.291   6.455
 9755POPC   C2B53900   0.294  26.279   6.755
 9755POPC   C3B53901   0.372  26.222   7.055
 9755POPC   C4B53902   0.289  26.270   7.355
 9756POPC   NC353903  43.147   0.480   5.555
 9756POPC   PO453904  43.117   0.436   5.855
 9756POPC   GL153905  43.107   0.419   6.155
 9756POPC   GL253906  43.114   0.604   6.155
 9756POPC   C1A53907  43.082   0.475   6.455
 9756POPC   D2A53908  43.064   0.411   6.755
 9756POPC   C3A53909  43.151   0.478   7.055
 9756POPC   C4A53910  43.115   0.397   7.355
 9756POPC   C1B53911  43.159   0.686   6.455
 9756POPC   C2B53912  43.108   0.642   6.755
 9756POPC   C3B53913  43.107   0.699   7.055
 9756POPC   C4B53914  43.109   0.651   7.355
 9757POPC   NC353915   8.945  18.315   5.555
 9757POPC   PO453916   9.012  18.294   5.855
 9757POPC   GL153917   8.933  18.325   6.155
 9757POPC   GL253918   8.830  18.230   6.155
 9757POPC   C1A53919   8.989  18.331   6.455
 9757POPC   D2A53920   8.951  18.281   6.755
 9757POPC   C3A53921   8.992  18.281   7.055
 9757POPC   C4A53922   8.967  18.327   7.355
 9757POPC   C1B53923   8.795  18.111   6.455
 9757POPC   C2B53924   8.782  18.085   6.755
 9757POPC   C3B53925   8.827  18.079   7.055
 9757POPC   C4B53926   8.815  18.162   7.355
 9758POPC   NC353927  43.861   8.950   5.555
 9758POPC   PO453928  43.888   8.930   5.855
 9758POPC   GL153929  43.926   9.010   6.155
 9758POPC   GL253930  43.926   8.906   6.155
 9758POPC   C1A53931  43.936   8.987   6.455
 9758POPC   D2A53932  43.881   9.019   6.755
 9758POPC   C3A53933  43.897   9.019   7.055
 9758POPC   C4A53934  43.867   8.965   7.355
 9758POPC   C1B53935  44.073   8.808   6.455
 9758POPC   C2B53936  44.083   8.741   6.755
 9758POPC   C3B53937  44.066   8.809   7.055
 9758POPC   C4B53938  44.057   8.787   7.355
 9759POPC   NC353939   8.148  20.618   5.555
 9759POPC   PO453940   8.171  20.656   5.855
 9759POPC   GL153941   8.216  20.593   6.155
 9759POPC   GL253942   8.294  20.605   6.155
 9759POPC   C1A53943   8.226  20.595   6.455
 9759POPC   D2A53944   8.225  20.596   6.755
 9759POPC   C3A53945   8.242  20.620   7.055
 9759POPC   C4A53946   8.246  20.614   7.355
 9759POPC   C1B53947   8.472  20.571   6.455
 9759POPC   C2B53948   8.492  20.539   6.755
 9759POPC   C3B53949   8.460  20.546   7.055
 9759POPC   C4B53950   8.465  20.592   7.355
 9760POPC   NC353951  37.691  28.385   5.555
 9760POPC   PO453952  37.643  28.380   5.855
 9760POPC   GL153953  37.637  28.327   6.155
 9760POPC   GL253954  37.685  28.444   6.155
 9760POPC   C1A53955  37.729  28.345   6.455
 9760POPC   D2A53956  37.716  28.419   6.755
 9760POPC   C3A53957  37.672  28.419   7.055
 9760POPC   C4A53958  37.673  28.328   7.355
 9760POPC   C1B53959  37.589  28.620   6.455
 9760POPC   C2B53960  37.584  28.602   6.755
 9760POPC   C3B53961  37.653  28.620   7.055
 9760POPC   C4B53962  37.577  28.577   7.355
 9761POPC   NC353963  43.892  32.203   5.555
 9761POPC   PO453964  43.923  32.264   5.855
 9761POPC   GL153965  43.854  32.223   6.155
 9761POPC   GL253966  43.834  32.344   6.155
 9761POPC   C1A53967  43.852  32.221   6.455
 9761POPC   D2A53968  43.859  32.225   6.755
 9761POPC   C3A53969  43.911  32.266   7.055
 9761POPC   C4A53970  43.838  32.230   7.355
 9761POPC   C1B53971  43.748  32.427   6.455
 9761POPC   C2B53972  43.734  32.446   6.755
 9761POPC   C3B53973  43.733  32.468   7.055
 9761POPC   C4B53974  43.733  32.469   7.355
 9762POPC   NC353975  23.695  39.219   5.555
 9762POPC   PO453976  23.670  39.225   5.855
 9762POPC   GL153977  23.741  39.227   6.155
 9762POPC   GL253978  23.703  39.310   6.155
 9762POPC   C1A53979  23.691  39.218   6.455
 9762POPC   D2A53980  23.682  39.190   6.755
 9762POPC   C3A53981  23.678  39.210   7.055
 9762POPC   C4A53982  23.754  39.204   7.355
 9762POPC   C1B53983  23.759  39.436   6.455
 9762POPC   C2B53984  23.714  39.476   6.755
 9762POPC   C3B53985  23.776  39.468   7.055
 9762POPC   C4B53986  23.729  39.500   7.355
 9763POPC   NC353987  19.883  13.578   5.555
 9763POPC   PO453988  19.786  13.649   5.855
 9763POPC   GL153989  19.880  13.646   6.155
 9763POPC   GL253990  19.878  13.737   6.155
 9763POPC   C1A53991  19.819  13.636   6.455
 9763POPC   D2A53992  19.869  13.667   6.755
 9763POPC   C3A53993  19.793  13.578   7.055
 9763POPC   C4A53994  19.845  13.625   7.355
 9763POPC   C1B53995  20.033  13.829   6.455
 9763POPC   C2B53996  19.949  13.815   6.755
 9763POPC   C3B53997  20.013  13.803   7.055
 9763POPC   C4B53998  20.006  13.859   7.355
 9764POPC   NC353999  14.440  37.726   5.555
 9764POPC   PO454000  14.376  37.702   5.855
 9764POPC   GL154001  14.375  37.704   6.155
 9764POPC   GL254002  14.402  37.850   6.155
 9764POPC   C1A54003  14.423  37.640   6.455
 9764POPC   D2A54004  14.445  37.665   6.755
 9764POPC   C3A54005  14.354  37.685   7.055
 9764POPC   C4A54006  14.402  37.665   7.355
 9764POPC   C1B54007  14.408  37.902   6.455
 9764POPC   C2B54008  14.368  37.971   6.755
 9764POPC   C3B54009  14.384  37.895   7.055
 9764POPC   C4B54010  14.417  37.895   7.355
 9765POPC   NC354011  39.191  28.333   5.555
 9765POPC   PO454012  39.254  28.325   5.855
 9765POPC   GL154013  39.234  28.398   6.155
 9765POPC   GL254014  39.162  28.438   6.155
 9765POPC   C1A54015  39.183  28.352   6.455
 9765POPC   D2A54016  39.268  28.388   6.755
 9765POPC   C3A54017  39.229  28.363   7.055
 9765POPC   C4A54018  39.277  28.370   7.355
 9765POPC   C1B54019  39.106  28.625   6.455
 9765POPC   C2B54020  39.129  28.582   6.755
 9765POPC   C3B54021  39.077  28.584   7.055
 9765POPC   C4B54022  39.175  28.582   7.355
 9766POPC   NC354023   5.066  35.367   5.555
 9766POPC   PO454024   5.062  35.363   5.855
 9766POPC   GL154025   5.079  35.363   6.155
 9766POPC   GL254026   5.072  35.491   6.155
 9766POPC   C1A54027   5.120  35.342   6.455
 9766POPC   D2A54028   5.091  35.339   6.755
 9766POPC   C3A54029   5.065  35.313   7.055
 9766POPC   C4A54030   5.099  35.337   7.355
 9766POPC   C1B54031   5.008  35.547   6.455
 9766POPC   C2B54032   4.936  35.606   6.755
 9766POPC   C3B54033   4.995  35.566   7.055
 9766POPC   C4B54034   4.929  35.613   7.355
 9767POPC   NC354035   5.046   1.993   5.555
 9767POPC   PO454036   5.119   1.979   5.855
 9767POPC   GL154037   5.135   2.034   6.155
 9767POPC   GL254038   5.210   2.088   6.155
 9767POPC   C1A54039   5.105   1.989   6.455
 9767POPC   D2A54040   5.139   1.951   6.755
 9767POPC   C3A54041   5.073   1.950   7.055
 9767POPC   C4A54042   5.101   1.982   7.355
 9767POPC   C1B54043   5.271   2.116   6.455
 9767POPC   C2B54044   5.247   2.099   6.755
 9767POPC   C3B54045   5.266   2.183   7.055
 9767POPC   C4B54046   5.324   2.179   7.355
 9768POPC   NC354047   8.982   3.493   5.555
 9768POPC   PO454048   8.953   3.550   5.855
 9768POPC   GL154049   8.977   3.552   6.155
 9768POPC   GL254050   8.935   3.442   6.155
 9768POPC   C1A54051   9.016   3.565   6.455
 9768POPC   D2A54052   9.016   3.500   6.755
 9768POPC   C3A54053   8.979   3.556   7.055
 9768POPC   C4A54054   8.963   3.578   7.355
 9768POPC   C1B54055   8.846   3.337   6.455
 9768POPC   C2B54056   8.851   3.281   6.755
 9768POPC   C3B54057   8.876   3.343   7.055
 9768POPC   C4B54058   8.910   3.335   7.355
 9769POPC   NC354059  32.231  26.843   5.555
 9769POPC   PO454060  32.221  26.821   5.855
 9769POPC   GL154061  32.237  26.839   6.155
 9769POPC   GL254062  32.356  26.846   6.155
 9769POPC   C1A54063  32.290  26.839   6.455
 9769POPC   D2A54064  32.202  26.802   6.755
 9769POPC   C3A54065  32.260  26.791   7.055
 9769POPC   C4A54066  32.217  26.782   7.355
 9769POPC   C1B54067  32.538  26.878   6.455
 9769POPC   C2B54068  32.446  26.879   6.755
 9769POPC   C3B54069  32.452  26.891   7.055
 9769POPC   C4B54070  32.520  26.842   7.355
 9770POPC   NC354071  22.889  10.489   5.555
 9770POPC   PO454072  22.987  10.552   5.855
 9770POPC   GL154073  22.953  10.551   6.155
 9770POPC   GL254074  22.804  10.441   6.155
 9770POPC   C1A54075  22.915  10.548   6.455
 9770POPC   D2A54076  22.911  10.479   6.755
 9770POPC   C3A54077  22.968  10.553   7.055
 9770POPC   C4A54078  22.918  10.570   7.355
 9770POPC   C1B54079  22.715  10.406   6.455
 9770POPC   C2B54080  22.708  10.449   6.755
 9770POPC   C3B54081  22.756  10.401   7.055
 9770POPC   C4B54082  22.750  10.380   7.355
 9771POPC   NC354083  42.312   3.561   5.555
 9771POPC   PO454084  42.336   3.508   5.855
 9771POPC   GL154085  42.327   3.550   6.155
 9771POPC   GL254086  42.446   3.640   6.155
 9771POPC   C1A54087  42.362   3.561   6.455
 9771POPC   D2A54088  42.303   3.534   6.755
 9771POPC   C3A54089  42.332   3.545   7.055
 9771POPC   C4A54090  42.340   3.509   7.355
 9771POPC   C1B54091  42.542   3.619   6.455
 9771POPC   C2B54092  42.546   3.693   6.755
 9771POPC   C3B54093  42.533   3.670   7.055
 9771POPC   C4B54094  42.601   3.630   7.355
 9772POPC   NC354095  22.177  15.914   5.555
 9772POPC   PO454096  22.115  15.964   5.855
 9772POPC   GL154097  22.146  15.984   6.155
 9772POPC   GL254098  22.026  15.999   6.155
 9772POPC   C1A54099  22.173  15.956   6.455
 9772POPC   D2A54100  22.143  15.943   6.755
 9772POPC   C3A54101  22.175  15.912   7.055
 9772POPC   C4A54102  22.137  15.922   7.355
 9772POPC   C1B54103  21.921  16.074   6.455
 9772POPC   C2B54104  21.920  16.124   6.755
 9772POPC   C3B54105  21.922  16.109   7.055
 9772POPC   C4B54106  22.016  16.111   7.355
 9773POPC   NC354107  28.396  17.536   5.555
 9773POPC   PO454108  28.401  17.460   5.855
 9773POPC   GL154109  28.408  17.544   6.155
 9773POPC   GL254110  28.395  17.409   6.155
 9773POPC   C1A54111  28.394  17.474   6.455
 9773POPC   D2A54112  28.344  17.499   6.755
 9773POPC   C3A54113  28.328  17.458   7.055
 9773POPC   C4A54114  28.416  17.499   7.355
 9773POPC   C1B54115  28.392  17.279   6.455
 9773POPC   C2B54116  28.429  17.239   6.755
 9773POPC   C3B54117  28.418  17.251   7.055
 9773POPC   C4B54118  28.392  17.269   7.355
 9774POPC   NC354119  44.627  28.369   5.555
 9774POPC   PO454120  44.614  28.341   5.855
 9774POPC   GL154121  44.665  28.352   6.155
 9774POPC   GL254122  44.790  28.449   6.155
 9774POPC   C1A54123  44.624  28.338   6.455
 9774POPC   D2A54124  44.634  28.382   6.755
 9774POPC   C3A54125  44.686  28.416   7.055
 9774POPC   C4A54126  44.677  28.392   7.355
 9774POPC   C1B54127  44.895  28.543   6.455
 9774POPC   C2B54128  44.825  28.502   6.755
 9774POPC   C3B54129  44.837  28.477   7.055
 9774POPC   C4B54130  44.881  28.475   7.355
 9775POPC   NC354131  10.493  43.865   5.555
 9775POPC   PO454132  10.549  43.932   5.855
 9775POPC   GL154133  10.543  43.919   6.155
 9775POPC   GL254134  10.608  43.816   6.155
 9775POPC   C1A54135  10.564  43.927   6.455
 9775POPC   D2A54136  10.512  43.859   6.755
 9775POPC   C3A54137  10.527  43.843   7.055
 9775POPC   C4A54138  10.482  43.883   7.355
 9775POPC   C1B54139  10.786  43.805   6.455
 9775POPC   C2B54140  10.788  43.795   6.755
 9775POPC   C3B54141  10.732  43.800   7.055
 9775POPC   C4B54142  10.804  43.793   7.355
 9776POPC   NC354143   1.952   6.661   5.555
 9776POPC   PO454144   1.952   6.657   5.855
 9776POPC   GL154145   1.987   6.638   6.155
 9776POPC   GL254146   1.914   6.743   6.155
 9776POPC   C1A54147   1.989   6.681   6.455
 9776POPC   D2A54148   1.946   6.614   6.755
 9776POPC   C3A54149   2.027   6.643   7.055
 9776POPC   C4A54150   1.959   6.631   7.355
 9776POPC   C1B54151   1.739   6.731   6.455
 9776POPC   C2B54152   1.745   6.781   6.755
 9776POPC   C3B54153   1.747   6.717   7.055
 9776POPC   C4B54154   1.742   6.780   7.355
 9777POPC   NC354155  43.882  28.397   5.555
 9777POPC   PO454156  43.882  28.410   5.855
 9777POPC   GL154157  43.935  28.376   6.155
 9777POPC   GL254158  43.760  28.350   6.155
 9777POPC   C1A54159  43.900  28.348   6.455
 9777POPC   D2A54160  43.861  28.356   6.755
 9777POPC   C3A54161  43.865  28.390   7.055
 9777POPC   C4A54162  43.846  28.381   7.355
 9777POPC   C1B54163  43.615  28.372   6.455
 9777POPC   C2B54164  43.607  28.366   6.755
 9777POPC   C3B54165  43.616  28.385   7.055
 9777POPC   C4B54166  43.619  28.377   7.355
 9778POPC   NC354167  42.380   1.954   5.555
 9778POPC   PO454168  42.330   2.004   5.855
 9778POPC   GL154169  42.302   1.980   6.155
 9778POPC   GL254170  42.442   1.942   6.155
 9778POPC   C1A54171  42.382   1.941   6.455
 9778POPC   D2A54172  42.306   1.998   6.755
 9778POPC   C3A54173  42.285   1.953   7.055
 9778POPC   C4A54174  42.351   2.013   7.355
 9778POPC   C1B54175  42.581   1.965   6.455
 9778POPC   C2B54176  42.600   1.915   6.755
 9778POPC   C3B54177  42.604   1.906   7.055
 9778POPC   C4B54178  42.612   1.952   7.355
 9779POPC   NC354179  16.731   8.944   5.555
 9779POPC   PO454180  16.748   8.970   5.855
 9779POPC   GL154181  16.732   8.953   6.155
 9779POPC   GL254182  16.684   8.870   6.155
 9779POPC   C1A54183  16.692   8.923   6.455
 9779POPC   D2A54184  16.689   9.010   6.755
 9779POPC   C3A54185  16.777   8.950   7.055
 9779POPC   C4A54186  16.731   8.952   7.355
 9779POPC   C1B54187  16.627   8.754   6.455
 9779POPC   C2B54188  16.639   8.765   6.755
 9779POPC   C3B54189  16.553   8.728   7.055
 9779POPC   C4B54190  16.581   8.808   7.355
 9780POPC   NC354191  21.403  15.987   5.555
 9780POPC   PO454192  21.365  15.989   5.855
 9780POPC   GL154193  21.381  15.998   6.155
 9780POPC   GL254194  21.363  16.101   6.155
 9780POPC   C1A54195  21.404  15.922   6.455
 9780POPC   D2A54196  21.425  15.979   6.755
 9780POPC   C3A54197  21.365  15.959   7.055
 9780POPC   C4A54198  21.346  15.937   7.355
 9780POPC   C1B54199  21.363  16.164   6.455
 9780POPC   C2B54200  21.352  16.243   6.755
 9780POPC   C3B54201  21.351  16.224   7.055
 9780POPC   C4B54202  21.384  16.174   7.355
 9781POPC   NC354203  27.555  22.969   5.555
 9781POPC   PO454204  27.618  22.917   5.855
 9781POPC   GL154205  27.546  22.946   6.155
 9781POPC   GL254206  27.566  23.023   6.155
 9781POPC   C1A54207  27.616  22.921   6.455
 9781POPC   D2A54208  27.553  22.930   6.755
 9781POPC   C3A54209  27.575  22.917   7.055
 9781POPC   C4A54210  27.585  22.895   7.355
 9781POPC   C1B54211  27.588  23.171   6.455
 9781POPC   C2B54212  27.648  23.143   6.755
 9781POPC   C3B54213  27.613  23.143   7.055
 9781POPC   C4B54214  27.664  23.217   7.355
 9782POPC   NC354215   3.531  14.361   5.555
 9782POPC   PO454216   3.589  14.403   5.855
 9782POPC   GL154217   3.544  14.440   6.155
 9782POPC   GL254218   3.669  14.358   6.155
 9782POPC   C1A54219   3.530  14.425   6.455
 9782POPC   D2A54220   3.590  14.402   6.755
 9782POPC   C3A54221   3.527  14.420   7.055
 9782POPC   C4A54222   3.580  14.427   7.355
 9782POPC   C1B54223   3.785  14.350   6.455
 9782POPC   C2B54224   3.827  14.369   6.755
 9782POPC   C3B54225   3.766  14.392   7.055
 9782POPC   C4B54226   3.825  14.350   7.355
 9783POPC   NC354227   1.184  26.841   5.555
 9783POPC   PO454228   1.172  26.828   5.855
 9783POPC   GL154229   1.209  26.785   6.155
 9783POPC   GL254230   1.308  26.849   6.155
 9783POPC   C1A54231   1.217  26.790   6.455
 9783POPC   D2A54232   1.171  26.850   6.755
 9783POPC   C3A54233   1.201  26.789   7.055
 9783POPC   C4A54234   1.202  26.836   7.355
 9783POPC   C1B54235   1.490  26.932   6.455
 9783POPC   C2B54236   1.482  26.877   6.755
 9783POPC   C3B54237   1.446  26.911   7.055
 9783POPC   C4B54238   1.410  26.906   7.355
 9784POPC   NC354239  36.092  22.918   5.555
 9784POPC   PO454240  36.132  22.905   5.855
 9784POPC   GL154241  36.157  22.985   6.155
 9784POPC   GL254242  36.261  22.862   6.155
 9784POPC   C1A54243  36.090  22.918   6.455
 9784POPC   D2A54244  36.084  22.935   6.755
 9784POPC   C3A54245  36.171  22.895   7.055
 9784POPC   C4A54246  36.158  22.916   7.355
 9784POPC   C1B54247  36.381  22.832   6.455
 9784POPC   C2B54248  36.338  22.834   6.755
 9784POPC   C3B54249  36.390  22.853   7.055
 9784POPC   C4B54250  36.390  22.764   7.355
 9785POPC   NC354251  19.037  38.483   5.555
 9785POPC   PO454252  19.054  38.428   5.855
 9785POPC   GL154253  19.030  38.457   6.155
 9785POPC   GL254254  19.222  38.449   6.155
 9785POPC   C1A54255  19.083  38.489   6.455
 9785POPC   D2A54256  19.045  38.486   6.755
 9785POPC   C3A54257  19.049  38.487   7.055
 9785POPC   C4A54258  19.058  38.461   7.355
 9785POPC   C1B54259  19.290  38.460   6.455
 9785POPC   C2B54260  19.270  38.481   6.755
 9785POPC   C3B54261  19.350  38.477   7.055
 9785POPC   C4B54262  19.287  38.485   7.355
 9786POPC   NC354263  25.306  31.494   5.555
 9786POPC   PO454264  25.264  31.490   5.855
 9786POPC   GL154265  25.274  31.488   6.155
 9786POPC   GL254266  25.137  31.458   6.155
 9786POPC   C1A54267  25.282  31.479   6.455
 9786POPC   D2A54268  25.233  31.438   6.755
 9786POPC   C3A54269  25.305  31.473   7.055
 9786POPC   C4A54270  25.259  31.479   7.355
 9786POPC   C1B54271  24.999  31.482   6.455
 9786POPC   C2B54272  25.066  31.513   6.755
 9786POPC   C3B54273  24.972  31.496   7.055
 9786POPC   C4B54274  24.992  31.486   7.355
 9787POPC   NC354275  12.822  26.841   5.555
 9787POPC   PO454276  12.828  26.855   5.855
 9787POPC   GL154277  12.896  26.858   6.155
 9787POPC   GL254278  12.846  26.742   6.155
 9787POPC   C1A54279  12.854  26.821   6.455
 9787POPC   D2A54280  12.810  26.809   6.755
 9787POPC   C3A54281  12.828  26.831   7.055
 9787POPC   C4A54282  12.848  26.844   7.355
 9787POPC   C1B54283  12.852  26.577   6.455
 9787POPC   C2B54284  12.871  26.592   6.755
 9787POPC   C3B54285  12.884  26.535   7.055
 9787POPC   C4B54286  12.841  26.537   7.355
 9788POPC   NC354287  32.279  18.291   5.555
 9788POPC   PO454288  32.217  18.326   5.855
 9788POPC   GL154289  32.240  18.316   6.155
 9788POPC   GL254290  32.404  18.261   6.155
 9788POPC   C1A54291  32.235  18.321   6.455
 9788POPC   D2A54292  32.264  18.237   6.755
 9788POPC   C3A54293  32.253  18.294   7.055
 9788POPC   C4A54294  32.214  18.319   7.355
 9788POPC   C1B54295  32.486  18.204   6.455
 9788POPC   C2B54296  32.484  18.189   6.755
 9788POPC   C3B54297  32.506  18.173   7.055
 9788POPC   C4B54298  32.507  18.221   7.355
 9789POPC   NC354299   6.606  33.801   5.555
 9789POPC   PO454300   6.603  33.815   5.855
 9789POPC   GL154301   6.624  33.780   6.155
 9789POPC   GL254302   6.516  33.766   6.155
 9789POPC   C1A54303   6.624  33.842   6.455
 9789POPC   D2A54304   6.655  33.803   6.755
 9789POPC   C3A54305   6.682  33.769   7.055
 9789POPC   C4A54306   6.639  33.822   7.355
 9789POPC   C1B54307   6.425  33.661   6.455
 9789POPC   C2B54308   6.376  33.748   6.755
 9789POPC   C3B54309   6.403  33.725   7.055
 9789POPC   C4B54310   6.376  33.675   7.355
 9790POPC   NC354311  43.917  36.906   5.555
 9790POPC   PO454312  43.904  36.857   5.855
 9790POPC   GL154313  43.928  36.874   6.155
 9790POPC   GL254314  43.971  36.813   6.155
 9790POPC   C1A54315  43.850  36.896   6.455
 9790POPC   D2A54316  43.888  36.861   6.755
 9790POPC   C3A54317  43.871  36.943   7.055
 9790POPC   C4A54318  43.923  36.919   7.355
 9790POPC   C1B54319  44.160  36.783   6.455
 9790POPC   C2B54320  44.094  36.803   6.755
 9790POPC   C3B54321  44.145  36.785   7.055
 9790POPC   C4B54322  44.126  36.847   7.355
 9791POPC   NC354323   2.756  34.593   5.555
 9791POPC   PO454324   2.783  34.564   5.855
 9791POPC   GL154325   2.779  34.607   6.155
 9791POPC   GL254326   2.685  34.592   6.155
 9791POPC   C1A54327   2.719  34.625   6.455
 9791POPC   D2A54328   2.727  34.610   6.755
 9791POPC   C3A54329   2.741  34.624   7.055
 9791POPC   C4A54330   2.758  34.588   7.355
 9791POPC   C1B54331   2.502  34.642   6.455
 9791POPC   C2B54332   2.474  34.622   6.755
 9791POPC   C3B54333   2.538  34.649   7.055
 9791POPC   C4B54334   2.525  34.611   7.355
 9792POPC   NC354335  23.701   3.575   5.555
 9792POPC   PO454336  23.746   3.505   5.855
 9792POPC   GL154337  23.722   3.589   6.155
 9792POPC   GL254338  23.652   3.454   6.155
 9792POPC   C1A54339  23.676   3.584   6.455
 9792POPC   D2A54340  23.691   3.500   6.755
 9792POPC   C3A54341  23.746   3.581   7.055
 9792POPC   C4A54342  23.703   3.582   7.355
 9792POPC   C1B54343  23.543   3.326   6.455
 9792POPC   C2B54344  23.572   3.333   6.755
 9792POPC   C3B54345  23.553   3.344   7.055
 9792POPC   C4B54346  23.544   3.380   7.355
 9793POPC   NC354347   9.767   5.915   5.555
 9793POPC   PO454348   9.717   5.838   5.855
 9793POPC   GL154349   9.781   5.820   6.155
 9793POPC   GL254350   9.650   5.945   6.155
 9793POPC   C1A54351   9.721   5.834   6.455
 9793POPC   D2A54352   9.733   5.895   6.755
 9793POPC   C3A54353   9.773   5.884   7.055
 9793POPC   C4A54354   9.749   5.918   7.355
 9793POPC   C1B54355   9.561   6.054   6.455
 9793POPC   C2B54356   9.560   6.044   6.755
 9793POPC   C3B54357   9.560   6.026   7.055
 9793POPC   C4B54358   9.567   6.017   7.355
 9794POPC   NC354359  36.172  36.949   5.555
 9794POPC   PO454360  36.099  36.859   5.855
 9794POPC   GL154361  36.128  36.918   6.155
 9794POPC   GL254362  36.084  37.003   6.155
 9794POPC   C1A54363  36.079  36.868   6.455
 9794POPC   D2A54364  36.151  36.914   6.755
 9794POPC   C3A54365  36.111  36.856   7.055
 9794POPC   C4A54366  36.086  36.940   7.355
 9794POPC   C1B54367  36.003  37.154   6.455
 9794POPC   C2B54368  36.065  37.100   6.755
 9794POPC   C3B54369  36.103  37.130   7.055
 9794POPC   C4B54370  36.049  37.097   7.355
 9795POPC   NC354371  27.549   3.557   5.555
 9795POPC   PO454372  27.623   3.493   5.855
 9795POPC   GL154373  27.552   3.537   6.155
 9795POPC   GL254374  27.684   3.450   6.155
 9795POPC   C1A54375  27.638   3.511   6.455
 9795POPC   D2A54376  27.577   3.515   6.755
 9795POPC   C3A54377  27.597   3.578   7.055
 9795POPC   C4A54378  27.632   3.514   7.355
 9795POPC   C1B54379  27.756   3.337   6.455
 9795POPC   C2B54380  27.811   3.386   6.755
 9795POPC   C3B54381  27.821   3.403   7.055
 9795POPC   C4B54382  27.817   3.347   7.355
 9796POPC   NC354383   8.945  16.759   5.555
 9796POPC   PO454384   8.957  16.762   5.855
 9796POPC   GL154385   9.000  16.735   6.155
 9796POPC   GL254386   8.878  16.806   6.155
 9796POPC   C1A54387   8.980  16.774   6.455
 9796POPC   D2A54388   8.926  16.690   6.755
 9796POPC   C3A54389   8.990  16.769   7.055
 9796POPC   C4A54390   8.972  16.769   7.355
 9796POPC   C1B54391   8.753  16.851   6.455
 9796POPC   C2B54392   8.775  16.904   6.755
 9796POPC   C3B54393   8.798  16.906   7.055
 9796POPC   C4B54394   8.789  16.900   7.355
 9797POPC   NC354395  12.836  19.019   5.555
 9797POPC   PO454396  12.806  19.084   5.855
 9797POPC   GL154397  12.854  19.014   6.155
 9797POPC   GL254398  12.777  18.981   6.155
 9797POPC   C1A54399  12.867  19.101   6.455
 9797POPC   D2A54400  12.890  19.065   6.755
 9797POPC   C3A54401  12.856  19.022   7.055
 9797POPC   C4A54402  12.819  19.056   7.355
 9797POPC   C1B54403  12.601  18.937   6.455
 9797POPC   C2B54404  12.664  18.929   6.755
 9797POPC   C3B54405  12.620  18.886   7.055
 9797POPC   C4B54406  12.604  18.942   7.355
 9798POPC   NC354407  18.287  15.189   5.555
 9798POPC   PO454408  18.277  15.141   5.855
 9798POPC   GL154409  18.321  15.130   6.155
 9798POPC   GL254410  18.282  15.063   6.155
 9798POPC   C1A54411  18.245  15.151   6.455
 9798POPC   D2A54412  18.252  15.219   6.755
 9798POPC   C3A54413  18.271  15.217   7.055
 9798POPC   C4A54414  18.292  15.180   7.355
 9798POPC   C1B54415  18.373  14.933   6.455
 9798POPC   C2B54416  18.302  14.968   6.755
 9798POPC   C3B54417  18.377  14.906   7.055
 9798POPC   C4B54418  18.362  14.907   7.355
 9799POPC   NC354419  39.232  44.681   5.555
 9799POPC   PO454420  39.190  44.649   5.855
 9799POPC   GL154421  39.276  44.656   6.155
 9799POPC   GL254422  39.141  44.758   6.155
 9799POPC   C1A54423  39.212  44.656   6.455
 9799POPC   D2A54424  39.181  44.673   6.755
 9799POPC   C3A54425  39.235  44.655   7.055
 9799POPC   C4A54426  39.280  44.694   7.355
 9799POPC   C1B54427  39.172  44.902   6.455
 9799POPC   C2B54428  39.144  44.927   6.755
 9799POPC   C3B54429  39.088  44.888   7.055
 9799POPC   C4B54430  39.088  44.925   7.355
 9800POPC   NC354431   1.186   3.522   5.555
 9800POPC   PO454432   1.178   3.516   5.855
 9800POPC   GL154433   1.195   3.547   6.155
 9800POPC   GL254434   1.060   3.540   6.155
 9800POPC   C1A54435   1.252   3.499   6.455
 9800POPC   D2A54436   1.175   3.570   6.755
 9800POPC   C3A54437   1.201   3.517   7.055
 9800POPC   C4A54438   1.180   3.551   7.355
 9800POPC   C1B54439   0.926   3.492   6.455
 9800POPC   C2B54440   0.963   3.536   6.755
 9800POPC   C3B54441   1.011   3.543   7.055
 9800POPC   C4B54442   0.926   3.541   7.355
 9801POPC   NC354443   4.332  12.099   5.555
 9801POPC   PO454444   4.300  12.048   5.855
 9801POPC   GL154445   4.329  12.074   6.155
 9801POPC   GL254446   4.475  12.131   6.155
 9801POPC   C1A54447   4.334  12.067   6.455
 9801POPC   D2A54448   4.280  12.098   6.755
 9801POPC   C3A54449   4.272  12.096   7.055
 9801POPC   C4A54450   4.326  12.071   7.355
 9801POPC   C1B54451   4.506  12.173   6.455
 9801POPC   C2B54452   4.531  12.174   6.755
 9801POPC   C3B54453   4.576  12.170   7.055
 9801POPC   C4B54454   4.538  12.169   7.355
 9802POPC   NC354455  29.903   2.811   5.555
 9802POPC   PO454456  29.878   2.790   5.855
 9802POPC   GL154457  29.933   2.720   6.155
 9802POPC   GL254458  30.057   2.742   6.155
 9802POPC   C1A54459  29.875   2.762   6.455
 9802POPC   D2A54460  29.963   2.811   6.755
 9802POPC   C3A54461  29.916   2.783   7.055
 9802POPC   C4A54462  29.944   2.765   7.355
 9802POPC   C1B54463  30.166   2.797   6.455
 9802POPC   C2B54464  30.195   2.769   6.755
 9802POPC   C3B54465  30.123   2.791   7.055
 9802POPC   C4B54466  30.205   2.787   7.355
 9803POPC   NC354467  18.269   8.995   5.555
 9803POPC   PO454468  18.267   8.947   5.855
 9803POPC   GL154469  18.289   8.975   6.155
 9803POPC   GL254470  18.313   8.878   6.155
 9803POPC   C1A54471  18.307   8.984   6.455
 9803POPC   D2A54472  18.275   8.993   6.755
 9803POPC   C3A54473  18.322   8.991   7.055
 9803POPC   C4A54474  18.274   8.956   7.355
 9803POPC   C1B54475  18.259   8.759   6.455
 9803POPC   C2B54476  18.300   8.712   6.755
 9803POPC   C3B54477  18.287   8.757   7.055
 9803POPC   C4B54478  18.292   8.743   7.355
 9804POPC   NC354479   5.839  19.050   5.555
 9804POPC   PO454480   5.825  19.090   5.855
 9804POPC   GL154481   5.830  19.055   6.155
 9804POPC   GL254482   5.871  19.155   6.155
 9804POPC   C1A54483   5.878  19.107   6.455
 9804POPC   D2A54484   5.869  19.047   6.755
 9804POPC   C3A54485   5.844  19.102   7.055
 9804POPC   C4A54486   5.893  19.086   7.355
 9804POPC   C1B54487   5.997  19.269   6.455
 9804POPC   C2B54488   5.916  19.339   6.755
 9804POPC   C3B54489   5.996  19.302   7.055
 9804POPC   C4B54490   5.979  19.252   7.355
 9805POPC   NC354491  24.472  36.882   5.555
 9805POPC   PO454492  24.510  36.891   5.855
 9805POPC   GL154493  24.521  36.881   6.155
 9805POPC   GL254494  24.632  36.848   6.155
 9805POPC   C1A54495  24.468  36.936   6.455
 9805POPC   D2A54496  24.518  36.887   6.755
 9805POPC   C3A54497  24.487  36.916   7.055
 9805POPC   C4A54498  24.519  36.902   7.355
 9805POPC   C1B54499  24.664  36.810   6.455
 9805POPC   C2B54500  24.712  36.729   6.755
 9805POPC   C3B54501  24.742  36.780   7.055
 9805POPC   C4B54502  24.695  36.734   7.355
 9806POPC   NC354503  31.508  23.757   5.555
 9806POPC   PO454504  31.471  23.694   5.855
 9806POPC   GL154505  31.434  23.681   6.155
 9806POPC   GL254506  31.633  23.684   6.155
 9806POPC   C1A54507  31.489  23.741   6.455
 9806POPC   D2A54508  31.444  23.763   6.755
 9806POPC   C3A54509  31.488  23.747   7.055
 9806POPC   C4A54510  31.438  23.680   7.355
 9806POPC   C1B54511  31.707  23.713   6.455
 9806POPC   C2B54512  31.724  23.729   6.755
 9806POPC   C3B54513  31.687  23.756   7.055
 9806POPC   C4B54514  31.743  23.746   7.355
 9807POPC   NC354515  12.076  35.379   5.555
 9807POPC   PO454516  12.058  35.335   5.855
 9807POPC   GL154517  12.068  35.311   6.155
 9807POPC   GL254518  12.208  35.302   6.155
 9807POPC   C1A54519  12.028  35.386   6.455
 9807POPC   D2A54520  12.084  35.389   6.755
 9807POPC   C3A54521  12.085  35.342   7.055
 9807POPC   C4A54522  12.028  35.353   7.355
 9807POPC   C1B54523  12.285  35.313   6.455
 9807POPC   C2B54524  12.347  35.295   6.755
 9807POPC   C3B54525  12.339  35.355   7.055
 9807POPC   C4B54526  12.307  35.356   7.355
 9808POPC   NC354527  43.866   8.220   5.555
 9808POPC   PO454528  43.852   8.203   5.855
 9808POPC   GL154529  43.909   8.148   6.155
 9808POPC   GL254530  43.797   8.104   6.155
 9808POPC   C1A54531  43.914   8.170   6.455
 9808POPC   D2A54532  43.905   8.238   6.755
 9808POPC   C3A54533  43.892   8.212   7.055
 9808POPC   C4A54534  43.929   8.199   7.355
 9808POPC   C1B54535  43.778   7.937   6.455
 9808POPC   C2B54536  43.761   7.973   6.755
 9808POPC   C3B54537  43.754   7.929   7.055
 9808POPC   C4B54538  43.830   7.926   7.355
 9809POPC   NC354539  10.495  25.241   5.555
 9809POPC   PO454540  10.537  25.239   5.855
 9809POPC   GL154541  10.504  25.280   6.155
 9809POPC   GL254542  10.584  25.342   6.155
 9809POPC   C1A54543  10.489  25.283   6.455
 9809POPC   D2A54544  10.549  25.242   6.755
 9809POPC   C3A54545  10.481  25.267   7.055
 9809POPC   C4A54546  10.531  25.254   7.355
 9809POPC   C1B54547  10.752  25.466   6.455
 9809POPC   C2B54548  10.713  25.432   6.755
 9809POPC   C3B54549  10.748  25.386   7.055
 9809POPC   C4B54550  10.698  25.378   7.355
 9810POPC   NC354551  26.028   9.703   5.555
 9810POPC   PO454552  26.009   9.722   5.855
 9810POPC   GL154553  26.090   9.757   6.155
 9810POPC   GL254554  26.044   9.853   6.155
 9810POPC   C1A54555  26.065   9.797   6.455
 9810POPC   D2A54556  25.992   9.775   6.755
 9810POPC   C3A54557  26.085   9.743   7.055
 9810POPC   C4A54558  26.031   9.736   7.355
 9810POPC   C1B54559  25.922   9.972   6.455
 9810POPC   C2B54560  25.925  10.023   6.755
 9810POPC   C3B54561  25.976   9.999   7.055
 9810POPC   C4B54562  25.922  10.035   7.355
 9811POPC   NC354563  29.134  14.423   5.555
 9811POPC   PO454564  29.122  14.452   5.855
 9811POPC   GL154565  29.146  14.372   6.155
 9811POPC   GL254566  29.230  14.549   6.155
 9811POPC   C1A54567  29.140  14.449   6.455
 9811POPC   D2A54568  29.163  14.395   6.755
 9811POPC   C3A54569  29.136  14.406   7.055
 9811POPC   C4A54570  29.109  14.447   7.355
 9811POPC   C1B54571  29.320  14.560   6.455
 9811POPC   C2B54572  29.287  14.626   6.755
 9811POPC   C3B54573  29.304  14.577   7.055
 9811POPC   C4B54574  29.278  14.578   7.355
 9812POPC   NC354575  29.123   6.596   5.555
 9812POPC   PO454576  29.171   6.601   5.855
 9812POPC   GL154577  29.183   6.609   6.155
 9812POPC   GL254578  29.245   6.538   6.155
 9812POPC   C1A54579  29.131   6.650   6.455
 9812POPC   D2A54580  29.179   6.690   6.755
 9812POPC   C3A54581  29.154   6.693   7.055
 9812POPC   C4A54582  29.096   6.641   7.355
 9812POPC   C1B54583  29.377   6.520   6.455
 9812POPC   C2B54584  29.330   6.548   6.755
 9812POPC   C3B54585  29.365   6.556   7.055
 9812POPC   C4B54586  29.353   6.465   7.355
 9813POPC   NC354587  17.514   5.044   5.555
 9813POPC   PO454588  17.468   5.111   5.855
 9813POPC   GL154589  17.477   5.044   6.155
 9813POPC   GL254590  17.619   5.178   6.155
 9813POPC   C1A54591  17.502   5.055   6.455
 9813POPC   D2A54592  17.486   5.098   6.755
 9813POPC   C3A54593  17.484   5.058   7.055
 9813POPC   C4A54594  17.537   5.117   7.355
 9813POPC   C1B54595  17.757   5.158   6.455
 9813POPC   C2B54596  17.750   5.188   6.755
 9813POPC   C3B54597  17.729   5.148   7.055
 9813POPC   C4B54598  17.749   5.178   7.355
 9814POPC   NC354599  43.128  17.553   5.555
 9814POPC   PO454600  43.071  17.540   5.855
 9814POPC   GL154601  43.136  17.518   6.155
 9814POPC   GL254602  43.045  17.642   6.155
 9814POPC   C1A54603  43.096  17.552   6.455
 9814POPC   D2A54604  43.081  17.480   6.755
 9814POPC   C3A54605  43.079  17.541   7.055
 9814POPC   C4A54606  43.148  17.498   7.355
 9814POPC   C1B54607  42.979  17.689   6.455
 9814POPC   C2B54608  42.923  17.687   6.755
 9814POPC   C3B54609  42.886  17.698   7.055
 9814POPC   C4B54610  42.940  17.646   7.355
 9815POPC   NC354611   2.778   8.925   5.555
 9815POPC   PO454612   2.748   8.936   5.855
 9815POPC   GL154613   2.814   8.939   6.155
 9815POPC   GL254614   2.667   9.119   6.155
 9815POPC   C1A54615   2.809   9.011   6.455
 9815POPC   D2A54616   2.717   9.018   6.755
 9815POPC   C3A54617   2.772   8.933   7.055
 9815POPC   C4A54618   2.774   8.930   7.355
 9815POPC   C1B54619   2.574   9.202   6.455
 9815POPC   C2B54620   2.628   9.217   6.755
 9815POPC   C3B54621   2.593   9.160   7.055
 9815POPC   C4B54622   2.588   9.164   7.355
 9816POPC   NC354623  40.768  43.116   5.555
 9816POPC   PO454624  40.754  43.127   5.855
 9816POPC   GL154625  40.805  43.127   6.155
 9816POPC   GL254626  40.755  43.187   6.155
 9816POPC   C1A54627  40.817  43.151   6.455
 9816POPC   D2A54628  40.769  43.120   6.755
 9816POPC   C3A54629  40.830  43.117   7.055
 9816POPC   C4A54630  40.780  43.072   7.355
 9816POPC   C1B54631  40.648  43.269   6.455
 9816POPC   C2B54632  40.591  43.293   6.755
 9816POPC   C3B54633  40.619  43.285   7.055
 9816POPC   C4B54634  40.678  43.337   7.355
 9817POPC   NC354635   1.986   2.782   5.555
 9817POPC   PO454636   1.960   2.767   5.855
 9817POPC   GL154637   1.968   2.765   6.155
 9817POPC   GL254638   2.134   2.693   6.155
 9817POPC   C1A54639   2.005   2.814   6.455
 9817POPC   D2A54640   2.007   2.812   6.755
 9817POPC   C3A54641   1.980   2.753   7.055
 9817POPC   C4A54642   2.037   2.724   7.355
 9817POPC   C1B54643   2.178   2.675   6.455
 9817POPC   C2B54644   2.193   2.622   6.755
 9817POPC   C3B54645   2.210   2.688   7.055
 9817POPC   C4B54646   2.198   2.693   7.355
 9818POPC   NC354647   2.775  43.071   5.555
 9818POPC   PO454648   2.731  43.151   5.855
 9818POPC   GL154649   2.790  43.131   6.155
 9818POPC   GL254650   2.734  42.959   6.155
 9818POPC   C1A54651   2.776  43.104   6.455
 9818POPC   D2A54652   2.766  43.063   6.755
 9818POPC   C3A54653   2.774  43.123   7.055
 9818POPC   C4A54654   2.724  43.087   7.355
 9818POPC   C1B54655   2.677  42.834   6.455
 9818POPC   C2B54656   2.690  42.867   6.755
 9818POPC   C3B54657   2.765  42.872   7.055
 9818POPC   C4B54658   2.673  42.911   7.355
 9819POPC   NC354659  43.151  32.285   5.555
 9819POPC   PO454660  43.159  32.222   5.855
 9819POPC   GL154661  43.086  32.259   6.155
 9819POPC   GL254662  43.061  32.160   6.155
 9819POPC   C1A54663  43.156  32.252   6.455
 9819POPC   D2A54664  43.137  32.249   6.755
 9819POPC   C3A54665  43.160  32.236   7.055
 9819POPC   C4A54666  43.130  32.286   7.355
 9819POPC   C1B54667  42.967  32.037   6.455
 9819POPC   C2B54668  43.025  32.056   6.755
 9819POPC   C3B54669  42.953  32.001   7.055
 9819POPC   C4B54670  43.048  32.061   7.355
 9820POPC   NC354671  44.631   9.776   5.555
 9820POPC   PO454672  44.709   9.710   5.855
 9820POPC   GL154673  44.632   9.700   6.155
 9820POPC   GL254674  44.593   9.637   6.155
 9820POPC   C1A54675  44.644   9.770   6.455
 9820POPC   D2A54676  44.634   9.750   6.755
 9820POPC   C3A54677  44.670   9.784   7.055
 9820POPC   C4A54678  44.646   9.747   7.355
 9820POPC   C1B54679  44.444   9.569   6.455
 9820POPC   C2B54680  44.489   9.610   6.755
 9820POPC   C3B54681  44.418   9.643   7.055
 9820POPC   C4B54682  44.487   9.616   7.355
 9821POPC   NC354683  39.261  21.345   5.555
 9821POPC   PO454684  39.211  21.397   5.855
 9821POPC   GL154685  39.280  21.354   6.155
 9821POPC   GL254686  39.107  21.443   6.155
 9821POPC   C1A54687  39.258  21.431   6.455
 9821POPC   D2A54688  39.207  21.401   6.755
 9821POPC   C3A54689  39.229  21.390   7.055
 9821POPC   C4A54690  39.236  21.353   7.355
 9821POPC   C1B54691  38.954  21.472   6.455
 9821POPC   C2B54692  38.993  21.514   6.755
 9821POPC   C3B54693  39.006  21.487   7.055
 9821POPC   C4B54694  38.967  21.538   7.355
 9822POPC   NC354695  32.208  22.116   5.555
 9822POPC   PO454696  32.227  22.166   5.855
 9822POPC   GL154697  32.228  22.209   6.155
 9822POPC   GL254698  32.404  22.237   6.155
 9822POPC   C1A54699  32.238  22.162   6.455
 9822POPC   D2A54700  32.263  22.177   6.755
 9822POPC   C3A54701  32.227  22.207   7.055
 9822POPC   C4A54702  32.258  22.211   7.355
 9822POPC   C1B54703  32.455  22.248   6.455
 9822POPC   C2B54704  32.475  22.303   6.755
 9822POPC   C3B54705  32.427  22.273   7.055
 9822POPC   C4B54706  32.461  22.311   7.355
 9823POPC   NC354707   4.351  39.968   5.555
 9823POPC   PO454708   4.315  40.003   5.855
 9823POPC   GL154709   4.306  39.972   6.155
 9823POPC   GL254710   4.352  39.855   6.155
 9823POPC   C1A54711   4.294  39.971   6.455
 9823POPC   D2A54712   4.267  40.034   6.755
 9823POPC   C3A54713   4.308  40.027   7.055
 9823POPC   C4A54714   4.339  39.974   7.355
 9823POPC   C1B54715   4.412  39.758   6.455
 9823POPC   C2B54716   4.391  39.757   6.755
 9823POPC   C3B54717   4.389  39.791   7.055
 9823POPC   C4B54718   4.398  39.819   7.355
 9824POPC   NC354719  43.907  22.968   5.555
 9824POPC   PO454720  43.907  22.926   5.855
 9824POPC   GL154721  43.878  22.922   6.155
 9824POPC   GL254722  44.002  22.862   6.155
 9824POPC   C1A54723  43.925  22.922   6.455
 9824POPC   D2A54724  43.923  22.931   6.755
 9824POPC   C3A54725  43.915  22.981   7.055
 9824POPC   C4A54726  43.895  22.901   7.355
 9824POPC   C1B54727  44.100  22.784   6.455
 9824POPC   C2B54728  44.101  22.745   6.755
 9824POPC   C3B54729  44.121  22.748   7.055
 9824POPC   C4B54730  44.099  22.789   7.355
 9825POPC   NC354731  37.652  22.980   5.555
 9825POPC   PO454732  37.683  22.920   5.855
 9825POPC   GL154733  37.636  22.918   6.155
 9825POPC   GL254734  37.801  22.926   6.155
 9825POPC   C1A54735  37.668  22.940   6.455
 9825POPC   D2A54736  37.710  22.980   6.755
 9825POPC   C3A54737  37.715  22.967   7.055
 9825POPC   C4A54738  37.716  22.966   7.355
 9825POPC   C1B54739  37.938  22.899   6.455
 9825POPC   C2B54740  37.903  22.892   6.755
 9825POPC   C3B54741  37.889  22.901   7.055
 9825POPC   C4B54742  37.950  22.876   7.355
 9826POPC   NC354743  35.306  14.446   5.555
 9826POPC   PO454744  35.377  14.424   5.855
 9826POPC   GL154745  35.314  14.443   6.155
 9826POPC   GL254746  35.424  14.275   6.155
 9826POPC   C1A54747  35.378  14.437   6.455
 9826POPC   D2A54748  35.323  14.425   6.755
 9826POPC   C3A54749  35.326  14.397   7.055
 9826POPC   C4A54750  35.376  14.443   7.355
 9826POPC   C1B54751  35.488  14.147   6.455
 9826POPC   C2B54752  35.481  14.158   6.755
 9826POPC   C3B54753  35.483  14.144   7.055
 9826POPC   C4B54754  35.408  14.173   7.355
 9827POPC   NC354755  12.830  43.089   5.555
 9827POPC   PO454756  12.829  43.136   5.855
 9827POPC   GL154757  12.823  43.134   6.155
 9827POPC   GL254758  12.977  43.224   6.155
 9827POPC   C1A54759  12.885  43.066   6.455
 9827POPC   D2A54760  12.836  43.131   6.755
 9827POPC   C3A54761  12.827  43.110   7.055
 9827POPC   C4A54762  12.811  43.084   7.355
 9827POPC   C1B54763  13.066  43.338   6.455
 9827POPC   C2B54764  13.066  43.290   6.755
 9827POPC   C3B54765  13.012  43.248   7.055
 9827POPC   C4B54766  13.069  43.273   7.355
 9828POPC   NC354767  37.701  38.477   5.555
 9828POPC   PO454768  37.722  38.456   5.855
 9828POPC   GL154769  37.699  38.499   6.155
 9828POPC   GL254770  37.562  38.408   6.155
 9828POPC   C1A54771  37.640  38.500   6.455
 9828POPC   D2A54772  37.720  38.501   6.755
 9828POPC   C3A54773  37.637  38.497   7.055
 9828POPC   C4A54774  37.678  38.463   7.355
 9828POPC   C1B54775  37.480  38.411   6.455
 9828POPC   C2B54776  37.474  38.414   6.755
 9828POPC   C3B54777  37.479  38.434   7.055
 9828POPC   C4B54778  37.437  38.424   7.355
 9829POPC   NC354779   5.056  42.334   5.555
 9829POPC   PO454780   5.123  42.294   5.855
 9829POPC   GL154781   5.044  42.373   6.155
 9829POPC   GL254782   5.161  42.270   6.155
 9829POPC   C1A54783   5.105  42.314   6.455
 9829POPC   D2A54784   5.088  42.382   6.755
 9829POPC   C3A54785   5.070  42.374   7.055
 9829POPC   C4A54786   5.133  42.358   7.355
 9829POPC   C1B54787   5.191  42.158   6.455
 9829POPC   C2B54788   5.234  42.060   6.755
 9829POPC   C3B54789   5.239  42.105   7.055
 9829POPC   C4B54790   5.155  42.142   7.355
 9830POPC   NC354791  35.311  33.780   5.555
 9830POPC   PO454792  35.319  33.827   5.855
 9830POPC   GL154793  35.334  33.833   6.155
 9830POPC   GL254794  35.443  33.847   6.155
 9830POPC   C1A54795  35.356  33.833   6.455
 9830POPC   D2A54796  35.395  33.821   6.755
 9830POPC   C3A54797  35.381  33.835   7.055
 9830POPC   C4A54798  35.347  33.763   7.355
 9830POPC   C1B54799  35.556  33.809   6.455
 9830POPC   C2B54800  35.564  33.855   6.755
 9830POPC   C3B54801  35.645  33.847   7.055
 9830POPC   C4B54802  35.623  33.831   7.355
 9831POPC   NC354803  41.552  17.515   5.555
 9831POPC   PO454804  41.588  17.545   5.855
 9831POPC   GL154805  41.512  17.503   6.155
 9831POPC   GL254806  41.612  17.589   6.155
 9831POPC   C1A54807  41.568  17.526   6.455
 9831POPC   D2A54808  41.534  17.552   6.755
 9831POPC   C3A54809  41.582  17.533   7.055
 9831POPC   C4A54810  41.573  17.495   7.355
 9831POPC   C1B54811  41.798  17.632   6.455
 9831POPC   C2B54812  41.789  17.657   6.755
 9831POPC   C3B54813  41.797  17.639   7.055
 9831POPC   C4B54814  41.748  17.604   7.355
 9832POPC   NC354815  41.573  31.499   5.555
 9832POPC   PO454816  41.532  31.508   5.855
 9832POPC   GL154817  41.595  31.499   6.155
 9832POPC   GL254818  41.459  31.400   6.155
 9832POPC   C1A54819  41.518  31.469   6.455
 9832POPC   D2A54820  41.533  31.444   6.755
 9832POPC   C3A54821  41.509  31.522   7.055
 9832POPC   C4A54822  41.537  31.516   7.355
 9832POPC   C1B54823  41.413  31.294   6.455
 9832POPC   C2B54824  41.444  31.273   6.755
 9832POPC   C3B54825  41.446  31.292   7.055
 9832POPC   C4B54826  41.409  31.287   7.355
 9833POPC   NC354827  15.964  40.039   5.555
 9833POPC   PO454828  15.944  39.982   5.855
 9833POPC   GL154829  15.986  40.014   6.155
 9833POPC   GL254830  15.863  40.048   6.155
 9833POPC   C1A54831  15.916  40.048   6.455
 9833POPC   D2A54832  15.974  40.011   6.755
 9833POPC   C3A54833  15.940  39.963   7.055
 9833POPC   C4A54834  15.950  39.978   7.355
 9833POPC   C1B54835  15.723  40.153   6.455
 9833POPC   C2B54836  15.703  40.088   6.755
 9833POPC   C3B54837  15.694  40.165   7.055
 9833POPC   C4B54838  15.736  40.085   7.355
 9834POPC   NC354839   6.610  29.166   5.555
 9834POPC   PO454840   6.674  29.159   5.855
 9834POPC   GL154841   6.631  29.143   6.155
 9834POPC   GL254842   6.751  29.176   6.155
 9834POPC   C1A54843   6.631  29.150   6.455
 9834POPC   D2A54844   6.621  29.134   6.755
 9834POPC   C3A54845   6.609  29.183   7.055
 9834POPC   C4A54846   6.637  29.186   7.355
 9834POPC   C1B54847   6.884  29.250   6.455
 9834POPC   C2B54848   6.921  29.226   6.755
 9834POPC   C3B54849   6.831  29.272   7.055
 9834POPC   C4B54850   6.836  29.255   7.355
 9835POPC   NC354851  26.088  25.249   5.555
 9835POPC   PO454852  26.015  25.264   5.855
 9835POPC   GL154853  26.044  25.294   6.155
 9835POPC   GL254854  25.984  25.361   6.155
 9835POPC   C1A54855  26.030  25.263   6.455
 9835POPC   D2A54856  26.040  25.295   6.755
 9835POPC   C3A54857  26.022  25.287   7.055
 9835POPC   C4A54858  25.996  25.235   7.355
 9835POPC   C1B54859  25.873  25.469   6.455
 9835POPC   C2B54860  25.923  25.442   6.755
 9835POPC   C3B54861  25.895  25.457   7.055
 9835POPC   C4B54862  25.865  25.419   7.355
 9836POPC   NC354863   9.770  40.803   5.555
 9836POPC   PO454864   9.761  40.817   5.855
 9836POPC   GL154865   9.792  40.765   6.155
 9836POPC   GL254866   9.768  40.672   6.155
 9836POPC   C1A54867   9.762  40.779   6.455
 9836POPC   D2A54868   9.727  40.825   6.755
 9836POPC   C3A54869   9.785  40.784   7.055
 9836POPC   C4A54870   9.780  40.802   7.355
 9836POPC   C1B54871   9.773  40.492   6.455
 9836POPC   C2B54872   9.744  40.490   6.755
 9836POPC   C3B54873   9.764  40.552   7.055
 9836POPC   C4B54874   9.772  40.531   7.355
 9837POPC   NC354875   1.255  14.369   5.555
 9837POPC   PO454876   1.224  14.451   5.855
 9837POPC   GL154877   1.251  14.442   6.155
 9837POPC   GL254878   1.295  14.331   6.155
 9837POPC   C1A54879   1.244  14.408   6.455
 9837POPC   D2A54880   1.234  14.372   6.755
 9837POPC   C3A54881   1.263  14.425   7.055
 9837POPC   C4A54882   1.261  14.446   7.355
 9837POPC   C1B54883   1.388  14.197   6.455
 9837POPC   C2B54884   1.358  14.195   6.755
 9837POPC   C3B54885   1.378  14.245   7.055
 9837POPC   C4B54886   1.349  14.178   7.355
 9838POPC   NC354887  25.229   8.243   5.555
 9838POPC   PO454888  25.287   8.207   5.855
 9838POPC   GL154889  25.230   8.226   6.155
 9838POPC   GL254890  25.343   8.275   6.155
 9838POPC   C1A54891  25.220   8.233   6.455
 9838POPC   D2A54892  25.302   8.242   6.755
 9838POPC   C3A54893  25.290   8.187   7.055
 9838POPC   C4A54894  25.314   8.188   7.355
 9838POPC   C1B54895  25.520   8.249   6.455
 9838POPC   C2B54896  25.488   8.252   6.755
 9838POPC   C3B54897  25.459   8.283   7.055
 9838POPC   C4B54898  25.535   8.278   7.355
 9839POPC   NC354899   0.429   0.461   5.555
 9839POPC   PO454900   0.486   0.389   5.855
 9839POPC   GL154901   0.393   0.421   6.155
 9839POPC   GL254902   0.470   0.349   6.155
 9839POPC   C1A54903   0.415   0.432   6.455
 9839POPC   D2A54904   0.449   0.408   6.755
 9839POPC   C3A54905   0.473   0.418   7.055
 9839POPC   C4A54906   0.447   0.474   7.355
 9839POPC   C1B54907   0.555   0.266   6.455
 9839POPC   C2B54908   0.609   0.229   6.755
 9839POPC   C3B54909   0.546   0.260   7.055
 9839POPC   C4B54910   0.553   0.268   7.355
 9840POPC   NC354911  24.526  34.595   5.555
 9840POPC   PO454912  24.450  34.624   5.855
 9840POPC   GL154913  24.456  34.580   6.155
 9840POPC   GL254914  24.565  34.609   6.155
 9840POPC   C1A54915  24.505  34.568   6.455
 9840POPC   D2A54916  24.526  34.535   6.755
 9840POPC   C3A54917  24.466  34.584   7.055
 9840POPC   C4A54918  24.528  34.584   7.355
 9840POPC   C1B54919  24.725  34.765   6.455
 9840POPC   C2B54920  24.692  34.715   6.755
 9840POPC   C3B54921  24.695  34.715   7.055
 9840POPC   C4B54922  24.667  34.751   7.355
 9841POPC   NC354923  31.466  22.899   5.555
 9841POPC   PO454924  31.508  22.908   5.855
 9841POPC   GL154925  31.493  22.981   6.155
 9841POPC   GL254926  31.416  22.970   6.155
 9841POPC   C1A54927  31.481  22.984   6.455
 9841POPC   D2A54928  31.505  22.947   6.755
 9841POPC   C3A54929  31.430  22.954   7.055
 9841POPC   C4A54930  31.436  22.981   7.355
 9841POPC   C1B54931  31.236  23.066   6.455
 9841POPC   C2B54932  31.323  23.128   6.755
 9841POPC   C3B54933  31.317  23.113   7.055
 9841POPC   C4B54934  31.261  23.042   7.355
 9842POPC   NC354935   0.432  19.848   5.555
 9842POPC   PO454936   0.421  19.786   5.855
 9842POPC   GL154937   0.391  19.843   6.155
 9842POPC   GL254938   0.382  19.930   6.155
 9842POPC   C1A54939   0.421  19.863   6.455
 9842POPC   D2A54940   0.434  19.805   6.755
 9842POPC   C3A54941   0.471  19.814   7.055
 9842POPC   C4A54942   0.401  19.837   7.355
 9842POPC   C1B54943   0.265  20.066   6.455
 9842POPC   C2B54944   0.247  19.987   6.755
 9842POPC   C3B54945   0.323  20.053   7.055
 9842POPC   C4B54946   0.253  20.056   7.355
 9843POPC   NC354947  39.275  16.005   5.555
 9843POPC   PO454948  39.202  15.915   5.855
 9843POPC   GL154949  39.234  15.994   6.155
 9843POPC   GL254950  39.183  16.027   6.155
 9843POPC   C1A54951  39.216  15.974   6.455
 9843POPC   D2A54952  39.278  15.960   6.755
 9843POPC   C3A54953  39.242  15.972   7.055
 9843POPC   C4A54954  39.243  15.986   7.355
 9843POPC   C1B54955  39.006  16.077   6.455
 9843POPC   C2B54956  39.066  16.116   6.755
 9843POPC   C3B54957  39.014  16.089   7.055
 9843POPC   C4B54958  39.064  16.103   7.355
 9844POPC   NC354959  41.528   6.598   5.555
 9844POPC   PO454960  41.515   6.631   5.855
 9844POPC   GL154961  41.554   6.608   6.155
 9844POPC   GL254962  41.712   6.676   6.155
 9844POPC   C1A54963  41.564   6.622   6.455
 9844POPC   D2A54964  41.566   6.639   6.755
 9844POPC   C3A54965  41.537   6.615   7.055
 9844POPC   C4A54966  41.535   6.617   7.355
 9844POPC   C1B54967  41.799   6.666   6.455
 9844POPC   C2B54968  41.844   6.712   6.755
 9844POPC   C3B54969  41.795   6.653   7.055
 9844POPC   C4B54970  41.842   6.665   7.355
 9845POPC   NC354971  36.925  30.651   5.555
 9845POPC   PO454972  36.950  30.680   5.855
 9845POPC   GL154973  36.932  30.666   6.155
 9845POPC   GL254974  36.742  30.702   6.155
 9845POPC   C1A54975  36.918  30.709   6.455
 9845POPC   D2A54976  36.871  30.745   6.755
 9845POPC   C3A54977  36.915  30.653   7.055
 9845POPC   C4A54978  36.875  30.701   7.355
 9845POPC   C1B54979  36.697  30.678   6.455
 9845POPC   C2B54980  36.685  30.720   6.755
 9845POPC   C3B54981  36.615  30.732   7.055
 9845POPC   C4B54982  36.624  30.750   7.355
 9846POPC   NC354983  22.204   2.748   5.555
 9846POPC   PO454984  22.189   2.755   5.855
 9846POPC   GL154985  22.203   2.800   6.155
 9846POPC   GL254986  22.257   2.833   6.155
 9846POPC   C1A54987  22.158   2.726   6.455
 9846POPC   D2A54988  22.121   2.768   6.755
 9846POPC   C3A54989  22.124   2.728   7.055
 9846POPC   C4A54990  22.176   2.747   7.355
 9846POPC   C1B54991  22.293   2.985   6.455
 9846POPC   C2B54992  22.282   2.941   6.755
 9846POPC   C3B54993  22.323   2.963   7.055
 9846POPC   C4B54994  22.334   2.954   7.355
 9847POPC   NC354995  22.955  12.116   5.555
 9847POPC   PO454996  22.943  12.054   5.855
 9847POPC   GL154997  22.914  12.084   6.155
 9847POPC   GL254998  23.037  12.141   6.155
 9847POPC   C1A54999  22.939  12.088   6.455
 9847POPC   D2A55000  22.897  12.050   6.755
 9847POPC   C3A55001  22.968  12.094   7.055
 9847POPC   C4A55002  22.929  12.046   7.355
 9847POPC   C1B55003  23.164  12.219   6.455
 9847POPC   C2B55004  23.102  12.200   6.755
 9847POPC   C3B55005  23.168  12.198   7.055
 9847POPC   C4B55006  23.153  12.246   7.355
 9848POPC   NC355007  27.579  19.839   5.555
 9848POPC   PO455008  27.573  19.837   5.855
 9848POPC   GL155009  27.549  19.852   6.155
 9848POPC   GL255010  27.622  19.676   6.155
 9848POPC   C1A55011  27.592  19.795   6.455
 9848POPC   D2A55012  27.640  19.856   6.755
 9848POPC   C3A55013  27.634  19.856   7.055
 9848POPC   C4A55014  27.633  19.796   7.355
 9848POPC   C1B55015  27.620  19.570   6.455
 9848POPC   C2B55016  27.664  19.609   6.755
 9848POPC   C3B55017  27.645  19.598   7.055
 9848POPC   C4B55018  27.627  19.584   7.355
 9849POPC   NC355019  29.100  44.651   5.555
 9849POPC   PO455020  29.123  44.679   5.855
 9849POPC   GL155021  29.111  44.691   6.155
 9849POPC   GL255022  29.047  44.644   6.155
 9849POPC   C1A55023  29.187  44.711   6.455
 9849POPC   D2A55024  29.150  44.677   6.755
 9849POPC   C3A55025  29.097  44.637   7.055
 9849POPC   C4A55026  29.110  44.626   7.355
 9849POPC   C1B55027  28.944  44.675   6.455
 9849POPC   C2B55028  28.920  44.580   6.755
 9849POPC   C3B55029  28.869  44.629   7.055
 9849POPC   C4B55030  28.901  44.641   7.355
 9850POPC   NC355031  30.703  43.936   5.555
 9850POPC   PO455032  30.717  43.918   5.855
 9850POPC   GL155033  30.746  43.877   6.155
 9850POPC   GL255034  30.633  43.995   6.155
 9850POPC   C1A55035  30.675  43.919   6.455
 9850POPC   D2A55036  30.653  43.927   6.755
 9850POPC   C3A55037  30.662  43.859   7.055
 9850POPC   C4A55038  30.729  43.877   7.355
 9850POPC   C1B55039  30.443  44.023   6.455
 9850POPC   C2B55040  30.487  43.993   6.755
 9850POPC   C3B55041  30.506  43.987   7.055
 9850POPC   C4B55042  30.447  44.052   7.355
 9851POPC   NC355043   2.724  32.261   5.555
 9851POPC   PO455044   2.804  32.282   5.855
 9851POPC   GL155045   2.793  32.285   6.155
 9851POPC   GL255046   2.708  32.176   6.155
 9851POPC   C1A55047   2.736  32.280   6.455
 9851POPC   D2A55048   2.801  32.244   6.755
 9851POPC   C3A55049   2.724  32.268   7.055
 9851POPC   C4A55050   2.798  32.248   7.355
 9851POPC   C1B55051   2.587  32.049   6.455
 9851POPC   C2B55052   2.592  32.084   6.755
 9851POPC   C3B55053   2.587  32.097   7.055
 9851POPC   C4B55054   2.581  32.066   7.355
 9852POPC   NC355055  40.025  28.383   5.555
 9852POPC   PO455056  39.982  28.387   5.855
 9852POPC   GL155057  39.959  28.416   6.155
 9852POPC   GL255058  39.994  28.293   6.155
 9852POPC   C1A55059  39.978  28.327   6.455
 9852POPC   D2A55060  40.011  28.360   6.755
 9852POPC   C3A55061  39.961  28.369   7.055
 9852POPC   C4A55062  39.984  28.397   7.355
 9852POPC   C1B55063  39.967  28.103   6.455
 9852POPC   C2B55064  39.885  28.134   6.755
 9852POPC   C3B55065  39.949  28.142   7.055
 9852POPC   C4B55066  39.890  28.141   7.355
 9853POPC   NC355067  33.822  37.667   5.555
 9853POPC   PO455068  33.791  37.669   5.855
 9853POPC   GL155069  33.792  37.660   6.155
 9853POPC   GL255070  33.949  37.648   6.155
 9853POPC   C1A55071  33.766  37.640   6.455
 9853POPC   D2A55072  33.758  37.636   6.755
 9853POPC   C3A55073  33.833  37.713   7.055
 9853POPC   C4A55074  33.815  37.629   7.355
 9853POPC   C1B55075  34.067  37.705   6.455
 9853POPC   C2B55076  34.097  37.641   6.755
 9853POPC   C3B55077  34.055  37.654   7.055
 9853POPC   C4B55078  34.005  37.623   7.355
 9854POPC   NC355079  44.711  21.420   5.555
 9854POPC   PO455080  44.706  21.428   5.855
 9854POPC   GL155081  44.673  21.396   6.155
 9854POPC   GL255082  44.781  21.362   6.155
 9854POPC   C1A55083  44.645  21.362   6.455
 9854POPC   D2A55084  44.707  21.420   6.755
 9854POPC   C3A55085  44.631  21.385   7.055
 9854POPC   C4A55086  44.679  21.381   7.355
 9854POPC   C1B55087  44.877  21.270   6.455
 9854POPC   C2B55088  44.917  21.305   6.755
 9854POPC   C3B55089  44.890  21.236   7.055
 9854POPC   C4B55090  44.907  21.283   7.355
 9855POPC   NC355091  15.155  20.632   5.555
 9855POPC   PO455092  15.200  20.594   5.855
 9855POPC   GL155093  15.215  20.569   6.155
 9855POPC   GL255094  15.296  20.652   6.155
 9855POPC   C1A55095  15.178  20.580   6.455
 9855POPC   D2A55096  15.227  20.564   6.755
 9855POPC   C3A55097  15.227  20.617   7.055
 9855POPC   C4A55098  15.199  20.639   7.355
 9855POPC   C1B55099  15.403  20.678   6.455
 9855POPC   C2B55100  15.365  20.674   6.755
 9855POPC   C3B55101  15.406  20.742   7.055
 9855POPC   C4B55102  15.434  20.731   7.355
 9856POPC   NC355103  29.105  17.553   5.555
 9856POPC   PO455104  29.144  17.471   5.855
 9856POPC   GL155105  29.166  17.490   6.155
 9856POPC   GL255106  29.061  17.442   6.155
 9856POPC   C1A55107  29.135  17.478   6.455
 9856POPC   D2A55108  29.160  17.543   6.755
 9856POPC   C3A55109  29.164  17.465   7.055
 9856POPC   C4A55110  29.097  17.523   7.355
 9856POPC   C1B55111  28.964  17.312   6.455
 9856POPC   C2B55112  28.997  17.283   6.755
 9856POPC   C3B55113  28.962  17.266   7.055
 9856POPC   C4B55114  28.972  17.259   7.355
 9857POPC   NC355115  28.377  39.211   5.555
 9857POPC   PO455116  28.418  39.203   5.855
 9857POPC   GL155117  28.355  39.207   6.155
 9857POPC   GL255118  28.527  39.235   6.155
 9857POPC   C1A55119  28.339  39.197   6.455
 9857POPC   D2A55120  28.416  39.269   6.755
 9857POPC   C3A55121  28.334  39.210   7.055
 9857POPC   C4A55122  28.360  39.203   7.355
 9857POPC   C1B55123  28.654  39.183   6.455
 9857POPC   C2B55124  28.609  39.218   6.755
 9857POPC   C3B55125  28.572  39.217   7.055
 9857POPC   C4B55126  28.605  39.236   7.355
 9858POPC   NC355127  37.681  19.822   5.555
 9858POPC   PO455128  37.667  19.834   5.855
 9858POPC   GL155129  37.708  19.791   6.155
 9858POPC   GL255130  37.699  19.923   6.155
 9858POPC   C1A55131  37.649  19.845   6.455
 9858POPC   D2A55132  37.718  19.802   6.755
 9858POPC   C3A55133  37.665  19.828   7.055
 9858POPC   C4A55134  37.686  19.806   7.355
 9858POPC   C1B55135  37.763  20.097   6.455
 9858POPC   C2B55136  37.803  20.051   6.755
 9858POPC   C3B55137  37.787  20.100   7.055
 9858POPC   C4B55138  37.771  20.092   7.355
 9859POPC   NC355139  30.719  19.072   5.555
 9859POPC   PO455140  30.690  19.106   5.855
 9859POPC   GL155141  30.674  19.104   6.155
 9859POPC   GL255142  30.826  19.011   6.155
 9859POPC   C1A55143  30.687  19.056   6.455
 9859POPC   D2A55144  30.736  19.089   6.755
 9859POPC   C3A55145  30.697  19.087   7.055
 9859POPC   C4A55146  30.659  19.104   7.355
 9859POPC   C1B55147  30.897  18.859   6.455
 9859POPC   C2B55148  30.862  18.887   6.755
 9859POPC   C3B55149  30.834  18.927   7.055
 9859POPC   C4B55150  30.878  18.846   7.355
 9860POPC   NC355151  19.054  43.917   5.555
 9860POPC   PO455152  19.080  43.881   5.855
 9860POPC   GL155153  19.069  43.865   6.155
 9860POPC   GL255154  19.041  43.774   6.155
 9860POPC   C1A55155  19.108  43.877   6.455
 9860POPC   D2A55156  19.045  43.903   6.755
 9860POPC   C3A55157  19.025  43.887   7.055
 9860POPC   C4A55158  19.016  43.847   7.355
 9860POPC   C1B55159  19.092  43.686   6.455
 9860POPC   C2B55160  19.100  43.637   6.755
 9860POPC   C3B55161  19.083  43.683   7.055
 9860POPC   C4B55162  19.133  43.626   7.355
 9861POPC   NC355163  42.349  43.144   5.555
 9861POPC   PO455164  42.317  43.104   5.855
 9861POPC   GL155165  42.351  43.126   6.155
 9861POPC   GL255166  42.191  43.087   6.155
 9861POPC   C1A55167  42.310  43.149   6.455
 9861POPC   D2A55168  42.307  43.130   6.755
 9861POPC   C3A55169  42.307  43.079   7.055
 9861POPC   C4A55170  42.383  43.133   7.355
 9861POPC   C1B55171  42.105  43.076   6.455
 9861POPC   C2B55172  42.061  43.038   6.755
 9861POPC   C3B55173  42.094  43.047   7.055
 9861POPC   C4B55174  42.045  43.043   7.355
 9862POPC   NC355175  27.622  39.998   5.555
 9862POPC   PO455176  27.641  40.014   5.855
 9862POPC   GL155177  27.585  40.026   6.155
 9862POPC   GL255178  27.583  40.097   6.155
 9862POPC   C1A55179  27.593  40.047   6.455
 9862POPC   D2A55180  27.622  39.973   6.755
 9862POPC   C3A55181  27.546  39.999   7.055
 9862POPC   C4A55182  27.622  40.041   7.355
 9862POPC   C1B55183  27.612  40.239   6.455
 9862POPC   C2B55184  27.667  40.219   6.755
 9862POPC   C3B55185  27.656  40.250   7.055
 9862POPC   C4B55186  27.613  40.290   7.355
 9863POPC   NC355187  37.704  43.890   5.555
 9863POPC   PO455188  37.634  43.893   5.855
 9863POPC   GL155189  37.694  43.861   6.155
 9863POPC   GL255190  37.574  43.831   6.155
 9863POPC   C1A55191  37.707  43.841   6.455
 9863POPC   D2A55192  37.727  43.859   6.755
 9863POPC   C3A55193  37.650  43.845   7.055
 9863POPC   C4A55194  37.647  43.918   7.355
 9863POPC   C1B55195  37.401  43.810   6.455
 9863POPC   C2B55196  37.396  43.824   6.755
 9863POPC   C3B55197  37.436  43.825   7.055
 9863POPC   C4B55198  37.433  43.815   7.355
 9864POPC   NC355199  22.972  38.473   5.555
 9864POPC   PO455200  22.925  38.492   5.855
 9864POPC   GL155201  22.926  38.456   6.155
 9864POPC   GL255202  22.835  38.362   6.155
 9864POPC   C1A55203  22.926  38.452   6.455
 9864POPC   D2A55204  22.980  38.472   6.755
 9864POPC   C3A55205  22.905  38.445   7.055
 9864POPC   C4A55206  22.924  38.488   7.355
 9864POPC   C1B55207  22.741  38.297   6.455
 9864POPC   C2B55208  22.706  38.345   6.755
 9864POPC   C3B55209  22.777  38.273   7.055
 9864POPC   C4B55210  22.724  38.325   7.355
 9865POPC   NC355211  38.497  39.983   5.555
 9865POPC   PO455212  38.406  39.967   5.855
 9865POPC   GL155213  38.424  40.022   6.155
 9865POPC   GL255214  38.430  40.104   6.155
 9865POPC   C1A55215  38.448  40.040   6.455
 9865POPC   D2A55216  38.451  40.052   6.755
 9865POPC   C3A55217  38.496  40.014   7.055
 9865POPC   C4A55218  38.503  39.958   7.355
 9865POPC   C1B55219  38.525  40.289   6.455
 9865POPC   C2B55220  38.532  40.247   6.755
 9865POPC   C3B55221  38.521  40.208   7.055
 9865POPC   C4B55222  38.494  40.242   7.355
 9866POPC   NC355223  22.114   8.230   5.555
 9866POPC   PO455224  22.160   8.194   5.855
 9866POPC   GL155225  22.133   8.177   6.155
 9866POPC   GL255226  22.332   8.212   6.155
 9866POPC   C1A55227  22.168   8.223   6.455
 9866POPC   D2A55228  22.121   8.198   6.755
 9866POPC   C3A55229  22.205   8.224   7.055
 9866POPC   C4A55230  22.168   8.156   7.355
 9866POPC   C1B55231  22.453   8.285   6.455
 9866POPC   C2B55232  22.432   8.193   6.755
 9866POPC   C3B55233  22.369   8.250   7.055
 9866POPC   C4B55234  22.438   8.267   7.355
 9867POPC   NC355235  42.355  39.965   5.555
 9867POPC   PO455236  42.332  39.964   5.855
 9867POPC   GL155237  42.328  40.028   6.155
 9867POPC   GL255238  42.264  40.103   6.155
 9867POPC   C1A55239  42.285  40.055   6.455
 9867POPC   D2A55240  42.305  40.038   6.755
 9867POPC   C3A55241  42.356  40.035   7.055
 9867POPC   C4A55242  42.353  40.031   7.355
 9867POPC   C1B55243  42.219  40.206   6.455
 9867POPC   C2B55244  42.259  40.284   6.755
 9867POPC   C3B55245  42.291  40.264   7.055
 9867POPC   C4B55246  42.203  40.280   7.355
 9868POPC   NC355247  33.044   9.701   5.555
 9868POPC   PO455248  33.034   9.750   5.855
 9868POPC   GL155249  33.022   9.753   6.155
 9868POPC   GL255250  33.093   9.635   6.155
 9868POPC   C1A55251  33.058   9.772   6.455
 9868POPC   D2A55252  32.977   9.723   6.755
 9868POPC   C3A55253  32.977   9.792   7.055
 9868POPC   C4A55254  32.975   9.744   7.355
 9868POPC   C1B55255  33.111   9.508   6.455
 9868POPC   C2B55256  33.109   9.465   6.755
 9868POPC   C3B55257  33.072   9.484   7.055
 9868POPC   C4B55258  33.133   9.476   7.355
 9869POPC   NC355259  35.350  32.274   5.555
 9869POPC   PO455260  35.372  32.288   5.855
 9869POPC   GL155261  35.333  32.272   6.155
 9869POPC   GL255262  35.423  32.110   6.155
 9869POPC   C1A55263  35.394  32.265   6.455
 9869POPC   D2A55264  35.308  32.205   6.755
 9869POPC   C3A55265  35.367  32.204   7.055
 9869POPC   C4A55266  35.334  32.276   7.355
 9869POPC   C1B55267  35.472  31.987   6.455
 9869POPC   C2B55268  35.436  32.039   6.755
 9869POPC   C3B55269  35.486  32.038   7.055
 9869POPC   C4B55270  35.502  32.063   7.355
 9870POPC   NC355271  38.496  14.376   5.555
 9870POPC   PO455272  38.406  14.380   5.855
 9870POPC   GL155273  38.479  14.382   6.155
 9870POPC   GL255274  38.408  14.296   6.155
 9870POPC   C1A55275  38.449  14.434   6.455
 9870POPC   D2A55276  38.415  14.439   6.755
 9870POPC   C3A55277  38.456  14.393   7.055
 9870POPC   C4A55278  38.465  14.355   7.355
 9870POPC   C1B55279  38.392  14.151   6.455
 9870POPC   C2B55280  38.320  14.131   6.755
 9870POPC   C3B55281  38.404  14.145   7.055
 9870POPC   C4B55282  38.386  14.171   7.355
 9871POPC   NC355283   9.780  24.521   5.555
 9871POPC   PO455284   9.719  24.496   5.855
 9871POPC   GL155285   9.782  24.457   6.155
 9871POPC   GL255286   9.657  24.501   6.155
 9871POPC   C1A55287   9.784  24.489   6.455
 9871POPC   D2A55288   9.797  24.467   6.755
 9871POPC   C3A55289   9.777  24.518   7.055
 9871POPC   C4A55290   9.771  24.444   7.355
 9871POPC   C1B55291   9.473  24.468   6.455
 9871POPC   C2B55292   9.466  24.465   6.755
 9871POPC   C3B55293   9.490  24.500   7.055
 9871POPC   C4B55294   9.494  24.460   7.355
 9872POPC   NC355295  37.720  19.029   5.555
 9872POPC   PO455296  37.669  19.091   5.855
 9872POPC   GL155297  37.729  19.075   6.155
 9872POPC   GL255298  37.793  19.065   6.155
 9872POPC   C1A55299  37.638  19.016   6.455
 9872POPC   D2A55300  37.637  19.031   6.755
 9872POPC   C3A55301  37.645  19.079   7.055
 9872POPC   C4A55302  37.658  19.033   7.355
 9872POPC   C1B55303  37.923  19.026   6.455
 9872POPC   C2B55304  37.878  18.990   6.755
 9872POPC   C3B55305  37.906  19.018   7.055
 9872POPC   C4B55306  37.961  18.993   7.355
 9873POPC   NC355307  28.357  25.217   5.555
 9873POPC   PO455308  28.382  25.274   5.855
 9873POPC   GL155309  28.362  25.269   6.155
 9873POPC   GL255310  28.507  25.291   6.155
 9873POPC   C1A55311  28.408  25.219   6.455
 9873POPC   D2A55312  28.356  25.293   6.755
 9873POPC   C3A55313  28.383  25.266   7.055
 9873POPC   C4A55314  28.407  25.263   7.355
 9873POPC   C1B55315  28.602  25.238   6.455
 9873POPC   C2B55316  28.595  25.217   6.755
 9873POPC   C3B55317  28.576  25.266   7.055
 9873POPC   C4B55318  28.664  25.287   7.355
 9874POPC   NC355319  19.031  44.705   5.555
 9874POPC   PO455320  19.036  44.655   5.855
 9874POPC   GL155321  19.062  44.617   6.155
 9874POPC   GL255322  19.159  44.712   6.155
 9874POPC   C1A55323  19.009  44.619   6.455
 9874POPC   D2A55324  19.012  44.673   6.755
 9874POPC   C3A55325  19.063  44.704   7.055
 9874POPC   C4A55326  19.055  44.692   7.355
 9874POPC   C1B55327  19.263  44.775   6.455
 9874POPC   C2B55328  19.260  44.836   6.755
 9874POPC   C3B55329  19.233  44.767   7.055
 9874POPC   C4B55330  19.294  44.771   7.355
 9875POPC   NC355331  36.138   2.785   5.555
 9875POPC   PO455332  36.125   2.789   5.855
 9875POPC   GL155333  36.085   2.784   6.155
 9875POPC   GL255334  36.001   2.707   6.155
 9875POPC   C1A55335  36.157   2.719   6.455
 9875POPC   D2A55336  36.136   2.808   6.755
 9875POPC   C3A55337  36.144   2.807   7.055
 9875POPC   C4A55338  36.114   2.783   7.355
 9875POPC   C1B55339  35.953   2.579   6.455
 9875POPC   C2B55340  35.890   2.630   6.755
 9875POPC   C3B55341  35.959   2.618   7.055
 9875POPC   C4B55342  35.968   2.629   7.355
 9876POPC   NC355343   0.469  11.342   5.555
 9876POPC   PO455344   0.452  11.276   5.855
 9876POPC   GL155345   0.446  11.348   6.155
 9876POPC   GL255346   0.465  11.413   6.155
 9876POPC   C1A55347   0.434  11.346   6.455
 9876POPC   D2A55348   0.468  11.274   6.755
 9876POPC   C3A55349   0.408  11.334   7.055
 9876POPC   C4A55350   0.433  11.349   7.355
 9876POPC   C1B55351   0.558  11.553   6.455
 9876POPC   C2B55352   0.511  11.548   6.755
 9876POPC   C3B55353   0.573  11.547   7.055
 9876POPC   C4B55354   0.598  11.508   7.355
 9877POPC   NC355355   1.224  12.031   5.555
 9877POPC   PO455356   1.261  12.118   5.855
 9877POPC   GL155357   1.190  12.126   6.155
 9877POPC   GL255358   1.231  11.967   6.155
 9877POPC   C1A55359   1.240  12.079   6.455
 9877POPC   D2A55360   1.245  12.066   6.755
 9877POPC   C3A55361   1.196  12.090   7.055
 9877POPC   C4A55362   1.184  12.071   7.355
 9877POPC   C1B55363   1.120  11.877   6.455
 9877POPC   C2B55364   1.198  11.870   6.755
 9877POPC   C3B55365   1.200  11.848   7.055
 9877POPC   C4B55366   1.160  11.802   7.355
 9878POPC   NC355367   0.469  43.099   5.555
 9878POPC   PO455368   0.458  43.138   5.855
 9878POPC   GL155369   0.389  43.123   6.155
 9878POPC   GL255370   0.374  43.277   6.155
 9878POPC   C1A55371   0.408  43.081   6.455
 9878POPC   D2A55372   0.398  43.097   6.755
 9878POPC   C3A55373   0.388  43.121   7.055
 9878POPC   C4A55374   0.409  43.115   7.355
 9878POPC   C1B55375   0.408  43.394   6.455
 9878POPC   C2B55376   0.341  43.382   6.755
 9878POPC   C3B55377   0.415  43.327   7.055
 9878POPC   C4B55378   0.423  43.324   7.355
 9879POPC   NC355379  37.703  21.370   5.555
 9879POPC   PO455380  37.677  21.374   5.855
 9879POPC   GL155381  37.727  21.431   6.155
 9879POPC   GL255382  37.553  21.470   6.155
 9879POPC   C1A55383  37.688  21.347   6.455
 9879POPC   D2A55384  37.656  21.369   6.755
 9879POPC   C3A55385  37.673  21.386   7.055
 9879POPC   C4A55386  37.715  21.363   7.355
 9879POPC   C1B55387  37.415  21.428   6.455
 9879POPC   C2B55388  37.462  21.431   6.755
 9879POPC   C3B55389  37.405  21.503   7.055
 9879POPC   C4B55390  37.472  21.430   7.355
 9880POPC   NC355391  43.087  12.840   5.555
 9880POPC   PO455392  43.075  12.871   5.855
 9880POPC   GL155393  43.129  12.890   6.155
 9880POPC   GL255394  43.145  12.691   6.155
 9880POPC   C1A55395  43.099  12.804   6.455
 9880POPC   D2A55396  43.090  12.834   6.755
 9880POPC   C3A55397  43.112  12.832   7.055
 9880POPC   C4A55398  43.073  12.864   7.355
 9880POPC   C1B55399  43.204  12.621   6.455
 9880POPC   C2B55400  43.224  12.669   6.755
 9880POPC   C3B55401  43.162  12.651   7.055
 9880POPC   C4B55402  43.246  12.644   7.355
 9881POPC   NC355403  23.684   0.472   5.555
 9881POPC   PO455404  23.754   0.458   5.855
 9881POPC   GL155405  23.708   0.450   6.155
 9881POPC   GL255406  23.753   0.283   6.155
 9881POPC   C1A55407  23.715   0.401   6.455
 9881POPC   D2A55408  23.715   0.424   6.755
 9881POPC   C3A55409  23.735   0.459   7.055
 9881POPC   C4A55410  23.720   0.408   7.355
 9881POPC   C1B55411  23.746   0.154   6.455
 9881POPC   C2B55412  23.733   0.159   6.755
 9881POPC   C3B55413  23.738   0.171   7.055
 9881POPC   C4B55414  23.812   0.169   7.355
 9882POPC   NC355415  11.279  16.688   5.555
 9882POPC   PO455416  11.274  16.746   5.855
 9882POPC   GL155417  11.262  16.686   6.155
 9882POPC   GL255418  11.259  16.583   6.155
 9882POPC   C1A55419  11.288  16.729   6.455
 9882POPC   D2A55420  11.253  16.720   6.755
 9882POPC   C3A55421  11.282  16.704   7.055
 9882POPC   C4A55422  11.317  16.683   7.355
 9882POPC   C1B55423  11.108  16.497   6.455
 9882POPC   C2B55424  11.185  16.536   6.755
 9882POPC   C3B55425  11.121  16.508   7.055
 9882POPC   C4B55426  11.143  16.557   7.355
 9883POPC   NC355427  31.464  27.643   5.555
 9883POPC   PO455428  31.501  27.618   5.855
 9883POPC   GL155429  31.453  27.602   6.155
 9883POPC   GL255430  31.392  27.683   6.155
 9883POPC   C1A55431  31.520  27.556   6.455
 9883POPC   D2A55432  31.469  27.557   6.755
 9883POPC   C3A55433  31.427  27.567   7.055
 9883POPC   C4A55434  31.496  27.564   7.355
 9883POPC   C1B55435  31.352  27.790   6.455
 9883POPC   C2B55436  31.362  27.796   6.755
 9883POPC   C3B55437  31.317  27.776   7.055
 9883POPC   C4B55438  31.318  27.806   7.355
 9884POPC   NC355439  36.861  29.909   5.555
 9884POPC   PO455440  36.940  29.888   5.855
 9884POPC   GL155441  36.863  29.968   6.155
 9884POPC   GL255442  37.027  29.995   6.155
 9884POPC   C1A55443  36.887  29.879   6.455
 9884POPC   D2A55444  36.906  29.942   6.755
 9884POPC   C3A55445  36.870  29.904   7.055
 9884POPC   C4A55446  36.893  29.917   7.355
 9884POPC   C1B55447  37.071  30.049   6.455
 9884POPC   C2B55448  37.115  30.055   6.755
 9884POPC   C3B55449  37.070  30.143   7.055
 9884POPC   C4B55450  37.088  30.134   7.355
 9885POPC   NC355451  36.934  18.238   5.555
 9885POPC   PO455452  36.902  18.292   5.855
 9885POPC   GL155453  36.934  18.331   6.155
 9885POPC   GL255454  36.917  18.374   6.155
 9885POPC   C1A55455  36.870  18.286   6.455
 9885POPC   D2A55456  36.893  18.257   6.755
 9885POPC   C3A55457  36.885  18.233   7.055
 9885POPC   C4A55458  36.860  18.257   7.355
 9885POPC   C1B55459  36.851  18.575   6.455
 9885POPC   C2B55460  36.893  18.521   6.755
 9885POPC   C3B55461  36.869  18.530   7.055
 9885POPC   C4B55462  36.880  18.566   7.355
 9886POPC   NC355463  36.855  21.363   5.555
 9886POPC   PO455464  36.873  21.346   5.855
 9886POPC   GL155465  36.905  21.389   6.155
 9886POPC   GL255466  36.883  21.474   6.155
 9886POPC   C1A55467  36.881  21.362   6.455
 9886POPC   D2A55468  36.876  21.351   6.755
 9886POPC   C3A55469  36.911  21.415   7.055
 9886POPC   C4A55470  36.936  21.396   7.355
 9886POPC   C1B55471  36.842  21.618   6.455
 9886POPC   C2B55472  36.871  21.683   6.755
 9886POPC   C3B55473  36.825  21.656   7.055
 9886POPC   C4B55474  36.915  21.587   7.355
 9887POPC   NC355475   9.739  40.053   5.555
 9887POPC   PO455476   9.773  40.020   5.855
 9887POPC   GL155477   9.717  39.978   6.155
 9887POPC   GL255478   9.673  39.953   6.155
 9887POPC   C1A55479   9.722  39.991   6.455
 9887POPC   D2A55480   9.749  40.040   6.755
 9887POPC   C3A55481   9.732  40.000   7.055
 9887POPC   C4A55482   9.702  40.017   7.355
 9887POPC   C1B55483   9.486  39.947   6.455
 9887POPC   C2B55484   9.533  39.992   6.755
 9887POPC   C3B55485   9.524  39.976   7.055
 9887POPC   C4B55486   9.491  39.945   7.355
 9888POPC   NC355487  12.073  22.113   5.555
 9888POPC   PO455488  12.038  22.127   5.855
 9888POPC   GL155489  12.115  22.138   6.155
 9888POPC   GL255490  12.119  22.028   6.155
 9888POPC   C1A55491  12.064  22.206   6.455
 9888POPC   D2A55492  12.085  22.136   6.755
 9888POPC   C3A55493  12.037  22.115   7.055
 9888POPC   C4A55494  12.040  22.113   7.355
 9888POPC   C1B55495  12.098  21.959   6.455
 9888POPC   C2B55496  12.063  21.909   6.755
 9888POPC   C3B55497  12.062  21.864   7.055
 9888POPC   C4B55498  12.089  21.882   7.355
 9889POPC   NC355499  12.854  31.483   5.555
 9889POPC   PO455500  12.836  31.519   5.855
 9889POPC   GL155501  12.882  31.494   6.155
 9889POPC   GL255502  12.837  31.322   6.155
 9889POPC   C1A55503  12.849  31.432   6.455
 9889POPC   D2A55504  12.838  31.467   6.755
 9889POPC   C3A55505  12.883  31.453   7.055
 9889POPC   C4A55506  12.901  31.463   7.355
 9889POPC   C1B55507  12.848  31.193   6.455
 9889POPC   C2B55508  12.790  31.231   6.755
 9889POPC   C3B55509  12.792  31.265   7.055
 9889POPC   C4B55510  12.790  31.199   7.355
 9890POPC   NC355511  37.694  10.546   5.555
 9890POPC   PO455512  37.666  10.508   5.855
 9890POPC   GL155513  37.716  10.527   6.155
 9890POPC   GL255514  37.567  10.651   6.155
 9890POPC   C1A55515  37.648  10.566   6.455
 9890POPC   D2A55516  37.682  10.546   6.755
 9890POPC   C3A55517  37.717  10.512   7.055
 9890POPC   C4A55518  37.707  10.500   7.355
 9890POPC   C1B55519  37.549  10.702   6.455
 9890POPC   C2B55520  37.547  10.679   6.755
 9890POPC   C3B55521  37.498  10.732   7.055
 9890POPC   C4B55522  37.538  10.762   7.355
 9891POPC   NC355523  33.807  21.381   5.555
 9891POPC   PO455524  33.772  21.402   5.855
 9891POPC   GL155525  33.800  21.366   6.155
 9891POPC   GL255526  33.727  21.289   6.155
 9891POPC   C1A55527  33.839  21.342   6.455
 9891POPC   D2A55528  33.843  21.413   6.755
 9891POPC   C3A55529  33.838  21.416   7.055
 9891POPC   C4A55530  33.784  21.366   7.355
 9891POPC   C1B55531  33.685  21.133   6.455
 9891POPC   C2B55532  33.758  21.193   6.755
 9891POPC   C3B55533  33.701  21.114   7.055
 9891POPC   C4B55534  33.735  21.137   7.355
 9892POPC   NC355535   1.245  36.125   5.555
 9892POPC   PO455536   1.253  36.102   5.855
 9892POPC   GL155537   1.236  36.141   6.155
 9892POPC   GL255538   1.231  35.961   6.155
 9892POPC   C1A55539   1.263  36.153   6.455
 9892POPC   D2A55540   1.256  36.176   6.755
 9892POPC   C3A55541   1.188  36.106   7.055
 9892POPC   C4A55542   1.222  36.144   7.355
 9892POPC   C1B55543   1.188  35.883   6.455
 9892POPC   C2B55544   1.198  35.887   6.755
 9892POPC   C3B55545   1.232  35.861   7.055
 9892POPC   C4B55546   1.192  35.856   7.355
 9893POPC   NC355547   8.206  18.294   5.555
 9893POPC   PO455548   8.191  18.312   5.855
 9893POPC   GL155549   8.214  18.263   6.155
 9893POPC   GL255550   8.102  18.164   6.155
 9893POPC   C1A55551   8.234  18.284   6.455
 9893POPC   D2A55552   8.227  18.277   6.755
 9893POPC   C3A55553   8.205  18.296   7.055
 9893POPC   C4A55554   8.192  18.293   7.355
 9893POPC   C1B55555   8.055  18.105   6.455
 9893POPC   C2B55556   8.015  18.119   6.755
 9893POPC   C3B55557   8.055  18.082   7.055
 9893POPC   C4B55558   7.971  18.096   7.355
 9894POPC   NC355559  27.581  25.291   5.555
 9894POPC   PO455560  27.610  25.236   5.855
 9894POPC   GL155561  27.579  25.270   6.155
 9894POPC   GL255562  27.457  25.243   6.155
 9894POPC   C1A55563  27.597  25.305   6.455
 9894POPC   D2A55564  27.626  25.268   6.755
 9894POPC   C3A55565  27.560  25.237   7.055
 9894POPC   C4A55566  27.594  25.279   7.355
 9894POPC   C1B55567  27.346  25.194   6.455
 9894POPC   C2B55568  27.390  25.155   6.755
 9894POPC   C3B55569  27.366  25.166   7.055
 9894POPC   C4B55570  27.382  25.135   7.355
 9895POPC   NC355571   9.777  15.939   5.555
 9895POPC   PO455572   9.742  15.924   5.855
 9895POPC   GL155573   9.722  15.992   6.155
 9895POPC   GL255574   9.790  15.804   6.155
 9895POPC   C1A55575   9.792  15.970   6.455
 9895POPC   D2A55576   9.747  15.914   6.755
 9895POPC   C3A55577   9.724  15.973   7.055
 9895POPC   C4A55578   9.703  15.952   7.355
 9895POPC   C1B55579   9.860  15.709   6.455
 9895POPC   C2B55580   9.918  15.765   6.755
 9895POPC   C3B55581   9.855  15.781   7.055
 9895POPC   C4B55582   9.864  15.708   7.355
 9896POPC   NC355583   6.605  40.806   5.555
 9896POPC   PO455584   6.675  40.760   5.855
 9896POPC   GL155585   6.693  40.775   6.155
 9896POPC   GL255586   6.748  40.834   6.155
 9896POPC   C1A55587   6.618  40.805   6.455
 9896POPC   D2A55588   6.649  40.797   6.755
 9896POPC   C3A55589   6.655  40.827   7.055
 9896POPC   C4A55590   6.659  40.754   7.355
 9896POPC   C1B55591   6.815  40.982   6.455
 9896POPC   C2B55592   6.838  40.993   6.755
 9896POPC   C3B55593   6.848  41.013   7.055
 9896POPC   C4B55594   6.861  40.956   7.355
 9897POPC   NC355595  22.172  31.441   5.555
 9897POPC   PO455596  22.206  31.466   5.855
 9897POPC   GL155597  22.140  31.425   6.155
 9897POPC   GL255598  22.058  31.385   6.155
 9897POPC   C1A55599  22.157  31.502   6.455
 9897POPC   D2A55600  22.167  31.444   6.755
 9897POPC   C3A55601  22.190  31.454   7.055
 9897POPC   C4A55602  22.130  31.498   7.355
 9897POPC   C1B55603  21.900  31.325   6.455
 9897POPC   C2B55604  21.923  31.324   6.755
 9897POPC   C3B55605  21.912  31.372   7.055
 9897POPC   C4B55606  21.911  31.314   7.355
 9898POPC   NC355607   1.195   8.999   5.555
 9898POPC   PO455608   1.189   8.934   5.855
 9898POPC   GL155609   1.211   8.923   6.155
 9898POPC   GL255610   1.296   8.931   6.155
 9898POPC   C1A55611   1.179   8.957   6.455
 9898POPC   D2A55612   1.262   8.981   6.755
 9898POPC   C3A55613   1.211   9.003   7.055
 9898POPC   C4A55614   1.263   9.022   7.355
 9898POPC   C1B55615   1.447   8.944   6.455
 9898POPC   C2B55616   1.489   8.993   6.755
 9898POPC   C3B55617   1.421   8.931   7.055
 9898POPC   C4B55618   1.461   8.925   7.355
 9899POPC   NC355619  23.716   1.941   5.555
 9899POPC   PO455620  23.746   2.038   5.855
 9899POPC   GL155621  23.703   1.980   6.155
 9899POPC   GL255622  23.564   1.969   6.155
 9899POPC   C1A55623  23.763   2.015   6.455
 9899POPC   D2A55624  23.683   2.025   6.755
 9899POPC   C3A55625  23.740   1.986   7.055
 9899POPC   C4A55626  23.683   1.981   7.355
 9899POPC   C1B55627  23.538   1.912   6.455
 9899POPC   C2B55628  23.465   1.842   6.755
 9899POPC   C3B55629  23.535   1.912   7.055
 9899POPC   C4B55630  23.486   1.903   7.355
 9900POPC   NC355631  20.595   5.086   5.555
 9900POPC   PO455632  20.656   5.062   5.855
 9900POPC   GL155633  20.602   5.108   6.155
 9900POPC   GL255634  20.731   5.205   6.155
 9900POPC   C1A55635  20.643   5.140   6.455
 9900POPC   D2A55636  20.621   5.069   6.755
 9900POPC   C3A55637  20.580   5.142   7.055
 9900POPC   C4A55638  20.595   5.079   7.355
 9900POPC   C1B55639  20.820   5.267   6.455
 9900POPC   C2B55640  20.786   5.254   6.755
 9900POPC   C3B55641  20.814   5.184   7.055
 9900POPC   C4B55642  20.773   5.270   7.355
 9901POPC   NC355643  16.776  34.578   5.555
 9901POPC   PO455644  16.725  34.556   5.855
 9901POPC   GL155645  16.780  34.570   6.155
 9901POPC   GL255646  16.738  34.721   6.155
 9901POPC   C1A55647  16.767  34.573   6.455
 9901POPC   D2A55648  16.744  34.586   6.755
 9901POPC   C3A55649  16.717  34.594   7.055
 9901POPC   C4A55650  16.768  34.603   7.355
 9901POPC   C1B55651  16.609  34.826   6.455
 9901POPC   C2B55652  16.660  34.786   6.755
 9901POPC   C3B55653  16.651  34.810   7.055
 9901POPC   C4B55654  16.604  34.798   7.355
 9902POPC   NC355655   9.743  33.064   5.555
 9902POPC   PO455656   9.712  33.037   5.855
 9902POPC   GL155657   9.788  32.976   6.155
 9902POPC   GL255658   9.746  32.898   6.155
 9902POPC   C1A55659   9.774  33.024   6.455
 9902POPC   D2A55660   9.766  33.072   6.755
 9902POPC   C3A55661   9.738  33.050   7.055
 9902POPC   C4A55662   9.728  33.067   7.355
 9902POPC   C1B55663   9.612  32.836   6.455
 9902POPC   C2B55664   9.617  32.795   6.755
 9902POPC   C3B55665   9.612  32.808   7.055
 9902POPC   C4B55666   9.641  32.788   7.355
 9903POPC   NC355667  41.553  33.033   5.555
 9903POPC   PO455668  41.543  33.038   5.855
 9903POPC   GL155669  41.584  32.981   6.155
 9903POPC   GL255670  41.557  32.902   6.155
 9903POPC   C1A55671  41.527  32.986   6.455
 9903POPC   D2A55672  41.586  33.064   6.755
 9903POPC   C3A55673  41.552  33.038   7.055
 9903POPC   C4A55674  41.548  33.025   7.355
 9903POPC   C1B55675  41.562  32.825   6.455
 9903POPC   C2B55676  41.551  32.826   6.755
 9903POPC   C3B55677  41.542  32.815   7.055
 9903POPC   C4B55678  41.539  32.747   7.355
 9904POPC   NC355679  24.441   0.477   5.555
 9904POPC   PO455680  24.499   0.397   5.855
 9904POPC   GL155681  24.457   0.428   6.155
 9904POPC   GL255682  24.411   0.397   6.155
 9904POPC   C1A55683  24.456   0.422   6.455
 9904POPC   D2A55684  24.520   0.443   6.755
 9904POPC   C3A55685  24.466   0.388   7.055
 9904POPC   C4A55686  24.491   0.484   7.355
 9904POPC   C1B55687  24.207   0.365   6.455
 9904POPC   C2B55688  24.231   0.375   6.755
 9904POPC   C3B55689  24.255   0.441   7.055
 9904POPC   C4B55690  24.287   0.353   7.355
 9905POPC   NC355691  12.076  43.090   5.555
 9905POPC   PO455692  12.035  43.133   5.855
 9905POPC   GL155693  12.079  43.066   6.155
 9905POPC   GL255694  11.941  43.180   6.155
 9905POPC   C1A55695  12.119  43.080   6.455
 9905POPC   D2A55696  12.060  43.086   6.755
 9905POPC   C3A55697  12.045  43.138   7.055
 9905POPC   C4A55698  12.065  43.153   7.355
 9905POPC   C1B55699  11.805  43.207   6.455
 9905POPC   C2B55700  11.842  43.196   6.755
 9905POPC   C3B55701  11.890  43.220   7.055
 9905POPC   C4B55702  11.842  43.223   7.355
 9906POPC   NC355703  37.642  41.607   5.555
 9906POPC   PO455704  37.729  41.557   5.855
 9906POPC   GL155705  37.663  41.553   6.155
 9906POPC   GL255706  37.587  41.449   6.155
 9906POPC   C1A55707  37.728  41.526   6.455
 9906POPC   D2A55708  37.666  41.514   6.755
 9906POPC   C3A55709  37.717  41.531   7.055
 9906POPC   C4A55710  37.632  41.536   7.355
 9906POPC   C1B55711  37.458  41.448   6.455
 9906POPC   C2B55712  37.498  41.371   6.755
 9906POPC   C3B55713  37.483  41.429   7.055
 9906POPC   C4B55714  37.474  41.460   7.355
 9907POPC   NC355715  29.920   7.428   5.555
 9907POPC   PO455716  29.924   7.404   5.855
 9907POPC   GL155717  29.905   7.429   6.155
 9907POPC   GL255718  29.847   7.505   6.155
 9907POPC   C1A55719  29.930   7.388   6.455
 9907POPC   D2A55720  29.889   7.401   6.755
 9907POPC   C3A55721  29.958   7.399   7.055
 9907POPC   C4A55722  29.871   7.453   7.355
 9907POPC   C1B55723  29.734   7.619   6.455
 9907POPC   C2B55724  29.737   7.574   6.755
 9907POPC   C3B55725  29.672   7.602   7.055
 9907POPC   C4B55726  29.750   7.522   7.355
 9908POPC   NC355727  43.883  31.427   5.555
 9908POPC   PO455728  43.858  31.490   5.855
 9908POPC   GL155729  43.846  31.434   6.155
 9908POPC   GL255730  43.926  31.344   6.155
 9908POPC   C1A55731  43.935  31.510   6.455
 9908POPC   D2A55732  43.904  31.489   6.755
 9908POPC   C3A55733  43.891  31.462   7.055
 9908POPC   C4A55734  43.914  31.485   7.355
 9908POPC   C1B55735  43.951  31.188   6.455
 9908POPC   C2B55736  43.921  31.245   6.755
 9908POPC   C3B55737  43.898  31.206   7.055
 9908POPC   C4B55738  43.869  31.254   7.355
 9909POPC   NC355739  43.128  13.590   5.555
 9909POPC   PO455740  43.062  13.675   5.855
 9909POPC   GL155741  43.100  13.594   6.155
 9909POPC   GL255742  43.149  13.731   6.155
 9909POPC   C1A55743  43.140  13.601   6.455
 9909POPC   D2A55744  43.117  13.607   6.755
 9909POPC   C3A55745  43.148  13.641   7.055
 9909POPC   C4A55746  43.109  13.622   7.355
 9909POPC   C1B55747  43.115  13.912   6.455
 9909POPC   C2B55748  43.060  13.830   6.755
 9909POPC   C3B55749  43.078  13.839   7.055
 9909POPC   C4B55750  43.074  13.839   7.355
 9910POPC   NC355751  36.141   8.228   5.555
 9910POPC   PO455752  36.161   8.173   5.855
 9910POPC   GL155753  36.115   8.211   6.155
 9910POPC   GL255754  36.072   8.148   6.155
 9910POPC   C1A55755  36.119   8.234   6.455
 9910POPC   D2A55756  36.138   8.194   6.755
 9910POPC   C3A55757  36.176   8.237   7.055
 9910POPC   C4A55758  36.173   8.242   7.355
 9910POPC   C1B55759  35.895   8.092   6.455
 9910POPC   C2B55760  35.896   8.029   6.755
 9910POPC   C3B55761  35.935   8.062   7.055
 9910POPC   C4B55762  35.946   8.062   7.355
 9911POPC   NC355763  14.389  43.918   5.555
 9911POPC   PO455764  14.396  43.918   5.855
 9911POPC   GL155765  14.446  43.871   6.155
 9911POPC   GL255766  14.329  43.777   6.155
 9911POPC   C1A55767  14.376  43.934   6.455
 9911POPC   D2A55768  14.379  43.871   6.755
 9911POPC   C3A55769  14.429  43.853   7.055
 9911POPC   C4A55770  14.406  43.926   7.355
 9911POPC   C1B55771  14.272  43.665   6.455
 9911POPC   C2B55772  14.329  43.630   6.755
 9911POPC   C3B55773  14.273  43.652   7.055
 9911POPC   C4B55774  14.320  43.642   7.355
 9912POPC   NC355775  35.369  27.588   5.555
 9912POPC   PO455776  35.326  27.579   5.855
 9912POPC   GL155777  35.323  27.565   6.155
 9912POPC   GL255778  35.483  27.585   6.155
 9912POPC   C1A55779  35.336  27.567   6.455
 9912POPC   D2A55780  35.347  27.563   6.755
 9912POPC   C3A55781  35.398  27.623   7.055
 9912POPC   C4A55782  35.369  27.581   7.355
 9912POPC   C1B55783  35.603  27.617   6.455
 9912POPC   C2B55784  35.555  27.614   6.755
 9912POPC   C3B55785  35.606  27.602   7.055
 9912POPC   C4B55786  35.640  27.593   7.355
 9913POPC   NC355787  16.723  41.534   5.555
 9913POPC   PO455788  16.774  41.529   5.855
 9913POPC   GL155789  16.707  41.540   6.155
 9913POPC   GL255790  16.610  41.474   6.155
 9913POPC   C1A55791  16.710  41.567   6.455
 9913POPC   D2A55792  16.772  41.554   6.755
 9913POPC   C3A55793  16.751  41.557   7.055
 9913POPC   C4A55794  16.732  41.590   7.355
 9913POPC   C1B55795  16.507  41.422   6.455
 9913POPC   C2B55796  16.554  41.462   6.755
 9913POPC   C3B55797  16.501  41.390   7.055
 9913POPC   C4B55798  16.566  41.476   7.355
 9914POPC   NC355799   4.281  28.412   5.555
 9914POPC   PO455800   4.358  28.419   5.855
 9914POPC   GL155801   4.329  28.357   6.155
 9914POPC   GL255802   4.353  28.436   6.155
 9914POPC   C1A55803   4.309  28.352   6.455
 9914POPC   D2A55804   4.301  28.328   6.755
 9914POPC   C3A55805   4.321  28.368   7.055
 9914POPC   C4A55806   4.344  28.409   7.355
 9914POPC   C1B55807   4.454  28.587   6.455
 9914POPC   C2B55808   4.371  28.553   6.755
 9914POPC   C3B55809   4.464  28.599   7.055
 9914POPC   C4B55810   4.400  28.582   7.355
 9915POPC   NC355811   4.353  43.845   5.555
 9915POPC   PO455812   4.286  43.848   5.855
 9915POPC   GL155813   4.295  43.903   6.155
 9915POPC   GL255814   4.387  43.958   6.155
 9915POPC   C1A55815   4.339  43.881   6.455
 9915POPC   D2A55816   4.319  43.872   6.755
 9915POPC   C3A55817   4.272  43.863   7.055
 9915POPC   C4A55818   4.360  43.895   7.355
 9915POPC   C1B55819   4.491  44.137   6.455
 9915POPC   C2B55820   4.443  44.087   6.755
 9915POPC   C3B55821   4.438  44.095   7.055
 9915POPC   C4B55822   4.417  44.054   7.355
 9916POPC   NC355823  16.685   0.412   5.555
 9916POPC   PO455824  16.734   0.464   5.855
 9916POPC   GL155825  16.684   0.452   6.155
 9916POPC   GL255826  16.723   0.521   6.155
 9916POPC   C1A55827  16.696   0.414   6.455
 9916POPC   D2A55828  16.765   0.389   6.755
 9916POPC   C3A55829  16.766   0.485   7.055
 9916POPC   C4A55830  16.769   0.410   7.355
 9916POPC   C1B55831  16.791   0.710   6.455
 9916POPC   C2B55832  16.835   0.660   6.755
 9916POPC   C3B55833  16.839   0.670   7.055
 9916POPC   C4B55834  16.761   0.702   7.355
 9917POPC   NC355835   8.982  25.219   5.555
 9917POPC   PO455836   8.998  25.305   5.855
 9917POPC   GL155837   9.014  25.293   6.155
 9917POPC   GL255838   8.970  25.365   6.155
 9917POPC   C1A55839   9.021  25.217   6.455
 9917POPC   D2A55840   8.972  25.239   6.755
 9917POPC   C3A55841   9.010  25.224   7.055
 9917POPC   C4A55842   8.984  25.311   7.355
 9917POPC   C1B55843   8.912  25.507   6.455
 9917POPC   C2B55844   8.910  25.530   6.755
 9917POPC   C3B55845   8.961  25.493   7.055
 9917POPC   C4B55846   8.862  25.526   7.355
 9918POPC   NC355847  42.287  27.549   5.555
 9918POPC   PO455848  42.321  27.587   5.855
 9918POPC   GL155849  42.296  27.594   6.155
 9918POPC   GL255850  42.331  27.451   6.155
 9918POPC   C1A55851  42.329  27.629   6.455
 9918POPC   D2A55852  42.336  27.627   6.755
 9918POPC   C3A55853  42.326  27.582   7.055
 9918POPC   C4A55854  42.314  27.582   7.355
 9918POPC   C1B55855  42.303  27.322   6.455
 9918POPC   C2B55856  42.292  27.341   6.755
 9918POPC   C3B55857  42.274  27.314   7.055
 9918POPC   C4B55858  42.278  27.316   7.355
 9919POPC   NC355859  18.279  12.832   5.555
 9919POPC   PO455860  18.328  12.859   5.855
 9919POPC   GL155861  18.240  12.816   6.155
 9919POPC   GL255862  18.204  12.870   6.155
 9919POPC   C1A55863  18.238  12.865   6.455
 9919POPC   D2A55864  18.241  12.899   6.755
 9919POPC   C3A55865  18.240  12.830   7.055
 9919POPC   C4A55866  18.292  12.869   7.355
 9919POPC   C1B55867  18.055  12.917   6.455
 9919POPC   C2B55868  18.050  12.868   6.755
 9919POPC   C3B55869  18.027  12.831   7.055
 9919POPC   C4B55870  18.071  12.853   7.355
 9920POPC   NC355871   9.731  34.569   5.555
 9920POPC   PO455872   9.756  34.531   5.855
 9920POPC   GL155873   9.784  34.589   6.155
 9920POPC   GL255874   9.720  34.707   6.155
 9920POPC   C1A55875   9.727  34.579   6.455
 9920POPC   D2A55876   9.756  34.530   6.755
 9920POPC   C3A55877   9.785  34.588   7.055
 9920POPC   C4A55878   9.713  34.567   7.355
 9920POPC   C1B55879   9.637  34.840   6.455
 9920POPC   C2B55880   9.661  34.746   6.755
 9920POPC   C3B55881   9.572  34.770   7.055
 9920POPC   C4B55882   9.631  34.826   7.355
 9921POPC   NC355883  30.744  17.467   5.555
 9921POPC   PO455884  30.731  17.462   5.855
 9921POPC   GL155885  30.714  17.543   6.155
 9921POPC   GL255886  30.763  17.456   6.155
 9921POPC   C1A55887  30.695  17.518   6.455
 9921POPC   D2A55888  30.666  17.556   6.755
 9921POPC   C3A55889  30.682  17.527   7.055
 9921POPC   C4A55890  30.700  17.478   7.355
 9921POPC   C1B55891  30.924  17.356   6.455
 9921POPC   C2B55892  30.952  17.440   6.755
 9921POPC   C3B55893  30.944  17.427   7.055
 9921POPC   C4B55894  30.936  17.395   7.355
 9922POPC   NC355895  11.338  28.365   5.555
 9922POPC   PO455896  11.348  28.336   5.855
 9922POPC   GL155897  11.327  28.418   6.155
 9922POPC   GL255898  11.275  28.459   6.155
 9922POPC   C1A55899  11.280  28.411   6.455
 9922POPC   D2A55900  11.319  28.402   6.755
 9922POPC   C3A55901  11.269  28.377   7.055
 9922POPC   C4A55902  11.273  28.407   7.355
 9922POPC   C1B55903  11.191  28.555   6.455
 9922POPC   C2B55904  11.164  28.540   6.755
 9922POPC   C3B55905  11.122  28.550   7.055
 9922POPC   C4B55906  11.154  28.549   7.355
 9923POPC   NC355907  26.077   5.844   5.555
 9923POPC   PO455908  26.055   5.862   5.855
 9923POPC   GL155909  26.076   5.916   6.155
 9923POPC   GL255910  26.134   5.973   6.155
 9923POPC   C1A55911  26.020   5.831   6.455
 9923POPC   D2A55912  26.040   5.826   6.755
 9923POPC   C3A55913  26.028   5.895   7.055
 9923POPC   C4A55914  26.002   5.893   7.355
 9923POPC   C1B55915  26.231   6.036   6.455
 9923POPC   C2B55916  26.216   5.999   6.755
 9923POPC   C3B55917  26.268   6.084   7.055
 9923POPC   C4B55918  26.199   6.067   7.355
 9924POPC   NC355919  36.136  41.551   5.555
 9924POPC   PO455920  36.166  41.529   5.855
 9924POPC   GL155921  36.158  41.566   6.155
 9924POPC   GL255922  36.046  41.675   6.155
 9924POPC   C1A55923  36.146  41.567   6.455
 9924POPC   D2A55924  36.107  41.607   6.755
 9924POPC   C3A55925  36.111  41.582   7.055
 9924POPC   C4A55926  36.125  41.558   7.355
 9924POPC   C1B55927  35.968  41.783   6.455
 9924POPC   C2B55928  35.927  41.766   6.755
 9924POPC   C3B55929  35.937  41.741   7.055
 9924POPC   C4B55930  35.995  41.777   7.355
 9925POPC   NC355931  17.489  43.847   5.555
 9925POPC   PO455932  17.475  43.926   5.855
 9925POPC   GL155933  17.492  43.891   6.155
 9925POPC   GL255934  17.454  44.051   6.155
 9925POPC   C1A55935  17.463  43.883   6.455
 9925POPC   D2A55936  17.532  43.848   6.755
 9925POPC   C3A55937  17.468  43.850   7.055
 9925POPC   C4A55938  17.555  43.929   7.355
 9925POPC   C1B55939  17.435  44.113   6.455
 9925POPC   C2B55940  17.447  44.096   6.755
 9925POPC   C3B55941  17.435  44.130   7.055
 9925POPC   C4B55942  17.389  44.168   7.355
 9926POPC   NC355943  13.615  35.317   5.555
 9926POPC   PO455944  13.656  35.376   5.855
 9926POPC   GL155945  13.672  35.337   6.155
 9926POPC   GL255946  13.633  35.247   6.155
 9926POPC   C1A55947  13.608  35.391   6.455
 9926POPC   D2A55948  13.597  35.401   6.755
 9926POPC   C3A55949  13.619  35.391   7.055
 9926POPC   C4A55950  13.591  35.366   7.355
 9926POPC   C1B55951  13.730  35.165   6.455
 9926POPC   C2B55952  13.716  35.079   6.755
 9926POPC   C3B55953  13.735  35.079   7.055
 9926POPC   C4B55954  13.703  35.134   7.355
 9927POPC   NC355955  26.040  33.826   5.555
 9927POPC   PO455956  26.036  33.778   5.855
 9927POPC   GL155957  26.044  33.841   6.155
 9927POPC   GL255958  26.160  33.687   6.155
 9927POPC   C1A55959  26.043  33.823   6.455
 9927POPC   D2A55960  26.016  33.836   6.755
 9927POPC   C3A55961  26.050  33.818   7.055
 9927POPC   C4A55962  26.036  33.764   7.355
 9927POPC   C1B55963  26.247  33.597   6.455
 9927POPC   C2B55964  26.222  33.617   6.755
 9927POPC   C3B55965  26.218  33.666   7.055
 9927POPC   C4B55966  26.225  33.631   7.355
 9928POPC   NC355967  12.851  36.893   5.555
 9928POPC   PO455968  12.896  36.871   5.855
 9928POPC   GL155969  12.876  36.913   6.155
 9928POPC   GL255970  12.711  36.959   6.155
 9928POPC   C1A55971  12.825  36.880   6.455
 9928POPC   D2A55972  12.805  36.866   6.755
 9928POPC   C3A55973  12.895  36.893   7.055
 9928POPC   C4A55974  12.839  36.906   7.355
 9928POPC   C1B55975  12.638  36.982   6.455
 9928POPC   C2B55976  12.588  37.029   6.755
 9928POPC   C3B55977  12.616  37.005   7.055
 9928POPC   C4B55978  12.650  36.967   7.355
 9929POPC   NC355979  17.544   5.850   5.555
 9929POPC   PO455980  17.531   5.900   5.855
 9929POPC   GL155981  17.487   5.895   6.155
 9929POPC   GL255982  17.414   5.752   6.155
 9929POPC   C1A55983  17.554   5.883   6.455
 9929POPC   D2A55984  17.475   5.879   6.755
 9929POPC   C3A55985  17.466   5.897   7.055
 9929POPC   C4A55986  17.473   5.895   7.355
 9929POPC   C1B55987  17.344   5.739   6.455
 9929POPC   C2B55988  17.323   5.735   6.755
 9929POPC   C3B55989  17.275   5.725   7.055
 9929POPC   C4B55990  17.317   5.668   7.355
 9930POPC   NC355991  15.201  13.647   5.555
 9930POPC   PO455992  15.141  13.619   5.855
 9930POPC   GL155993  15.131  13.598   6.155
 9930POPC   GL255994  15.103  13.613   6.155
 9930POPC   C1A55995  15.149  13.616   6.455
 9930POPC   D2A55996  15.143  13.671   6.755
 9930POPC   C3A55997  15.150  13.605   7.055
 9930POPC   C4A55998  15.170  13.647   7.355
 9930POPC   C1B55999  14.950  13.531   6.455
 9930POPC   C2B56000  14.949  13.464   6.755
 9930POPC   C3B56001  14.949  13.465   7.055
 9930POPC   C4B56002  14.945  13.467   7.355
 9931POPC   NC356003   4.345  35.335   5.555
 9931POPC   PO456004   4.345  35.308   5.855
 9931POPC   GL156005   4.364  35.305   6.155
 9931POPC   GL256006   4.417  35.432   6.155
 9931POPC   C1A56007   4.300  35.343   6.455
 9931POPC   D2A56008   4.348  35.318   6.755
 9931POPC   C3A56009   4.304  35.393   7.055
 9931POPC   C4A56010   4.292  35.388   7.355
 9931POPC   C1B56011   4.549  35.489   6.455
 9931POPC   C2B56012   4.499  35.486   6.755
 9931POPC   C3B56013   4.509  35.470   7.055
 9931POPC   C4B56014   4.494  35.565   7.355
 9932POPC   NC356015  32.279  43.892   5.555
 9932POPC   PO456016  32.293  43.871   5.855
 9932POPC   GL156017  32.295  43.889   6.155
 9932POPC   GL256018  32.379  43.769   6.155
 9932POPC   C1A56019  32.289  43.926   6.455
 9932POPC   D2A56020  32.267  43.842   6.755
 9932POPC   C3A56021  32.241  43.863   7.055
 9932POPC   C4A56022  32.292  43.892   7.355
 9932POPC   C1B56023  32.458  43.778   6.455
 9932POPC   C2B56024  32.493  43.781   6.755
 9932POPC   C3B56025  32.437  43.693   7.055
 9932POPC   C4B56026  32.425  43.767   7.355
 9933POPC   NC356027   5.831  31.508   5.555
 9933POPC   PO456028   5.853  31.479   5.855
 9933POPC   GL156029   5.868  31.521   6.155
 9933POPC   GL256030   5.900  31.400   6.155
 9933POPC   C1A56031   5.825  31.443   6.455
 9933POPC   D2A56032   5.832  31.497   6.755
 9933POPC   C3A56033   5.833  31.495   7.055
 9933POPC   C4A56034   5.871  31.468   7.355
 9933POPC   C1B56035   5.963  31.229   6.455
 9933POPC   C2B56036   5.938  31.204   6.755
 9933POPC   C3B56037   5.905  31.262   7.055
 9933POPC   C4B56038   5.924  31.184   7.355
 9934POPC   NC356039  22.936   1.236   5.555
 9934POPC   PO456040  22.922   1.244   5.855
 9934POPC   GL156041  22.933   1.228   6.155
 9934POPC   GL256042  22.997   1.042   6.155
 9934POPC   C1A56043  22.975   1.166   6.455
 9934POPC   D2A56044  22.932   1.262   6.755
 9934POPC   C3A56045  22.895   1.167   7.055
 9934POPC   C4A56046  22.888   1.211   7.355
 9934POPC   C1B56047  22.925   0.966   6.455
 9934POPC   C2B56048  22.924   0.975   6.755
 9934POPC   C3B56049  22.963   0.923   7.055
 9934POPC   C4B56050  22.967   0.998   7.355
 9935POPC   NC356051   3.548   4.291   5.555
 9935POPC   PO456052   3.539   4.336   5.855
 9935POPC   GL156053   3.503   4.289   6.155
 9935POPC   GL256054   3.553   4.484   6.155
 9935POPC   C1A56055   3.524   4.352   6.455
 9935POPC   D2A56056   3.520   4.340   6.755
 9935POPC   C3A56057   3.535   4.348   7.055
 9935POPC   C4A56058   3.544   4.340   7.355
 9935POPC   C1B56059   3.559   4.525   6.455
 9935POPC   C2B56060   3.549   4.589   6.755
 9935POPC   C3B56061   3.548   4.546   7.055
 9935POPC   C4B56062   3.488   4.577   7.355
 9936POPC   NC356063  38.478  18.261   5.555
 9936POPC   PO456064  38.408  18.330   5.855
 9936POPC   GL156065  38.457  18.292   6.155
 9936POPC   GL256066  38.415  18.184   6.155
 9936POPC   C1A56067  38.473  18.322   6.455
 9936POPC   D2A56068  38.410  18.238   6.755
 9936POPC   C3A56069  38.497  18.235   7.055
 9936POPC   C4A56070  38.411  18.268   7.355
 9936POPC   C1B56071  38.432  18.018   6.455
 9936POPC   C2B56072  38.423  18.037   6.755
 9936POPC   C3B56073  38.465  18.078   7.055
 9936POPC   C4B56074  38.463  18.011   7.355
 9937POPC   NC356075   9.703  31.514   5.555
 9937POPC   PO456076   9.711  31.494   5.855
 9937POPC   GL156077   9.714  31.486   6.155
 9937POPC   GL256078   9.823  31.365   6.155
 9937POPC   C1A56079   9.722  31.459   6.455
 9937POPC   D2A56080   9.740  31.442   6.755
 9937POPC   C3A56081   9.738  31.444   7.055
 9937POPC   C4A56082   9.789  31.457   7.355
 9937POPC   C1B56083   9.929  31.236   6.455
 9937POPC   C2B56084   9.865  31.262   6.755
 9937POPC   C3B56085   9.871  31.287   7.055
 9937POPC   C4B56086   9.945  31.260   7.355
 9938POPC   NC356087  22.897  43.102   5.555
 9938POPC   PO456088  22.907  43.119   5.855
 9938POPC   GL156089  22.894  43.107   6.155
 9938POPC   GL256090  22.992  42.982   6.155
 9938POPC   C1A56091  22.894  43.142   6.455
 9938POPC   D2A56092  22.933  43.087   6.755
 9938POPC   C3A56093  22.984  43.125   7.055
 9938POPC   C4A56094  22.903  43.133   7.355
 9938POPC   C1B56095  23.120  42.906   6.455
 9938POPC   C2B56096  23.074  42.923   6.755
 9938POPC   C3B56097  23.094  42.958   7.055
 9938POPC   C4B56098  23.061  42.957   7.355
 9939POPC   NC356099  44.645  10.498   5.555
 9939POPC   PO456100  44.661  10.563   5.855
 9939POPC   GL156101  44.633  10.564   6.155
 9939POPC   GL256102  44.582  10.516   6.155
 9939POPC   C1A56103  44.643  10.494   6.455
 9939POPC   D2A56104  44.652  10.497   6.755
 9939POPC   C3A56105  44.619  10.540   7.055
 9939POPC   C4A56106  44.693  10.550   7.355
 9939POPC   C1B56107  44.428  10.554   6.455
 9939POPC   C2B56108  44.446  10.564   6.755
 9939POPC   C3B56109  44.398  10.605   7.055
 9939POPC   C4B56110  44.439  10.611   7.355
 9940POPC   NC356111  14.392  24.440   5.555
 9940POPC   PO456112  14.398  24.466   5.855
 9940POPC   GL156113  14.445  24.466   6.155
 9940POPC   GL256114  14.350  24.542   6.155
 9940POPC   C1A56115  14.389  24.498   6.455
 9940POPC   D2A56116  14.366  24.525   6.755
 9940POPC   C3A56117  14.386  24.535   7.055
 9940POPC   C4A56118  14.399  24.530   7.355
 9940POPC   C1B56119  14.209  24.631   6.455
 9940POPC   C2B56120  14.261  24.697   6.755
 9940POPC   C3B56121  14.203  24.625   7.055
 9940POPC   C4B56122  14.226  24.640   7.355
 9941POPC   NC356123  33.789   6.642   5.555
 9941POPC   PO456124  33.792   6.689   5.855
 9941POPC   GL156125  33.789   6.596   6.155
 9941POPC   GL256126  33.876   6.743   6.155
 9941POPC   C1A56127  33.794   6.615   6.455
 9941POPC   D2A56128  33.797   6.614   6.755
 9941POPC   C3A56129  33.813   6.683   7.055
 9941POPC   C4A56130  33.766   6.602   7.355
 9941POPC   C1B56131  33.989   6.779   6.455
 9941POPC   C2B56132  34.052   6.739   6.755
 9941POPC   C3B56133  33.993   6.785   7.055
 9941POPC   C4B56134  34.042   6.718   7.355
 9942POPC   NC356135   0.472  15.988   5.555
 9942POPC   PO456136   0.469  15.984   5.855
 9942POPC   GL156137   0.448  15.919   6.155
 9942POPC   GL256138   0.555  15.897   6.155
 9942POPC   C1A56139   0.424  15.975   6.455
 9942POPC   D2A56140   0.417  16.003   6.755
 9942POPC   C3A56141   0.390  15.948   7.055
 9942POPC   C4A56142   0.445  15.995   7.355
 9942POPC   C1B56143   0.670  15.877   6.455
 9942POPC   C2B56144   0.702  15.788   6.755
 9942POPC   C3B56145   0.687  15.816   7.055
 9942POPC   C4B56146   0.628  15.824   7.355
 9943POPC   NC356147  21.435   3.560   5.555
 9943POPC   PO456148  21.408   3.530   5.855
 9943POPC   GL156149  21.386   3.588   6.155
 9943POPC   GL256150  21.225   3.464   6.155
 9943POPC   C1A56151  21.392   3.525   6.455
 9943POPC   D2A56152  21.338   3.497   6.755
 9943POPC   C3A56153  21.403   3.572   7.055
 9943POPC   C4A56154  21.362   3.586   7.355
 9943POPC   C1B56155  21.159   3.461   6.455
 9943POPC   C2B56156  21.126   3.456   6.755
 9943POPC   C3B56157  21.157   3.410   7.055
 9943POPC   C4B56158  21.129   3.442   7.355
 9944POPC   NC356159  37.679  24.448   5.555
 9944POPC   PO456160  37.712  24.462   5.855
 9944POPC   GL156161  37.629  24.539   6.155
 9944POPC   GL256162  37.574  24.532   6.155
 9944POPC   C1A56163  37.711  24.526   6.455
 9944POPC   D2A56164  37.709  24.459   6.755
 9944POPC   C3A56165  37.660  24.475   7.055
 9944POPC   C4A56166  37.716  24.503   7.355
 9944POPC   C1B56167  37.492  24.675   6.455
 9944POPC   C2B56168  37.446  24.628   6.755
 9944POPC   C3B56169  37.420  24.614   7.055
 9944POPC   C4B56170  37.445  24.644   7.355
 9945POPC   NC356171  26.803  25.281   5.555
 9945POPC   PO456172  26.817  25.274   5.855
 9945POPC   GL156173  26.857  25.223   6.155
 9945POPC   GL256174  26.692  25.249   6.155
 9945POPC   C1A56175  26.863  25.278   6.455
 9945POPC   D2A56176  26.819  25.228   6.755
 9945POPC   C3A56177  26.811  25.309   7.055
 9945POPC   C4A56178  26.826  25.285   7.355
 9945POPC   C1B56179  26.529  25.321   6.455
 9945POPC   C2B56180  26.576  25.329   6.755
 9945POPC   C3B56181  26.536  25.360   7.055
 9945POPC   C4B56182  26.529  25.335   7.355
 9946POPC   NC356183  28.383  30.732   5.555
 9946POPC   PO456184  28.328  30.682   5.855
 9946POPC   GL156185  28.327  30.672   6.155
 9946POPC   GL256186  28.446  30.626   6.155
 9946POPC   C1A56187  28.384  30.666   6.455
 9946POPC   D2A56188  28.398  30.695   6.755
 9946POPC   C3A56189  28.404  30.734   7.055
 9946POPC   C4A56190  28.400  30.671   7.355
 9946POPC   C1B56191  28.569  30.561   6.455
 9946POPC   C2B56192  28.557  30.555   6.755
 9946POPC   C3B56193  28.602  30.639   7.055
 9946POPC   C4B56194  28.600  30.569   7.355
 9947POPC   NC356195  26.769  43.093   5.555
 9947POPC   PO456196  26.856  43.066   5.855
 9947POPC   GL156197  26.829  43.123   6.155
 9947POPC   GL256198  26.645  43.158   6.155
 9947POPC   C1A56199  26.840  43.121   6.455
 9947POPC   D2A56200  26.850  43.086   6.755
 9947POPC   C3A56201  26.782  43.088   7.055
 9947POPC   C4A56202  26.769  43.099   7.355
 9947POPC   C1B56203  26.548  43.159   6.455
 9947POPC   C2B56204  26.611  43.159   6.755
 9947POPC   C3B56205  26.529  43.114   7.055
 9947POPC   C4B56206  26.521  43.096   7.355
 9948POPC   NC356207   1.952  42.339   5.555
 9948POPC   PO456208   2.023  42.382   5.855
 9948POPC   GL156209   1.976  42.290   6.155
 9948POPC   GL256210   2.065  42.474   6.155
 9948POPC   C1A56211   2.032  42.365   6.455
 9948POPC   D2A56212   2.020  42.306   6.755
 9948POPC   C3A56213   2.007  42.307   7.055
 9948POPC   C4A56214   1.980  42.354   7.355
 9948POPC   C1B56215   2.081  42.562   6.455
 9948POPC   C2B56216   2.019  42.558   6.755
 9948POPC   C3B56217   2.048  42.538   7.055
 9948POPC   C4B56218   2.094  42.582   7.355
 9949POPC   NC356219  43.886  13.615   5.555
 9949POPC   PO456220  43.882  13.587   5.855
 9949POPC   GL156221  43.837  13.604   6.155
 9949POPC   GL256222  43.761  13.696   6.155
 9949POPC   C1A56223  43.875  13.622   6.455
 9949POPC   D2A56224  43.892  13.607   6.755
 9949POPC   C3A56225  43.922  13.675   7.055
 9949POPC   C4A56226  43.896  13.587   7.355
 9949POPC   C1B56227  43.619  13.687   6.455
 9949POPC   C2B56228  43.657  13.690   6.755
 9949POPC   C3B56229  43.691  13.645   7.055
 9949POPC   C4B56230  43.620  13.650   7.355
 9950POPC   NC356231   1.236   1.220   5.555
 9950POPC   PO456232   1.239   1.167   5.855
 9950POPC   GL156233   1.168   1.256   6.155
 9950POPC   GL256234   1.125   1.188   6.155
 9950POPC   C1A56235   1.254   1.219   6.455
 9950POPC   D2A56236   1.171   1.183   6.755
 9950POPC   C3A56237   1.193   1.202   7.055
 9950POPC   C4A56238   1.258   1.244   7.355
 9950POPC   C1B56239   0.928   1.261   6.455
 9950POPC   C2B56240   0.994   1.232   6.755
 9950POPC   C3B56241   1.014   1.274   7.055
 9950POPC   C4B56242   0.958   1.226   7.355
 9951POPC   NC356243  23.739  36.169   5.555
 9951POPC   PO456244  23.702  36.159   5.855
 9951POPC   GL156245  23.709  36.082   6.155
 9951POPC   GL256246  23.648  36.205   6.155
 9951POPC   C1A56247  23.695  36.100   6.455
 9951POPC   D2A56248  23.719  36.176   6.755
 9951POPC   C3A56249  23.701  36.108   7.055
 9951POPC   C4A56250  23.706  36.152   7.355
 9951POPC   C1B56251  23.522  36.262   6.455
 9951POPC   C2B56252  23.528  36.275   6.755
 9951POPC   C3B56253  23.567  36.322   7.055
 9951POPC   C4B56254  23.561  36.267   7.355
 9952POPC   NC356255  23.742  33.015   5.555
 9952POPC   PO456256  23.698  33.018   5.855
 9952POPC   GL156257  23.731  33.056   6.155
 9952POPC   GL256258  23.600  33.141   6.155
 9952POPC   C1A56259  23.674  33.037   6.455
 9952POPC   D2A56260  23.733  32.979   6.755
 9952POPC   C3A56261  23.693  33.056   7.055
 9952POPC   C4A56262  23.727  33.061   7.355
 9952POPC   C1B56263  23.533  33.177   6.455
 9952POPC   C2B56264  23.499  33.205   6.755
 9952POPC   C3B56265  23.496  33.126   7.055
 9952POPC   C4B56266  23.464  33.207   7.355
 9953POPC   NC356267  21.384   8.970   5.555
 9953POPC   PO456268  21.380   8.946   5.855
 9953POPC   GL156269  21.355   8.988   6.155
 9953POPC   GL256270  21.263   9.052   6.155
 9953POPC   C1A56271  21.396   8.960   6.455
 9953POPC   D2A56272  21.395   8.936   6.755
 9953POPC   C3A56273  21.368   9.020   7.055
 9953POPC   C4A56274  21.398   8.987   7.355
 9953POPC   C1B56275  21.168   9.004   6.455
 9953POPC   C2B56276  21.185   9.050   6.755
 9953POPC   C3B56277  21.195   9.005   7.055
 9953POPC   C4B56278  21.139   9.085   7.355
 9954POPC   NC356279  25.248  28.394   5.555
 9954POPC   PO456280  25.255  28.348   5.855
 9954POPC   GL156281  25.303  28.357   6.155
 9954POPC   GL256282  25.341  28.302   6.155
 9954POPC   C1A56283  25.308  28.367   6.455
 9954POPC   D2A56284  25.287  28.352   6.755
 9954POPC   C3A56285  25.246  28.342   7.055
 9954POPC   C4A56286  25.232  28.340   7.355
 9954POPC   C1B56287  25.521  28.226   6.455
 9954POPC   C2B56288  25.453  28.262   6.755
 9954POPC   C3B56289  25.445  28.258   7.055
 9954POPC   C4B56290  25.469  28.231   7.355
 9955POPC   NC356291  28.399  21.375   5.555
 9955POPC   PO456292  28.400  21.363   5.855
 9955POPC   GL156293  28.345  21.341   6.155
 9955POPC   GL256294  28.238  21.479   6.155
 9955POPC   C1A56295  28.344  21.352   6.455
 9955POPC   D2A56296  28.378  21.395   6.755
 9955POPC   C3A56297  28.408  21.419   7.055
 9955POPC   C4A56298  28.355  21.372   7.355
 9955POPC   C1B56299  28.206  21.523   6.455
 9955POPC   C2B56300  28.192  21.528   6.755
 9955POPC   C3B56301  28.142  21.494   7.055
 9955POPC   C4B56302  28.135  21.537   7.355
 9956POPC   NC356303  36.126   8.939   5.555
 9956POPC   PO456304  36.151   8.981   5.855
 9956POPC   GL156305  36.161   8.930   6.155
 9956POPC   GL256306  36.248   8.934   6.155
 9956POPC   C1A56307  36.148   8.929   6.455
 9956POPC   D2A56308  36.138   9.001   6.755
 9956POPC   C3A56309  36.121   8.926   7.055
 9956POPC   C4A56310  36.177   8.994   7.355
 9956POPC   C1B56311  36.289   8.817   6.455
 9956POPC   C2B56312  36.294   8.756   6.755
 9956POPC   C3B56313  36.348   8.789   7.055
 9956POPC   C4B56314  36.266   8.775   7.355
 9957POPC   NC356315  22.909  15.936   5.555
 9957POPC   PO456316  22.929  15.924   5.855
 9957POPC   GL156317  22.931  15.966   6.155
 9957POPC   GL256318  22.906  15.887   6.155
 9957POPC   C1A56319  22.961  15.910   6.455
 9957POPC   D2A56320  22.973  15.924   6.755
 9957POPC   C3A56321  22.904  15.995   7.055
 9957POPC   C4A56322  22.988  15.972   7.355
 9957POPC   C1B56323  22.830  15.772   6.455
 9957POPC   C2B56324  22.784  15.714   6.755
 9957POPC   C3B56325  22.796  15.719   7.055
 9957POPC   C4B56326  22.832  15.778   7.355
 9958POPC   NC356327  35.322   3.567   5.555
 9958POPC   PO456328  35.308   3.557   5.855
 9958POPC   GL156329  35.324   3.530   6.155
 9958POPC   GL256330  35.260   3.544   6.155
 9958POPC   C1A56331  35.368   3.526   6.455
 9958POPC   D2A56332  35.350   3.540   6.755
 9958POPC   C3A56333  35.305   3.590   7.055
 9958POPC   C4A56334  35.399   3.527   7.355
 9958POPC   C1B56335  35.148   3.520   6.455
 9958POPC   C2B56336  35.119   3.535   6.755
 9958POPC   C3B56337  35.072   3.461   7.055
 9958POPC   C4B56338  35.149   3.460   7.355
 9959POPC   NC356339  36.137  19.794   5.555
 9959POPC   PO456340  36.116  19.788   5.855
 9959POPC   GL156341  36.132  19.858   6.155
 9959POPC   GL256342  35.995  19.827   6.155
 9959POPC   C1A56343  36.105  19.845   6.455
 9959POPC   D2A56344  36.098  19.833   6.755
 9959POPC   C3A56345  36.115  19.826   7.055
 9959POPC   C4A56346  36.116  19.864   7.355
 9959POPC   C1B56347  35.905  19.913   6.455
 9959POPC   C2B56348  35.903  19.902   6.755
 9959POPC   C3B56349  35.886  19.891   7.055
 9959POPC   C4B56350  35.898  19.872   7.355
 9960POPC   NC356351   1.228  25.235   5.555
 9960POPC   PO456352   1.191  25.277   5.855
 9960POPC   GL156353   1.235  25.277   6.155
 9960POPC   GL256354   1.071  25.242   6.155
 9960POPC   C1A56355   1.227  25.309   6.455
 9960POPC   D2A56356   1.221  25.276   6.755
 9960POPC   C3A56357   1.246  25.228   7.055
 9960POPC   C4A56358   1.233  25.269   7.355
 9960POPC   C1B56359   1.005  25.207   6.455
 9960POPC   C2B56360   0.917  25.228   6.755
 9960POPC   C3B56361   0.962  25.229   7.055
 9960POPC   C4B56362   1.001  25.250   7.355
 9961POPC   NC356363  17.503  24.499   5.555
 9961POPC   PO456364  17.546  24.488   5.855
 9961POPC   GL156365  17.524  24.457   6.155
 9961POPC   GL256366  17.562  24.364   6.155
 9961POPC   C1A56367  17.538  24.479   6.455
 9961POPC   D2A56368  17.505  24.497   6.755
 9961POPC   C3A56369  17.509  24.500   7.055
 9961POPC   C4A56370  17.550  24.454   7.355
 9961POPC   C1B56371  17.687  24.279   6.455
 9961POPC   C2B56372  17.670  24.289   6.755
 9961POPC   C3B56373  17.684  24.288   7.055
 9961POPC   C4B56374  17.631  24.339   7.355
 9962POPC   NC356375  12.842  41.550   5.555
 9962POPC   PO456376  12.822  41.569   5.855
 9962POPC   GL156377  12.811  41.549   6.155
 9962POPC   GL256378  12.745  41.516   6.155
 9962POPC   C1A56379  12.841  41.587   6.455
 9962POPC   D2A56380  12.864  41.514   6.755
 9962POPC   C3A56381  12.856  41.587   7.055
 9962POPC   C4A56382  12.900  41.573   7.355
 9962POPC   C1B56383  12.645  41.438   6.455
 9962POPC   C2B56384  12.622  41.402   6.755
 9962POPC   C3B56385  12.606  41.451   7.055
 9962POPC   C4B56386  12.673  41.419   7.355
 9963POPC   NC356387  44.632  17.479   5.555
 9963POPC   PO456388  44.652  17.494   5.855
 9963POPC   GL156389  44.618  17.457   6.155
 9963POPC   GL256390  44.828  17.539   6.155
 9963POPC   C1A56391  44.710  17.516   6.455
 9963POPC   D2A56392  44.681  17.506   6.755
 9963POPC   C3A56393  44.682  17.505   7.055
 9963POPC   C4A56394  44.668  17.459   7.355
 9963POPC   C1B56395  44.914  17.598   6.455
 9963POPC   C2B56396  44.926  17.597   6.755
 9963POPC   C3B56397  44.922  17.537   7.055
 9963POPC   C4B56398  44.929  17.550   7.355
 9964POPC   NC356399  30.675  25.289   5.555
 9964POPC   PO456400  30.683  25.226   5.855
 9964POPC   GL156401  30.713  25.262   6.155
 9964POPC   GL256402  30.711  25.191   6.155
 9964POPC   C1A56403  30.666  25.272   6.455
 9964POPC   D2A56404  30.664  25.301   6.755
 9964POPC   C3A56405  30.705  25.249   7.055
 9964POPC   C4A56406  30.698  25.292   7.355
 9964POPC   C1B56407  30.665  25.032   6.455
 9964POPC   C2B56408  30.584  25.074   6.755
 9964POPC   C3B56409  30.582  25.007   7.055
 9964POPC   C4B56410  30.593  25.014   7.355
 9965POPC   NC356411   0.415  26.768   5.555
 9965POPC   PO456412   0.483  26.820   5.855
 9965POPC   GL156413   0.461  26.779   6.155
 9965POPC   GL256414   0.300  26.812   6.155
 9965POPC   C1A56415   0.442  26.823   6.455
 9965POPC   D2A56416   0.392  26.837   6.755
 9965POPC   C3A56417   0.419  26.798   7.055
 9965POPC   C4A56418   0.434  26.848   7.355
 9965POPC   C1B56419   0.175  26.753   6.455
 9965POPC   C2B56420   0.196  26.744   6.755
 9965POPC   C3B56421   0.219  26.715   7.055
 9965POPC   C4B56422   0.241  26.763   7.355
 9966POPC   NC356423  43.061  42.316   5.555
 9966POPC   PO456424  43.129  42.295   5.855
 9966POPC   GL156425  43.097  42.382   6.155
 9966POPC   GL256426  43.005  42.431   6.155
 9966POPC   C1A56427  43.086  42.320   6.455
 9966POPC   D2A56428  43.067  42.315   6.755
 9966POPC   C3A56429  43.068  42.364   7.055
 9966POPC   C4A56430  43.100  42.342   7.355
 9966POPC   C1B56431  42.893  42.454   6.455
 9966POPC   C2B56432  42.921  42.440   6.755
 9966POPC   C3B56433  42.899  42.474   7.055
 9966POPC   C4B56434  42.939  42.481   7.355
 9967POPC   NC356435   5.821  43.910   5.555
 9967POPC   PO456436   5.850  43.926   5.855
 9967POPC   GL156437   5.876  43.889   6.155
 9967POPC   GL256438   5.826  43.798   6.155
 9967POPC   C1A56439   5.822  43.855   6.455
 9967POPC   D2A56440   5.888  43.865   6.755
 9967POPC   C3A56441   5.904  43.917   7.055
 9967POPC   C4A56442   5.827  43.931   7.355
 9967POPC   C1B56443   5.721  43.669   6.455
 9967POPC   C2B56444   5.748  43.704   6.755
 9967POPC   C3B56445   5.744  43.624   7.055
 9967POPC   C4B56446   5.732  43.665   7.355
 9968POPC   NC356447  20.608  38.503   5.555
 9968POPC   PO456448  20.596  38.505   5.855
 9968POPC   GL156449  20.648  38.466   6.155
 9968POPC   GL256450  20.728  38.548   6.155
 9968POPC   C1A56451  20.621  38.424   6.455
 9968POPC   D2A56452  20.659  38.418   6.755
 9968POPC   C3A56453  20.660  38.454   7.055
 9968POPC   C4A56454  20.565  38.420   7.355
 9968POPC   C1B56455  20.824  38.634   6.455
 9968POPC   C2B56456  20.752  38.640   6.755
 9968POPC   C3B56457  20.783  38.642   7.055
 9968POPC   C4B56458  20.739  38.640   7.355
 9969POPC   NC356459  10.487  10.482   5.555
 9969POPC   PO456460  10.539  10.560   5.855
 9969POPC   GL156461  10.500  10.476   6.155
 9969POPC   GL256462  10.398  10.582   6.155
 9969POPC   C1A56463  10.541  10.480   6.455
 9969POPC   D2A56464  10.525  10.509   6.755
 9969POPC   C3A56465  10.572  10.474   7.055
 9969POPC   C4A56466  10.517  10.540   7.355
 9969POPC   C1B56467  10.320  10.599   6.455
 9969POPC   C2B56468  10.248  10.640   6.755
 9969POPC   C3B56469  10.311  10.608   7.055
 9969POPC   C4B56470  10.238  10.584   7.355
 9970POPC   NC356471  24.508  14.370   5.555
 9970POPC   PO456472  24.469  14.379   5.855
 9970POPC   GL156473  24.463  14.453   6.155
 9970POPC   GL256474  24.358  14.337   6.155
 9970POPC   C1A56475  24.507  14.424   6.455
 9970POPC   D2A56476  24.537  14.417   6.755
 9970POPC   C3A56477  24.520  14.402   7.055
 9970POPC   C4A56478  24.443  14.393   7.355
 9970POPC   C1B56479  24.281  14.339   6.455
 9970POPC   C2B56480  24.226  14.274   6.755
 9970POPC   C3B56481  24.243  14.353   7.055
 9970POPC   C4B56482  24.211  14.271   7.355
 9971POPC   NC356483  17.540   8.980   5.555
 9971POPC   PO456484  17.494   8.962   5.855
 9971POPC   GL156485  17.478   8.952   6.155
 9971POPC   GL256486  17.554   9.113   6.155
 9971POPC   C1A56487  17.476   8.935   6.455
 9971POPC   D2A56488  17.513   8.933   6.755
 9971POPC   C3A56489  17.477   8.986   7.055
 9971POPC   C4A56490  17.555   8.991   7.355
 9971POPC   C1B56491  17.589   9.210   6.455
 9971POPC   C2B56492  17.578   9.181   6.755
 9971POPC   C3B56493  17.619   9.233   7.055
 9971POPC   C4B56494  17.597   9.202   7.355
 9972POPC   NC356495  26.012  37.679   5.555
 9972POPC   PO456496  26.088  37.672   5.855
 9972POPC   GL156497  26.046  37.631   6.155
 9972POPC   GL256498  25.896  37.634   6.155
 9972POPC   C1A56499  26.007  37.635   6.455
 9972POPC   D2A56500  26.079  37.636   6.755
 9972POPC   C3A56501  26.014  37.677   7.055
 9972POPC   C4A56502  26.051  37.633   7.355
 9972POPC   C1B56503  25.828  37.505   6.455
 9972POPC   C2B56504  25.813  37.543   6.755
 9972POPC   C3B56505  25.888  37.549   7.055
 9972POPC   C4B56506  25.850  37.570   7.355
 9973POPC   NC356507   1.239  29.146   5.555
 9973POPC   PO456508   1.190  29.129   5.855
 9973POPC   GL156509   1.236  29.174   6.155
 9973POPC   GL256510   1.166  29.080   6.155
 9973POPC   C1A56511   1.193  29.168   6.455
 9973POPC   D2A56512   1.220  29.158   6.755
 9973POPC   C3A56513   1.223  29.173   7.055
 9973POPC   C4A56514   1.226  29.179   7.355
 9973POPC   C1B56515   1.040  28.908   6.455
 9973POPC   C2B56516   1.029  28.957   6.755
 9973POPC   C3B56517   1.061  28.950   7.055
 9973POPC   C4B56518   1.089  28.962   7.355
 9974POPC   NC356519   9.785  41.565   5.555
 9974POPC   PO456520   9.742  41.526   5.855
 9974POPC   GL156521   9.751  41.585   6.155
 9974POPC   GL256522   9.631  41.616   6.155
 9974POPC   C1A56523   9.773  41.565   6.455
 9974POPC   D2A56524   9.745  41.519   6.755
 9974POPC   C3A56525   9.708  41.536   7.055
 9974POPC   C4A56526   9.762  41.513   7.355
 9974POPC   C1B56527   9.644  41.734   6.455
 9974POPC   C2B56528   9.586  41.767   6.755
 9974POPC   C3B56529   9.555  41.783   7.055
 9974POPC   C4B56530   9.620  41.725   7.355
 9975POPC   NC356531  10.505  29.956   5.555
 9975POPC   PO456532  10.510  29.876   5.855
 9975POPC   GL156533  10.507  29.965   6.155
 9975POPC   GL256534  10.521  29.788   6.155
 9975POPC   C1A56535  10.548  29.923   6.455
 9975POPC   D2A56536  10.479  29.935   6.755
 9975POPC   C3A56537  10.544  29.877   7.055
 9975POPC   C4A56538  10.478  29.955   7.355
 9975POPC   C1B56539  10.518  29.683   6.455
 9975POPC   C2B56540  10.552  29.702   6.755
 9975POPC   C3B56541  10.527  29.693   7.055
 9975POPC   C4B56542  10.557  29.712   7.355
 9976POPC   NC356543   3.534  12.878   5.555
 9976POPC   PO456544   3.515  12.876   5.855
 9976POPC   GL156545   3.516  12.852   6.155
 9976POPC   GL256546   3.621  12.917   6.155
 9976POPC   C1A56547   3.519  12.901   6.455
 9976POPC   D2A56548   3.582  12.842   6.755
 9976POPC   C3A56549   3.578  12.805   7.055
 9976POPC   C4A56550   3.575  12.845   7.355
 9976POPC   C1B56551   3.797  12.932   6.455
 9976POPC   C2B56552   3.758  12.894   6.755
 9976POPC   C3B56553   3.795  12.911   7.055
 9976POPC   C4B56554   3.811  12.957   7.355
 9977POPC   NC356555  27.545   7.417   5.555
 9977POPC   PO456556  27.574   7.373   5.855
 9977POPC   GL156557  27.628   7.429   6.155
 9977POPC   GL256558  27.616   7.583   6.155
 9977POPC   C1A56559  27.586   7.432   6.455
 9977POPC   D2A56560  27.586   7.418   6.755
 9977POPC   C3A56561  27.573   7.375   7.055
 9977POPC   C4A56562  27.605   7.373   7.355
 9977POPC   C1B56563  27.593   7.668   6.455
 9977POPC   C2B56564  27.606   7.692   6.755
 9977POPC   C3B56565  27.624   7.645   7.055
 9977POPC   C4B56566  27.636   7.716   7.355
 9978POPC   NC356567  15.141  43.060   5.555
 9978POPC   PO456568  15.196  43.119   5.855
 9978POPC   GL156569  15.164  43.133   6.155
 9978POPC   GL256570  15.248  43.039   6.155
 9978POPC   C1A56571  15.156  43.141   6.455
 9978POPC   D2A56572  15.183  43.088   6.755
 9978POPC   C3A56573  15.148  43.071   7.055
 9978POPC   C4A56574  15.173  43.069   7.355
 9978POPC   C1B56575  15.343  43.000   6.455
 9978POPC   C2B56576  15.421  42.919   6.755
 9978POPC   C3B56577  15.368  42.984   7.055
 9978POPC   C4B56578  15.388  42.948   7.355
 9979POPC   NC356579  11.293  39.250   5.555
 9979POPC   PO456580  11.342  39.273   5.855
 9979POPC   GL156581  11.262  39.263   6.155
 9979POPC   GL256582  11.292  39.088   6.155
 9979POPC   C1A56583  11.323  39.265   6.455
 9979POPC   D2A56584  11.314  39.230   6.755
 9979POPC   C3A56585  11.292  39.187   7.055
 9979POPC   C4A56586  11.281  39.207   7.355
 9979POPC   C1B56587  11.191  38.966   6.455
 9979POPC   C2B56588  11.185  39.025   6.755
 9979POPC   C3B56589  11.217  39.005   7.055
 9979POPC   C4B56590  11.219  39.020   7.355
 9980POPC   NC356591  23.753  34.561   5.555
 9980POPC   PO456592  23.754  34.561   5.855
 9980POPC   GL156593  23.665  34.617   6.155
 9980POPC   GL256594  23.800  34.573   6.155
 9980POPC   C1A56595  23.749  34.532   6.455
 9980POPC   D2A56596  23.741  34.573   6.755
 9980POPC   C3A56597  23.764  34.612   7.055
 9980POPC   C4A56598  23.710  34.587   7.355
 9980POPC   C1B56599  23.928  34.467   6.455
 9980POPC   C2B56600  24.002  34.531   6.755
 9980POPC   C3B56601  23.918  34.458   7.055
 9980POPC   C4B56602  23.987  34.489   7.355
 9981POPC   NC356603  26.062   7.446   5.555
 9981POPC   PO456604  26.019   7.463   5.855
 9981POPC   GL156605  26.067   7.443   6.155
 9981POPC   GL256606  25.942   7.273   6.155
 9981POPC   C1A56607  26.060   7.425   6.455
 9981POPC   D2A56608  26.010   7.406   6.755
 9981POPC   C3A56609  26.015   7.422   7.055
 9981POPC   C4A56610  25.994   7.447   7.355
 9981POPC   C1B56611  25.895   7.205   6.455
 9981POPC   C2B56612  25.953   7.212   6.755
 9981POPC   C3B56613  25.897   7.180   7.055
 9981POPC   C4B56614  25.970   7.210   7.355
 9982POPC   NC356615  40.755   4.356   5.555
 9982POPC   PO456616  40.782   4.297   5.855
 9982POPC   GL156617  40.748   4.279   6.155
 9982POPC   GL256618  40.869   4.442   6.155
 9982POPC   C1A56619  40.787   4.364   6.455
 9982POPC   D2A56620  40.767   4.288   6.755
 9982POPC   C3A56621  40.781   4.330   7.055
 9982POPC   C4A56622  40.798   4.268   7.355
 9982POPC   C1B56623  40.936   4.516   6.455
 9982POPC   C2B56624  40.908   4.560   6.755
 9982POPC   C3B56625  40.933   4.543   7.055
 9982POPC   C4B56626  40.892   4.482   7.355
 9983POPC   NC356627  32.208   1.227   5.555
 9983POPC   PO456628  32.259   1.246   5.855
 9983POPC   GL156629  32.298   1.222   6.155
 9983POPC   GL256630  32.110   1.257   6.155
 9983POPC   C1A56631  32.251   1.253   6.455
 9983POPC   D2A56632  32.292   1.241   6.755
 9983POPC   C3A56633  32.262   1.209   7.055
 9983POPC   C4A56634  32.243   1.197   7.355
 9983POPC   C1B56635  31.975   1.301   6.455
 9983POPC   C2B56636  31.996   1.228   6.755
 9983POPC   C3B56637  32.028   1.300   7.055
 9983POPC   C4B56638  31.982   1.256   7.355
 9984POPC   NC356639  23.665  43.153   5.555
 9984POPC   PO456640  23.715  43.113   5.855
 9984POPC   GL156641  23.720  43.158   6.155
 9984POPC   GL256642  23.806  43.176   6.155
 9984POPC   C1A56643  23.691  43.082   6.455
 9984POPC   D2A56644  23.709  43.078   6.755
 9984POPC   C3A56645  23.688  43.131   7.055
 9984POPC   C4A56646  23.744  43.109   7.355
 9984POPC   C1B56647  23.949  43.236   6.455
 9984POPC   C2B56648  23.925  43.203   6.755
 9984POPC   C3B56649  23.896  43.251   7.055
 9984POPC   C4B56650  23.977  43.270   7.355
 9985POPC   NC356651  43.846  34.562   5.555
 9985POPC   PO456652  43.921  34.594   5.855
 9985POPC   GL156653  43.855  34.539   6.155
 9985POPC   GL256654  44.028  34.462   6.155
 9985POPC   C1A56655  43.903  34.570   6.455
 9985POPC   D2A56656  43.909  34.625   6.755
 9985POPC   C3A56657  43.881  34.557   7.055
 9985POPC   C4A56658  43.839  34.531   7.355
 9985POPC   C1B56659  44.111  34.409   6.455
 9985POPC   C2B56660  44.132  34.460   6.755
 9985POPC   C3B56661  44.071  34.452   7.055
 9985POPC   C4B56662  44.119  34.444   7.355
 9986POPC   NC356663  27.631   0.418   5.555
 9986POPC   PO456664  27.620   0.465   5.855
 9986POPC   GL156665  27.562   0.464   6.155
 9986POPC   GL256666  27.534   0.376   6.155
 9986POPC   C1A56667  27.642   0.440   6.455
 9986POPC   D2A56668  27.581   0.454   6.755
 9986POPC   C3A56669  27.571   0.433   7.055
 9986POPC   C4A56670  27.548   0.479   7.355
 9986POPC   C1B56671  27.481   0.184   6.455
 9986POPC   C2B56672  27.430   0.196   6.755
 9986POPC   C3B56673  27.475   0.217   7.055
 9986POPC   C4B56674  27.493   0.257   7.355
 9987POPC   NC356675  23.673  16.711   5.555
 9987POPC   PO456676  23.745  16.753   5.855
 9987POPC   GL156677  23.712  16.752   6.155
 9987POPC   GL256678  23.684  16.650   6.155
 9987POPC   C1A56679  23.738  16.718   6.455
 9987POPC   D2A56680  23.696  16.765   6.755
 9987POPC   C3A56681  23.707  16.686   7.055
 9987POPC   C4A56682  23.756  16.773   7.355
 9987POPC   C1B56683  23.707  16.462   6.455
 9987POPC   C2B56684  23.719  16.456   6.755
 9987POPC   C3B56685  23.712  16.457   7.055
 9987POPC   C4B56686  23.693  16.504   7.355
 9988POPC   NC356687  26.016  29.174   5.555
 9988POPC   PO456688  26.064  29.106   5.855
 9988POPC   GL156689  26.044  29.119   6.155
 9988POPC   GL256690  26.073  29.311   6.155
 9988POPC   C1A56691  26.012  29.114   6.455
 9988POPC   D2A56692  26.082  29.191   6.755
 9988POPC   C3A56693  26.034  29.105   7.055
 9988POPC   C4A56694  26.066  29.179   7.355
 9988POPC   C1B56695  26.116  29.363   6.455
 9988POPC   C2B56696  26.090  29.429   6.755
 9988POPC   C3B56697  26.116  29.435   7.055
 9988POPC   C4B56698  26.084  29.422   7.355
 9989POPC   NC356699  43.124  14.452   5.555
 9989POPC   PO456700  43.075  14.385   5.855
 9989POPC   GL156701  43.150  14.389   6.155
 9989POPC   GL256702  43.004  14.272   6.155
 9989POPC   C1A56703  43.120  14.383   6.455
 9989POPC   D2A56704  43.143  14.391   6.755
 9989POPC   C3A56705  43.135  14.432   7.055
 9989POPC   C4A56706  43.147  14.426   7.355
 9989POPC   C1B56707  42.970  14.188   6.455
 9989POPC   C2B56708  42.911  14.218   6.755
 9989POPC   C3B56709  42.906  14.172   7.055
 9989POPC   C4B56710  42.931  14.207   7.355
 9990POPC   NC356711  21.434  16.779   5.555
 9990POPC   PO456712  21.393  16.771   5.855
 9990POPC   GL156713  21.364  16.760   6.155
 9990POPC   GL256714  21.449  16.875   6.155
 9990POPC   C1A56715  21.386  16.764   6.455
 9990POPC   D2A56716  21.349  16.769   6.755
 9990POPC   C3A56717  21.372  16.780   7.055
 9990POPC   C4A56718  21.376  16.748   7.355
 9990POPC   C1B56719  21.443  16.974   6.455
 9990POPC   C2B56720  21.474  16.946   6.755
 9990POPC   C3B56721  21.444  16.918   7.055
 9990POPC   C4B56722  21.462  16.990   7.355
 9991POPC   NC356723   7.450  35.316   5.555
 9991POPC   PO456724   7.385  35.390   5.855
 9991POPC   GL156725   7.371  35.344   6.155
 9991POPC   GL256726   7.421  35.247   6.155
 9991POPC   C1A56727   7.445  35.345   6.455
 9991POPC   D2A56728   7.451  35.320   6.755
 9991POPC   C3A56729   7.440  35.365   7.055
 9991POPC   C4A56730   7.380  35.394   7.355
 9991POPC   C1B56731   7.329  35.137   6.455
 9991POPC   C2B56732   7.376  35.137   6.755
 9991POPC   C3B56733   7.331  35.101   7.055
 9991POPC   C4B56734   7.289  35.141   7.355
 9992POPC   NC356735  13.586  41.562   5.555
 9992POPC   PO456736  13.636  41.516   5.855
 9992POPC   GL156737  13.677  41.541   6.155
 9992POPC   GL256738  13.565  41.464   6.155
 9992POPC   C1A56739  13.594  41.607   6.455
 9992POPC   D2A56740  13.656  41.577   6.755
 9992POPC   C3A56741  13.670  41.568   7.055
 9992POPC   C4A56742  13.643  41.550   7.355
 9992POPC   C1B56743  13.489  41.337   6.455
 9992POPC   C2B56744  13.548  41.291   6.755
 9992POPC   C3B56745  13.485  41.380   7.055
 9992POPC   C4B56746  13.489  41.323   7.355
 9993POPC   NC356747  39.968  32.261   5.555
 9993POPC   PO456748  40.043  32.229   5.855
 9993POPC   GL156749  40.049  32.283   6.155
 9993POPC   GL256750  40.084  32.326   6.155
 9993POPC   C1A56751  40.009  32.240   6.455
 9993POPC   D2A56752  40.003  32.297   6.755
 9993POPC   C3A56753  40.007  32.277   7.055
 9993POPC   C4A56754  39.963  32.246   7.355
 9993POPC   C1B56755  40.268  32.401   6.455
 9993POPC   C2B56756  40.237  32.360   6.755
 9993POPC   C3B56757  40.229  32.359   7.055
 9993POPC   C4B56758  40.261  32.353   7.355
 9994POPC   NC356759   8.223   0.401   5.555
 9994POPC   PO456760   8.149   0.437   5.855
 9994POPC   GL156761   8.196   0.451   6.155
 9994POPC   GL256762   8.209   0.563   6.155
 9994POPC   C1A56763   8.172   0.425   6.455
 9994POPC   D2A56764   8.158   0.440   6.755
 9994POPC   C3A56765   8.206   0.443   7.055
 9994POPC   C4A56766   8.179   0.454   7.355
 9994POPC   C1B56767   8.175   0.674   6.455
 9994POPC   C2B56768   8.249   0.639   6.755
 9994POPC   C3B56769   8.204   0.699   7.055
 9994POPC   C4B56770   8.225   0.707   7.355
 9995POPC   NC356771  41.600  38.424   5.555
 9995POPC   PO456772  41.526  38.472   5.855
 9995POPC   GL156773  41.517  38.497   6.155
 9995POPC   GL256774  41.504  38.516   6.155
 9995POPC   C1A56775  41.608  38.443   6.455
 9995POPC   D2A56776  41.513  38.488   6.755
 9995POPC   C3A56777  41.562  38.479   7.055
 9995POPC   C4A56778  41.601  38.504   7.355
 9995POPC   C1B56779  41.357  38.595   6.455
 9995POPC   C2B56780  41.386  38.555   6.755
 9995POPC   C3B56781  41.338  38.637   7.055
 9995POPC   C4B56782  41.405  38.627   7.355
 9996POPC   NC356783  39.221  25.273   5.555
 9996POPC   PO456784  39.281  25.245   5.855
 9996POPC   GL156785  39.248  25.244   6.155
 9996POPC   GL256786  39.180  25.367   6.155
 9996POPC   C1A56787  39.188  25.294   6.455
 9996POPC   D2A56788  39.204  25.303   6.755
 9996POPC   C3A56789  39.214  25.287   7.055
 9996POPC   C4A56790  39.183  25.288   7.355
 9996POPC   C1B56791  39.209  25.476   6.455
 9996POPC   C2B56792  39.253  25.564   6.755
 9996POPC   C3B56793  39.171  25.543   7.055
 9996POPC   C4B56794  39.202  25.468   7.355
 9997POPC   NC356795  34.593   6.689   5.555
 9997POPC   PO456796  34.559   6.667   5.855
 9997POPC   GL156797  34.609   6.596   6.155
 9997POPC   GL256798  34.692   6.620   6.155
 9997POPC   C1A56799  34.608   6.692   6.455
 9997POPC   D2A56800  34.558   6.662   6.755
 9997POPC   C3A56801  34.615   6.688   7.055
 9997POPC   C4A56802  34.532   6.664   7.355
 9997POPC   C1B56803  34.818   6.593   6.455
 9997POPC   C2B56804  34.830   6.599   6.755
 9997POPC   C3B56805  34.866   6.679   7.055
 9997POPC   C4B56806  34.840   6.660   7.355
 9998POPC   NC356807  29.189  29.147   5.555
 9998POPC   PO456808  29.099  29.176   5.855
 9998POPC   GL156809  29.148  29.103   6.155
 9998POPC   GL256810  29.233  29.098   6.155
 9998POPC   C1A56811  29.137  29.176   6.455
 9998POPC   D2A56812  29.152  29.188   6.755
 9998POPC   C3A56813  29.155  29.157   7.055
 9998POPC   C4A56814  29.102  29.137   7.355
 9998POPC   C1B56815  29.394  28.958   6.455
 9998POPC   C2B56816  29.335  28.995   6.755
 9998POPC   C3B56817  29.336  29.029   7.055
 9998POPC   C4B56818  29.383  29.025   7.355
 9999POPC   NC356819  13.629  40.003   5.555
 9999POPC   PO456820  13.636  40.055   5.855
 9999POPC   GL156821  13.669  39.960   6.155
 9999POPC   GL256822  13.545  40.057   6.155
 9999POPC   C1A56823  13.606  39.984   6.455
 9999POPC   D2A56824  13.649  40.031   6.755
 9999POPC   C3A56825  13.608  40.041   7.055
 9999POPC   C4A56826  13.658  39.989   7.355
 9999POPC   C1B56827  13.388  40.128   6.455
 9999POPC   C2B56828  13.392  40.129   6.755
 9999POPC   C3B56829  13.406  40.161   7.055
 9999POPC   C4B56830  13.410  40.104   7.355
10000POPC   NC356831   0.427  13.613   5.555
10000POPC   PO456832   0.397  13.649   5.855
10000POPC   GL156833   0.412  13.648   6.155
10000POPC   GL256834   0.471  13.714   6.155
10000POPC   C1A56835   0.444  13.592   6.455
10000POPC   D2A56836   0.403  13.605   6.755
10000POPC   C3A56837   0.486  13.660   7.055
10000POPC   C4A56838   0.439  13.650   7.355
10000POPC   C1B56839   0.630  13.860   6.455
10000POPC   C2B56840   0.552  13.878   6.755
10000POPC   C3B56841   0.551  13.838   7.055
10000POPC   C4B56842   0.554  13.799   7.355
10001POPC   NC356843  32.291  21.383   5.555
10001POPC   PO456844  32.269  21.425   5.855
10001POPC   GL156845  32.292  21.406   6.155
10001POPC   GL256846  32.213  21.483   6.155
10001POPC   C1A56847  32.245  21.361   6.455
10001POPC   D2A56848  32.228  21.381   6.755
10001POPC   C3A56849  32.252  21.427   7.055
10001POPC   C4A56850  32.237  21.357   7.355
10001POPC   C1B56851  32.235  21.639   6.455
10001POPC   C2B56852  32.213  21.672   6.755
10001POPC   C3B56853  32.181  21.615   7.055
10001POPC   C4B56854  32.210  21.644   7.355
10002POPC   NC356855  21.361   5.050   5.555
10002POPC   PO456856  21.352   5.123   5.855
10002POPC   GL156857  21.420   5.086   6.155
10002POPC   GL256858  21.534   5.026   6.155
10002POPC   C1A56859  21.397   5.063   6.455
10002POPC   D2A56860  21.420   5.075   6.755
10002POPC   C3A56861  21.434   5.048   7.055
10002POPC   C4A56862  21.378   5.082   7.355
10002POPC   C1B56863  21.625   5.013   6.455
10002POPC   C2B56864  21.673   5.005   6.755
10002POPC   C3B56865  21.608   5.010   7.055
10002POPC   C4B56866  21.627   4.999   7.355
10003POPC   NC356867   3.511   1.951   5.555
10003POPC   PO456868   3.576   2.017   5.855
10003POPC   GL156869   3.507   1.995   6.155
10003POPC   GL256870   3.452   1.909   6.155
10003POPC   C1A56871   3.495   2.000   6.455
10003POPC   D2A56872   3.533   2.034   6.755
10003POPC   C3A56873   3.498   1.945   7.055
10003POPC   C4A56874   3.591   2.030   7.355
10003POPC   C1B56875   3.296   1.947   6.455
10003POPC   C2B56876   3.322   1.904   6.755
10003POPC   C3B56877   3.304   1.879   7.055
10003POPC   C4B56878   3.284   1.918   7.355
10004POPC   NC356879  11.342  30.672   5.555
10004POPC   PO456880  11.290  30.729   5.855
10004POPC   GL156881  11.320  30.657   6.155
10004POPC   GL256882  11.342  30.812   6.155
10004POPC   C1A56883  11.301  30.674   6.455
10004POPC   D2A56884  11.346  30.662   6.755
10004POPC   C3A56885  11.303  30.661   7.055
10004POPC   C4A56886  11.339  30.685   7.355
10004POPC   C1B56887  11.454  30.936   6.455
10004POPC   C2B56888  11.433  30.886   6.755
10004POPC   C3B56889  11.434  30.950   7.055
10004POPC   C4B56890  11.397  30.871   7.355
10005POPC   NC356891  19.102   4.308   5.555
10005POPC   PO456892  19.038   4.298   5.855
10005POPC   GL156893  19.018   4.340   6.155
10005POPC   GL256894  19.113   4.268   6.155
10005POPC   C1A56895  19.101   4.348   6.455
10005POPC   D2A56896  19.072   4.283   6.755
10005POPC   C3A56897  19.107   4.323   7.055
10005POPC   C4A56898  19.041   4.327   7.355
10005POPC   C1B56899  19.245   4.144   6.455
10005POPC   C2B56900  19.268   4.156   6.755
10005POPC   C3B56901  19.264   4.170   7.055
10005POPC   C4B56902  19.297   4.159   7.355
10006POPC   NC356903   2.772  13.586   5.555
10006POPC   PO456904   2.807  13.602   5.855
10006POPC   GL156905   2.785  13.592   6.155
10006POPC   GL256906   2.811  13.533   6.155
10006POPC   C1A56907   2.741  13.635   6.455
10006POPC   D2A56908   2.795  13.619   6.755
10006POPC   C3A56909   2.762  13.601   7.055
10006POPC   C4A56910   2.767  13.585   7.355
10006POPC   C1B56911   2.890  13.452   6.455
10006POPC   C2B56912   2.923  13.400   6.755
10006POPC   C3B56913   2.875  13.444   7.055
10006POPC   C4B56914   2.898  13.438   7.355
10007POPC   NC356915  36.935  28.357   5.555
10007POPC   PO456916  36.918  28.354   5.855
10007POPC   GL156917  36.932  28.351   6.155
10007POPC   GL256918  36.987  28.260   6.155
10007POPC   C1A56919  36.909  28.319   6.455
10007POPC   D2A56920  36.939  28.321   6.755
10007POPC   C3A56921  36.901  28.337   7.055
10007POPC   C4A56922  36.904  28.402   7.355
10007POPC   C1B56923  37.137  28.279   6.455
10007POPC   C2B56924  37.094  28.238   6.755
10007POPC   C3B56925  37.072  28.250   7.055
10007POPC   C4B56926  37.100  28.258   7.355
10008POPC   NC356927  22.964  40.785   5.555
10008POPC   PO456928  22.902  40.774   5.855
10008POPC   GL156929  22.945  40.800   6.155
10008POPC   GL256930  22.976  40.920   6.155
10008POPC   C1A56931  22.922  40.769   6.455
10008POPC   D2A56932  22.973  40.832   6.755
10008POPC   C3A56933  22.893  40.788   7.055
10008POPC   C4A56934  22.945  40.801   7.355
10008POPC   C1B56935  23.079  41.042   6.455
10008POPC   C2B56936  23.026  40.998   6.755
10008POPC   C3B56937  23.029  41.011   7.055
10008POPC   C4B56938  23.026  40.953   7.355
10009POPC   NC356939   1.190  35.306   5.555
10009POPC   PO456940   1.234  35.352   5.855
10009POPC   GL156941   1.245  35.319   6.155
10009POPC   GL256942   1.322  35.265   6.155
10009POPC   C1A56943   1.216  35.312   6.455
10009POPC   D2A56944   1.169  35.379   6.755
10009POPC   C3A56945   1.203  35.394   7.055
10009POPC   C4A56946   1.171  35.355   7.355
10009POPC   C1B56947   1.446  35.267   6.455
10009POPC   C2B56948   1.470  35.287   6.755
10009POPC   C3B56949   1.478  35.248   7.055
10009POPC   C4B56950   1.486  35.290   7.355
10010POPC   NC356951   9.747  25.262   5.555
10010POPC   PO456952   9.752  25.252   5.855
10010POPC   GL156953   9.792  25.300   6.155
10010POPC   GL256954   9.681  25.399   6.155
10010POPC   C1A56955   9.788  25.216   6.455
10010POPC   D2A56956   9.748  25.254   6.755
10010POPC   C3A56957   9.735  25.232   7.055
10010POPC   C4A56958   9.739  25.235   7.355
10010POPC   C1B56959   9.679  25.521   6.455
10010POPC   C2B56960   9.644  25.488   6.755
10010POPC   C3B56961   9.647  25.498   7.055
10010POPC   C4B56962   9.649  25.490   7.355
10011POPC   NC356963   1.233  34.623   5.555
10011POPC   PO456964   1.225  34.556   5.855
10011POPC   GL156965   1.221  34.540   6.155
10011POPC   GL256966   1.264  34.426   6.155
10011POPC   C1A56967   1.192  34.603   6.455
10011POPC   D2A56968   1.230  34.577   6.755
10011POPC   C3A56969   1.191  34.542   7.055
10011POPC   C4A56970   1.187  34.624   7.355
10011POPC   C1B56971   1.284  34.334   6.455
10011POPC   C2B56972   1.262  34.326   6.755
10011POPC   C3B56973   1.292  34.336   7.055
10011POPC   C4B56974   1.240  34.288   7.355
10012POPC   NC356975   0.447  18.239   5.555
10012POPC   PO456976   0.418  18.253   5.855
10012POPC   GL156977   0.417  18.307   6.155
10012POPC   GL256978   0.549  18.294   6.155
10012POPC   C1A56979   0.437  18.321   6.455
10012POPC   D2A56980   0.459  18.270   6.755
10012POPC   C3A56981   0.442  18.309   7.055
10012POPC   C4A56982   0.474  18.241   7.355
10012POPC   C1B56983   0.628  18.209   6.455
10012POPC   C2B56984   0.724  18.254   6.755
10012POPC   C3B56985   0.725  18.243   7.055
10012POPC   C4B56986   0.710  18.249   7.355
10013POPC   NC356987   9.781  21.386   5.555
10013POPC   PO456988   9.733  21.381   5.855
10013POPC   GL156989   9.752  21.413   6.155
10013POPC   GL256990   9.839  21.308   6.155
10013POPC   C1A56991   9.704  21.383   6.455
10013POPC   D2A56992   9.741  21.416   6.755
10013POPC   C3A56993   9.781  21.345   7.055
10013POPC   C4A56994   9.797  21.370   7.355
10013POPC   C1B56995   9.965  21.360   6.455
10013POPC   C2B56996   9.976  21.356   6.755
10013POPC   C3B56997   9.937  21.339   7.055
10013POPC   C4B56998   9.952  21.309   7.355
10014POPC   NC356999   8.944  15.989   5.555
10014POPC   PO457000   8.985  15.990   5.855
10014POPC   GL157001   8.936  15.928   6.155
10014POPC   GL257002   8.867  15.916   6.155
10014POPC   C1A57003   8.940  15.966   6.455
10014POPC   D2A57004   8.960  15.939   6.755
10014POPC   C3A57005   8.966  15.951   7.055
10014POPC   C4A57006   8.973  15.945   7.355
10014POPC   C1B57007   8.787  15.855   6.455
10014POPC   C2B57008   8.746  15.798   6.755
10014POPC   C3B57009   8.789  15.853   7.055
10014POPC   C4B57010   8.802  15.847   7.355
10015POPC   NC357011  10.529  11.260   5.555
10015POPC   PO457012  10.556  11.328   5.855
10015POPC   GL157013  10.533  11.256   6.155
10015POPC   GL257014  10.645  11.351   6.155
10015POPC   C1A57015  10.518  11.271   6.455
10015POPC   D2A57016  10.521  11.266   6.755
10015POPC   C3A57017  10.570  11.322   7.055
10015POPC   C4A57018  10.550  11.289   7.355
10015POPC   C1B57019  10.705  11.450   6.455
10015POPC   C2B57020  10.660  11.514   6.755
10015POPC   C3B57021  10.688  11.514   7.055
10015POPC   C4B57022  10.759  11.493   7.355
10016POPC   NC357023   7.375   0.478   5.555
10016POPC   PO457024   7.405   0.396   5.855
10016POPC   GL157025   7.448   0.483   6.155
10016POPC   GL257026   7.497   0.307   6.155
10016POPC   C1A57027   7.432   0.396   6.455
10016POPC   D2A57028   7.412   0.434   6.755
10016POPC   C3A57029   7.409   0.473   7.055
10016POPC   C4A57030   7.467   0.480   7.355
10016POPC   C1B57031   7.474   0.234   6.455
10016POPC   C2B57032   7.440   0.235   6.755
10016POPC   C3B57033   7.489   0.156   7.055
10016POPC   C4B57034   7.469   0.178   7.355
10017POPC   NC357035  14.372  36.147   5.555
10017POPC   PO457036  14.443  36.168   5.855
10017POPC   GL157037  14.418  36.167   6.155
10017POPC   GL257038  14.298  36.085   6.155
10017POPC   C1A57039  14.412  36.152   6.455
10017POPC   D2A57040  14.364  36.150   6.755
10017POPC   C3A57041  14.389  36.122   7.055
10017POPC   C4A57042  14.424  36.108   7.355
10017POPC   C1B57043  14.144  36.070   6.455
10017POPC   C2B57044  14.123  36.142   6.755
10017POPC   C3B57045  14.146  36.103   7.055
10017POPC   C4B57046  14.190  36.078   7.355
10018POPC   NC357047  16.748  40.023   5.555
10018POPC   PO457048  16.734  40.040   5.855
10018POPC   GL157049  16.716  39.995   6.155
10018POPC   GL257050  16.853  40.071   6.155
10018POPC   C1A57051  16.728  40.011   6.455
10018POPC   D2A57052  16.688  40.041   6.755
10018POPC   C3A57053  16.763  40.011   7.055
10018POPC   C4A57054  16.692  40.032   7.355
10018POPC   C1B57055  16.885  40.227   6.455
10018POPC   C2B57056  16.898  40.202   6.755
10018POPC   C3B57057  16.917  40.190   7.055
10018POPC   C4B57058  16.892  40.238   7.355
10019POPC   NC357059  14.359  41.527   5.555
10019POPC   PO457060  14.366  41.549   5.855
10019POPC   GL157061  14.422  41.533   6.155
10019POPC   GL257062  14.352  41.665   6.155
10019POPC   C1A57063  14.405  41.528   6.455
10019POPC   D2A57064  14.413  41.606   6.755
10019POPC   C3A57065  14.378  41.553   7.055
10019POPC   C4A57066  14.415  41.515   7.355
10019POPC   C1B57067  14.365  41.819   6.455
10019POPC   C2B57068  14.335  41.784   6.755
10019POPC   C3B57069  14.284  41.771   7.055
10019POPC   C4B57070  14.364  41.824   7.355
10020POPC   NC357071  34.534  39.271   5.555
10020POPC   PO457072  34.617  39.253   5.855
10020POPC   GL157073  34.610  39.226   6.155
10020POPC   GL257074  34.577  39.323   6.155
10020POPC   C1A57075  34.544  39.246   6.455
10020POPC   D2A57076  34.543  39.221   6.755
10020POPC   C3A57077  34.564  39.188   7.055
10020POPC   C4A57078  34.531  39.208   7.355
10020POPC   C1B57079  34.484  39.467   6.455
10020POPC   C2B57080  34.510  39.512   6.755
10020POPC   C3B57081  34.569  39.431   7.055
10020POPC   C4B57082  34.500  39.481   7.355
10021POPC   NC357083  20.569  35.384   5.555
10021POPC   PO457084  20.629  35.339   5.855
10021POPC   GL157085  20.654  35.391   6.155
10021POPC   GL257086  20.661  35.439   6.155
10021POPC   C1A57087  20.644  35.338   6.455
10021POPC   D2A57088  20.653  35.326   6.755
10021POPC   C3A57089  20.566  35.382   7.055
10021POPC   C4A57090  20.632  35.312   7.355
10021POPC   C1B57091  20.658  35.562   6.455
10021POPC   C2B57092  20.739  35.620   6.755
10021POPC   C3B57093  20.723  35.620   7.055
10021POPC   C4B57094  20.656  35.564   7.355
10022POPC   NC357095  26.843  29.964   5.555
10022POPC   PO457096  26.844  29.888   5.855
10022POPC   GL157097  26.850  29.874   6.155
10022POPC   GL257098  26.947  29.914   6.155
10022POPC   C1A57099  26.857  29.881   6.455
10022POPC   D2A57100  26.792  29.947   6.755
10022POPC   C3A57101  26.849  29.966   7.055
10022POPC   C4A57102  26.852  29.931   7.355
10022POPC   C1B57103  27.085  29.897   6.455
10022POPC   C2B57104  27.020  29.927   6.755
10022POPC   C3B57105  27.043  29.913   7.055
10022POPC   C4B57106  27.080  29.960   7.355
10023POPC   NC357107  40.037   9.725   5.555
10023POPC   PO457108  40.007   9.791   5.855
10023POPC   GL157109  40.027   9.773   6.155
10023POPC   GL257110  40.030   9.636   6.155
10023POPC   C1A57111  40.000   9.762   6.455
10023POPC   D2A57112  40.020   9.769   6.755
10023POPC   C3A57113  39.977   9.774   7.055
10023POPC   C4A57114  40.051   9.700   7.355
10023POPC   C1B57115  40.068   9.550   6.455
10023POPC   C2B57116  40.082   9.525   6.755
10023POPC   C3B57117  40.050   9.515   7.055
10023POPC   C4B57118  40.089   9.500   7.355
10024POPC   NC357119  33.833  30.683   5.555
10024POPC   PO457120  33.797  30.733   5.855
10024POPC   GL157121  33.834  30.698   6.155
10024POPC   GL257122  33.949  30.670   6.155
10024POPC   C1A57123  33.826  30.651   6.455
10024POPC   D2A57124  33.781  30.746   6.755
10024POPC   C3A57125  33.763  30.745   7.055
10024POPC   C4A57126  33.802  30.727   7.355
10024POPC   C1B57127  33.984  30.549   6.455
10024POPC   C2B57128  34.030  30.600   6.755
10024POPC   C3B57129  33.959  30.583   7.055
10024POPC   C4B57130  34.006  30.608   7.355
10025POPC   NC357131   8.191  40.020   5.555
10025POPC   PO457132   8.198  40.009   5.855
10025POPC   GL157133   8.203  39.971   6.155
10025POPC   GL257134   8.242  40.088   6.155
10025POPC   C1A57135   8.150  40.004   6.455
10025POPC   D2A57136   8.168  39.988   6.755
10025POPC   C3A57137   8.152  40.013   7.055
10025POPC   C4A57138   8.221  40.007   7.355
10025POPC   C1B57139   8.301  40.223   6.455
10025POPC   C2B57140   8.296  40.218   6.755
10025POPC   C3B57141   8.210  40.243   7.055
10025POPC   C4B57142   8.224  40.298   7.355
10026POPC   NC357143  15.214  36.088   5.555
10026POPC   PO457144  15.216  36.142   5.855
10026POPC   GL157145  15.142  36.105   6.155
10026POPC   GL257146  15.196  36.240   6.155
10026POPC   C1A57147  15.168  36.088   6.455
10026POPC   D2A57148  15.192  36.141   6.755
10026POPC   C3A57149  15.135  36.148   7.055
10026POPC   C4A57150  15.155  36.150   7.355
10026POPC   C1B57151  15.271  36.412   6.455
10026POPC   C2B57152  15.209  36.322   6.755
10026POPC   C3B57153  15.276  36.351   7.055
10026POPC   C4B57154  15.278  36.341   7.355
10027POPC   NC357155  29.934  18.270   5.555
10027POPC   PO457156  29.913  18.276   5.855
10027POPC   GL157157  29.941  18.286   6.155
10027POPC   GL257158  29.770  18.241   6.155
10027POPC   C1A57159  29.905  18.320   6.455
10027POPC   D2A57160  29.886  18.319   6.755
10027POPC   C3A57161  29.896  18.253   7.055
10027POPC   C4A57162  29.914  18.324   7.355
10027POPC   C1B57163  29.732  18.139   6.455
10027POPC   C2B57164  29.730  18.107   6.755
10027POPC   C3B57165  29.756  18.108   7.055
10027POPC   C4B57166  29.732  18.122   7.355
10028POPC   NC357167  34.617  22.198   5.555
10028POPC   PO457168  34.585  22.176   5.855
10028POPC   GL157169  34.534  22.197   6.155
10028POPC   GL257170  34.658  22.188   6.155
10028POPC   C1A57171  34.583  22.208   6.455
10028POPC   D2A57172  34.546  22.196   6.755
10028POPC   C3A57173  34.619  22.128   7.055
10028POPC   C4A57174  34.572  22.193   7.355
10028POPC   C1B57175  34.833  22.182   6.455
10028POPC   C2B57176  34.814  22.200   6.755
10028POPC   C3B57177  34.847  22.261   7.055
10028POPC   C4B57178  34.857  22.223   7.355
10029POPC   NC357179  20.610  39.212   5.555
10029POPC   PO457180  20.617  39.266   5.855
10029POPC   GL157181  20.563  39.202   6.155
10029POPC   GL257182  20.496  39.321   6.155
10029POPC   C1A57183  20.601  39.227   6.455
10029POPC   D2A57184  20.636  39.229   6.755
10029POPC   C3A57185  20.593  39.195   7.055
10029POPC   C4A57186  20.571  39.202   7.355
10029POPC   C1B57187  20.389  39.327   6.455
10029POPC   C2B57188  20.412  39.411   6.755
10029POPC   C3B57189  20.359  39.366   7.055
10029POPC   C4B57190  20.357  39.396   7.355
10030POPC   NC357191   4.338  41.576   5.555
10030POPC   PO457192   4.335  41.565   5.855
10030POPC   GL157193   4.347  41.569   6.155
10030POPC   GL257194   4.259  41.471   6.155
10030POPC   C1A57195   4.356  41.564   6.455
10030POPC   D2A57196   4.366  41.524   6.755
10030POPC   C3A57197   4.364  41.590   7.055
10030POPC   C4A57198   4.309  41.513   7.355
10030POPC   C1B57199   4.123  41.427   6.455
10030POPC   C2B57200   4.182  41.365   6.755
10030POPC   C3B57201   4.150  41.392   7.055
10030POPC   C4B57202   4.132  41.427   7.355
10031POPC   NC357203  15.213  40.041   5.555
10031POPC   PO457204  15.155  40.008   5.855
10031POPC   GL157205  15.214  40.014   6.155
10031POPC   GL257206  15.353  40.018   6.155
10031POPC   C1A57207  15.140  39.984   6.455
10031POPC   D2A57208  15.176  39.987   6.755
10031POPC   C3A57209  15.147  40.011   7.055
10031POPC   C4A57210  15.186  40.050   7.355
10031POPC   C1B57211  15.459  39.965   6.455
10031POPC   C2B57212  15.470  40.004   6.755
10031POPC   C3B57213  15.450  39.938   7.055
10031POPC   C4B57214  15.408  39.984   7.355
10032POPC   NC357215  12.839   8.928   5.555
10032POPC   PO457216  12.884   8.996   5.855
10032POPC   GL157217  12.867   8.933   6.155
10032POPC   GL257218  12.987   8.858   6.155
10032POPC   C1A57219  12.845   8.968   6.455
10032POPC   D2A57220  12.861   8.950   6.755
10032POPC   C3A57221  12.879   8.972   7.055
10032POPC   C4A57222  12.834   8.933   7.355
10032POPC   C1B57223  13.103   8.856   6.455
10032POPC   C2B57224  13.012   8.871   6.755
10032POPC   C3B57225  13.009   8.794   7.055
10032POPC   C4B57226  13.018   8.872   7.355
10033POPC   NC357227  39.232  29.096   5.555
10033POPC   PO457228  39.213  29.138   5.855
10033POPC   GL157229  39.212  29.171   6.155
10033POPC   GL257230  39.132  29.185   6.155
10033POPC   C1A57231  39.259  29.130   6.455
10033POPC   D2A57232  39.223  29.148   6.755
10033POPC   C3A57233  39.199  29.170   7.055
10033POPC   C4A57234  39.186  29.133   7.355
10033POPC   C1B57235  38.959  29.200   6.455
10033POPC   C2B57236  38.994  29.226   6.755
10033POPC   C3B57237  38.971  29.137   7.055
10033POPC   C4B57238  39.002  29.228   7.355
10034POPC   NC357239  34.571   7.470   5.555
10034POPC   PO457240  34.603   7.402   5.855
10034POPC   GL157241  34.599   7.403   6.155
10034POPC   GL257242  34.677   7.484   6.155
10034POPC   C1A57243  34.589   7.465   6.455
10034POPC   D2A57244  34.594   7.444   6.755
10034POPC   C3A57245  34.551   7.420   7.055
10034POPC   C4A57246  34.611   7.414   7.355
10034POPC   C1B57247  34.829   7.519   6.455
10034POPC   C2B57248  34.830   7.461   6.755
10034POPC   C3B57249  34.822   7.545   7.055
10034POPC   C4B57250  34.782   7.497   7.355
10035POPC   NC357251  22.889  28.369   5.555
10035POPC   PO457252  22.970  28.375   5.855
10035POPC   GL157253  22.942  28.411   6.155
10035POPC   GL257254  23.010  28.521   6.155
10035POPC   C1A57255  22.977  28.408   6.455
10035POPC   D2A57256  22.987  28.348   6.755
10035POPC   C3A57257  22.972  28.404   7.055
10035POPC   C4A57258  22.896  28.393   7.355
10035POPC   C1B57259  22.974  28.570   6.455
10035POPC   C2B57260  23.040  28.574   6.755
10035POPC   C3B57261  22.954  28.654   7.055
10035POPC   C4B57262  23.000  28.636   7.355
10036POPC   NC357263   4.276  34.575   5.555
10036POPC   PO457264   4.278  34.556   5.855
10036POPC   GL157265   4.289  34.556   6.155
10036POPC   GL257266   4.415  34.492   6.155
10036POPC   C1A57267   4.278  34.595   6.455
10036POPC   D2A57268   4.285  34.582   6.755
10036POPC   C3A57269   4.293  34.599   7.055
10036POPC   C4A57270   4.270  34.601   7.355
10036POPC   C1B57271   4.473  34.334   6.455
10036POPC   C2B57272   4.444  34.398   6.755
10036POPC   C3B57273   4.415  34.352   7.055
10036POPC   C4B57274   4.457  34.421   7.355
10037POPC   NC357275   2.808   5.907   5.555
10037POPC   PO457276   2.751   5.839   5.855
10037POPC   GL157277   2.796   5.911   6.155
10037POPC   GL257278   2.790   5.937   6.155
10037POPC   C1A57279   2.743   5.827   6.455
10037POPC   D2A57280   2.721   5.906   6.755
10037POPC   C3A57281   2.791   5.835   7.055
10037POPC   C4A57282   2.760   5.887   7.355
10037POPC   C1B57283   2.887   6.061   6.455
10037POPC   C2B57284   2.940   6.065   6.755
10037POPC   C3B57285   2.886   6.103   7.055
10037POPC   C4B57286   2.910   6.081   7.355
10038POPC   NC357287  36.913  20.633   5.555
10038POPC   PO457288  36.904  20.646   5.855
10038POPC   GL157289  36.911  20.605   6.155
10038POPC   GL257290  37.043  20.583   6.155
10038POPC   C1A57291  36.884  20.613   6.455
10038POPC   D2A57292  36.925  20.574   6.755
10038POPC   C3A57293  36.891  20.626   7.055
10038POPC   C4A57294  36.953  20.631   7.355
10038POPC   C1B57295  37.185  20.499   6.455
10038POPC   C2B57296  37.161  20.495   6.755
10038POPC   C3B57297  37.138  20.513   7.055
10038POPC   C4B57298  37.188  20.495   7.355
10039POPC   NC357299  33.787   3.518   5.555
10039POPC   PO457300  33.801   3.571   5.855
10039POPC   GL157301  33.768   3.528   6.155
10039POPC   GL257302  33.694   3.593   6.155
10039POPC   C1A57303  33.759   3.576   6.455
10039POPC   D2A57304  33.849   3.553   6.755
10039POPC   C3A57305  33.836   3.543   7.055
10039POPC   C4A57306  33.834   3.537   7.355
10039POPC   C1B57307  33.554   3.700   6.455
10039POPC   C2B57308  33.574   3.691   6.755
10039POPC   C3B57309  33.589   3.679   7.055
10039POPC   C4B57310  33.569   3.656   7.355
10040POPC   NC357311  21.391  14.439   5.555
10040POPC   PO457312  21.396  14.433   5.855
10040POPC   GL157313  21.337  14.367   6.155
10040POPC   GL257314  21.274  14.265   6.155
10040POPC   C1A57315  21.415  14.385   6.455
10040POPC   D2A57316  21.354  14.451   6.755
10040POPC   C3A57317  21.348  14.374   7.055
10040POPC   C4A57318  21.424  14.366   7.355
10040POPC   C1B57319  21.307  14.174   6.455
10040POPC   C2B57320  21.275  14.227   6.755
10040POPC   C3B57321  21.263  14.230   7.055
10040POPC   C4B57322  21.216  14.139   7.355
10041POPC   NC357323   2.794  36.090   5.555
10041POPC   PO457324   2.733  36.122   5.855
10041POPC   GL157325   2.785  36.083   6.155
10041POPC   GL257326   2.652  36.045   6.155
10041POPC   C1A57327   2.778  36.139   6.455
10041POPC   D2A57328   2.727  36.092   6.755
10041POPC   C3A57329   2.779  36.170   7.055
10041POPC   C4A57330   2.763  36.120   7.355
10041POPC   C1B57331   2.595  35.909   6.455
10041POPC   C2B57332   2.584  35.996   6.755
10041POPC   C3B57333   2.584  35.990   7.055
10041POPC   C4B57334   2.591  35.968   7.355
10042POPC   NC357335  24.539  39.224   5.555
10042POPC   PO457336  24.467  39.204   5.855
10042POPC   GL157337  24.512  39.265   6.155
10042POPC   GL257338  24.345  39.247   6.155
10042POPC   C1A57339  24.478  39.239   6.455
10042POPC   D2A57340  24.478  39.203   6.755
10042POPC   C3A57341  24.466  39.274   7.055
10042POPC   C4A57342  24.447  39.237   7.355
10042POPC   C1B57343  24.216  39.230   6.455
10042POPC   C2B57344  24.273  39.172   6.755
10042POPC   C3B57345  24.253  39.195   7.055
10042POPC   C4B57346  24.213  39.252   7.355
10043POPC   NC357347   8.158  27.555   5.555
10043POPC   PO457348   8.176  27.552   5.855
10043POPC   GL157349   8.194  27.598   6.155
10043POPC   GL257350   8.033  27.638   6.155
10043POPC   C1A57351   8.246  27.561   6.455
10043POPC   D2A57352   8.149  27.547   6.755
10043POPC   C3A57353   8.221  27.596   7.055
10043POPC   C4A57354   8.216  27.631   7.355
10043POPC   C1B57355   7.976  27.544   6.455
10043POPC   C2B57356   7.985  27.572   6.755
10043POPC   C3B57357   7.944  27.552   7.055
10043POPC   C4B57358   7.978  27.593   7.355
10044POPC   NC357359   4.290  29.119   5.555
10044POPC   PO457360   4.317  29.193   5.855
10044POPC   GL157361   4.328  29.112   6.155
10044POPC   GL257362   4.369  28.997   6.155
10044POPC   C1A57363   4.270  29.150   6.455
10044POPC   D2A57364   4.361  29.134   6.755
10044POPC   C3A57365   4.336  29.170   7.055
10044POPC   C4A57366   4.286  29.192   7.355
10044POPC   C1B57367   4.348  28.903   6.455
10044POPC   C2B57368   4.362  28.867   6.755
10044POPC   C3B57369   4.348  28.883   7.055
10044POPC   C4B57370   4.377  28.862   7.355
10045POPC   NC357371  24.519  21.428   5.555
10045POPC   PO457372  24.490  21.419   5.855
10045POPC   GL157373  24.479  21.379   6.155
10045POPC   GL257374  24.572  21.423   6.155
10045POPC   C1A57375  24.486  21.418   6.455
10045POPC   D2A57376  24.488  21.366   6.755
10045POPC   C3A57377  24.475  21.392   7.055
10045POPC   C4A57378  24.490  21.393   7.355
10045POPC   C1B57379  24.739  21.404   6.455
10045POPC   C2B57380  24.715  21.429   6.755
10045POPC   C3B57381  24.784  21.402   7.055
10045POPC   C4B57382  24.789  21.371   7.355
10046POPC   NC357383  43.925  22.154   5.555
10046POPC   PO457384  43.853  22.112   5.855
10046POPC   GL157385  43.910  22.157   6.155
10046POPC   GL257386  43.946  22.275   6.155
10046POPC   C1A57387  43.870  22.165   6.455
10046POPC   D2A57388  43.925  22.128   6.755
10046POPC   C3A57389  43.871  22.134   7.055
10046POPC   C4A57390  43.870  22.117   7.355
10046POPC   C1B57391  43.937  22.443   6.455
10046POPC   C2B57392  43.987  22.384   6.755
10046POPC   C3B57393  43.917  22.378   7.055
10046POPC   C4B57394  43.986  22.433   7.355
10047POPC   NC357395  34.562  30.712   5.555
10047POPC   PO457396  34.606  30.704   5.855
10047POPC   GL157397  34.556  30.688   6.155
10047POPC   GL257398  34.655  30.733   6.155
10047POPC   C1A57399  34.620  30.668   6.455
10047POPC   D2A57400  34.573  30.662   6.755
10047POPC   C3A57401  34.526  30.723   7.055
10047POPC   C4A57402  34.599  30.741   7.355
10047POPC   C1B57403  34.785  30.718   6.455
10047POPC   C2B57404  34.778  30.764   6.755
10047POPC   C3B57405  34.808  30.712   7.055
10047POPC   C4B57406  34.856  30.716   7.355
10048POPC   NC357407   9.717   8.210   5.555
10048POPC   PO457408   9.724   8.190   5.855
10048POPC   GL157409   9.765   8.187   6.155
10048POPC   GL257410   9.649   8.045   6.155
10048POPC   C1A57411   9.719   8.206   6.455
10048POPC   D2A57412   9.708   8.163   6.755
10048POPC   C3A57413   9.777   8.229   7.055
10048POPC   C4A57414   9.788   8.179   7.355
10048POPC   C1B57415   9.587   8.006   6.455
10048POPC   C2B57416   9.585   7.936   6.755
10048POPC   C3B57417   9.660   7.937   7.055
10048POPC   C4B57418   9.658   7.970   7.355
10049POPC   NC357419  33.758  29.126   5.555
10049POPC   PO457420  33.841  29.129   5.855
10049POPC   GL157421  33.768  29.180   6.155
10049POPC   GL257422  33.726  29.288   6.155
10049POPC   C1A57423  33.822  29.132   6.455
10049POPC   D2A57424  33.837  29.118   6.755
10049POPC   C3A57425  33.795  29.139   7.055
10049POPC   C4A57426  33.839  29.121   7.355
10049POPC   C1B57427  33.664  29.341   6.455
10049POPC   C2B57428  33.673  29.372   6.755
10049POPC   C3B57429  33.697  29.405   7.055
10049POPC   C4B57430  33.699  29.319   7.355
10050POPC   NC357431  42.312  12.883   5.555
10050POPC   PO457432  42.382  12.871   5.855
10050POPC   GL157433  42.341  12.823   6.155
10050POPC   GL257434  42.400  12.711   6.155
10050POPC   C1A57435  42.377  12.823   6.455
10050POPC   D2A57436  42.333  12.857   6.755
10050POPC   C3A57437  42.326  12.850   7.055
10050POPC   C4A57438  42.353  12.863   7.355
10050POPC   C1B57439  42.371  12.577   6.455
10050POPC   C2B57440  42.396  12.625   6.755
10050POPC   C3B57441  42.416  12.597   7.055
10050POPC   C4B57442  42.320  12.563   7.355
10051POPC   NC357443  24.471  11.346   5.555
10051POPC   PO457444  24.515  11.335   5.855
10051POPC   GL157445  24.505  11.324   6.155
10051POPC   GL257446  24.613  11.263   6.155
10051POPC   C1A57447  24.533  11.266   6.455
10051POPC   D2A57448  24.519  11.273   6.755
10051POPC   C3A57449  24.494  11.298   7.055
10051POPC   C4A57450  24.531  11.320   7.355
10051POPC   C1B57451  24.761  11.297   6.455
10051POPC   C2B57452  24.748  11.302   6.755
10051POPC   C3B57453  24.702  11.250   7.055
10051POPC   C4B57454  24.784  11.261   7.355
10052POPC   NC357455  12.844  40.819   5.555
10052POPC   PO457456  12.875  40.743   5.855
10052POPC   GL157457  12.850  40.746   6.155
10052POPC   GL257458  12.865  40.931   6.155
10052POPC   C1A57459  12.885  40.779   6.455
10052POPC   D2A57460  12.809  40.773   6.755
10052POPC   C3A57461  12.863  40.741   7.055
10052POPC   C4A57462  12.869  40.784   7.355
10052POPC   C1B57463  12.965  40.994   6.455
10052POPC   C2B57464  12.932  41.051   6.755
10052POPC   C3B57465  12.923  41.005   7.055
10052POPC   C4B57466  12.942  40.994   7.355
10053POPC   NC357467  40.756  12.100   5.555
10053POPC   PO457468  40.789  12.052   5.855
10053POPC   GL157469  40.738  12.102   6.155
10053POPC   GL257470  40.869  12.114   6.155
10053POPC   C1A57471  40.737  12.091   6.455
10053POPC   D2A57472  40.821  12.044   6.755
10053POPC   C3A57473  40.777  12.113   7.055
10053POPC   C4A57474  40.744  12.123   7.355
10053POPC   C1B57475  41.050  12.030   6.455
10053POPC   C2B57476  40.992  12.040   6.755
10053POPC   C3B57477  41.016  12.095   7.055
10053POPC   C4B57478  41.065  12.073   7.355
10054POPC   NC357479  33.783  24.498   5.555
10054POPC   PO457480  33.793  24.465   5.855
10054POPC   GL157481  33.755  24.480   6.155
10054POPC   GL257482  33.752  24.560   6.155
10054POPC   C1A57483  33.782  24.451   6.455
10054POPC   D2A57484  33.786  24.505   6.755
10054POPC   C3A57485  33.826  24.466   7.055
10054POPC   C4A57486  33.792  24.463   7.355
10054POPC   C1B57487  33.703  24.727   6.455
10054POPC   C2B57488  33.712  24.734   6.755
10054POPC   C3B57489  33.673  24.661   7.055
10054POPC   C4B57490  33.708  24.682   7.355
10055POPC   NC357491  27.631   8.210   5.555
10055POPC   PO457492  27.608   8.210   5.855
10055POPC   GL157493  27.592   8.165   6.155
10055POPC   GL257494  27.610   8.051   6.155
10055POPC   C1A57495  27.597   8.179   6.455
10055POPC   D2A57496  27.629   8.220   6.755
10055POPC   C3A57497  27.577   8.226   7.055
10055POPC   C4A57498  27.572   8.158   7.355
10055POPC   C1B57499  27.639   7.954   6.455
10055POPC   C2B57500  27.673   7.981   6.755
10055POPC   C3B57501  27.630   7.915   7.055
10055POPC   C4B57502  27.691   7.917   7.355
10056POPC   NC357503  30.649  28.369   5.555
10056POPC   PO457504  30.695  28.338   5.855
10056POPC   GL157505  30.699  28.352   6.155
10056POPC   GL257506  30.860  28.338   6.155
10056POPC   C1A57507  30.691  28.399   6.455
10056POPC   D2A57508  30.668  28.336   6.755
10056POPC   C3A57509  30.711  28.374   7.055
10056POPC   C4A57510  30.648  28.325   7.355
10056POPC   C1B57511  30.914  28.286   6.455
10056POPC   C2B57512  30.905  28.332   6.755
10056POPC   C3B57513  30.987  28.366   7.055
10056POPC   C4B57514  30.974  28.286   7.355
10057POPC   NC357515  39.248  27.587   5.555
10057POPC   PO457516  39.205  27.636   5.855
10057POPC   GL157517  39.251  27.588   6.155
10057POPC   GL257518  39.364  27.576   6.155
10057POPC   C1A57519  39.204  27.617   6.455
10057POPC   D2A57520  39.257  27.621   6.755
10057POPC   C3A57521  39.216  27.581   7.055
10057POPC   C4A57522  39.191  27.551   7.355
10057POPC   C1B57523  39.449  27.480   6.455
10057POPC   C2B57524  39.425  27.567   6.755
10057POPC   C3B57525  39.488  27.566   7.055
10057POPC   C4B57526  39.515  27.515   7.355
10058POPC   NC357527  26.790  31.454   5.555
10058POPC   PO457528  26.797  31.432   5.855
10058POPC   GL157529  26.816  31.466   6.155
10058POPC   GL257530  26.738  31.549   6.155
10058POPC   C1A57531  26.829  31.481   6.455
10058POPC   D2A57532  26.848  31.490   6.755
10058POPC   C3A57533  26.771  31.506   7.055
10058POPC   C4A57534  26.852  31.505   7.355
10058POPC   C1B57535  26.603  31.691   6.455
10058POPC   C2B57536  26.625  31.617   6.755
10058POPC   C3B57537  26.629  31.624   7.055
10058POPC   C4B57538  26.658  31.638   7.355
10059POPC   NC357539  43.867  16.746   5.555
10059POPC   PO457540  43.908  16.695   5.855
10059POPC   GL157541  43.845  16.719   6.155
10059POPC   GL257542  43.885  16.882   6.155
10059POPC   C1A57543  43.936  16.684   6.455
10059POPC   D2A57544  43.910  16.760   6.755
10059POPC   C3A57545  43.889  16.699   7.055
10059POPC   C4A57546  43.932  16.776   7.355
10059POPC   C1B57547  43.918  17.011   6.455
10059POPC   C2B57548  43.943  16.978   6.755
10059POPC   C3B57549  43.974  17.015   7.055
10059POPC   C4B57550  43.928  16.994   7.355
10060POPC   NC357551  43.092  37.711   5.555
10060POPC   PO457552  43.089  37.717   5.855
10060POPC   GL157553  43.061  37.715   6.155
10060POPC   GL257554  43.154  37.582   6.155
10060POPC   C1A57555  43.136  37.683   6.455
10060POPC   D2A57556  43.100  37.677   6.755
10060POPC   C3A57557  43.144  37.704   7.055
10060POPC   C4A57558  43.088  37.670   7.355
10060POPC   C1B57559  43.117  37.394   6.455
10060POPC   C2B57560  43.127  37.457   6.755
10060POPC   C3B57561  43.082  37.402   7.055
10060POPC   C4B57562  43.071  37.433   7.355
10061POPC   NC357563   5.080  29.943   5.555
10061POPC   PO457564   5.060  29.872   5.855
10061POPC   GL157565   5.065  29.927   6.155
10061POPC   GL257566   5.017  30.046   6.155
10061POPC   C1A57567   5.085  29.965   6.455
10061POPC   D2A57568   5.142  29.876   6.755
10061POPC   C3A57569   5.107  29.907   7.055
10061POPC   C4A57570   5.070  29.920   7.355
10061POPC   C1B57571   4.945  30.146   6.455
10061POPC   C2B57572   4.875  30.083   6.755
10061POPC   C3B57573   4.907  30.060   7.055
10061POPC   C4B57574   4.974  30.104   7.355
10062POPC   NC357575   0.433   5.086   5.555
10062POPC   PO457576   0.432   5.135   5.855
10062POPC   GL157577   0.467   5.057   6.155
10062POPC   GL257578   0.400   5.210   6.155
10062POPC   C1A57579   0.487   5.048   6.455
10062POPC   D2A57580   0.411   5.121   6.755
10062POPC   C3A57581   0.480   5.138   7.055
10062POPC   C4A57582   0.462   5.118   7.355
10062POPC   C1B57583   0.363   5.303   6.455
10062POPC   C2B57584   0.360   5.298   6.755
10062POPC   C3B57585   0.314   5.301   7.055
10062POPC   C4B57586   0.348   5.354   7.355
10063POPC   NC357587   9.796  29.925   5.555
10063POPC   PO457588   9.727  29.943   5.855
10063POPC   GL157589   9.779  29.914   6.155
10063POPC   GL257590   9.710  29.784   6.155
10063POPC   C1A57591   9.718  29.927   6.455
10063POPC   D2A57592   9.772  29.946   6.755
10063POPC   C3A57593   9.736  29.894   7.055
10063POPC   C4A57594   9.700  29.921   7.355
10063POPC   C1B57595   9.751  29.690   6.455
10063POPC   C2B57596   9.773  29.653   6.755
10063POPC   C3B57597   9.714  29.698   7.055
10063POPC   C4B57598   9.724  29.657   7.355
10064POPC   NC357599  23.760  40.047   5.555
10064POPC   PO457600  23.713  39.960   5.855
10064POPC   GL157601  23.713  39.983   6.155
10064POPC   GL257602  23.807  40.093   6.155
10064POPC   C1A57603  23.678  39.991   6.455
10064POPC   D2A57604  23.693  39.987   6.755
10064POPC   C3A57605  23.738  39.969   7.055
10064POPC   C4A57606  23.730  39.979   7.355
10064POPC   C1B57607  23.813  40.198   6.455
10064POPC   C2B57608  23.874  40.245   6.755
10064POPC   C3B57609  23.846  40.240   7.055
10064POPC   C4B57610  23.818  40.219   7.355
10065POPC   NC357611   1.262   1.959   5.555
10065POPC   PO457612   1.244   1.941   5.855
10065POPC   GL157613   1.191   2.011   6.155
10065POPC   GL257614   1.327   2.067   6.155
10065POPC   C1A57615   1.201   1.952   6.455
10065POPC   D2A57616   1.243   1.970   6.755
10065POPC   C3A57617   1.253   1.983   7.055
10065POPC   C4A57618   1.205   2.022   7.355
10065POPC   C1B57619   1.465   2.146   6.455
10065POPC   C2B57620   1.391   2.128   6.755
10065POPC   C3B57621   1.440   2.099   7.055
10065POPC   C4B57622   1.426   2.120   7.355
10066POPC   NC357623  24.496   9.757   5.555
10066POPC   PO457624  24.511   9.708   5.855
10066POPC   GL157625  24.452   9.738   6.155
10066POPC   GL257626  24.357   9.793   6.155
10066POPC   C1A57627  24.510   9.749   6.455
10066POPC   D2A57628  24.526   9.711   6.755
10066POPC   C3A57629  24.470   9.707   7.055
10066POPC   C4A57630  24.505   9.766   7.355
10066POPC   C1B57631  24.215   9.733   6.455
10066POPC   C2B57632  24.242   9.786   6.755
10066POPC   C3B57633  24.197   9.755   7.055
10066POPC   C4B57634  24.251   9.785   7.355
10067POPC   NC357635  20.637  37.707   5.555
10067POPC   PO457636  20.641  37.631   5.855
10067POPC   GL157637  20.584  37.638   6.155
10067POPC   GL257638  20.597  37.756   6.155
10067POPC   C1A57639  20.660  37.653   6.455
10067POPC   D2A57640  20.645  37.632   6.755
10067POPC   C3A57641  20.630  37.696   7.055
10067POPC   C4A57642  20.589  37.650   7.355
10067POPC   C1B57643  20.518  37.922   6.455
10067POPC   C2B57644  20.500  37.881   6.755
10067POPC   C3B57645  20.486  37.921   7.055
10067POPC   C4B57646  20.534  37.885   7.355
10068POPC   NC357647  11.335  22.212   5.555
10068POPC   PO457648  11.300  22.127   5.855
10068POPC   GL157649  11.299  22.135   6.155
10068POPC   GL257650  11.146  22.121   6.155
10068POPC   C1A57651  11.320  22.185   6.455
10068POPC   D2A57652  11.251  22.192   6.755
10068POPC   C3A57653  11.265  22.128   7.055
10068POPC   C4A57654  11.262  22.171   7.355
10068POPC   C1B57655  11.078  22.155   6.455
10068POPC   C2B57656  11.049  22.168   6.755
10068POPC   C3B57657  11.028  22.177   7.055
10068POPC   C4B57658  11.064  22.165   7.355
10069POPC   NC357659  29.166   4.322   5.555
10069POPC   PO457660  29.178   4.290   5.855
10069POPC   GL157661  29.127   4.311   6.155
10069POPC   GL257662  29.117   4.262   6.155
10069POPC   C1A57663  29.118   4.290   6.455
10069POPC   D2A57664  29.194   4.269   6.755
10069POPC   C3A57665  29.110   4.297   7.055
10069POPC   C4A57666  29.125   4.307   7.355
10069POPC   C1B57667  28.973   4.130   6.455
10069POPC   C2B57668  28.981   4.107   6.755
10069POPC   C3B57669  28.951   4.163   7.055
10069POPC   C4B57670  29.041   4.140   7.355
10070POPC   NC357671   7.423  26.037   5.555
10070POPC   PO457672   7.457  26.004   5.855
10070POPC   GL157673   7.413  26.020   6.155
10070POPC   GL257674   7.333  25.934   6.155
10070POPC   C1A57675   7.445  26.023   6.455
10070POPC   D2A57676   7.399  25.993   6.755
10070POPC   C3A57677   7.394  26.016   7.055
10070POPC   C4A57678   7.376  26.036   7.355
10070POPC   C1B57679   7.217  25.872   6.455
10070POPC   C2B57680   7.256  25.886   6.755
10070POPC   C3B57681   7.251  25.938   7.055
10070POPC   C4B57682   7.204  25.869   7.355
10071POPC   NC357683   1.242   6.675   5.555
10071POPC   PO457684   1.228   6.690   5.855
10071POPC   GL157685   1.206   6.652   6.155
10071POPC   GL257686   1.161   6.765   6.155
10071POPC   C1A57687   1.259   6.600   6.455
10071POPC   D2A57688   1.194   6.682   6.755
10071POPC   C3A57689   1.169   6.598   7.055
10071POPC   C4A57690   1.259   6.614   7.355
10071POPC   C1B57691   1.159   6.934   6.455
10071POPC   C2B57692   1.154   6.910   6.755
10071POPC   C3B57693   1.203   6.854   7.055
10071POPC   C4B57694   1.177   6.926   7.355
10072POPC   NC357695  40.780  21.363   5.555
10072POPC   PO457696  40.814  21.392   5.855
10072POPC   GL157697  40.807  21.409   6.155
10072POPC   GL257698  40.622  21.352   6.155
10072POPC   C1A57699  40.833  21.385   6.455
10072POPC   D2A57700  40.826  21.372   6.755
10072POPC   C3A57701  40.799  21.435   7.055
10072POPC   C4A57702  40.829  21.369   7.355
10072POPC   C1B57703  40.513  21.365   6.455
10072POPC   C2B57704  40.546  21.348   6.755
10072POPC   C3B57705  40.521  21.285   7.055
10072POPC   C4B57706  40.549  21.289   7.355
10073POPC   NC357707  15.204  19.108   5.555
10073POPC   PO457708  15.187  19.070   5.855
10073POPC   GL157709  15.222  19.039   6.155
10073POPC   GL257710  15.179  18.969   6.155
10073POPC   C1A57711  15.229  19.098   6.455
10073POPC   D2A57712  15.157  19.038   6.755
10073POPC   C3A57713  15.180  19.063   7.055
10073POPC   C4A57714  15.223  19.048   7.355
10073POPC   C1B57715  15.215  18.852   6.455
10073POPC   C2B57716  15.256  18.820   6.755
10073POPC   C3B57717  15.287  18.768   7.055
10073POPC   C4B57718  15.281  18.822   7.355
10074POPC   NC357719  32.267   4.268   5.555
10074POPC   PO457720  32.232   4.350   5.855
10074POPC   GL157721  32.200   4.296   6.155
10074POPC   GL257722  32.127   4.336   6.155
10074POPC   C1A57723  32.231   4.306   6.455
10074POPC   D2A57724  32.231   4.290   6.755
10074POPC   C3A57725  32.273   4.298   7.055
10074POPC   C4A57726  32.214   4.317   7.355
10074POPC   C1B57727  32.031   4.249   6.455
10074POPC   C2B57728  32.043   4.309   6.755
10074POPC   C3B57729  32.036   4.236   7.055
10074POPC   C4B57730  31.959   4.230   7.355
10075POPC   NC357731   9.008  42.347   5.555
10075POPC   PO457732   8.996  42.364   5.855
10075POPC   GL157733   9.010  42.346   6.155
10075POPC   GL257734   9.141  42.345   6.155
10075POPC   C1A57735   8.990  42.333   6.455
10075POPC   D2A57736   8.925  42.294   6.755
10075POPC   C3A57737   9.019  42.308   7.055
10075POPC   C4A57738   8.942  42.313   7.355
10075POPC   C1B57739   9.215  42.375   6.455
10075POPC   C2B57740   9.187  42.394   6.755
10075POPC   C3B57741   9.205  42.359   7.055
10075POPC   C4B57742   9.230  42.383   7.355
10076POPC   NC357743  36.902   3.558   5.555
10076POPC   PO457744  36.901   3.582   5.855
10076POPC   GL157745  36.868   3.572   6.155
10076POPC   GL257746  37.027   3.473   6.155
10076POPC   C1A57747  36.922   3.497   6.455
10076POPC   D2A57748  36.915   3.571   6.755
10076POPC   C3A57749  36.922   3.530   7.055
10076POPC   C4A57750  36.893   3.558   7.355
10076POPC   C1B57751  37.142   3.449   6.455
10076POPC   C2B57752  37.112   3.431   6.755
10076POPC   C3B57753  37.101   3.482   7.055
10076POPC   C4B57754  37.097   3.410   7.355
10077POPC   NC357755   6.685  20.593   5.555
10077POPC   PO457756   6.604  20.594   5.855
10077POPC   GL157757   6.622  20.615   6.155
10077POPC   GL257758   6.610  20.783   6.155
10077POPC   C1A57759   6.626  20.659   6.455
10077POPC   D2A57760   6.649  20.567   6.755
10077POPC   C3A57761   6.602  20.640   7.055
10077POPC   C4A57762   6.656  20.619   7.355
10077POPC   C1B57763   6.696  20.844   6.455
10077POPC   C2B57764   6.658  20.895   6.755
10077POPC   C3B57765   6.649  20.893   7.055
10077POPC   C4B57766   6.639  20.890   7.355
10078POPC   NC357767  35.369  20.615   5.555
10078POPC   PO457768  35.349  20.649   5.855
10078POPC   GL157769  35.387  20.572   6.155
10078POPC   GL257770  35.296  20.509   6.155
10078POPC   C1A57771  35.354  20.587   6.455
10078POPC   D2A57772  35.320  20.652   6.755
10078POPC   C3A57773  35.347  20.658   7.055
10078POPC   C4A57774  35.303  20.660   7.355
10078POPC   C1B57775  35.273  20.342   6.455
10078POPC   C2B57776  35.346  20.351   6.755
10078POPC   C3B57777  35.358  20.323   7.055
10078POPC   C4B57778  35.278  20.376   7.355
10079POPC   NC357779  39.189  29.970   5.555
10079POPC   PO457780  39.208  29.931   5.855
10079POPC   GL157781  39.264  29.926   6.155
10079POPC   GL257782  39.314  30.013   6.155
10079POPC   C1A57783  39.198  29.948   6.455
10079POPC   D2A57784  39.242  29.916   6.755
10079POPC   C3A57785  39.218  29.959   7.055
10079POPC   C4A57786  39.187  29.877   7.355
10079POPC   C1B57787  39.322  30.159   6.455
10079POPC   C2B57788  39.345  30.181   6.755
10079POPC   C3B57789  39.321  30.200   7.055
10079POPC   C4B57790  39.299  30.197   7.355
10080POPC   NC357791  25.268   0.410   5.555
10080POPC   PO457792  25.249   0.430   5.855
10080POPC   GL157793  25.293   0.434   6.155
10080POPC   GL257794  25.178   0.351   6.155
10080POPC   C1A57795  25.259   0.399   6.455
10080POPC   D2A57796  25.223   0.412   6.755
10080POPC   C3A57797  25.277   0.419   7.055
10080POPC   C4A57798  25.257   0.400   7.355
10080POPC   C1B57799  25.173   0.248   6.455
10080POPC   C2B57800  25.188   0.178   6.755
10080POPC   C3B57801  25.165   0.258   7.055
10080POPC   C4B57802  25.143   0.214   7.355
10081POPC   NC357803   2.034  33.762   5.555
10081POPC   PO457804   2.005  33.759   5.855
10081POPC   GL157805   1.974  33.846   6.155
10081POPC   GL257806   1.985  33.706   6.155
10081POPC   C1A57807   1.989  33.789   6.455
10081POPC   D2A57808   2.007  33.844   6.755
10081POPC   C3A57809   1.979  33.838   7.055
10081POPC   C4A57810   1.987  33.779   7.355
10081POPC   C1B57811   1.943  33.525   6.455
10081POPC   C2B57812   1.875  33.611   6.755
10081POPC   C3B57813   1.874  33.616   7.055
10081POPC   C4B57814   1.857  33.523   7.355
10082POPC   NC357815  18.311  11.305   5.555
10082POPC   PO457816  18.301  11.286   5.855
10082POPC   GL157817  18.296  11.295   6.155
10082POPC   GL257818  18.283  11.452   6.155
10082POPC   C1A57819  18.285  11.263   6.455
10082POPC   D2A57820  18.313  11.324   6.755
10082POPC   C3A57821  18.238  11.326   7.055
10082POPC   C4A57822  18.238  11.279   7.355
10082POPC   C1B57823  18.252  11.561   6.455
10082POPC   C2B57824  18.202  11.497   6.755
10082POPC   C3B57825  18.248  11.566   7.055
10082POPC   C4B57826  18.193  11.496   7.355
10083POPC   NC357827  27.619  19.018   5.555
10083POPC   PO457828  27.635  19.107   5.855
10083POPC   GL157829  27.557  19.015   6.155
10083POPC   GL257830  27.670  19.165   6.155
10083POPC   C1A57831  27.608  19.049   6.455
10083POPC   D2A57832  27.617  19.016   6.755
10083POPC   C3A57833  27.623  19.074   7.055
10083POPC   C4A57834  27.594  19.030   7.355
10083POPC   C1B57835  27.802  19.218   6.455
10083POPC   C2B57836  27.833  19.223   6.755
10083POPC   C3B57837  27.778  19.222   7.055
10083POPC   C4B57838  27.839  19.212   7.355
10084POPC   NC357839   6.602  21.343   5.555
10084POPC   PO457840   6.654  21.365   5.855
10084POPC   GL157841   6.693  21.361   6.155
10084POPC   GL257842   6.520  21.300   6.155
10084POPC   C1A57843   6.615  21.388   6.455
10084POPC   D2A57844   6.661  21.417   6.755
10084POPC   C3A57845   6.667  21.408   7.055
10084POPC   C4A57846   6.609  21.424   7.355
10084POPC   C1B57847   6.439  21.225   6.455
10084POPC   C2B57848   6.512  21.189   6.755
10084POPC   C3B57849   6.464  21.233   7.055
10084POPC   C4B57850   6.500  21.170   7.355
10085POPC   NC357851  34.595   8.203   5.555
10085POPC   PO457852  34.568   8.240   5.855
10085POPC   GL157853  34.618   8.166   6.155
10085POPC   GL257854  34.538   8.278   6.155
10085POPC   C1A57855  34.618   8.237   6.455
10085POPC   D2A57856  34.570   8.192   6.755
10085POPC   C3A57857  34.581   8.177   7.055
10085POPC   C4A57858  34.526   8.244   7.355
10085POPC   C1B57859  34.572   8.436   6.455
10085POPC   C2B57860  34.521   8.490   6.755
10085POPC   C3B57861  34.582   8.442   7.055
10085POPC   C4B57862  34.542   8.442   7.355
10086POPC   NC357863  19.815  14.369   5.555
10086POPC   PO457864  19.869  14.358   5.855
10086POPC   GL157865  19.814  14.372   6.155
10086POPC   GL257866  19.742  14.438   6.155
10086POPC   C1A57867  19.879  14.403   6.455
10086POPC   D2A57868  19.800  14.390   6.755
10086POPC   C3A57869  19.798  14.354   7.055
10086POPC   C4A57870  19.834  14.355   7.355
10086POPC   C1B57871  19.622  14.586   6.455
10086POPC   C2B57872  19.597  14.574   6.755
10086POPC   C3B57873  19.656  14.527   7.055
10086POPC   C4B57874  19.630  14.528   7.355
10087POPC   NC357875   1.966  22.973   5.555
10087POPC   PO457876   1.953  22.975   5.855
10087POPC   GL157877   1.993  22.970   6.155
10087POPC   GL257878   2.021  23.011   6.155
10087POPC   C1A57879   2.038  22.954   6.455
10087POPC   D2A57880   2.012  22.976   6.755
10087POPC   C3A57881   2.027  22.954   7.055
10087POPC   C4A57882   1.957  22.912   7.355
10087POPC   C1B57883   2.061  23.147   6.455
10087POPC   C2B57884   2.106  23.121   6.755
10087POPC   C3B57885   2.099  23.167   7.055
10087POPC   C4B57886   2.123  23.192   7.355
10088POPC   NC357887  43.849   6.641   5.555
10088POPC   PO457888  43.870   6.657   5.855
10088POPC   GL157889  43.902   6.646   6.155
10088POPC   GL257890  44.008   6.578   6.155
10088POPC   C1A57891  43.878   6.685   6.455
10088POPC   D2A57892  43.842   6.658   6.755
10088POPC   C3A57893  43.911   6.683   7.055
10088POPC   C4A57894  43.855   6.609   7.355
10088POPC   C1B57895  44.078   6.543   6.455
10088POPC   C2B57896  44.092   6.555   6.755
10088POPC   C3B57897  44.078   6.594   7.055
10088POPC   C4B57898  44.155   6.594   7.355
10089POPC   NC357899  23.685   2.731   5.555
10089POPC   PO457900  23.701   2.752   5.855
10089POPC   GL157901  23.675   2.790   6.155
10089POPC   GL257902  23.754   2.912   6.155
10089POPC   C1A57903  23.681   2.723   6.455
10089POPC   D2A57904  23.733   2.723   6.755
10089POPC   C3A57905  23.664   2.810   7.055
10089POPC   C4A57906  23.752   2.755   7.355
10089POPC   C1B57907  23.816   2.993   6.455
10089POPC   C2B57908  23.821   3.002   6.755
10089POPC   C3B57909  23.832   3.005   7.055
10089POPC   C4B57910  23.811   2.957   7.355
10090POPC   NC357911  13.612  44.616   5.555
10090POPC   PO457912  13.675  44.677   5.855
10090POPC   GL157913  13.622  44.629   6.155
10090POPC   GL257914  13.686  44.780   6.155
10090POPC   C1A57915  13.623  44.684   6.455
10090POPC   D2A57916  13.604  44.695   6.755
10090POPC   C3A57917  13.598  44.709   7.055
10090POPC   C4A57918  13.628  44.697   7.355
10090POPC   C1B57919  13.793  44.807   6.455
10090POPC   C2B57920  13.834  44.773   6.755
10090POPC   C3B57921  13.819  44.784   7.055
10090POPC   C4B57922  13.807  44.766   7.355
10091POPC   NC357923   1.196   7.443   5.555
10091POPC   PO457924   1.177   7.450   5.855
10091POPC   GL157925   1.223   7.417   6.155
10091POPC   GL257926   1.238   7.576   6.155
10091POPC   C1A57927   1.169   7.417   6.455
10091POPC   D2A57928   1.195   7.426   6.755
10091POPC   C3A57929   1.205   7.434   7.055
10091POPC   C4A57930   1.219   7.459   7.355
10091POPC   C1B57931   1.323   7.693   6.455
10091POPC   C2B57932   1.244   7.705   6.755
10091POPC   C3B57933   1.258   7.661   7.055
10091POPC   C4B57934   1.260   7.619   7.355
10092POPC   NC357935  22.211   9.705   5.555
10092POPC   PO457936  22.146   9.783   5.855
10092POPC   GL157937  22.166   9.792   6.155
10092POPC   GL257938  22.270   9.740   6.155
10092POPC   C1A57939  22.175   9.786   6.455
10092POPC   D2A57940  22.195   9.720   6.755
10092POPC   C3A57941  22.139   9.737   7.055
10092POPC   C4A57942  22.119   9.751   7.355
10092POPC   C1B57943  22.424   9.681   6.455
10092POPC   C2B57944  22.452   9.757   6.755
10092POPC   C3B57945  22.427   9.755   7.055
10092POPC   C4B57946  22.452   9.742   7.355
10093POPC   NC357947  28.365   2.743   5.555
10093POPC   PO457948  28.368   2.762   5.855
10093POPC   GL157949  28.326   2.786   6.155
10093POPC   GL257950  28.497   2.728   6.155
10093POPC   C1A57951  28.348   2.766   6.455
10093POPC   D2A57952  28.365   2.799   6.755
10093POPC   C3A57953  28.409   2.798   7.055
10093POPC   C4A57954  28.381   2.777   7.355
10093POPC   C1B57955  28.560   2.615   6.455
10093POPC   C2B57956  28.592   2.588   6.755
10093POPC   C3B57957  28.561   2.659   7.055
10093POPC   C4B57958  28.555   2.668   7.355
10094POPC   NC357959   2.813  31.517   5.555
10094POPC   PO457960   2.739  31.481   5.855
10094POPC   GL157961   2.736  31.447   6.155
10094POPC   GL257962   2.797  31.365   6.155
10094POPC   C1A57963   2.748  31.473   6.455
10094POPC   D2A57964   2.751  31.496   6.755
10094POPC   C3A57965   2.783  31.473   7.055
10094POPC   C4A57966   2.741  31.472   7.355
10094POPC   C1B57967   2.913  31.277   6.455
10094POPC   C2B57968   2.918  31.270   6.755
10094POPC   C3B57969   2.950  31.328   7.055
10094POPC   C4B57970   2.912  31.240   7.355
10095POPC   NC357971   5.827  14.392   5.555
10095POPC   PO457972   5.840  14.412   5.855
10095POPC   GL157973   5.833  14.422   6.155
10095POPC   GL257974   5.904  14.540   6.155
10095POPC   C1A57975   5.916  14.444   6.455
10095POPC   D2A57976   5.867  14.369   6.755
10095POPC   C3A57977   5.917  14.375   7.055
10095POPC   C4A57978   5.849  14.388   7.355
10095POPC   C1B57979   5.819  14.694   6.455
10095POPC   C2B57980   5.832  14.625   6.755
10095POPC   C3B57981   5.829  14.637   7.055
10095POPC   C4B57982   5.825  14.635   7.355
10096POPC   NC357983  22.147  22.943   5.555
10096POPC   PO457984  22.152  22.903   5.855
10096POPC   GL157985  22.198  22.903   6.155
10096POPC   GL257986  22.146  22.826   6.155
10096POPC   C1A57987  22.167  22.919   6.455
10096POPC   D2A57988  22.131  22.944   6.755
10096POPC   C3A57989  22.193  22.984   7.055
10096POPC   C4A57990  22.198  22.946   7.355
10096POPC   C1B57991  22.138  22.666   6.455
10096POPC   C2B57992  22.069  22.693   6.755
10096POPC   C3B57993  22.077  22.737   7.055
10096POPC   C4B57994  22.142  22.651   7.355
10097POPC   NC357995  43.064   2.764   5.555
10097POPC   PO457996  43.125   2.758   5.855
10097POPC   GL157997  43.152   2.768   6.155
10097POPC   GL257998  43.047   2.656   6.155
10097POPC   C1A57999  43.130   2.803   6.455
10097POPC   D2A58000  43.137   2.755   6.755
10097POPC   C3A58001  43.154   2.784   7.055
10097POPC   C4A58002  43.150   2.788   7.355
10097POPC   C1B58003  43.019   2.506   6.455
10097POPC   C2B58004  42.979   2.510   6.755
10097POPC   C3B58005  42.992   2.583   7.055
10097POPC   C4B58006  42.974   2.531   7.355
10098POPC   NC358007  18.330  35.304   5.555
10098POPC   PO458008  18.295  35.377   5.855
10098POPC   GL158009  18.267  35.342   6.155
10098POPC   GL258010  18.209  35.441   6.155
10098POPC   C1A58011  18.268  35.328   6.455
10098POPC   D2A58012  18.238  35.310   6.755
10098POPC   C3A58013  18.321  35.362   7.055
10098POPC   C4A58014  18.308  35.326   7.355
10098POPC   C1B58015  18.099  35.551   6.455
10098POPC   C2B58016  18.095  35.588   6.755
10098POPC   C3B58017  18.098  35.543   7.055
10098POPC   C4B58018  18.156  35.564   7.355
10099POPC   NC358019   2.017  40.044   5.555
10099POPC   PO458020   2.010  40.056   5.855
10099POPC   GL158021   1.965  40.013   6.155
10099POPC   GL258022   2.099  40.039   6.155
10099POPC   C1A58023   1.988  40.053   6.455
10099POPC   D2A58024   2.023  39.990   6.755
10099POPC   C3A58025   1.967  40.056   7.055
10099POPC   C4A58026   1.944  40.006   7.355
10099POPC   C1B58027   2.225  40.063   6.455
10099POPC   C2B58028   2.285  40.016   6.755
10099POPC   C3B58029   2.214  40.001   7.055
10099POPC   C4B58030   2.203  40.007   7.355
10100POPC   NC358031  15.972   8.239   5.555
10100POPC   PO458032  15.944   8.153   5.855
10100POPC   GL158033  15.978   8.221   6.155
10100POPC   GL258034  15.986   8.338   6.155
10100POPC   C1A58035  15.960   8.209   6.455
10100POPC   D2A58036  15.915   8.239   6.755
10100POPC   C3A58037  15.922   8.156   7.055
10100POPC   C4A58038  15.947   8.147   7.355
10100POPC   C1B58039  15.968   8.418   6.455
10100POPC   C2B58040  16.005   8.442   6.755
10100POPC   C3B58041  15.922   8.493   7.055
10100POPC   C4B58042  15.943   8.419   7.355
10101POPC   NC358043  17.489  13.600   5.555
10101POPC   PO458044  17.502  13.647   5.855
10101POPC   GL158045  17.551  13.599   6.155
10101POPC   GL258046  17.462  13.539   6.155
10101POPC   C1A58047  17.514  13.631   6.455
10101POPC   D2A58048  17.515  13.631   6.755
10101POPC   C3A58049  17.524  13.662   7.055
10101POPC   C4A58050  17.550  13.606   7.355
10101POPC   C1B58051  17.463  13.399   6.455
10101POPC   C2B58052  17.457  13.335   6.755
10101POPC   C3B58053  17.489  13.386   7.055
10101POPC   C4B58054  17.483  13.413   7.355
10102POPC   NC358055  31.430  21.366   5.555
10102POPC   PO458056  31.432  21.421   5.855
10102POPC   GL158057  31.495  21.360   6.155
10102POPC   GL258058  31.437  21.521   6.155
10102POPC   C1A58059  31.424  21.387   6.455
10102POPC   D2A58060  31.432  21.402   6.755
10102POPC   C3A58061  31.425  21.375   7.055
10102POPC   C4A58062  31.457  21.434   7.355
10102POPC   C1B58063  31.440  21.608   6.455
10102POPC   C2B58064  31.392  21.667   6.755
10102POPC   C3B58065  31.415  21.646   7.055
10102POPC   C4B58066  31.394  21.670   7.355
10103POPC   NC358067   4.315  30.691   5.555
10103POPC   PO458068   4.367  30.698   5.855
10103POPC   GL158069   4.324  30.739   6.155
10103POPC   GL258070   4.298  30.578   6.155
10103POPC   C1A58071   4.287  30.668   6.455
10103POPC   D2A58072   4.282  30.707   6.755
10103POPC   C3A58073   4.364  30.685   7.055
10103POPC   C4A58074   4.355  30.700   7.355
10103POPC   C1B58075   4.230  30.469   6.455
10103POPC   C2B58076   4.228  30.452   6.755
10103POPC   C3B58077   4.193  30.492   7.055
10103POPC   C4B58078   4.200  30.482   7.355
10104POPC   NC358079   8.956  26.826   5.555
10104POPC   PO458080   8.923  26.793   5.855
10104POPC   GL158081   8.977  26.817   6.155
10104POPC   GL258082   8.958  26.733   6.155
10104POPC   C1A58083   8.943  26.826   6.455
10104POPC   D2A58084   8.960  26.797   6.755
10104POPC   C3A58085   9.015  26.848   7.055
10104POPC   C4A58086   9.012  26.788   7.355
10104POPC   C1B58087   8.928  26.538   6.455
10104POPC   C2B58088   8.856  26.601   6.755
10104POPC   C3B58089   8.897  26.576   7.055
10104POPC   C4B58090   8.893  26.590   7.355
10105POPC   NC358091  27.616  39.203   5.555
10105POPC   PO458092  27.545  39.221   5.855
10105POPC   GL158093  27.612  39.253   6.155
10105POPC   GL258094  27.644  39.331   6.155
10105POPC   C1A58095  27.548  39.265   6.455
10105POPC   D2A58096  27.557  39.268   6.755
10105POPC   C3A58097  27.549  39.207   7.055
10105POPC   C4A58098  27.578  39.237   7.355
10105POPC   C1B58099  27.661  39.455   6.455
10105POPC   C2B58100  27.598  39.496   6.755
10105POPC   C3B58101  27.672  39.476   7.055
10105POPC   C4B58102  27.666  39.493   7.355
10106POPC   NC358103  21.346  43.884   5.555
10106POPC   PO458104  21.357  43.871   5.855
10106POPC   GL158105  21.348  43.923   6.155
10106POPC   GL258106  21.290  43.985   6.155
10106POPC   C1A58107  21.352  43.917   6.455
10106POPC   D2A58108  21.398  43.894   6.755
10106POPC   C3A58109  21.386  43.932   7.055
10106POPC   C4A58110  21.392  43.925   7.355
10106POPC   C1B58111  21.254  44.115   6.455
10106POPC   C2B58112  21.210  44.054   6.755
10106POPC   C3B58113  21.234  44.084   7.055
10106POPC   C4B58114  21.243  44.066   7.355
10107POPC   NC358115  17.487  12.088   5.555
10107POPC   PO458116  17.475  12.048   5.855
10107POPC   GL158117  17.516  12.092   6.155
10107POPC   GL258118  17.483  11.924   6.155
10107POPC   C1A58119  17.495  12.103   6.455
10107POPC   D2A58120  17.531  12.039   6.755
10107POPC   C3A58121  17.539  12.107   7.055
10107POPC   C4A58122  17.504  12.103   7.355
10107POPC   C1B58123  17.460  11.815   6.455
10107POPC   C2B58124  17.462  11.791   6.755
10107POPC   C3B58125  17.444  11.805   7.055
10107POPC   C4B58126  17.480  11.824   7.355
10108POPC   NC358127  16.753   1.997   5.555
10108POPC   PO458128  16.710   2.007   5.855
10108POPC   GL158129  16.699   1.987   6.155
10108POPC   GL258130  16.813   1.911   6.155
10108POPC   C1A58131  16.751   1.975   6.455
10108POPC   D2A58132  16.694   1.981   6.755
10108POPC   C3A58133  16.715   2.000   7.055
10108POPC   C4A58134  16.685   1.965   7.355
10108POPC   C1B58135  16.873   1.788   6.455
10108POPC   C2B58136  16.870   1.789   6.755
10108POPC   C3B58137  16.842   1.814   7.055
10108POPC   C4B58138  16.844   1.745   7.355
10109POPC   NC358139  26.031  38.450   5.555
10109POPC   PO458140  26.025  38.471   5.855
10109POPC   GL158141  26.079  38.472   6.155
10109POPC   GL258142  26.196  38.444   6.155
10109POPC   C1A58143  26.079  38.455   6.455
10109POPC   D2A58144  26.057  38.405   6.755
10109POPC   C3A58145  26.090  38.420   7.055
10109POPC   C4A58146  26.054  38.447   7.355
10109POPC   C1B58147  26.311  38.437   6.455
10109POPC   C2B58148  26.325  38.405   6.755
10109POPC   C3B58149  26.332  38.410   7.055
10109POPC   C4B58150  26.335  38.372   7.355
10110POPC   NC358151  19.873  34.553   5.555
10110POPC   PO458152  19.800  34.614   5.855
10110POPC   GL158153  19.786  34.549   6.155
10110POPC   GL258154  19.790  34.676   6.155
10110POPC   C1A58155  19.809  34.590   6.455
10110POPC   D2A58156  19.874  34.625   6.755
10110POPC   C3A58157  19.835  34.531   7.055
10110POPC   C4A58158  19.790  34.545   7.355
10110POPC   C1B58159  19.801  34.865   6.455
10110POPC   C2B58160  19.761  34.848   6.755
10110POPC   C3B58161  19.831  34.836   7.055
10110POPC   C4B58162  19.831  34.782   7.355
10111POPC   NC358163  14.419  23.679   5.555
10111POPC   PO458164  14.370  23.741   5.855
10111POPC   GL158165  14.359  23.672   6.155
10111POPC   GL258166  14.268  23.625   6.155
10111POPC   C1A58167  14.439  23.677   6.455
10111POPC   D2A58168  14.388  23.707   6.755
10111POPC   C3A58169  14.428  23.744   7.055
10111POPC   C4A58170  14.420  23.740   7.355
10111POPC   C1B58171  14.227  23.584   6.455
10111POPC   C2B58172  14.163  23.582   6.755
10111POPC   C3B58173  14.242  23.611   7.055
10111POPC   C4B58174  14.220  23.617   7.355
10112POPC   NC358175  29.937  19.048   5.555
10112POPC   PO458176  29.895  19.084   5.855
10112POPC   GL158177  29.898  19.028   6.155
10112POPC   GL258178  29.991  19.034   6.155
10112POPC   C1A58179  29.930  19.078   6.455
10112POPC   D2A58180  29.946  19.077   6.755
10112POPC   C3A58181  29.943  19.010   7.055
10112POPC   C4A58182  29.919  19.026   7.355
10112POPC   C1B58183  30.124  19.016   6.455
10112POPC   C2B58184  30.151  18.994   6.755
10112POPC   C3B58185  30.185  19.020   7.055
10112POPC   C4B58186  30.158  18.996   7.355
10113POPC   NC358187   1.996  12.078   5.555
10113POPC   PO458188   1.963  12.117   5.855
10113POPC   GL158189   1.962  12.032   6.155
10113POPC   GL258190   1.917  11.956   6.155
10113POPC   C1A58191   1.948  12.076   6.455
10113POPC   D2A58192   1.959  12.030   6.755
10113POPC   C3A58193   2.005  12.122   7.055
10113POPC   C4A58194   1.969  12.050   7.355
10113POPC   C1B58195   1.968  11.871   6.455
10113POPC   C2B58196   1.916  11.846   6.755
10113POPC   C3B58197   1.927  11.861   7.055
10113POPC   C4B58198   1.911  11.868   7.355
10114POPC   NC358199  38.500   5.051   5.555
10114POPC   PO458200  38.410   5.129   5.855
10114POPC   GL158201  38.458   5.091   6.155
10114POPC   GL258202  38.383   5.018   6.155
10114POPC   C1A58203  38.438   5.043   6.455
10114POPC   D2A58204  38.435   5.108   6.755
10114POPC   C3A58205  38.504   5.138   7.055
10114POPC   C4A58206  38.405   5.089   7.355
10114POPC   C1B58207  38.232   4.977   6.455
10114POPC   C2B58208  38.249   4.951   6.755
10114POPC   C3B58209  38.239   4.958   7.055
10114POPC   C4B58210  38.207   4.989   7.355
10115POPC   NC358211  34.582  31.458   5.555
10115POPC   PO458212  34.556  31.426   5.855
10115POPC   GL158213  34.586  31.485   6.155
10115POPC   GL258214  34.587  31.606   6.155
10115POPC   C1A58215  34.559  31.448   6.455
10115POPC   D2A58216  34.575  31.463   6.755
10115POPC   C3A58217  34.552  31.473   7.055
10115POPC   C4A58218  34.564  31.447   7.355
10115POPC   C1B58219  34.682  31.712   6.455
10115POPC   C2B58220  34.630  31.721   6.755
10115POPC   C3B58221  34.678  31.705   7.055
10115POPC   C4B58222  34.706  31.688   7.355
10116POPC   NC358223  10.501  35.322   5.555
10116POPC   PO458224  10.514  35.324   5.855
10116POPC   GL158225  10.520  35.366   6.155
10116POPC   GL258226  10.678  35.425   6.155
10116POPC   C1A58227  10.562  35.313   6.455
10116POPC   D2A58228  10.506  35.341   6.755
10116POPC   C3A58229  10.502  35.350   7.055
10116POPC   C4A58230  10.481  35.314   7.355
10116POPC   C1B58231  10.740  35.479   6.455
10116POPC   C2B58232  10.709  35.497   6.755
10116POPC   C3B58233  10.711  35.437   7.055
10116POPC   C4B58234  10.734  35.449   7.355
10117POPC   NC358235   9.759  36.946   5.555
10117POPC   PO458236   9.711  36.901   5.855
10117POPC   GL158237   9.715  36.886   6.155
10117POPC   GL258238   9.797  37.005   6.155
10117POPC   C1A58239   9.775  36.873   6.455
10117POPC   D2A58240   9.768  36.892   6.755
10117POPC   C3A58241   9.792  36.918   7.055
10117POPC   C4A58242   9.743  36.871   7.355
10117POPC   C1B58243   9.808  37.153   6.455
10117POPC   C2B58244   9.823  37.167   6.755
10117POPC   C3B58245   9.853  37.088   7.055
10117POPC   C4B58246   9.860  37.151   7.355
10118POPC   NC358247  31.497   2.719   5.555
10118POPC   PO458248  31.441   2.779   5.855
10118POPC   GL158249  31.441   2.804   6.155
10118POPC   GL258250  31.536   2.624   6.155
10118POPC   C1A58251  31.455   2.762   6.455
10118POPC   D2A58252  31.481   2.792   6.755
10118POPC   C3A58253  31.477   2.753   7.055
10118POPC   C4A58254  31.489   2.722   7.355
10118POPC   C1B58255  31.620   2.542   6.455
10118POPC   C2B58256  31.584   2.554   6.755
10118POPC   C3B58257  31.589   2.567   7.055
10118POPC   C4B58258  31.634   2.591   7.355
10119POPC   NC358259  16.688  36.086   5.555
10119POPC   PO458260  16.766  36.160   5.855
10119POPC   GL158261  16.686  36.107   6.155
10119POPC   GL258262  16.765  35.987   6.155
10119POPC   C1A58263  16.720  36.132   6.455
10119POPC   D2A58264  16.777  36.153   6.755
10119POPC   C3A58265  16.707  36.152   7.055
10119POPC   C4A58266  16.742  36.148   7.355
10119POPC   C1B58267  16.675  35.829   6.455
10119POPC   C2B58268  16.699  35.910   6.755
10119POPC   C3B58269  16.738  35.849   7.055
10119POPC   C4B58270  16.775  35.876   7.355
10120POPC   NC358271  14.397   0.410   5.555
10120POPC   PO458272  14.439   0.479   5.855
10120POPC   GL158273  14.401   0.418   6.155
10120POPC   GL258274  14.311   0.446   6.155
10120POPC   C1A58275  14.437   0.446   6.455
10120POPC   D2A58276  14.369   0.466   6.755
10120POPC   C3A58277  14.423   0.434   7.055
10120POPC   C4A58278  14.394   0.395   7.355
10120POPC   C1B58279  14.132   0.540   6.455
10120POPC   C2B58280  14.223   0.525   6.755
10120POPC   C3B58281  14.197   0.498   7.055
10120POPC   C4B58282  14.216   0.505   7.355
10121POPC   NC358283  13.647  17.461   5.555
10121POPC   PO458284  13.610  17.523   5.855
10121POPC   GL158285  13.638  17.550   6.155
10121POPC   GL258286  13.772  17.481   6.155
10121POPC   C1A58287  13.583  17.532   6.455
10121POPC   D2A58288  13.590  17.536   6.755
10121POPC   C3A58289  13.657  17.541   7.055
10121POPC   C4A58290  13.653  17.517   7.355
10121POPC   C1B58291  13.910  17.423   6.455
10121POPC   C2B58292  13.837  17.447   6.755
10121POPC   C3B58293  13.852  17.454   7.055
10121POPC   C4B58294  13.893  17.406   7.355
10122POPC   NC358295  14.418  29.105   5.555
10122POPC   PO458296  14.440  29.106   5.855
10122POPC   GL158297  14.420  29.152   6.155
10122POPC   GL258298  14.412  29.011   6.155
10122POPC   C1A58299  14.433  29.195   6.455
10122POPC   D2A58300  14.358  29.129   6.755
10122POPC   C3A58301  14.368  29.133   7.055
10122POPC   C4A58302  14.437  29.161   7.355
10122POPC   C1B58303  14.365  28.910   6.455
10122POPC   C2B58304  14.408  28.866   6.755
10122POPC   C3B58305  14.378  28.898   7.055
10122POPC   C4B58306  14.329  28.867   7.355
10123POPC   NC358307  21.361   1.206   5.555
10123POPC   PO458308  21.337   1.255   5.855
10123POPC   GL158309  21.367   1.212   6.155
10123POPC   GL258310  21.476   1.236   6.155
10123POPC   C1A58311  21.380   1.173   6.455
10123POPC   D2A58312  21.342   1.250   6.755
10123POPC   C3A58313  21.404   1.251   7.055
10123POPC   C4A58314  21.377   1.236   7.355
10123POPC   C1B58315  21.613   1.333   6.455
10123POPC   C2B58316  21.602   1.347   6.755
10123POPC   C3B58317  21.647   1.335   7.055
10123POPC   C4B58318  21.662   1.319   7.355
10124POPC   NC358319   3.495  29.103   5.555
10124POPC   PO458320   3.567  29.129   5.855
10124POPC   GL158321   3.528  29.145   6.155
10124POPC   GL258322   3.655  29.165   6.155
10124POPC   C1A58323   3.516  29.185   6.455
10124POPC   D2A58324   3.549  29.193   6.755
10124POPC   C3A58325   3.505  29.098   7.055
10124POPC   C4A58326   3.495  29.117   7.355
10124POPC   C1B58327   3.791  29.180   6.455
10124POPC   C2B58328   3.765  29.135   6.755
10124POPC   C3B58329   3.740  29.216   7.055
10124POPC   C4B58330   3.759  29.190   7.355
10125POPC   NC358331  13.667  31.471   5.555
10125POPC   PO458332  13.655  31.455   5.855
10125POPC   GL158333  13.636  31.434   6.155
10125POPC   GL258334  13.514  31.513   6.155
10125POPC   C1A58335  13.632  31.477   6.455
10125POPC   D2A58336  13.618  31.482   6.755
10125POPC   C3A58337  13.647  31.444   7.055
10125POPC   C4A58338  13.649  31.498   7.355
10125POPC   C1B58339  13.386  31.541   6.455
10125POPC   C2B58340  13.422  31.545   6.755
10125POPC   C3B58341  13.417  31.588   7.055
10125POPC   C4B58342  13.408  31.531   7.355
10126POPC   NC358343  36.163  37.656   5.555
10126POPC   PO458344  36.151  37.686   5.855
10126POPC   GL158345  36.161  37.633   6.155
10126POPC   GL258346  36.148  37.553   6.155
10126POPC   C1A58347  36.157  37.631   6.455
10126POPC   D2A58348  36.151  37.645   6.755
10126POPC   C3A58349  36.126  37.652   7.055
10126POPC   C4A58350  36.109  37.683   7.355
10126POPC   C1B58351  36.201  37.470   6.455
10126POPC   C2B58352  36.163  37.447   6.755
10126POPC   C3B58353  36.211  37.399   7.055
10126POPC   C4B58354  36.170  37.481   7.355
10127POPC   NC358355  38.485  11.257   5.555
10127POPC   PO458356  38.453  11.291   5.855
10127POPC   GL158357  38.436  11.287   6.155
10127POPC   GL258358  38.555  11.370   6.155
10127POPC   C1A58359  38.476  11.266   6.455
10127POPC   D2A58360  38.420  11.313   6.755
10127POPC   C3A58361  38.456  11.298   7.055
10127POPC   C4A58362  38.456  11.251   7.355
10127POPC   C1B58363  38.608  11.490   6.455
10127POPC   C2B58364  38.670  11.507   6.755
10127POPC   C3B58365  38.645  11.499   7.055
10127POPC   C4B58366  38.617  11.492   7.355
10128POPC   NC358367  37.641   5.080   5.555
10128POPC   PO458368  37.645   5.096   5.855
10128POPC   GL158369  37.651   5.088   6.155
10128POPC   GL258370  37.731   5.189   6.155
10128POPC   C1A58371  37.703   5.110   6.455
10128POPC   D2A58372  37.722   5.072   6.755
10128POPC   C3A58373  37.728   5.131   7.055
10128POPC   C4A58374  37.648   5.109   7.355
10128POPC   C1B58375  37.888   5.289   6.455
10128POPC   C2B58376  37.904   5.262   6.755
10128POPC   C3B58377  37.846   5.237   7.055
10128POPC   C4B58378  37.838   5.255   7.355
10129POPC   NC358379  42.363   1.229   5.555
10129POPC   PO458380  42.299   1.168   5.855
10129POPC   GL158381  42.378   1.172   6.155
10129POPC   GL258382  42.347   1.317   6.155
10129POPC   C1A58383  42.315   1.207   6.455
10129POPC   D2A58384  42.320   1.248   6.755
10129POPC   C3A58385  42.302   1.203   7.055
10129POPC   C4A58386  42.299   1.193   7.355
10129POPC   C1B58387  42.330   1.458   6.455
10129POPC   C2B58388  42.348   1.419   6.755
10129POPC   C3B58389  42.386   1.434   7.055
10129POPC   C4B58390  42.406   1.506   7.355
10130POPC   NC358391   4.361  19.073   5.555
10130POPC   PO458392   4.310  19.018   5.855
10130POPC   GL158393   4.360  19.017   6.155
10130POPC   GL258394   4.454  18.946   6.155
10130POPC   C1A58395   4.300  19.013   6.455
10130POPC   D2A58396   4.340  19.052   6.755
10130POPC   C3A58397   4.334  19.103   7.055
10130POPC   C4A58398   4.362  19.034   7.355
10130POPC   C1B58399   4.506  18.873   6.455
10130POPC   C2B58400   4.498  18.875   6.755
10130POPC   C3B58401   4.571  18.909   7.055
10130POPC   C4B58402   4.481  18.949   7.355
10131POPC   NC358403  29.964   1.174   5.555
10131POPC   PO458404  29.881   1.207   5.855
10131POPC   GL158405  29.953   1.183   6.155
10131POPC   GL258406  29.783   1.186   6.155
10131POPC   C1A58407  29.914   1.249   6.455
10131POPC   D2A58408  29.969   1.198   6.755
10131POPC   C3A58409  29.910   1.251   7.055
10131POPC   C4A58410  29.874   1.201   7.355
10131POPC   C1B58411  29.683   1.115   6.455
10131POPC   C2B58412  29.641   1.161   6.755
10131POPC   C3B58413  29.632   1.196   7.055
10131POPC   C4B58414  29.634   1.191   7.355
10132POPC   NC358415  40.777   5.098   5.555
10132POPC   PO458416  40.823   5.068   5.855
10132POPC   GL158417  40.813   5.073   6.155
10132POPC   GL258418  40.822   5.025   6.155
10132POPC   C1A58419  40.743   5.130   6.455
10132POPC   D2A58420  40.826   5.119   6.755
10132POPC   C3A58421  40.745   5.116   7.055
10132POPC   C4A58422  40.798   5.127   7.355
10132POPC   C1B58423  40.861   4.844   6.455
10132POPC   C2B58424  40.908   4.864   6.755
10132POPC   C3B58425  40.875   4.855   7.055
10132POPC   C4B58426  40.916   4.909   7.355
10133POPC   NC358427  40.784  22.148   5.555
10133POPC   PO458428  40.750  22.171   5.855
10133POPC   GL158429  40.821  22.198   6.155
10133POPC   GL258430  40.686  22.296   6.155
10133POPC   C1A58431  40.767  22.119   6.455
10133POPC   D2A58432  40.777  22.209   6.755
10133POPC   C3A58433  40.745  22.121   7.055
10133POPC   C4A58434  40.832  22.146   7.355
10133POPC   C1B58435  40.672  22.402   6.455
10133POPC   C2B58436  40.686  22.349   6.755
10133POPC   C3B58437  40.633  22.380   7.055
10133POPC   C4B58438  40.685  22.333   7.355
10134POPC   NC358439  37.686  44.685   5.555
10134POPC   PO458440  37.647  44.643   5.855
10134POPC   GL158441  37.676  44.691   6.155
10134POPC   GL258442  37.555  44.594   6.155
10134POPC   C1A58443  37.692  44.639   6.455
10134POPC   D2A58444  37.644  44.698   6.755
10134POPC   C3A58445  37.680  44.623   7.055
10134POPC   C4A58446  37.720  44.614   7.355
10134POPC   C1B58447  37.424  44.551   6.455
10134POPC   C2B58448  37.409  44.563   6.755
10134POPC   C3B58449  37.449  44.591   7.055
10134POPC   C4B58450  37.414  44.568   7.355
10135POPC   NC358451   3.538  33.006   5.555
10135POPC   PO458452   3.517  33.069   5.855
10135POPC   GL158453   3.576  33.046   6.155
10135POPC   GL258454   3.668  33.081   6.155
10135POPC   C1A58455   3.504  33.006   6.455
10135POPC   D2A58456   3.565  32.980   6.755
10135POPC   C3A58457   3.513  33.064   7.055
10135POPC   C4A58458   3.520  33.064   7.355
10135POPC   C1B58459   3.711  33.215   6.455
10135POPC   C2B58460   3.729  33.177   6.755
10135POPC   C3B58461   3.781  33.126   7.055
10135POPC   C4B58462   3.791  33.127   7.355
10136POPC   NC358463  22.976  36.936   5.555
10136POPC   PO458464  22.960  36.897   5.855
10136POPC   GL158465  22.981  36.903   6.155
10136POPC   GL258466  22.933  37.022   6.155
10136POPC   C1A58467  22.915  36.907   6.455
10136POPC   D2A58468  22.943  36.908   6.755
10136POPC   C3A58469  22.950  36.872   7.055
10136POPC   C4A58470  22.919  36.948   7.355
10136POPC   C1B58471  22.884  37.196   6.455
10136POPC   C2B58472  22.957  37.172   6.755
10136POPC   C3B58473  22.904  37.145   7.055
10136POPC   C4B58474  22.929  37.136   7.355
10137POPC   NC358475   7.398  31.435   5.555
10137POPC   PO458476   7.461  31.454   5.855
10137POPC   GL158477   7.411  31.483   6.155
10137POPC   GL258478   7.360  31.616   6.155
10137POPC   C1A58479   7.457  31.494   6.455
10137POPC   D2A58480   7.446  31.433   6.755
10137POPC   C3A58481   7.414  31.495   7.055
10137POPC   C4A58482   7.449  31.430   7.355
10137POPC   C1B58483   7.324  31.714   6.455
10137POPC   C2B58484   7.334  31.727   6.755
10137POPC   C3B58485   7.262  31.674   7.055
10137POPC   C4B58486   7.309  31.654   7.355
10138POPC   NC358487  33.002  27.625   5.555
10138POPC   PO458488  33.053  27.624   5.855
10138POPC   GL158489  33.039  27.590   6.155
10138POPC   GL258490  33.034  27.483   6.155
10138POPC   C1A58491  33.037  27.563   6.455
10138POPC   D2A58492  32.993  27.589   6.755
10138POPC   C3A58493  32.985  27.631   7.055
10138POPC   C4A58494  33.054  27.570   7.355
10138POPC   C1B58495  33.106  27.402   6.455
10138POPC   C2B58496  33.115  27.380   6.755
10138POPC   C3B58497  33.147  27.354   7.055
10138POPC   C4B58498  33.128  27.396   7.355
10139POPC   NC358499  40.736  44.634   5.555
10139POPC   PO458500  40.746  44.654   5.855
10139POPC   GL158501  40.744  44.614   6.155
10139POPC   GL258502  40.727  44.771   6.155
10139POPC   C1A58503  40.777  44.679   6.455
10139POPC   D2A58504  40.795  44.679   6.755
10139POPC   C3A58505  40.759  44.711   7.055
10139POPC   C4A58506  40.755  44.670   7.355
10139POPC   C1B58507  40.569  44.804   6.455
10139POPC   C2B58508  40.578  44.754   6.755
10139POPC   C3B58509  40.552  44.780   7.055
10139POPC   C4B58510  40.625  44.838   7.355
10140POPC   NC358511  24.537   2.741   5.555
10140POPC   PO458512  24.450   2.806   5.855
10140POPC   GL158513  24.444   2.745   6.155
10140POPC   GL258514  24.501   2.631   6.155
10140POPC   C1A58515  24.521   2.815   6.455
10140POPC   D2A58516  24.443   2.745   6.755
10140POPC   C3A58517  24.472   2.760   7.055
10140POPC   C4A58518  24.465   2.718   7.355
10140POPC   C1B58519  24.625   2.578   6.455
10140POPC   C2B58520  24.534   2.506   6.755
10140POPC   C3B58521  24.608   2.489   7.055
10140POPC   C4B58522  24.577   2.524   7.355
10141POPC   NC358523  39.266  22.951   5.555
10141POPC   PO458524  39.181  22.936   5.855
10141POPC   GL158525  39.222  22.952   6.155
10141POPC   GL258526  39.164  23.071   6.155
10141POPC   C1A58527  39.254  22.944   6.455
10141POPC   D2A58528  39.249  22.924   6.755
10141POPC   C3A58529  39.222  22.911   7.055
10141POPC   C4A58530  39.212  22.909   7.355
10141POPC   C1B58531  39.179  23.181   6.455
10141POPC   C2B58532  39.164  23.150   6.755
10141POPC   C3B58533  39.141  23.167   7.055
10141POPC   C4B58534  39.137  23.200   7.355
10142POPC   NC358535  26.048  39.198   5.555
10142POPC   PO458536  25.998  39.221   5.855
10142POPC   GL158537  25.997  39.217   6.155
10142POPC   GL258538  26.172  39.243   6.155
10142POPC   C1A58539  26.056  39.281   6.455
10142POPC   D2A58540  25.992  39.200   6.755
10142POPC   C3A58541  26.002  39.272   7.055
10142POPC   C4A58542  26.013  39.252   7.355
10142POPC   C1B58543  26.256  39.382   6.455
10142POPC   C2B58544  26.274  39.353   6.755
10142POPC   C3B58545  26.266  39.342   7.055
10142POPC   C4B58546  26.257  39.385   7.355
10143POPC   NC358547  39.960   6.602   5.555
10143POPC   PO458548  40.046   6.668   5.855
10143POPC   GL158549  39.973   6.642   6.155
10143POPC   GL258550  39.880   6.604   6.155
10143POPC   C1A58551  39.996   6.609   6.455
10143POPC   D2A58552  40.002   6.674   6.755
10143POPC   C3A58553  39.971   6.652   7.055
10143POPC   C4A58554  39.987   6.612   7.355
10143POPC   C1B58555  39.778   6.571   6.455
10143POPC   C2B58556  39.760   6.566   6.755
10143POPC   C3B58557  39.740   6.564   7.055
10143POPC   C4B58558  39.781   6.577   7.355
10144POPC   NC358559  29.940  42.301   5.555
10144POPC   PO458560  29.937  42.367   5.855
10144POPC   GL158561  29.888  42.307   6.155
10144POPC   GL258562  29.958  42.252   6.155
10144POPC   C1A58563  29.874  42.324   6.455
10144POPC   D2A58564  29.960  42.310   6.755
10144POPC   C3A58565  29.930  42.314   7.055
10144POPC   C4A58566  29.925  42.297   7.355
10144POPC   C1B58567  30.094  42.159   6.455
10144POPC   C2B58568  30.028  42.088   6.755
10144POPC   C3B58569  30.096  42.109   7.055
10144POPC   C4B58570  30.092  42.148   7.355
10145POPC   NC358571  41.510   9.739   5.555
10145POPC   PO458572  41.578   9.701   5.855
10145POPC   GL158573  41.602   9.746   6.155
10145POPC   GL258574  41.584   9.590   6.155
10145POPC   C1A58575  41.574   9.791   6.455
10145POPC   D2A58576  41.519   9.739   6.755
10145POPC   C3A58577  41.562   9.755   7.055
10145POPC   C4A58578  41.586   9.787   7.355
10145POPC   C1B58579  41.612   9.489   6.455
10145POPC   C2B58580  41.576   9.455   6.755
10145POPC   C3B58581  41.584   9.466   7.055
10145POPC   C4B58582  41.558   9.512   7.355
10146POPC   NC358583  40.827  17.513   5.555
10146POPC   PO458584  40.772  17.487   5.855
10146POPC   GL158585  40.797  17.542   6.155
10146POPC   GL258586  40.840  17.540   6.155
10146POPC   C1A58587  40.784  17.540   6.455
10146POPC   D2A58588  40.750  17.482   6.755
10146POPC   C3A58589  40.788  17.536   7.055
10146POPC   C4A58590  40.819  17.462   7.355
10146POPC   C1B58591  40.946  17.623   6.455
10146POPC   C2B58592  41.019  17.629   6.755
10146POPC   C3B58593  41.019  17.713   7.055
10146POPC   C4B58594  41.003  17.634   7.355
10147POPC   NC358595  22.904   1.957   5.555
10147POPC   PO458596  22.935   2.031   5.855
10147POPC   GL158597  22.908   1.996   6.155
10147POPC   GL258598  23.055   1.919   6.155
10147POPC   C1A58599  22.930   2.021   6.455
10147POPC   D2A58600  22.896   2.023   6.755
10147POPC   C3A58601  22.983   2.020   7.055
10147POPC   C4A58602  22.957   1.992   7.355
10147POPC   C1B58603  23.180   1.891   6.455
10147POPC   C2B58604  23.185   1.823   6.755
10147POPC   C3B58605  23.162   1.834   7.055
10147POPC   C4B58606  23.156   1.814   7.355
10148POPC   NC358607   1.997  33.002   5.555
10148POPC   PO458608   1.990  33.008   5.855
10148POPC   GL158609   2.012  32.997   6.155
10148POPC   GL258610   2.158  33.025   6.155
10148POPC   C1A58611   1.970  32.981   6.455
10148POPC   D2A58612   1.961  33.042   6.755
10148POPC   C3A58613   2.031  33.023   7.055
10148POPC   C4A58614   1.941  33.074   7.355
10148POPC   C1B58615   2.264  32.997   6.455
10148POPC   C2B58616   2.200  33.004   6.755
10148POPC   C3B58617   2.257  32.942   7.055
10148POPC   C4B58618   2.267  32.986   7.355
10149POPC   NC358619  43.066  23.710   5.555
10149POPC   PO458620  43.148  23.756   5.855
10149POPC   GL158621  43.139  23.721   6.155
10149POPC   GL258622  43.117  23.867   6.155
10149POPC   C1A58623  43.116  23.729   6.455
10149POPC   D2A58624  43.139  23.758   6.755
10149POPC   C3A58625  43.096  23.688   7.055
10149POPC   C4A58626  43.098  23.665   7.355
10149POPC   C1B58627  43.189  24.004   6.455
10149POPC   C2B58628  43.181  23.965   6.755
10149POPC   C3B58629  43.221  23.987   7.055
10149POPC   C4B58630  43.212  23.992   7.355
10150POPC   NC358631   5.132  32.217   5.555
10150POPC   PO458632   5.062  32.212   5.855
10150POPC   GL158633   5.087  32.230   6.155
10150POPC   GL258634   5.205  32.277   6.155
10150POPC   C1A58635   5.119  32.211   6.455
10150POPC   D2A58636   5.067  32.260   6.755
10150POPC   C3A58637   5.092  32.261   7.055
10150POPC   C4A58638   5.133  32.203   7.355
10150POPC   C1B58639   5.278  32.349   6.455
10150POPC   C2B58640   5.314  32.354   6.755
10150POPC   C3B58641   5.301  32.381   7.055
10150POPC   C4B58642   5.367  32.353   7.355
10151POPC   NC358643  26.048   4.289   5.555
10151POPC   PO458644  26.062   4.276   5.855
10151POPC   GL158645  26.064   4.329   6.155
10151POPC   GL258646  26.043   4.228   6.155
10151POPC   C1A58647  26.045   4.298   6.455
10151POPC   D2A58648  26.012   4.297   6.755
10151POPC   C3A58649  25.994   4.336   7.055
10151POPC   C4A58650  26.006   4.288   7.355
10151POPC   C1B58651  26.156   4.085   6.455
10151POPC   C2B58652  26.089   4.054   6.755
10151POPC   C3B58653  26.072   4.124   7.055
10151POPC   C4B58654  26.118   4.128   7.355
10152POPC   NC358655  12.124  24.484   5.555
10152POPC   PO458656  12.089  24.446   5.855
10152POPC   GL158657  12.071  24.491   6.155
10152POPC   GL258658  12.163  24.517   6.155
10152POPC   C1A58659  12.115  24.532   6.455
10152POPC   D2A58660  12.088  24.488   6.755
10152POPC   C3A58661  12.094  24.530   7.055
10152POPC   C4A58662  12.056  24.536   7.355
10152POPC   C1B58663  12.291  24.430   6.455
10152POPC   C2B58664  12.280  24.470   6.755
10152POPC   C3B58665  12.374  24.441   7.055
10152POPC   C4B58666  12.359  24.495   7.355
10153POPC   NC358667  12.107   8.197   5.555
10153POPC   PO458668  12.037   8.230   5.855
10153POPC   GL158669  12.058   8.221   6.155
10153POPC   GL258670  12.003   8.118   6.155
10153POPC   C1A58671  12.035   8.148   6.455
10153POPC   D2A58672  12.084   8.212   6.755
10153POPC   C3A58673  12.041   8.166   7.055
10153POPC   C4A58674  12.052   8.200   7.355
10153POPC   C1B58675  11.827   8.075   6.455
10153POPC   C2B58676  11.844   8.072   6.755
10153POPC   C3B58677  11.852   8.104   7.055
10153POPC   C4B58678  11.862   8.097   7.355
10154POPC   NC358679  19.819   7.461   5.555
10154POPC   PO458680  19.873   7.452   5.855
10154POPC   GL158681  19.836   7.466   6.155
10154POPC   GL258682  19.768   7.327   6.155
10154POPC   C1A58683  19.825   7.452   6.455
10154POPC   D2A58684  19.798   7.411   6.755
10154POPC   C3A58685  19.849   7.438   7.055
10154POPC   C4A58686  19.788   7.423   7.355
10154POPC   C1B58687  19.646   7.254   6.455
10154POPC   C2B58688  19.684   7.236   6.755
10154POPC   C3B58689  19.672   7.178   7.055
10154POPC   C4B58690  19.731   7.262   7.355
10155POPC   NC358691   9.758  36.105   5.555
10155POPC   PO458692   9.737  36.174   5.855
10155POPC   GL158693   9.764  36.153   6.155
10155POPC   GL258694   9.846  36.060   6.155
10155POPC   C1A58695   9.747  36.079   6.455
10155POPC   D2A58696   9.784  36.175   6.755
10155POPC   C3A58697   9.727  36.100   7.055
10155POPC   C4A58698   9.787  36.135   7.355
10155POPC   C1B58699  10.016  36.079   6.455
10155POPC   C2B58700  10.006  36.101   6.755
10155POPC   C3B58701  10.009  36.061   7.055
10155POPC   C4B58702   9.969  36.049   7.355
10156POPC   NC358703   5.866  19.870   5.555
10156POPC   PO458704   5.905  19.824   5.855
10156POPC   GL158705   5.901  19.873   6.155
10156POPC   GL258706   5.779  19.773   6.155
10156POPC   C1A58707   5.870  19.877   6.455
10156POPC   D2A58708   5.833  19.849   6.755
10156POPC   C3A58709   5.851  19.854   7.055
10156POPC   C4A58710   5.877  19.861   7.355
10156POPC   C1B58711   5.655  19.786   6.455
10156POPC   C2B58712   5.668  19.832   6.755
10156POPC   C3B58713   5.637  19.806   7.055
10156POPC   C4B58714   5.589  19.769   7.355
10157POPC   NC358715  25.246  21.367   5.555
10157POPC   PO458716  25.230  21.368   5.855
10157POPC   GL158717  25.299  21.426   6.155
10157POPC   GL258718  25.412  21.414   6.155
10157POPC   C1A58719  25.285  21.420   6.455
10157POPC   D2A58720  25.272  21.347   6.755
10157POPC   C3A58721  25.228  21.433   7.055
10157POPC   C4A58722  25.225  21.343   7.355
10157POPC   C1B58723  25.527  21.314   6.455
10157POPC   C2B58724  25.541  21.344   6.755
10157POPC   C3B58725  25.541  21.333   7.055
10157POPC   C4B58726  25.550  21.324   7.355
10158POPC   NC358727   8.949  36.170   5.555
10158POPC   PO458728   8.969  36.129   5.855
10158POPC   GL158729   8.945  36.165   6.155
10158POPC   GL258730   8.876  36.226   6.155
10158POPC   C1A58731   8.992  36.138   6.455
10158POPC   D2A58732   8.980  36.135   6.755
10158POPC   C3A58733   8.964  36.133   7.055
10158POPC   C4A58734   9.001  36.130   7.355
10158POPC   C1B58735   8.871  36.375   6.455
10158POPC   C2B58736   8.872  36.304   6.755
10158POPC   C3B58737   8.817  36.332   7.055
10158POPC   C4B58738   8.830  36.350   7.355
10159POPC   NC358739   2.717  40.755   5.555
10159POPC   PO458740   2.811  40.734   5.855
10159POPC   GL158741   2.799  40.804   6.155
10159POPC   GL258742   2.769  40.684   6.155
10159POPC   C1A58743   2.773  40.781   6.455
10159POPC   D2A58744   2.774  40.761   6.755
10159POPC   C3A58745   2.733  40.757   7.055
10159POPC   C4A58746   2.768  40.760   7.355
10159POPC   C1B58747   2.685  40.549   6.455
10159POPC   C2B58748   2.704  40.552   6.755
10159POPC   C3B58749   2.728  40.528   7.055
10159POPC   C4B58750   2.719  40.540   7.355
10160POPC   NC358751   6.654  36.911   5.555
10160POPC   PO458752   6.620  36.861   5.855
10160POPC   GL158753   6.658  36.891   6.155
10160POPC   GL258754   6.705  36.841   6.155
10160POPC   C1A58755   6.656  36.912   6.455
10160POPC   D2A58756   6.641  36.862   6.755
10160POPC   C3A58757   6.683  36.945   7.055
10160POPC   C4A58758   6.674  36.914   7.355
10160POPC   C1B58759   6.735  36.660   6.455
10160POPC   C2B58760   6.776  36.652   6.755
10160POPC   C3B58761   6.761  36.733   7.055
10160POPC   C4B58762   6.720  36.720   7.355
10161POPC   NC358763   8.163  36.917   5.555
10161POPC   PO458764   8.228  36.935   5.855
10161POPC   GL158765   8.232  36.908   6.155
10161POPC   GL258766   8.055  36.880   6.155
10161POPC   C1A58767   8.238  36.860   6.455
10161POPC   D2A58768   8.182  36.925   6.755
10161POPC   C3A58769   8.208  36.910   7.055
10161POPC   C4A58770   8.229  36.953   7.355
10161POPC   C1B58771   7.984  36.841   6.455
10161POPC   C2B58772   8.014  36.813   6.755
10161POPC   C3B58773   7.952  36.786   7.055
10161POPC   C4B58774   7.959  36.832   7.355
10162POPC   NC358775  37.688  23.715   5.555
10162POPC   PO458776  37.690  23.702   5.855
10162POPC   GL158777  37.721  23.696   6.155
10162POPC   GL258778  37.626  23.588   6.155
10162POPC   C1A58779  37.706  23.672   6.455
10162POPC   D2A58780  37.631  23.741   6.755
10162POPC   C3A58781  37.649  23.719   7.055
10162POPC   C4A58782  37.722  23.737   7.355
10162POPC   C1B58783  37.710  23.512   6.455
10162POPC   C2B58784  37.652  23.471   6.755
10162POPC   C3B58785  37.664  23.471   7.055
10162POPC   C4B58786  37.714  23.497   7.355
10163POPC   NC358787  19.073  35.374   5.555
10163POPC   PO458788  19.095  35.347   5.855
10163POPC   GL158789  19.019  35.307   6.155
10163POPC   GL258790  19.079  35.278   6.155
10163POPC   C1A58791  19.014  35.304   6.455
10163POPC   D2A58792  19.100  35.377   6.755
10163POPC   C3A58793  19.055  35.349   7.055
10163POPC   C4A58794  19.099  35.342   7.355
10163POPC   C1B58795  19.193  35.142   6.455
10163POPC   C2B58796  19.146  35.101   6.755
10163POPC   C3B58797  19.159  35.128   7.055
10163POPC   C4B58798  19.103  35.128   7.355
10164POPC   NC358799  36.919  22.129   5.555
10164POPC   PO458800  36.922  22.203   5.855
10164POPC   GL158801  36.936  22.138   6.155
10164POPC   GL258802  36.851  22.074   6.155
10164POPC   C1A58803  36.932  22.118   6.455
10164POPC   D2A58804  36.869  22.146   6.755
10164POPC   C3A58805  36.881  22.171   7.055
10164POPC   C4A58806  36.896  22.198   7.355
10164POPC   C1B58807  36.678  21.987   6.455
10164POPC   C2B58808  36.751  22.029   6.755
10164POPC   C3B58809  36.712  22.029   7.055
10164POPC   C4B58810  36.691  22.004   7.355
10165POPC   NC358811  10.547   5.899   5.555
10165POPC   PO458812  10.486   5.909   5.855
10165POPC   GL158813  10.482   5.836   6.155
10165POPC   GL258814  10.383   5.834   6.155
10165POPC   C1A58815  10.517   5.822   6.455
10165POPC   D2A58816  10.551   5.893   6.755
10165POPC   C3A58817  10.508   5.902   7.055
10165POPC   C4A58818  10.487   5.844   7.355
10165POPC   C1B58819  10.356   5.741   6.455
10165POPC   C2B58820  10.275   5.754   6.755
10165POPC   C3B58821  10.298   5.774   7.055
10165POPC   C4B58822  10.285   5.724   7.355
10166POPC   NC358823   5.080  40.772   5.555
10166POPC   PO458824   5.073  40.762   5.855
10166POPC   GL158825   5.112  40.751   6.155
10166POPC   GL258826   5.188  40.716   6.155
10166POPC   C1A58827   5.132  40.819   6.455
10166POPC   D2A58828   5.068  40.740   6.755
10166POPC   C3A58829   5.090  40.814   7.055
10166POPC   C4A58830   5.084  40.770   7.355
10166POPC   C1B58831   5.171  40.511   6.455
10166POPC   C2B58832   5.230  40.554   6.755
10166POPC   C3B58833   5.210  40.524   7.055
10166POPC   C4B58834   5.213  40.549   7.355
10167POPC   NC358835  31.454  15.167   5.555
10167POPC   PO458836  31.505  15.144   5.855
10167POPC   GL158837  31.515  15.207   6.155
10167POPC   GL258838  31.566  15.234   6.155
10167POPC   C1A58839  31.509  15.158   6.455
10167POPC   D2A58840  31.469  15.138   6.755
10167POPC   C3A58841  31.505  15.174   7.055
10167POPC   C4A58842  31.488  15.192   7.355
10167POPC   C1B58843  31.713  15.286   6.455
10167POPC   C2B58844  31.639  15.306   6.755
10167POPC   C3B58845  31.685  15.296   7.055
10167POPC   C4B58846  31.660  15.344   7.355
10168POPC   NC358847  27.597  20.631   5.555
10168POPC   PO458848  27.577  20.636   5.855
10168POPC   GL158849  27.563  20.561   6.155
10168POPC   GL258850  27.708  20.573   6.155
10168POPC   C1A58851  27.550  20.564   6.455
10168POPC   D2A58852  27.598  20.569   6.755
10168POPC   C3A58853  27.580  20.655   7.055
10168POPC   C4A58854  27.562  20.591   7.355
10168POPC   C1B58855  27.725  20.392   6.455
10168POPC   C2B58856  27.777  20.407   6.755
10168POPC   C3B58857  27.796  20.484   7.055
10168POPC   C4B58858  27.792  20.434   7.355
10169POPC   NC358859  29.128  12.040   5.555
10169POPC   PO458860  29.098  12.100   5.855
10169POPC   GL158861  29.186  12.113   6.155
10169POPC   GL258862  29.045  12.082   6.155
10169POPC   C1A58863  29.175  12.045   6.455
10169POPC   D2A58864  29.110  12.066   6.755
10169POPC   C3A58865  29.153  12.116   7.055
10169POPC   C4A58866  29.120  12.092   7.355
10169POPC   C1B58867  28.871  12.141   6.455
10169POPC   C2B58868  28.863  12.203   6.755
10169POPC   C3B58869  28.926  12.125   7.055
10169POPC   C4B58870  28.922  12.213   7.355
10170POPC   NC358871  41.521  10.487   5.555
10170POPC   PO458872  41.608  10.528   5.855
10170POPC   GL158873  41.541  10.565   6.155
10170POPC   GL258874  41.721  10.471   6.155
10170POPC   C1A58875  41.568  10.486   6.455
10170POPC   D2A58876  41.552  10.540   6.755
10170POPC   C3A58877  41.588  10.536   7.055
10170POPC   C4A58878  41.531  10.555   7.355
10170POPC   C1B58879  41.768  10.394   6.455
10170POPC   C2B58880  41.760  10.445   6.755
10170POPC   C3B58881  41.787  10.474   7.055
10170POPC   C4B58882  41.813  10.450   7.355
10171POPC   NC358883  13.640  25.280   5.555
10171POPC   PO458884  13.583  25.309   5.855
10171POPC   GL158885  13.611  25.304   6.155
10171POPC   GL258886  13.701  25.115   6.155
10171POPC   C1A58887  13.673  25.312   6.455
10171POPC   D2A58888  13.623  25.246   6.755
10171POPC   C3A58889  13.603  25.246   7.055
10171POPC   C4A58890  13.635  25.265   7.355
10171POPC   C1B58891  13.702  25.093   6.455
10171POPC   C2B58892  13.762  25.041   6.755
10171POPC   C3B58893  13.752  25.072   7.055
10171POPC   C4B58894  13.698  25.020   7.355
10172POPC   NC358895   1.189  19.081   5.555
10172POPC   PO458896   1.166  19.040   5.855
10172POPC   GL158897   1.253  19.070   6.155
10172POPC   GL258898   1.234  18.914   6.155
10172POPC   C1A58899   1.176  19.102   6.455
10172POPC   D2A58900   1.188  19.058   6.755
10172POPC   C3A58901   1.213  19.023   7.055
10172POPC   C4A58902   1.203  19.085   7.355
10172POPC   C1B58903   1.299  18.789   6.455
10172POPC   C2B58904   1.293  18.843   6.755
10172POPC   C3B58905   1.345  18.798   7.055
10172POPC   C4B58906   1.365  18.853   7.355
10173POPC   NC358907  43.917  44.694   5.555
10173POPC   PO458908  43.855  44.616   5.855
10173POPC   GL158909  43.904  44.681   6.155
10173POPC   GL258910  43.783  44.568   6.155
10173POPC   C1A58911  43.891  44.637   6.455
10173POPC   D2A58912  43.906  44.616   6.755
10173POPC   C3A58913  43.907  44.624   7.055
10173POPC   C4A58914  43.856  44.698   7.355
10173POPC   C1B58915  43.733  44.437   6.455
10173POPC   C2B58916  43.716  44.461   6.755
10173POPC   C3B58917  43.777  44.506   7.055
10173POPC   C4B58918  43.704  44.460   7.355
10174POPC   NC358919  36.941  24.440   5.555
10174POPC   PO458920  36.909  24.531   5.855
10174POPC   GL158921  36.886  24.472   6.155
10174POPC   GL258922  36.989  24.564   6.155
10174POPC   C1A58923  36.900  24.514   6.455
10174POPC   D2A58924  36.900  24.443   6.755
10174POPC   C3A58925  36.914  24.444   7.055
10174POPC   C4A58926  36.886  24.453   7.355
10174POPC   C1B58927  37.038  24.705   6.455
10174POPC   C2B58928  37.046  24.720   6.755
10174POPC   C3B58929  37.036  24.652   7.055
10174POPC   C4B58930  37.043  24.728   7.355
10175POPC   NC358931  33.800  18.316   5.555
10175POPC   PO458932  33.764  18.307   5.855
10175POPC   GL158933  33.783  18.314   6.155
10175POPC   GL258934  33.780  18.170   6.155
10175POPC   C1A58935  33.770  18.246   6.455
10175POPC   D2A58936  33.792  18.277   6.755
10175POPC   C3A58937  33.788  18.318   7.055
10175POPC   C4A58938  33.798  18.280   7.355
10175POPC   C1B58939  33.859  17.991   6.455
10175POPC   C2B58940  33.896  18.030   6.755
10175POPC   C3B58941  33.879  18.040   7.055
10175POPC   C4B58942  33.858  18.080   7.355
10176POPC   NC358943  25.309  39.982   5.555
10176POPC   PO458944  25.305  39.995   5.855
10176POPC   GL158945  25.298  39.972   6.155
10176POPC   GL258946  25.377  39.917   6.155
10176POPC   C1A58947  25.251  40.036   6.455
10176POPC   D2A58948  25.272  40.056   6.755
10176POPC   C3A58949  25.254  40.009   7.055
10176POPC   C4A58950  25.248  39.985   7.355
10176POPC   C1B58951  25.480  39.927   6.455
10176POPC   C2B58952  25.544  39.889   6.755
10176POPC   C3B58953  25.543  39.900   7.055
10176POPC   C4B58954  25.503  39.906   7.355
10177POPC   NC358955  35.355  24.493   5.555
10177POPC   PO458956  35.369  24.512   5.855
10177POPC   GL158957  35.332  24.493   6.155
10177POPC   GL258958  35.327  24.318   6.155
10177POPC   C1A58959  35.387  24.536   6.455
10177POPC   D2A58960  35.324  24.457   6.755
10177POPC   C3A58961  35.332  24.519   7.055
10177POPC   C4A58962  35.384  24.529   7.355
10177POPC   C1B58963  35.348  24.248   6.455
10177POPC   C2B58964  35.401  24.210   6.755
10177POPC   C3B58965  35.350  24.207   7.055
10177POPC   C4B58966  35.386  24.197   7.355
10178POPC   NC358967   3.500  36.126   5.555
10178POPC   PO458968   3.510  36.124   5.855
10178POPC   GL158969   3.554  36.145   6.155
10178POPC   GL258970   3.623  36.043   6.155
10178POPC   C1A58971   3.507  36.085   6.455
10178POPC   D2A58972   3.527  36.098   6.755
10178POPC   C3A58973   3.497  36.158   7.055
10178POPC   C4A58974   3.492  36.147   7.355
10178POPC   C1B58975   3.735  35.948   6.455
10178POPC   C2B58976   3.772  36.001   6.755
10178POPC   C3B58977   3.773  36.023   7.055
10178POPC   C4B58978   3.707  35.951   7.355
10179POPC   NC358979  13.619  15.944   5.555
10179POPC   PO458980  13.604  15.917   5.855
10179POPC   GL158981  13.625  15.959   6.155
10179POPC   GL258982  13.692  16.055   6.155
10179POPC   C1A58983  13.617  15.974   6.455
10179POPC   D2A58984  13.668  15.908   6.755
10179POPC   C3A58985  13.581  15.948   7.055
10179POPC   C4A58986  13.619  15.928   7.355
10179POPC   C1B58987  13.718  16.159   6.455
10179POPC   C2B58988  13.676  16.180   6.755
10179POPC   C3B58989  13.715  16.210   7.055
10179POPC   C4B58990  13.702  16.240   7.355
10180POPC   NC358991  22.910  42.338   5.555
10180POPC   PO458992  22.922  42.317   5.855
10180POPC   GL158993  22.941  42.350   6.155
10180POPC   GL258994  22.814  42.445   6.155
10180POPC   C1A58995  22.889  42.291   6.455
10180POPC   D2A58996  22.981  42.371   6.755
10180POPC   C3A58997  22.918  42.312   7.055
10180POPC   C4A58998  22.938  42.353   7.355
10180POPC   C1B58999  22.774  42.503   6.455
10180POPC   C2B59000  22.795  42.479   6.755
10180POPC   C3B59001  22.730  42.505   7.055
10180POPC   C4B59002  22.791  42.484   7.355
10181POPC   NC359003  25.999  22.118   5.555
10181POPC   PO459004  26.032  22.199   5.855
10181POPC   GL159005  26.011  22.206   6.155
10181POPC   GL259006  26.022  22.087   6.155
10181POPC   C1A59007  26.060  22.168   6.455
10181POPC   D2A59008  26.080  22.127   6.755
10181POPC   C3A59009  26.076  22.163   7.055
10181POPC   C4A59010  26.052  22.186   7.355
10181POPC   C1B59011  26.109  21.884   6.455
10181POPC   C2B59012  26.034  21.928   6.755
10181POPC   C3B59013  26.051  21.879   7.055
10181POPC   C4B59014  26.060  21.876   7.355
10182POPC   NC359015  32.266  38.470   5.555
10182POPC   PO459016  32.265  38.438   5.855
10182POPC   GL159017  32.199  38.463   6.155
10182POPC   GL259018  32.290  38.519   6.155
10182POPC   C1A59019  32.226  38.446   6.455
10182POPC   D2A59020  32.266  38.482   6.755
10182POPC   C3A59021  32.207  38.412   7.055
10182POPC   C4A59022  32.267  38.460   7.355
10182POPC   C1B59023  32.467  38.633   6.455
10182POPC   C2B59024  32.435  38.605   6.755
10182POPC   C3B59025  32.430  38.671   7.055
10182POPC   C4B59026  32.419  38.598   7.355
10183POPC   NC359027  27.582  32.288   5.555
10183POPC   PO459028  27.579  32.246   5.855
10183POPC   GL159029  27.627  32.203   6.155
10183POPC   GL259030  27.633  32.352   6.155
10183POPC   C1A59031  27.639  32.282   6.455
10183POPC   D2A59032  27.562  32.273   6.755
10183POPC   C3A59033  27.575  32.254   7.055
10183POPC   C4A59034  27.621  32.282   7.355
10183POPC   C1B59035  27.536  32.471   6.455
10183POPC   C2B59036  27.565  32.476   6.755
10183POPC   C3B59037  27.589  32.541   7.055
10183POPC   C4B59038  27.616  32.512   7.355
10184POPC   NC359039  13.646  27.619   5.555
10184POPC   PO459040  13.604  27.567   5.855
10184POPC   GL159041  13.645  27.617   6.155
10184POPC   GL259042  13.604  27.523   6.155
10184POPC   C1A59043  13.641  27.626   6.455
10184POPC   D2A59044  13.665  27.589   6.755
10184POPC   C3A59045  13.592  27.599   7.055
10184POPC   C4A59046  13.594  27.622   7.355
10184POPC   C1B59047  13.514  27.413   6.455
10184POPC   C2B59048  13.523  27.409   6.755
10184POPC   C3B59049  13.531  27.319   7.055
10184POPC   C4B59050  13.520  27.323   7.355
10185POPC   NC359051  11.267  31.442   5.555
10185POPC   PO459052  11.255  31.485   5.855
10185POPC   GL159053  11.332  31.492   6.155
10185POPC   GL259054  11.154  31.501   6.155
10185POPC   C1A59055  11.280  31.428   6.455
10185POPC   D2A59056  11.321  31.483   6.755
10185POPC   C3A59057  11.264  31.479   7.055
10185POPC   C4A59058  11.296  31.431   7.355
10185POPC   C1B59059  11.078  31.529   6.455
10185POPC   C2B59060  11.036  31.577   6.755
10185POPC   C3B59061  11.019  31.509   7.055
10185POPC   C4B59062  11.042  31.551   7.355
10186POPC   NC359063   8.158  26.825   5.555
10186POPC   PO459064   8.231  26.809   5.855
10186POPC   GL159065   8.175  26.821   6.155
10186POPC   GL259066   8.252  26.660   6.155
10186POPC   C1A59067   8.215  26.801   6.455
10186POPC   D2A59068   8.232  26.772   6.755
10186POPC   C3A59069   8.189  26.836   7.055
10186POPC   C4A59070   8.171  26.819   7.355
10186POPC   C1B59071   8.289  26.593   6.455
10186POPC   C2B59072   8.335  26.580   6.755
10186POPC   C3B59073   8.281  26.554   7.055
10186POPC   C4B59074   8.263  26.575   7.355
10187POPC   NC359075   2.720  41.523   5.555
10187POPC   PO459076   2.770  41.548   5.855
10187POPC   GL159077   2.742  41.604   6.155
10187POPC   GL259078   2.842  41.511   6.155
10187POPC   C1A59079   2.726  41.544   6.455
10187POPC   D2A59080   2.810  41.529   6.755
10187POPC   C3A59081   2.801  41.516   7.055
10187POPC   C4A59082   2.772  41.538   7.355
10187POPC   C1B59083   3.007  41.456   6.455
10187POPC   C2B59084   3.011  41.448   6.755
10187POPC   C3B59085   3.045  41.442   7.055
10187POPC   C4B59086   2.982  41.517   7.355
10188POPC   NC359087  36.172   4.284   5.555
10188POPC   PO459088  36.112   4.303   5.855
10188POPC   GL159089  36.105   4.351   6.155
10188POPC   GL259090  36.196   4.197   6.155
10188POPC   C1A59091  36.146   4.279   6.455
10188POPC   D2A59092  36.157   4.323   6.755
10188POPC   C3A59093  36.094   4.293   7.055
10188POPC   C4A59094  36.147   4.272   7.355
10188POPC   C1B59095  36.254   4.107   6.455
10188POPC   C2B59096  36.311   4.107   6.755
10188POPC   C3B59097  36.318   4.144   7.055
10188POPC   C4B59098  36.254   4.094   7.355
10189POPC   NC359099  42.326  38.413   5.555
10189POPC   PO459100  42.322  38.447   5.855
10189POPC   GL159101  42.325  38.428   6.155
10189POPC   GL259102  42.277  38.303   6.155
10189POPC   C1A59103  42.299  38.435   6.455
10189POPC   D2A59104  42.302  38.463   6.755
10189POPC   C3A59105  42.375  38.408   7.055
10189POPC   C4A59106  42.348  38.494   7.355
10189POPC   C1B59107  42.330  38.221   6.455
10189POPC   C2B59108  42.243  38.203   6.755
10189POPC   C3B59109  42.330  38.242   7.055
10189POPC   C4B59110  42.311  38.215   7.355
10190POPC   NC359111   1.196  32.990   5.555
10190POPC   PO459112   1.208  32.980   5.855
10190POPC   GL159113   1.247  32.987   6.155
10190POPC   GL259114   1.354  33.009   6.155
10190POPC   C1A59115   1.212  32.995   6.455
10190POPC   D2A59116   1.204  32.991   6.755
10190POPC   C3A59117   1.211  33.037   7.055
10190POPC   C4A59118   1.244  33.000   7.355
10190POPC   C1B59119   1.452  32.961   6.455
10190POPC   C2B59120   1.444  33.030   6.755
10190POPC   C3B59121   1.494  32.960   7.055
10190POPC   C4B59122   1.472  33.036   7.355
10191POPC   NC359123  14.383  13.656   5.555
10191POPC   PO459124  14.420  13.609   5.855
10191POPC   GL159125  14.413  13.674   6.155
10191POPC   GL259126  14.320  13.712   6.155
10191POPC   C1A59127  14.416  13.635   6.455
10191POPC   D2A59128  14.431  13.599   6.755
10191POPC   C3A59129  14.416  13.675   7.055
10191POPC   C4A59130  14.439  13.654   7.355
10191POPC   C1B59131  14.250  13.782   6.455
10191POPC   C2B59132  14.172  13.754   6.755
10191POPC   C3B59133  14.214  13.760   7.055
10191POPC   C4B59134  14.218  13.839   7.355
10192POPC   NC359135   8.241  34.554   5.555
10192POPC   PO459136   8.160  34.548   5.855
10192POPC   GL159137   8.151  34.554   6.155
10192POPC   GL259138   8.119  34.736   6.155
10192POPC   C1A59139   8.164  34.620   6.455
10192POPC   D2A59140   8.189  34.526   6.755
10192POPC   C3A59141   8.216  34.603   7.055
10192POPC   C4A59142   8.162  34.606   7.355
10192POPC   C1B59143   8.122  34.840   6.455
10192POPC   C2B59144   8.087  34.766   6.755
10192POPC   C3B59145   8.138  34.795   7.055
10192POPC   C4B59146   8.112  34.818   7.355
10193POPC   NC359147   1.951  36.896   5.555
10193POPC   PO459148   1.958  36.901   5.855
10193POPC   GL159149   1.960  36.893   6.155
10193POPC   GL259150   2.070  36.789   6.155
10193POPC   C1A59151   1.967  36.932   6.455
10193POPC   D2A59152   2.016  36.889   6.755
10193POPC   C3A59153   2.017  36.900   7.055
10193POPC   C4A59154   1.998  36.860   7.355
10193POPC   C1B59155   2.211  36.733   6.455
10193POPC   C2B59156   2.192  36.715   6.755
10193POPC   C3B59157   2.200  36.712   7.055
10193POPC   C4B59158   2.163  36.715   7.355
10194POPC   NC359159   8.157   1.248   5.555
10194POPC   PO459160   8.180   1.193   5.855
10194POPC   GL159161   8.224   1.178   6.155
10194POPC   GL259162   8.245   1.328   6.155
10194POPC   C1A59163   8.154   1.250   6.455
10194POPC   D2A59164   8.179   1.172   6.755
10194POPC   C3A59165   8.219   1.185   7.055
10194POPC   C4A59166   8.181   1.168   7.355
10194POPC   C1B59167   8.349   1.419   6.455
10194POPC   C2B59168   8.348   1.401   6.755
10194POPC   C3B59169   8.361   1.427   7.055
10194POPC   C4B59170   8.325   1.457   7.355
10195POPC   NC359171  14.365   6.645   5.555
10195POPC   PO459172  14.375   6.628   5.855
10195POPC   GL159173  14.383   6.683   6.155
10195POPC   GL259174  14.327   6.672   6.155
10195POPC   C1A59175  14.428   6.660   6.455
10195POPC   D2A59176  14.429   6.641   6.755
10195POPC   C3A59177  14.384   6.659   7.055
10195POPC   C4A59178  14.413   6.638   7.355
10195POPC   C1B59179  14.132   6.782   6.455
10195POPC   C2B59180  14.208   6.749   6.755
10195POPC   C3B59181  14.139   6.754   7.055
10195POPC   C4B59182  14.180   6.756   7.355
10196POPC   NC359183   3.568  22.895   5.555
10196POPC   PO459184   3.497  22.944   5.855
10196POPC   GL159185   3.515  22.958   6.155
10196POPC   GL259186   3.574  23.089   6.155
10196POPC   C1A59187   3.576  22.971   6.455
10196POPC   D2A59188   3.502  22.944   6.755
10196POPC   C3A59189   3.580  22.981   7.055
10196POPC   C4A59190   3.578  22.962   7.355
10196POPC   C1B59191   3.673  23.141   6.455
10196POPC   C2B59192   3.649  23.186   6.755
10196POPC   C3B59193   3.598  23.141   7.055
10196POPC   C4B59194   3.602  23.178   7.355
10197POPC   NC359195  28.376  12.864   5.555
10197POPC   PO459196  28.392  12.820   5.855
10197POPC   GL159197  28.396  12.901   6.155
10197POPC   GL259198  28.271  12.940   6.155
10197POPC   C1A59199  28.352  12.844   6.455
10197POPC   D2A59200  28.365  12.893   6.755
10197POPC   C3A59201  28.349  12.900   7.055
10197POPC   C4A59202  28.380  12.884   7.355
10197POPC   C1B59203  28.137  12.969   6.455
10197POPC   C2B59204  28.113  12.992   6.755
10197POPC   C3B59205  28.147  13.000   7.055
10197POPC   C4B59206  28.186  12.932   7.355
10198POPC   NC359207  40.030   8.245   5.555
10198POPC   PO459208  40.040   8.165   5.855
10198POPC   GL159209  40.012   8.244   6.155
10198POPC   GL259210  40.027   8.276   6.155
10198POPC   C1A59211  40.030   8.230   6.455
10198POPC   D2A59212  39.957   8.243   6.755
10198POPC   C3A59213  39.985   8.165   7.055
10198POPC   C4A59214  39.989   8.231   7.355
10198POPC   C1B59215  40.035   8.440   6.455
10198POPC   C2B59216  39.993   8.471   6.755
10198POPC   C3B59217  40.005   8.411   7.055
10198POPC   C4B59218  40.012   8.412   7.355
10199POPC   NC359219  30.692  29.886   5.555
10199POPC   PO459220  30.651  29.921   5.855
10199POPC   GL159221  30.716  29.876   6.155
10199POPC   GL259222  30.617  29.843   6.155
10199POPC   C1A59223  30.671  29.938   6.455
10199POPC   D2A59224  30.706  29.942   6.755
10199POPC   C3A59225  30.741  29.948   7.055
10199POPC   C4A59226  30.717  29.919   7.355
10199POPC   C1B59227  30.617  29.713   6.455
10199POPC   C2B59228  30.575  29.651   6.755
10199POPC   C3B59229  30.627  29.706   7.055
10199POPC   C4B59230  30.640  29.643   7.355
10200POPC   NC359231   5.869  26.069   5.555
10200POPC   PO459232   5.825  26.077   5.855
10200POPC   GL159233   5.872  26.091   6.155
10200POPC   GL259234   5.749  26.134   6.155
10200POPC   C1A59235   5.831  26.005   6.455
10200POPC   D2A59236   5.891  26.039   6.755
10200POPC   C3A59237   5.918  26.067   7.055
10200POPC   C4A59238   5.853  26.073   7.355
10200POPC   C1B59239   5.626  26.203   6.455
10200POPC   C2B59240   5.679  26.157   6.755
10200POPC   C3B59241   5.628  26.193   7.055
10200POPC   C4B59242   5.640  26.210   7.355
10201POPC   NC359243  41.536  39.962   5.555
10201POPC   PO459244  41.578  39.977   5.855
10201POPC   GL159245  41.590  40.051   6.155
10201POPC   GL259246  41.656  40.088   6.155
10201POPC   C1A59247  41.578  40.040   6.455
10201POPC   D2A59248  41.545  40.039   6.755
10201POPC   C3A59249  41.598  40.029   7.055
10201POPC   C4A59250  41.583  39.964   7.355
10201POPC   C1B59251  41.711  40.199   6.455
10201POPC   C2B59252  41.696  40.213   6.755
10201POPC   C3B59253  41.711  40.255   7.055
10201POPC   C4B59254  41.635  40.241   7.355
10202POPC   NC359255  16.685  37.667   5.555
10202POPC   PO459256  16.699  37.687   5.855
10202POPC   GL159257  16.691  37.722   6.155
10202POPC   GL259258  16.761  37.810   6.155
10202POPC   C1A59259  16.716  37.694   6.455
10202POPC   D2A59260  16.696  37.724   6.755
10202POPC   C3A59261  16.710  37.718   7.055
10202POPC   C4A59262  16.682  37.722   7.355
10202POPC   C1B59263  16.907  37.903   6.455
10202POPC   C2B59264  16.890  37.900   6.755
10202POPC   C3B59265  16.840  37.871   7.055
10202POPC   C4B59266  16.863  37.890   7.355
10203POPC   NC359267   3.562   3.554   5.555
10203POPC   PO459268   3.507   3.566   5.855
10203POPC   GL159269   3.517   3.555   6.155
10203POPC   GL259270   3.668   3.649   6.155
10203POPC   C1A59271   3.542   3.517   6.455
10203POPC   D2A59272   3.590   3.573   6.755
10203POPC   C3A59273   3.525   3.492   7.055
10203POPC   C4A59274   3.572   3.532   7.355
10203POPC   C1B59275   3.753   3.638   6.455
10203POPC   C2B59276   3.784   3.697   6.755
10203POPC   C3B59277   3.717   3.668   7.055
10203POPC   C4B59278   3.719   3.703   7.355
10204POPC   NC359279  36.942  26.027   5.555
10204POPC   PO459280  36.942  26.044   5.855
10204POPC   GL159281  36.874  26.043   6.155
10204POPC   GL259282  36.936  25.944   6.155
10204POPC   C1A59283  36.873  25.992   6.455
10204POPC   D2A59284  36.869  26.021   6.755
10204POPC   C3A59285  36.919  26.072   7.055
10204POPC   C4A59286  36.941  26.058   7.355
10204POPC   C1B59287  36.907  25.758   6.455
10204POPC   C2B59288  36.944  25.828   6.755
10204POPC   C3B59289  36.938  25.752   7.055
10204POPC   C4B59290  36.981  25.841   7.355
10205POPC   NC359291   1.168  42.311   5.555
10205POPC   PO459292   1.205  42.361   5.855
10205POPC   GL159293   1.188  42.297   6.155
10205POPC   GL259294   1.124  42.221   6.155
10205POPC   C1A59295   1.180  42.305   6.455
10205POPC   D2A59296   1.233  42.370   6.755
10205POPC   C3A59297   1.230  42.328   7.055
10205POPC   C4A59298   1.238  42.380   7.355
10205POPC   C1B59299   0.967  42.194   6.455
10205POPC   C2B59300   1.039  42.192   6.755
10205POPC   C3B59301   1.045  42.195   7.055
10205POPC   C4B59302   1.036  42.230   7.355
10206POPC   NC359303  44.629  12.111   5.555
10206POPC   PO459304  44.699  12.051   5.855
10206POPC   GL159305  44.710  12.085   6.155
10206POPC   GL259306  44.785  11.984   6.155
10206POPC   C1A59307  44.625  12.121   6.455
10206POPC   D2A59308  44.636  12.088   6.755
10206POPC   C3A59309  44.690  12.038   7.055
10206POPC   C4A59310  44.703  12.039   7.355
10206POPC   C1B59311  44.797  11.862   6.455
10206POPC   C2B59312  44.802  11.892   6.755
10206POPC   C3B59313  44.811  11.914   7.055
10206POPC   C4B59314  44.780  11.840   7.355
10207POPC   NC359315  26.828  19.884   5.555
10207POPC   PO459316  26.786  19.848   5.855
10207POPC   GL159317  26.850  19.865   6.155
10207POPC   GL259318  26.769  19.747   6.155
10207POPC   C1A59319  26.788  19.873   6.455
10207POPC   D2A59320  26.846  19.830   6.755
10207POPC   C3A59321  26.850  19.846   7.055
10207POPC   C4A59322  26.803  19.786   7.355
10207POPC   C1B59323  26.766  19.630   6.455
10207POPC   C2B59324  26.841  19.569   6.755
10207POPC   C3B59325  26.768  19.603   7.055
10207POPC   C4B59326  26.803  19.609   7.355
10208POPC   NC359327  39.963  43.879   5.555
10208POPC   PO459328  39.961  43.926   5.855
10208POPC   GL159329  40.030  43.846   6.155
10208POPC   GL259330  40.075  44.009   6.155
10208POPC   C1A59331  40.015  43.893   6.455
10208POPC   D2A59332  39.965  43.849   6.755
10208POPC   C3A59333  40.014  43.887   7.055
10208POPC   C4A59334  40.043  43.906   7.355
10208POPC   C1B59335  40.130  44.111   6.455
10208POPC   C2B59336  40.153  44.068   6.755
10208POPC   C3B59337  40.203  44.097   7.055
10208POPC   C4B59338  40.160  44.036   7.355
10209POPC   NC359339  25.311  40.811   5.555
10209POPC   PO459340  25.312  40.768   5.855
10209POPC   GL159341  25.254  40.824   6.155
10209POPC   GL259342  25.358  40.893   6.155
10209POPC   C1A59343  25.306  40.770   6.455
10209POPC   D2A59344  25.288  40.794   6.755
10209POPC   C3A59345  25.228  40.815   7.055
10209POPC   C4A59346  25.241  40.777   7.355
10209POPC   C1B59347  25.482  40.907   6.455
10209POPC   C2B59348  25.446  40.945   6.755
10209POPC   C3B59349  25.426  40.928   7.055
10209POPC   C4B59350  25.432  40.962   7.355
10210POPC   NC359351  14.360   9.703   5.555
10210POPC   PO459352  14.369   9.762   5.855
10210POPC   GL159353  14.400   9.702   6.155
10210POPC   GL259354  14.268   9.803   6.155
10210POPC   C1A59355  14.370   9.746   6.455
10210POPC   D2A59356  14.400   9.706   6.755
10210POPC   C3A59357  14.355   9.792   7.055
10210POPC   C4A59358  14.449   9.724   7.355
10210POPC   C1B59359  14.203   9.869   6.455
10210POPC   C2B59360  14.193   9.910   6.755
10210POPC   C3B59361  14.191   9.845   7.055
10210POPC   C4B59362  14.226   9.864   7.355
10211POPC   NC359363  42.384  16.779   5.555
10211POPC   PO459364  42.324  16.772   5.855
10211POPC   GL159365  42.344  16.751   6.155
10211POPC   GL259366  42.177  16.778   6.155
10211POPC   C1A59367  42.378  16.733   6.455
10211POPC   D2A59368  42.317  16.723   6.755
10211POPC   C3A59369  42.379  16.716   7.055
10211POPC   C4A59370  42.295  16.729   7.355
10211POPC   C1B59371  42.120  16.816   6.455
10211POPC   C2B59372  42.103  16.802   6.755
10211POPC   C3B59373  42.070  16.820   7.055
10211POPC   C4B59374  42.053  16.738   7.355
10212POPC   NC359375   3.536  16.768   5.555
10212POPC   PO459376   3.567  16.714   5.855
10212POPC   GL159377   3.531  16.701   6.155
10212POPC   GL259378   3.453  16.709   6.155
10212POPC   C1A59379   3.585  16.695   6.455
10212POPC   D2A59380   3.564  16.748   6.755
10212POPC   C3A59381   3.585  16.703   7.055
10212POPC   C4A59382   3.558  16.689   7.355
10212POPC   C1B59383   3.290  16.672   6.455
10212POPC   C2B59384   3.287  16.666   6.755
10212POPC   C3B59385   3.292  16.683   7.055
10212POPC   C4B59386   3.272  16.639   7.355
10213POPC   NC359387  19.839  26.015   5.555
10213POPC   PO459388  19.801  25.995   5.855
10213POPC   GL159389  19.803  26.042   6.155
10213POPC   GL259390  19.793  26.170   6.155
10213POPC   C1A59391  19.816  26.084   6.455
10213POPC   D2A59392  19.815  26.059   6.755
10213POPC   C3A59393  19.869  25.993   7.055
10213POPC   C4A59394  19.884  26.071   7.355
10213POPC   C1B59395  19.790  26.264   6.455
10213POPC   C2B59396  19.750  26.285   6.755
10213POPC   C3B59397  19.726  26.319   7.055
10213POPC   C4B59398  19.713  26.280   7.355
10214POPC   NC359399  26.820  22.910   5.555
10214POPC   PO459400  26.863  22.894   5.855
10214POPC   GL159401  26.789  22.961   6.155
10214POPC   GL259402  26.801  23.076   6.155
10214POPC   C1A59403  26.818  22.918   6.455
10214POPC   D2A59404  26.842  22.934   6.755
10214POPC   C3A59405  26.798  22.913   7.055
10214POPC   C4A59406  26.834  22.913   7.355
10214POPC   C1B59407  26.797  23.187   6.455
10214POPC   C2B59408  26.862  23.140   6.755
10214POPC   C3B59409  26.820  23.141   7.055
10214POPC   C4B59410  26.852  23.236   7.355
10215POPC   NC359411   6.639  26.777   5.555
10215POPC   PO459412   6.599  26.811   5.855
10215POPC   GL159413   6.693  26.852   6.155
10215POPC   GL259414   6.727  26.834   6.155
10215POPC   C1A59415   6.622  26.836   6.455
10215POPC   D2A59416   6.679  26.770   6.755
10215POPC   C3A59417   6.632  26.822   7.055
10215POPC   C4A59418   6.626  26.850   7.355
10215POPC   C1B59419   6.896  26.770   6.455
10215POPC   C2B59420   6.844  26.782   6.755
10215POPC   C3B59421   6.919  26.731   7.055
10215POPC   C4B59422   6.902  26.771   7.355
10216POPC   NC359423   1.975  34.532   5.555
10216POPC   PO459424   2.011  34.547   5.855
10216POPC   GL159425   2.018  34.606   6.155
10216POPC   GL259426   2.013  34.677   6.155
10216POPC   C1A59427   1.969  34.602   6.455
10216POPC   D2A59428   2.024  34.578   6.755
10216POPC   C3A59429   2.038  34.617   7.055
10216POPC   C4A59430   2.000  34.601   7.355
10216POPC   C1B59431   2.102  34.760   6.455
10216POPC   C2B59432   2.091  34.845   6.755
10216POPC   C3B59433   2.050  34.764   7.055
10216POPC   C4B59434   2.056  34.856   7.355
10217POPC   NC359435  18.250  43.126   5.555
10217POPC   PO459436  18.316  43.082   5.855
10217POPC   GL159437  18.291  43.122   6.155
10217POPC   GL259438  18.237  43.257   6.155
10217POPC   C1A59439  18.257  43.136   6.455
10217POPC   D2A59440  18.280  43.151   6.755
10217POPC   C3A59441  18.307  43.069   7.055
10217POPC   C4A59442  18.324  43.114   7.355
10217POPC   C1B59443  18.138  43.342   6.455
10217POPC   C2B59444  18.181  43.341   6.755
10217POPC   C3B59445  18.096  43.349   7.055
10217POPC   C4B59446  18.125  43.361   7.355
10218POPC   NC359447   4.323  25.286   5.555
10218POPC   PO459448   4.291  25.254   5.855
10218POPC   GL159449   4.320  25.247   6.155
10218POPC   GL259450   4.211  25.226   6.155
10218POPC   C1A59451   4.336  25.278   6.455
10218POPC   D2A59452   4.268  25.216   6.755
10218POPC   C3A59453   4.354  25.231   7.055
10218POPC   C4A59454   4.338  25.310   7.355
10218POPC   C1B59455   4.062  25.228   6.455
10218POPC   C2B59456   4.071  25.228   6.755
10218POPC   C3B59457   4.072  25.256   7.055
10218POPC   C4B59458   4.110  25.240   7.355
10219POPC   NC359459  15.996  12.059   5.555
10219POPC   PO459460  15.960  12.071   5.855
10219POPC   GL159461  15.952  12.113   6.155
10219POPC   GL259462  15.967  11.920   6.155
10219POPC   C1A59463  15.950  12.061   6.455
10219POPC   D2A59464  15.907  12.098   6.755
10219POPC   C3A59465  15.983  12.040   7.055
10219POPC   C4A59466  15.961  12.040   7.355
10219POPC   C1B59467  16.009  11.888   6.455
10219POPC   C2B59468  16.024  11.840   6.755
10219POPC   C3B59469  16.054  11.808   7.055
10219POPC   C4B59470  16.016  11.830   7.355
10220POPC   NC359471  22.172   5.897   5.555
10220POPC   PO459472  22.194   5.855   5.855
10220POPC   GL159473  22.128   5.846   6.155
10220POPC   GL259474  22.071   5.770   6.155
10220POPC   C1A59475  22.150   5.854   6.455
10220POPC   D2A59476  22.197   5.888   6.755
10220POPC   C3A59477  22.170   5.863   7.055
10220POPC   C4A59478  22.147   5.913   7.355
10220POPC   C1B59479  21.970   5.744   6.455
10220POPC   C2B59480  21.988   5.758   6.755
10220POPC   C3B59481  21.944   5.763   7.055
10220POPC   C4B59482  21.980   5.735   7.355
10221POPC   NC359483  15.140  25.992   5.555
10221POPC   PO459484  15.187  25.998   5.855
10221POPC   GL159485  15.170  26.029   6.155
10221POPC   GL259486  15.241  26.203   6.155
10221POPC   C1A59487  15.157  26.015   6.455
10221POPC   D2A59488  15.214  26.054   6.755
10221POPC   C3A59489  15.220  26.053   7.055
10221POPC   C4A59490  15.177  26.012   7.355
10221POPC   C1B59491  15.228  26.250   6.455
10221POPC   C2B59492  15.272  26.285   6.755
10221POPC   C3B59493  15.196  26.260   7.055
10221POPC   C4B59494  15.214  26.322   7.355
10222POPC   NC359495  43.857  12.077   5.555
10222POPC   PO459496  43.871  12.110   5.855
10222POPC   GL159497  43.867  12.064   6.155
10222POPC   GL259498  43.779  12.090   6.155
10222POPC   C1A59499  43.915  12.034   6.455
10222POPC   D2A59500  43.912  12.091   6.755
10222POPC   C3A59501  43.883  12.115   7.055
10222POPC   C4A59502  43.925  12.036   7.355
10222POPC   C1B59503  43.645  12.063   6.455
10222POPC   C2B59504  43.595  12.124   6.755
10222POPC   C3B59505  43.619  12.104   7.055
10222POPC   C4B59506  43.593  12.101   7.355
10223POPC   NC359507  25.294  41.568   5.555
10223POPC   PO459508  25.240  41.552   5.855
10223POPC   GL159509  25.294  41.541   6.155
10223POPC   GL259510  25.140  41.537   6.155
10223POPC   C1A59511  25.222  41.536   6.455
10223POPC   D2A59512  25.228  41.519   6.755
10223POPC   C3A59513  25.268  41.577   7.055
10223POPC   C4A59514  25.253  41.571   7.355
10223POPC   C1B59515  25.054  41.549   6.455
10223POPC   C2B59516  25.050  41.575   6.755
10223POPC   C3B59517  25.046  41.620   7.055
10223POPC   C4B59518  25.035  41.567   7.355
10224POPC   NC359519  32.237  31.433   5.555
10224POPC   PO459520  32.203  31.451   5.855
10224POPC   GL159521  32.260  31.511   6.155
10224POPC   GL259522  32.344  31.367   6.155
10224POPC   C1A59523  32.286  31.453   6.455
10224POPC   D2A59524  32.259  31.434   6.755
10224POPC   C3A59525  32.290  31.475   7.055
10224POPC   C4A59526  32.230  31.510   7.355
10224POPC   C1B59527  32.457  31.279   6.455
10224POPC   C2B59528  32.460  31.337   6.755
10224POPC   C3B59529  32.429  31.286   7.055
10224POPC   C4B59530  32.453  31.313   7.355
10225POPC   NC359531  25.243  43.133   5.555
10225POPC   PO459532  25.277  43.083   5.855
10225POPC   GL159533  25.281  43.075   6.155
10225POPC   GL259534  25.273  43.184   6.155
10225POPC   C1A59535  25.255  43.074   6.455
10225POPC   D2A59536  25.236  43.099   6.755
10225POPC   C3A59537  25.304  43.104   7.055
10225POPC   C4A59538  25.269  43.068   7.355
10225POPC   C1B59539  25.367  43.384   6.455
10225POPC   C2B59540  25.385  43.365   6.755
10225POPC   C3B59541  25.350  43.316   7.055
10225POPC   C4B59542  25.343  43.373   7.355
10226POPC   NC359543  36.893  27.635   5.555
10226POPC   PO459544  36.917  27.580   5.855
10226POPC   GL159545  36.909  27.610   6.155
10226POPC   GL259546  37.001  27.586   6.155
10226POPC   C1A59547  36.922  27.583   6.455
10226POPC   D2A59548  36.890  27.626   6.755
10226POPC   C3A59549  36.951  27.548   7.055
10226POPC   C4A59550  36.896  27.631   7.355
10226POPC   C1B59551  37.169  27.541   6.455
10226POPC   C2B59552  37.113  27.540   6.755
10226POPC   C3B59553  37.159  27.482   7.055
10226POPC   C4B59554  37.182  27.537   7.355
10227POPC   NC359555  28.380  28.417   5.555
10227POPC   PO459556  28.372  28.373   5.855
10227POPC   GL159557  28.358  28.397   6.155
10227POPC   GL259558  28.456  28.469   6.155
10227POPC   C1A59559  28.323  28.399   6.455
10227POPC   D2A59560  28.406  28.396   6.755
10227POPC   C3A59561  28.377  28.372   7.055
10227POPC   C4A59562  28.407  28.326   7.355
10227POPC   C1B59563  28.562  28.521   6.455
10227POPC   C2B59564  28.539  28.520   6.755
10227POPC   C3B59565  28.487  28.575   7.055
10227POPC   C4B59566  28.503  28.554   7.355
10228POPC   NC359567   0.400   9.768   5.555
10228POPC   PO459568   0.448   9.728   5.855
10228POPC   GL159569   0.486   9.755   6.155
10228POPC   GL259570   0.518   9.793   6.155
10228POPC   C1A59571   0.393   9.782   6.455
10228POPC   D2A59572   0.401   9.745   6.755
10228POPC   C3A59573   0.464   9.781   7.055
10228POPC   C4A59574   0.397   9.793   7.355
10228POPC   C1B59575   0.650   9.850   6.455
10228POPC   C2B59576   0.630   9.849   6.755
10228POPC   C3B59577   0.645   9.907   7.055
10228POPC   C4B59578   0.691   9.876   7.355
10229POPC   NC359579  12.075  29.126   5.555
10229POPC   PO459580  12.105  29.141   5.855
10229POPC   GL159581  12.084  29.168   6.155
10229POPC   GL259582  12.099  29.245   6.155
10229POPC   C1A59583  12.083  29.126   6.455
10229POPC   D2A59584  12.076  29.190   6.755
10229POPC   C3A59585  12.069  29.095   7.055
10229POPC   C4A59586  12.087  29.150   7.355
10229POPC   C1B59587  12.151  29.372   6.455
10229POPC   C2B59588  12.184  29.351   6.755
10229POPC   C3B59589  12.195  29.346   7.055
10229POPC   C4B59590  12.180  29.402   7.355
10230POPC   NC359591  36.161  10.551   5.555
10230POPC   PO459592  36.105  10.489   5.855
10230POPC   GL159593  36.092  10.506   6.155
10230POPC   GL259594  36.173  10.597   6.155
10230POPC   C1A59595  36.145  10.514   6.455
10230POPC   D2A59596  36.128  10.481   6.755
10230POPC   C3A59597  36.086  10.515   7.055
10230POPC   C4A59598  36.090  10.497   7.355
10230POPC   C1B59599  36.168  10.741   6.455
10230POPC   C2B59600  36.228  10.726   6.755
10230POPC   C3B59601  36.177  10.793   7.055
10230POPC   C4B59602  36.241  10.756   7.355
10231POPC   NC359603  12.835  21.357   5.555
10231POPC   PO459604  12.856  21.346   5.855
10231POPC   GL159605  12.806  21.413   6.155
10231POPC   GL259606  12.997  21.391   6.155
10231POPC   C1A59607  12.887  21.380   6.455
10231POPC   D2A59608  12.885  21.392   6.755
10231POPC   C3A59609  12.809  21.364   7.055
10231POPC   C4A59610  12.888  21.348   7.355
10231POPC   C1B59611  13.115  21.311   6.455
10231POPC   C2B59612  13.093  21.374   6.755
10231POPC   C3B59613  13.099  21.297   7.055
10231POPC   C4B59614  13.142  21.320   7.355
10232POPC   NC359615  40.784   9.753   5.555
10232POPC   PO459616  40.759   9.739   5.855
10232POPC   GL159617  40.751   9.775   6.155
10232POPC   GL259618  40.840   9.673   6.155
10232POPC   C1A59619  40.782   9.716   6.455
10232POPC   D2A59620  40.767   9.789   6.755
10232POPC   C3A59621  40.788   9.793   7.055
10232POPC   C4A59622  40.757   9.751   7.355
10232POPC   C1B59623  40.985   9.615   6.455
10232POPC   C2B59624  40.965   9.578   6.755
10232POPC   C3B59625  41.010   9.598   7.055
10232POPC   C4B59626  40.993   9.612   7.355
10233POPC   NC359627  22.177  13.584   5.555
10233POPC   PO459628  22.201  13.628   5.855
10233POPC   GL159629  22.119  13.669   6.155
10233POPC   GL259630  22.205  13.496   6.155
10233POPC   C1A59631  22.151  13.665   6.455
10233POPC   D2A59632  22.184  13.614   6.755
10233POPC   C3A59633  22.162  13.622   7.055
10233POPC   C4A59634  22.212  13.601   7.355
10233POPC   C1B59635  22.298  13.425   6.455
10233POPC   C2B59636  22.307  13.466   6.755
10233POPC   C3B59637  22.273  13.391   7.055
10233POPC   C4B59638  22.267  13.438   7.355
10234POPC   NC359639  41.573  19.066   5.555
10234POPC   PO459640  41.600  19.061   5.855
10234POPC   GL159641  41.524  19.099   6.155
10234POPC   GL259642  41.595  18.919   6.155
10234POPC   C1A59643  41.558  19.040   6.455
10234POPC   D2A59644  41.524  19.107   6.755
10234POPC   C3A59645  41.554  19.092   7.055
10234POPC   C4A59646  41.563  19.025   7.355
10234POPC   C1B59647  41.554  18.768   6.455
10234POPC   C2B59648  41.546  18.837   6.755
10234POPC   C3B59649  41.562  18.847   7.055
10234POPC   C4B59650  41.582  18.795   7.355
10235POPC   NC359651  33.785  32.243   5.555
10235POPC   PO459652  33.788  32.213   5.855
10235POPC   GL159653  33.819  32.211   6.155
10235POPC   GL259654  33.767  32.087   6.155
10235POPC   C1A59655  33.814  32.296   6.455
10235POPC   D2A59656  33.789  32.235   6.755
10235POPC   C3A59657  33.801  32.281   7.055
10235POPC   C4A59658  33.824  32.252   7.355
10235POPC   C1B59659  33.821  32.034   6.455
10235POPC   C2B59660  33.806  32.023   6.755
10235POPC   C3B59661  33.806  31.954   7.055
10235POPC   C4B59662  33.750  32.020   7.355
10236POPC   NC359663  25.306  32.254   5.555
10236POPC   PO459664  25.229  32.229   5.855
10236POPC   GL159665  25.279  32.288   6.155
10236POPC   GL259666  25.181  32.339   6.155
10236POPC   C1A59667  25.305  32.228   6.455
10236POPC   D2A59668  25.253  32.263   6.755
10236POPC   C3A59669  25.230  32.283   7.055
10236POPC   C4A59670  25.303  32.266   7.355
10236POPC   C1B59671  25.201  32.440   6.455
10236POPC   C2B59672  25.132  32.507   6.755
10236POPC   C3B59673  25.177  32.516   7.055
10236POPC   C4B59674  25.216  32.500   7.355
10237POPC   NC359675  12.101  21.402   5.555
10237POPC   PO459676  12.045  21.362   5.855
10237POPC   GL159677  12.040  21.408   6.155
10237POPC   GL259678  11.959  21.352   6.155
10237POPC   C1A59679  12.072  21.373   6.455
10237POPC   D2A59680  12.091  21.407   6.755
10237POPC   C3A59681  12.092  21.376   7.055
10237POPC   C4A59682  12.052  21.386   7.355
10237POPC   C1B59683  11.813  21.357   6.455
10237POPC   C2B59684  11.788  21.394   6.755
10237POPC   C3B59685  11.839  21.453   7.055
10237POPC   C4B59686  11.850  21.391   7.355
10238POPC   NC359687  40.735   0.397   5.555
10238POPC   PO459688  40.741   0.486   5.855
10238POPC   GL159689  40.745   0.476   6.155
10238POPC   GL259690  40.879   0.396   6.155
10238POPC   C1A59691  40.825   0.425   6.455
10238POPC   D2A59692  40.775   0.421   6.755
10238POPC   C3A59693  40.794   0.440   7.055
10238POPC   C4A59694  40.790   0.473   7.355
10238POPC   C1B59695  41.001   0.464   6.455
10238POPC   C2B59696  41.081   0.426   6.755
10238POPC   C3B59697  41.035   0.390   7.055
10238POPC   C4B59698  41.014   0.416   7.355
10239POPC   NC359699  28.372  40.013   5.555
10239POPC   PO459700  28.340  40.000   5.855
10239POPC   GL159701  28.377  40.049   6.155
10239POPC   GL259702  28.483  40.062   6.155
10239POPC   C1A59703  28.363  39.991   6.455
10239POPC   D2A59704  28.375  39.985   6.755
10239POPC   C3A59705  28.365  40.047   7.055
10239POPC   C4A59706  28.362  40.022   7.355
10239POPC   C1B59707  28.596  40.064   6.455
10239POPC   C2B59708  28.621  40.046   6.755
10239POPC   C3B59709  28.576  40.020   7.055
10239POPC   C4B59710  28.602  40.072   7.355
10240POPC   NC359711   2.807  19.850   5.555
10240POPC   PO459712   2.815  19.826   5.855
10240POPC   GL159713   2.759  19.854   6.155
10240POPC   GL259714   2.721  19.688   6.155
10240POPC   C1A59715   2.726  19.870   6.455
10240POPC   D2A59716   2.804  19.839   6.755
10240POPC   C3A59717   2.812  19.816   7.055
10240POPC   C4A59718   2.723  19.849   7.355
10240POPC   C1B59719   2.676  19.649   6.455
10240POPC   C2B59720   2.608  19.672   6.755
10240POPC   C3B59721   2.630  19.579   7.055
10240POPC   C4B59722   2.640  19.638   7.355
10241POPC   NC359723  28.346   1.204   5.555
10241POPC   PO459724  28.326   1.164   5.855
10241POPC   GL159725  28.336   1.263   6.155
10241POPC   GL259726  28.510   1.097   6.155
10241POPC   C1A59727  28.403   1.188   6.455
10241POPC   D2A59728  28.417   1.207   6.755
10241POPC   C3A59729  28.398   1.206   7.055
10241POPC   C4A59730  28.406   1.217   7.355
10241POPC   C1B59731  28.588   1.052   6.455
10241POPC   C2B59732  28.530   1.084   6.755
10241POPC   C3B59733  28.542   1.075   7.055
10241POPC   C4B59734  28.568   1.031   7.355
10242POPC   NC359735  28.365  19.830   5.555
10242POPC   PO459736  28.393  19.853   5.855
10242POPC   GL159737  28.339  19.880   6.155
10242POPC   GL259738  28.259  19.897   6.155
10242POPC   C1A59739  28.359  19.844   6.455
10242POPC   D2A59740  28.408  19.838   6.755
10242POPC   C3A59741  28.328  19.879   7.055
10242POPC   C4A59742  28.415  19.864   7.355
10242POPC   C1B59743  28.141  19.948   6.455
10242POPC   C2B59744  28.175  19.971   6.755
10242POPC   C3B59745  28.115  19.985   7.055
10242POPC   C4B59746  28.158  19.962   7.355
10243POPC   NC359747  40.783  40.017   5.555
10243POPC   PO459748  40.813  40.024   5.855
10243POPC   GL159749  40.829  40.007   6.155
10243POPC   GL259750  40.775  39.909   6.155
10243POPC   C1A59751  40.809  40.024   6.455
10243POPC   D2A59752  40.752  39.965   6.755
10243POPC   C3A59753  40.821  40.049   7.055
10243POPC   C4A59754  40.811  40.027   7.355
10243POPC   C1B59755  40.815  39.813   6.455
10243POPC   C2B59756  40.825  39.786   6.755
10243POPC   C3B59757  40.820  39.812   7.055
10243POPC   C4B59758  40.894  39.796   7.355
10244POPC   NC359759  31.487  24.516   5.555
10244POPC   PO459760  31.475  24.520   5.855
10244POPC   GL159761  31.510  24.512   6.155
10244POPC   GL259762  31.392  24.404   6.155
10244POPC   C1A59763  31.519  24.462   6.455
10244POPC   D2A59764  31.442  24.463   6.755
10244POPC   C3A59765  31.459  24.501   7.055
10244POPC   C4A59766  31.481  24.502   7.355
10244POPC   C1B59767  31.305  24.323   6.455
10244POPC   C2B59768  31.380  24.240   6.755
10244POPC   C3B59769  31.341  24.287   7.055
10244POPC   C4B59770  31.372  24.312   7.355
10245POPC   NC359771  23.710  31.472   5.555
10245POPC   PO459772  23.738  31.498   5.855
10245POPC   GL159773  23.671  31.463   6.155
10245POPC   GL259774  23.824  31.409   6.155
10245POPC   C1A59775  23.735  31.448   6.455
10245POPC   D2A59776  23.715  31.456   6.755
10245POPC   C3A59777  23.729  31.497   7.055
10245POPC   C4A59778  23.699  31.455   7.355
10245POPC   C1B59779  23.858  31.333   6.455
10245POPC   C2B59780  23.932  31.307   6.755
10245POPC   C3B59781  23.897  31.261   7.055
10245POPC   C4B59782  23.862  31.296   7.355
10246POPC   NC359783   2.025  19.855   5.555
10246POPC   PO459784   1.984  19.869   5.855
10246POPC   GL159785   2.007  19.790   6.155
10246POPC   GL259786   1.936  19.939   6.155
10246POPC   C1A59787   1.978  19.816   6.455
10246POPC   D2A59788   1.989  19.823   6.755
10246POPC   C3A59789   2.006  19.839   7.055
10246POPC   C4A59790   1.947  19.811   7.355
10246POPC   C1B59791   1.889  20.050   6.455
10246POPC   C2B59792   1.917  20.055   6.755
10246POPC   C3B59793   1.953  20.076   7.055
10246POPC   C4B59794   1.957  20.031   7.355
10247POPC   NC359795  29.154  28.348   5.555
10247POPC   PO459796  29.137  28.415   5.855
10247POPC   GL159797  29.141  28.328   6.155
10247POPC   GL259798  29.012  28.303   6.155
10247POPC   C1A59799  29.122  28.397   6.455
10247POPC   D2A59800  29.156  28.321   6.755
10247POPC   C3A59801  29.180  28.415   7.055
10247POPC   C4A59802  29.176  28.414   7.355
10247POPC   C1B59803  28.924  28.229   6.455
10247POPC   C2B59804  28.944  28.237   6.755
10247POPC   C3B59805  28.907  28.211   7.055
10247POPC   C4B59806  28.973  28.269   7.355
10248POPC   NC359807   1.942  37.701   5.555
10248POPC   PO459808   1.977  37.632   5.855
10248POPC   GL159809   2.010  37.724   6.155
10248POPC   GL259810   2.094  37.650   6.155
10248POPC   C1A59811   1.965  37.649   6.455
10248POPC   D2A59812   2.022  37.691   6.755
10248POPC   C3A59813   2.010  37.635   7.055
10248POPC   C4A59814   1.981  37.645   7.355
10248POPC   C1B59815   2.247  37.680   6.455
10248POPC   C2B59816   2.274  37.687   6.755
10248POPC   C3B59817   2.250  37.659   7.055
10248POPC   C4B59818   2.280  37.654   7.355
10249POPC   NC359819  21.389  40.054   5.555
10249POPC   PO459820  21.383  39.973   5.855
10249POPC   GL159821  21.346  40.016   6.155
10249POPC   GL259822  21.435  39.890   6.155
10249POPC   C1A59823  21.389  39.966   6.455
10249POPC   D2A59824  21.345  40.001   6.755
10249POPC   C3A59825  21.372  40.032   7.055
10249POPC   C4A59826  21.425  40.051   7.355
10249POPC   C1B59827  21.522  39.732   6.455
10249POPC   C2B59828  21.473  39.802   6.755
10249POPC   C3B59829  21.438  39.760   7.055
10249POPC   C4B59830  21.518  39.816   7.355
10250POPC   NC359831  43.919  29.945   5.555
10250POPC   PO459832  43.863  29.945   5.855
10250POPC   GL159833  43.860  29.895   6.155
10250POPC   GL259834  43.771  29.929   6.155
10250POPC   C1A59835  43.876  29.885   6.455
10250POPC   D2A59836  43.847  29.887   6.755
10250POPC   C3A59837  43.927  29.963   7.055
10250POPC   C4A59838  43.860  29.917   7.355
10250POPC   C1B59839  43.587  29.881   6.455
10250POPC   C2B59840  43.594  29.892   6.755
10250POPC   C3B59841  43.677  29.956   7.055
10250POPC   C4B59842  43.606  29.916   7.355
10251POPC   NC359843   6.612  13.580   5.555
10251POPC   PO459844   6.640  13.636   5.855
10251POPC   GL159845   6.663  13.661   6.155
10251POPC   GL259846   6.722  13.715   6.155
10251POPC   C1A59847   6.634  13.672   6.455
10251POPC   D2A59848   6.622  13.614   6.755
10251POPC   C3A59849   6.628  13.661   7.055
10251POPC   C4A59850   6.658  13.648   7.355
10251POPC   C1B59851   6.785  13.835   6.455
10251POPC   C2B59852   6.756  13.875   6.755
10251POPC   C3B59853   6.802  13.849   7.055
10251POPC   C4B59854   6.833  13.860   7.355
10252POPC   NC359855  43.935   2.738   5.555
10252POPC   PO459856  43.880   2.780   5.855
10252POPC   GL159857  43.898   2.747   6.155
10252POPC   GL259858  43.941   2.876   6.155
10252POPC   C1A59859  43.928   2.798   6.455
10252POPC   D2A59860  43.930   2.720   6.755
10252POPC   C3A59861  43.855   2.716   7.055
10252POPC   C4A59862  43.932   2.783   7.355
10252POPC   C1B59863  43.882   2.999   6.455
10252POPC   C2B59864  43.951   3.012   6.755
10252POPC   C3B59865  43.919   3.029   7.055
10252POPC   C4B59866  43.923   3.007   7.355
10253POPC   NC359867  43.930  33.821   5.555
10253POPC   PO459868  43.858  33.785   5.855
10253POPC   GL159869  43.901  33.776   6.155
10253POPC   GL259870  43.971  33.836   6.155
10253POPC   C1A59871  43.872  33.834   6.455
10253POPC   D2A59872  43.851  33.834   6.755
10253POPC   C3A59873  43.906  33.801   7.055
10253POPC   C4A59874  43.840  33.822   7.355
10253POPC   C1B59875  44.140  33.873   6.455
10253POPC   C2B59876  44.101  33.880   6.755
10253POPC   C3B59877  44.171  33.838   7.055
10253POPC   C4B59878  44.124  33.916   7.355
10254POPC   NC359879  26.833  22.179   5.555
10254POPC   PO459880  26.801  22.180   5.855
10254POPC   GL159881  26.786  22.137   6.155
10254POPC   GL259882  26.738  22.182   6.155
10254POPC   C1A59883  26.824  22.125   6.455
10254POPC   D2A59884  26.840  22.128   6.755
10254POPC   C3A59885  26.801  22.117   7.055
10254POPC   C4A59886  26.838  22.206   7.355
10254POPC   C1B59887  26.596  22.260   6.455
10254POPC   C2B59888  26.578  22.278   6.755
10254POPC   C3B59889  26.570  22.254   7.055
10254POPC   C4B59890  26.532  22.266   7.355
10255POPC   NC359891  37.689  14.447   5.555
10255POPC   PO459892  37.635  14.452   5.855
10255POPC   GL159893  37.638  14.362   6.155
10255POPC   GL259894  37.526  14.484   6.155
10255POPC   C1A59895  37.656  14.380   6.455
10255POPC   D2A59896  37.710  14.422   6.755
10255POPC   C3A59897  37.634  14.442   7.055
10255POPC   C4A59898  37.711  14.402   7.355
10255POPC   C1B59899  37.408  14.544   6.455
10255POPC   C2B59900  37.496  14.507   6.755
10255POPC   C3B59901  37.442  14.511   7.055
10255POPC   C4B59902  37.449  14.547   7.355
10256POPC   NC359903   5.834  27.549   5.555
10256POPC   PO459904   5.821  27.635   5.855
10256POPC   GL159905   5.914  27.629   6.155
10256POPC   GL259906   5.908  27.536   6.155
10256POPC   C1A59907   5.909  27.641   6.455
10256POPC   D2A59908   5.871  27.639   6.755
10256POPC   C3A59909   5.850  27.557   7.055
10256POPC   C4A59910   5.917  27.588   7.355
10256POPC   C1B59911   6.048  27.436   6.455
10256POPC   C2B59912   6.011  27.369   6.755
10256POPC   C3B59913   6.043  27.363   7.055
10256POPC   C4B59914   6.015  27.395   7.355
10257POPC   NC359915  38.406   9.708   5.555
10257POPC   PO459916  38.436   9.797   5.855
10257POPC   GL159917  38.484   9.784   6.155
10257POPC   GL259918  38.337   9.805   6.155
10257POPC   C1A59919  38.491   9.796   6.455
10257POPC   D2A59920  38.505   9.723   6.755
10257POPC   C3A59921  38.425   9.795   7.055
10257POPC   C4A59922  38.473   9.701   7.355
10257POPC   C1B59923  38.239   9.780   6.455
10257POPC   C2B59924  38.247   9.816   6.755
10257POPC   C3B59925  38.172   9.787   7.055
10257POPC   C4B59926  38.227   9.724   7.355
10258POPC   NC359927  10.541  32.291   5.555
10258POPC   PO459928  10.520  32.199   5.855
10258POPC   GL159929  10.479  32.208   6.155
10258POPC   GL259930  10.484  32.116   6.155
10258POPC   C1A59931  10.544  32.227   6.455
10258POPC   D2A59932  10.544  32.266   6.755
10258POPC   C3A59933  10.522  32.296   7.055
10258POPC   C4A59934  10.505  32.248   7.355
10258POPC   C1B59935  10.415  31.964   6.455
10258POPC   C2B59936  10.501  32.049   6.755
10258POPC   C3B59937  10.487  32.023   7.055
10258POPC   C4B59938  10.434  31.985   7.355
10259POPC   NC359939  42.329  11.260   5.555
10259POPC   PO459940  42.329  11.275   5.855
10259POPC   GL159941  42.323  11.260   6.155
10259POPC   GL259942  42.243  11.341   6.155
10259POPC   C1A59943  42.379  11.294   6.455
10259POPC   D2A59944  42.327  11.324   6.755
10259POPC   C3A59945  42.321  11.288   7.055
10259POPC   C4A59946  42.355  11.293   7.355
10259POPC   C1B59947  42.149  11.514   6.455
10259POPC   C2B59948  42.121  11.430   6.755
10259POPC   C3B59949  42.139  11.421   7.055
10259POPC   C4B59950  42.122  11.471   7.355
10260POPC   NC359951  39.237   4.284   5.555
10260POPC   PO459952  39.193   4.349   5.855
10260POPC   GL159953  39.224   4.286   6.155
10260POPC   GL259954  39.240   4.235   6.155
10260POPC   C1A59955  39.269   4.305   6.455
10260POPC   D2A59956  39.205   4.366   6.755
10260POPC   C3A59957  39.259   4.269   7.055
10260POPC   C4A59958  39.236   4.361   7.355
10260POPC   C1B59959  39.237   4.073   6.455
10260POPC   C2B59960  39.177   4.086   6.755
10260POPC   C3B59961  39.247   4.073   7.055
10260POPC   C4B59962  39.239   4.044   7.355
10261POPC   NC359963  12.109  27.642   5.555
10261POPC   PO459964  12.043  27.573   5.855
10261POPC   GL159965  12.032  27.622   6.155
10261POPC   GL259966  12.146  27.726   6.155
10261POPC   C1A59967  12.090  27.637   6.455
10261POPC   D2A59968  12.110  27.560   6.755
10261POPC   C3A59969  12.047  27.637   7.055
10261POPC   C4A59970  12.055  27.558   7.355
10261POPC   C1B59971  12.270  27.784   6.455
10261POPC   C2B59972  12.242  27.781   6.755
10261POPC   C3B59973  12.296  27.741   7.055
10261POPC   C4B59974  12.288  27.805   7.355
10262POPC   NC359975  18.284  25.260   5.555
10262POPC   PO459976  18.317  25.248   5.855
10262POPC   GL159977  18.242  25.301   6.155
10262POPC   GL259978  18.193  25.254   6.155
10262POPC   C1A59979  18.299  25.236   6.455
10262POPC   D2A59980  18.327  25.281   6.755
10262POPC   C3A59981  18.238  25.218   7.055
10262POPC   C4A59982  18.249  25.310   7.355
10262POPC   C1B59983  18.039  25.250   6.455
10262POPC   C2B59984  18.010  25.263   6.755
10262POPC   C3B59985  18.057  25.313   7.055
10262POPC   C4B59986  17.993  25.307   7.355
10263POPC   NC359987  19.801  43.091   5.555
10263POPC   PO459988  19.859  43.158   5.855
10263POPC   GL159989  19.838  43.113   6.155
10263POPC   GL259990  19.744  43.061   6.155
10263POPC   C1A59991  19.796  43.098   6.455
10263POPC   D2A59992  19.845  43.094   6.755
10263POPC   C3A59993  19.825  43.120   7.055
10263POPC   C4A59994  19.805  43.141   7.355
10263POPC   C1B59995  19.594  42.968   6.455
10263POPC   C2B59996  19.610  42.994   6.755
10263POPC   C3B59997  19.632  42.998   7.055
10263POPC   C4B59998  19.586  42.974   7.355
10264POPC   NC359999  35.306   9.731   5.555
10264POPC   PO460000  35.334   9.789   5.855
10264POPC   GL160001  35.383   9.794   6.155
10264POPC   GL260002  35.500   9.813   6.155
10264POPC   C1A60003  35.384   9.740   6.455
10264POPC   D2A60004  35.353   9.775   6.755
10264POPC   C3A60005  35.331   9.701   7.055
10264POPC   C4A60006  35.322   9.791   7.355
10264POPC   C1B60007  35.528   9.928   6.455
10264POPC   C2B60008  35.508   9.860   6.755
10264POPC   C3B60009  35.580   9.930   7.055
10264POPC   C4B60010  35.544   9.847   7.355
10265POPC   NC360011  12.883  32.264   5.555
10265POPC   PO460012  12.815  32.259   5.855
10265POPC   GL160013  12.833  32.233   6.155
10265POPC   GL260014  12.905  32.374   6.155
10265POPC   C1A60015  12.822  32.224   6.455
10265POPC   D2A60016  12.812  32.238   6.755
10265POPC   C3A60017  12.823  32.233   7.055
10265POPC   C4A60018  12.811  32.218   7.355
10265POPC   C1B60019  12.994  32.500   6.455
10265POPC   C2B60020  12.932  32.429   6.755
10265POPC   C3B60021  12.955  32.454   7.055
10265POPC   C4B60022  12.920  32.473   7.355
10266POPC   NC360023  20.582  12.117   5.555
10266POPC   PO460024  20.575  12.122   5.855
10266POPC   GL160025  20.570  12.118   6.155
10266POPC   GL260026  20.757  11.949   6.155
10266POPC   C1A60027  20.609  12.059   6.455
10266POPC   D2A60028  20.561  12.031   6.755
10266POPC   C3A60029  20.593  12.112   7.055
10266POPC   C4A60030  20.623  12.090   7.355
10266POPC   C1B60031  20.770  11.885   6.455
10266POPC   C2B60032  20.827  11.939   6.755
10266POPC   C3B60033  20.808  11.871   7.055
10266POPC   C4B60034  20.843  11.890   7.355
10267POPC   NC360035  25.227  18.289   5.555
10267POPC   PO460036  25.227  18.333   5.855
10267POPC   GL160037  25.260  18.295   6.155
10267POPC   GL260038  25.159  18.236   6.155
10267POPC   C1A60039  25.268  18.277   6.455
10267POPC   D2A60040  25.272  18.276   6.755
10267POPC   C3A60041  25.241  18.235   7.055
10267POPC   C4A60042  25.272  18.252   7.355
10267POPC   C1B60043  25.031  18.093   6.455
10267POPC   C2B60044  25.035  18.164   6.755
10267POPC   C3B60045  25.057  18.144   7.055
10267POPC   C4B60046  25.028  18.087   7.355
10268POPC   NC360047  16.710  16.745   5.555
10268POPC   PO460048  16.706  16.758   5.855
10268POPC   GL160049  16.777  16.768   6.155
10268POPC   GL260050  16.850  16.719   6.155
10268POPC   C1A60051  16.754  16.743   6.455
10268POPC   D2A60052  16.697  16.770   6.755
10268POPC   C3A60053  16.692  16.734   7.055
10268POPC   C4A60054  16.694  16.767   7.355
10268POPC   C1B60055  16.985  16.760   6.455
10268POPC   C2B60056  16.952  16.731   6.755
10268POPC   C3B60057  16.985  16.757   7.055
10268POPC   C4B60058  16.979  16.781   7.355
10269POPC   NC360059   0.433  34.571   5.555
10269POPC   PO460060   0.454  34.614   5.855
10269POPC   GL160061   0.482  34.540   6.155
10269POPC   GL260062   0.444  34.663   6.155
10269POPC   C1A60063   0.467  34.591   6.455
10269POPC   D2A60064   0.455  34.586   6.755
10269POPC   C3A60065   0.431  34.551   7.055
10269POPC   C4A60066   0.413  34.617   7.355
10269POPC   C1B60067   0.539  34.814   6.455
10269POPC   C2B60068   0.491  34.842   6.755
10269POPC   C3B60069   0.529  34.797   7.055
10269POPC   C4B60070   0.522  34.839   7.355
10270POPC   NC360071  22.894   9.763   5.555
10270POPC   PO460072  22.895   9.767   5.855
10270POPC   GL160073  22.940   9.738   6.155
10270POPC   GL260074  23.082   9.672   6.155
10270POPC   C1A60075  22.898   9.755   6.455
10270POPC   D2A60076  22.940   9.706   6.755
10270POPC   C3A60077  22.908   9.764   7.055
10270POPC   C4A60078  22.978   9.706   7.355
10270POPC   C1B60079  23.144   9.615   6.455
10270POPC   C2B60080  23.172   9.591   6.755
10270POPC   C3B60081  23.182   9.613   7.055
10270POPC   C4B60082  23.172   9.625   7.355
10271POPC   NC360083  42.298  25.223   5.555
10271POPC   PO460084  42.377  25.307   5.855
10271POPC   GL160085  42.378  25.268   6.155
10271POPC   GL260086  42.306  25.110   6.155
10271POPC   C1A60087  42.383  25.282   6.455
10271POPC   D2A60088  42.371  25.217   6.755
10271POPC   C3A60089  42.355  25.221   7.055
10271POPC   C4A60090  42.356  25.244   7.355
10271POPC   C1B60091  42.193  25.017   6.455
10271POPC   C2B60092  42.211  25.017   6.755
10271POPC   C3B60093  42.190  24.994   7.055
10271POPC   C4B60094  42.257  25.046   7.355
10272POPC   NC360095   1.168  26.001   5.555
10272POPC   PO460096   1.198  26.083   5.855
10272POPC   GL160097   1.242  26.018   6.155
10272POPC   GL260098   1.267  25.995   6.155
10272POPC   C1A60099   1.247  26.089   6.455
10272POPC   D2A60100   1.184  26.035   6.755
10272POPC   C3A60101   1.181  26.031   7.055
10272POPC   C4A60102   1.191  26.074   7.355
10272POPC   C1B60103   1.378  25.839   6.455
10272POPC   C2B60104   1.373  25.900   6.755
10272POPC   C3B60105   1.360  25.921   7.055
10272POPC   C4B60106   1.399  25.865   7.355
10273POPC   NC360107  20.641  23.735   5.555
10273POPC   PO460108  20.561  23.743   5.855
10273POPC   GL160109  20.612  23.670   6.155
10273POPC   GL260110  20.537  23.754   6.155
10273POPC   C1A60111  20.599  23.674   6.455
10273POPC   D2A60112  20.573  23.755   6.755
10273POPC   C3A60113  20.605  23.675   7.055
10273POPC   C4A60114  20.616  23.739   7.355
10273POPC   C1B60115  20.377  23.785   6.455
10273POPC   C2B60116  20.324  23.820   6.755
10273POPC   C3B60117  20.374  23.811   7.055
10273POPC   C4B60118  20.352  23.728   7.355
10274POPC   NC360119  14.387  10.494   5.555
10274POPC   PO460120  14.365  10.556   5.855
10274POPC   GL160121  14.435  10.492   6.155
10274POPC   GL260122  14.277  10.603   6.155
10274POPC   C1A60123  14.418  10.522   6.455
10274POPC   D2A60124  14.421  10.554   6.755
10274POPC   C3A60125  14.395  10.507   7.055
10274POPC   C4A60126  14.412  10.528   7.355
10274POPC   C1B60127  14.211  10.620   6.455
10274POPC   C2B60128  14.198  10.693   6.755
10274POPC   C3B60129  14.216  10.661   7.055
10274POPC   C4B60130  14.221  10.694   7.355
10275POPC   NC360131  22.934  29.177   5.555
10275POPC   PO460132  22.924  29.106   5.855
10275POPC   GL160133  22.982  29.096   6.155
10275POPC   GL260134  23.007  29.176   6.155
10275POPC   C1A60135  22.979  29.162   6.455
10275POPC   D2A60136  22.938  29.174   6.755
10275POPC   C3A60137  22.969  29.175   7.055
10275POPC   C4A60138  22.964  29.189   7.355
10275POPC   C1B60139  23.141  29.306   6.455
10275POPC   C2B60140  23.161  29.307   6.755
10275POPC   C3B60141  23.146  29.277   7.055
10275POPC   C4B60142  23.129  29.260   7.355
10276POPC   NC360143  43.152  26.803   5.555
10276POPC   PO460144  43.141  26.819   5.855
10276POPC   GL160145  43.074  26.804   6.155
10276POPC   GL260146  43.091  26.725   6.155
10276POPC   C1A60147  43.129  26.844   6.455
10276POPC   D2A60148  43.148  26.790   6.755
10276POPC   C3A60149  43.101  26.824   7.055
10276POPC   C4A60150  43.120  26.775   7.355
10276POPC   C1B60151  43.027  26.601   6.455
10276POPC   C2B60152  43.043  26.535   6.755
10276POPC   C3B60153  43.023  26.525   7.055
10276POPC   C4B60154  43.093  26.599   7.355
10277POPC   NC360155  43.893   2.029   5.555
10277POPC   PO460156  43.885   1.993   5.855
10277POPC   GL160157  43.855   1.969   6.155
10277POPC   GL260158  43.792   2.129   6.155
10277POPC   C1A60159  43.845   1.972   6.455
10277POPC   D2A60160  43.875   2.001   6.755
10277POPC   C3A60161  43.837   1.953   7.055
10277POPC   C4A60162  43.923   1.989   7.355
10277POPC   C1B60163  43.677   2.222   6.455
10277POPC   C2B60164  43.729   2.139   6.755
10277POPC   C3B60165  43.707   2.132   7.055
10277POPC   C4B60166  43.766   2.157   7.355
10278POPC   NC360167   7.394  12.867   5.555
10278POPC   PO460168   7.373  12.833   5.855
10278POPC   GL160169   7.466  12.849   6.155
10278POPC   GL260170   7.394  12.746   6.155
10278POPC   C1A60171   7.419  12.885   6.455
10278POPC   D2A60172   7.402  12.826   6.755
10278POPC   C3A60173   7.459  12.897   7.055
10278POPC   C4A60174   7.390  12.811   7.355
10278POPC   C1B60175   7.322  12.666   6.455
10278POPC   C2B60176   7.286  12.587   6.755
10278POPC   C3B60177   7.304  12.627   7.055
10278POPC   C4B60178   7.295  12.621   7.355
10279POPC   NC360179   3.548  39.232   5.555
10279POPC   PO460180   3.536  39.234   5.855
10279POPC   GL160181   3.585  39.231   6.155
10279POPC   GL260182   3.461  39.208   6.155
10279POPC   C1A60183   3.532  39.258   6.455
10279POPC   D2A60184   3.549  39.189   6.755
10279POPC   C3A60185   3.580  39.252   7.055
10279POPC   C4A60186   3.569  39.232   7.355
10279POPC   C1B60187   3.322  39.201   6.455
10279POPC   C2B60188   3.255  39.204   6.755
10279POPC   C3B60189   3.297  39.173   7.055
10279POPC   C4B60190   3.271  39.246   7.355
10280POPC   NC360191   5.126  39.220   5.555
10280POPC   PO460192   5.110  39.231   5.855
10280POPC   GL160193   5.116  39.251   6.155
10280POPC   GL260194   5.075  39.091   6.155
10280POPC   C1A60195   5.088  39.255   6.455
10280POPC   D2A60196   5.044  39.280   6.755
10280POPC   C3A60197   5.063  39.207   7.055
10280POPC   C4A60198   5.076  39.201   7.355
10280POPC   C1B60199   5.164  39.025   6.455
10280POPC   C2B60200   5.092  38.976   6.755
10280POPC   C3B60201   5.151  38.978   7.055
10280POPC   C4B60202   5.085  38.997   7.355
10281POPC   NC360203   2.025  11.308   5.555
10281POPC   PO460204   1.946  11.282   5.855
10281POPC   GL160205   1.960  11.250   6.155
10281POPC   GL260206   2.029  11.126   6.155
10281POPC   C1A60207   2.013  11.339   6.455
10281POPC   D2A60208   1.996  11.304   6.755
10281POPC   C3A60209   1.966  11.290   7.055
10281POPC   C4A60210   1.966  11.344   7.355
10281POPC   C1B60211   1.963  11.043   6.455
10281POPC   C2B60212   2.025  11.025   6.755
10281POPC   C3B60213   2.029  11.097   7.055
10281POPC   C4B60214   2.043  11.020   7.355
10282POPC   NC360215  39.245  43.122   5.555
10282POPC   PO460216  39.203  43.110   5.855
10282POPC   GL160217  39.205  43.065   6.155
10282POPC   GL260218  39.156  43.101   6.155
10282POPC   C1A60219  39.268  43.150   6.455
10282POPC   D2A60220  39.263  43.135   6.755
10282POPC   C3A60221  39.237  43.096   7.055
10282POPC   C4A60222  39.184  43.141   7.355
10282POPC   C1B60223  39.035  42.992   6.455
10282POPC   C2B60224  38.963  42.955   6.755
10282POPC   C3B60225  39.050  43.024   7.055
10282POPC   C4B60226  39.010  43.038   7.355
10283POPC   NC360227   1.186  41.570   5.555
10283POPC   PO460228   1.169  41.582   5.855
10283POPC   GL160229   1.223  41.584   6.155
10283POPC   GL260230   1.179  41.669   6.155
10283POPC   C1A60231   1.233  41.526   6.455
10283POPC   D2A60232   1.168  41.547   6.755
10283POPC   C3A60233   1.235  41.529   7.055
10283POPC   C4A60234   1.206  41.535   7.355
10283POPC   C1B60235   1.250  41.825   6.455
10283POPC   C2B60236   1.245  41.798   6.755
10283POPC   C3B60237   1.196  41.816   7.055
10283POPC   C4B60238   1.205  41.796   7.355
10284POPC   NC360239  42.378  30.712   5.555
10284POPC   PO460240  42.366  30.711   5.855
10284POPC   GL160241  42.298  30.669   6.155
10284POPC   GL260242  42.426  30.730   6.155
10284POPC   C1A60243  42.365  30.716   6.455
10284POPC   D2A60244  42.298  30.703   6.755
10284POPC   C3A60245  42.316  30.715   7.055
10284POPC   C4A60246  42.369  30.689   7.355
10284POPC   C1B60247  42.551  30.653   6.455
10284POPC   C2B60248  42.628  30.631   6.755
10284POPC   C3B60249  42.565  30.642   7.055
10284POPC   C4B60250  42.536  30.676   7.355
10285POPC   NC360251  18.277  44.643   5.555
10285POPC   PO460252  18.326  44.698   5.855
10285POPC   GL160253  18.256  44.656   6.155
10285POPC   GL260254  18.254  44.747   6.155
10285POPC   C1A60255  18.301  44.709   6.455
10285POPC   D2A60256  18.314  44.649   6.755
10285POPC   C3A60257  18.288  44.619   7.055
10285POPC   C4A60258  18.257  44.696   7.355
10285POPC   C1B60259  18.241  44.869   6.455
10285POPC   C2B60260  18.214  44.948   6.755
10285POPC   C3B60261  18.276  44.861   7.055
10285POPC   C4B60262  18.259  44.925   7.355
10286POPC   NC360263   7.461  18.317   5.555
10286POPC   PO460264   7.448  18.269   5.855
10286POPC   GL160265   7.453  18.305   6.155
10286POPC   GL260266   7.415  18.389   6.155
10286POPC   C1A60267   7.377  18.317   6.455
10286POPC   D2A60268   7.423  18.238   6.755
10286POPC   C3A60269   7.452  18.326   7.055
10286POPC   C4A60270   7.459  18.263   7.355
10286POPC   C1B60271   7.448  18.531   6.455
10286POPC   C2B60272   7.445  18.564   6.755
10286POPC   C3B60273   7.463  18.512   7.055
10286POPC   C4B60274   7.413  18.557   7.355
10287POPC   NC360275  31.514  42.373   5.555
10287POPC   PO460276  31.483  42.352   5.855
10287POPC   GL160277  31.498  42.325   6.155
10287POPC   GL260278  31.502  42.439   6.155
10287POPC   C1A60279  31.436  42.287   6.455
10287POPC   D2A60280  31.430  42.349   6.755
10287POPC   C3A60281  31.442  42.368   7.055
10287POPC   C4A60282  31.443  42.361   7.355
10287POPC   C1B60283  31.470  42.613   6.455
10287POPC   C2B60284  31.434  42.611   6.755
10287POPC   C3B60285  31.464  42.560   7.055
10287POPC   C4B60286  31.519  42.600   7.355
10288POPC   NC360287  19.818  36.156   5.555
10288POPC   PO460288  19.815  36.100   5.855
10288POPC   GL160289  19.812  36.147   6.155
10288POPC   GL260290  19.763  36.088   6.155
10288POPC   C1A60291  19.860  36.079   6.455
10288POPC   D2A60292  19.877  36.118   6.755
10288POPC   C3A60293  19.839  36.090   7.055
10288POPC   C4A60294  19.801  36.130   7.355
10288POPC   C1B60295  19.627  35.964   6.455
10288POPC   C2B60296  19.671  35.961   6.755
10288POPC   C3B60297  19.623  35.967   7.055
10288POPC   C4B60298  19.681  35.946   7.355
10289POPC   NC360299   7.414  40.765   5.555
10289POPC   PO460300   7.398  40.763   5.855
10289POPC   GL160301   7.418  40.767   6.155
10289POPC   GL260302   7.420  40.632   6.155
10289POPC   C1A60303   7.437  40.814   6.455
10289POPC   D2A60304   7.418  40.800   6.755
10289POPC   C3A60305   7.469  40.742   7.055
10289POPC   C4A60306   7.441  40.797   7.355
10289POPC   C1B60307   7.438  40.513   6.455
10289POPC   C2B60308   7.485  40.485   6.755
10289POPC   C3B60309   7.403  40.575   7.055
10289POPC   C4B60310   7.443  40.552   7.355
10290POPC   NC360311   9.731  39.251   5.555
10290POPC   PO460312   9.761  39.226   5.855
10290POPC   GL160313   9.779  39.217   6.155
10290POPC   GL260314   9.684  39.071   6.155
10290POPC   C1A60315   9.790  39.221   6.455
10290POPC   D2A60316   9.718  39.195   6.755
10290POPC   C3A60317   9.747  39.237   7.055
10290POPC   C4A60318   9.752  39.211   7.355
10290POPC   C1B60319   9.659  38.964   6.455
10290POPC   C2B60320   9.713  38.954   6.755
10290POPC   C3B60321   9.708  39.011   7.055
10290POPC   C4B60322   9.667  39.007   7.355
10291POPC   NC360323  25.243  12.119   5.555
10291POPC   PO460324  25.229  12.112   5.855
10291POPC   GL160325  25.266  12.110   6.155
10291POPC   GL260326  25.312  11.930   6.155
10291POPC   C1A60327  25.292  12.095   6.455
10291POPC   D2A60328  25.303  12.097   6.755
10291POPC   C3A60329  25.250  12.041   7.055
10291POPC   C4A60330  25.219  12.041   7.355
10291POPC   C1B60331  25.271  11.858   6.455
10291POPC   C2B60332  25.284  11.861   6.755
10291POPC   C3B60333  25.267  11.805   7.055
10291POPC   C4B60334  25.319  11.824   7.355
10292POPC   NC360335   2.778  20.632   5.555
10292POPC   PO460336   2.790  20.626   5.855
10292POPC   GL160337   2.760  20.619   6.155
10292POPC   GL260338   2.626  20.537   6.155
10292POPC   C1A60339   2.716  20.578   6.455
10292POPC   D2A60340   2.718  20.638   6.755
10292POPC   C3A60341   2.814  20.598   7.055
10292POPC   C4A60342   2.814  20.589   7.355
10292POPC   C1B60343   2.501  20.513   6.455
10292POPC   C2B60344   2.537  20.511   6.755
10292POPC   C3B60345   2.497  20.567   7.055
10292POPC   C4B60346   2.537  20.536   7.355
10293POPC   NC360347   9.731   7.443   5.555
10293POPC   PO460348   9.794   7.433   5.855
10293POPC   GL160349   9.783   7.407   6.155
10293POPC   GL260350   9.719   7.341   6.155
10293POPC   C1A60351   9.710   7.377   6.455
10293POPC   D2A60352   9.739   7.437   6.755
10293POPC   C3A60353   9.728   7.392   7.055
10293POPC   C4A60354   9.742   7.396   7.355
10293POPC   C1B60355   9.668   7.231   6.455
10293POPC   C2B60356   9.644   7.209   6.755
10293POPC   C3B60357   9.575   7.191   7.055
10293POPC   C4B60358   9.600   7.198   7.355
10294POPC   NC360359   6.655  37.699   5.555
10294POPC   PO460360   6.631  37.705   5.855
10294POPC   GL160361   6.657  37.691   6.155
10294POPC   GL260362   6.709  37.758   6.155
10294POPC   C1A60363   6.607  37.646   6.455
10294POPC   D2A60364   6.676  37.697   6.755
10294POPC   C3A60365   6.625  37.701   7.055
10294POPC   C4A60366   6.653  37.643   7.355
10294POPC   C1B60367   6.836  37.842   6.455
10294POPC   C2B60368   6.847  37.826   6.755
10294POPC   C3B60369   6.855  37.758   7.055
10294POPC   C4B60370   6.855  37.841   7.355
10295POPC   NC360371  43.895  14.376   5.555
10295POPC   PO460372  43.894  14.407   5.855
10295POPC   GL160373  43.874  14.444   6.155
10295POPC   GL260374  43.749  14.477   6.155
10295POPC   C1A60375  43.841  14.433   6.455
10295POPC   D2A60376  43.930  14.371   6.755
10295POPC   C3A60377  43.898  14.365   7.055
10295POPC   C4A60378  43.892  14.449   7.355
10295POPC   C1B60379  43.693  14.525   6.455
10295POPC   C2B60380  43.689  14.522   6.755
10295POPC   C3B60381  43.670  14.504   7.055
10295POPC   C4B60382  43.690  14.585   7.355
10296POPC   NC360383  13.584  38.419   5.555
10296POPC   PO460384  13.676  38.465   5.855
10296POPC   GL160385  13.645  38.461   6.155
10296POPC   GL260386  13.514  38.484   6.155
10296POPC   C1A60387  13.601  38.459   6.455
10296POPC   D2A60388  13.620  38.478   6.755
10296POPC   C3A60389  13.665  38.433   7.055
10296POPC   C4A60390  13.656  38.464   7.355
10296POPC   C1B60391  13.348  38.536   6.455
10296POPC   C2B60392  13.371  38.583   6.755
10296POPC   C3B60393  13.412  38.519   7.055
10296POPC   C4B60394  13.385  38.549   7.355
10297POPC   NC360395   3.520  18.237   5.555
10297POPC   PO460396   3.590  18.296   5.855
10297POPC   GL160397   3.541  18.319   6.155
10297POPC   GL260398   3.637  18.364   6.155
10297POPC   C1A60399   3.550  18.331   6.455
10297POPC   D2A60400   3.562  18.296   6.755
10297POPC   C3A60401   3.492  18.269   7.055
10297POPC   C4A60402   3.541  18.245   7.355
10297POPC   C1B60403   3.667  18.550   6.455
10297POPC   C2B60404   3.653  18.478   6.755
10297POPC   C3B60405   3.619  18.548   7.055
10297POPC   C4B60406   3.666  18.507   7.355
10298POPC   NC360407  33.751  26.036   5.555
10298POPC   PO460408  33.800  26.012   5.855
10298POPC   GL160409  33.781  26.085   6.155
10298POPC   GL260410  33.859  26.060   6.155
10298POPC   C1A60411  33.790  26.087   6.455
10298POPC   D2A60412  33.810  26.040   6.755
10298POPC   C3A60413  33.766  26.025   7.055
10298POPC   C4A60414  33.830  26.073   7.355
10298POPC   C1B60415  34.041  26.150   6.455
10298POPC   C2B60416  33.966  26.209   6.755
10298POPC   C3B60417  34.018  26.170   7.055
10298POPC   C4B60418  34.063  26.137   7.355
10299POPC   NC360419  14.438  30.649   5.555
10299POPC   PO460420  14.433  30.717   5.855
10299POPC   GL160421  14.447  30.695   6.155
10299POPC   GL260422  14.245  30.635   6.155
10299POPC   C1A60423  14.398  30.695   6.455
10299POPC   D2A60424  14.418  30.689   6.755
10299POPC   C3A60425  14.400  30.734   7.055
10299POPC   C4A60426  14.439  30.718   7.355
10299POPC   C1B60427  14.156  30.615   6.455
10299POPC   C2B60428  14.198  30.615   6.755
10299POPC   C3B60429  14.206  30.581   7.055
10299POPC   C4B60430  14.175  30.587   7.355
10300POPC   NC360431  37.703  15.146   5.555
10300POPC   PO460432  37.719  15.139   5.855
10300POPC   GL160433  37.646  15.197   6.155
10300POPC   GL260434  37.573  15.140   6.155
10300POPC   C1A60435  37.727  15.131   6.455
10300POPC   D2A60436  37.678  15.195   6.755
10300POPC   C3A60437  37.685  15.156   7.055
10300POPC   C4A60438  37.703  15.218   7.355
10300POPC   C1B60439  37.407  15.142   6.455
10300POPC   C2B60440  37.384  15.121   6.755
10300POPC   C3B60441  37.422  15.124   7.055
10300POPC   C4B60442  37.450  15.133   7.355
10301POPC   NC360443   1.988  19.029   5.555
10301POPC   PO460444   1.965  19.087   5.855
10301POPC   GL160445   2.029  19.046   6.155
10301POPC   GL260446   2.138  18.965   6.155
10301POPC   C1A60447   2.008  19.055   6.455
10301POPC   D2A60448   1.986  19.063   6.755
10301POPC   C3A60449   1.944  19.052   7.055
10301POPC   C4A60450   2.031  19.034   7.355
10301POPC   C1B60451   2.179  18.890   6.455
10301POPC   C2B60452   2.154  18.892   6.755
10301POPC   C3B60453   2.193  18.919   7.055
10301POPC   C4B60454   2.206  18.955   7.355
10302POPC   NC360455  23.716  17.477   5.555
10302POPC   PO460456  23.667  17.515   5.855
10302POPC   GL160457  23.719  17.474   6.155
10302POPC   GL260458  23.805  17.412   6.155
10302POPC   C1A60459  23.687  17.505   6.455
10302POPC   D2A60460  23.706  17.514   6.755
10302POPC   C3A60461  23.742  17.552   7.055
10302POPC   C4A60462  23.677  17.543   7.355
10302POPC   C1B60463  23.837  17.286   6.455
10302POPC   C2B60464  23.859  17.341   6.755
10302POPC   C3B60465  23.931  17.368   7.055
10302POPC   C4B60466  23.930  17.301   7.355
10303POPC   NC360467  29.111   8.936   5.555
10303POPC   PO460468  29.113   8.929   5.855
10303POPC   GL160469  29.162   8.993   6.155
10303POPC   GL260470  29.237   8.887   6.155
10303POPC   C1A60471  29.176   8.968   6.455
10303POPC   D2A60472  29.184   8.935   6.755
10303POPC   C3A60473  29.133   9.007   7.055
10303POPC   C4A60474  29.095   8.970   7.355
10303POPC   C1B60475  29.312   8.843   6.455
10303POPC   C2B60476  29.361   8.888   6.755
10303POPC   C3B60477  29.310   8.867   7.055
10303POPC   C4B60478  29.367   8.796   7.355
10304POPC   NC360479  12.809  44.694   5.555
10304POPC   PO460480  12.837  44.627   5.855
10304POPC   GL160481  12.814  44.645   6.155
10304POPC   GL260482  12.878  44.586   6.155
10304POPC   C1A60483  12.897  44.687   6.455
10304POPC   D2A60484  12.883  44.703   6.755
10304POPC   C3A60485  12.811  44.644   7.055
10304POPC   C4A60486  12.812  44.626   7.355
10304POPC   C1B60487  12.884  44.413   6.455
10304POPC   C2B60488  12.870  44.402   6.755
10304POPC   C3B60489  12.877  44.453   7.055
10304POPC   C4B60490  12.894  44.416   7.355
10305POPC   NC360491  44.693   4.308   5.555
10305POPC   PO460492  44.687   4.280   5.855
10305POPC   GL160493  44.692   4.299   6.155
10305POPC   GL260494  44.771   4.241   6.155
10305POPC   C1A60495  44.696   4.315   6.455
10305POPC   D2A60496  44.660   4.314   6.755
10305POPC   C3A60497  44.681   4.337   7.055
10305POPC   C4A60498  44.647   4.346   7.355
10305POPC   C1B60499  44.877   4.181   6.455
10305POPC   C2B60500  44.883   4.134   6.755
10305POPC   C3B60501  44.797   4.104   7.055
10305POPC   C4B60502  44.886   4.182   7.355
10306POPC   NC360503  25.249   6.600   5.555
10306POPC   PO460504  25.254   6.689   5.855
10306POPC   GL160505  25.222   6.596   6.155
10306POPC   GL260506  25.330   6.551   6.155
10306POPC   C1A60507  25.268   6.665   6.455
10306POPC   D2A60508  25.227   6.638   6.755
10306POPC   C3A60509  25.314   6.627   7.055
10306POPC   C4A60510  25.221   6.618   7.355
10306POPC   C1B60511  25.319   6.440   6.455
10306POPC   C2B60512  25.300   6.410   6.755
10306POPC   C3B60513  25.350   6.378   7.055
10306POPC   C4B60514  25.298   6.447   7.355
10307POPC   NC360515  26.767   5.892   5.555
10307POPC   PO460516  26.778   5.895   5.855
10307POPC   GL160517  26.807   5.874   6.155
10307POPC   GL260518  26.733   5.918   6.155
10307POPC   C1A60519  26.776   5.855   6.455
10307POPC   D2A60520  26.814   5.825   6.755
10307POPC   C3A60521  26.860   5.888   7.055
10307POPC   C4A60522  26.822   5.882   7.355
10307POPC   C1B60523  26.582   6.016   6.455
10307POPC   C2B60524  26.593   6.063   6.755
10307POPC   C3B60525  26.604   6.004   7.055
10307POPC   C4B60526  26.660   5.971   7.355
10308POPC   NC360527  17.484  43.063   5.555
10308POPC   PO460528  17.517  43.105   5.855
10308POPC   GL160529  17.552  43.160   6.155
10308POPC   GL260530  17.372  43.181   6.155
10308POPC   C1A60531  17.476  43.132   6.455
10308POPC   D2A60532  17.503  43.095   6.755
10308POPC   C3A60533  17.545  43.124   7.055
10308POPC   C4A60534  17.543  43.078   7.355
10308POPC   C1B60535  17.347  43.296   6.455
10308POPC   C2B60536  17.336  43.261   6.755
10308POPC   C3B60537  17.300  43.314   7.055
10308POPC   C4B60538  17.311  43.269   7.355
10309POPC   NC360539  19.855  42.373   5.555
10309POPC   PO460540  19.786  42.378   5.855
10309POPC   GL160541  19.786  42.307   6.155
10309POPC   GL260542  19.926  42.218   6.155
10309POPC   C1A60543  19.795  42.293   6.455
10309POPC   D2A60544  19.859  42.287   6.755
10309POPC   C3A60545  19.842  42.321   7.055
10309POPC   C4A60546  19.800  42.368   7.355
10309POPC   C1B60547  20.061  42.209   6.455
10309POPC   C2B60548  19.994  42.125   6.755
10309POPC   C3B60549  19.986  42.152   7.055
10309POPC   C4B60550  20.053  42.209   7.355
10310POPC   NC360551  25.227   5.882   5.555
10310POPC   PO460552  25.290   5.841   5.855
10310POPC   GL160553  25.258   5.902   6.155
10310POPC   GL260554  25.193   5.957   6.155
10310POPC   C1A60555  25.242   5.887   6.455
10310POPC   D2A60556  25.305   5.884   6.755
10310POPC   C3A60557  25.296   5.911   7.055
10310POPC   C4A60558  25.300   5.912   7.355
10310POPC   C1B60559  25.112   6.043   6.455
10310POPC   C2B60560  25.174   6.110   6.755
10310POPC   C3B60561  25.126   6.078   7.055
10310POPC   C4B60562  25.103   6.103   7.355
10311POPC   NC360563  12.840  22.889   5.555
10311POPC   PO460564  12.840  22.930   5.855
10311POPC   GL160565  12.896  22.924   6.155
10311POPC   GL260566  12.689  22.966   6.155
10311POPC   C1A60567  12.890  22.912   6.455
10311POPC   D2A60568  12.877  22.892   6.755
10311POPC   C3A60569  12.833  22.939   7.055
10311POPC   C4A60570  12.804  22.978   7.355
10311POPC   C1B60571  12.597  22.984   6.455
10311POPC   C2B60572  12.580  23.028   6.755
10311POPC   C3B60573  12.610  23.018   7.055
10311POPC   C4B60574  12.638  23.050   7.355
10312POPC   NC360575  26.066   9.008   5.555
10312POPC   PO460576  26.077   8.950   5.855
10312POPC   GL160577  26.011   8.933   6.155
10312POPC   GL260578  25.965   9.011   6.155
10312POPC   C1A60579  26.012   9.022   6.455
10312POPC   D2A60580  26.014   9.004   6.755
10312POPC   C3A60581  26.082   8.953   7.055
10312POPC   C4A60582  26.082   8.968   7.355
10312POPC   C1B60583  25.830   8.966   6.455
10312POPC   C2B60584  25.765   8.946   6.755
10312POPC   C3B60585  25.813   8.923   7.055
10312POPC   C4B60586  25.770   8.905   7.355
10313POPC   NC360587  22.949  39.215   5.555
10313POPC   PO460588  22.909  39.189   5.855
10313POPC   GL160589  22.970  39.281   6.155
10313POPC   GL260590  23.051  39.133   6.155
10313POPC   C1A60591  22.924  39.189   6.455
10313POPC   D2A60592  22.935  39.254   6.755
10313POPC   C3A60593  22.931  39.196   7.055
10313POPC   C4A60594  22.931  39.251   7.355
10313POPC   C1B60595  23.142  39.019   6.455
10313POPC   C2B60596  23.118  39.034   6.755
10313POPC   C3B60597  23.112  39.017   7.055
10313POPC   C4B60598  23.112  38.997   7.355
10314POPC   NC360599   8.231  36.108   5.555
10314POPC   PO460600   8.175  36.086   5.855
10314POPC   GL160601   8.227  36.080   6.155
10314POPC   GL260602   8.147  36.060   6.155
10314POPC   C1A60603   8.191  36.145   6.455
10314POPC   D2A60604   8.205  36.146   6.755
10314POPC   C3A60605   8.155  36.166   7.055
10314POPC   C4A60606   8.177  36.088   7.355
10314POPC   C1B60607   8.086  35.938   6.455
10314POPC   C2B60608   8.124  35.875   6.755
10314POPC   C3B60609   8.106  35.949   7.055
10314POPC   C4B60610   8.085  35.899   7.355
10315POPC   NC360611  15.142   7.379   5.555
10315POPC   PO460612  15.170   7.470   5.855
10315POPC   GL160613  15.132   7.444   6.155
10315POPC   GL260614  15.299   7.474   6.155
10315POPC   C1A60615  15.201   7.442   6.455
10315POPC   D2A60616  15.180   7.447   6.755
10315POPC   C3A60617  15.144   7.459   7.055
10315POPC   C4A60618  15.159   7.381   7.355
10315POPC   C1B60619  15.444   7.550   6.455
10315POPC   C2B60620  15.388   7.473   6.755
10315POPC   C3B60621  15.393   7.542   7.055
10315POPC   C4B60622  15.405   7.497   7.355
10316POPC   NC360623   7.378  12.122   5.555
10316POPC   PO460624   7.451  12.042   5.855
10316POPC   GL160625   7.386  12.120   6.155
10316POPC   GL260626   7.340  12.176   6.155
10316POPC   C1A60627   7.424  12.106   6.455
10316POPC   D2A60628   7.471  12.098   6.755
10316POPC   C3A60629   7.426  12.070   7.055
10316POPC   C4A60630   7.378  12.086   7.355
10316POPC   C1B60631   7.279  12.269   6.455
10316POPC   C2B60632   7.246  12.204   6.755
10316POPC   C3B60633   7.237  12.205   7.055
10316POPC   C4B60634   7.227  12.257   7.355
10317POPC   NC360635  29.931  17.533   5.555
10317POPC   PO460636  29.928  17.519   5.855
10317POPC   GL160637  29.953  17.518   6.155
10317POPC   GL260638  30.016  17.577   6.155
10317POPC   C1A60639  29.936  17.498   6.455
10317POPC   D2A60640  29.929  17.457   6.755
10317POPC   C3A60641  29.931  17.489   7.055
10317POPC   C4A60642  29.927  17.505   7.355
10317POPC   C1B60643  30.086  17.748   6.455
10317POPC   C2B60644  30.106  17.736   6.755
10317POPC   C3B60645  30.070  17.753   7.055
10317POPC   C4B60646  30.060  17.714   7.355
10318POPC   NC360647  39.271  24.505   5.555
10318POPC   PO460648  39.222  24.494   5.855
10318POPC   GL160649  39.259  24.520   6.155
10318POPC   GL260650  39.110  24.509   6.155
10318POPC   C1A60651  39.221  24.511   6.455
10318POPC   D2A60652  39.213  24.497   6.755
10318POPC   C3A60653  39.260  24.512   7.055
10318POPC   C4A60654  39.192  24.443   7.355
10318POPC   C1B60655  38.966  24.471   6.455
10318POPC   C2B60656  38.992  24.489   6.755
10318POPC   C3B60657  38.994  24.461   7.055
10318POPC   C4B60658  38.975  24.498   7.355
10319POPC   NC360659  32.215  42.369   5.555
10319POPC   PO460660  32.214  42.296   5.855
10319POPC   GL160661  32.284  42.341   6.155
10319POPC   GL260662  32.236  42.168   6.155
10319POPC   C1A60663  32.222  42.326   6.455
10319POPC   D2A60664  32.262  42.325   6.755
10319POPC   C3A60665  32.262  42.364   7.055
10319POPC   C4A60666  32.258  42.362   7.355
10319POPC   C1B60667  32.225  42.081   6.455
10319POPC   C2B60668  32.280  42.081   6.755
10319POPC   C3B60669  32.189  42.052   7.055
10319POPC   C4B60670  32.207  42.048   7.355
10320POPC   NC360671  22.153  15.199   5.555
10320POPC   PO460672  22.167  15.211   5.855
10320POPC   GL160673  22.195  15.156   6.155
10320POPC   GL260674  22.293  15.109   6.155
10320POPC   C1A60675  22.194  15.211   6.455
10320POPC   D2A60676  22.200  15.202   6.755
10320POPC   C3A60677  22.207  15.157   7.055
10320POPC   C4A60678  22.168  15.157   7.355
10320POPC   C1B60679  22.400  15.119   6.455
10320POPC   C2B60680  22.417  15.051   6.755
10320POPC   C3B60681  22.425  15.066   7.055
10320POPC   C4B60682  22.409  15.071   7.355
10321POPC   NC360683  22.153  19.829   5.555
10321POPC   PO460684  22.113  19.871   5.855
10321POPC   GL160685  22.193  19.874   6.155
10321POPC   GL260686  22.286  19.923   6.155
10321POPC   C1A60687  22.204  19.849   6.455
10321POPC   D2A60688  22.166  19.800   6.755
10321POPC   C3A60689  22.159  19.871   7.055
10321POPC   C4A60690  22.137  19.852   7.355
10321POPC   C1B60691  22.361  19.948   6.455
10321POPC   C2B60692  22.399  20.020   6.755
10321POPC   C3B60693  22.342  19.960   7.055
10321POPC   C4B60694  22.388  19.981   7.355
10322POPC   NC360695   0.471  41.548   5.555
10322POPC   PO460696   0.479  41.527   5.855
10322POPC   GL160697   0.404  41.544   6.155
10322POPC   GL260698   0.525  41.523   6.155
10322POPC   C1A60699   0.430  41.555   6.455
10322POPC   D2A60700   0.433  41.509   6.755
10322POPC   C3A60701   0.408  41.595   7.055
10322POPC   C4A60702   0.433  41.558   7.355
10322POPC   C1B60703   0.666  41.434   6.455
10322POPC   C2B60704   0.639  41.383   6.755
10322POPC   C3B60705   0.629  41.366   7.055
10322POPC   C4B60706   0.618  41.392   7.355
10323POPC   NC360707  40.034  15.959   5.555
10323POPC   PO460708  39.959  15.938   5.855
10323POPC   GL160709  40.037  16.000   6.155
10323POPC   GL260710  40.113  15.974   6.155
10323POPC   C1A60711  40.008  15.931   6.455
10323POPC   D2A60712  39.967  15.942   6.755
10323POPC   C3A60713  39.991  15.910   7.055
10323POPC   C4A60714  40.020  15.943   7.355
10323POPC   C1B60715  40.217  16.006   6.455
10323POPC   C2B60716  40.209  15.938   6.755
10323POPC   C3B60717  40.230  15.980   7.055
10323POPC   C4B60718  40.211  15.995   7.355
10324POPC   NC360719  29.111   9.789   5.555
10324POPC   PO460720  29.134   9.716   5.855
10324POPC   GL160721  29.179   9.779   6.155
10324POPC   GL260722  29.095   9.876   6.155
10324POPC   C1A60723  29.180   9.778   6.455
10324POPC   D2A60724  29.113   9.797   6.755
10324POPC   C3A60725  29.168   9.723   7.055
10324POPC   C4A60726  29.182   9.776   7.355
10324POPC   C1B60727  28.984   9.975   6.455
10324POPC   C2B60728  28.974   9.921   6.755
10324POPC   C3B60729  28.971   9.953   7.055
10324POPC   C4B60730  29.001   9.972   7.355
10325POPC   NC360731   9.014  43.124   5.555
10325POPC   PO460732   9.003  43.101   5.855
10325POPC   GL160733   8.977  43.157   6.155
10325POPC   GL260734   9.082  43.197   6.155
10325POPC   C1A60735   8.975  43.113   6.455
10325POPC   D2A60736   8.939  43.118   6.755
10325POPC   C3A60737   8.931  43.064   7.055
10325POPC   C4A60738   9.014  43.107   7.355
10325POPC   C1B60739   9.210  43.234   6.455
10325POPC   C2B60740   9.198  43.243   6.755
10325POPC   C3B60741   9.157  43.297   7.055
10325POPC   C4B60742   9.172  43.267   7.355
10326POPC   NC360743  42.322  34.572   5.555
10326POPC   PO460744  42.319  34.625   5.855
10326POPC   GL160745  42.286  34.612   6.155
10326POPC   GL260746  42.242  34.566   6.155
10326POPC   C1A60747  42.361  34.621   6.455
10326POPC   D2A60748  42.368  34.580   6.755
10326POPC   C3A60749  42.380  34.620   7.055
10326POPC   C4A60750  42.289  34.615   7.355
10326POPC   C1B60751  42.101  34.541   6.455
10326POPC   C2B60752  42.049  34.621   6.755
10326POPC   C3B60753  42.041  34.583   7.055
10326POPC   C4B60754  42.119  34.626   7.355
10327POPC   NC360755  43.892   5.863   5.555
10327POPC   PO460756  43.923   5.893   5.855
10327POPC   GL160757  43.851   5.910   6.155
10327POPC   GL260758  43.953   5.750   6.155
10327POPC   C1A60759  43.866   5.883   6.455
10327POPC   D2A60760  43.889   5.904   6.755
10327POPC   C3A60761  43.870   5.918   7.055
10327POPC   C4A60762  43.933   5.893   7.355
10327POPC   C1B60763  44.094   5.647   6.455
10327POPC   C2B60764  44.047   5.666   6.755
10327POPC   C3B60765  44.113   5.686   7.055
10327POPC   C4B60766  44.028   5.744   7.355
10328POPC   NC360767  22.894  30.727   5.555
10328POPC   PO460768  22.985  30.730   5.855
10328POPC   GL160769  22.889  30.729   6.155
10328POPC   GL260770  22.948  30.784   6.155
10328POPC   C1A60771  22.982  30.662   6.455
10328POPC   D2A60772  22.975  30.652   6.755
10328POPC   C3A60773  22.927  30.663   7.055
10328POPC   C4A60774  22.933  30.648   7.355
10328POPC   C1B60775  22.921  30.906   6.455
10328POPC   C2B60776  22.961  30.989   6.755
10328POPC   C3B60777  22.905  30.983   7.055
10328POPC   C4B60778  22.935  30.971   7.355
10329POPC   NC360779  19.016   8.949   5.555
10329POPC   PO460780  19.105   8.990   5.855
10329POPC   GL160781  19.052   8.936   6.155
10329POPC   GL260782  19.164   9.039   6.155
10329POPC   C1A60783  19.040   8.942   6.455
10329POPC   D2A60784  19.071   8.942   6.755
10329POPC   C3A60785  19.085   8.949   7.055
10329POPC   C4A60786  19.023   8.951   7.355
10329POPC   C1B60787  19.242   9.103   6.455
10329POPC   C2B60788  19.331   9.052   6.755
10329POPC   C3B60789  19.285   9.040   7.055
10329POPC   C4B60790  19.333   9.028   7.355
10330POPC   NC360791  17.522  40.829   5.555
10330POPC   PO460792  17.543  40.734   5.855
10330POPC   GL160793  17.521  40.816   6.155
10330POPC   GL260794  17.484  40.621   6.155
10330POPC   C1A60795  17.461  40.827   6.455
10330POPC   D2A60796  17.491  40.759   6.755
10330POPC   C3A60797  17.514  40.734   7.055
10330POPC   C4A60798  17.458  40.813   7.355
10330POPC   C1B60799  17.446  40.565   6.455
10330POPC   C2B60800  17.410  40.493   6.755
10330POPC   C3B60801  17.433  40.559   7.055
10330POPC   C4B60802  17.461  40.504   7.355
10331POPC   NC360803   7.380  15.154   5.555
10331POPC   PO460804   7.395  15.200   5.855
10331POPC   GL160805   7.407  15.221   6.155
10331POPC   GL260806   7.450  15.090   6.155
10331POPC   C1A60807   7.402  15.130   6.455
10331POPC   D2A60808   7.413  15.206   6.755
10331POPC   C3A60809   7.458  15.207   7.055
10331POPC   C4A60810   7.393  15.191   7.355
10331POPC   C1B60811   7.386  14.898   6.455
10331POPC   C2B60812   7.393  14.886   6.755
10331POPC   C3B60813   7.458  14.921   7.055
10331POPC   C4B60814   7.444  14.918   7.355
10332POPC   NC360815   9.016  23.722   5.555
10332POPC   PO460816   8.965  23.669   5.855
10332POPC   GL160817   8.945  23.760   6.155
10332POPC   GL260818   8.948  23.814   6.155
10332POPC   C1A60819   9.007  23.762   6.455
10332POPC   D2A60820   9.007  23.726   6.755
10332POPC   C3A60821   8.949  23.690   7.055
10332POPC   C4A60822   8.986  23.738   7.355
10332POPC   C1B60823   8.978  23.931   6.455
10332POPC   C2B60824   8.948  23.921   6.755
10332POPC   C3B60825   9.027  23.971   7.055
10332POPC   C4B60826   9.031  23.986   7.355
10333POPC   NC360827   4.362  32.282   5.555
10333POPC   PO460828   4.334  32.219   5.855
10333POPC   GL160829   4.267  32.281   6.155
10333POPC   GL260830   4.404  32.191   6.155
10333POPC   C1A60831   4.329  32.283   6.455
10333POPC   D2A60832   4.300  32.237   6.755
10333POPC   C3A60833   4.289  32.217   7.055
10333POPC   C4A60834   4.291  32.280   7.355
10333POPC   C1B60835   4.587  32.213   6.455
10333POPC   C2B60836   4.520  32.251   6.755
10333POPC   C3B60837   4.587  32.172   7.055
10333POPC   C4B60838   4.550  32.173   7.355
10334POPC   NC360839  15.999  39.266   5.555
10334POPC   PO460840  15.930  39.223   5.855
10334POPC   GL160841  15.934  39.250   6.155
10334POPC   GL260842  16.096  39.216   6.155
10334POPC   C1A60843  15.939  39.245   6.455
10334POPC   D2A60844  15.938  39.278   6.755
10334POPC   C3A60845  15.928  39.277   7.055
10334POPC   C4A60846  15.906  39.222   7.355
10334POPC   C1B60847  16.227  39.320   6.455
10334POPC   C2B60848  16.159  39.237   6.755
10334POPC   C3B60849  16.158  39.227   7.055
10334POPC   C4B60850  16.179  39.304   7.355
10335POPC   NC360851  35.391   5.861   5.555
10335POPC   PO460852  35.347   5.874   5.855
10335POPC   GL160853  35.324   5.897   6.155
10335POPC   GL260854  35.511   5.901   6.155
10335POPC   C1A60855  35.354   5.874   6.455
10335POPC   D2A60856  35.354   5.863   6.755
10335POPC   C3A60857  35.331   5.884   7.055
10335POPC   C4A60858  35.342   5.881   7.355
10335POPC   C1B60859  35.612   5.954   6.455
10335POPC   C2B60860  35.581   5.939   6.755
10335POPC   C3B60861  35.587   5.936   7.055
10335POPC   C4B60862  35.606   5.890   7.355
10336POPC   NC360863  23.745  20.652   5.555
10336POPC   PO460864  23.702  20.588   5.855
10336POPC   GL160865  23.743  20.570   6.155
10336POPC   GL260866  23.649  20.685   6.155
10336POPC   C1A60867  23.744  20.575   6.455
10336POPC   D2A60868  23.686  20.566   6.755
10336POPC   C3A60869  23.702  20.639   7.055
10336POPC   C4A60870  23.708  20.630   7.355
10336POPC   C1B60871  23.543  20.816   6.455
10336POPC   C2B60872  23.605  20.825   6.755
10336POPC   C3B60873  23.571  20.772   7.055
10336POPC   C4B60874  23.556  20.784   7.355
10337POPC   NC360875  30.712  22.960   5.555
10337POPC   PO460876  30.694  22.981   5.855
10337POPC   GL160877  30.682  22.979   6.155
10337POPC   GL260878  30.781  22.963   6.155
10337POPC   C1A60879  30.659  22.920   6.455
10337POPC   D2A60880  30.744  22.942   6.755
10337POPC   C3A60881  30.705  22.904   7.055
10337POPC   C4A60882  30.677  22.894   7.355
10337POPC   C1B60883  30.926  23.077   6.455
10337POPC   C2B60884  30.874  23.022   6.755
10337POPC   C3B60885  30.965  23.024   7.055
10337POPC   C4B60886  30.933  23.014   7.355
10338POPC   NC360887   7.452  30.648   5.555
10338POPC   PO460888   7.386  30.723   5.855
10338POPC   GL160889   7.414  30.732   6.155
10338POPC   GL260890   7.470  30.582   6.155
10338POPC   C1A60891   7.406  30.693   6.455
10338POPC   D2A60892   7.384  30.738   6.755
10338POPC   C3A60893   7.433  30.665   7.055
10338POPC   C4A60894   7.470  30.675   7.355
10338POPC   C1B60895   7.479  30.410   6.455
10338POPC   C2B60896   7.397  30.442   6.755
10338POPC   C3B60897   7.476  30.481   7.055
10338POPC   C4B60898   7.438  30.410   7.355
10339POPC   NC360899  41.525  27.601   5.555
10339POPC   PO460900  41.596  27.599   5.855
10339POPC   GL160901  41.591  27.557   6.155
10339POPC   GL260902  41.509  27.505   6.155
10339POPC   C1A60903  41.510  27.566   6.455
10339POPC   D2A60904  41.555  27.582   6.755
10339POPC   C3A60905  41.549  27.586   7.055
10339POPC   C4A60906  41.594  27.621   7.355
10339POPC   C1B60907  41.355  27.374   6.455
10339POPC   C2B60908  41.396  27.435   6.755
10339POPC   C3B60909  41.430  27.422   7.055
10339POPC   C4B60910  41.352  27.455   7.355
10340POPC   NC360911   3.519  13.649   5.555
10340POPC   PO460912   3.531  13.587   5.855
10340POPC   GL160913   3.576  13.650   6.155
10340POPC   GL260914   3.681  13.571   6.155
10340POPC   C1A60915   3.543  13.590   6.455
10340POPC   D2A60916   3.575  13.660   6.755
10340POPC   C3A60917   3.508  13.610   7.055
10340POPC   C4A60918   3.519  13.643   7.355
10340POPC   C1B60919   3.737  13.455   6.455
10340POPC   C2B60920   3.782  13.488   6.755
10340POPC   C3B60921   3.753  13.506   7.055
10340POPC   C4B60922   3.751  13.444   7.355
10341POPC   NC360923  27.564  37.664   5.555
10341POPC   PO460924  27.628  37.695   5.855
10341POPC   GL160925  27.626  37.637   6.155
10341POPC   GL260926  27.457  37.654   6.155
10341POPC   C1A60927  27.612  37.715   6.455
10341POPC   D2A60928  27.564  37.726   6.755
10341POPC   C3A60929  27.558  37.635   7.055
10341POPC   C4A60930  27.610  37.679   7.355
10341POPC   C1B60931  27.380  37.575   6.455
10341POPC   C2B60932  27.400  37.652   6.755
10341POPC   C3B60933  27.360  37.570   7.055
10341POPC   C4B60934  27.362  37.647   7.355
10342POPC   NC360935  34.593  16.702   5.555
10342POPC   PO460936  34.543  16.697   5.855
10342POPC   GL160937  34.575  16.698   6.155
10342POPC   GL260938  34.581  16.595   6.155
10342POPC   C1A60939  34.540  16.754   6.455
10342POPC   D2A60940  34.577  16.690   6.755
10342POPC   C3A60941  34.549  16.735   7.055
10342POPC   C4A60942  34.595  16.756   7.355
10342POPC   C1B60943  34.602  16.507   6.455
10342POPC   C2B60944  34.563  16.474   6.755
10342POPC   C3B60945  34.612  16.515   7.055
10342POPC   C4B60946  34.569  16.487   7.355
10343POPC   NC360947  43.084  11.275   5.555
10343POPC   PO460948  43.066  11.343   5.855
10343POPC   GL160949  43.107  11.270   6.155
10343POPC   GL260950  43.172  11.375   6.155
10343POPC   C1A60951  43.104  11.258   6.455
10343POPC   D2A60952  43.133  11.317   6.755
10343POPC   C3A60953  43.068  11.260   7.055
10343POPC   C4A60954  43.091  11.303   7.355
10343POPC   C1B60955  43.289  11.365   6.455
10343POPC   C2B60956  43.321  11.415   6.755
10343POPC   C3B60957  43.379  11.394   7.055
10343POPC   C4B60958  43.378  11.392   7.355
10344POPC   NC360959   9.748  38.493   5.555
10344POPC   PO460960   9.711  38.425   5.855
10344POPC   GL160961   9.745  38.498   6.155
10344POPC   GL260962   9.821  38.498   6.155
10344POPC   C1A60963   9.716  38.493   6.455
10344POPC   D2A60964   9.737  38.503   6.755
10344POPC   C3A60965   9.732  38.448   7.055
10344POPC   C4A60966   9.771  38.445   7.355
10344POPC   C1B60967  10.013  38.525   6.455
10344POPC   C2B60968   9.971  38.531   6.755
10344POPC   C3B60969   9.966  38.523   7.055
10344POPC   C4B60970   9.967  38.540   7.355
10345POPC   NC360971  13.593  10.537   5.555
10345POPC   PO460972  13.626  10.567   5.855
10345POPC   GL160973  13.606  10.532   6.155
10345POPC   GL260974  13.639  10.684   6.155
10345POPC   C1A60975  13.629  10.492   6.455
10345POPC   D2A60976  13.582  10.504   6.755
10345POPC   C3A60977  13.655  10.502   7.055
10345POPC   C4A60978  13.659  10.555   7.355
10345POPC   C1B60979  13.635  10.810   6.455
10345POPC   C2B60980  13.627  10.820   6.755
10345POPC   C3B60981  13.633  10.814   7.055
10345POPC   C4B60982  13.624  10.779   7.355
10346POPC   NC360983   9.730  32.224   5.555
10346POPC   PO460984   9.793  32.251   5.855
10346POPC   GL160985   9.737  32.228   6.155
10346POPC   GL260986   9.902  32.221   6.155
10346POPC   C1A60987   9.714  32.250   6.455
10346POPC   D2A60988   9.743  32.290   6.755
10346POPC   C3A60989   9.776  32.255   7.055
10346POPC   C4A60990   9.749  32.210   7.355
10346POPC   C1B60991   9.996  32.136   6.455
10346POPC   C2B60992   9.921  32.103   6.755
10346POPC   C3B60993   9.954  32.146   7.055
10346POPC   C4B60994   9.979  32.087   7.355
10347POPC   NC360995   8.988  26.021   5.555
10347POPC   PO460996   9.009  26.008   5.855
10347POPC   GL160997   9.001  26.014   6.155
10347POPC   GL260998   8.935  26.194   6.155
10347POPC   C1A60999   8.939  26.019   6.455
10347POPC   D2A61000   9.001  26.037   6.755
10347POPC   C3A61001   9.014  26.060   7.055
10347POPC   C4A61002   9.018  26.067   7.355
10347POPC   C1B61003   8.881  26.254   6.455
10347POPC   C2B61004   8.857  26.258   6.755
10347POPC   C3B61005   8.793  26.292   7.055
10347POPC   C4B61006   8.868  26.211   7.355
10348POPC   NC361007  28.364  12.071   5.555
10348POPC   PO461008  28.367  12.034   5.855
10348POPC   GL161009  28.372  12.101   6.155
10348POPC   GL261010  28.277  11.942   6.155
10348POPC   C1A61011  28.415  12.072   6.455
10348POPC   D2A61012  28.335  12.108   6.755
10348POPC   C3A61013  28.407  12.076   7.055
10348POPC   C4A61014  28.403  12.120   7.355
10348POPC   C1B61015  28.193  11.862   6.455
10348POPC   C2B61016  28.213  11.882   6.755
10348POPC   C3B61017  28.232  11.858   7.055
10348POPC   C4B61018  28.193  11.845   7.355
10349POPC   NC361019  22.179  43.918   5.555
10349POPC   PO461020  22.122  43.888   5.855
10349POPC   GL161021  22.183  43.848   6.155
10349POPC   GL261022  22.260  43.965   6.155
10349POPC   C1A61023  22.184  43.908   6.455
10349POPC   D2A61024  22.137  43.855   6.755
10349POPC   C3A61025  22.116  43.871   7.055
10349POPC   C4A61026  22.144  43.893   7.355
10349POPC   C1B61027  22.289  44.118   6.455
10349POPC   C2B61028  22.320  44.109   6.755
10349POPC   C3B61029  22.351  44.114   7.055
10349POPC   C4B61030  22.345  44.072   7.355
10350POPC   NC361031  23.685   6.626   5.555
10350POPC   PO461032  23.759   6.597   5.855
10350POPC   GL161033  23.724   6.642   6.155
10350POPC   GL261034  23.572   6.576   6.155
10350POPC   C1A61035  23.686   6.606   6.455
10350POPC   D2A61036  23.721   6.645   6.755
10350POPC   C3A61037  23.735   6.620   7.055
10350POPC   C4A61038  23.701   6.693   7.355
10350POPC   C1B61039  23.487   6.551   6.455
10350POPC   C2B61040  23.500   6.558   6.755
10350POPC   C3B61041  23.456   6.482   7.055
10350POPC   C4B61042  23.502   6.532   7.355
10351POPC   NC361043  25.249  34.549   5.555
10351POPC   PO461044  25.286  34.543   5.855
10351POPC   GL161045  25.315  34.534   6.155
10351POPC   GL261046  25.389  34.493   6.155
10351POPC   C1A61047  25.295  34.600   6.455
10351POPC   D2A61048  25.267  34.589   6.755
10351POPC   C3A61049  25.292  34.551   7.055
10351POPC   C4A61050  25.295  34.545   7.355
10351POPC   C1B61051  25.455  34.478   6.455
10351POPC   C2B61052  25.482  34.438   6.755
10351POPC   C3B61053  25.510  34.441   7.055
10351POPC   C4B61054  25.487  34.480   7.355
10352POPC   NC361055  27.629  10.568   5.555
10352POPC   PO461056  27.573  10.543   5.855
10352POPC   GL161057  27.603  10.559   6.155
10352POPC   GL261058  27.501  10.621   6.155
10352POPC   C1A61059  27.642  10.562   6.455
10352POPC   D2A61060  27.596  10.568   6.755
10352POPC   C3A61061  27.561  10.539   7.055
10352POPC   C4A61062  27.635  10.565   7.355
10352POPC   C1B61063  27.509  10.724   6.455
10352POPC   C2B61064  27.444  10.768   6.755
10352POPC   C3B61065  27.492  10.792   7.055
10352POPC   C4B61066  27.486  10.771   7.355
10353POPC   NC361067  43.139  19.062   5.555
10353POPC   PO461068  43.130  19.032   5.855
10353POPC   GL161069  43.090  19.061   6.155
10353POPC   GL261070  42.956  19.086   6.155
10353POPC   C1A61071  43.069  19.009   6.455
10353POPC   D2A61072  43.149  19.039   6.755
10353POPC   C3A61073  43.121  19.067   7.055
10353POPC   C4A61074  43.127  19.024   7.355
10353POPC   C1B61075  42.869  19.121   6.455
10353POPC   C2B61076  42.869  19.118   6.755
10353POPC   C3B61077  42.870  19.138   7.055
10353POPC   C4B61078  42.885  19.071   7.355
10354POPC   NC361079  27.580  27.633   5.555
10354POPC   PO461080  27.577  27.617   5.855
10354POPC   GL161081  27.628  27.548   6.155
10354POPC   GL261082  27.605  27.681   6.155
10354POPC   C1A61083  27.632  27.584   6.455
10354POPC   D2A61084  27.626  27.598   6.755
10354POPC   C3A61085  27.558  27.576   7.055
10354POPC   C4A61086  27.553  27.558   7.355
10354POPC   C1B61087  27.641  27.850   6.455
10354POPC   C2B61088  27.638  27.881   6.755
10354POPC   C3B61089  27.611  27.809   7.055
10354POPC   C4B61090  27.643  27.816   7.355
10355POPC   NC361091  14.409  38.496   5.555
10355POPC   PO461092  14.393  38.444   5.855
10355POPC   GL161093  14.364  38.437   6.155
10355POPC   GL261094  14.560  38.439   6.155
10355POPC   C1A61095  14.368  38.413   6.455
10355POPC   D2A61096  14.427  38.490   6.755
10355POPC   C3A61097  14.440  38.491   7.055
10355POPC   C4A61098  14.431  38.482   7.355
10355POPC   C1B61099  14.636  38.314   6.455
10355POPC   C2B61100  14.582  38.343   6.755
10355POPC   C3B61101  14.590  38.393   7.055
10355POPC   C4B61102  14.663  38.326   7.355
10356POPC   NC361103  25.229   5.108   5.555
10356POPC   PO461104  25.303   5.139   5.855
10356POPC   GL161105  25.304   5.104   6.155
10356POPC   GL261106  25.308   4.995   6.155
10356POPC   C1A61107  25.240   5.051   6.455
10356POPC   D2A61108  25.222   5.055   6.755
10356POPC   C3A61109  25.249   5.136   7.055
10356POPC   C4A61110  25.225   5.104   7.355
10356POPC   C1B61111  25.347   4.856   6.455
10356POPC   C2B61112  25.405   4.919   6.755
10356POPC   C3B61113  25.406   4.917   7.055
10356POPC   C4B61114  25.367   4.866   7.355
10357POPC   NC361115  40.009  20.591   5.555
10357POPC   PO461116  39.996  20.610   5.855
10357POPC   GL161117  40.046  20.564   6.155
10357POPC   GL261118  40.027  20.526   6.155
10357POPC   C1A61119  40.004  20.645   6.455
10357POPC   D2A61120  39.982  20.587   6.755
10357POPC   C3A61121  39.959  20.610   7.055
10357POPC   C4A61122  39.985  20.610   7.355
10357POPC   C1B61123  40.002  20.349   6.455
10357POPC   C2B61124  39.942  20.408   6.755
10357POPC   C3B61125  39.999  20.333   7.055
10357POPC   C4B61126  40.010  20.316   7.355
10358POPC   NC361127   1.259  43.102   5.555
10358POPC   PO461128   1.185  43.093   5.855
10358POPC   GL161129   1.185  43.110   6.155
10358POPC   GL261130   1.238  43.007   6.155
10358POPC   C1A61131   1.252  43.141   6.455
10358POPC   D2A61132   1.233  43.140   6.755
10358POPC   C3A61133   1.260  43.155   7.055
10358POPC   C4A61134   1.241  43.104   7.355
10358POPC   C1B61135   1.346  42.873   6.455
10358POPC   C2B61136   1.385  42.855   6.755
10358POPC   C3B61137   1.323  42.904   7.055
10358POPC   C4B61138   1.385  42.900   7.355
10359POPC   NC361139  25.252  38.421   5.555
10359POPC   PO461140  25.259  38.465   5.855
10359POPC   GL161141  25.250  38.485   6.155
10359POPC   GL261142  25.211  38.548   6.155
10359POPC   C1A61143  25.279  38.471   6.455
10359POPC   D2A61144  25.220  38.496   6.755
10359POPC   C3A61145  25.218  38.479   7.055
10359POPC   C4A61146  25.228  38.454   7.355
10359POPC   C1B61147  25.071  38.685   6.455
10359POPC   C2B61148  25.102  38.665   6.755
10359POPC   C3B61149  25.123  38.605   7.055
10359POPC   C4B61150  25.066  38.680   7.355
10360POPC   NC361151  41.530   0.421   5.555
10360POPC   PO461152  41.590   0.408   5.855
10360POPC   GL161153  41.527   0.399   6.155
10360POPC   GL261154  41.441   0.463   6.155
10360POPC   C1A61155  41.550   0.481   6.455
10360POPC   D2A61156  41.599   0.428   6.755
10360POPC   C3A61157  41.601   0.433   7.055
10360POPC   C4A61158  41.575   0.434   7.355
10360POPC   C1B61159  41.277   0.476   6.455
10360POPC   C2B61160  41.355   0.527   6.755
10360POPC   C3B61161  41.318   0.542   7.055
10360POPC   C4B61162  41.288   0.502   7.355
10361POPC   NC361163  26.087  17.541   5.555
10361POPC   PO461164  26.043  17.494   5.855
10361POPC   GL161165  26.025  17.550   6.155
10361POPC   GL261166  25.891  17.595   6.155
10361POPC   C1A61167  26.023  17.473   6.455
10361POPC   D2A61168  26.031  17.465   6.755
10361POPC   C3A61169  25.995  17.476   7.055
10361POPC   C4A61170  26.061  17.520   7.355
10361POPC   C1B61171  25.855  17.597   6.455
10361POPC   C2B61172  25.841  17.629   6.755
10361POPC   C3B61173  25.759  17.630   7.055
10361POPC   C4B61174  25.833  17.644   7.355
10362POPC   NC361175   5.061  26.814   5.555
10362POPC   PO461176   5.078  26.823   5.855
10362POPC   GL161177   5.046  26.796   6.155
10362POPC   GL261178   5.139  26.894   6.155
10362POPC   C1A61179   5.058  26.783   6.455
10362POPC   D2A61180   5.065  26.827   6.755
10362POPC   C3A61181   5.093  26.810   7.055
10362POPC   C4A61182   5.054  26.836   7.355
10362POPC   C1B61183   5.203  27.073   6.455
10362POPC   C2B61184   5.232  27.021   6.755
10362POPC   C3B61185   5.224  27.047   7.055
10362POPC   C4B61186   5.222  27.052   7.355
10363POPC   NC361187  26.800  39.236   5.555
10363POPC   PO461188  26.828  39.238   5.855
10363POPC   GL161189  26.859  39.193   6.155
10363POPC   GL261190  26.910  39.351   6.155
10363POPC   C1A61191  26.790  39.234   6.455
10363POPC   D2A61192  26.825  39.219   6.755
10363POPC   C3A61193  26.793  39.248   7.055
10363POPC   C4A61194  26.806  39.264   7.355
10363POPC   C1B61195  26.942  39.379   6.455
10363POPC   C2B61196  26.982  39.383   6.755
10363POPC   C3B61197  26.962  39.455   7.055
10363POPC   C4B61198  26.953  39.417   7.355
10364POPC   NC361199  40.034  30.693   5.555
10364POPC   PO461200  40.012  30.657   5.855
10364POPC   GL161201  39.995  30.657   6.155
10364POPC   GL261202  39.975  30.834   6.155
10364POPC   C1A61203  40.034  30.684   6.455
10364POPC   D2A61204  39.998  30.712   6.755
10364POPC   C3A61205  39.991  30.674   7.055
10364POPC   C4A61206  40.015  30.724   7.355
10364POPC   C1B61207  39.939  30.968   6.455
10364POPC   C2B61208  39.920  30.920   6.755
10364POPC   C3B61209  39.915  30.955   7.055
10364POPC   C4B61210  39.929  30.968   7.355
10365POPC   NC361211  12.097  18.285   5.555
10365POPC   PO461212  12.027  18.236   5.855
10365POPC   GL161213  12.099  18.315   6.155
10365POPC   GL261214  12.023  18.413   6.155
10365POPC   C1A61215  12.118  18.312   6.455
10365POPC   D2A61216  12.074  18.286   6.755
10365POPC   C3A61217  12.056  18.306   7.055
10365POPC   C4A61218  12.101  18.267   7.355
10365POPC   C1B61219  11.911  18.461   6.455
10365POPC   C2B61220  11.919  18.502   6.755
10365POPC   C3B61221  11.919  18.482   7.055
10365POPC   C4B61222  11.916  18.415   7.355
10366POPC   NC361223  23.711  36.906   5.555
10366POPC   PO461224  23.714  36.891   5.855
10366POPC   GL161225  23.665  36.873   6.155
10366POPC   GL261226  23.597  36.834   6.155
10366POPC   C1A61227  23.687  36.865   6.455
10366POPC   D2A61228  23.706  36.868   6.755
10366POPC   C3A61229  23.742  36.859   7.055
10366POPC   C4A61230  23.727  36.894   7.355
10366POPC   C1B61231  23.578  36.687   6.455
10366POPC   C2B61232  23.511  36.699   6.755
10366POPC   C3B61233  23.533  36.715   7.055
10366POPC   C4B61234  23.509  36.724   7.355
10367POPC   NC361235  15.999  41.509   5.555
10367POPC   PO461236  15.945  41.535   5.855
10367POPC   GL161237  15.987  41.515   6.155
10367POPC   GL261238  16.015  41.623   6.155
10367POPC   C1A61239  15.955  41.559   6.455
10367POPC   D2A61240  15.915  41.510   6.755
10367POPC   C3A61241  15.954  41.587   7.055
10367POPC   C4A61242  15.955  41.553   7.355
10367POPC   C1B61243  16.096  41.827   6.455
10367POPC   C2B61244  16.080  41.754   6.755
10367POPC   C3B61245  16.089  41.765   7.055
10367POPC   C4B61246  16.095  41.815   7.355
10368POPC   NC361247  20.610  10.483   5.555
10368POPC   PO461248  20.648  10.494   5.855
10368POPC   GL161249  20.607  10.568   6.155
10368POPC   GL261250  20.762  10.458   6.155
10368POPC   C1A61251  20.565  10.538   6.455
10368POPC   D2A61252  20.591  10.484   6.755
10368POPC   C3A61253  20.580  10.527   7.055
10368POPC   C4A61254  20.574  10.495   7.355
10368POPC   C1B61255  20.833  10.387   6.455
10368POPC   C2B61256  20.832  10.435   6.755
10368POPC   C3B61257  20.781  10.406   7.055
10368POPC   C4B61258  20.862  10.362   7.355
10369POPC   NC361259  14.441  36.878   5.555
10369POPC   PO461260  14.404  36.869   5.855
10369POPC   GL161261  14.452  36.860   6.155
10369POPC   GL261262  14.391  36.988   6.155
10369POPC   C1A61263  14.406  36.911   6.455
10369POPC   D2A61264  14.440  36.888   6.755
10369POPC   C3A61265  14.364  36.909   7.055
10369POPC   C4A61266  14.395  36.929   7.355
10369POPC   C1B61267  14.310  37.154   6.455
10369POPC   C2B61268  14.337  37.170   6.755
10369POPC   C3B61269  14.337  37.186   7.055
10369POPC   C4B61270  14.312  37.112   7.355
10370POPC   NC361271  28.369  41.570   5.555
10370POPC   PO461272  28.328  41.607   5.855
10370POPC   GL161273  28.398  41.598   6.155
10370POPC   GL261274  28.495  41.497   6.155
10370POPC   C1A61275  28.325  41.589   6.455
10370POPC   D2A61276  28.376  41.536   6.755
10370POPC   C3A61277  28.348  41.514   7.055
10370POPC   C4A61278  28.350  41.586   7.355
10370POPC   C1B61279  28.592  41.569   6.455
10370POPC   C2B61280  28.600  41.499   6.755
10370POPC   C3B61281  28.591  41.513   7.055
10370POPC   C4B61282  28.572  41.532   7.355
10371POPC   NC361283  34.555  25.308   5.555
10371POPC   PO461284  34.619  25.220   5.855
10371POPC   GL161285  34.563  25.220   6.155
10371POPC   GL261286  34.519  25.143   6.155
10371POPC   C1A61287  34.591  25.235   6.455
10371POPC   D2A61288  34.569  25.257   6.755
10371POPC   C3A61289  34.568  25.302   7.055
10371POPC   C4A61290  34.604  25.218   7.355
10371POPC   C1B61291  34.500  25.007   6.455
10371POPC   C2B61292  34.552  25.046   6.755
10371POPC   C3B61293  34.516  25.006   7.055
10371POPC   C4B61294  34.478  25.001   7.355
10372POPC   NC361295   6.680  42.327   5.555
10372POPC   PO461296   6.618  42.343   5.855
10372POPC   GL161297   6.603  42.323   6.155
10372POPC   GL261298   6.519  42.359   6.155
10372POPC   C1A61299   6.630  42.361   6.455
10372POPC   D2A61300   6.642  42.377   6.755
10372POPC   C3A61301   6.601  42.328   7.055
10372POPC   C4A61302   6.670  42.356   7.355
10372POPC   C1B61303   6.456  42.469   6.455
10372POPC   C2B61304   6.436  42.410   6.755
10372POPC   C3B61305   6.446  42.449   7.055
10372POPC   C4B61306   6.366  42.429   7.355
10373POPC   NC361307  40.797  15.972   5.555
10373POPC   PO461308  40.768  15.968   5.855
10373POPC   GL161309  40.803  15.951   6.155
10373POPC   GL261310  40.689  15.822   6.155
10373POPC   C1A61311  40.823  16.004   6.455
10373POPC   D2A61312  40.772  16.004   6.755
10373POPC   C3A61313  40.773  15.987   7.055
10373POPC   C4A61314  40.771  15.953   7.355
10373POPC   C1B61315  40.676  15.788   6.455
10373POPC   C2B61316  40.625  15.742   6.755
10373POPC   C3B61317  40.640  15.712   7.055
10373POPC   C4B61318  40.662  15.716   7.355
10374POPC   NC361319   5.906   2.757   5.555
10374POPC   PO461320   5.901   2.717   5.855
10374POPC   GL161321   5.899   2.793   6.155
10374POPC   GL261322   5.842   2.633   6.155
10374POPC   C1A61323   5.885   2.814   6.455
10374POPC   D2A61324   5.854   2.726   6.755
10374POPC   C3A61325   5.883   2.801   7.055
10374POPC   C4A61326   5.877   2.794   7.355
10374POPC   C1B61327   5.895   2.538   6.455
10374POPC   C2B61328   5.868   2.474   6.755
10374POPC   C3B61329   5.877   2.534   7.055
10374POPC   C4B61330   5.838   2.545   7.355
10375POPC   NC361331  39.984   5.911   5.555
10375POPC   PO461332  40.013   5.867   5.855
10375POPC   GL161333  40.022   5.862   6.155
10375POPC   GL261334  39.883   5.932   6.155
10375POPC   C1A61335  40.020   5.895   6.455
10375POPC   D2A61336  40.013   5.897   6.755
10375POPC   C3A61337  40.037   5.836   7.055
10375POPC   C4A61338  40.052   5.834   7.355
10375POPC   C1B61339  39.796   6.041   6.455
10375POPC   C2B61340  39.805   6.045   6.755
10375POPC   C3B61341  39.847   6.041   7.055
10375POPC   C4B61342  39.807   6.045   7.355
10376POPC   NC361343   9.783  10.483   5.555
10376POPC   PO461344   9.786  10.480   5.855
10376POPC   GL161345   9.796  10.496   6.155
10376POPC   GL261346   9.801  10.619   6.155
10376POPC   C1A61347   9.780  10.540   6.455
10376POPC   D2A61348   9.731  10.563   6.755
10376POPC   C3A61349   9.700  10.509   7.055
10376POPC   C4A61350   9.793  10.560   7.355
10376POPC   C1B61351   9.883  10.732   6.455
10376POPC   C2B61352   9.937  10.689   6.755
10376POPC   C3B61353   9.886  10.709   7.055
10376POPC   C4B61354   9.892  10.710   7.355
10377POPC   NC361355  29.956  20.628   5.555
10377POPC   PO461356  29.889  20.576   5.855
10377POPC   GL161357  29.894  20.565   6.155
10377POPC   GL261358  29.811  20.650   6.155
10377POPC   C1A61359  29.967  20.629   6.455
10377POPC   D2A61360  29.963  20.642   6.755
10377POPC   C3A61361  29.921  20.562   7.055
10377POPC   C4A61362  29.934  20.569   7.355
10377POPC   C1B61363  29.760  20.787   6.455
10377POPC   C2B61364  29.696  20.725   6.755
10377POPC   C3B61365  29.722  20.728   7.055
10377POPC   C4B61366  29.702  20.784   7.355
10378POPC   NC361367  37.686  16.762   5.555
10378POPC   PO461368  37.688  16.731   5.855
10378POPC   GL161369  37.701  16.746   6.155
10378POPC   GL261370  37.707  16.650   6.155
10378POPC   C1A61371  37.722  16.693   6.455
10378POPC   D2A61372  37.677  16.690   6.755
10378POPC   C3A61373  37.644  16.688   7.055
10378POPC   C4A61374  37.713  16.750   7.355
10378POPC   C1B61375  37.633  16.511   6.455
10378POPC   C2B61376  37.674  16.526   6.755
10378POPC   C3B61377  37.641  16.517   7.055
10378POPC   C4B61378  37.607  16.483   7.355
10379POPC   NC361379   3.505  12.112   5.555
10379POPC   PO461380   3.496  12.090   5.855
10379POPC   GL161381   3.521  12.093   6.155
10379POPC   GL261382   3.573  11.948   6.155
10379POPC   C1A61383   3.514  12.086   6.455
10379POPC   D2A61384   3.578  12.046   6.755
10379POPC   C3A61385   3.496  12.038   7.055
10379POPC   C4A61386   3.504  12.119   7.355
10379POPC   C1B61387   3.668  11.838   6.455
10379POPC   C2B61388   3.676  11.869   6.755
10379POPC   C3B61389   3.673  11.819   7.055
10379POPC   C4B61390   3.630  11.834   7.355
10380POPC   NC361391  20.581   1.241   5.555
10380POPC   PO461392  20.607   1.218   5.855
10380POPC   GL161393  20.626   1.191   6.155
10380POPC   GL261394  20.682   1.322   6.155
10380POPC   C1A61395  20.643   1.197   6.455
10380POPC   D2A61396  20.574   1.249   6.755
10380POPC   C3A61397  20.620   1.234   7.055
10380POPC   C4A61398  20.631   1.167   7.355
10380POPC   C1B61399  20.858   1.362   6.455
10380POPC   C2B61400  20.848   1.344   6.755
10380POPC   C3B61401  20.829   1.392   7.055
10380POPC   C4B61402  20.835   1.373   7.355
10381POPC   NC361403   5.056  17.479   5.555
10381POPC   PO461404   5.134  17.490   5.855
10381POPC   GL161405   5.138  17.498   6.155
10381POPC   GL261406   4.978  17.624   6.155
10381POPC   C1A61407   5.084  17.505   6.455
10381POPC   D2A61408   5.066  17.498   6.755
10381POPC   C3A61409   5.138  17.527   7.055
10381POPC   C4A61410   5.066  17.504   7.355
10381POPC   C1B61411   4.989  17.674   6.455
10381POPC   C2B61412   4.939  17.723   6.755
10381POPC   C3B61413   4.938  17.763   7.055
10381POPC   C4B61414   4.931  17.725   7.355
10382POPC   NC361415  44.669  37.665   5.555
10382POPC   PO461416  44.687  37.673   5.855
10382POPC   GL161417  44.617  37.664   6.155
10382POPC   GL261418  44.512  37.596   6.155
10382POPC   C1A61419  44.625  37.658   6.455
10382POPC   D2A61420  44.679  37.649   6.755
10382POPC   C3A61421  44.692  37.666   7.055
10382POPC   C4A61422  44.618  37.724   7.355
10382POPC   C1B61423  44.406  37.546   6.455
10382POPC   C2B61424  44.443  37.567   6.755
10382POPC   C3B61425  44.406  37.591   7.055
10382POPC   C4B61426  44.392  37.536   7.355
10383POPC   NC361427  21.410   9.711   5.555
10383POPC   PO461428  21.381   9.770   5.855
10383POPC   GL161429  21.396   9.709   6.155
10383POPC   GL261430  21.443   9.662   6.155
10383POPC   C1A61431  21.395   9.699   6.455
10383POPC   D2A61432  21.434   9.702   6.755
10383POPC   C3A61433  21.383   9.726   7.055
10383POPC   C4A61434  21.342   9.794   7.355
10383POPC   C1B61435  21.417   9.555   6.455
10383POPC   C2B61436  21.479   9.495   6.755
10383POPC   C3B61437  21.458   9.552   7.055
10383POPC   C4B61438  21.424   9.513   7.355
10384POPC   NC361439   5.129  22.889   5.555
10384POPC   PO461440   5.085  22.952   5.855
10384POPC   GL161441   5.048  22.900   6.155
10384POPC   GL261442   5.131  23.078   6.155
10384POPC   C1A61443   5.056  22.921   6.455
10384POPC   D2A61444   5.073  22.943   6.755
10384POPC   C3A61445   5.044  22.980   7.055
10384POPC   C4A61446   5.119  22.935   7.355
10384POPC   C1B61447   5.118  23.172   6.455
10384POPC   C2B61448   5.116  23.212   6.755
10384POPC   C3B61449   5.122  23.233   7.055
10384POPC   C4B61450   5.122  23.151   7.355
10385POPC   NC361451  25.229   4.332   5.555
10385POPC   PO461452  25.243   4.340   5.855
10385POPC   GL161453  25.236   4.318   6.155
10385POPC   GL261454  25.168   4.233   6.155
10385POPC   C1A61455  25.289   4.349   6.455
10385POPC   D2A61456  25.297   4.294   6.755
10385POPC   C3A61457  25.249   4.353   7.055
10385POPC   C4A61458  25.302   4.292   7.355
10385POPC   C1B61459  25.053   4.194   6.455
10385POPC   C2B61460  24.993   4.252   6.755
10385POPC   C3B61461  25.008   4.217   7.055
10385POPC   C4B61462  25.031   4.164   7.355
10386POPC   NC361463  36.084  26.784   5.555
10386POPC   PO461464  36.153  26.775   5.855
10386POPC   GL161465  36.146  26.866   6.155
10386POPC   GL261466  36.216  26.750   6.155
10386POPC   C1A61467  36.168  26.818   6.455
10386POPC   D2A61468  36.094  26.823   6.755
10386POPC   C3A61469  36.116  26.832   7.055
10386POPC   C4A61470  36.169  26.848   7.355
10386POPC   C1B61471  36.318  26.625   6.455
10386POPC   C2B61472  36.335  26.663   6.755
10386POPC   C3B61473  36.299  26.669   7.055
10386POPC   C4B61474  36.265  26.611   7.355
10387POPC   NC361475  38.413  40.807   5.555
10387POPC   PO461476  38.452  40.768   5.855
10387POPC   GL161477  38.439  40.741   6.155
10387POPC   GL261478  38.312  40.682   6.155
10387POPC   C1A61479  38.456  40.756   6.455
10387POPC   D2A61480  38.430  40.813   6.755
10387POPC   C3A61481  38.487  40.773   7.055
10387POPC   C4A61482  38.420  40.745   7.355
10387POPC   C1B61483  38.219  40.614   6.455
10387POPC   C2B61484  38.289  40.611   6.755
10387POPC   C3B61485  38.210  40.662   7.055
10387POPC   C4B61486  38.239  40.670   7.355
10388POPC   NC361487  32.235  23.691   5.555
10388POPC   PO461488  32.283  23.739   5.855
10388POPC   GL161489  32.297  23.736   6.155
10388POPC   GL261490  32.328  23.642   6.155
10388POPC   C1A61491  32.210  23.757   6.455
10388POPC   D2A61492  32.198  23.688   6.755
10388POPC   C3A61493  32.219  23.708   7.055
10388POPC   C4A61494  32.222  23.712   7.355
10388POPC   C1B61495  32.448  23.645   6.455
10388POPC   C2B61496  32.475  23.633   6.755
10388POPC   C3B61497  32.448  23.645   7.055
10388POPC   C4B61498  32.467  23.622   7.355
10389POPC   NC361499  11.317  27.567   5.555
10389POPC   PO461500  11.330  27.579   5.855
10389POPC   GL161501  11.271  27.546   6.155
10389POPC   GL261502  11.414  27.656   6.155
10389POPC   C1A61503  11.318  27.593   6.455
10389POPC   D2A61504  11.264  27.559   6.755
10389POPC   C3A61505  11.333  27.604   7.055
10389POPC   C4A61506  11.337  27.555   7.355
10389POPC   C1B61507  11.515  27.684   6.455
10389POPC   C2B61508  11.551  27.721   6.755
10389POPC   C3B61509  11.582  27.716   7.055
10389POPC   C4B61510  11.569  27.682   7.355
10390POPC   NC361511  29.890   1.961   5.555
10390POPC   PO461512  29.916   1.967   5.855
10390POPC   GL161513  29.933   2.034   6.155
10390POPC   GL261514  29.992   2.019   6.155
10390POPC   C1A61515  29.873   2.035   6.455
10390POPC   D2A61516  29.941   1.954   6.755
10390POPC   C3A61517  29.941   2.017   7.055
10390POPC   C4A61518  29.932   1.968   7.355
10390POPC   C1B61519  30.123   2.043   6.455
10390POPC   C2B61520  30.120   2.062   6.755
10390POPC   C3B61521  30.152   2.084   7.055
10390POPC   C4B61522  30.193   2.088   7.355
10391POPC   NC361523  17.529   2.815   5.555
10391POPC   PO461524  17.540   2.781   5.855
10391POPC   GL161525  17.502   2.723   6.155
10391POPC   GL261526  17.430   2.603   6.155
10391POPC   C1A61527  17.556   2.795   6.455
10391POPC   D2A61528  17.518   2.760   6.755
10391POPC   C3A61529  17.495   2.782   7.055
10391POPC   C4A61530  17.468   2.788   7.355
10391POPC   C1B61531  17.441   2.492   6.455
10391POPC   C2B61532  17.466   2.512   6.755
10391POPC   C3B61533  17.484   2.504   7.055
10391POPC   C4B61534  17.401   2.495   7.355
10392POPC   NC361535  43.856  20.632   5.555
10392POPC   PO461536  43.845  20.562   5.855
10392POPC   GL161537  43.894  20.565   6.155
10392POPC   GL261538  44.002  20.657   6.155
10392POPC   C1A61539  43.858  20.616   6.455
10392POPC   D2A61540  43.858  20.617   6.755
10392POPC   C3A61541  43.849  20.585   7.055
10392POPC   C4A61542  43.843  20.648   7.355
10392POPC   C1B61543  44.133  20.624   6.455
10392POPC   C2B61544  44.089  20.583   6.755
10392POPC   C3B61545  44.149  20.624   7.055
10392POPC   C4B61546  44.105  20.650   7.355
10393POPC   NC361547  14.430  34.616   5.555
10393POPC   PO461548  14.444  34.614   5.855
10393POPC   GL161549  14.388  34.624   6.155
10393POPC   GL261550  14.300  34.479   6.155
10393POPC   C1A61551  14.444  34.584   6.455
10393POPC   D2A61552  14.382  34.612   6.755
10393POPC   C3A61553  14.412  34.584   7.055
10393POPC   C4A61554  14.412  34.601   7.355
10393POPC   C1B61555  14.263  34.336   6.455
10393POPC   C2B61556  14.219  34.356   6.755
10393POPC   C3B61557  14.256  34.339   7.055
10393POPC   C4B61558  14.275  34.351   7.355
10394POPC   NC361559  21.411  37.701   5.555
10394POPC   PO461560  21.374  37.674   5.855
10394POPC   GL161561  21.411  37.712   6.155
10394POPC   GL261562  21.518  37.809   6.155
10394POPC   C1A61563  21.423  37.684   6.455
10394POPC   D2A61564  21.390  37.675   6.755
10394POPC   C3A61565  21.403  37.629   7.055
10394POPC   C4A61566  21.416  37.675   7.355
10394POPC   C1B61567  21.537  37.827   6.455
10394POPC   C2B61568  21.529  37.839   6.755
10394POPC   C3B61569  21.598  37.871   7.055
10394POPC   C4B61570  21.535  37.861   7.355
10395POPC   NC361571  19.082  10.475   5.555
10395POPC   PO461572  19.097  10.563   5.855
10395POPC   GL161573  19.088  10.487   6.155
10395POPC   GL261574  19.178  10.416   6.155
10395POPC   C1A61575  19.064  10.531   6.455
10395POPC   D2A61576  19.029  10.491   6.755
10395POPC   C3A61577  19.020  10.513   7.055
10395POPC   C4A61578  19.101  10.490   7.355
10395POPC   C1B61579  19.321  10.446   6.455
10395POPC   C2B61580  19.297  10.452   6.755
10395POPC   C3B61581  19.245  10.371   7.055
10395POPC   C4B61582  19.265  10.401   7.355
10396POPC   NC361583  31.439   3.517   5.555
10396POPC   PO461584  31.517   3.505   5.855
10396POPC   GL161585  31.490   3.529   6.155
10396POPC   GL261586  31.539   3.449   6.155
10396POPC   C1A61587  31.518   3.568   6.455
10396POPC   D2A61588  31.514   3.538   6.755
10396POPC   C3A61589  31.493   3.567   7.055
10396POPC   C4A61590  31.516   3.577   7.355
10396POPC   C1B61591  31.552   3.308   6.455
10396POPC   C2B61592  31.554   3.264   6.755
10396POPC   C3B61593  31.573   3.257   7.055
10396POPC   C4B61594  31.526   3.262   7.355
10397POPC   NC361595  38.503  44.627   5.555
10397POPC   PO461596  38.431  44.667   5.855
10397POPC   GL161597  38.440  44.665   6.155
10397POPC   GL261598  38.361  44.785   6.155
10397POPC   C1A61599  38.442  44.620   6.455
10397POPC   D2A61600  38.434  44.671   6.755
10397POPC   C3A61601  38.423  44.682   7.055
10397POPC   C4A61602  38.483  44.672   7.355
10397POPC   C1B61603  38.313  44.890   6.455
10397POPC   C2B61604  38.341  44.903   6.755
10397POPC   C3B61605  38.269  44.875   7.055
10397POPC   C4B61606  38.272  44.861   7.355
10398POPC   NC361607   0.412   3.580   5.555
10398POPC   PO461608   0.443   3.527   5.855
10398POPC   GL161609   0.447   3.520   6.155
10398POPC   GL261610   0.538   3.527   6.155
10398POPC   C1A61611   0.423   3.574   6.455
10398POPC   D2A61612   0.468   3.525   6.755
10398POPC   C3A61613   0.413   3.546   7.055
10398POPC   C4A61614   0.398   3.546   7.355
10398POPC   C1B61615   0.627   3.412   6.455
10398POPC   C2B61616   0.711   3.507   6.755
10398POPC   C3B61617   0.697   3.436   7.055
10398POPC   C4B61618   0.672   3.508   7.355
10399POPC   NC361619   0.420  12.075   5.555
10399POPC   PO461620   0.444  12.088   5.855
10399POPC   GL161621   0.427  12.065   6.155
10399POPC   GL261622   0.352  12.075   6.155
10399POPC   C1A61623   0.403  12.068   6.455
10399POPC   D2A61624   0.438  12.084   6.755
10399POPC   C3A61625   0.482  12.092   7.055
10399POPC   C4A61626   0.465  12.067   7.355
10399POPC   C1B61627   0.240  12.050   6.455
10399POPC   C2B61628   0.182  11.976   6.755
10399POPC   C3B61629   0.192  12.053   7.055
10399POPC   C4B61630   0.172  11.996   7.355
10400POPC   NC361631  11.261  43.078   5.555
10400POPC   PO461632  11.336  43.081   5.855
10400POPC   GL161633  11.263  43.108   6.155
10400POPC   GL261634  11.445  43.126   6.155
10400POPC   C1A61635  11.320  43.073   6.455
10400POPC   D2A61636  11.301  43.111   6.755
10400POPC   C3A61637  11.336  43.112   7.055
10400POPC   C4A61638  11.344  43.093   7.355
10400POPC   C1B61639  11.525  43.174   6.455
10400POPC   C2B61640  11.505  43.136   6.755
10400POPC   C3B61641  11.571  43.139   7.055
10400POPC   C4B61642  11.583  43.171   7.355
10401POPC   NC361643  42.285  19.823   5.555
10401POPC   PO461644  42.344  19.805   5.855
10401POPC   GL161645  42.291  19.848   6.155
10401POPC   GL261646  42.430  19.958   6.155
10401POPC   C1A61647  42.348  19.859   6.455
10401POPC   D2A61648  42.355  19.869   6.755
10401POPC   C3A61649  42.323  19.846   7.055
10401POPC   C4A61650  42.286  19.868   7.355
10401POPC   C1B61651  42.531  20.018   6.455
10401POPC   C2B61652  42.496  20.074   6.755
10401POPC   C3B61653  42.453  20.065   7.055
10401POPC   C4B61654  42.514  20.074   7.355
10402POPC   NC361655  39.194  17.501   5.555
10402POPC   PO461656  39.187  17.528   5.855
10402POPC   GL161657  39.273  17.554   6.155
10402POPC   GL261658  39.096  17.467   6.155
10402POPC   C1A61659  39.256  17.550   6.455
10402POPC   D2A61660  39.274  17.547   6.755
10402POPC   C3A61661  39.237  17.546   7.055
10402POPC   C4A61662  39.223  17.513   7.355
10402POPC   C1B61663  38.978  17.400   6.455
10402POPC   C2B61664  38.953  17.411   6.755
10402POPC   C3B61665  39.003  17.476   7.055
10402POPC   C4B61666  39.018  17.423   7.355
10403POPC   NC361667  17.495  33.782   5.555
10403POPC   PO461668  17.490  33.774   5.855
10403POPC   GL161669  17.518  33.803   6.155
10403POPC   GL261670  17.432  33.891   6.155
10403POPC   C1A61671  17.467  33.780   6.455
10403POPC   D2A61672  17.488  33.796   6.755
10403POPC   C3A61673  17.513  33.809   7.055
10403POPC   C4A61674  17.494  33.774   7.355
10403POPC   C1B61675  17.311  33.995   6.455
10403POPC   C2B61676  17.345  34.006   6.755
10403POPC   C3B61677  17.275  33.980   7.055
10403POPC   C4B61678  17.354  33.957   7.355
10404POPC   NC361679   8.969  43.897   5.555
10404POPC   PO461680   8.988  43.919   5.855
10404POPC   GL161681   8.942  43.882   6.155
10404POPC   GL261682   9.051  43.753   6.155
10404POPC   C1A61683   8.975  43.930   6.455
10404POPC   D2A61684   9.004  43.869   6.755
10404POPC   C3A61685   8.980  43.867   7.055
10404POPC   C4A61686   8.942  43.846   7.355
10404POPC   C1B61687   9.141  43.648   6.455
10404POPC   C2B61688   9.154  43.649   6.755
10404POPC   C3B61689   9.129  43.673   7.055
10404POPC   C4B61690   9.125  43.672   7.355
10405POPC   NC361691  43.096  38.447   5.555
10405POPC   PO461692  43.115  38.413   5.855
10405POPC   GL161693  43.094  38.442   6.155
10405POPC   GL261694  43.143  38.395   6.155
10405POPC   C1A61695  43.137  38.450   6.455
10405POPC   D2A61696  43.076  38.502   6.755
10405POPC   C3A61697  43.142  38.406   7.055
10405POPC   C4A61698  43.102  38.498   7.355
10405POPC   C1B61699  43.240  38.218   6.455
10405POPC   C2B61700  43.231  38.283   6.755
10405POPC   C3B61701  43.265  38.252   7.055
10405POPC   C4B61702  43.232  38.190   7.355
10406POPC   NC361703  44.647  25.223   5.555
10406POPC   PO461704  44.615  25.231   5.855
10406POPC   GL161705  44.689  25.253   6.155
10406POPC   GL261706  44.636  25.381   6.155
10406POPC   C1A61707  44.681  25.220   6.455
10406POPC   D2A61708  44.640  25.260   6.755
10406POPC   C3A61709  44.662  25.262   7.055
10406POPC   C4A61710  44.658  25.255   7.355
10406POPC   C1B61711  44.519  25.450   6.455
10406POPC   C2B61712  44.532  25.495   6.755
10406POPC   C3B61713  44.503  25.478   7.055
10406POPC   C4B61714  44.517  25.529   7.355
10407POPC   NC361715  15.172  42.382   5.555
10407POPC   PO461716  15.177  42.366   5.855
10407POPC   GL161717  15.185  42.377   6.155
10407POPC   GL261718  15.170  42.247   6.155
10407POPC   C1A61719  15.184  42.373   6.455
10407POPC   D2A61720  15.206  42.321   6.755
10407POPC   C3A61721  15.193  42.291   7.055
10407POPC   C4A61722  15.209  42.317   7.355
10407POPC   C1B61723  15.168  42.132   6.455
10407POPC   C2B61724  15.156  42.135   6.755
10407POPC   C3B61725  15.213  42.095   7.055
10407POPC   C4B61726  15.163  42.120   7.355
10408POPC   NC361727  26.860   3.583   5.555
10408POPC   PO461728  26.830   3.542   5.855
10408POPC   GL161729  26.847   3.501   6.155
10408POPC   GL261730  26.932   3.602   6.155
10408POPC   C1A61731  26.784   3.580   6.455
10408POPC   D2A61732  26.802   3.561   6.755
10408POPC   C3A61733  26.819   3.577   7.055
10408POPC   C4A61734  26.798   3.520   7.355
10408POPC   C1B61735  27.010   3.697   6.455
10408POPC   C2B61736  26.973   3.705   6.755
10408POPC   C3B61737  26.979   3.713   7.055
10408POPC   C4B61738  26.983   3.656   7.355
10409POPC   NC361739   6.652  19.084   5.555
10409POPC   PO461740   6.672  19.077   5.855
10409POPC   GL161741   6.639  19.073   6.155
10409POPC   GL261742   6.548  18.974   6.155
10409POPC   C1A61743   6.670  19.048   6.455
10409POPC   D2A61744   6.681  19.062   6.755
10409POPC   C3A61745   6.610  19.084   7.055
10409POPC   C4A61746   6.623  19.104   7.355
10409POPC   C1B61747   6.546  18.866   6.455
10409POPC   C2B61748   6.583  18.842   6.755
10409POPC   C3B61749   6.515  18.842   7.055
10409POPC   C4B61750   6.534  18.804   7.355
10410POPC   NC361751  16.728  10.480   5.555
10410POPC   PO461752  16.759  10.534   5.855
10410POPC   GL161753  16.731  10.557   6.155
10410POPC   GL261754  16.798  10.428   6.155
10410POPC   C1A61755  16.726  10.497   6.455
10410POPC   D2A61756  16.698  10.489   6.755
10410POPC   C3A61757  16.729  10.572   7.055
10410POPC   C4A61758  16.706  10.480   7.355
10410POPC   C1B61759  16.842  10.244   6.455
10410POPC   C2B61760  16.786  10.336   6.755
10410POPC   C3B61761  16.846  10.250   7.055
10410POPC   C4B61762  16.861  10.288   7.355
10411POPC   NC361763  29.181   1.256   5.555
10411POPC   PO461764  29.161   1.223   5.855
10411POPC   GL161765  29.183   1.253   6.155
10411POPC   GL261766  29.293   1.225   6.155
10411POPC   C1A61767  29.106   1.195   6.455
10411POPC   D2A61768  29.123   1.240   6.755
10411POPC   C3A61769  29.117   1.254   7.055
10411POPC   C4A61770  29.184   1.243   7.355
10411POPC   C1B61771  29.415   1.253   6.455
10411POPC   C2B61772  29.381   1.233   6.755
10411POPC   C3B61773  29.363   1.292   7.055
10411POPC   C4B61774  29.365   1.244   7.355
10412POPC   NC361775  22.942  19.868   5.555
10412POPC   PO461776  22.915  19.802   5.855
10412POPC   GL161777  22.977  19.822   6.155
10412POPC   GL261778  23.036  19.729   6.155
10412POPC   C1A61779  22.913  19.802   6.455
10412POPC   D2A61780  22.952  19.846   6.755
10412POPC   C3A61781  22.972  19.792   7.055
10412POPC   C4A61782  22.955  19.853   7.355
10412POPC   C1B61783  23.027  19.628   6.455
10412POPC   C2B61784  23.016  19.629   6.755
10412POPC   C3B61785  23.064  19.632   7.055
10412POPC   C4B61786  23.067  19.646   7.355
10413POPC   NC361787  12.871   9.738   5.555
10413POPC   PO461788  12.819   9.710   5.855
10413POPC   GL161789  12.849   9.712   6.155
10413POPC   GL261790  12.886   9.877   6.155
10413POPC   C1A61791  12.806   9.708   6.455
10413POPC   D2A61792  12.844   9.743   6.755
10413POPC   C3A61793  12.829   9.752   7.055
10413POPC   C4A61794  12.831   9.717   7.355
10413POPC   C1B61795  12.837   9.992   6.455
10413POPC   C2B61796  12.868  10.011   6.755
10413POPC   C3B61797  12.834  10.030   7.055
10413POPC   C4B61798  12.862  10.044   7.355
10414POPC   NC361799  19.854  11.302   5.555
10414POPC   PO461800  19.874  11.276   5.855
10414POPC   GL161801  19.872  11.315   6.155
10414POPC   GL261802  19.734  11.164   6.155
10414POPC   C1A61803  19.851  11.325   6.455
10414POPC   D2A61804  19.820  11.280   6.755
10414POPC   C3A61805  19.879  11.339   7.055
10414POPC   C4A61806  19.844  11.307   7.355
10414POPC   C1B61807  19.657  11.142   6.455
10414POPC   C2B61808  19.613  11.077   6.755
10414POPC   C3B61809  19.661  11.118   7.055
10414POPC   C4B61810  19.614  11.151   7.355
10415POPC   NC361811  19.027   5.882   5.555
10415POPC   PO461812  19.076   5.853   5.855
10415POPC   GL161813  19.091   5.867   6.155
10415POPC   GL261814  19.033   5.954   6.155
10415POPC   C1A61815  19.089   5.821   6.455
10415POPC   D2A61816  19.066   5.851   6.755
10415POPC   C3A61817  19.028   5.882   7.055
10415POPC   C4A61818  19.062   5.826   7.355
10415POPC   C1B61819  19.085   6.090   6.455
10415POPC   C2B61820  19.028   6.129   6.755
10415POPC   C3B61821  19.044   6.106   7.055
10415POPC   C4B61822  19.045   6.146   7.355
10416POPC   NC361823  23.708  30.729   5.555
10416POPC   PO461824  23.694  30.689   5.855
10416POPC   GL161825  23.683  30.742   6.155
10416POPC   GL261826  23.628  30.616   6.155
10416POPC   C1A61827  23.712  30.669   6.455
10416POPC   D2A61828  23.753  30.728   6.755
10416POPC   C3A61829  23.674  30.690   7.055
10416POPC   C4A61830  23.725  30.735   7.355
10416POPC   C1B61831  23.524  30.555   6.455
10416POPC   C2B61832  23.515  30.550   6.755
10416POPC   C3B61833  23.569  30.550   7.055
10416POPC   C4B61834  23.525  30.561   7.355
10417POPC   NC361835  12.889  11.315   5.555
10417POPC   PO461836  12.900  11.350   5.855
10417POPC   GL161837  12.822  11.293   6.155
10417POPC   GL261838  12.933  11.328   6.155
10417POPC   C1A61839  12.894  11.292   6.455
10417POPC   D2A61840  12.845  11.286   6.755
10417POPC   C3A61841  12.812  11.314   7.055
10417POPC   C4A61842  12.896  11.304   7.355
10417POPC   C1B61843  13.100  11.315   6.455
10417POPC   C2B61844  13.066  11.381   6.755
10417POPC   C3B61845  13.128  11.372   7.055
10417POPC   C4B61846  13.120  11.304   7.355
10418POPC   NC361847  25.243  19.815   5.555
10418POPC   PO461848  25.299  19.833   5.855
10418POPC   GL161849  25.291  19.856   6.155
10418POPC   GL261850  25.237  19.963   6.155
10418POPC   C1A61851  25.253  19.884   6.455
10418POPC   D2A61852  25.259  19.827   6.755
10418POPC   C3A61853  25.236  19.856   7.055
10418POPC   C4A61854  25.252  19.787   7.355
10418POPC   C1B61855  25.181  20.045   6.455
10418POPC   C2B61856  25.115  20.068   6.755
10418POPC   C3B61857  25.171  20.094   7.055
10418POPC   C4B61858  25.180  20.093   7.355
10419POPC   NC361859   2.737  16.708   5.555
10419POPC   PO461860   2.723  16.706   5.855
10419POPC   GL161861   2.729  16.740   6.155
10419POPC   GL261862   2.645  16.654   6.155
10419POPC   C1A61863   2.790  16.772   6.455
10419POPC   D2A61864   2.798  16.751   6.755
10419POPC   C3A61865   2.808  16.743   7.055
10419POPC   C4A61866   2.811  16.720   7.355
10419POPC   C1B61867   2.634  16.565   6.455
10419POPC   C2B61868   2.604  16.508   6.755
10419POPC   C3B61869   2.599  16.563   7.055
10419POPC   C4B61870   2.564  16.500   7.355
10420POPC   NC361871  22.207   5.087   5.555
10420POPC   PO461872  22.166   5.124   5.855
10420POPC   GL161873  22.127   5.047   6.155
10420POPC   GL261874  22.171   5.178   6.155
10420POPC   C1A61875  22.202   5.132   6.455
10420POPC   D2A61876  22.146   5.098   6.755
10420POPC   C3A61877  22.195   5.083   7.055
10420POPC   C4A61878  22.207   5.091   7.355
10420POPC   C1B61879  22.157   5.383   6.455
10420POPC   C2B61880  22.092   5.386   6.755
10420POPC   C3B61881  22.154   5.315   7.055
10420POPC   C4B61882  22.086   5.382   7.355
10421POPC   NC361883  39.968  22.942   5.555
10421POPC   PO461884  39.964  22.953   5.855
10421POPC   GL161885  40.009  22.928   6.155
10421POPC   GL261886  40.114  23.048   6.155
10421POPC   C1A61887  40.030  22.963   6.455
10421POPC   D2A61888  40.029  22.922   6.755
10421POPC   C3A61889  39.989  22.925   7.055
10421POPC   C4A61890  40.043  22.889   7.355
10421POPC   C1B61891  40.211  23.070   6.455
10421POPC   C2B61892  40.241  23.109   6.755
10421POPC   C3B61893  40.225  23.048   7.055
10421POPC   C4B61894  40.211  23.044   7.355
10422POPC   NC361895  44.676  30.709   5.555
10422POPC   PO461896  44.635  30.676   5.855
10422POPC   GL161897  44.628  30.720   6.155
10422POPC   GL261898  44.636  30.790   6.155
10422POPC   C1A61899  44.627  30.699   6.455
10422POPC   D2A61900  44.644  30.735   6.755
10422POPC   C3A61901  44.687  30.705   7.055
10422POPC   C4A61902  44.624  30.672   7.355
10422POPC   C1B61903  44.613  30.965   6.455
10422POPC   C2B61904  44.709  30.966   6.755
10422POPC   C3B61905  44.698  30.947   7.055
10422POPC   C4B61906  44.663  30.985   7.355
10423POPC   NC361907  29.883  21.337   5.555
10423POPC   PO461908  29.957  21.430   5.855
10423POPC   GL161909  29.908  21.365   6.155
10423POPC   GL261910  29.951  21.509   6.155
10423POPC   C1A61911  29.892  21.367   6.455
10423POPC   D2A61912  29.882  21.393   6.755
10423POPC   C3A61913  29.969  21.410   7.055
10423POPC   C4A61914  29.969  21.432   7.355
10423POPC   C1B61915  29.857  21.644   6.455
10423POPC   C2B61916  29.860  21.597   6.755
10423POPC   C3B61917  29.858  21.591   7.055
10423POPC   C4B61918  29.901  21.631   7.355
10424POPC   NC361919  23.746  42.369   5.555
10424POPC   PO461920  23.673  42.326   5.855
10424POPC   GL161921  23.736  42.338   6.155
10424POPC   GL261922  23.768  42.241   6.155
10424POPC   C1A61923  23.722  42.334   6.455
10424POPC   D2A61924  23.677  42.312   6.755
10424POPC   C3A61925  23.683  42.370   7.055
10424POPC   C4A61926  23.687  42.372   7.355
10424POPC   C1B61927  23.879  42.125   6.455
10424POPC   C2B61928  23.832  42.143   6.755
10424POPC   C3B61929  23.853  42.150   7.055
10424POPC   C4B61930  23.887  42.087   7.355
10425POPC   NC361931  18.313   5.126   5.555
10425POPC   PO461932  18.322   5.102   5.855
10425POPC   GL161933  18.301   5.131   6.155
10425POPC   GL261934  18.298   5.204   6.155
10425POPC   C1A61935  18.249   5.085   6.455
10425POPC   D2A61936  18.328   5.078   6.755
10425POPC   C3A61937  18.271   5.086   7.055
10425POPC   C4A61938  18.295   5.052   7.355
10425POPC   C1B61939  18.281   5.305   6.455
10425POPC   C2B61940  18.246   5.385   6.755
10425POPC   C3B61941  18.265   5.353   7.055
10425POPC   C4B61942  18.253   5.377   7.355
10426POPC   NC361943  25.993  44.616   5.555
10426POPC   PO461944  26.049  44.623   5.855
10426POPC   GL161945  26.044  44.700   6.155
10426POPC   GL261946  26.079  44.764   6.155
10426POPC   C1A61947  26.051  44.701   6.455
10426POPC   D2A61948  26.055  44.634   6.755
10426POPC   C3A61949  26.022  44.691   7.055
10426POPC   C4A61950  26.043  44.677   7.355
10426POPC   C1B61951  26.058  44.926   6.455
10426POPC   C2B61952  25.988  44.953   6.755
10426POPC   C3B61953  26.054  44.912   7.055
10426POPC   C4B61954  26.031  44.894   7.355
10427POPC   NC361955   0.414  22.945   5.555
10427POPC   PO461956   0.487  22.983   5.855
10427POPC   GL161957   0.468  22.947   6.155
10427POPC   GL261958   0.409  22.835   6.155
10427POPC   C1A61959   0.405  22.936   6.455
10427POPC   D2A61960   0.430  22.909   6.755
10427POPC   C3A61961   0.404  22.958   7.055
10427POPC   C4A61962   0.481  22.985   7.355
10427POPC   C1B61963   0.276  22.698   6.455
10427POPC   C2B61964   0.348  22.713   6.755
10427POPC   C3B61965   0.315  22.737   7.055
10427POPC   C4B61966   0.366  22.710   7.355
10428POPC   NC361967  11.265  22.902   5.555
10428POPC   PO461968  11.298  22.924   5.855
10428POPC   GL161969  11.317  22.918   6.155
10428POPC   GL261970  11.190  22.953   6.155
10428POPC   C1A61971  11.305  22.889   6.455
10428POPC   D2A61972  11.292  22.935   6.755
10428POPC   C3A61973  11.339  22.894   7.055
10428POPC   C4A61974  11.347  22.985   7.355
10428POPC   C1B61975  11.104  22.894   6.455
10428POPC   C2B61976  11.017  22.854   6.755
10428POPC   C3B61977  11.079  22.903   7.055
10428POPC   C4B61978  11.026  22.850   7.355
10429POPC   NC361979  28.414  19.076   5.555
10429POPC   PO461980  28.386  19.054   5.855
10429POPC   GL161981  28.381  19.047   6.155
10429POPC   GL261982  28.346  19.208   6.155
10429POPC   C1A61983  28.395  19.049   6.455
10429POPC   D2A61984  28.350  19.025   6.755
10429POPC   C3A61985  28.398  19.063   7.055
10429POPC   C4A61986  28.375  19.017   7.355
10429POPC   C1B61987  28.428  19.329   6.455
10429POPC   C2B61988  28.432  19.277   6.755
10429POPC   C3B61989  28.357  19.281   7.055
10429POPC   C4B61990  28.348  19.295   7.355
10430POPC   NC361991  20.628  36.923   5.555
10430POPC   PO461992  20.638  36.866   5.855
10430POPC   GL161993  20.634  36.868   6.155
10430POPC   GL261994  20.724  36.880   6.155
10430POPC   C1A61995  20.637  36.910   6.455
10430POPC   D2A61996  20.570  36.861   6.755
10430POPC   C3A61997  20.586  36.896   7.055
10430POPC   C4A61998  20.580  36.857   7.355
10430POPC   C1B61999  20.801  36.793   6.455
10430POPC   C2B62000  20.832  36.782   6.755
10430POPC   C3B62001  20.793  36.812   7.055
10430POPC   C4B62002  20.828  36.751   7.355
10431POPC   NC362003  42.362  22.133   5.555
10431POPC   PO462004  42.355  22.205   5.855
10431POPC   GL162005  42.313  22.122   6.155
10431POPC   GL262006  42.299  22.318   6.155
10431POPC   C1A62007  42.339  22.196   6.455
10431POPC   D2A62008  42.340  22.143   6.755
10431POPC   C3A62009  42.379  22.173   7.055
10431POPC   C4A62010  42.332  22.129   7.355
10431POPC   C1B62011  42.189  22.420   6.455
10431POPC   C2B62012  42.216  22.361   6.755
10431POPC   C3B62013  42.218  22.390   7.055
10431POPC   C4B62014  42.217  22.428   7.355
10432POPC   NC362015   8.193  43.878   5.555
10432POPC   PO462016   8.194  43.925   5.855
10432POPC   GL162017   8.179  43.856   6.155
10432POPC   GL262018   8.218  43.789   6.155
10432POPC   C1A62019   8.202  43.924   6.455
10432POPC   D2A62020   8.231  43.907   6.755
10432POPC   C3A62021   8.216  43.865   7.055
10432POPC   C4A62022   8.206  43.838   7.355
10432POPC   C1B62023   8.351  43.637   6.455
10432POPC   C2B62024   8.320  43.672   6.755
10432POPC   C3B62025   8.321  43.699   7.055
10432POPC   C4B62026   8.301  43.680   7.355
10433POPC   NC362027  44.622  39.186   5.555
10433POPC   PO462028  44.680  39.255   5.855
10433POPC   GL162029  44.682  39.210   6.155
10433POPC   GL262030  44.716  39.070   6.155
10433POPC   C1A62031  44.710  39.232   6.455
10433POPC   D2A62032  44.621  39.257   6.755
10433POPC   C3A62033  44.690  39.234   7.055
10433POPC   C4A62034  44.628  39.254   7.355
10433POPC   C1B62035  44.656  38.963   6.455
10433POPC   C2B62036  44.655  38.954   6.755
10433POPC   C3B62037  44.741  38.962   7.055
10433POPC   C4B62038  44.682  39.026   7.355
10434POPC   NC362039  40.771  20.645   5.555
10434POPC   PO462040  40.772  20.574   5.855
10434POPC   GL162041  40.763  20.599   6.155
10434POPC   GL262042  40.833  20.479   6.155
10434POPC   C1A62043  40.800  20.632   6.455
10434POPC   D2A62044  40.783  20.620   6.755
10434POPC   C3A62045  40.781  20.625   7.055
10434POPC   C4A62046  40.833  20.563   7.355
10434POPC   C1B62047  40.987  20.402   6.455
10434POPC   C2B62048  40.925  20.373   6.755
10434POPC   C3B62049  40.916  20.373   7.055
10434POPC   C4B62050  40.943  20.407   7.355
10435POPC   NC362051   4.363  43.115   5.555
10435POPC   PO462052   4.343  43.125   5.855
10435POPC   GL162053   4.290  43.068   6.155
10435POPC   GL262054   4.372  43.060   6.155
10435POPC   C1A62055   4.343  43.128   6.455
10435POPC   D2A62056   4.280  43.132   6.755
10435POPC   C3A62057   4.316  43.090   7.055
10435POPC   C4A62058   4.314  43.122   7.355
10435POPC   C1B62059   4.506  42.999   6.455
10435POPC   C2B62060   4.492  42.963   6.755
10435POPC   C3B62061   4.505  42.932   7.055
10435POPC   C4B62062   4.524  42.930   7.355
10436POPC   NC362063  28.416  29.175   5.555
10436POPC   PO462064  28.322  29.095   5.855
10436POPC   GL162065  28.374  29.147   6.155
10436POPC   GL262066  28.530  29.121   6.155
10436POPC   C1A62067  28.347  29.114   6.455
10436POPC   D2A62068  28.370  29.122   6.755
10436POPC   C3A62069  28.362  29.173   7.055
10436POPC   C4A62070  28.341  29.135   7.355
10436POPC   C1B62071  28.605  29.166   6.455
10436POPC   C2B62072  28.639  29.164   6.755
10436POPC   C3B62073  28.604  29.211   7.055
10436POPC   C4B62074  28.614  29.193   7.355
10437POPC   NC362075   7.383  39.962   5.555
10437POPC   PO462076   7.448  40.014   5.855
10437POPC   GL162077   7.427  40.031   6.155
10437POPC   GL262078   7.514  39.962   6.155
10437POPC   C1A62079   7.444  40.052   6.455
10437POPC   D2A62080   7.444  40.044   6.755
10437POPC   C3A62081   7.423  39.999   7.055
10437POPC   C4A62082   7.432  39.982   7.355
10437POPC   C1B62083   7.662  39.858   6.455
10437POPC   C2B62084   7.687  39.921   6.755
10437POPC   C3B62085   7.615  39.930   7.055
10437POPC   C4B62086   7.609  39.865   7.355
10438POPC   NC362087  21.357   0.459   5.555
10438POPC   PO462088  21.430   0.437   5.855
10438POPC   GL162089  21.377   0.487   6.155
10438POPC   GL262090  21.486   0.555   6.155
10438POPC   C1A62091  21.341   0.441   6.455
10438POPC   D2A62092  21.358   0.473   6.755
10438POPC   C3A62093  21.360   0.392   7.055
10438POPC   C4A62094  21.366   0.425   7.355
10438POPC   C1B62095  21.512   0.639   6.455
10438POPC   C2B62096  21.514   0.613   6.755
10438POPC   C3B62097  21.503   0.599   7.055
10438POPC   C4B62098  21.538   0.660   7.355
10439POPC   NC362099  36.153  18.318   5.555
10439POPC   PO462100  36.122  18.297   5.855
10439POPC   GL162101  36.110  18.258   6.155
10439POPC   GL262102  36.093  18.413   6.155
10439POPC   C1A62103  36.175  18.321   6.455
10439POPC   D2A62104  36.081  18.254   6.755
10439POPC   C3A62105  36.149  18.266   7.055
10439POPC   C4A62106  36.101  18.331   7.355
10439POPC   C1B62107  35.942  18.481   6.455
10439POPC   C2B62108  36.015  18.501   6.755
10439POPC   C3B62109  36.001  18.535   7.055
10439POPC   C4B62110  35.990  18.454   7.355
10440POPC   NC362111  28.374  16.727   5.555
10440POPC   PO462112  28.384  16.743   5.855
10440POPC   GL162113  28.351  16.715   6.155
10440POPC   GL262114  28.322  16.870   6.155
10440POPC   C1A62115  28.357  16.760   6.455
10440POPC   D2A62116  28.349  16.742   6.755
10440POPC   C3A62117  28.377  16.687   7.055
10440POPC   C4A62118  28.354  16.699   7.355
10440POPC   C1B62119  28.347  16.995   6.455
10440POPC   C2B62120  28.366  16.938   6.755
10440POPC   C3B62121  28.283  17.013   7.055
10440POPC   C4B62122  28.345  17.004   7.355
10441POPC   NC362123  34.555  22.949   5.555
10441POPC   PO462124  34.601  22.927   5.855
10441POPC   GL162125  34.571  22.952   6.155
10441POPC   GL262126  34.410  22.998   6.155
10441POPC   C1A62127  34.558  22.918   6.455
10441POPC   D2A62128  34.532  22.973   6.755
10441POPC   C3A62129  34.606  22.987   7.055
10441POPC   C4A62130  34.549  22.954   7.355
10441POPC   C1B62131  34.377  22.942   6.455
10441POPC   C2B62132  34.358  22.972   6.755
10441POPC   C3B62133  34.363  23.016   7.055
10441POPC   C4B62134  34.319  22.960   7.355
10442POPC   NC362135   3.562  40.778   5.555
10442POPC   PO462136   3.501  40.782   5.855
10442POPC   GL162137   3.496  40.750   6.155
10442POPC   GL262138   3.498  40.655   6.155
10442POPC   C1A62139   3.493  40.771   6.455
10442POPC   D2A62140   3.558  40.802   6.755
10442POPC   C3A62141   3.517  40.805   7.055
10442POPC   C4A62142   3.566  40.746   7.355
10442POPC   C1B62143   3.444  40.582   6.455
10442POPC   C2B62144   3.456  40.584   6.755
10442POPC   C3B62145   3.428  40.584   7.055
10442POPC   C4B62146   3.477  40.563   7.355
10443POPC   NC362147  30.740  40.825   5.555
10443POPC   PO462148  30.690  40.752   5.855
10443POPC   GL162149  30.742  40.750   6.155
10443POPC   GL262150  30.648  40.863   6.155
10443POPC   C1A62151  30.658  40.817   6.455
10443POPC   D2A62152  30.651  40.750   6.755
10443POPC   C3A62153  30.736  40.749   7.055
10443POPC   C4A62154  30.725  40.822   7.355
10443POPC   C1B62155  30.578  40.973   6.455
10443POPC   C2B62156  30.562  40.982   6.755
10443POPC   C3B62157  30.602  41.014   7.055
10443POPC   C4B62158  30.623  40.993   7.355
10444POPC   NC362159  29.959  22.963   5.555
10444POPC   PO462160  29.912  22.921   5.855
10444POPC   GL162161  29.960  22.975   6.155
10444POPC   GL262162  29.845  23.003   6.155
10444POPC   C1A62163  29.947  22.910   6.455
10444POPC   D2A62164  29.901  22.965   6.755
10444POPC   C3A62165  29.943  22.906   7.055
10444POPC   C4A62166  29.928  22.913   7.355
10444POPC   C1B62167  29.780  23.197   6.455
10444POPC   C2B62168  29.815  23.134   6.755
10444POPC   C3B62169  29.761  23.209   7.055
10444POPC   C4B62170  29.825  23.164   7.355
10445POPC   NC362171  17.532  35.314   5.555
10445POPC   PO462172  17.471  35.320   5.855
10445POPC   GL162173  17.492  35.393   6.155
10445POPC   GL262174  17.443  35.290   6.155
10445POPC   C1A62175  17.514  35.399   6.455
10445POPC   D2A62176  17.472  35.389   6.755
10445POPC   C3A62177  17.515  35.358   7.055
10445POPC   C4A62178  17.491  35.363   7.355
10445POPC   C1B62179  17.384  35.136   6.455
10445POPC   C2B62180  17.321  35.161   6.755
10445POPC   C3B62181  17.355  35.171   7.055
10445POPC   C4B62182  17.384  35.121   7.355
10446POPC   NC362183   6.614  23.753   5.555
10446POPC   PO462184   6.629  23.742   5.855
10446POPC   GL162185   6.685  23.739   6.155
10446POPC   GL262186   6.582  23.607   6.155
10446POPC   C1A62187   6.654  23.711   6.455
10446POPC   D2A62188   6.625  23.687   6.755
10446POPC   C3A62189   6.663  23.666   7.055
10446POPC   C4A62190   6.673  23.698   7.355
10446POPC   C1B62191   6.533  23.534   6.455
10446POPC   C2B62192   6.455  23.471   6.755
10446POPC   C3B62193   6.459  23.547   7.055
10446POPC   C4B62194   6.529  23.538   7.355
10447POPC   NC362195   8.155  35.402   5.555
10447POPC   PO462196   8.236  35.367   5.855
10447POPC   GL162197   8.235  35.345   6.155
10447POPC   GL262198   8.230  35.507   6.155
10447POPC   C1A62199   8.176  35.353   6.455
10447POPC   D2A62200   8.169  35.315   6.755
10447POPC   C3A62201   8.176  35.315   7.055
10447POPC   C4A62202   8.185  35.359   7.355
10447POPC   C1B62203   8.191  35.568   6.455
10447POPC   C2B62204   8.218  35.640   6.755
10447POPC   C3B62205   8.175  35.646   7.055
10447POPC   C4B62206   8.177  35.604   7.355
10448POPC   NC362207  41.528   5.831   5.555
10448POPC   PO462208  41.545   5.905   5.855
10448POPC   GL162209  41.600   5.846   6.155
10448POPC   GL262210  41.709   5.855   6.155
10448POPC   C1A62211  41.512   5.849   6.455
10448POPC   D2A62212  41.547   5.841   6.755
10448POPC   C3A62213  41.555   5.863   7.055
10448POPC   C4A62214  41.562   5.902   7.355
10448POPC   C1B62215  41.803   5.761   6.455
10448POPC   C2B62216  41.790   5.758   6.755
10448POPC   C3B62217  41.830   5.764   7.055
10448POPC   C4B62218  41.830   5.741   7.355
10449POPC   NC362219  29.948  24.535   5.555
10449POPC   PO462220  29.953  24.497   5.855
10449POPC   GL162221  29.970  24.454   6.155
10449POPC   GL262222  29.990  24.450   6.155
10449POPC   C1A62223  29.925  24.473   6.455
10449POPC   D2A62224  29.889  24.518   6.755
10449POPC   C3A62225  29.939  24.535   7.055
10449POPC   C4A62226  29.903  24.452   7.355
10449POPC   C1B62227  30.175  24.330   6.455
10449POPC   C2B62228  30.184  24.388   6.755
10449POPC   C3B62229  30.110  24.350   7.055
10449POPC   C4B62230  30.181  24.331   7.355
10450POPC   NC362231  39.270   7.388   5.555
10450POPC   PO462232  39.242   7.444   5.855
10450POPC   GL162233  39.198   7.405   6.155
10450POPC   GL262234  39.368   7.431   6.155
10450POPC   C1A62235  39.266   7.373   6.455
10450POPC   D2A62236  39.276   7.439   6.755
10450POPC   C3A62237  39.247   7.411   7.055
10450POPC   C4A62238  39.243   7.442   7.355
10450POPC   C1B62239  39.512   7.343   6.455
10450POPC   C2B62240  39.510   7.314   6.755
10450POPC   C3B62241  39.479   7.328   7.055
10450POPC   C4B62242  39.434   7.362   7.355
10451POPC   NC362243  30.682   8.963   5.555
10451POPC   PO462244  30.662   8.928   5.855
10451POPC   GL162245  30.688   8.956   6.155
10451POPC   GL262246  30.746   8.825   6.155
10451POPC   C1A62247  30.703   9.008   6.455
10451POPC   D2A62248  30.723   9.010   6.755
10451POPC   C3A62249  30.676   8.953   7.055
10451POPC   C4A62250  30.744   8.937   7.355
10451POPC   C1B62251  30.850   8.733   6.455
10451POPC   C2B62252  30.865   8.772   6.755
10451POPC   C3B62253  30.769   8.715   7.055
10451POPC   C4B62254  30.852   8.703   7.355
10452POPC   NC362255  20.600  31.459   5.555
10452POPC   PO462256  20.608  31.492   5.855
10452POPC   GL162257  20.649  31.498   6.155
10452POPC   GL262258  20.480  31.466   6.155
10452POPC   C1A62259  20.569  31.468   6.455
10452POPC   D2A62260  20.582  31.426   6.755
10452POPC   C3A62261  20.584  31.457   7.055
10452POPC   C4A62262  20.637  31.487   7.355
10452POPC   C1B62263  20.341  31.517   6.455
10452POPC   C2B62264  20.379  31.505   6.755
10452POPC   C3B62265  20.398  31.428   7.055
10452POPC   C4B62266  20.360  31.452   7.355
10453POPC   NC362267  11.263  32.275   5.555
10453POPC   PO462268  11.301  32.291   5.855
10453POPC   GL162269  11.257  32.208   6.155
10453POPC   GL262270  11.325  32.362   6.155
10453POPC   C1A62271  11.251  32.289   6.455
10453POPC   D2A62272  11.275  32.261   6.755
10453POPC   C3A62273  11.265  32.203   7.055
10453POPC   C4A62274  11.343  32.264   7.355
10453POPC   C1B62275  11.202  32.465   6.455
10453POPC   C2B62276  11.248  32.500   6.755
10453POPC   C3B62277  11.209  32.479   7.055
10453POPC   C4B62278  11.290  32.538   7.355
10454POPC   NC362279  11.251  36.092   5.555
10454POPC   PO462280  11.268  36.110   5.855
10454POPC   GL162281  11.269  36.140   6.155
10454POPC   GL262282  11.271  36.293   6.155
10454POPC   C1A62283  11.272  36.136   6.455
10454POPC   D2A62284  11.348  36.078   6.755
10454POPC   C3A62285  11.303  36.161   7.055
10454POPC   C4A62286  11.251  36.135   7.355
10454POPC   C1B62287  11.237  36.383   6.455
10454POPC   C2B62288  11.236  36.333   6.755
10454POPC   C3B62289  11.218  36.401   7.055
10454POPC   C4B62290  11.281  36.409   7.355
10455POPC   NC362291  36.119  15.991   5.555
10455POPC   PO462292  36.158  15.922   5.855
10455POPC   GL162293  36.118  15.993   6.155
10455POPC   GL262294  36.205  16.029   6.155
10455POPC   C1A62295  36.104  15.989   6.455
10455POPC   D2A62296  36.167  15.954   6.755
10455POPC   C3A62297  36.159  15.933   7.055
10455POPC   C4A62298  36.149  15.991   7.355
10455POPC   C1B62299  36.325  16.018   6.455
10455POPC   C2B62300  36.389  16.051   6.755
10455POPC   C3B62301  36.395  16.056   7.055
10455POPC   C4B62302  36.399  16.082   7.355
10456POPC   NC362303   2.801  40.035   5.555
10456POPC   PO462304   2.740  39.993   5.855
10456POPC   GL162305   2.788  39.993   6.155
10456POPC   GL262306   2.628  39.982   6.155
10456POPC   C1A62307   2.719  40.027   6.455
10456POPC   D2A62308   2.729  40.048   6.755
10456POPC   C3A62309   2.757  39.969   7.055
10456POPC   C4A62310   2.807  40.002   7.355
10456POPC   C1B62311   2.560  39.935   6.455
10456POPC   C2B62312   2.528  39.847   6.755
10456POPC   C3B62313   2.539  39.860   7.055
10456POPC   C4B62314   2.514  39.879   7.355
10457POPC   NC362315  26.840   4.359   5.555
10457POPC   PO462316  26.841   4.344   5.855
10457POPC   GL162317  26.779   4.342   6.155
10457POPC   GL262318  26.924   4.381   6.155
10457POPC   C1A62319  26.849   4.319   6.455
10457POPC   D2A62320  26.800   4.300   6.755
10457POPC   C3A62321  26.857   4.341   7.055
10457POPC   C4A62322  26.845   4.330   7.355
10457POPC   C1B62323  27.071   4.446   6.455
10457POPC   C2B62324  27.014   4.435   6.755
10457POPC   C3B62325  27.091   4.377   7.055
10457POPC   C4B62326  27.039   4.431   7.355
10458POPC   NC362327  40.768   2.738   5.555
10458POPC   PO462328  40.760   2.733   5.855
10458POPC   GL162329  40.795   2.764   6.155
10458POPC   GL262330  40.660   2.746   6.155
10458POPC   C1A62331  40.736   2.722   6.455
10458POPC   D2A62332  40.803   2.723   6.755
10458POPC   C3A62333  40.789   2.767   7.055
10458POPC   C4A62334  40.779   2.730   7.355
10458POPC   C1B62335  40.573   2.629   6.455
10458POPC   C2B62336  40.578   2.645   6.755
10458POPC   C3B62337  40.598   2.661   7.055
10458POPC   C4B62338  40.594   2.677   7.355
10459POPC   NC362339  14.373   8.214   5.555
10459POPC   PO462340  14.369   8.180   5.855
10459POPC   GL162341  14.391   8.152   6.155
10459POPC   GL262342  14.483   8.285   6.155
10459POPC   C1A62343  14.392   8.218   6.455
10459POPC   D2A62344  14.406   8.212   6.755
10459POPC   C3A62345  14.417   8.202   7.055
10459POPC   C4A62346  14.406   8.186   7.355
10459POPC   C1B62347  14.519   8.349   6.455
10459POPC   C2B62348  14.552   8.347   6.755
10459POPC   C3B62349  14.525   8.374   7.055
10459POPC   C4B62350  14.587   8.362   7.355
10460POPC   NC362351  13.674  34.577   5.555
10460POPC   PO462352  13.664  34.620   5.855
10460POPC   GL162353  13.578  34.577   6.155
10460POPC   GL262354  13.486  34.555   6.155
10460POPC   C1A62355  13.620  34.606   6.455
10460POPC   D2A62356  13.649  34.620   6.755
10460POPC   C3A62357  13.633  34.588   7.055
10460POPC   C4A62358  13.665  34.593   7.355
10460POPC   C1B62359  13.347  34.440   6.455
10460POPC   C2B62360  13.424  34.498   6.755
10460POPC   C3B62361  13.371  34.439   7.055
10460POPC   C4B62362  13.429  34.510   7.355
10461POPC   NC362363  39.190  42.348   5.555
10461POPC   PO462364  39.203  42.347   5.855
10461POPC   GL162365  39.278  42.314   6.155
10461POPC   GL262366  39.098  42.376   6.155
10461POPC   C1A62367  39.247  42.298   6.455
10461POPC   D2A62368  39.182  42.323   6.755
10461POPC   C3A62369  39.262  42.367   7.055
10461POPC   C4A62370  39.183  42.331   7.355
10461POPC   C1B62371  39.033  42.444   6.455
10461POPC   C2B62372  38.967  42.422   6.755
10461POPC   C3B62373  39.026  42.449   7.055
10461POPC   C4B62374  39.000  42.440   7.355
10462POPC   NC362375  37.708  29.136   5.555
10462POPC   PO462376  37.672  29.182   5.855
10462POPC   GL162377  37.724  29.191   6.155
10462POPC   GL262378  37.584  29.076   6.155
10462POPC   C1A62379  37.667  29.162   6.455
10462POPC   D2A62380  37.729  29.175   6.755
10462POPC   C3A62381  37.641  29.129   7.055
10462POPC   C4A62382  37.718  29.169   7.355
10462POPC   C1B62383  37.611  28.906   6.455
10462POPC   C2B62384  37.619  28.874   6.755
10462POPC   C3B62385  37.600  28.904   7.055
10462POPC   C4B62386  37.633  28.876   7.355
10463POPC   NC362387  37.694   3.555   5.555
10463POPC   PO462388  37.640   3.521   5.855
10463POPC   GL162389  37.633   3.522   6.155
10463POPC   GL262390  37.805   3.463   6.155
10463POPC   C1A62391  37.685   3.519   6.455
10463POPC   D2A62392  37.630   3.520   6.755
10463POPC   C3A62393  37.646   3.577   7.055
10463POPC   C4A62394  37.632   3.525   7.355
10463POPC   C1B62395  37.901   3.449   6.455
10463POPC   C2B62396  37.944   3.483   6.755
10463POPC   C3B62397  37.949   3.457   7.055
10463POPC   C4B62398  37.915   3.486   7.355
10464POPC   NC362399  27.619   6.691   5.555
10464POPC   PO462400  27.611   6.641   5.855
10464POPC   GL162401  27.561   6.692   6.155
10464POPC   GL262402  27.464   6.656   6.155
10464POPC   C1A62403  27.602   6.644   6.455
10464POPC   D2A62404  27.614   6.670   6.755
10464POPC   C3A62405  27.606   6.694   7.055
10464POPC   C4A62406  27.559   6.634   7.355
10464POPC   C1B62407  27.356   6.685   6.455
10464POPC   C2B62408  27.382   6.635   6.755
10464POPC   C3B62409  27.368   6.692   7.055
10464POPC   C4B62410  27.352   6.638   7.355
10465POPC   NC362411   2.803  33.051   5.555
10465POPC   PO462412   2.749  33.006   5.855
10465POPC   GL162413   2.789  33.017   6.155
10465POPC   GL262414   2.783  32.910   6.155
10465POPC   C1A62415   2.788  33.039   6.455
10465POPC   D2A62416   2.795  33.064   6.755
10465POPC   C3A62417   2.745  33.050   7.055
10465POPC   C4A62418   2.754  33.039   7.355
10465POPC   C1B62419   2.861  32.765   6.455
10465POPC   C2B62420   2.817  32.761   6.755
10465POPC   C3B62421   2.855  32.749   7.055
10465POPC   C4B62422   2.882  32.791   7.355
10466POPC   NC362423  22.979   0.416   5.555
10466POPC   PO462424  22.970   0.486   5.855
10466POPC   GL162425  22.908   0.415   6.155
10466POPC   GL262426  23.041   0.538   6.155
10466POPC   C1A62427  22.893   0.460   6.455
10466POPC   D2A62428  22.889   0.436   6.755
10466POPC   C3A62429  22.910   0.390   7.055
10466POPC   C4A62430  22.969   0.470   7.355
10466POPC   C1B62431  23.107   0.684   6.455
10466POPC   C2B62432  23.121   0.633   6.755
10466POPC   C3B62433  23.089   0.652   7.055
10466POPC   C4B62434  23.084   0.666   7.355
10467POPC   NC362435  26.813  29.136   5.555
10467POPC   PO462436  26.805  29.170   5.855
10467POPC   GL162437  26.824  29.142   6.155
10467POPC   GL262438  26.845  29.268   6.155
10467POPC   C1A62439  26.860  29.128   6.455
10467POPC   D2A62440  26.769  29.104   6.755
10467POPC   C3A62441  26.837  29.144   7.055
10467POPC   C4A62442  26.768  29.130   7.355
10467POPC   C1B62443  26.798  29.388   6.455
10467POPC   C2B62444  26.889  29.360   6.755
10467POPC   C3B62445  26.801  29.346   7.055
10467POPC   C4B62446  26.875  29.410   7.355
10468POPC   NC362447  30.722  19.814   5.555
10468POPC   PO462448  30.709  19.841   5.855
10468POPC   GL162449  30.669  19.790   6.155
10468POPC   GL262450  30.766  19.756   6.155
10468POPC   C1A62451  30.706  19.873   6.455
10468POPC   D2A62452  30.745  19.817   6.755
10468POPC   C3A62453  30.675  19.828   7.055
10468POPC   C4A62454  30.715  19.809   7.355
10468POPC   C1B62455  30.790  19.571   6.455
10468POPC   C2B62456  30.819  19.614   6.755
10468POPC   C3B62457  30.737  19.602   7.055
10468POPC   C4B62458  30.783  19.644   7.355
10469POPC   NC362459  29.099  16.730   5.555
10469POPC   PO462460  29.117  16.743   5.855
10469POPC   GL162461  29.188  16.749   6.155
10469POPC   GL262462  28.991  16.742   6.155
10469POPC   C1A62463  29.160  16.706   6.455
10469POPC   D2A62464  29.174  16.700   6.755
10469POPC   C3A62465  29.130  16.751   7.055
10469POPC   C4A62466  29.107  16.738   7.355
10469POPC   C1B62467  28.925  16.650   6.455
10469POPC   C2B62468  28.932  16.709   6.755
10469POPC   C3B62469  28.855  16.644   7.055
10469POPC   C4B62470  28.867  16.655   7.355
10470POPC   NC362471  19.831   8.176   5.555
10470POPC   PO462472  19.862   8.163   5.855
10470POPC   GL162473  19.877   8.244   6.155
10470POPC   GL262474  19.685   8.120   6.155
10470POPC   C1A62475  19.857   8.187   6.455
10470POPC   D2A62476  19.798   8.228   6.755
10470POPC   C3A62477  19.840   8.220   7.055
10470POPC   C4A62478  19.828   8.220   7.355
10470POPC   C1B62479  19.576   8.126   6.455
10470POPC   C2B62480  19.596   8.092   6.755
10470POPC   C3B62481  19.635   8.156   7.055
10470POPC   C4B62482  19.580   8.094   7.355
10471POPC   NC362483  19.103   6.614   5.555
10471POPC   PO462484  19.063   6.676   5.855
10471POPC   GL162485  19.066   6.693   6.155
10471POPC   GL262486  19.020   6.574   6.155
10471POPC   C1A62487  19.019   6.651   6.455
10471POPC   D2A62488  19.053   6.619   6.755
10471POPC   C3A62489  19.099   6.605   7.055
10471POPC   C4A62490  19.092   6.674   7.355
10471POPC   C1B62491  18.987   6.424   6.455
10471POPC   C2B62492  18.918   6.387   6.755
10471POPC   C3B62493  18.983   6.466   7.055
10471POPC   C4B62494  18.996   6.436   7.355
10472POPC   NC362495  29.964  11.292   5.555
10472POPC   PO462496  29.947  11.326   5.855
10472POPC   GL162497  29.874  11.319   6.155
10472POPC   GL262498  29.908  11.154   6.155
10472POPC   C1A62499  29.871  11.290   6.455
10472POPC   D2A62500  29.898  11.319   6.755
10472POPC   C3A62501  29.925  11.258   7.055
10472POPC   C4A62502  29.915  11.305   7.355
10472POPC   C1B62503  29.839  11.122   6.455
10472POPC   C2B62504  29.827  11.112   6.755
10472POPC   C3B62505  29.808  11.054   7.055
10472POPC   C4B62506  29.801  11.125   7.355
10473POPC   NC362507  10.563  18.252   5.555
10473POPC   PO462508  10.561  18.257   5.855
10473POPC   GL162509  10.519  18.270   6.155
10473POPC   GL262510  10.423  18.426   6.155
10473POPC   C1A62511  10.556  18.250   6.455
10473POPC   D2A62512  10.549  18.307   6.755
10473POPC   C3A62513  10.564  18.315   7.055
10473POPC   C4A62514  10.570  18.320   7.355
10473POPC   C1B62515  10.357  18.471   6.455
10473POPC   C2B62516  10.359  18.464   6.755
10473POPC   C3B62517  10.377  18.515   7.055
10473POPC   C4B62518  10.342  18.496   7.355
10474POPC   NC362519   6.611  43.073   5.555
10474POPC   PO462520   6.654  43.065   5.855
10474POPC   GL162521   6.607  43.081   6.155
10474POPC   GL262522   6.791  43.112   6.155
10474POPC   C1A62523   6.669  43.118   6.455
10474POPC   D2A62524   6.646  43.117   6.755
10474POPC   C3A62525   6.617  43.157   7.055
10474POPC   C4A62526   6.621  43.114   7.355
10474POPC   C1B62527   6.936  43.115   6.455
10474POPC   C2B62528   6.858  43.078   6.755
10474POPC   C3B62529   6.931  43.171   7.055
10474POPC   C4B62530   6.932  43.166   7.355
10475POPC   NC362531  38.424  22.894   5.555
10475POPC   PO462532  38.497  22.893   5.855
10475POPC   GL162533  38.451  22.953   6.155
10475POPC   GL262534  38.475  22.819   6.155
10475POPC   C1A62535  38.436  22.924   6.455
10475POPC   D2A62536  38.415  22.907   6.755
10475POPC   C3A62537  38.447  22.982   7.055
10475POPC   C4A62538  38.441  22.908   7.355
10475POPC   C1B62539  38.414  22.661   6.455
10475POPC   C2B62540  38.435  22.647   6.755
10475POPC   C3B62541  38.430  22.701   7.055
10475POPC   C4B62542  38.397  22.683   7.355
10476POPC   NC362543  32.294  27.589   5.555
10476POPC   PO462544  32.219  27.557   5.855
10476POPC   GL162545  32.284  27.561   6.155
10476POPC   GL262546  32.123  27.707   6.155
10476POPC   C1A62547  32.208  27.613   6.455
10476POPC   D2A62548  32.261  27.577   6.755
10476POPC   C3A62549  32.289  27.544   7.055
10476POPC   C4A62550  32.247  27.548   7.355
10476POPC   C1B62551  32.143  27.800   6.455
10476POPC   C2B62552  32.128  27.758   6.755
10476POPC   C3B62553  32.144  27.798   7.055
10476POPC   C4B62554  32.087  27.762   7.355
10477POPC   NC362555   8.935   1.239   5.555
10477POPC   PO462556   9.004   1.195   5.855
10477POPC   GL162557   8.934   1.206   6.155
10477POPC   GL262558   8.857   1.179   6.155
10477POPC   C1A62559   8.966   1.173   6.455
10477POPC   D2A62560   8.954   1.259   6.755
10477POPC   C3A62561   8.924   1.254   7.055
10477POPC   C4A62562   8.971   1.218   7.355
10477POPC   C1B62563   8.767   1.088   6.455
10477POPC   C2B62564   8.779   1.056   6.755
10477POPC   C3B62565   8.771   1.120   7.055
10477POPC   C4B62566   8.749   1.031   7.355
10478POPC   NC362567  42.311  31.436   5.555
10478POPC   PO462568  42.365  31.487   5.855
10478POPC   GL162569  42.321  31.493   6.155
10478POPC   GL262570  42.260  31.359   6.155
10478POPC   C1A62571  42.353  31.454   6.455
10478POPC   D2A62572  42.374  31.436   6.755
10478POPC   C3A62573  42.363  31.445   7.055
10478POPC   C4A62574  42.301  31.513   7.355
10478POPC   C1B62575  42.196  31.259   6.455
10478POPC   C2B62576  42.184  31.295   6.755
10478POPC   C3B62577  42.138  31.271   7.055
10478POPC   C4B62578  42.193  31.314   7.355
10479POPC   NC362579  24.533  10.548   5.555
10479POPC   PO462580  24.442  10.553   5.855
10479POPC   GL162581  24.524  10.476   6.155
10479POPC   GL262582  24.517  10.682   6.155
10479POPC   C1A62583  24.461  10.504   6.455
10479POPC   D2A62584  24.448  10.537   6.755
10479POPC   C3A62585  24.514  10.486   7.055
10479POPC   C4A62586  24.463  10.487   7.355
10479POPC   C1B62587  24.439  10.805   6.455
10479POPC   C2B62588  24.487  10.743   6.755
10479POPC   C3B62589  24.433  10.814   7.055
10479POPC   C4B62590  24.469  10.766   7.355
10480POPC   NC362591   8.185  39.233   5.555
10480POPC   PO462592   8.220  39.231   5.855
10480POPC   GL162593   8.160  39.246   6.155
10480POPC   GL262594   8.187  39.399   6.155
10480POPC   C1A62595   8.180  39.212   6.455
10480POPC   D2A62596   8.189  39.273   6.755
10480POPC   C3A62597   8.175  39.189   7.055
10480POPC   C4A62598   8.168  39.263   7.355
10480POPC   C1B62599   8.210  39.452   6.455
10480POPC   C2B62600   8.160  39.456   6.755
10480POPC   C3B62601   8.231  39.476   7.055
10480POPC   C4B62602   8.204  39.461   7.355
10481POPC   NC362603  40.800  34.549   5.555
10481POPC   PO462604  40.755  34.614   5.855
10481POPC   GL162605  40.796  34.535   6.155
10481POPC   GL262606  40.720  34.713   6.155
10481POPC   C1A62607  40.822  34.608   6.455
10481POPC   D2A62608  40.814  34.543   6.755
10481POPC   C3A62609  40.779  34.526   7.055
10481POPC   C4A62610  40.747  34.533   7.355
10481POPC   C1B62611  40.678  34.821   6.455
10481POPC   C2B62612  40.707  34.757   6.755
10481POPC   C3B62613  40.660  34.823   7.055
10481POPC   C4B62614  40.655  34.801   7.355
10482POPC   NC362615  35.307  22.951   5.555
10482POPC   PO462616  35.323  22.952   5.855
10482POPC   GL162617  35.316  22.927   6.155
10482POPC   GL262618  35.235  22.897   6.155
10482POPC   C1A62619  35.366  22.911   6.455
10482POPC   D2A62620  35.329  22.906   6.755
10482POPC   C3A62621  35.305  22.941   7.055
10482POPC   C4A62622  35.324  22.959   7.355
10482POPC   C1B62623  35.192  22.741   6.455
10482POPC   C2B62624  35.194  22.794   6.755
10482POPC   C3B62625  35.172  22.792   7.055
10482POPC   C4B62626  35.134  22.786   7.355
10483POPC   NC362627   1.185  43.916   5.555
10483POPC   PO462628   1.223  43.863   5.855
10483POPC   GL162629   1.252  43.919   6.155
10483POPC   GL262630   1.177  44.001   6.155
10483POPC   C1A62631   1.229  43.858   6.455
10483POPC   D2A62632   1.176  43.872   6.755
10483POPC   C3A62633   1.220  43.886   7.055
10483POPC   C4A62634   1.233  43.856   7.355
10483POPC   C1B62635   1.184  44.157   6.455
10483POPC   C2B62636   1.230  44.140   6.755
10483POPC   C3B62637   1.193  44.163   7.055
10483POPC   C4B62638   1.239  44.108   7.355
10484POPC   NC362639   0.428  37.652   5.555
10484POPC   PO462640   0.420  37.718   5.855
10484POPC   GL162641   0.409  37.680   6.155
10484POPC   GL262642   0.356  37.675   6.155
10484POPC   C1A62643   0.451  37.640   6.455
10484POPC   D2A62644   0.457  37.632   6.755
10484POPC   C3A62645   0.487  37.720   7.055
10484POPC   C4A62646   0.451  37.687   7.355
10484POPC   C1B62647   0.215  37.613   6.455
10484POPC   C2B62648   0.200  37.565   6.755
10484POPC   C3B62649   0.244  37.555   7.055
10484POPC   C4B62650   0.209  37.575   7.355
10485POPC   NC362651  42.295  28.356   5.555
10485POPC   PO462652  42.345  28.404   5.855
10485POPC   GL162653  42.309  28.360   6.155
10485POPC   GL262654  42.464  28.404   6.155
10485POPC   C1A62655  42.321  28.343   6.455
10485POPC   D2A62656  42.320  28.379   6.755
10485POPC   C3A62657  42.347  28.346   7.055
10485POPC   C4A62658  42.347  28.352   7.355
10485POPC   C1B62659  42.570  28.372   6.455
10485POPC   C2B62660  42.626  28.418   6.755
10485POPC   C3B62661  42.630  28.427   7.055
10485POPC   C4B62662  42.540  28.392   7.355
10486POPC   NC362663   4.322   5.091   5.555
10486POPC   PO462664   4.294   5.060   5.855
10486POPC   GL162665   4.335   5.085   6.155
10486POPC   GL262666   4.289   5.205   6.155
10486POPC   C1A62667   4.349   5.103   6.455
10486POPC   D2A62668   4.317   5.110   6.755
10486POPC   C3A62669   4.292   5.110   7.055
10486POPC   C4A62670   4.278   5.055   7.355
10486POPC   C1B62671   4.336   5.309   6.455
10486POPC   C2B62672   4.369   5.372   6.755
10486POPC   C3B62673   4.327   5.330   7.055
10486POPC   C4B62674   4.306   5.321   7.355
10487POPC   NC362675  37.697  39.202   5.555
10487POPC   PO462676  37.685  39.188   5.855
10487POPC   GL162677  37.698  39.242   6.155
10487POPC   GL262678  37.601  39.251   6.155
10487POPC   C1A62679  37.687  39.220   6.455
10487POPC   D2A62680  37.690  39.220   6.755
10487POPC   C3A62681  37.664  39.267   7.055
10487POPC   C4A62682  37.726  39.227   7.355
10487POPC   C1B62683  37.459  39.232   6.455
10487POPC   C2B62684  37.461  39.153   6.755
10487POPC   C3B62685  37.413  39.176   7.055
10487POPC   C4B62686  37.435  39.188   7.355
10488POPC   NC362687  44.631  20.620   5.555
10488POPC   PO462688  44.651  20.647   5.855
10488POPC   GL162689  44.646  20.638   6.155
10488POPC   GL262690  44.785  20.673   6.155
10488POPC   C1A62691  44.648  20.577   6.455
10488POPC   D2A62692  44.644  20.645   6.755
10488POPC   C3A62693  44.649  20.579   7.055
10488POPC   C4A62694  44.650  20.567   7.355
10488POPC   C1B62695  44.856  20.822   6.455
10488POPC   C2B62696  44.796  20.748   6.755
10488POPC   C3B62697  44.891  20.807   7.055
10488POPC   C4B62698  44.833  20.733   7.355
10489POPC   NC362699  19.871  33.051   5.555
10489POPC   PO462700  19.830  32.999   5.855
10489POPC   GL162701  19.881  33.011   6.155
10489POPC   GL262702  19.830  32.873   6.155
10489POPC   C1A62703  19.868  33.073   6.455
10489POPC   D2A62704  19.882  32.992   6.755
10489POPC   C3A62705  19.837  33.014   7.055
10489POPC   C4A62706  19.829  33.035   7.355
10489POPC   C1B62707  19.905  32.812   6.455
10489POPC   C2B62708  19.912  32.780   6.755
10489POPC   C3B62709  19.885  32.794   7.055
10489POPC   C4B62710  19.908  32.833   7.355
10490POPC   NC362711  10.553  21.365   5.555
10490POPC   PO462712  10.542  21.421   5.855
10490POPC   GL162713  10.568  21.389   6.155
10490POPC   GL262714  10.638  21.359   6.155
10490POPC   C1A62715  10.512  21.400   6.455
10490POPC   D2A62716  10.484  21.345   6.755
10490POPC   C3A62717  10.525  21.351   7.055
10490POPC   C4A62718  10.475  21.383   7.355
10490POPC   C1B62719  10.753  21.290   6.455
10490POPC   C2B62720  10.736  21.284   6.755
10490POPC   C3B62721  10.783  21.371   7.055
10490POPC   C4B62722  10.769  21.286   7.355
10491POPC   NC362723  16.687  35.326   5.555
10491POPC   PO462724  16.686  35.321   5.855
10491POPC   GL162725  16.725  35.372   6.155
10491POPC   GL262726  16.846  35.421   6.155
10491POPC   C1A62727  16.730  35.324   6.455
10491POPC   D2A62728  16.729  35.374   6.755
10491POPC   C3A62729  16.762  35.321   7.055
10491POPC   C4A62730  16.697  35.312   7.355
10491POPC   C1B62731  16.869  35.534   6.455
10491POPC   C2B62732  16.864  35.547   6.755
10491POPC   C3B62733  16.849  35.508   7.055
10491POPC   C4B62734  16.928  35.589   7.355
10492POPC   NC362735  22.960  14.388   5.555
10492POPC   PO462736  22.982  14.377   5.855
10492POPC   GL162737  22.927  14.366   6.155
10492POPC   GL262738  23.068  14.439   6.155
10492POPC   C1A62739  22.897  14.361   6.455
10492POPC   D2A62740  22.980  14.363   6.755
10492POPC   C3A62741  22.932  14.384   7.055
10492POPC   C4A62742  22.948  14.354   7.355
10492POPC   C1B62743  23.138  14.389   6.455
10492POPC   C2B62744  23.162  14.452   6.755
10492POPC   C3B62745  23.162  14.368   7.055
10492POPC   C4B62746  23.209  14.399   7.355
10493POPC   NC362747  33.028   6.656   5.555
10493POPC   PO462748  33.030   6.664   5.855
10493POPC   GL162749  32.984   6.689   6.155
10493POPC   GL262750  33.103   6.630   6.155
10493POPC   C1A62751  33.072   6.597   6.455
10493POPC   D2A62752  33.049   6.655   6.755
10493POPC   C3A62753  33.023   6.623   7.055
10493POPC   C4A62754  33.024   6.611   7.355
10493POPC   C1B62755  33.299   6.573   6.455
10493POPC   C2B62756  33.288   6.564   6.755
10493POPC   C3B62757  33.242   6.600   7.055
10493POPC   C4B62758  33.292   6.591   7.355
10494POPC   NC362759   5.095  29.154   5.555
10494POPC   PO462760   5.143  29.181   5.855
10494POPC   GL162761   5.053  29.120   6.155
10494POPC   GL262762   5.121  29.224   6.155
10494POPC   C1A62763   5.133  29.097   6.455
10494POPC   D2A62764   5.053  29.191   6.755
10494POPC   C3A62765   5.053  29.099   7.055
10494POPC   C4A62766   5.087  29.118   7.355
10494POPC   C1B62767   5.096  29.431   6.455
10494POPC   C2B62768   5.097  29.396   6.755
10494POPC   C3B62769   5.057  29.420   7.055
10494POPC   C4B62770   5.046  29.382   7.355
10495POPC   NC362771  35.345   8.219   5.555
10495POPC   PO462772  35.351   8.161   5.855
10495POPC   GL162773  35.399   8.211   6.155
10495POPC   GL262774  35.345   8.367   6.155
10495POPC   C1A62775  35.349   8.243   6.455
10495POPC   D2A62776  35.316   8.182   6.755
10495POPC   C3A62777  35.351   8.156   7.055
10495POPC   C4A62778  35.371   8.241   7.355
10495POPC   C1B62779  35.353   8.463   6.455
10495POPC   C2B62780  35.329   8.455   6.755
10495POPC   C3B62781  35.300   8.426   7.055
10495POPC   C4B62782  35.352   8.414   7.355
10496POPC   NC362783   7.453  33.777   5.555
10496POPC   PO462784   7.455  33.773   5.855
10496POPC   GL162785   7.440  33.793   6.155
10496POPC   GL262786   7.510  33.776   6.155
10496POPC   C1A62787   7.431  33.783   6.455
10496POPC   D2A62788   7.399  33.825   6.755
10496POPC   C3A62789   7.436  33.802   7.055
10496POPC   C4A62790   7.459  33.770   7.355
10496POPC   C1B62791   7.632  33.825   6.455
10496POPC   C2B62792   7.672  33.767   6.755
10496POPC   C3B62793   7.677  33.805   7.055
10496POPC   C4B62794   7.637  33.776   7.355
10497POPC   NC362795  32.248   2.026   5.555
10497POPC   PO462796  32.209   1.989   5.855
10497POPC   GL162797  32.253   2.020   6.155
10497POPC   GL262798  32.224   2.121   6.155
10497POPC   C1A62799  32.206   2.009   6.455
10497POPC   D2A62800  32.289   1.987   6.755
10497POPC   C3A62801  32.265   1.984   7.055
10497POPC   C4A62802  32.241   1.969   7.355
10497POPC   C1B62803  32.246   2.225   6.455
10497POPC   C2B62804  32.280   2.210   6.755
10497POPC   C3B62805  32.303   2.237   7.055
10497POPC   C4B62806  32.307   2.233   7.355
10498POPC   NC362807  34.571  15.938   5.555
10498POPC   PO462808  34.611  15.913   5.855
10498POPC   GL162809  34.595  15.977   6.155
10498POPC   GL262810  34.404  15.940   6.155
10498POPC   C1A62811  34.579  15.937   6.455
10498POPC   D2A62812  34.594  15.992   6.755
10498POPC   C3A62813  34.532  15.916   7.055
10498POPC   C4A62814  34.561  15.948   7.355
10498POPC   C1B62815  34.300  15.900   6.455
10498POPC   C2B62816  34.288  15.969   6.755
10498POPC   C3B62817  34.323  15.893   7.055
10498POPC   C4B62818  34.327  15.898   7.355
10499POPC   NC362819  28.326  18.264   5.555
10499POPC   PO462820  28.355  18.311   5.855
10499POPC   GL162821  28.353  18.267   6.155
10499POPC   GL262822  28.491  18.183   6.155
10499POPC   C1A62823  28.352  18.313   6.455
10499POPC   D2A62824  28.416  18.234   6.755
10499POPC   C3A62825  28.386  18.325   7.055
10499POPC   C4A62826  28.335  18.330   7.355
10499POPC   C1B62827  28.570  18.161   6.455
10499POPC   C2B62828  28.553  18.156   6.755
10499POPC   C3B62829  28.585  18.166   7.055
10499POPC   C4B62830  28.545  18.127   7.355
10500POPC   NC362831  20.581   6.683   5.555
10500POPC   PO462832  20.586   6.625   5.855
10500POPC   GL162833  20.658   6.680   6.155
10500POPC   GL262834  20.593   6.806   6.155
10500POPC   C1A62835  20.618   6.632   6.455
10500POPC   D2A62836  20.619   6.600   6.755
10500POPC   C3A62837  20.623   6.610   7.055
10500POPC   C4A62838  20.596   6.637   7.355
10500POPC   C1B62839  20.508   6.906   6.455
10500POPC   C2B62840  20.492   6.922   6.755
10500POPC   C3B62841  20.510   6.909   7.055
10500POPC   C4B62842  20.520   6.873   7.355
10501POPC   NC362843  19.873  32.239   5.555
10501POPC   PO462844  19.848  32.216   5.855
10501POPC   GL162845  19.792  32.250   6.155
10501POPC   GL262846  19.726  32.334   6.155
10501POPC   C1A62847  19.858  32.273   6.455
10501POPC   D2A62848  19.816  32.261   6.755
10501POPC   C3A62849  19.810  32.205   7.055
10501POPC   C4A62850  19.884  32.217   7.355
10501POPC   C1B62851  19.585  32.345   6.455
10501POPC   C2B62852  19.604  32.417   6.755
10501POPC   C3B62853  19.621  32.324   7.055
10501POPC   C4B62854  19.641  32.370   7.355
10502POPC   NC362855  26.067   2.811   5.555
10502POPC   PO462856  26.017   2.745   5.855
10502POPC   GL162857  26.079   2.736   6.155
10502POPC   GL262858  26.129   2.724   6.155
10502POPC   C1A62859  26.063   2.798   6.455
10502POPC   D2A62860  26.078   2.779   6.755
10502POPC   C3A62861  26.076   2.734   7.055
10502POPC   C4A62862  26.062   2.717   7.355
10502POPC   C1B62863  26.249   2.633   6.455
10502POPC   C2B62864  26.229   2.639   6.755
10502POPC   C3B62865  26.269   2.613   7.055
10502POPC   C4B62866  26.222   2.583   7.355
10503POPC   NC362867  40.831  29.886   5.555
10503POPC   PO462868  40.751  29.895   5.855
10503POPC   GL162869  40.823  29.876   6.155
10503POPC   GL262870  40.892  30.003   6.155
10503POPC   C1A62871  40.809  29.914   6.455
10503POPC   D2A62872  40.748  29.907   6.755
10503POPC   C3A62873  40.811  29.936   7.055
10503POPC   C4A62874  40.757  29.963   7.355
10503POPC   C1B62875  41.045  30.032   6.455
10503POPC   C2B62876  41.034  29.990   6.755
10503POPC   C3B62877  41.051  30.028   7.055
10503POPC   C4B62878  41.006  29.987   7.355
10504POPC   NC362879  14.413  33.848   5.555
10504POPC   PO462880  14.392  33.847   5.855
10504POPC   GL162881  14.437  33.838   6.155
10504POPC   GL262882  14.346  33.665   6.155
10504POPC   C1A62883  14.418  33.849   6.455
10504POPC   D2A62884  14.374  33.836   6.755
10504POPC   C3A62885  14.421  33.754   7.055
10504POPC   C4A62886  14.427  33.781   7.355
10504POPC   C1B62887  14.316  33.617   6.455
10504POPC   C2B62888  14.262  33.584   6.755
10504POPC   C3B62889  14.338  33.534   7.055
10504POPC   C4B62890  14.332  33.612   7.355
10505POPC   NC362891  40.759  42.335   5.555
10505POPC   PO462892  40.827  42.364   5.855
10505POPC   GL162893  40.751  42.350   6.155
10505POPC   GL262894  40.882  42.417   6.155
10505POPC   C1A62895  40.821  42.330   6.455
10505POPC   D2A62896  40.776  42.377   6.755
10505POPC   C3A62897  40.807  42.354   7.055
10505POPC   C4A62898  40.831  42.372   7.355
10505POPC   C1B62899  40.954  42.503   6.455
10505POPC   C2B62900  41.035  42.478   6.755
10505POPC   C3B62901  40.983  42.507   7.055
10505POPC   C4B62902  40.973  42.441   7.355
10506POPC   NC362903  29.194  26.033   5.555
10506POPC   PO462904  29.180  26.017   5.855
10506POPC   GL162905  29.128  26.083   6.155
10506POPC   GL262906  29.104  26.118   6.155
10506POPC   C1A62907  29.123  26.081   6.455
10506POPC   D2A62908  29.121  26.079   6.755
10506POPC   C3A62909  29.171  26.074   7.055
10506POPC   C4A62910  29.123  26.065   7.355
10506POPC   C1B62911  29.049  26.308   6.455
10506POPC   C2B62912  29.115  26.302   6.755
10506POPC   C3B62913  29.059  26.274   7.055
10506POPC   C4B62914  29.086  26.259   7.355
10507POPC   NC362915  21.366  39.231   5.555
10507POPC   PO462916  21.360  39.197   5.855
10507POPC   GL162917  21.422  39.240   6.155
10507POPC   GL262918  21.275  39.122   6.155
10507POPC   C1A62919  21.379  39.211   6.455
10507POPC   D2A62920  21.366  39.195   6.755
10507POPC   C3A62921  21.362  39.254   7.055
10507POPC   C4A62922  21.411  39.225   7.355
10507POPC   C1B62923  21.193  39.058   6.455
10507POPC   C2B62924  21.224  39.088   6.755
10507POPC   C3B62925  21.201  39.081   7.055
10507POPC   C4B62926  21.214  39.054   7.355
10508POPC   NC362927  17.478   2.039   5.555
10508POPC   PO462928  17.555   1.961   5.855
10508POPC   GL162929  17.531   1.950   6.155
10508POPC   GL262930  17.597   1.985   6.155
10508POPC   C1A62931  17.491   1.981   6.455
10508POPC   D2A62932  17.535   2.004   6.755
10508POPC   C3A62933  17.462   1.967   7.055
10508POPC   C4A62934  17.546   1.980   7.355
10508POPC   C1B62935  17.735   1.938   6.455
10508POPC   C2B62936  17.743   1.979   6.755
10508POPC   C3B62937  17.719   1.965   7.055
10508POPC   C4B62938  17.795   1.956   7.355
10509POPC   NC362939  29.098   5.128   5.555
10509POPC   PO462940  29.127   5.070   5.855
10509POPC   GL162941  29.188   5.137   6.155
10509POPC   GL262942  29.196   5.257   6.155
10509POPC   C1A62943  29.172   5.046   6.455
10509POPC   D2A62944  29.138   5.072   6.755
10509POPC   C3A62945  29.120   5.051   7.055
10509POPC   C4A62946  29.113   5.117   7.355
10509POPC   C1B62947  29.161   5.380   6.455
10509POPC   C2B62948  29.136   5.335   6.755
10509POPC   C3B62949  29.166   5.298   7.055
10509POPC   C4B62950  29.170   5.351   7.355
10510POPC   NC362951   5.825  43.064   5.555
10510POPC   PO462952   5.879  43.071   5.855
10510POPC   GL162953   5.841  43.160   6.155
10510POPC   GL262954   5.898  43.213   6.155
10510POPC   C1A62955   5.897  43.149   6.455
10510POPC   D2A62956   5.861  43.121   6.755
10510POPC   C3A62957   5.873  43.080   7.055
10510POPC   C4A62958   5.889  43.076   7.355
10510POPC   C1B62959   6.038  43.309   6.455
10510POPC   C2B62960   6.073  43.295   6.755
10510POPC   C3B62961   6.066  43.327   7.055
10510POPC   C4B62962   6.063  43.273   7.355
10511POPC   NC362963  36.097  30.724   5.555
10511POPC   PO462964  36.093  30.667   5.855
10511POPC   GL162965  36.176  30.726   6.155
10511POPC   GL262966  36.258  30.651   6.155
10511POPC   C1A62967  36.078  30.723   6.455
10511POPC   D2A62968  36.114  30.667   6.755
10511POPC   C3A62969  36.174  30.709   7.055
10511POPC   C4A62970  36.167  30.655   7.355
10511POPC   C1B62971  36.302  30.591   6.455
10511POPC   C2B62972  36.300  30.551   6.755
10511POPC   C3B62973  36.326  30.576   7.055
10511POPC   C4B62974  36.302  30.535   7.355
10512POPC   NC362975   5.100  22.141   5.555
10512POPC   PO462976   5.124  22.188   5.855
10512POPC   GL162977   5.130  22.186   6.155
10512POPC   GL262978   5.003  22.236   6.155
10512POPC   C1A62979   5.067  22.154   6.455
10512POPC   D2A62980   5.099  22.160   6.755
10512POPC   C3A62981   5.088  22.170   7.055
10512POPC   C4A62982   5.044  22.130   7.355
10512POPC   C1B62983   4.845  22.332   6.455
10512POPC   C2B62984   4.837  22.311   6.755
10512POPC   C3B62985   4.834  22.263   7.055
10512POPC   C4B62986   4.924  22.259   7.355
10513POPC   NC362987  36.884   9.699   5.555
10513POPC   PO462988  36.902   9.773   5.855
10513POPC   GL162989  36.912   9.761   6.155
10513POPC   GL262990  36.977   9.631   6.155
10513POPC   C1A62991  36.928   9.708   6.455
10513POPC   D2A62992  36.942   9.729   6.755
10513POPC   C3A62993  36.919   9.747   7.055
10513POPC   C4A62994  36.907   9.716   7.355
10513POPC   C1B62995  37.023   9.584   6.455
10513POPC   C2B62996  37.009   9.553   6.755
10513POPC   C3B62997  36.989   9.584   7.055
10513POPC   C4B62998  37.058   9.542   7.355
10514POPC   NC362999  38.499  29.965   5.555
10514POPC   PO463000  38.491  29.960   5.855
10514POPC   GL163001  38.477  29.886   6.155
10514POPC   GL263002  38.536  29.780   6.155
10514POPC   C1A63003  38.443  29.896   6.455
10514POPC   D2A63004  38.503  29.942   6.755
10514POPC   C3A63005  38.505  29.878   7.055
10514POPC   C4A63006  38.442  29.901   7.355
10514POPC   C1B63007  38.536  29.669   6.455
10514POPC   C2B63008  38.546  29.704   6.755
10514POPC   C3B63009  38.546  29.726   7.055
10514POPC   C4B63010  38.535  29.709   7.355
10515POPC   NC363011   2.813  39.240   5.555
10515POPC   PO463012   2.803  39.242   5.855
10515POPC   GL163013   2.734  39.253   6.155
10515POPC   GL263014   2.899  39.235   6.155
10515POPC   C1A63015   2.783  39.195   6.455
10515POPC   D2A63016   2.793  39.280   6.755
10515POPC   C3A63017   2.741  39.274   7.055
10515POPC   C4A63018   2.770  39.183   7.355
10515POPC   C1B63019   3.017  39.154   6.455
10515POPC   C2B63020   3.015  39.212   6.755
10515POPC   C3B63021   2.996  39.140   7.055
10515POPC   C4B63022   2.987  39.204   7.355
10516POPC   NC363023  28.363   5.842   5.555
10516POPC   PO463024  28.398   5.847   5.855
10516POPC   GL163025  28.404   5.876   6.155
10516POPC   GL263026  28.426   5.755   6.155
10516POPC   C1A63027  28.369   5.916   6.455
10516POPC   D2A63028  28.325   5.863   6.755
10516POPC   C3A63029  28.412   5.831   7.055
10516POPC   C4A63030  28.346   5.852   7.355
10516POPC   C1B63031  28.485   5.612   6.455
10516POPC   C2B63032  28.483   5.669   6.755
10516POPC   C3B63033  28.428   5.626   7.055
10516POPC   C4B63034  28.447   5.602   7.355
10517POPC   NC363035  28.359  43.912   5.555
10517POPC   PO463036  28.391  43.909   5.855
10517POPC   GL163037  28.353  43.840   6.155
10517POPC   GL263038  28.363  43.742   6.155
10517POPC   C1A63039  28.382  43.847   6.455
10517POPC   D2A63040  28.399  43.860   6.755
10517POPC   C3A63041  28.332  43.894   7.055
10517POPC   C4A63042  28.361  43.864   7.355
10517POPC   C1B63043  28.344  43.661   6.455
10517POPC   C2B63044  28.354  43.598   6.755
10517POPC   C3B63045  28.327  43.629   7.055
10517POPC   C4B63046  28.286  43.661   7.355
10518POPC   NC363047  19.841  33.774   5.555
10518POPC   PO463048  19.802  33.795   5.855
10518POPC   GL163049  19.793  33.796   6.155
10518POPC   GL263050  19.713  33.888   6.155
10518POPC   C1A63051  19.882  33.849   6.455
10518POPC   D2A63052  19.797  33.832   6.755
10518POPC   C3A63053  19.842  33.848   7.055
10518POPC   C4A63054  19.802  33.821   7.355
10518POPC   C1B63055  19.665  33.969   6.455
10518POPC   C2B63056  19.615  33.963   6.755
10518POPC   C3B63057  19.640  33.977   7.055
10518POPC   C4B63058  19.653  34.002   7.355
10519POPC   NC363059  29.137  19.073   5.555
10519POPC   PO463060  29.155  19.090   5.855
10519POPC   GL163061  29.189  19.052   6.155
10519POPC   GL263062  29.228  18.963   6.155
10519POPC   C1A63063  29.103  19.052   6.455
10519POPC   D2A63064  29.167  19.014   6.755
10519POPC   C3A63065  29.151  19.095   7.055
10519POPC   C4A63066  29.176  19.052   7.355
10519POPC   C1B63067  29.380  18.932   6.455
10519POPC   C2B63068  29.393  18.943   6.755
10519POPC   C3B63069  29.352  18.931   7.055
10519POPC   C4B63070  29.378  18.955   7.355
10520POPC   NC363071   7.388  36.107   5.555
10520POPC   PO463072   7.457  36.162   5.855
10520POPC   GL163073   7.422  36.153   6.155
10520POPC   GL263074   7.561  36.246   6.155
10520POPC   C1A63075   7.438  36.152   6.455
10520POPC   D2A63076   7.470  36.158   6.755
10520POPC   C3A63077   7.470  36.113   7.055
10520POPC   C4A63078   7.461  36.088   7.355
10520POPC   C1B63079   7.583  36.267   6.455
10520POPC   C2B63080   7.610  36.257   6.755
10520POPC   C3B63081   7.638  36.330   7.055
10520POPC   C4B63082   7.634  36.274   7.355
10521POPC   NC363083   6.655   4.293   5.555
10521POPC   PO463084   6.645   4.306   5.855
10521POPC   GL163085   6.670   4.343   6.155
10521POPC   GL263086   6.721   4.318   6.155
10521POPC   C1A63087   6.609   4.273   6.455
10521POPC   D2A63088   6.645   4.284   6.755
10521POPC   C3A63089   6.635   4.330   7.055
10521POPC   C4A63090   6.611   4.277   7.355
10521POPC   C1B63091   6.865   4.223   6.455
10521POPC   C2B63092   6.885   4.232   6.755
10521POPC   C3B63093   6.901   4.250   7.055
10521POPC   C4B63094   6.885   4.263   7.355
10522POPC   NC363095  37.729  40.014   5.555
10522POPC   PO463096  37.692  40.024   5.855
10522POPC   GL163097  37.664  39.976   6.155
10522POPC   GL263098  37.583  39.996   6.155
10522POPC   C1A63099  37.676  40.013   6.455
10522POPC   D2A63100  37.692  40.054   6.755
10522POPC   C3A63101  37.711  40.025   7.055
10522POPC   C4A63102  37.717  39.988   7.355
10522POPC   C1B63103  37.484  39.956   6.455
10522POPC   C2B63104  37.452  39.984   6.755
10522POPC   C3B63105  37.482  39.931   7.055
10522POPC   C4B63106  37.403  39.992   7.355
10523POPC   NC363107   1.968  38.492   5.555
10523POPC   PO463108   2.015  38.493   5.855
10523POPC   GL163109   2.002  38.472   6.155
10523POPC   GL263110   2.107  38.342   6.155
10523POPC   C1A63111   2.028  38.466   6.455
10523POPC   D2A63112   1.960  38.407   6.755
10523POPC   C3A63113   2.036  38.425   7.055
10523POPC   C4A63114   2.036  38.410   7.355
10523POPC   C1B63115   2.213  38.289   6.455
10523POPC   C2B63116   2.199  38.332   6.755
10523POPC   C3B63117   2.155  38.261   7.055
10523POPC   C4B63118   2.211  38.282   7.355
10524POPC   NC363119  10.520  42.289   5.555
10524POPC   PO463120  10.562  42.378   5.855
10524POPC   GL163121  10.540  42.376   6.155
10524POPC   GL263122  10.569  42.447   6.155
10524POPC   C1A63123  10.506  42.327   6.455
10524POPC   D2A63124  10.570  42.287   6.755
10524POPC   C3A63125  10.555  42.367   7.055
10524POPC   C4A63126  10.557  42.369   7.355
10524POPC   C1B63127  10.744  42.501   6.455
10524POPC   C2B63128  10.749  42.505   6.755
10524POPC   C3B63129  10.760  42.514   7.055
10524POPC   C4B63130  10.724  42.505   7.355
10525POPC   NC363131   5.096  38.462   5.555
10525POPC   PO463132   5.139  38.419   5.855
10525POPC   GL163133   5.138  38.504   6.155
10525POPC   GL263134   4.942  38.473   6.155
10525POPC   C1A63135   5.129  38.458   6.455
10525POPC   D2A63136   5.063  38.412   6.755
10525POPC   C3A63137   5.098  38.471   7.055
10525POPC   C4A63138   5.076  38.501   7.355
10525POPC   C1B63139   4.852  38.547   6.455
10525POPC   C2B63140   4.862  38.554   6.755
10525POPC   C3B63141   4.847  38.512   7.055
10525POPC   C4B63142   4.853  38.532   7.355
10526POPC   NC363143   8.187  26.030   5.555
10526POPC   PO463144   8.187  26.042   5.855
10526POPC   GL163145   8.173  26.080   6.155
10526POPC   GL263146   8.124  26.018   6.155
10526POPC   C1A63147   8.199  26.058   6.455
10526POPC   D2A63148   8.208  26.072   6.755
10526POPC   C3A63149   8.192  26.030   7.055
10526POPC   C4A63150   8.236  26.027   7.355
10526POPC   C1B63151   8.008  25.929   6.455
10526POPC   C2B63152   8.002  25.937   6.755
10526POPC   C3B63153   8.011  25.924   7.055
10526POPC   C4B63154   7.927  25.895   7.355
10527POPC   NC363155  43.145  36.155   5.555
10527POPC   PO463156  43.145  36.141   5.855
10527POPC   GL163157  43.066  36.143   6.155
10527POPC   GL263158  43.200  36.122   6.155
10527POPC   C1A63159  43.144  36.123   6.455
10527POPC   D2A63160  43.072  36.091   6.755
10527POPC   C3A63161  43.102  36.174   7.055
10527POPC   C4A63162  43.116  36.119   7.355
10527POPC   C1B63163  43.400  36.100   6.455
10527POPC   C2B63164  43.385  36.112   6.755
10527POPC   C3B63165  43.371  36.092   7.055
10527POPC   C4B63166  43.323  36.089   7.355
10528POPC   NC363167  26.821   9.787   5.555
10528POPC   PO463168  26.832   9.759   5.855
10528POPC   GL163169  26.862   9.769   6.155
10528POPC   GL263170  26.926   9.689   6.155
10528POPC   C1A63171  26.814   9.708   6.455
10528POPC   D2A63172  26.793   9.721   6.755
10528POPC   C3A63173  26.794   9.736   7.055
10528POPC   C4A63174  26.795   9.786   7.355
10528POPC   C1B63175  27.024   9.666   6.455
10528POPC   C2B63176  27.085   9.679   6.755
10528POPC   C3B63177  27.102   9.655   7.055
10528POPC   C4B63178  27.043   9.685   7.355
10529POPC   NC363179  29.935  41.578   5.555
10529POPC   PO463180  29.953  41.555   5.855
10529POPC   GL163181  29.921  41.574   6.155
10529POPC   GL263182  30.049  41.529   6.155
10529POPC   C1A63183  29.873  41.602   6.455
10529POPC   D2A63184  29.885  41.551   6.755
10529POPC   C3A63185  29.905  41.532   7.055
10529POPC   C4A63186  29.875  41.555   7.355
10529POPC   C1B63187  30.208  41.527   6.455
10529POPC   C2B63188  30.126  41.524   6.755
10529POPC   C3B63189  30.199  41.531   7.055
10529POPC   C4B63190  30.114  41.479   7.355
10530POPC   NC363191   0.421  30.677   5.555
10530POPC   PO463192   0.433  30.652   5.855
10530POPC   GL163193   0.409  30.720   6.155
10530POPC   GL263194   0.591  30.730   6.155
10530POPC   C1A63195   0.438  30.657   6.455
10530POPC   D2A63196   0.467  30.667   6.755
10530POPC   C3A63197   0.465  30.700   7.055
10530POPC   C4A63198   0.447  30.699   7.355
10530POPC   C1B63199   0.711  30.757   6.455
10530POPC   C2B63200   0.703  30.727   6.755
10530POPC   C3B63201   0.648  30.709   7.055
10530POPC   C4B63202   0.674  30.693   7.355
10531POPC   NC363203  22.892  13.591   5.555
10531POPC   PO463204  22.904  13.620   5.855
10531POPC   GL163205  22.938  13.581   6.155
10531POPC   GL263206  22.824  13.725   6.155
10531POPC   C1A63207  22.917  13.597   6.455
10531POPC   D2A63208  22.914  13.639   6.755
10531POPC   C3A63209  22.963  13.622   7.055
10531POPC   C4A63210  22.892  13.677   7.355
10531POPC   C1B63211  22.742  13.807   6.455
10531POPC   C2B63212  22.717  13.815   6.755
10531POPC   C3B63213  22.769  13.762   7.055
10531POPC   C4B63214  22.810  13.832   7.355
10532POPC   NC363215  35.399  43.861   5.555
10532POPC   PO463216  35.386  43.852   5.855
10532POPC   GL163217  35.401  43.852   6.155
10532POPC   GL263218  35.433  43.855   6.155
10532POPC   C1A63219  35.391  43.918   6.455
10532POPC   D2A63220  35.343  43.845   6.755
10532POPC   C3A63221  35.367  43.919   7.055
10532POPC   C4A63222  35.303  43.893   7.355
10532POPC   C1B63223  35.589  43.750   6.455
10532POPC   C2B63224  35.581  43.700   6.755
10532POPC   C3B63225  35.514  43.775   7.055
10532POPC   C4B63226  35.603  43.745   7.355
10533POPC   NC363227  40.771  11.264   5.555
10533POPC   PO463228  40.804  11.340   5.855
10533POPC   GL163229  40.826  11.299   6.155
10533POPC   GL263230  40.703  11.203   6.155
10533POPC   C1A63231  40.801  11.331   6.455
10533POPC   D2A63232  40.794  11.315   6.755
10533POPC   C3A63233  40.802  11.265   7.055
10533POPC   C4A63234  40.738  11.295   7.355
10533POPC   C1B63235  40.614  11.086   6.455
10533POPC   C2B63236  40.653  11.137   6.755
10533POPC   C3B63237  40.651  11.145   7.055
10533POPC   C4B63238  40.584  11.114   7.355
10534POPC   NC363239  16.774  43.922   5.555
10534POPC   PO463240  16.715  43.912   5.855
10534POPC   GL163241  16.693  43.915   6.155
10534POPC   GL263242  16.568  43.934   6.155
10534POPC   C1A63243  16.719  43.935   6.455
10534POPC   D2A63244  16.690  43.851   6.755
10534POPC   C3A63245  16.751  43.861   7.055
10534POPC   C4A63246  16.682  43.865   7.355
10534POPC   C1B63247  16.509  43.892   6.455
10534POPC   C2B63248  16.443  43.925   6.755
10534POPC   C3B63249  16.448  43.970   7.055
10534POPC   C4B63250  16.486  43.946   7.355
10535POPC   NC363251  10.478  20.601   5.555
10535POPC   PO463252  10.490  20.596   5.855
10535POPC   GL163253  10.547  20.646   6.155
10535POPC   GL263254  10.491  20.536   6.155
10535POPC   C1A63255  10.498  20.638   6.455
10535POPC   D2A63256  10.514  20.591   6.755
10535POPC   C3A63257  10.555  20.628   7.055
10535POPC   C4A63258  10.550  20.634   7.355
10535POPC   C1B63259  10.463  20.367   6.455
10535POPC   C2B63260  10.458  20.357   6.755
10535POPC   C3B63261  10.495  20.386   7.055
10535POPC   C4B63262  10.520  20.352   7.355
10536POPC   NC363263  15.907  44.639   5.555
10536POPC   PO463264  15.921  44.655   5.855
10536POPC   GL163265  15.933  44.625   6.155
10536POPC   GL263266  15.924  44.547   6.155
10536POPC   C1A63267  15.951  44.665   6.455
10536POPC   D2A63268  15.994  44.645   6.755
10536POPC   C3A63269  15.940  44.649   7.055
10536POPC   C4A63270  15.976  44.672   7.355
10536POPC   C1B63271  15.828  44.399   6.455
10536POPC   C2B63272  15.831  44.478   6.755
10536POPC   C3B63273  15.798  44.397   7.055
10536POPC   C4B63274  15.805  44.404   7.355
10537POPC   NC363275   2.728  29.922   5.555
10537POPC   PO463276   2.802  29.946   5.855
10537POPC   GL163277   2.802  29.950   6.155
10537POPC   GL263278   2.676  29.894   6.155
10537POPC   C1A63279   2.753  29.922   6.455
10537POPC   D2A63280   2.810  29.900   6.755
10537POPC   C3A63281   2.718  29.917   7.055
10537POPC   C4A63282   2.755  29.969   7.355
10537POPC   C1B63283   2.561  29.886   6.455
10537POPC   C2B63284   2.551  29.898   6.755
10537POPC   C3B63285   2.489  29.887   7.055
10537POPC   C4B63286   2.561  29.884   7.355
10538POPC   NC363287  19.842  15.180   5.555
10538POPC   PO463288  19.862  15.161   5.855
10538POPC   GL163289  19.844  15.168   6.155
10538POPC   GL263290  19.774  15.337   6.155
10538POPC   C1A63291  19.862  15.216   6.455
10538POPC   D2A63292  19.878  15.198   6.755
10538POPC   C3A63293  19.799  15.160   7.055
10538POPC   C4A63294  19.825  15.186   7.355
10538POPC   C1B63295  19.756  15.402   6.455
10538POPC   C2B63296  19.748  15.445   6.755
10538POPC   C3B63297  19.788  15.369   7.055
10538POPC   C4B63298  19.731  15.457   7.355
10539POPC   NC363299   3.571  28.348   5.555
10539POPC   PO463300   3.591  28.398   5.855
10539POPC   GL163301   3.538  28.379   6.155
10539POPC   GL263302   3.408  28.262   6.155
10539POPC   C1A63303   3.503  28.383   6.455
10539POPC   D2A63304   3.542  28.340   6.755
10539POPC   C3A63305   3.514  28.388   7.055
10539POPC   C4A63306   3.587  28.381   7.355
10539POPC   C1B63307   3.321  28.210   6.455
10539POPC   C2B63308   3.356  28.241   6.755
10539POPC   C3B63309   3.375  28.179   7.055
10539POPC   C4B63310   3.312  28.187   7.355
10540POPC   NC363311  18.284  43.929   5.555
10540POPC   PO463312  18.269  43.931   5.855
10540POPC   GL163313  18.289  43.842   6.155
10540POPC   GL263314  18.285  43.758   6.155
10540POPC   C1A63315  18.262  43.843   6.455
10540POPC   D2A63316  18.305  43.933   6.755
10540POPC   C3A63317  18.329  43.896   7.055
10540POPC   C4A63318  18.268  43.856   7.355
10540POPC   C1B63319  18.258  43.692   6.455
10540POPC   C2B63320  18.246  43.665   6.755
10540POPC   C3B63321  18.222  43.592   7.055
10540POPC   C4B63322  18.260  43.629   7.355
10541POPC   NC363323  15.959  23.691   5.555
10541POPC   PO463324  15.929  23.738   5.855
10541POPC   GL163325  15.923  23.705   6.155
10541POPC   GL263326  15.842  23.759   6.155
10541POPC   C1A63327  15.915  23.729   6.455
10541POPC   D2A63328  15.999  23.672   6.755
10541POPC   C3A63329  15.964  23.701   7.055
10541POPC   C4A63330  15.981  23.677   7.355
10541POPC   C1B63331  15.766  23.810   6.455
10541POPC   C2B63332  15.764  23.796   6.755
10541POPC   C3B63333  15.722  23.764   7.055
10541POPC   C4B63334  15.735  23.748   7.355
10542POPC   NC363335  28.330  26.811   5.555
10542POPC   PO463336  28.354  26.839   5.855
10542POPC   GL163337  28.415  26.774   6.155
10542POPC   GL263338  28.475  26.921   6.155
10542POPC   C1A63339  28.362  26.787   6.455
10542POPC   D2A63340  28.377  26.783   6.755
10542POPC   C3A63341  28.321  26.790   7.055
10542POPC   C4A63342  28.356  26.837   7.355
10542POPC   C1B63343  28.465  27.028   6.455
10542POPC   C2B63344  28.500  26.999   6.755
10542POPC   C3B63345  28.522  27.064   7.055
10542POPC   C4B63346  28.468  27.055   7.355
10543POPC   NC363347  33.848   8.956   5.555
10543POPC   PO463348  33.772   9.011   5.855
10543POPC   GL163349  33.769   8.989   6.155
10543POPC   GL263350  33.941   8.902   6.155
10543POPC   C1A63351  33.829   8.936   6.455
10543POPC   D2A63352  33.821   8.945   6.755
10543POPC   C3A63353  33.754   8.986   7.055
10543POPC   C4A63354  33.841   8.976   7.355
10543POPC   C1B63355  34.009   8.806   6.455
10543POPC   C2B63356  33.995   8.860   6.755
10543POPC   C3B63357  34.000   8.807   7.055
10543POPC   C4B63358  34.029   8.835   7.355
10544POPC   NC363359   4.269  16.753   5.555
10544POPC   PO463360   4.364  16.694   5.855
10544POPC   GL163361   4.302  16.739   6.155
10544POPC   GL263362   4.163  16.799   6.155
10544POPC   C1A63363   4.303  16.766   6.455
10544POPC   D2A63364   4.275  16.746   6.755
10544POPC   C3A63365   4.293  16.773   7.055
10544POPC   C4A63366   4.346  16.720   7.355
10544POPC   C1B63367   4.026  16.734   6.455
10544POPC   C2B63368   4.082  16.806   6.755
10544POPC   C3B63369   4.089  16.800   7.055
10544POPC   C4B63370   4.117  16.767   7.355
10545POPC   NC363371  19.077  39.976   5.555
10545POPC   PO463372  19.088  40.050   5.855
10545POPC   GL163373  19.081  39.998   6.155
10545POPC   GL263374  19.172  39.981   6.155
10545POPC   C1A63375  19.024  40.049   6.455
10545POPC   D2A63376  19.040  39.973   6.755
10545POPC   C3A63377  19.095  40.024   7.055
10545POPC   C4A63378  19.011  39.975   7.355
10545POPC   C1B63379  19.302  39.948   6.455
10545POPC   C2B63380  19.323  39.966   6.755
10545POPC   C3B63381  19.258  39.930   7.055
10545POPC   C4B63382  19.333  39.898   7.355
10546POPC   NC363383  37.701  12.877   5.555
10546POPC   PO463384  37.721  12.858   5.855
10546POPC   GL163385  37.693  12.823   6.155
10546POPC   GL263386  37.582  12.727   6.155
10546POPC   C1A63387  37.646  12.826   6.455
10546POPC   D2A63388  37.688  12.834   6.755
10546POPC   C3A63389  37.679  12.862   7.055
10546POPC   C4A63390  37.699  12.881   7.355
10546POPC   C1B63391  37.433  12.657   6.455
10546POPC   C2B63392  37.466  12.745   6.755
10546POPC   C3B63393  37.506  12.736   7.055
10546POPC   C4B63394  37.447  12.685   7.355
10547POPC   NC363395  36.159  17.506   5.555
10547POPC   PO463396  36.126  17.536   5.855
10547POPC   GL163397  36.152  17.459   6.155
10547POPC   GL263398  36.254  17.497   6.155
10547POPC   C1A63399  36.088  17.518   6.455
10547POPC   D2A63400  36.122  17.523   6.755
10547POPC   C3A63401  36.149  17.459   7.055
10547POPC   C4A63402  36.087  17.547   7.355
10547POPC   C1B63403  36.338  17.588   6.455
10547POPC   C2B63404  36.348  17.572   6.755
10547POPC   C3B63405  36.400  17.563   7.055
10547POPC   C4B63406  36.332  17.545   7.355
10548POPC   NC363407  21.436  33.829   5.555
10548POPC   PO463408  21.386  33.759   5.855
10548POPC   GL163409  21.424  33.822   6.155
10548POPC   GL263410  21.317  33.751   6.155
10548POPC   C1A63411  21.359  33.838   6.455
10548POPC   D2A63412  21.403  33.750   6.755
10548POPC   C3A63413  21.420  33.779   7.055
10548POPC   C4A63414  21.360  33.807   7.355
10548POPC   C1B63415  21.127  33.712   6.455
10548POPC   C2B63416  21.148  33.703   6.755
10548POPC   C3B63417  21.116  33.709   7.055
10548POPC   C4B63418  21.192  33.706   7.355
10549POPC   NC363419  38.477  16.717   5.555
10549POPC   PO463420  38.429  16.717   5.855
10549POPC   GL163421  38.461  16.736   6.155
10549POPC   GL263422  38.310  16.701   6.155
10549POPC   C1A63423  38.445  16.701   6.455
10549POPC   D2A63424  38.464  16.730   6.755
10549POPC   C3A63425  38.447  16.752   7.055
10549POPC   C4A63426  38.416  16.739   7.355
10549POPC   C1B63427  38.245  16.732   6.455
10549POPC   C2B63428  38.217  16.749   6.755
10549POPC   C3B63429  38.166  16.763   7.055
10549POPC   C4B63430  38.233  16.717   7.355
10550POPC   NC363431  33.033   2.755   5.555
10550POPC   PO463432  33.070   2.774   5.855
10550POPC   GL163433  32.984   2.815   6.155
10550POPC   GL263434  32.952   2.842   6.155
10550POPC   C1A63435  33.035   2.752   6.455
10550POPC   D2A63436  33.069   2.774   6.755
10550POPC   C3A63437  33.056   2.733   7.055
10550POPC   C4A63438  33.041   2.735   7.355
10550POPC   C1B63439  32.819   2.945   6.455
10550POPC   C2B63440  32.865   2.950   6.755
10550POPC   C3B63441  32.871   2.946   7.055
10550POPC   C4B63442  32.858   2.973   7.355
10551POPC   NC363443   8.232  22.982   5.555
10551POPC   PO463444   8.236  22.954   5.855
10551POPC   GL163445   8.211  22.965   6.155
10551POPC   GL263446   8.146  23.038   6.155
10551POPC   C1A63447   8.189  22.939   6.455
10551POPC   D2A63448   8.158  22.900   6.755
10551POPC   C3A63449   8.156  22.965   7.055
10551POPC   C4A63450   8.242  22.906   7.355
10551POPC   C1B63451   8.052  23.120   6.455
10551POPC   C2B63452   7.963  23.056   6.755
10551POPC   C3B63453   7.995  23.118   7.055
10551POPC   C4B63454   8.002  23.089   7.355
10552POPC   NC363455   8.170   2.005   5.555
10552POPC   PO463456   8.231   2.003   5.855
10552POPC   GL163457   8.207   1.985   6.155
10552POPC   GL263458   8.128   1.853   6.155
10552POPC   C1A63459   8.203   1.942   6.455
10552POPC   D2A63460   8.222   1.996   6.755
10552POPC   C3A63461   8.151   1.967   7.055
10552POPC   C4A63462   8.218   1.987   7.355
10552POPC   C1B63463   8.056   1.781   6.455
10552POPC   C2B63464   8.041   1.810   6.755
10552POPC   C3B63465   8.083   1.818   7.055
10552POPC   C4B63466   8.072   1.786   7.355
10553POPC   NC363467   1.988  17.499   5.555
10553POPC   PO463468   2.031  17.505   5.855
10553POPC   GL163469   1.955  17.530   6.155
10553POPC   GL263470   1.920  17.429   6.155
10553POPC   C1A63471   1.955  17.474   6.455
10553POPC   D2A63472   1.971  17.537   6.755
10553POPC   C3A63473   2.030  17.467   7.055
10553POPC   C4A63474   1.966  17.492   7.355
10553POPC   C1B63475   1.867  17.300   6.455
10553POPC   C2B63476   1.893  17.265   6.755
10553POPC   C3B63477   1.872  17.302   7.055
10553POPC   C4B63478   1.813  17.255   7.355
10554POPC   NC363479  44.650  19.821   5.555
10554POPC   PO463480  44.705  19.789   5.855
10554POPC   GL163481  44.615  19.845   6.155
10554POPC   GL263482  44.625  19.698   6.155
10554POPC   C1A63483  44.621  19.869   6.455
10554POPC   D2A63484  44.669  19.797   6.755
10554POPC   C3A63485  44.642  19.873   7.055
10554POPC   C4A63486  44.698  19.857   7.355
10554POPC   C1B63487  44.643  19.561   6.455
10554POPC   C2B63488  44.686  19.572   6.755
10554POPC   C3B63489  44.661  19.625   7.055
10554POPC   C4B63490  44.693  19.591   7.355
10555POPC   NC363491  26.082   3.508   5.555
10555POPC   PO463492  26.001   3.546   5.855
10555POPC   GL163493  26.060   3.492   6.155
10555POPC   GL263494  26.128   3.645   6.155
10555POPC   C1A63495  26.071   3.547   6.455
10555POPC   D2A63496  26.087   3.533   6.755
10555POPC   C3A63497  26.038   3.518   7.055
10555POPC   C4A63498  26.055   3.511   7.355
10555POPC   C1B63499  26.278   3.683   6.455
10555POPC   C2B63500  26.226   3.705   6.755
10555POPC   C3B63501  26.225   3.636   7.055
10555POPC   C4B63502  26.225   3.711   7.355
10556POPC   NC363503  25.312  29.957   5.555
10556POPC   PO463504  25.300  29.960   5.855
10556POPC   GL163505  25.255  29.905   6.155
10556POPC   GL263506  25.416  29.963   6.155
10556POPC   C1A63507  25.219  29.881   6.455
10556POPC   D2A63508  25.220  29.926   6.755
10556POPC   C3A63509  25.313  29.970   7.055
10556POPC   C4A63510  25.308  29.877   7.355
10556POPC   C1B63511  25.519  29.953   6.455
10556POPC   C2B63512  25.474  29.907   6.755
10556POPC   C3B63513  25.486  29.892   7.055
10556POPC   C4B63514  25.537  29.950   7.355
10557POPC   NC363515  19.054   8.232   5.555
10557POPC   PO463516  19.073   8.177   5.855
10557POPC   GL163517  19.027   8.239   6.155
10557POPC   GL263518  18.923   8.226   6.155
10557POPC   C1A63519  19.036   8.215   6.455
10557POPC   D2A63520  19.029   8.170   6.755
10557POPC   C3A63521  19.023   8.179   7.055
10557POPC   C4A63522  19.050   8.235   7.355
10557POPC   C1B63523  18.863   8.245   6.455
10557POPC   C2B63524  18.825   8.250   6.755
10557POPC   C3B63525  18.787   8.269   7.055
10557POPC   C4B63526  18.805   8.286   7.355
10558POPC   NC363527  33.005   4.284   5.555
10558POPC   PO463528  33.068   4.279   5.855
10558POPC   GL163529  33.068   4.268   6.155
10558POPC   GL263530  33.115   4.398   6.155
10558POPC   C1A63531  33.034   4.322   6.455
10558POPC   D2A63532  33.025   4.276   6.755
10558POPC   C3A63533  33.011   4.285   7.055
10558POPC   C4A63534  33.014   4.282   7.355
10558POPC   C1B63535  33.233   4.434   6.455
10558POPC   C2B63536  33.266   4.452   6.755
10558POPC   C3B63537  33.197   4.416   7.055
10558POPC   C4B63538  33.187   4.488   7.355
10559POPC   NC363539  18.299   5.841   5.555
10559POPC   PO463540  18.327   5.888   5.855
10559POPC   GL163541  18.328   5.913   6.155
10559POPC   GL263542  18.214   5.931   6.155
10559POPC   C1A63543  18.252   5.832   6.455
10559POPC   D2A63544  18.234   5.831   6.755
10559POPC   C3A63545  18.323   5.877   7.055
10559POPC   C4A63546  18.241   5.873   7.355
10559POPC   C1B63547  18.035   5.944   6.455
10559POPC   C2B63548  18.033   6.000   6.755
10559POPC   C3B63549  18.086   5.969   7.055
10559POPC   C4B63550  18.046   5.947   7.355
10560POPC   NC363551   5.069  18.310   5.555
10560POPC   PO463552   5.078  18.308   5.855
10560POPC   GL163553   5.097  18.307   6.155
10560POPC   GL263554   4.982  18.240   6.155
10560POPC   C1A63555   5.113  18.248   6.455
10560POPC   D2A63556   5.051  18.318   6.755
10560POPC   C3A63557   5.101  18.270   7.055
10560POPC   C4A63558   5.124  18.304   7.355
10560POPC   C1B63559   4.896  18.197   6.455
10560POPC   C2B63560   4.842  18.224   6.755
10560POPC   C3B63561   4.896  18.162   7.055
10560POPC   C4B63562   4.908  18.157   7.355
10561POPC   NC363563  16.695  39.261   5.555
10561POPC   PO463564  16.741  39.218   5.855
10561POPC   GL163565  16.731  39.239   6.155
10561POPC   GL263566  16.788  39.297   6.155
10561POPC   C1A63567  16.688  39.267   6.455
10561POPC   D2A63568  16.756  39.195   6.755
10561POPC   C3A63569  16.781  39.230   7.055
10561POPC   C4A63570  16.687  39.225   7.355
10561POPC   C1B63571  16.842  39.473   6.455
10561POPC   C2B63572  16.844  39.478   6.755
10561POPC   C3B63573  16.782  39.480   7.055
10561POPC   C4B63574  16.862  39.438   7.355
10562POPC   NC363575  26.048  13.620   5.555
10562POPC   PO463576  26.036  13.637   5.855
10562POPC   GL163577  26.067  13.616   6.155
10562POPC   GL263578  25.949  13.558   6.155
10562POPC   C1A63579  26.031  13.673   6.455
10562POPC   D2A63580  26.018  13.606   6.755
10562POPC   C3A63581  26.042  13.579   7.055
10562POPC   C4A63582  26.020  13.676   7.355
10562POPC   C1B63583  25.779  13.542   6.455
10562POPC   C2B63584  25.818  13.501   6.755
10562POPC   C3B63585  25.843  13.515   7.055
10562POPC   C4B63586  25.861  13.491   7.355
10563POPC   NC363587  19.093  14.437   5.555
10563POPC   PO463588  19.062  14.428   5.855
10563POPC   GL163589  19.075  14.384   6.155
10563POPC   GL263590  19.122  14.264   6.155
10563POPC   C1A63591  19.063  14.387   6.455
10563POPC   D2A63592  19.013  14.358   6.755
10563POPC   C3A63593  19.101  14.399   7.055
10563POPC   C4A63594  19.082  14.366   7.355
10563POPC   C1B63595  19.183  14.162   6.455
10563POPC   C2B63596  19.131  14.225   6.755
10563POPC   C3B63597  19.205  14.150   7.055
10563POPC   C4B63598  19.124  14.157   7.355
10564POPC   NC363599  24.457  19.791   5.555
10564POPC   PO463600  24.502  19.830   5.855
10564POPC   GL163601  24.485  19.883   6.155
10564POPC   GL263602  24.569  19.763   6.155
10564POPC   C1A63603  24.489  19.841   6.455
10564POPC   D2A63604  24.442  19.880   6.755
10564POPC   C3A63605  24.494  19.821   7.055
10564POPC   C4A63606  24.475  19.812   7.355
10564POPC   C1B63607  24.688  19.716   6.455
10564POPC   C2B63608  24.729  19.776   6.755
10564POPC   C3B63609  24.729  19.754   7.055
10564POPC   C4B63610  24.684  19.745   7.355
10565POPC   NC363611  19.046   9.730   5.555
10565POPC   PO463612  19.046   9.703   5.855
10565POPC   GL163613  19.079   9.738   6.155
10565POPC   GL263614  19.157   9.892   6.155
10565POPC   C1A63615  19.015   9.776   6.455
10565POPC   D2A63616  19.013   9.777   6.755
10565POPC   C3A63617  19.076   9.737   7.055
10565POPC   C4A63618  19.014   9.785   7.355
10565POPC   C1B63619  19.164  10.000   6.455
10565POPC   C2B63620  19.245   9.973   6.755
10565POPC   C3B63621  19.249   9.962   7.055
10565POPC   C4B63622  19.196   9.968   7.355
10566POPC   NC363623  27.583   5.106   5.555
10566POPC   PO463624  27.626   5.081   5.855
10566POPC   GL163625  27.623   5.046   6.155
10566POPC   GL263626  27.690   4.946   6.155
10566POPC   C1A63627  27.592   5.049   6.455
10566POPC   D2A63628  27.584   5.127   6.755
10566POPC   C3A63629  27.584   5.074   7.055
10566POPC   C4A63630  27.580   5.045   7.355
10566POPC   C1B63631  27.683   4.882   6.455
10566POPC   C2B63632  27.741   4.906   6.755
10566POPC   C3B63633  27.720   4.825   7.055
10566POPC   C4B63634  27.672   4.892   7.355
10567POPC   NC363635  39.245  30.723   5.555
10567POPC   PO463636  39.269  30.664   5.855
10567POPC   GL163637  39.271  30.654   6.155
10567POPC   GL263638  39.253  30.808   6.155
10567POPC   C1A63639  39.249  30.738   6.455
10567POPC   D2A63640  39.255  30.709   6.755
10567POPC   C3A63641  39.242  30.742   7.055
10567POPC   C4A63642  39.217  30.672   7.355
10567POPC   C1B63643  39.352  30.975   6.455
10567POPC   C2B63644  39.343  30.952   6.755
10567POPC   C3B63645  39.288  30.919   7.055
10567POPC   C4B63646  39.358  30.912   7.355
10568POPC   NC363647  19.819  16.752   5.555
10568POPC   PO463648  19.843  16.724   5.855
10568POPC   GL163649  19.801  16.711   6.155
10568POPC   GL263650  19.820  16.605   6.155
10568POPC   C1A63651  19.857  16.765   6.455
10568POPC   D2A63652  19.820  16.764   6.755
10568POPC   C3A63653  19.798  16.766   7.055
10568POPC   C4A63654  19.833  16.713   7.355
10568POPC   C1B63655  19.735  16.541   6.455
10568POPC   C2B63656  19.693  16.452   6.755
10568POPC   C3B63657  19.697  16.470   7.055
10568POPC   C4B63658  19.760  16.532   7.355
10569POPC   NC363659  40.047  19.088   5.555
10569POPC   PO463660  40.033  19.032   5.855
10569POPC   GL163661  40.015  19.057   6.155
10569POPC   GL263662  39.985  18.910   6.155
10569POPC   C1A63663  39.978  19.076   6.455
10569POPC   D2A63664  39.958  19.011   6.755
10569POPC   C3A63665  39.972  19.012   7.055
10569POPC   C4A63666  39.968  19.058   7.355
10569POPC   C1B63667  39.965  18.777   6.455
10569POPC   C2B63668  39.988  18.836   6.755
10569POPC   C3B63669  39.941  18.859   7.055
10569POPC   C4B63670  39.982  18.767   7.355
10570POPC   NC363671  28.386   5.069   5.555
10570POPC   PO463672  28.358   5.084   5.855
10570POPC   GL163673  28.347   5.128   6.155
10570POPC   GL263674  28.211   5.109   6.155
10570POPC   C1A63675  28.403   5.089   6.455
10570POPC   D2A63676  28.367   5.067   6.755
10570POPC   C3A63677  28.406   5.068   7.055
10570POPC   C4A63678  28.350   5.124   7.355
10570POPC   C1B63679  28.167   5.168   6.455
10570POPC   C2B63680  28.148   5.171   6.755
10570POPC   C3B63681  28.108   5.155   7.055
10570POPC   C4B63682  28.132   5.220   7.355
10571POPC   NC363683  43.858  43.086   5.555
10571POPC   PO463684  43.924  43.142   5.855
10571POPC   GL163685  43.882  43.143   6.155
10571POPC   GL263686  44.004  43.121   6.155
10571POPC   C1A63687  43.866  43.155   6.455
10571POPC   D2A63688  43.861  43.084   6.755
10571POPC   C3A63689  43.885  43.110   7.055
10571POPC   C4A63690  43.900  43.155   7.355
10571POPC   C1B63691  44.093  43.198   6.455
10571POPC   C2B63692  44.102  43.199   6.755
10571POPC   C3B63693  44.080  43.182   7.055
10571POPC   C4B63694  44.166  43.221   7.355
10572POPC   NC363695  30.709   2.016   5.555
10572POPC   PO463696  30.740   2.039   5.855
10572POPC   GL163697  30.655   2.009   6.155
10572POPC   GL263698  30.745   1.906   6.155
10572POPC   C1A63699  30.663   2.038   6.455
10572POPC   D2A63700  30.705   1.983   6.755
10572POPC   C3A63701  30.736   1.959   7.055
10572POPC   C4A63702  30.717   1.947   7.355
10572POPC   C1B63703  30.860   1.784   6.455
10572POPC   C2B63704  30.841   1.840   6.755
10572POPC   C3B63705  30.824   1.831   7.055
10572POPC   C4B63706  30.891   1.808   7.355
10573POPC   NC363707   2.007  13.591   5.555
10573POPC   PO463708   1.942  13.613   5.855
10573POPC   GL163709   1.982  13.653   6.155
10573POPC   GL263710   1.983  13.749   6.155
10573POPC   C1A63711   2.007  13.675   6.455
10573POPC   D2A63712   1.964  13.634   6.755
10573POPC   C3A63713   1.983  13.641   7.055
10573POPC   C4A63714   1.952  13.595   7.355
10573POPC   C1B63715   2.036  13.854   6.455
10573POPC   C2B63716   2.071  13.918   6.755
10573POPC   C3B63717   2.084  13.875   7.055
10573POPC   C4B63718   2.049  13.835   7.355
10574POPC   NC363719  20.573  33.024   5.555
10574POPC   PO463720  20.586  33.002   5.855
10574POPC   GL163721  20.653  33.020   6.155
10574POPC   GL263722  20.688  33.034   6.155
10574POPC   C1A63723  20.640  33.072   6.455
10574POPC   D2A63724  20.637  33.018   6.755
10574POPC   C3A63725  20.570  33.019   7.055
10574POPC   C4A63726  20.561  33.005   7.355
10574POPC   C1B63727  20.805  33.151   6.455
10574POPC   C2B63728  20.867  33.107   6.755
10574POPC   C3B63729  20.880  33.091   7.055
10574POPC   C4B63730  20.865  33.078   7.355
10575POPC   NC363731  39.966  39.279   5.555
10575POPC   PO463732  39.962  39.191   5.855
10575POPC   GL163733  39.965  39.254   6.155
10575POPC   GL263734  39.893  39.175   6.155
10575POPC   C1A63735  39.968  39.205   6.455
10575POPC   D2A63736  40.032  39.243   6.755
10575POPC   C3A63737  40.010  39.243   7.055
10575POPC   C4A63738  40.025  39.204   7.355
10575POPC   C1B63739  39.722  39.198   6.455
10575POPC   C2B63740  39.803  39.157   6.755
10575POPC   C3B63741  39.798  39.208   7.055
10575POPC   C4B63742  39.770  39.192   7.355
10576POPC   NC363743  39.968  11.343   5.555
10576POPC   PO463744  40.007  11.329   5.855
10576POPC   GL163745  40.042  11.250   6.155
10576POPC   GL263746  40.014  11.416   6.155
10576POPC   C1A63747  39.995  11.344   6.455
10576POPC   D2A63748  40.052  11.331   6.755
10576POPC   C3A63749  40.020  11.333   7.055
10576POPC   C4A63750  40.043  11.319   7.355
10576POPC   C1B63751  39.993  11.534   6.455
10576POPC   C2B63752  40.011  11.595   6.755
10576POPC   C3B63753  39.997  11.570   7.055
10576POPC   C4B63754  40.027  11.596   7.355
10577POPC   NC363755   3.587  37.695   5.555
10577POPC   PO463756   3.585  37.673   5.855
10577POPC   GL163757   3.501  37.660   6.155
10577POPC   GL263758   3.440  37.648   6.155
10577POPC   C1A63759   3.574  37.684   6.455
10577POPC   D2A63760   3.577  37.685   6.755
10577POPC   C3A63761   3.545  37.683   7.055
10577POPC   C4A63762   3.578  37.678   7.355
10577POPC   C1B63763   3.290  37.634   6.455
10577POPC   C2B63764   3.350  37.548   6.755
10577POPC   C3B63765   3.299  37.544   7.055
10577POPC   C4B63766   3.277  37.637   7.355
10578POPC   NC363767  26.043   0.444   5.555
10578POPC   PO463768  26.029   0.454   5.855
10578POPC   GL163769  26.041   0.427   6.155
10578POPC   GL263770  25.903   0.388   6.155
10578POPC   C1A63771  26.081   0.476   6.455
10578POPC   D2A63772  26.048   0.411   6.755
10578POPC   C3A63773  26.084   0.443   7.055
10578POPC   C4A63774  26.012   0.395   7.355
10578POPC   C1B63775  25.821   0.281   6.455
10578POPC   C2B63776  25.824   0.336   6.755
10578POPC   C3B63777  25.848   0.247   7.055
10578POPC   C4B63778  25.812   0.309   7.355
10579POPC   NC363779  24.487  13.635   5.555
10579POPC   PO463780  24.477  13.615   5.855
10579POPC   GL163781  24.493  13.624   6.155
10579POPC   GL263782  24.350  13.616   6.155
10579POPC   C1A63783  24.497  13.584   6.455
10579POPC   D2A63784  24.528  13.613   6.755
10579POPC   C3A63785  24.515  13.602   7.055
10579POPC   C4A63786  24.447  13.674   7.355
10579POPC   C1B63787  24.294  13.561   6.455
10579POPC   C2B63788  24.245  13.505   6.755
10579POPC   C3B63789  24.274  13.586   7.055
10579POPC   C4B63790  24.293  13.513   7.355
10580POPC   NC363791  15.911  14.408   5.555
10580POPC   PO463792  15.994  14.436   5.855
10580POPC   GL163793  16.003  14.388   6.155
10580POPC   GL263794  15.892  14.381   6.155
10580POPC   C1A63795  15.983  14.353   6.455
10580POPC   D2A63796  15.926  14.356   6.755
10580POPC   C3A63797  15.922  14.399   7.055
10580POPC   C4A63798  16.001  14.443   7.355
10580POPC   C1B63799  15.770  14.284   6.455
10580POPC   C2B63800  15.733  14.231   6.755
10580POPC   C3B63801  15.695  14.234   7.055
10580POPC   C4B63802  15.788  14.232   7.355
10581POPC   NC363803   4.306   1.940   5.555
10581POPC   PO463804   4.295   1.957   5.855
10581POPC   GL163805   4.311   1.951   6.155
10581POPC   GL263806   4.235   1.866   6.155
10581POPC   C1A63807   4.366   2.001   6.455
10581POPC   D2A63808   4.306   1.956   6.755
10581POPC   C3A63809   4.351   1.953   7.055
10581POPC   C4A63810   4.297   1.966   7.355
10581POPC   C1B63811   4.135   1.838   6.455
10581POPC   C2B63812   4.095   1.828   6.755
10581POPC   C3B63813   4.181   1.860   7.055
10581POPC   C4B63814   4.157   1.783   7.355
10582POPC   NC363815   1.202  29.893   5.555
10582POPC   PO463816   1.237  29.968   5.855
10582POPC   GL163817   1.260  29.967   6.155
10582POPC   GL263818   1.265  30.080   6.155
10582POPC   C1A63819   1.200  29.963   6.455
10582POPC   D2A63820   1.213  29.955   6.755
10582POPC   C3A63821   1.212  29.904   7.055
10582POPC   C4A63822   1.186  29.890   7.355
10582POPC   C1B63823   1.326  30.135   6.455
10582POPC   C2B63824   1.323  30.143   6.755
10582POPC   C3B63825   1.297  30.182   7.055
10582POPC   C4B63826   1.295  30.142   7.355
10583POPC   NC363827  38.445  28.323   5.555
10583POPC   PO463828  38.416  28.345   5.855
10583POPC   GL163829  38.500  28.332   6.155
10583POPC   GL263830  38.349  28.373   6.155
10583POPC   C1A63831  38.429  28.343   6.455
10583POPC   D2A63832  38.453  28.376   6.755
10583POPC   C3A63833  38.435  28.373   7.055
10583POPC   C4A63834  38.495  28.406   7.355
10583POPC   C1B63835  38.220  28.371   6.455
10583POPC   C2B63836  38.245  28.415   6.755
10583POPC   C3B63837  38.189  28.413   7.055
10583POPC   C4B63838  38.229  28.384   7.355
10584POPC   NC363839  21.355  31.443   5.555
10584POPC   PO463840  21.339  31.433   5.855
10584POPC   GL163841  21.396  31.450   6.155
10584POPC   GL263842  21.403  31.350   6.155
10584POPC   C1A63843  21.399  31.473   6.455
10584POPC   D2A63844  21.390  31.487   6.755
10584POPC   C3A63845  21.400  31.455   7.055
10584POPC   C4A63846  21.344  31.499   7.355
10584POPC   C1B63847  21.456  31.224   6.455
10584POPC   C2B63848  21.507  31.221   6.755
10584POPC   C3B63849  21.489  31.275   7.055
10584POPC   C4B63850  21.475  31.212   7.355
10585POPC   NC363851  40.056   3.510   5.555
10585POPC   PO463852  40.044   3.524   5.855
10585POPC   GL163853  40.041   3.552   6.155
10585POPC   GL263854  39.895   3.563   6.155
10585POPC   C1A63855  40.041   3.504   6.455
10585POPC   D2A63856  40.009   3.506   6.755
10585POPC   C3A63857  40.002   3.571   7.055
10585POPC   C4A63858  40.055   3.558   7.355
10585POPC   C1B63859  39.806   3.485   6.455
10585POPC   C2B63860  39.805   3.468   6.755
10585POPC   C3B63861  39.742   3.549   7.055
10585POPC   C4B63862  39.715   3.509   7.355
10586POPC   NC363863  22.987  35.341   5.555
10586POPC   PO463864  22.972  35.347   5.855
10586POPC   GL163865  22.959  35.310   6.155
10586POPC   GL263866  23.089  35.319   6.155
10586POPC   C1A63867  22.979  35.311   6.455
10586POPC   D2A63868  22.922  35.365   6.755
10586POPC   C3A63869  22.968  35.341   7.055
10586POPC   C4A63870  22.939  35.400   7.355
10586POPC   C1B63871  23.157  35.197   6.455
10586POPC   C2B63872  23.205  35.225   6.755
10586POPC   C3B63873  23.123  35.217   7.055
10586POPC   C4B63874  23.198  35.265   7.355
10587POPC   NC363875  15.174  43.913   5.555
10587POPC   PO463876  15.163  43.903   5.855
10587POPC   GL163877  15.169  43.858   6.155
10587POPC   GL263878  15.015  43.861   6.155
10587POPC   C1A63879  15.223  43.900   6.455
10587POPC   D2A63880  15.199  43.840   6.755
10587POPC   C3A63881  15.217  43.926   7.055
10587POPC   C4A63882  15.194  43.933   7.355
10587POPC   C1B63883  14.945  43.756   6.455
10587POPC   C2B63884  14.992  43.809   6.755
10587POPC   C3B63885  14.926  43.830   7.055
10587POPC   C4B63886  14.962  43.827   7.355
10588POPC   NC363887   1.165   8.154   5.555
10588POPC   PO463888   1.199   8.240   5.855
10588POPC   GL163889   1.171   8.208   6.155
10588POPC   GL263890   1.085   8.210   6.155
10588POPC   C1A63891   1.202   8.155   6.455
10588POPC   D2A63892   1.213   8.239   6.755
10588POPC   C3A63893   1.216   8.198   7.055
10588POPC   C4A63894   1.178   8.200   7.355
10588POPC   C1B63895   0.926   8.256   6.455
10588POPC   C2B63896   0.960   8.225   6.755
10588POPC   C3B63897   0.949   8.227   7.055
10588POPC   C4B63898   0.998   8.213   7.355
10589POPC   NC363899  34.529  29.167   5.555
10589POPC   PO463900  34.614  29.110   5.855
10589POPC   GL163901  34.550  29.122   6.155
10589POPC   GL263902  34.685  29.118   6.155
10589POPC   C1A63903  34.533  29.156   6.455
10589POPC   D2A63904  34.569  29.131   6.755
10589POPC   C3A63905  34.615  29.159   7.055
10589POPC   C4A63906  34.600  29.126   7.355
10589POPC   C1B63907  34.845  29.180   6.455
10589POPC   C2B63908  34.823  29.170   6.755
10589POPC   C3B63909  34.858  29.197   7.055
10589POPC   C4B63910  34.806  29.170   7.355
10590POPC   NC363911  15.949  22.956   5.555
10590POPC   PO463912  15.968  22.965   5.855
10590POPC   GL163913  15.979  22.964   6.155
10590POPC   GL263914  16.090  23.016   6.155
10590POPC   C1A63915  15.906  22.950   6.455
10590POPC   D2A63916  15.970  22.957   6.755
10590POPC   C3A63917  15.943  22.950   7.055
10590POPC   C4A63918  15.923  22.896   7.355
10590POPC   C1B63919  16.141  23.124   6.455
10590POPC   C2B63920  16.148  23.113   6.755
10590POPC   C3B63921  16.157  23.105   7.055
10590POPC   C4B63922  16.187  23.077   7.355
10591POPC   NC363923   2.767  12.061   5.555
10591POPC   PO463924   2.720  12.108   5.855
10591POPC   GL163925   2.792  12.036   6.155
10591POPC   GL263926   2.794  12.184   6.155
10591POPC   C1A63927   2.797  12.123   6.455
10591POPC   D2A63928   2.797  12.030   6.755
10591POPC   C3A63929   2.791  12.032   7.055
10591POPC   C4A63930   2.809  12.064   7.355
10591POPC   C1B63931   2.899  12.256   6.455
10591POPC   C2B63932   2.823  12.287   6.755
10591POPC   C3B63933   2.906  12.297   7.055
10591POPC   C4B63934   2.877  12.290   7.355
10592POPC   NC363935  26.029   1.209   5.555
10592POPC   PO463936  26.013   1.227   5.855
10592POPC   GL163937  26.051   1.198   6.155
10592POPC   GL263938  26.116   1.320   6.155
10592POPC   C1A63939  26.028   1.222   6.455
10592POPC   D2A63940  26.012   1.223   6.755
10592POPC   C3A63941  26.026   1.205   7.055
10592POPC   C4A63942  26.090   1.194   7.355
10592POPC   C1B63943  26.175   1.426   6.455
10592POPC   C2B63944  26.143   1.383   6.755
10592POPC   C3B63945  26.151   1.386   7.055
10592POPC   C4B63946  26.177   1.371   7.355
10593POPC   NC363947  13.666  39.209   5.555
10593POPC   PO463948  13.662  39.258   5.855
10593POPC   GL163949  13.664  39.262   6.155
10593POPC   GL263950  13.681  39.164   6.155
10593POPC   C1A63951  13.592  39.275   6.455
10593POPC   D2A63952  13.619  39.251   6.755
10593POPC   C3A63953  13.639  39.240   7.055
10593POPC   C4A63954  13.603  39.258   7.355
10593POPC   C1B63955  13.830  39.083   6.455
10593POPC   C2B63956  13.792  39.110   6.755
10593POPC   C3B63957  13.779  39.074   7.055
10593POPC   C4B63958  13.809  39.097   7.355
10594POPC   NC363959  22.897  37.724   5.555
10594POPC   PO463960  22.974  37.653   5.855
10594POPC   GL163961  22.924  37.659   6.155
10594POPC   GL263962  22.813  37.773   6.155
10594POPC   C1A63963  22.906  37.664   6.455
10594POPC   D2A63964  22.914  37.634   6.755
10594POPC   C3A63965  22.945  37.706   7.055
10594POPC   C4A63966  22.915  37.692   7.355
10594POPC   C1B63967  22.757  37.870   6.455
10594POPC   C2B63968  22.733  37.815   6.755
10594POPC   C3B63969  22.803  37.899   7.055
10594POPC   C4B63970  22.765  37.828   7.355
10595POPC   NC363971  17.478  44.625   5.555
10595POPC   PO463972  17.459  44.658   5.855
10595POPC   GL163973  17.461  44.621   6.155
10595POPC   GL263974  17.488  44.787   6.155
10595POPC   C1A63975  17.525  44.635   6.455
10595POPC   D2A63976  17.462  44.657   6.755
10595POPC   C3A63977  17.508  44.660   7.055
10595POPC   C4A63978  17.531  44.675   7.355
10595POPC   C1B63979  17.438  44.879   6.455
10595POPC   C2B63980  17.440  44.941   6.755
10595POPC   C3B63981  17.402  44.914   7.055
10595POPC   C4B63982  17.474  44.896   7.355
10596POPC   NC363983   2.741  10.476   5.555
10596POPC   PO463984   2.801  10.504   5.855
10596POPC   GL163985   2.810  10.507   6.155
10596POPC   GL263986   2.884  10.447   6.155
10596POPC   C1A63987   2.782  10.552   6.455
10596POPC   D2A63988   2.780  10.530   6.755
10596POPC   C3A63989   2.789  10.561   7.055
10596POPC   C4A63990   2.808  10.521   7.355
10596POPC   C1B63991   2.928  10.378   6.455
10596POPC   C2B63992   2.953  10.355   6.755
10596POPC   C3B63993   2.943  10.378   7.055
10596POPC   C4B63994   2.923  10.291   7.355
10597POPC   NC363995  26.851  35.356   5.555
10597POPC   PO463996  26.863  35.396   5.855
10597POPC   GL163997  26.794  35.325   6.155
10597POPC   GL263998  26.870  35.229   6.155
10597POPC   C1A63999  26.822  35.399   6.455
10597POPC   D2A64000  26.815  35.332   6.755
10597POPC   C3A64001  26.845  35.396   7.055
10597POPC   C4A64002  26.814  35.327   7.355
10597POPC   C1B64003  26.974  35.142   6.455
10597POPC   C2B64004  26.958  35.178   6.755
10597POPC   C3B64005  27.011  35.140   7.055
10597POPC   C4B64006  26.986  35.213   7.355
10598POPC   NC364007   5.094  24.532   5.555
10598POPC   PO464008   5.063  24.528   5.855
10598POPC   GL164009   5.142  24.513   6.155
10598POPC   GL264010   4.990  24.511   6.155
10598POPC   C1A64011   5.043  24.450   6.455
10598POPC   D2A64012   5.111  24.460   6.755
10598POPC   C3A64013   5.091  24.532   7.055
10598POPC   C4A64014   5.093  24.489   7.355
10598POPC   C1B64015   4.902  24.585   6.455
10598POPC   C2B64016   4.826  24.548   6.755
10598POPC   C3B64017   4.817  24.571   7.055
10598POPC   C4B64018   4.909  24.584   7.355
10599POPC   NC364019  26.772  28.385   5.555
10599POPC   PO464020  26.803  28.369   5.855
10599POPC   GL164021  26.862  28.338   6.155
10599POPC   GL264022  26.784  28.451   6.155
10599POPC   C1A64023  26.817  28.323   6.455
10599POPC   D2A64024  26.821  28.344   6.755
10599POPC   C3A64025  26.836  28.323   7.055
10599POPC   C4A64026  26.818  28.383   7.355
10599POPC   C1B64027  26.708  28.527   6.455
10599POPC   C2B64028  26.664  28.557   6.755
10599POPC   C3B64029  26.701  28.594   7.055
10599POPC   C4B64030  26.629  28.528   7.355
10600POPC   NC364031  43.895   5.082   5.555
10600POPC   PO464032  43.904   5.130   5.855
10600POPC   GL164033  43.923   5.072   6.155
10600POPC   GL264034  44.006   5.041   6.155
10600POPC   C1A64035  43.864   5.130   6.455
10600POPC   D2A64036  43.856   5.143   6.755
10600POPC   C3A64037  43.916   5.067   7.055
10600POPC   C4A64038  43.883   5.058   7.355
10600POPC   C1B64039  44.074   5.029   6.455
10600POPC   C2B64040  44.106   4.970   6.755
10600POPC   C3B64041  44.103   4.991   7.055
10600POPC   C4B64042  44.121   4.964   7.355
10601POPC   NC364043  42.297  33.037   5.555
10601POPC   PO464044  42.305  33.028   5.855
10601POPC   GL164045  42.333  33.025   6.155
10601POPC   GL264046  42.260  33.124   6.155
10601POPC   C1A64047  42.373  33.008   6.455
10601POPC   D2A64048  42.332  33.068   6.755
10601POPC   C3A64049  42.294  33.072   7.055
10601POPC   C4A64050  42.327  33.041   7.355
10601POPC   C1B64051  42.247  33.234   6.455
10601POPC   C2B64052  42.195  33.243   6.755
10601POPC   C3B64053  42.269  33.288   7.055
10601POPC   C4B64054  42.229  33.289   7.355
10602POPC   NC364055  37.684   8.976   5.555
10602POPC   PO464056  37.634   8.963   5.855
10602POPC   GL164057  37.655   8.940   6.155
10602POPC   GL264058  37.602   8.881   6.155
10602POPC   C1A64059  37.684   8.977   6.455
10602POPC   D2A64060  37.697   8.994   6.755
10602POPC   C3A64061  37.696   8.983   7.055
10602POPC   C4A64062  37.636   8.947   7.355
10602POPC   C1B64063  37.655   8.711   6.455
10602POPC   C2B64064  37.589   8.755   6.755
10602POPC   C3B64065  37.655   8.750   7.055
10602POPC   C4B64066  37.653   8.701   7.355
10603POPC   NC364067  29.116  30.692   5.555
10603POPC   PO464068  29.151  30.656   5.855
10603POPC   GL164069  29.191  30.708   6.155
10603POPC   GL264070  29.097  30.563   6.155
10603POPC   C1A64071  29.183  30.700   6.455
10603POPC   D2A64072  29.192  30.737   6.755
10603POPC   C3A64073  29.180  30.735   7.055
10603POPC   C4A64074  29.158  30.704   7.355
10603POPC   C1B64075  29.058  30.469   6.455
10603POPC   C2B64076  29.056  30.496   6.755
10603POPC   C3B64077  29.112  30.427   7.055
10603POPC   C4B64078  29.040  30.414   7.355
10604POPC   NC364079  17.532  11.318   5.555
10604POPC   PO464080  17.529  11.286   5.855
10604POPC   GL164081  17.508  11.337   6.155
10604POPC   GL264082  17.592  11.219   6.155
10604POPC   C1A64083  17.524  11.258   6.455
10604POPC   D2A64084  17.498  11.294   6.755
10604POPC   C3A64085  17.489  11.344   7.055
10604POPC   C4A64086  17.547  11.294   7.355
10604POPC   C1B64087  17.731  11.229   6.455
10604POPC   C2B64088  17.760  11.208   6.755
10604POPC   C3B64089  17.762  11.176   7.055
10604POPC   C4B64090  17.772  11.236   7.355
10605POPC   NC364091  25.302  33.054   5.555
10605POPC   PO464092  25.272  33.000   5.855
10605POPC   GL164093  25.304  32.987   6.155
10605POPC   GL264094  25.174  33.155   6.155
10605POPC   C1A64095  25.216  32.991   6.455
10605POPC   D2A64096  25.295  33.036   6.755
10605POPC   C3A64097  25.284  33.045   7.055
10605POPC   C4A64098  25.252  33.026   7.355
10605POPC   C1B64099  25.121  33.221   6.455
10605POPC   C2B64100  25.135  33.258   6.755
10605POPC   C3B64101  25.122  33.230   7.055
10605POPC   C4B64102  25.132  33.210   7.355
10606POPC   NC364103  22.899  16.750   5.555
10606POPC   PO464104  22.950  16.699   5.855
10606POPC   GL164105  22.894  16.780   6.155
10606POPC   GL264106  22.871  16.636   6.155
10606POPC   C1A64107  22.954  16.764   6.455
10606POPC   D2A64108  22.977  16.696   6.755
10606POPC   C3A64109  22.900  16.780   7.055
10606POPC   C4A64110  22.964  16.715   7.355
10606POPC   C1B64111  22.898  16.516   6.455
10606POPC   C2B64112  22.849  16.497   6.755
10606POPC   C3B64113  22.910  16.530   7.055
10606POPC   C4B64114  22.848  16.483   7.355
10607POPC   NC364115  28.342  43.128   5.555
10607POPC   PO464116  28.354  43.158   5.855
10607POPC   GL164117  28.341  43.158   6.155
10607POPC   GL264118  28.290  43.179   6.155
10607POPC   C1A64119  28.322  43.118   6.455
10607POPC   D2A64120  28.383  43.126   6.755
10607POPC   C3A64121  28.349  43.148   7.055
10607POPC   C4A64122  28.351  43.082   7.355
10607POPC   C1B64123  28.221  43.260   6.455
10607POPC   C2B64124  28.214  43.258   6.755
10607POPC   C3B64125  28.230  43.310   7.055
10607POPC   C4B64126  28.171  43.252   7.355
10608POPC   NC364127   2.010  31.457   5.555
10608POPC   PO464128   2.039  31.481   5.855
10608POPC   GL164129   1.985  31.428   6.155
10608POPC   GL264130   2.101  31.483   6.155
10608POPC   C1A64131   1.955  31.496   6.455
10608POPC   D2A64132   1.952  31.520   6.755
10608POPC   C3A64133   2.025  31.480   7.055
10608POPC   C4A64134   1.998  31.505   7.355
10608POPC   C1B64135   2.196  31.507   6.455
10608POPC   C2B64136   2.195  31.522   6.755
10608POPC   C3B64137   2.227  31.583   7.055
10608POPC   C4B64138   2.188  31.542   7.355
10609POPC   NC364139  15.180  15.936   5.555
10609POPC   PO464140  15.207  16.003   5.855
10609POPC   GL164141  15.141  15.941   6.155
10609POPC   GL264142  15.044  15.829   6.155
10609POPC   C1A64143  15.209  16.002   6.455
10609POPC   D2A64144  15.195  15.970   6.755
10609POPC   C3A64145  15.138  16.001   7.055
10609POPC   C4A64146  15.178  15.926   7.355
10609POPC   C1B64147  14.960  15.777   6.455
10609POPC   C2B64148  15.022  15.733   6.755
10609POPC   C3B64149  15.004  15.774   7.055
10609POPC   C4B64150  14.988  15.725   7.355
10610POPC   NC364151  36.109  38.424   5.555
10610POPC   PO464152  36.172  38.491   5.855
10610POPC   GL164153  36.150  38.467   6.155
10610POPC   GL264154  36.065  38.606   6.155
10610POPC   C1A64155  36.137  38.460   6.455
10610POPC   D2A64156  36.088  38.459   6.755
10610POPC   C3A64157  36.169  38.485   7.055
10610POPC   C4A64158  36.145  38.450   7.355
10610POPC   C1B64159  36.057  38.675   6.455
10610POPC   C2B64160  36.014  38.673   6.755
10610POPC   C3B64161  36.045  38.642   7.055
10610POPC   C4B64162  36.015  38.722   7.355
10611POPC   NC364163  39.971  29.950   5.555
10611POPC   PO464164  40.028  29.938   5.855
10611POPC   GL164165  40.033  29.911   6.155
10611POPC   GL264166  40.099  29.780   6.155
10611POPC   C1A64167  40.034  29.897   6.455
10611POPC   D2A64168  40.003  29.932   6.755
10611POPC   C3A64169  39.970  29.909   7.055
10611POPC   C4A64170  39.991  29.895   7.355
10611POPC   C1B64171  40.156  29.742   6.455
10611POPC   C2B64172  40.099  29.728   6.755
10611POPC   C3B64173  40.077  29.650   7.055
10611POPC   C4B64174  40.119  29.650   7.355
10612POPC   NC364175   1.263  27.609   5.555
10612POPC   PO464176   1.184  27.641   5.855
10612POPC   GL164177   1.214  27.575   6.155
10612POPC   GL264178   1.123  27.649   6.155
10612POPC   C1A64179   1.170  27.561   6.455
10612POPC   D2A64180   1.237  27.635   6.755
10612POPC   C3A64181   1.178  27.626   7.055
10612POPC   C4A64182   1.214  27.606   7.355
10612POPC   C1B64183   0.963  27.652   6.455
10612POPC   C2B64184   0.975  27.642   6.755
10612POPC   C3B64185   0.977  27.723   7.055
10612POPC   C4B64186   0.955  27.718   7.355
10613POPC   NC364187   1.989   4.295   5.555
10613POPC   PO464188   1.971   4.305   5.855
10613POPC   GL164189   1.994   4.283   6.155
10613POPC   GL264190   1.915   4.430   6.155
10613POPC   C1A64191   1.992   4.292   6.455
10613POPC   D2A64192   2.001   4.335   6.755
10613POPC   C3A64193   1.959   4.319   7.055
10613POPC   C4A64194   1.972   4.342   7.355
10613POPC   C1B64195   1.888   4.494   6.455
10613POPC   C2B64196   1.884   4.550   6.755
10613POPC   C3B64197   1.907   4.495   7.055
10613POPC   C4B64198   1.842   4.509   7.355
10614POPC   NC364199   6.688  14.416   5.555
10614POPC   PO464200   6.637  14.373   5.855
10614POPC   GL164201   6.670  14.414   6.155
10614POPC   GL264202   6.536  14.413   6.155
10614POPC   C1A64203   6.694  14.417   6.455
10614POPC   D2A64204   6.629  14.402   6.755
10614POPC   C3A64205   6.612  14.377   7.055
10614POPC   C4A64206   6.628  14.445   7.355
10614POPC   C1B64207   6.422  14.375   6.455
10614POPC   C2B64208   6.444  14.288   6.755
10614POPC   C3B64209   6.397  14.342   7.055
10614POPC   C4B64210   6.409  14.364   7.355
10615POPC   NC364211  21.389  35.312   5.555
10615POPC   PO464212  21.354  35.309   5.855
10615POPC   GL164213  21.422  35.307   6.155
10615POPC   GL264214  21.277  35.414   6.155
10615POPC   C1A64215  21.360  35.332   6.455
10615POPC   D2A64216  21.362  35.310   6.755
10615POPC   C3A64217  21.338  35.361   7.055
10615POPC   C4A64218  21.379  35.387   7.355
10615POPC   C1B64219  21.205  35.447   6.455
10615POPC   C2B64220  21.153  35.486   6.755
10615POPC   C3B64221  21.128  35.485   7.055
10615POPC   C4B64222  21.157  35.439   7.355
10616POPC   NC364223  40.050  10.553   5.555
10616POPC   PO464224  39.987  10.501   5.855
10616POPC   GL164225  40.033  10.510   6.155
10616POPC   GL264226  39.938  10.416   6.155
10616POPC   C1A64227  40.025  10.568   6.455
10616POPC   D2A64228  40.029  10.492   6.755
10616POPC   C3A64229  39.985  10.552   7.055
10616POPC   C4A64230  40.028  10.550   7.355
10616POPC   C1B64231  39.816  10.405   6.455
10616POPC   C2B64232  39.802  10.353   6.755
10616POPC   C3B64233  39.773  10.385   7.055
10616POPC   C4B64234  39.820  10.403   7.355
10617POPC   NC364235   7.455  33.059   5.555
10617POPC   PO464236   7.455  33.009   5.855
10617POPC   GL164237   7.446  33.033   6.155
10617POPC   GL264238   7.372  32.904   6.155
10617POPC   C1A64239   7.415  33.053   6.455
10617POPC   D2A64240   7.408  33.022   6.755
10617POPC   C3A64241   7.450  32.977   7.055
10617POPC   C4A64242   7.403  33.034   7.355
10617POPC   C1B64243   7.303  32.819   6.455
10617POPC   C2B64244   7.290  32.846   6.755
10617POPC   C3B64245   7.323  32.769   7.055
10617POPC   C4B64246   7.291  32.824   7.355
10618POPC   NC364247   2.781  43.853   5.555
10618POPC   PO464248   2.788  43.896   5.855
10618POPC   GL164249   2.719  43.868   6.155
10618POPC   GL264250   2.746  43.757   6.155
10618POPC   C1A64251   2.792  43.889   6.455
10618POPC   D2A64252   2.744  43.917   6.755
10618POPC   C3A64253   2.754  43.856   7.055
10618POPC   C4A64254   2.736  43.862   7.355
10618POPC   C1B64255   2.804  43.686   6.455
10618POPC   C2B64256   2.820  43.656   6.755
10618POPC   C3B64257   2.735  43.661   7.055
10618POPC   C4B64258   2.757  43.598   7.355
10619POPC   NC364259   1.969  18.297   5.555
10619POPC   PO464260   1.942  18.288   5.855
10619POPC   GL164261   1.977  18.299   6.155
10619POPC   GL264262   1.868  18.313   6.155
10619POPC   C1A64263   1.950  18.295   6.455
10619POPC   D2A64264   1.983  18.256   6.755
10619POPC   C3A64265   2.030  18.283   7.055
10619POPC   C4A64266   1.986  18.246   7.355
10619POPC   C1B64267   1.709  18.321   6.455
10619POPC   C2B64268   1.716  18.312   6.755
10619POPC   C3B64269   1.748  18.362   7.055
10619POPC   C4B64270   1.697  18.311   7.355
10620POPC   NC364271   5.872  36.124   5.555
10620POPC   PO464272   5.896  36.084   5.855
10620POPC   GL164273   5.889  36.151   6.155
10620POPC   GL264274   5.824  36.227   6.155
10620POPC   C1A64275   5.894  36.102   6.455
10620POPC   D2A64276   5.876  36.121   6.755
10620POPC   C3A64277   5.884  36.165   7.055
10620POPC   C4A64278   5.851  36.162   7.355
10620POPC   C1B64279   5.729  36.399   6.455
10620POPC   C2B64280   5.826  36.317   6.755
10620POPC   C3B64281   5.765  36.406   7.055
10620POPC   C4B64282   5.782  36.341   7.355
10621POPC   NC364283  16.724   8.229   5.555
10621POPC   PO464284  16.720   8.172   5.855
10621POPC   GL164285  16.699   8.173   6.155
10621POPC   GL264286  16.828   8.258   6.155
10621POPC   C1A64287  16.734   8.191   6.455
10621POPC   D2A64288  16.779   8.153   6.755
10621POPC   C3A64289  16.733   8.176   7.055
10621POPC   C4A64290  16.723   8.155   7.355
10621POPC   C1B64291  16.856   8.447   6.455
10621POPC   C2B64292  16.854   8.449   6.755
10621POPC   C3B64293  16.864   8.427   7.055
10621POPC   C4B64294  16.892   8.434   7.355
10622POPC   NC364295  11.280  18.316   5.555
10622POPC   PO464296  11.321  18.325   5.855
10622POPC   GL164297  11.336  18.330   6.155
10622POPC   GL264298  11.331  18.413   6.155
10622POPC   C1A64299  11.266  18.293   6.455
10622POPC   D2A64300  11.255  18.326   6.755
10622POPC   C3A64301  11.338  18.330   7.055
10622POPC   C4A64302  11.332  18.309   7.355
10622POPC   C1B64303  11.449  18.529   6.455
10622POPC   C2B64304  11.395  18.493   6.755
10622POPC   C3B64305  11.411  18.532   7.055
10622POPC   C4B64306  11.420  18.533   7.355
10623POPC   NC364307  23.678   7.461   5.555
10623POPC   PO464308  23.739   7.436   5.855
10623POPC   GL164309  23.734   7.387   6.155
10623POPC   GL264310  23.671   7.496   6.155
10623POPC   C1A64311  23.700   7.455   6.455
10623POPC   D2A64312  23.726   7.427   6.755
10623POPC   C3A64313  23.738   7.418   7.055
10623POPC   C4A64314  23.708   7.378   7.355
10623POPC   C1B64315  23.568   7.624   6.455
10623POPC   C2B64316  23.569   7.586   6.755
10623POPC   C3B64317  23.623   7.595   7.055
10623POPC   C4B64318  23.625   7.624   7.355
10624POPC   NC364319   9.018  14.427   5.555
10624POPC   PO464320   8.947  14.387   5.855
10624POPC   GL164321   9.016  14.412   6.155
10624POPC   GL264322   9.095  14.401   6.155
10624POPC   C1A64323   8.946  14.381   6.455
10624POPC   D2A64324   8.923  14.416   6.755
10624POPC   C3A64325   8.943  14.378   7.055
10624POPC   C4A64326   8.964  14.390   7.355
10624POPC   C1B64327   9.248  14.423   6.455
10624POPC   C2B64328   9.245  14.438   6.755
10624POPC   C3B64329   9.213  14.460   7.055
10624POPC   C4B64330   9.256  14.472   7.355
10625POPC   NC364331  26.814  41.548   5.555
10625POPC   PO464332  26.840  41.582   5.855
10625POPC   GL164333  26.828  41.548   6.155
10625POPC   GL264334  26.738  41.509   6.155
10625POPC   C1A64335  26.789  41.516   6.455
10625POPC   D2A64336  26.857  41.516   6.755
10625POPC   C3A64337  26.803  41.563   7.055
10625POPC   C4A64338  26.827  41.571   7.355
10625POPC   C1B64339  26.582  41.462   6.455
10625POPC   C2B64340  26.637  41.440   6.755
10625POPC   C3B64341  26.632  41.437   7.055
10625POPC   C4B64342  26.626  41.365   7.355
10626POPC   NC364343  38.474  26.091   5.555
10626POPC   PO464344  38.457  26.042   5.855
10626POPC   GL164345  38.473  26.073   6.155
10626POPC   GL264346  38.368  25.914   6.155
10626POPC   C1A64347  38.436  26.087   6.455
10626POPC   D2A64348  38.435  26.090   6.755
10626POPC   C3A64349  38.440  26.050   7.055
10626POPC   C4A64350  38.440  26.081   7.355
10626POPC   C1B64351  38.342  25.793   6.455
10626POPC   C2B64352  38.389  25.779   6.755
10626POPC   C3B64353  38.317  25.843   7.055
10626POPC   C4B64354  38.387  25.817   7.355
10627POPC   NC364355   0.485   4.290   5.555
10627POPC   PO464356   0.478   4.326   5.855
10627POPC   GL164357   0.428   4.316   6.155
10627POPC   GL264358   0.414   4.211   6.155
10627POPC   C1A64359   0.467   4.331   6.455
10627POPC   D2A64360   0.466   4.310   6.755
10627POPC   C3A64361   0.458   4.299   7.055
10627POPC   C4A64362   0.409   4.339   7.355
10627POPC   C1B64363   0.388   4.053   6.455
10627POPC   C2B64364   0.387   4.117   6.755
10627POPC   C3B64365   0.471   4.062   7.055
10627POPC   C4B64366   0.421   4.039   7.355
10628POPC   NC364367  44.711  38.445   5.555
10628POPC   PO464368  44.629  38.488   5.855
10628POPC   GL164369  44.697  38.483   6.155
10628POPC   GL264370  44.513  38.430   6.155
10628POPC   C1A64371  44.712  38.440   6.455
10628POPC   D2A64372  44.639  38.466   6.755
10628POPC   C3A64373  44.671  38.418   7.055
10628POPC   C4A64374  44.695  38.429   7.355
10628POPC   C1B64375  44.436  38.446   6.455
10628POPC   C2B64376  44.438  38.487   6.755
10628POPC   C3B64377  44.394  38.460   7.055
10628POPC   C4B64378  44.445  38.511   7.355
10629POPC   NC364379  36.942   4.311   5.555
10629POPC   PO464380  36.871   4.272   5.855
10629POPC   GL164381  36.915   4.318   6.155
10629POPC   GL264382  36.786   4.328   6.155
10629POPC   C1A64383  36.904   4.270   6.455
10629POPC   D2A64384  36.877   4.329   6.755
10629POPC   C3A64385  36.886   4.345   7.055
10629POPC   C4A64386  36.929   4.345   7.355
10629POPC   C1B64387  36.663   4.378   6.455
10629POPC   C2B64388  36.689   4.357   6.755
10629POPC   C3B64389  36.661   4.309   7.055
10629POPC   C4B64390  36.703   4.367   7.355
10630POPC   NC364391  43.935  38.456   5.555
10630POPC   PO464392  43.867  38.450   5.855
10630POPC   GL164393  43.880  38.416   6.155
10630POPC   GL264394  43.851  38.573   6.155
10630POPC   C1A64395  43.870  38.452   6.455
10630POPC   D2A64396  43.911  38.443   6.755
10630POPC   C3A64397  43.840  38.452   7.055
10630POPC   C4A64398  43.860  38.435   7.355
10630POPC   C1B64399  43.755  38.695   6.455
10630POPC   C2B64400  43.762  38.639   6.755
10630POPC   C3B64401  43.715  38.673   7.055
10630POPC   C4B64402  43.764  38.666   7.355
10631POPC   NC364403  32.288  25.261   5.555
10631POPC   PO464404  32.294  25.294   5.855
10631POPC   GL164405  32.283  25.262   6.155
10631POPC   GL264406  32.142  25.220   6.155
10631POPC   C1A64407  32.265  25.267   6.455
10631POPC   D2A64408  32.229  25.222   6.755
10631POPC   C3A64409  32.224  25.312   7.055
10631POPC   C4A64410  32.251  25.233   7.355
10631POPC   C1B64411  32.055  25.167   6.455
10631POPC   C2B64412  32.050  25.209   6.755
10631POPC   C3B64413  32.035  25.141   7.055
10631POPC   C4B64414  32.010  25.151   7.355
10632POPC   NC364415  42.321  17.497   5.555
10632POPC   PO464416  42.298  17.541   5.855
10632POPC   GL164417  42.353  17.476   6.155
10632POPC   GL264418  42.454  17.548   6.155
10632POPC   C1A64419  42.296  17.544   6.455
10632POPC   D2A64420  42.379  17.474   6.755
10632POPC   C3A64421  42.360  17.527   7.055
10632POPC   C4A64422  42.356  17.503   7.355
10632POPC   C1B64423  42.490  17.699   6.455
10632POPC   C2B64424  42.541  17.713   6.755
10632POPC   C3B64425  42.494  17.727   7.055
10632POPC   C4B64426  42.526  17.712   7.355
10633POPC   NC364427   4.317   1.219   5.555
10633POPC   PO464428   4.327   1.254   5.855
10633POPC   GL164429   4.284   1.243   6.155
10633POPC   GL264430   4.210   1.263   6.155
10633POPC   C1A64431   4.315   1.190   6.455
10633POPC   D2A64432   4.362   1.191   6.755
10633POPC   C3A64433   4.355   1.240   7.055
10633POPC   C4A64434   4.298   1.192   7.355
10633POPC   C1B64435   4.057   1.288   6.455
10633POPC   C2B64436   4.052   1.353   6.755
10633POPC   C3B64437   4.054   1.287   7.055
10633POPC   C4B64438   4.122   1.342   7.355
10634POPC   NC364439   6.683   5.047   5.555
10634POPC   PO464440   6.621   5.110   5.855
10634POPC   GL164441   6.695   5.109   6.155
10634POPC   GL264442   6.541   5.004   6.155
10634POPC   C1A64443   6.602   5.099   6.455
10634POPC   D2A64444   6.615   5.055   6.755
10634POPC   C3A64445   6.663   5.068   7.055
10634POPC   C4A64446   6.606   5.057   7.355
10634POPC   C1B64447   6.489   4.877   6.455
10634POPC   C2B64448   6.463   4.929   6.755
10634POPC   C3B64449   6.515   4.882   7.055
10634POPC   C4B64450   6.470   4.852   7.355
10635POPC   NC364451  37.708  12.109   5.555
10635POPC   PO464452  37.674  12.060   5.855
10635POPC   GL164453  37.656  12.046   6.155
10635POPC   GL264454  37.758  12.020   6.155
10635POPC   C1A64455  37.687  12.042   6.455
10635POPC   D2A64456  37.646  12.096   6.755
10635POPC   C3A64457  37.662  12.076   7.055
10635POPC   C4A64458  37.677  12.094   7.355
10635POPC   C1B64459  37.853  11.827   6.455
10635POPC   C2B64460  37.800  11.869   6.755
10635POPC   C3B64461  37.867  11.890   7.055
10635POPC   C4B64462  37.859  11.890   7.355
10636POPC   NC364463  23.688  29.911   5.555
10636POPC   PO464464  23.740  29.921   5.855
10636POPC   GL164465  23.707  29.871   6.155
10636POPC   GL264466  23.786  29.787   6.155
10636POPC   C1A64467  23.669  29.948   6.455
10636POPC   D2A64468  23.724  29.921   6.755
10636POPC   C3A64469  23.698  29.903   7.055
10636POPC   C4A64470  23.758  29.923   7.355
10636POPC   C1B64471  23.788  29.708   6.455
10636POPC   C2B64472  23.826  29.660   6.755
10636POPC   C3B64473  23.806  29.700   7.055
10636POPC   C4B64474  23.757  29.731   7.355
10637POPC   NC364475  41.581   3.583   5.555
10637POPC   PO464476  41.518   3.521   5.855
10637POPC   GL164477  41.547   3.562   6.155
10637POPC   GL264478  41.613   3.389   6.155
10637POPC   C1A64479  41.563   3.585   6.455
10637POPC   D2A64480  41.531   3.573   6.755
10637POPC   C3A64481  41.531   3.512   7.055
10637POPC   C4A64482  41.573   3.493   7.355
10637POPC   C1B64483  41.626   3.292   6.455
10637POPC   C2B64484  41.609   3.299   6.755
10637POPC   C3B64485  41.632   3.290   7.055
10637POPC   C4B64486  41.638   3.325   7.355
10638POPC   NC364487  29.167  26.814   5.555
10638POPC   PO464488  29.174  26.813   5.855
10638POPC   GL164489  29.193  26.768   6.155
10638POPC   GL264490  28.997  26.745   6.155
10638POPC   C1A64491  29.142  26.803   6.455
10638POPC   D2A64492  29.163  26.817   6.755
10638POPC   C3A64493  29.122  26.827   7.055
10638POPC   C4A64494  29.142  26.782   7.355
10638POPC   C1B64495  28.860  26.800   6.455
10638POPC   C2B64496  28.884  26.779   6.755
10638POPC   C3B64497  28.866  26.774   7.055
10638POPC   C4B64498  28.902  26.806   7.355
10639POPC   NC364499  29.173  18.301   5.555
10639POPC   PO464500  29.106  18.260   5.855
10639POPC   GL164501  29.183  18.240   6.155
10639POPC   GL264502  29.269  18.311   6.155
10639POPC   C1A64503  29.167  18.332   6.455
10639POPC   D2A64504  29.116  18.277   6.755
10639POPC   C3A64505  29.182  18.321   7.055
10639POPC   C4A64506  29.158  18.273   7.355
10639POPC   C1B64507  29.351  18.355   6.455
10639POPC   C2B64508  29.358  18.390   6.755
10639POPC   C3B64509  29.347  18.334   7.055
10639POPC   C4B64510  29.403  18.337   7.355
10640POPC   NC364511  29.956  23.692   5.555
10640POPC   PO464512  29.922  23.731   5.855
10640POPC   GL164513  29.966  23.703   6.155
10640POPC   GL264514  29.801  23.802   6.155
10640POPC   C1A64515  29.949  23.670   6.455
10640POPC   D2A64516  29.913  23.668   6.755
10640POPC   C3A64517  29.893  23.751   7.055
10640POPC   C4A64518  29.941  23.722   7.355
10640POPC   C1B64519  29.734  23.952   6.455
10640POPC   C2B64520  29.755  23.898   6.755
10640POPC   C3B64521  29.749  23.887   7.055
10640POPC   C4B64522  29.827  23.896   7.355
10641POPC   NC364523  42.337  44.646   5.555
10641POPC   PO464524  42.351  44.626   5.855
10641POPC   GL164525  42.324  44.706   6.155
10641POPC   GL264526  42.417  44.772   6.155
10641POPC   C1A64527  42.321  44.653   6.455
10641POPC   D2A64528  42.295  44.622   6.755
10641POPC   C3A64529  42.359  44.630   7.055
10641POPC   C4A64530  42.354  44.638   7.355
10641POPC   C1B64531  42.396  44.892   6.455
10641POPC   C2B64532  42.372  44.937   6.755
10641POPC   C3B64533  42.455  44.900   7.055
10641POPC   C4B64534  42.437  44.949   7.355
10642POPC   NC364535  42.288  26.831   5.555
10642POPC   PO464536  42.373  26.842   5.855
10642POPC   GL164537  42.351  26.836   6.155
10642POPC   GL264538  42.212  26.842   6.155
10642POPC   C1A64539  42.337  26.772   6.455
10642POPC   D2A64540  42.344  26.788   6.755
10642POPC   C3A64541  42.320  26.777   7.055
10642POPC   C4A64542  42.322  26.807   7.355
10642POPC   C1B64543  42.064  26.841   6.455
10642POPC   C2B64544  42.065  26.876   6.755
10642POPC   C3B64545  42.110  26.859   7.055
10642POPC   C4B64546  42.039  26.813   7.355
10643POPC   NC364547   0.403   8.969   5.555
10643POPC   PO464548   0.449   9.002   5.855
10643POPC   GL164549   0.437   8.951   6.155
10643POPC   GL264550   0.527   8.908   6.155
10643POPC   C1A64551   0.481   8.927   6.455
10643POPC   D2A64552   0.443   9.009   6.755
10643POPC   C3A64553   0.485   8.957   7.055
10643POPC   C4A64554   0.484   8.923   7.355
10643POPC   C1B64555   0.604   8.761   6.455
10643POPC   C2B64556   0.653   8.787   6.755
10643POPC   C3B64557   0.587   8.825   7.055
10643POPC   C4B64558   0.566   8.768   7.355
10644POPC   NC364559   1.976  39.278   5.555
10644POPC   PO464560   2.036  39.240   5.855
10644POPC   GL164561   2.039  39.249   6.155
10644POPC   GL264562   2.101  39.204   6.155
10644POPC   C1A64563   1.952  39.214   6.455
10644POPC   D2A64564   2.034  39.191   6.755
10644POPC   C3A64565   1.940  39.224   7.055
10644POPC   C4A64566   1.991  39.276   7.355
10644POPC   C1B64567   2.181  39.137   6.455
10644POPC   C2B64568   2.195  39.165   6.755
10644POPC   C3B64569   2.268  39.123   7.055
10644POPC   C4B64570   2.242  39.159   7.355
10645POPC   NC364571  33.035  28.408   5.555
10645POPC   PO464572  32.976  28.333   5.855
10645POPC   GL164573  33.069  28.344   6.155
10645POPC   GL264574  32.961  28.502   6.155
10645POPC   C1A64575  33.069  28.390   6.455
10645POPC   D2A64576  33.054  28.373   6.755
10645POPC   C3A64577  33.012  28.402   7.055
10645POPC   C4A64578  33.008  28.401   7.355
10645POPC   C1B64579  32.898  28.618   6.455
10645POPC   C2B64580  32.900  28.577   6.755
10645POPC   C3B64581  32.867  28.631   7.055
10645POPC   C4B64582  32.863  28.586   7.355
10646POPC   NC364583  35.305  17.527   5.555
10646POPC   PO464584  35.367  17.472   5.855
10646POPC   GL164585  35.374  17.549   6.155
10646POPC   GL264586  35.257  17.411   6.155
10646POPC   C1A64587  35.357  17.499   6.455
10646POPC   D2A64588  35.352  17.511   6.755
10646POPC   C3A64589  35.334  17.554   7.055
10646POPC   C4A64590  35.364  17.473   7.355
10646POPC   C1B64591  35.158  17.344   6.455
10646POPC   C2B64592  35.197  17.358   6.755
10646POPC   C3B64593  35.233  17.356   7.055
10646POPC   C4B64594  35.242  17.292   7.355
10647POPC   NC364595   2.724   1.196   5.555
10647POPC   PO464596   2.745   1.172   5.855
10647POPC   GL164597   2.742   1.185   6.155
10647POPC   GL264598   2.849   1.154   6.155
10647POPC   C1A64599   2.783   1.187   6.455
10647POPC   D2A64600   2.736   1.199   6.755
10647POPC   C3A64601   2.811   1.165   7.055
10647POPC   C4A64602   2.802   1.236   7.355
10647POPC   C1B64603   2.967   0.992   6.455
10647POPC   C2B64604   2.943   1.006   6.755
10647POPC   C3B64605   2.920   0.979   7.055
10647POPC   C4B64606   2.979   1.004   7.355
10648POPC   NC364607  41.535  26.044   5.555
10648POPC   PO464608  41.554  26.054   5.855
10648POPC   GL164609  41.587  26.008   6.155
10648POPC   GL264610  41.678  26.028   6.155
10648POPC   C1A64611  41.577  25.992   6.455
10648POPC   D2A64612  41.559  26.015   6.755
10648POPC   C3A64613  41.542  26.053   7.055
10648POPC   C4A64614  41.553  26.033   7.355
10648POPC   C1B64615  41.850  26.001   6.455
10648POPC   C2B64616  41.778  26.051   6.755
10648POPC   C3B64617  41.830  26.009   7.055
10648POPC   C4B64618  41.835  26.036   7.355
10649POPC   NC364619  39.245  22.172   5.555
10649POPC   PO464620  39.270  22.151   5.855
10649POPC   GL164621  39.266  22.149   6.155
10649POPC   GL264622  39.237  22.063   6.155
10649POPC   C1A64623  39.227  22.149   6.455
10649POPC   D2A64624  39.194  22.179   6.755
10649POPC   C3A64625  39.196  22.179   7.055
10649POPC   C4A64626  39.211  22.160   7.355
10649POPC   C1B64627  39.218  21.948   6.455
10649POPC   C2B64628  39.281  21.893   6.755
10649POPC   C3B64629  39.277  21.908   7.055
10649POPC   C4B64630  39.235  21.870   7.355
10650POPC   NC364631  43.878  40.023   5.555
10650POPC   PO464632  43.845  39.961   5.855
10650POPC   GL164633  43.846  40.038   6.155
10650POPC   GL264634  43.757  40.055   6.155
10650POPC   C1A64635  43.929  40.037   6.455
10650POPC   D2A64636  43.932  40.040   6.755
10650POPC   C3A64637  43.915  40.043   7.055
10650POPC   C4A64638  43.877  39.961   7.355
10650POPC   C1B64639  43.587  40.019   6.455
10650POPC   C2B64640  43.600  40.042   6.755
10650POPC   C3B64641  43.595  40.058   7.055
10650POPC   C4B64642  43.593  40.051   7.355
10651POPC   NC364643  42.345   8.993   5.555
10651POPC   PO464644  42.354   8.958   5.855
10651POPC   GL164645  42.377   8.986   6.155
10651POPC   GL264646  42.261   8.899   6.155
10651POPC   C1A64647  42.325   8.995   6.455
10651POPC   D2A64648  42.363   8.972   6.755
10651POPC   C3A64649  42.290   9.000   7.055
10651POPC   C4A64650  42.317   8.969   7.355
10651POPC   C1B64651  42.208   8.793   6.455
10651POPC   C2B64652  42.239   8.718   6.755
10651POPC   C3B64653  42.186   8.746   7.055
10651POPC   C4B64654  42.200   8.791   7.355
10652POPC   NC364655  22.190  32.285   5.555
10652POPC   PO464656  22.131  32.240   5.855
10652POPC   GL164657  22.158  32.213   6.155
10652POPC   GL264658  22.259  32.234   6.155
10652POPC   C1A64659  22.196  32.238   6.455
10652POPC   D2A64660  22.168  32.204   6.755
10652POPC   C3A64661  22.206  32.279   7.055
10652POPC   C4A64662  22.184  32.240   7.355
10652POPC   C1B64663  22.459  32.211   6.455
10652POPC   C2B64664  22.410  32.281   6.755
10652POPC   C3B64665  22.381  32.213   7.055
10652POPC   C4B64666  22.368  32.225   7.355
10653POPC   NC364667  14.396  39.264   5.555
10653POPC   PO464668  14.408  39.246   5.855
10653POPC   GL164669  14.437  39.265   6.155
10653POPC   GL264670  14.492  39.354   6.155
10653POPC   C1A64671  14.427  39.192   6.455
10653POPC   D2A64672  14.375  39.221   6.755
10653POPC   C3A64673  14.404  39.266   7.055
10653POPC   C4A64674  14.385  39.247   7.355
10653POPC   C1B64675  14.569  39.399   6.455
10653POPC   C2B64676  14.598  39.389   6.755
10653POPC   C3B64677  14.641  39.361   7.055
10653POPC   C4B64678  14.564  39.390   7.355
10654POPC   NC364679  41.510  29.117   5.555
10654POPC   PO464680  41.588  29.121   5.855
10654POPC   GL164681  41.576  29.176   6.155
10654POPC   GL264682  41.492  29.222   6.155
10654POPC   C1A64683  41.589  29.133   6.455
10654POPC   D2A64684  41.572  29.107   6.755
10654POPC   C3A64685  41.524  29.129   7.055
10654POPC   C4A64686  41.516  29.117   7.355
10654POPC   C1B64687  41.448  29.421   6.455
10654POPC   C2B64688  41.503  29.379   6.755
10654POPC   C3B64689  41.471  29.364   7.055
10654POPC   C4B64690  41.472  29.413   7.355
10655POPC   NC364691   4.320  44.629   5.555
10655POPC   PO464692   4.294  44.643   5.855
10655POPC   GL164693   4.299  44.613   6.155
10655POPC   GL264694   4.444  44.611   6.155
10655POPC   C1A64695   4.343  44.636   6.455
10655POPC   D2A64696   4.348  44.616   6.755
10655POPC   C3A64697   4.273  44.617   7.055
10655POPC   C4A64698   4.301  44.712   7.355
10655POPC   C1B64699   4.501  44.476   6.455
10655POPC   C2B64700   4.479  44.497   6.755
10655POPC   C3B64701   4.495  44.431   7.055
10655POPC   C4B64702   4.459  44.515   7.355
10656POPC   NC364703  39.967  31.453   5.555
10656POPC   PO464704  40.049  31.477   5.855
10656POPC   GL164705  40.046  31.435   6.155
10656POPC   GL264706  39.870  31.556   6.155
10656POPC   C1A64707  39.963  31.461   6.455
10656POPC   D2A64708  40.000  31.479   6.755
10656POPC   C3A64709  39.979  31.484   7.055
10656POPC   C4A64710  39.992  31.475   7.355
10656POPC   C1B64711  39.765  31.577   6.455
10656POPC   C2B64712  39.733  31.550   6.755
10656POPC   C3B64713  39.738  31.576   7.055
10656POPC   C4B64714  39.797  31.602   7.355
10657POPC   NC364715   2.788   0.405   5.555
10657POPC   PO464716   2.804   0.392   5.855
10657POPC   GL164717   2.743   0.464   6.155
10657POPC   GL264718   2.621   0.476   6.155
10657POPC   C1A64719   2.768   0.398   6.455
10657POPC   D2A64720   2.805   0.452   6.755
10657POPC   C3A64721   2.767   0.398   7.055
10657POPC   C4A64722   2.792   0.411   7.355
10657POPC   C1B64723   2.551   0.453   6.455
10657POPC   C2B64724   2.505   0.421   6.755
10657POPC   C3B64725   2.494   0.424   7.055
10657POPC   C4B64726   2.480   0.436   7.355
10658POPC   NC364727  19.882  10.559   5.555
10658POPC   PO464728  19.875  10.554   5.855
10658POPC   GL164729  19.882  10.558   6.155
10658POPC   GL264730  19.994  10.497   6.155
10658POPC   C1A64731  19.798  10.574   6.455
10658POPC   D2A64732  19.819  10.551   6.755
10658POPC   C3A64733  19.875  10.488   7.055
10658POPC   C4A64734  19.854  10.551   7.355
10658POPC   C1B64735  20.112  10.525   6.455
10658POPC   C2B64736  20.077  10.460   6.755
10658POPC   C3B64737  20.128  10.507   7.055
10658POPC   C4B64738  20.033  10.436   7.355
10659POPC   NC364739   5.859  15.216   5.555
10659POPC   PO464740   5.904  15.173   5.855
10659POPC   GL164741   5.884  15.177   6.155
10659POPC   GL264742   5.863  15.284   6.155
10659POPC   C1A64743   5.873  15.144   6.455
10659POPC   D2A64744   5.913  15.186   6.755
10659POPC   C3A64745   5.865  15.156   7.055
10659POPC   C4A64746   5.913  15.207   7.355
10659POPC   C1B64747   5.814  15.426   6.455
10659POPC   C2B64748   5.864  15.465   6.755
10659POPC   C3B64749   5.770  15.435   7.055
10659POPC   C4B64750   5.839  15.385   7.355
10660POPC   NC364751  39.279  11.278   5.555
10660POPC   PO464752  39.220  11.288   5.855
10660POPC   GL164753  39.205  11.333   6.155
10660POPC   GL264754  39.312  11.179   6.155
10660POPC   C1A64755  39.183  11.289   6.455
10660POPC   D2A64756  39.240  11.332   6.755
10660POPC   C3A64757  39.182  11.253   7.055
10660POPC   C4A64758  39.268  11.263   7.355
10660POPC   C1B64759  39.330  11.013   6.455
10660POPC   C2B64760  39.275  11.110   6.755
10660POPC   C3B64761  39.276  11.105   7.055
10660POPC   C4B64762  39.303  11.034   7.355
10661POPC   NC364763  41.583  41.547   5.555
10661POPC   PO464764  41.518  41.556   5.855
10661POPC   GL164765  41.523  41.584   6.155
10661POPC   GL264766  41.556  41.477   6.155
10661POPC   C1A64767  41.526  41.518   6.455
10661POPC   D2A64768  41.530  41.589   6.755
10661POPC   C3A64769  41.535  41.513   7.055
10661POPC   C4A64770  41.524  41.510   7.355
10661POPC   C1B64771  41.669  41.313   6.455
10661POPC   C2B64772  41.686  41.372   6.755
10661POPC   C3B64773  41.650  41.298   7.055
10661POPC   C4B64774  41.685  41.343   7.355
10662POPC   NC364775   1.200  15.912   5.555
10662POPC   PO464776   1.192  15.987   5.855
10662POPC   GL164777   1.256  15.921   6.155
10662POPC   GL264778   1.099  15.836   6.155
10662POPC   C1A64779   1.217  15.990   6.455
10662POPC   D2A64780   1.261  15.997   6.755
10662POPC   C3A64781   1.204  15.988   7.055
10662POPC   C4A64782   1.254  15.936   7.355
10662POPC   C1B64783   1.082  15.733   6.455
10662POPC   C2B64784   1.071  15.741   6.755
10662POPC   C3B64785   1.026  15.753   7.055
10662POPC   C4B64786   1.084  15.729   7.355
10663POPC   NC364787  36.151  20.568   5.555
10663POPC   PO464788  36.130  20.624   5.855
10663POPC   GL164789  36.141  20.593   6.155
10663POPC   GL264790  36.036  20.672   6.155
10663POPC   C1A64791  36.121  20.590   6.455
10663POPC   D2A64792  36.103  20.615   6.755
10663POPC   C3A64793  36.166  20.647   7.055
10663POPC   C4A64794  36.159  20.566   7.355
10663POPC   C1B64795  35.880  20.596   6.455
10663POPC   C2B64796  35.908  20.666   6.755
10663POPC   C3B64797  35.864  20.623   7.055
10663POPC   C4B64798  35.838  20.638   7.355
10664POPC   NC364799  36.082  28.328   5.555
10664POPC   PO464800  36.172  28.386   5.855
10664POPC   GL164801  36.169  28.405   6.155
10664POPC   GL264802  36.259  28.274   6.155
10664POPC   C1A64803  36.130  28.383   6.455
10664POPC   D2A64804  36.166  28.356   6.755
10664POPC   C3A64805  36.170  28.400   7.055
10664POPC   C4A64806  36.151  28.326   7.355
10664POPC   C1B64807  36.359  28.205   6.455
10664POPC   C2B64808  36.358  28.220   6.755
10664POPC   C3B64809  36.298  28.217   7.055
10664POPC   C4B64810  36.390  28.293   7.355
10665POPC   NC364811  33.004  20.585   5.555
10665POPC   PO464812  32.998  20.650   5.855
10665POPC   GL164813  33.030  20.607   6.155
10665POPC   GL264814  32.889  20.740   6.155
10665POPC   C1A64815  33.011  20.591   6.455
10665POPC   D2A64816  33.042  20.580   6.755
10665POPC   C3A64817  32.977  20.569   7.055
10665POPC   C4A64818  33.023  20.654   7.355
10665POPC   C1B64819  32.874  20.798   6.455
10665POPC   C2B64820  32.834  20.818   6.755
10665POPC   C3B64821  32.816  20.762   7.055
10665POPC   C4B64822  32.813  20.766   7.355
10666POPC   NC364823  36.900  15.923   5.555
10666POPC   PO464824  36.871  15.998   5.855
10666POPC   GL164825  36.909  15.987   6.155
10666POPC   GL264826  36.831  15.889   6.155
10666POPC   C1A64827  36.865  15.997   6.455
10666POPC   D2A64828  36.901  15.952   6.755
10666POPC   C3A64829  36.871  15.936   7.055
10666POPC   C4A64830  36.883  15.949   7.355
10666POPC   C1B64831  36.808  15.698   6.455
10666POPC   C2B64832  36.767  15.710   6.755
10666POPC   C3B64833  36.770  15.743   7.055
10666POPC   C4B64834  36.775  15.694   7.355
10667POPC   NC364835  17.552   8.184   5.555
10667POPC   PO464836  17.480   8.172   5.855
10667POPC   GL164837  17.550   8.217   6.155
10667POPC   GL264838  17.364   8.227   6.155
10667POPC   C1A64839  17.514   8.224   6.455
10667POPC   D2A64840  17.499   8.165   6.755
10667POPC   C3A64841  17.552   8.223   7.055
10667POPC   C4A64842  17.519   8.179   7.355
10667POPC   C1B64843  17.260   8.319   6.455
10667POPC   C2B64844  17.285   8.267   6.755
10667POPC   C3B64845  17.287   8.252   7.055
10667POPC   C4B64846  17.230   8.289   7.355
10668POPC   NC364847  44.637  22.183   5.555
10668POPC   PO464848  44.666  22.119   5.855
10668POPC   GL164849  44.670  22.139   6.155
10668POPC   GL264850  44.772  22.175   6.155
10668POPC   C1A64851  44.695  22.144   6.455
10668POPC   D2A64852  44.637  22.171   6.755
10668POPC   C3A64853  44.712  22.115   7.055
10668POPC   C4A64854  44.642  22.115   7.355
10668POPC   C1B64855  44.888  22.144   6.455
10668POPC   C2B64856  44.880  22.106   6.755
10668POPC   C3B64857  44.933  22.153   7.055
10668POPC   C4B64858  44.863  22.161   7.355
10669POPC   NC364859  27.624   1.946   5.555
10669POPC   PO464860  27.545   2.028   5.855
10669POPC   GL164861  27.598   2.017   6.155
10669POPC   GL264862  27.515   1.894   6.155
10669POPC   C1A64863  27.554   1.968   6.455
10669POPC   D2A64864  27.594   1.993   6.755
10669POPC   C3A64865  27.638   1.941   7.055
10669POPC   C4A64866  27.617   2.006   7.355
10669POPC   C1B64867  27.343   1.834   6.455
10669POPC   C2B64868  27.374   1.833   6.755
10669POPC   C3B64869  27.350   1.868   7.055
10669POPC   C4B64870  27.367   1.919   7.355
10670POPC   NC364871   1.230  24.446   5.555
10670POPC   PO464872   1.199  24.535   5.855
10670POPC   GL164873   1.263  24.456   6.155
10670POPC   GL264874   1.156  24.387   6.155
10670POPC   C1A64875   1.258  24.533   6.455
10670POPC   D2A64876   1.201  24.487   6.755
10670POPC   C3A64877   1.220  24.483   7.055
10670POPC   C4A64878   1.187  24.494   7.355
10670POPC   C1B64879   0.979  24.279   6.455
10670POPC   C2B64880   1.025  24.318   6.755
10670POPC   C3B64881   0.988  24.362   7.055
10670POPC   C4B64882   1.007  24.293   7.355
10671POPC   NC364883  38.407  12.103   5.555
10671POPC   PO464884  38.422  12.085   5.855
10671POPC   GL164885  38.476  12.110   6.155
10671POPC   GL264886  38.457  11.994   6.155
10671POPC   C1A64887  38.408  12.102   6.455
10671POPC   D2A64888  38.503  12.052   6.755
10671POPC   C3A64889  38.473  12.122   7.055
10671POPC   C4A64890  38.472  12.046   7.355
10671POPC   C1B64891  38.470  11.797   6.455
10671POPC   C2B64892  38.484  11.855   6.755
10671POPC   C3B64893  38.514  11.865   7.055
10671POPC   C4B64894  38.475  11.779   7.355
10672POPC   NC364895   2.009  25.996   5.555
10672POPC   PO464896   1.981  26.022   5.855
10672POPC   GL164897   1.983  26.004   6.155
10672POPC   GL264898   2.075  26.017   6.155
10672POPC   C1A64899   2.003  26.019   6.455
10672POPC   D2A64900   2.003  26.063   6.755
10672POPC   C3A64901   2.010  26.087   7.055
10672POPC   C4A64902   1.975  26.010   7.355
10672POPC   C1B64903   2.278  26.051   6.455
10672POPC   C2B64904   2.279  25.977   6.755
10672POPC   C3B64905   2.252  26.042   7.055
10672POPC   C4B64906   2.253  25.964   7.355
10673POPC   NC364907  24.494  42.361   5.555
10673POPC   PO464908  24.454  42.358   5.855
10673POPC   GL164909  24.520  42.319   6.155
10673POPC   GL264910  24.569  42.390   6.155
10673POPC   C1A64911  24.501  42.383   6.455
10673POPC   D2A64912  24.530  42.327   6.755
10673POPC   C3A64913  24.497  42.324   7.055
10673POPC   C4A64914  24.464  42.334   7.355
10673POPC   C1B64915  24.686  42.453   6.455
10673POPC   C2B64916  24.753  42.426   6.755
10673POPC   C3B64917  24.702  42.434   7.055
10673POPC   C4B64918  24.731  42.402   7.355
10674POPC   NC364919   9.703   2.734   5.555
10674POPC   PO464920   9.781   2.792   5.855
10674POPC   GL164921   9.739   2.799   6.155
10674POPC   GL264922   9.733   2.917   6.155
10674POPC   C1A64923   9.758   2.778   6.455
10674POPC   D2A64924   9.756   2.717   6.755
10674POPC   C3A64925   9.734   2.785   7.055
10674POPC   C4A64926   9.771   2.785   7.355
10674POPC   C1B64927   9.773   3.040   6.455
10674POPC   C2B64928   9.792   3.050   6.755
10674POPC   C3B64929   9.742   3.035   7.055
10674POPC   C4B64930   9.716   3.054   7.355
10675POPC   NC364931   6.636   2.010   5.555
10675POPC   PO464932   6.626   2.021   5.855
10675POPC   GL164933   6.638   1.987   6.155
10675POPC   GL264934   6.595   2.068   6.155
10675POPC   C1A64935   6.692   2.024   6.455
10675POPC   D2A64936   6.673   2.025   6.755
10675POPC   C3A64937   6.687   2.011   7.055
10675POPC   C4A64938   6.613   1.964   7.355
10675POPC   C1B64939   6.514   2.115   6.455
10675POPC   C2B64940   6.485   2.170   6.755
10675POPC   C3B64941   6.441   2.204   7.055
10675POPC   C4B64942   6.498   2.194   7.355
10676POPC   NC364943   8.232  30.732   5.555
10676POPC   PO464944   8.237  30.738   5.855
10676POPC   GL164945   8.224  30.680   6.155
10676POPC   GL264946   8.314  30.605   6.155
10676POPC   C1A64947   8.190  30.727   6.455
10676POPC   D2A64948   8.158  30.661   6.755
10676POPC   C3A64949   8.173  30.715   7.055
10676POPC   C4A64950   8.163  30.683   7.355
10676POPC   C1B64951   8.416  30.581   6.455
10676POPC   C2B64952   8.381  30.504   6.755
10676POPC   C3B64953   8.382  30.567   7.055
10676POPC   C4B64954   8.385  30.496   7.355
10677POPC   NC364955  10.567  39.990   5.555
10677POPC   PO464956  10.499  40.043   5.855
10677POPC   GL164957  10.547  39.974   6.155
10677POPC   GL264958  10.403  40.040   6.155
10677POPC   C1A64959  10.562  39.966   6.455
10677POPC   D2A64960  10.475  39.978   6.755
10677POPC   C3A64961  10.496  39.988   7.055
10677POPC   C4A64962  10.499  40.017   7.355
10677POPC   C1B64963  10.311  40.158   6.455
10677POPC   C2B64964  10.267  40.145   6.755
10677POPC   C3B64965  10.289  40.158   7.055
10677POPC   C4B64966  10.315  40.114   7.355
10678POPC   NC364967   0.468  15.143   5.555
10678POPC   PO464968   0.400  15.218   5.855
10678POPC   GL164969   0.432  15.161   6.155
10678POPC   GL264970   0.335  15.196   6.155
10678POPC   C1A64971   0.452  15.176   6.455
10678POPC   D2A64972   0.426  15.209   6.755
10678POPC   C3A64973   0.436  15.150   7.055
10678POPC   C4A64974   0.391  15.141   7.355
10678POPC   C1B64975   0.239  15.152   6.455
10678POPC   C2B64976   0.161  15.175   6.755
10678POPC   C3B64977   0.155  15.151   7.055
10678POPC   C4B64978   0.171  15.129   7.355
10679POPC   NC364979  21.417  41.586   5.555
10679POPC   PO464980  21.391  41.512   5.855
10679POPC   GL164981  21.432  41.569   6.155
10679POPC   GL264982  21.327  41.615   6.155
10679POPC   C1A64983  21.357  41.562   6.455
10679POPC   D2A64984  21.347  41.587   6.755
10679POPC   C3A64985  21.368  41.603   7.055
10679POPC   C4A64986  21.412  41.576   7.355
10679POPC   C1B64987  21.204  41.736   6.455
10679POPC   C2B64988  21.151  41.676   6.755
10679POPC   C3B64989  21.239  41.728   7.055
10679POPC   C4B64990  21.191  41.759   7.355
10680POPC   NC364991   5.052  41.512   5.555
10680POPC   PO464992   5.083  41.568   5.855
10680POPC   GL164993   5.116  41.583   6.155
10680POPC   GL264994   5.089  41.677   6.155
10680POPC   C1A64995   5.106  41.517   6.455
10680POPC   D2A64996   5.064  41.585   6.755
10680POPC   C3A64997   5.063  41.532   7.055
10680POPC   C4A64998   5.094  41.588   7.355
10680POPC   C1B64999   5.142  41.849   6.455
10680POPC   C2B65000   5.185  41.783   6.755
10680POPC   C3B65001   5.108  41.757   7.055
10680POPC   C4B65002   5.183  41.848   7.355
10681POPC   NC365003  25.309  17.549   5.555
10681POPC   PO465004  25.282  17.507   5.855
10681POPC   GL165005  25.306  17.529   6.155
10681POPC   GL265006  25.437  17.545   6.155
10681POPC   C1A65007  25.301  17.485   6.455
10681POPC   D2A65008  25.264  17.497   6.755
10681POPC   C3A65009  25.246  17.542   7.055
10681POPC   C4A65010  25.248  17.499   7.355
10681POPC   C1B65011  25.550  17.527   6.455
10681POPC   C2B65012  25.487  17.507   6.755
10681POPC   C3B65013  25.515  17.535   7.055
10681POPC   C4B65014  25.494  17.496   7.355
10682POPC   NC365015  37.727  22.193   5.555
10682POPC   PO465016  37.702  22.147   5.855
10682POPC   GL165017  37.682  22.184   6.155
10682POPC   GL265018  37.772  22.061   6.155
10682POPC   C1A65019  37.646  22.170   6.455
10682POPC   D2A65020  37.633  22.184   6.755
10682POPC   C3A65021  37.638  22.167   7.055
10682POPC   C4A65022  37.723  22.159   7.355
10682POPC   C1B65023  37.909  22.042   6.455
10682POPC   C2B65024  37.884  22.050   6.755
10682POPC   C3B65025  37.931  21.969   7.055
10682POPC   C4B65026  37.856  22.059   7.355
10683POPC   NC365027  19.068  18.315   5.555
10683POPC   PO465028  19.030  18.260   5.855
10683POPC   GL165029  19.039  18.277   6.155
10683POPC   GL265030  18.955  18.330   6.155
10683POPC   C1A65031  19.098  18.331   6.455
10683POPC   D2A65032  19.013  18.258   6.755
10683POPC   C3A65033  19.074  18.271   7.055
10683POPC   C4A65034  19.054  18.298   7.355
10683POPC   C1B65035  18.832  18.312   6.455
10683POPC   C2B65036  18.836  18.255   6.755
10683POPC   C3B65037  18.763  18.299   7.055
10683POPC   C4B65038  18.786  18.309   7.355
10684POPC   NC365039  33.763  31.515   5.555
10684POPC   PO465040  33.840  31.493   5.855
10684POPC   GL165041  33.773  31.436   6.155
10684POPC   GL265042  33.751  31.358   6.155
10684POPC   C1A65043  33.819  31.457   6.455
10684POPC   D2A65044  33.751  31.428   6.755
10684POPC   C3A65045  33.844  31.480   7.055
10684POPC   C4A65046  33.760  31.449   7.355
10684POPC   C1B65047  33.710  31.281   6.455
10684POPC   C2B65048  33.681  31.240   6.755
10684POPC   C3B65049  33.668  31.214   7.055
10684POPC   C4B65050  33.687  31.242   7.355
10685POPC   NC365051   8.165   8.176   5.555
10685POPC   PO465052   8.238   8.169   5.855
10685POPC   GL165053   8.228   8.196   6.155
10685POPC   GL265054   8.148   8.148   6.155
10685POPC   C1A65055   8.207   8.234   6.455
10685POPC   D2A65056   8.219   8.243   6.755
10685POPC   C3A65057   8.208   8.161   7.055
10685POPC   C4A65058   8.151   8.208   7.355
10685POPC   C1B65059   8.058   8.034   6.455
10685POPC   C2B65060   7.969   8.027   6.755
10685POPC   C3B65061   7.963   7.982   7.055
10685POPC   C4B65062   8.012   7.986   7.355
10686POPC   NC365063  19.858  30.741   5.555
10686POPC   PO465064  19.815  30.649   5.855
10686POPC   GL165065  19.840  30.731   6.155
10686POPC   GL265066  19.871  30.781   6.155
10686POPC   C1A65067  19.871  30.718   6.455
10686POPC   D2A65068  19.820  30.705   6.755
10686POPC   C3A65069  19.829  30.717   7.055
10686POPC   C4A65070  19.811  30.700   7.355
10686POPC   C1B65071  19.948  30.948   6.455
10686POPC   C2B65072  19.931  30.969   6.755
10686POPC   C3B65073  19.933  30.919   7.055
10686POPC   C4B65074  19.923  30.909   7.355
10687POPC   NC365075  43.084  15.995   5.555
10687POPC   PO465076  43.100  15.957   5.855
10687POPC   GL165077  43.077  15.938   6.155
10687POPC   GL265078  43.252  15.918   6.155
10687POPC   C1A65079  43.086  15.986   6.455
10687POPC   D2A65080  43.121  15.958   6.755
10687POPC   C3A65081  43.137  15.962   7.055
10687POPC   C4A65082  43.109  15.980   7.355
10687POPC   C1B65083  43.350  15.804   6.455
10687POPC   C2B65084  43.306  15.788   6.755
10687POPC   C3B65085  43.295  15.873   7.055
10687POPC   C4B65086  43.368  15.799   7.355
10688POPC   NC365087  33.007   7.437   5.555
10688POPC   PO465088  32.979   7.424   5.855
10688POPC   GL165089  33.020   7.388   6.155
10688POPC   GL265090  33.072   7.273   6.155
10688POPC   C1A65091  33.051   7.449   6.455
10688POPC   D2A65092  33.035   7.435   6.755
10688POPC   C3A65093  33.053   7.404   7.055
10688POPC   C4A65094  32.988   7.393   7.355
10688POPC   C1B65095  33.032   7.167   6.455
10688POPC   C2B65096  33.004   7.137   6.755
10688POPC   C3B65097  33.062   7.211   7.055
10688POPC   C4B65098  33.037   7.152   7.355
10689POPC   NC365099   0.462   6.657   5.555
10689POPC   PO465100   0.446   6.671   5.855
10689POPC   GL165101   0.456   6.622   6.155
10689POPC   GL265102   0.292   6.679   6.155
10689POPC   C1A65103   0.468   6.661   6.455
10689POPC   D2A65104   0.428   6.683   6.755
10689POPC   C3A65105   0.437   6.632   7.055
10689POPC   C4A65106   0.426   6.652   7.355
10689POPC   C1B65107   0.160   6.674   6.455
10689POPC   C2B65108   0.230   6.690   6.755
10689POPC   C3B65109   0.146   6.657   7.055
10689POPC   C4B65110   0.222   6.634   7.355
10690POPC   NC365111  41.542  13.608   5.555
10690POPC   PO465112  41.589  13.656   5.855
10690POPC   GL165113  41.534  13.620   6.155
10690POPC   GL265114  41.634  13.732   6.155
10690POPC   C1A65115  41.599  13.661   6.455
10690POPC   D2A65116  41.569  13.644   6.755
10690POPC   C3A65117  41.591  13.603   7.055
10690POPC   C4A65118  41.568  13.629   7.355
10690POPC   C1B65119  41.691  13.860   6.455
10690POPC   C2B65120  41.721  13.796   6.755
10690POPC   C3B65121  41.653  13.813   7.055
10690POPC   C4B65122  41.732  13.873   7.355
10691POPC   NC365123   0.487  33.840   5.555
10691POPC   PO465124   0.468  33.843   5.855
10691POPC   GL165125   0.474  33.804   6.155
10691POPC   GL265126   0.468  33.682   6.155
10691POPC   C1A65127   0.399  33.759   6.455
10691POPC   D2A65128   0.408  33.839   6.755
10691POPC   C3A65129   0.460  33.844   7.055
10691POPC   C4A65130   0.412  33.839   7.355
10691POPC   C1B65131   0.411  33.525   6.455
10691POPC   C2B65132   0.469  33.576   6.755
10691POPC   C3B65133   0.400  33.559   7.055
10691POPC   C4B65134   0.454  33.597   7.355
10692POPC   NC365135  29.167  40.805   5.555
10692POPC   PO465136  29.127  40.814   5.855
10692POPC   GL165137  29.136  40.831   6.155
10692POPC   GL265138  29.041  40.883   6.155
10692POPC   C1A65139  29.186  40.752   6.455
10692POPC   D2A65140  29.142  40.751   6.755
10692POPC   C3A65141  29.164  40.761   7.055
10692POPC   C4A65142  29.154  40.753   7.355
10692POPC   C1B65143  28.993  40.986   6.455
10692POPC   C2B65144  29.008  40.982   6.755
10692POPC   C3B65145  29.042  41.000   7.055
10692POPC   C4B65146  28.999  40.986   7.355
10693POPC   NC365147  33.008  26.010   5.555
10693POPC   PO465148  33.009  26.013   5.855
10693POPC   GL165149  33.040  26.074   6.155
10693POPC   GL265150  33.095  26.070   6.155
10693POPC   C1A65151  32.996  25.992   6.455
10693POPC   D2A65152  33.005  26.039   6.755
10693POPC   C3A65153  33.031  26.022   7.055
10693POPC   C4A65154  33.053  26.072   7.355
10693POPC   C1B65155  33.288  26.185   6.455
10693POPC   C2B65156  33.203  26.144   6.755
10693POPC   C3B65157  33.209  26.217   7.055
10693POPC   C4B65158  33.275  26.203   7.355
10694POPC   NC365159  43.062   4.270   5.555
10694POPC   PO465160  43.086   4.345   5.855
10694POPC   GL165161  43.145   4.348   6.155
10694POPC   GL265162  43.096   4.442   6.155
10694POPC   C1A65163  43.098   4.271   6.455
10694POPC   D2A65164  43.095   4.307   6.755
10694POPC   C3A65165  43.064   4.294   7.055
10694POPC   C4A65166  43.150   4.361   7.355
10694POPC   C1B65167  43.167   4.602   6.455
10694POPC   C2B65168  43.178   4.601   6.755
10694POPC   C3B65169  43.123   4.581   7.055
10694POPC   C4B65170  43.180   4.596   7.355
10695POPC   NC365171  27.628  16.763   5.555
10695POPC   PO465172  27.550  16.760   5.855
10695POPC   GL165173  27.565  16.766   6.155
10695POPC   GL265174  27.672  16.887   6.155
10695POPC   C1A65175  27.614  16.780   6.455
10695POPC   D2A65176  27.625  16.743   6.755
10695POPC   C3A65177  27.591  16.725   7.055
10695POPC   C4A65178  27.596  16.746   7.355
10695POPC   C1B65179  27.729  16.981   6.455
10695POPC   C2B65180  27.671  16.929   6.755
10695POPC   C3B65181  27.707  17.005   7.055
10695POPC   C4B65182  27.689  16.966   7.355
10696POPC   NC365183   3.583  26.777   5.555
10696POPC   PO465184   3.527  26.840   5.855
10696POPC   GL165185   3.524  26.863   6.155
10696POPC   GL265186   3.577  26.689   6.155
10696POPC   C1A65187   3.517  26.818   6.455
10696POPC   D2A65188   3.561  26.788   6.755
10696POPC   C3A65189   3.568  26.862   7.055
10696POPC   C4A65190   3.534  26.861   7.355
10696POPC   C1B65191   3.571  26.613   6.455
10696POPC   C2B65192   3.519  26.578   6.755
10696POPC   C3B65193   3.510  26.583   7.055
10696POPC   C4B65194   3.548  26.605   7.355
10697POPC   NC365195  40.755  13.587   5.555
10697POPC   PO465196  40.818  13.620   5.855
10697POPC   GL165197  40.738  13.643   6.155
10697POPC   GL265198  40.863  13.778   6.155
10697POPC   C1A65199  40.821  13.675   6.455
10697POPC   D2A65200  40.800  13.582   6.755
10697POPC   C3A65201  40.831  13.579   7.055
10697POPC   C4A65202  40.815  13.583   7.355
10697POPC   C1B65203  40.880  13.875   6.455
10697POPC   C2B65204  40.931  13.857   6.755
10697POPC   C3B65205  40.867  13.850   7.055
10697POPC   C4B65206  40.912  13.856   7.355
10698POPC   NC365207  27.617   9.010   5.555
10698POPC   PO465208  27.589   8.964   5.855
10698POPC   GL165209  27.593   8.957   6.155
10698POPC   GL265210  27.641   8.874   6.155
10698POPC   C1A65211  27.634   9.007   6.455
10698POPC   D2A65212  27.630   8.957   6.755
10698POPC   C3A65213  27.552   9.007   7.055
10698POPC   C4A65214  27.575   9.016   7.355
10698POPC   C1B65215  27.704   8.769   6.455
10698POPC   C2B65216  27.637   8.785   6.755
10698POPC   C3B65217  27.690   8.707   7.055
10698POPC   C4B65218  27.714   8.755   7.355
10699POPC   NC365219  17.458  25.301   5.555
10699POPC   PO465220  17.489  25.243   5.855
10699POPC   GL165221  17.501  25.241   6.155
10699POPC   GL265222  17.383  25.334   6.155
10699POPC   C1A65223  17.481  25.270   6.455
10699POPC   D2A65224  17.460  25.237   6.755
10699POPC   C3A65225  17.549  25.295   7.055
10699POPC   C4A65226  17.494  25.253   7.355
10699POPC   C1B65227  17.267  25.280   6.455
10699POPC   C2B65228  17.277  25.296   6.755
10699POPC   C3B65229  17.233  25.282   7.055
10699POPC   C4B65230  17.273  25.282   7.355
10700POPC   NC365231  29.923  15.976   5.555
10700POPC   PO465232  29.968  15.977   5.855
10700POPC   GL165233  29.886  15.940   6.155
10700POPC   GL265234  29.982  16.111   6.155
10700POPC   C1A65235  29.935  15.992   6.455
10700POPC   D2A65236  29.926  15.919   6.755
10700POPC   C3A65237  29.891  15.981   7.055
10700POPC   C4A65238  29.900  15.987   7.355
10700POPC   C1B65239  30.057  16.173   6.455
10700POPC   C2B65240  30.006  16.168   6.755
10700POPC   C3B65241  30.067  16.210   7.055
10700POPC   C4B65242  30.054  16.187   7.355
10701POPC   NC365243  36.081   1.954   5.555
10701POPC   PO465244  36.103   2.016   5.855
10701POPC   GL165245  36.161   2.034   6.155
10701POPC   GL265246  36.069   2.156   6.155
10701POPC   C1A65247  36.095   1.993   6.455
10701POPC   D2A65248  36.092   1.999   6.755
10701POPC   C3A65249  36.175   2.009   7.055
10701POPC   C4A65250  36.157   2.014   7.355
10701POPC   C1B65251  36.117   2.237   6.455
10701POPC   C2B65252  36.059   2.187   6.755
10701POPC   C3B65253  36.089   2.186   7.055
10701POPC   C4B65254  36.072   2.224   7.355
10702POPC   NC365255  40.045   1.213   5.555
10702POPC   PO465256  39.967   1.233   5.855
10702POPC   GL165257  39.991   1.197   6.155
10702POPC   GL265258  40.130   1.099   6.155
10702POPC   C1A65259  39.971   1.217   6.455
10702POPC   D2A65260  40.003   1.214   6.755
10702POPC   C3A65261  40.004   1.247   7.055
10702POPC   C4A65262  40.049   1.212   7.355
10702POPC   C1B65263  40.191   1.044   6.455
10702POPC   C2B65264  40.189   1.110   6.755
10702POPC   C3B65265  40.215   1.043   7.055
10702POPC   C4B65266  40.196   1.121   7.355
10703POPC   NC365267  15.906  11.252   5.555
10703POPC   PO465268  15.935  11.262   5.855
10703POPC   GL165269  15.962  11.342   6.155
10703POPC   GL265270  16.046  11.296   6.155
10703POPC   C1A65271  15.925  11.310   6.455
10703POPC   D2A65272  15.966  11.331   6.755
10703POPC   C3A65273  15.910  11.321   7.055
10703POPC   C4A65274  15.946  11.323   7.355
10703POPC   C1B65275  16.239  11.339   6.455
10703POPC   C2B65276  16.225  11.338   6.755
10703POPC   C3B65277  16.195  11.365   7.055
10703POPC   C4B65278  16.213  11.409   7.355
10704POPC   NC365279   1.237  39.232   5.555
10704POPC   PO465280   1.211  39.248   5.855
10704POPC   GL165281   1.240  39.195   6.155
10704POPC   GL265282   1.376  39.183   6.155
10704POPC   C1A65283   1.221  39.236   6.455
10704POPC   D2A65284   1.210  39.222   6.755
10704POPC   C3A65285   1.244  39.253   7.055
10704POPC   C4A65286   1.236  39.278   7.355
10704POPC   C1B65287   1.473  39.152   6.455
10704POPC   C2B65288   1.428  39.152   6.755
10704POPC   C3B65289   1.499  39.197   7.055
10704POPC   C4B65290   1.484  39.186   7.355
10705POPC   NC365291  15.133  41.575   5.555
10705POPC   PO465292  15.145  41.555   5.855
10705POPC   GL165293  15.168  41.551   6.155
10705POPC   GL265294  15.262  41.454   6.155
10705POPC   C1A65295  15.217  41.575   6.455
10705POPC   D2A65296  15.144  41.527   6.755
10705POPC   C3A65297  15.225  41.563   7.055
10705POPC   C4A65298  15.151  41.540   7.355
10705POPC   C1B65299  15.288  41.362   6.455
10705POPC   C2B65300  15.267  41.335   6.755
10705POPC   C3B65301  15.317  41.299   7.055
10705POPC   C4B65302  15.294  41.370   7.355
10706POPC   NC365303  28.346  15.225   5.555
10706POPC   PO465304  28.332  15.182   5.855
10706POPC   GL165305  28.320  15.158   6.155
10706POPC   GL265306  28.471  15.062   6.155
10706POPC   C1A65307  28.369  15.196   6.455
10706POPC   D2A65308  28.351  15.162   6.755
10706POPC   C3A65309  28.387  15.179   7.055
10706POPC   C4A65310  28.381  15.185   7.355
10706POPC   C1B65311  28.466  14.926   6.455
10706POPC   C2B65312  28.514  14.921   6.755
10706POPC   C3B65313  28.476  14.921   7.055
10706POPC   C4B65314  28.494  14.926   7.355
10707POPC   NC365315   9.781  19.823   5.555
10707POPC   PO465316   9.738  19.826   5.855
10707POPC   GL165317   9.730  19.810   6.155
10707POPC   GL265318   9.921  19.900   6.155
10707POPC   C1A65319   9.700  19.851   6.455
10707POPC   D2A65320   9.749  19.874   6.755
10707POPC   C3A65321   9.770  19.790   7.055
10707POPC   C4A65322   9.701  19.874   7.355
10707POPC   C1B65323  10.021  19.833   6.455
10707POPC   C2B65324  10.034  19.837   6.755
10707POPC   C3B65325  10.036  19.859   7.055
10707POPC   C4B65326   9.996  19.830   7.355
10708POPC   NC365327   4.321  13.647   5.555
10708POPC   PO465328   4.291  13.675   5.855
10708POPC   GL165329   4.331  13.604   6.155
10708POPC   GL265330   4.321  13.709   6.155
10708POPC   C1A65331   4.360  13.642   6.455
10708POPC   D2A65332   4.343  13.611   6.755
10708POPC   C3A65333   4.291  13.669   7.055
10708POPC   C4A65334   4.298  13.600   7.355
10708POPC   C1B65335   4.242  13.890   6.455
10708POPC   C2B65336   4.247  13.834   6.755
10708POPC   C3B65337   4.251  13.903   7.055
10708POPC   C4B65338   4.280  13.905   7.355
10709POPC   NC365339  26.082  10.494   5.555
10709POPC   PO465340  26.062  10.546   5.855
10709POPC   GL165341  26.030  10.507   6.155
10709POPC   GL265342  25.920  10.475   6.155
10709POPC   C1A65343  26.038  10.549   6.455
10709POPC   D2A65344  26.076  10.491   6.755
10709POPC   C3A65345  26.060  10.481   7.055
10709POPC   C4A65346  26.017  10.503   7.355
10709POPC   C1B65347  25.865  10.394   6.455
10709POPC   C2B65348  25.900  10.388   6.755
10709POPC   C3B65349  25.839  10.375   7.055
10709POPC   C4B65350  25.846  10.373   7.355
10710POPC   NC365351  25.258  20.650   5.555
10710POPC   PO465352  25.303  20.614   5.855
10710POPC   GL165353  25.253  20.635   6.155
10710POPC   GL265354  25.186  20.536   6.155
10710POPC   C1A65355  25.266  20.627   6.455
10710POPC   D2A65356  25.252  20.619   6.755
10710POPC   C3A65357  25.314  20.642   7.055
10710POPC   C4A65358  25.250  20.572   7.355
10710POPC   C1B65359  25.005  20.492   6.455
10710POPC   C2B65360  25.079  20.521   6.755
10710POPC   C3B65361  25.045  20.465   7.055
10710POPC   C4B65362  25.084  20.497   7.355
10711POPC   NC365363  17.462  41.515   5.555
10711POPC   PO465364  17.529  41.550   5.855
10711POPC   GL165365  17.487  41.590   6.155
10711POPC   GL265366  17.547  41.701   6.155
10711POPC   C1A65367  17.504  41.540   6.455
10711POPC   D2A65368  17.531  41.608   6.755
10711POPC   C3A65369  17.469  41.520   7.055
10711POPC   C4A65370  17.518  41.535   7.355
10711POPC   C1B65371  17.564  41.774   6.455
10711POPC   C2B65372  17.535  41.812   6.755
10711POPC   C3B65373  17.505  41.802   7.055
10711POPC   C4B65374  17.549  41.851   7.355
10712POPC   NC365375  24.529   5.897   5.555
10712POPC   PO465376  24.531   5.857   5.855
10712POPC   GL165377  24.531   5.892   6.155
10712POPC   GL265378  24.572   5.736   6.155
10712POPC   C1A65379  24.462   5.914   6.455
10712POPC   D2A65380  24.497   5.823   6.755
10712POPC   C3A65381  24.484   5.896   7.055
10712POPC   C4A65382  24.507   5.900   7.355
10712POPC   C1B65383  24.599   5.624   6.455
10712POPC   C2B65384  24.569   5.650   6.755
10712POPC   C3B65385  24.549   5.679   7.055
10712POPC   C4B65386  24.605   5.644   7.355
10713POPC   NC365387  38.454   3.577   5.555
10713POPC   PO465388  38.433   3.557   5.855
10713POPC   GL165389  38.427   3.589   6.155
10713POPC   GL265390  38.510   3.435   6.155
10713POPC   C1A65391  38.479   3.546   6.455
10713POPC   D2A65392  38.441   3.528   6.755
10713POPC   C3A65393  38.439   3.562   7.055
10713POPC   C4A65394  38.490   3.572   7.355
10713POPC   C1B65395  38.648   3.345   6.455
10713POPC   C2B65396  38.683   3.419   6.755
10713POPC   C3B65397  38.651   3.352   7.055
10713POPC   C4B65398  38.644   3.342   7.355
10714POPC   NC365399   4.293   0.443   5.555
10714POPC   PO465400   4.312   0.424   5.855
10714POPC   GL165401   4.308   0.480   6.155
10714POPC   GL265402   4.354   0.532   6.155
10714POPC   C1A65403   4.308   0.428   6.455
10714POPC   D2A65404   4.344   0.427   6.755
10714POPC   C3A65405   4.342   0.412   7.055
10714POPC   C4A65406   4.276   0.433   7.355
10714POPC   C1B65407   4.411   0.643   6.455
10714POPC   C2B65408   4.395   0.696   6.755
10714POPC   C3B65409   4.397   0.692   7.055
10714POPC   C4B65410   4.376   0.695   7.355
10715POPC   NC365411  36.872   8.246   5.555
10715POPC   PO465412  36.882   8.221   5.855
10715POPC   GL165413  36.868   8.164   6.155
10715POPC   GL265414  36.796   8.233   6.155
10715POPC   C1A65415  36.855   8.206   6.455
10715POPC   D2A65416  36.878   8.158   6.755
10715POPC   C3A65417  36.947   8.150   7.055
10715POPC   C4A65418  36.928   8.215   7.355
10715POPC   C1B65419  36.623   8.193   6.455
10715POPC   C2B65420  36.656   8.214   6.755
10715POPC   C3B65421  36.610   8.226   7.055
10715POPC   C4B65422  36.643   8.217   7.355
10716POPC   NC365423   7.395  22.963   5.555
10716POPC   PO465424   7.458  22.953   5.855
10716POPC   GL165425   7.463  22.907   6.155
10716POPC   GL265426   7.337  23.067   6.155
10716POPC   C1A65427   7.385  22.907   6.455
10716POPC   D2A65428   7.429  22.974   6.755
10716POPC   C3A65429   7.407  22.983   7.055
10716POPC   C4A65430   7.429  22.978   7.355
10716POPC   C1B65431   7.199  23.152   6.455
10716POPC   C2B65432   7.242  23.067   6.755
10716POPC   C3B65433   7.216  23.139   7.055
10716POPC   C4B65434   7.222  23.137   7.355
10717POPC   NC365435  31.469  25.300   5.555
10717POPC   PO465436  31.500  25.228   5.855
10717POPC   GL165437  31.440  25.216   6.155
10717POPC   GL265438  31.541  25.326   6.155
10717POPC   C1A65439  31.449  25.299   6.455
10717POPC   D2A65440  31.508  25.245   6.755
10717POPC   C3A65441  31.448  25.227   7.055
10717POPC   C4A65442  31.487  25.297   7.355
10717POPC   C1B65443  31.694  25.404   6.455
10717POPC   C2B65444  31.746  25.402   6.755
10717POPC   C3B65445  31.662  25.418   7.055
10717POPC   C4B65446  31.717  25.363   7.355
10718POPC   NC365447  35.356   1.984   5.555
10718POPC   PO465448  35.337   2.010   5.855
10718POPC   GL165449  35.304   2.011   6.155
10718POPC   GL265450  35.274   2.074   6.155
10718POPC   C1A65451  35.337   1.956   6.455
10718POPC   D2A65452  35.399   2.006   6.755
10718POPC   C3A65453  35.329   1.972   7.055
10718POPC   C4A65454  35.304   2.038   7.355
10718POPC   C1B65455  35.291   2.257   6.455
10718POPC   C2B65456  35.263   2.253   6.755
10718POPC   C3B65457  35.245   2.243   7.055
10718POPC   C4B65458  35.322   2.246   7.355
10719POPC   NC365459  34.576  26.771   5.555
10719POPC   PO465460  34.611  26.783   5.855
10719POPC   GL165461  34.589  26.804   6.155
10719POPC   GL265462  34.640  26.906   6.155
10719POPC   C1A65463  34.565  26.807   6.455
10719POPC   D2A65464  34.612  26.789   6.755
10719POPC   C3A65465  34.535  26.849   7.055
10719POPC   C4A65466  34.590  26.770   7.355
10719POPC   C1B65467  34.771  26.916   6.455
10719POPC   C2B65468  34.759  26.951   6.755
10719POPC   C3B65469  34.762  26.919   7.055
10719POPC   C4B65470  34.818  26.941   7.355
10720POPC   NC365471  39.230  40.791   5.555
10720POPC   PO465472  39.217  40.740   5.855
10720POPC   GL165473  39.209  40.751   6.155
10720POPC   GL265474  39.127  40.907   6.155
10720POPC   C1A65475  39.234  40.817   6.455
10720POPC   D2A65476  39.202  40.813   6.755
10720POPC   C3A65477  39.192  40.832   7.055
10720POPC   C4A65478  39.268  40.755   7.355
10720POPC   C1B65479  39.109  40.951   6.455
10720POPC   C2B65480  39.116  41.011   6.755
10720POPC   C3B65481  39.087  41.024   7.055
10720POPC   C4B65482  39.117  40.981   7.355
10721POPC   NC365483  15.985  43.846   5.555
10721POPC   PO465484  16.004  43.923   5.855
10721POPC   GL165485  15.926  43.889   6.155
10721POPC   GL265486  15.953  43.722   6.155
10721POPC   C1A65487  15.951  43.856   6.455
10721POPC   D2A65488  15.920  43.876   6.755
10721POPC   C3A65489  15.966  43.887   7.055
10721POPC   C4A65490  15.914  43.909   7.355
10721POPC   C1B65491  15.968  43.621   6.455
10721POPC   C2B65492  15.950  43.590   6.755
10721POPC   C3B65493  15.952  43.624   7.055
10721POPC   C4B65494  15.909  43.661   7.355
10722POPC   NC365495  22.144   6.684   5.555
10722POPC   PO465496  22.198   6.623   5.855
10722POPC   GL165497  22.172   6.617   6.155
10722POPC   GL265498  22.229   6.607   6.155
10722POPC   C1A65499  22.160   6.691   6.455
10722POPC   D2A65500  22.118   6.682   6.755
10722POPC   C3A65501  22.165   6.653   7.055
10722POPC   C4A65502  22.170   6.626   7.355
10722POPC   C1B65503  22.347   6.519   6.455
10722POPC   C2B65504  22.407   6.507   6.755
10722POPC   C3B65505  22.359   6.501   7.055
10722POPC   C4B65506  22.371   6.541   7.355
10723POPC   NC365507  39.977  25.234   5.555
10723POPC   PO465508  39.998  25.266   5.855
10723POPC   GL165509  40.000  25.306   6.155
10723POPC   GL265510  39.927  25.340   6.155
10723POPC   C1A65511  39.981  25.299   6.455
10723POPC   D2A65512  39.977  25.222   6.755
10723POPC   C3A65513  40.027  25.283   7.055
10723POPC   C4A65514  40.038  25.272   7.355
10723POPC   C1B65515  39.911  25.458   6.455
10723POPC   C2B65516  39.890  25.507   6.755
10723POPC   C3B65517  39.877  25.491   7.055
10723POPC   C4B65518  39.876  25.466   7.355
10724POPC   NC365519  36.876  41.516   5.555
10724POPC   PO465520  36.933  41.553   5.855
10724POPC   GL165521  36.905  41.580   6.155
10724POPC   GL265522  37.069  41.569   6.155
10724POPC   C1A65523  36.854  41.583   6.455
10724POPC   D2A65524  36.900  41.552   6.755
10724POPC   C3A65525  36.864  41.582   7.055
10724POPC   C4A65526  36.854  41.585   7.355
10724POPC   C1B65527  37.120  41.558   6.455
10724POPC   C2B65528  37.166  41.511   6.755
10724POPC   C3B65529  37.135  41.494   7.055
10724POPC   C4B65530  37.182  41.512   7.355
10725POPC   NC365531  10.510  36.915   5.555
10725POPC   PO465532  10.566  36.884   5.855
10725POPC   GL165533  10.567  36.918   6.155
10725POPC   GL265534  10.417  36.846   6.155
10725POPC   C1A65535  10.478  36.909   6.455
10725POPC   D2A65536  10.475  36.859   6.755
10725POPC   C3A65537  10.547  36.917   7.055
10725POPC   C4A65538  10.517  36.951   7.355
10725POPC   C1B65539  10.381  36.741   6.455
10725POPC   C2B65540  10.355  36.713   6.755
10725POPC   C3B65541  10.353  36.695   7.055
10725POPC   C4B65542  10.293  36.728   7.355
10726POPC   NC365543  10.555  26.846   5.555
10726POPC   PO465544  10.560  26.829   5.855
10726POPC   GL165545  10.484  26.784   6.155
10726POPC   GL265546  10.556  26.753   6.155
10726POPC   C1A65547  10.534  26.823   6.455
10726POPC   D2A65548  10.477  26.802   6.755
10726POPC   C3A65549  10.535  26.842   7.055
10726POPC   C4A65550  10.513  26.809   7.355
10726POPC   C1B65551  10.661  26.633   6.455
10726POPC   C2B65552  10.661  26.655   6.755
10726POPC   C3B65553  10.672  26.651   7.055
10726POPC   C4B65554  10.720  26.612   7.355
10727POPC   NC365555  19.035  11.320   5.555
10727POPC   PO465556  19.108  11.271   5.855
10727POPC   GL165557  19.087  11.262   6.155
10727POPC   GL265558  18.906  11.312   6.155
10727POPC   C1A65559  19.043  11.304   6.455
10727POPC   D2A65560  19.035  11.310   6.755
10727POPC   C3A65561  19.025  11.305   7.055
10727POPC   C4A65562  19.021  11.253   7.355
10727POPC   C1B65563  18.795  11.319   6.455
10727POPC   C2B65564  18.808  11.315   6.755
10727POPC   C3B65565  18.786  11.296   7.055
10727POPC   C4B65566  18.764  11.323   7.355
10728POPC   NC365567  11.275  29.169   5.555
10728POPC   PO465568  11.266  29.181   5.855
10728POPC   GL165569  11.314  29.153   6.155
10728POPC   GL265570  11.188  29.061   6.155
10728POPC   C1A65571  11.319  29.147   6.455
10728POPC   D2A65572  11.331  29.140   6.755
10728POPC   C3A65573  11.289  29.185   7.055
10728POPC   C4A65574  11.298  29.170   7.355
10728POPC   C1B65575  11.078  29.023   6.455
10728POPC   C2B65576  11.030  29.069   6.755
10728POPC   C3B65577  11.027  29.086   7.055
10728POPC   C4B65578  11.038  29.106   7.355
10729POPC   NC365579  22.149  29.880   5.555
10729POPC   PO465580  22.142  29.877   5.855
10729POPC   GL165581  22.184  29.907   6.155
10729POPC   GL265582  22.287  29.918   6.155
10729POPC   C1A65583  22.181  29.881   6.455
10729POPC   D2A65584  22.143  29.907   6.755
10729POPC   C3A65585  22.127  29.906   7.055
10729POPC   C4A65586  22.201  29.873   7.355
10729POPC   C1B65587  22.417  29.968   6.455
10729POPC   C2B65588  22.362  29.943   6.755
10729POPC   C3B65589  22.411  30.005   7.055
10729POPC   C4B65590  22.441  29.989   7.355
10730POPC   NC365591  29.923  29.158   5.555
10730POPC   PO465592  29.959  29.153   5.855
10730POPC   GL165593  29.955  29.187   6.155
10730POPC   GL265594  30.012  29.242   6.155
10730POPC   C1A65595  29.932  29.099   6.455
10730POPC   D2A65596  29.925  29.144   6.755
10730POPC   C3A65597  29.926  29.194   7.055
10730POPC   C4A65598  29.936  29.176   7.355
10730POPC   C1B65599  30.074  29.321   6.455
10730POPC   C2B65600  30.003  29.324   6.755
10730POPC   C3B65601  30.011  29.353   7.055
10730POPC   C4B65602  30.091  29.316   7.355
10731POPC   NC365603  36.898   1.254   5.555
10731POPC   PO465604  36.894   1.192   5.855
10731POPC   GL165605  36.864   1.202   6.155
10731POPC   GL265606  36.855   1.340   6.155
10731POPC   C1A65607  36.879   1.219   6.455
10731POPC   D2A65608  36.922   1.247   6.755
10731POPC   C3A65609  36.861   1.215   7.055
10731POPC   C4A65610  36.859   1.264   7.355
10731POPC   C1B65611  36.787   1.439   6.455
10731POPC   C2B65612  36.795   1.446   6.755
10731POPC   C3B65613  36.880   1.410   7.055
10731POPC   C4B65614  36.856   1.481   7.355
10732POPC   NC365615  17.497   9.713   5.555
10732POPC   PO465616  17.483   9.730   5.855
10732POPC   GL165617  17.470   9.713   6.155
10732POPC   GL265618  17.639   9.794   6.155
10732POPC   C1A65619  17.509   9.737   6.455
10732POPC   D2A65620  17.482   9.767   6.755
10732POPC   C3A65621  17.505   9.786   7.055
10732POPC   C4A65622  17.518   9.744   7.355
10732POPC   C1B65623  17.789   9.748   6.455
10732POPC   C2B65624  17.763   9.810   6.755
10732POPC   C3B65625  17.779   9.815   7.055
10732POPC   C4B65626  17.755   9.728   7.355
10733POPC   NC365627  10.562  37.639   5.555
10733POPC   PO465628  10.502  37.705   5.855
10733POPC   GL165629  10.540  37.697   6.155
10733POPC   GL265630  10.434  37.839   6.155
10733POPC   C1A65631  10.574  37.673   6.455
10733POPC   D2A65632  10.500  37.635   6.755
10733POPC   C3A65633  10.550  37.678   7.055
10733POPC   C4A65634  10.564  37.697   7.355
10733POPC   C1B65635  10.416  37.895   6.455
10733POPC   C2B65636  10.407  37.900   6.755
10733POPC   C3B65637  10.439  37.864   7.055
10733POPC   C4B65638  10.485  37.904   7.355
10734POPC   NC365639  32.982   1.184   5.555
10734POPC   PO465640  32.999   1.231   5.855
10734POPC   GL165641  33.013   1.174   6.155
10734POPC   GL265642  32.986   1.071   6.155
10734POPC   C1A65643  33.061   1.216   6.455
10734POPC   D2A65644  32.997   1.196   6.755
10734POPC   C3A65645  33.029   1.217   7.055
10734POPC   C4A65646  32.987   1.171   7.355
10734POPC   C1B65647  32.931   0.989   6.455
10734POPC   C2B65648  32.944   0.936   6.755
10734POPC   C3B65649  32.933   0.967   7.055
10734POPC   C4B65650  32.929   0.923   7.355
10735POPC   NC365651  22.974  33.052   5.555
10735POPC   PO465652  22.911  33.029   5.855
10735POPC   GL165653  22.904  32.998   6.155
10735POPC   GL265654  23.040  33.031   6.155
10735POPC   C1A65655  22.929  33.006   6.455
10735POPC   D2A65656  22.908  33.036   6.755
10735POPC   C3A65657  22.982  33.010   7.055
10735POPC   C4A65658  22.929  33.054   7.355
10735POPC   C1B65659  23.189  32.920   6.455
10735POPC   C2B65660  23.143  32.958   6.755
10735POPC   C3B65661  23.170  32.982   7.055
10735POPC   C4B65662  23.156  32.964   7.355
10736POPC   NC365663  36.119  25.217   5.555
10736POPC   PO465664  36.129  25.243   5.855
10736POPC   GL165665  36.148  25.294   6.155
10736POPC   GL265666  36.048  25.380   6.155
10736POPC   C1A65667  36.132  25.250   6.455
10736POPC   D2A65668  36.078  25.231   6.755
10736POPC   C3A65669  36.090  25.224   7.055
10736POPC   C4A65670  36.156  25.312   7.355
10736POPC   C1B65671  35.993  25.477   6.455
10736POPC   C2B65672  35.928  25.431   6.755
10736POPC   C3B65673  35.997  25.462   7.055
10736POPC   C4B65674  35.972  25.452   7.355
10737POPC   NC365675  16.692  12.072   5.555
10737POPC   PO465676  16.720  12.098   5.855
10737POPC   GL165677  16.745  12.040   6.155
10737POPC   GL265678  16.704  12.181   6.155
10737POPC   C1A65679  16.763  12.083   6.455
10737POPC   D2A65680  16.722  12.034   6.755
10737POPC   C3A65681  16.757  12.096   7.055
10737POPC   C4A65682  16.720  12.041   7.355
10737POPC   C1B65683  16.777  12.311   6.455
10737POPC   C2B65684  16.774  12.289   6.755
10737POPC   C3B65685  16.779  12.350   7.055
10737POPC   C4B65686  16.756  12.344   7.355
10738POPC   NC365687  36.123  14.410   5.555
10738POPC   PO465688  36.093  14.414   5.855
10738POPC   GL165689  36.146  14.422   6.155
10738POPC   GL265690  36.095  14.269   6.155
10738POPC   C1A65691  36.139  14.453   6.455
10738POPC   D2A65692  36.139  14.405   6.755
10738POPC   C3A65693  36.170  14.440   7.055
10738POPC   C4A65694  36.127  14.403   7.355
10738POPC   C1B65695  36.047  14.160   6.455
10738POPC   C2B65696  36.046  14.190   6.755
10738POPC   C3B65697  36.030  14.163   7.055
10738POPC   C4B65698  35.999  14.200   7.355
10739POPC   NC365699   6.628  32.270   5.555
10739POPC   PO465700   6.671  32.247   5.855
10739POPC   GL165701   6.623  32.225   6.155
10739POPC   GL265702   6.788  32.198   6.155
10739POPC   C1A65703   6.675  32.251   6.455
10739POPC   D2A65704   6.619  32.286   6.755
10739POPC   C3A65705   6.614  32.248   7.055
10739POPC   C4A65706   6.695  32.214   7.355
10739POPC   C1B65707   6.874  32.149   6.455
10739POPC   C2B65708   6.842  32.142   6.755
10739POPC   C3B65709   6.816  32.129   7.055
10739POPC   C4B65710   6.862  32.151   7.355
10740POPC   NC365711  10.519   9.777   5.555
10740POPC   PO465712  10.526   9.727   5.855
10740POPC   GL165713  10.519   9.746   6.155
10740POPC   GL265714  10.628   9.719   6.155
10740POPC   C1A65715  10.531   9.700   6.455
10740POPC   D2A65716  10.573   9.760   6.755
10740POPC   C3A65717  10.523   9.727   7.055
10740POPC   C4A65718  10.507   9.784   7.355
10740POPC   C1B65719  10.747   9.684   6.455
10740POPC   C2B65720  10.757   9.656   6.755
10740POPC   C3B65721  10.740   9.686   7.055
10740POPC   C4B65722  10.801   9.697   7.355
10741POPC   NC365723  14.433  42.293   5.555
10741POPC   PO465724  14.445  42.316   5.855
10741POPC   GL165725  14.447  42.288   6.155
10741POPC   GL265726  14.270  42.289   6.155
10741POPC   C1A65727  14.402  42.345   6.455
10741POPC   D2A65728  14.408  42.288   6.755
10741POPC   C3A65729  14.440  42.360   7.055
10741POPC   C4A65730  14.415  42.379   7.355
10741POPC   C1B65731  14.200  42.355   6.455
10741POPC   C2B65732  14.167  42.355   6.755
10741POPC   C3B65733  14.128  42.301   7.055
10741POPC   C4B65734  14.128  42.348   7.355
10742POPC   NC365735  36.928  19.822   5.555
10742POPC   PO465736  36.865  19.872   5.855
10742POPC   GL165737  36.905  19.823   6.155
10742POPC   GL265738  36.791  19.857   6.155
10742POPC   C1A65739  36.892  19.876   6.455
10742POPC   D2A65740  36.928  19.809   6.755
10742POPC   C3A65741  36.911  19.863   7.055
10742POPC   C4A65742  36.913  19.877   7.355
10742POPC   C1B65743  36.668  19.765   6.455
10742POPC   C2B65744  36.612  19.817   6.755
10742POPC   C3B65745  36.611  19.832   7.055
10742POPC   C4B65746  36.679  19.783   7.355
10743POPC   NC365747  11.266   0.437   5.555
10743POPC   PO465748  11.319   0.400   5.855
10743POPC   GL165749  11.260   0.479   6.155
10743POPC   GL265750  11.219   0.409   6.155
10743POPC   C1A65751  11.311   0.451   6.455
10743POPC   D2A65752  11.340   0.483   6.755
10743POPC   C3A65753  11.299   0.391   7.055
10743POPC   C4A65754  11.256   0.467   7.355
10743POPC   C1B65755  11.107   0.266   6.455
10743POPC   C2B65756  11.061   0.289   6.755
10743POPC   C3B65757  11.092   0.260   7.055
10743POPC   C4B65758  11.043   0.258   7.355
10744POPC   NC365759  11.273  37.664   5.555
10744POPC   PO465760  11.340  37.641   5.855
10744POPC   GL165761  11.287  37.683   6.155
10744POPC   GL265762  11.456  37.714   6.155
10744POPC   C1A65763  11.343  37.698   6.455
10744POPC   D2A65764  11.332  37.654   6.755
10744POPC   C3A65765  11.261  37.692   7.055
10744POPC   C4A65766  11.332  37.714   7.355
10744POPC   C1B65767  11.496  37.804   6.455
10744POPC   C2B65768  11.548  37.832   6.755
10744POPC   C3B65769  11.486  37.821   7.055
10744POPC   C4B65770  11.502  37.781   7.355
10745POPC   NC365771   7.444  41.596   5.555
10745POPC   PO465772   7.434  41.539   5.855
10745POPC   GL165773   7.372  41.548   6.155
10745POPC   GL265774   7.496  41.535   6.155
10745POPC   C1A65775   7.375  41.526   6.455
10745POPC   D2A65776   7.426  41.510   6.755
10745POPC   C3A65777   7.464  41.591   7.055
10745POPC   C4A65778   7.399  41.527   7.355
10745POPC   C1B65779   7.691  41.485   6.455
10745POPC   C2B65780   7.650  41.535   6.755
10745POPC   C3B65781   7.635  41.524   7.055
10745POPC   C4B65782   7.680  41.483   7.355
10746POPC   NC365783  32.998  26.826   5.555
10746POPC   PO465784  33.070  26.796   5.855
10746POPC   GL165785  32.994  26.837   6.155
10746POPC   GL265786  32.962  26.953   6.155
10746POPC   C1A65787  33.051  26.794   6.455
10746POPC   D2A65788  32.997  26.858   6.755
10746POPC   C3A65789  33.063  26.853   7.055
10746POPC   C4A65790  33.065  26.778   7.355
10746POPC   C1B65791  32.950  27.088   6.455
10746POPC   C2B65792  32.904  27.046   6.755
10746POPC   C3B65793  32.977  27.085   7.055
10746POPC   C4B65794  32.907  27.095   7.355
10747POPC   NC365795   5.840  21.344   5.555
10747POPC   PO465796   5.900  21.340   5.855
10747POPC   GL165797   5.838  21.347   6.155
10747POPC   GL265798   5.957  21.404   6.155
10747POPC   C1A65799   5.906  21.418   6.455
10747POPC   D2A65800   5.892  21.383   6.755
10747POPC   C3A65801   5.919  21.404   7.055
10747POPC   C4A65802   5.854  21.427   7.355
10747POPC   C1B65803   6.140  21.454   6.455
10747POPC   C2B65804   6.118  21.415   6.755
10747POPC   C3B65805   6.097  21.373   7.055
10747POPC   C4B65806   6.096  21.402   7.355
10748POPC   NC365807   0.414  10.529   5.555
10748POPC   PO465808   0.422  10.548   5.855
10748POPC   GL165809   0.398  10.563   6.155
10748POPC   GL265810   0.274  10.491   6.155
10748POPC   C1A65811   0.415  10.561   6.455
10748POPC   D2A65812   0.421  10.569   6.755
10748POPC   C3A65813   0.434  10.553   7.055
10748POPC   C4A65814   0.473  10.522   7.355
10748POPC   C1B65815   0.201  10.492   6.455
10748POPC   C2B65816   0.162  10.404   6.755
10748POPC   C3B65817   0.248  10.416   7.055
10748POPC   C4B65818   0.211  10.424   7.355
10749POPC   NC365819  38.437  20.577   5.555
10749POPC   PO465820  38.423  20.656   5.855
10749POPC   GL165821  38.413  20.626   6.155
10749POPC   GL265822  38.514  20.546   6.155
10749POPC   C1A65823  38.461  20.624   6.455
10749POPC   D2A65824  38.410  20.561   6.755
10749POPC   C3A65825  38.480  20.581   7.055
10749POPC   C4A65826  38.462  20.587   7.355
10749POPC   C1B65827  38.622  20.356   6.455
10749POPC   C2B65828  38.613  20.451   6.755
10749POPC   C3B65829  38.632  20.363   7.055
10749POPC   C4B65830  38.585  20.363   7.355
10750POPC   NC365831   5.906  28.363   5.555
10750POPC   PO465832   5.823  28.348   5.855
10750POPC   GL165833   5.860  28.417   6.155
10750POPC   GL265834   5.837  28.282   6.155
10750POPC   C1A65835   5.850  28.382   6.455
10750POPC   D2A65836   5.909  28.400   6.755
10750POPC   C3A65837   5.899  28.362   7.055
10750POPC   C4A65838   5.883  28.399   7.355
10750POPC   C1B65839   5.803  28.107   6.455
10750POPC   C2B65840   5.778  28.191   6.755
10750POPC   C3B65841   5.736  28.164   7.055
10750POPC   C4B65842   5.803  28.123   7.355
10751POPC   NC365843  27.603  23.702   5.555
10751POPC   PO465844  27.545  23.758   5.855
10751POPC   GL165845  27.577  23.698   6.155
10751POPC   GL265846  27.423  23.752   6.155
10751POPC   C1A65847  27.556  23.672   6.455
10751POPC   D2A65848  27.590  23.738   6.755
10751POPC   C3A65849  27.633  23.718   7.055
10751POPC   C4A65850  27.568  23.732   7.355
10751POPC   C1B65851  27.368  23.761   6.455
10751POPC   C2B65852  27.320  23.680   6.755
10751POPC   C3B65853  27.340  23.757   7.055
10751POPC   C4B65854  27.307  23.670   7.355
10752POPC   NC365855   5.065  16.720   5.555
10752POPC   PO465856   5.141  16.773   5.855
10752POPC   GL165857   5.060  16.719   6.155
10752POPC   GL265858   5.045  16.590   6.155
10752POPC   C1A65859   5.135  16.725   6.455
10752POPC   D2A65860   5.120  16.715   6.755
10752POPC   C3A65861   5.091  16.706   7.055
10752POPC   C4A65862   5.063  16.764   7.355
10752POPC   C1B65863   4.904  16.517   6.455
10752POPC   C2B65864   4.897  16.532   6.755
10752POPC   C3B65865   4.923  16.552   7.055
10752POPC   C4B65866   4.907  16.553   7.355
10753POPC   NC365867  40.027  40.027   5.555
10753POPC   PO465868  40.047  40.052   5.855
10753POPC   GL165869  39.965  39.972   6.155
10753POPC   GL265870  40.001  40.173   6.155
10753POPC   C1A65871  39.965  39.983   6.455
10753POPC   D2A65872  40.022  40.018   6.755
10753POPC   C3A65873  40.009  39.972   7.055
10753POPC   C4A65874  40.043  40.029   7.355
10753POPC   C1B65875  40.006  40.301   6.455
10753POPC   C2B65876  40.048  40.212   6.755
10753POPC   C3B65877  40.059  40.272   7.055
10753POPC   C4B65878  39.986  40.286   7.355
10754POPC   NC365879  19.823   2.775   5.555
10754POPC   PO465880  19.858   2.803   5.855
10754POPC   GL165881  19.841   2.763   6.155
10754POPC   GL265882  19.771   2.885   6.155
10754POPC   C1A65883  19.848   2.801   6.455
10754POPC   D2A65884  19.789   2.803   6.755
10754POPC   C3A65885  19.793   2.804   7.055
10754POPC   C4A65886  19.827   2.797   7.355
10754POPC   C1B65887  19.686   2.952   6.455
10754POPC   C2B65888  19.659   2.965   6.755
10754POPC   C3B65889  19.602   2.899   7.055
10754POPC   C4B65890  19.639   2.894   7.355
10755POPC   NC365891   5.916  38.413   5.555
10755POPC   PO465892   5.904  38.485   5.855
10755POPC   GL165893   5.895  38.433   6.155
10755POPC   GL265894   5.913  38.537   6.155
10755POPC   C1A65895   5.875  38.423   6.455
10755POPC   D2A65896   5.830  38.467   6.755
10755POPC   C3A65897   5.836  38.503   7.055
10755POPC   C4A65898   5.858  38.431   7.355
10755POPC   C1B65899   5.873  38.714   6.455
10755POPC   C2B65900   5.855  38.726   6.755
10755POPC   C3B65901   5.870  38.687   7.055
10755POPC   C4B65902   5.927  38.714   7.355
10756POPC   NC365903  36.158  16.708   5.555
10756POPC   PO465904  36.166  16.686   5.855
10756POPC   GL165905  36.134  16.703   6.155
10756POPC   GL265906  36.088  16.881   6.155
10756POPC   C1A65907  36.157  16.686   6.455
10756POPC   D2A65908  36.155  16.748   6.755
10756POPC   C3A65909  36.116  16.717   7.055
10756POPC   C4A65910  36.078  16.743   7.355
10756POPC   C1B65911  36.047  16.922   6.455
10756POPC   C2B65912  36.014  16.949   6.755
10756POPC   C3B65913  36.014  16.927   7.055
10756POPC   C4B65914  36.032  16.982   7.355
10757POPC   NC365915   7.456  29.882   5.555
10757POPC   PO465916   7.374  29.899   5.855
10757POPC   GL165917   7.469  29.939   6.155
10757POPC   GL265918   7.383  30.054   6.155
10757POPC   C1A65919   7.449  29.896   6.455
10757POPC   D2A65920   7.457  29.892   6.755
10757POPC   C3A65921   7.377  29.956   7.055
10757POPC   C4A65922   7.419  29.877   7.355
10757POPC   C1B65923   7.444  30.124   6.455
10757POPC   C2B65924   7.474  30.184   6.755
10757POPC   C3B65925   7.404  30.126   7.055
10757POPC   C4B65926   7.450  30.131   7.355
10758POPC   NC365927   3.550  21.396   5.555
10758POPC   PO465928   3.588  21.391   5.855
10758POPC   GL165929   3.590  21.407   6.155
10758POPC   GL265930   3.454  21.356   6.155
10758POPC   C1A65931   3.522  21.376   6.455
10758POPC   D2A65932   3.584  21.406   6.755
10758POPC   C3A65933   3.560  21.355   7.055
10758POPC   C4A65934   3.552  21.413   7.355
10758POPC   C1B65935   3.301  21.431   6.455
10758POPC   C2B65936   3.286  21.364   6.755
10758POPC   C3B65937   3.298  21.393   7.055
10758POPC   C4B65938   3.263  21.362   7.355
10759POPC   NC365939  13.611  24.517   5.555
10759POPC   PO465940  13.665  24.472   5.855
10759POPC   GL165941  13.599  24.508   6.155
10759POPC   GL265942  13.663  24.574   6.155
10759POPC   C1A65943  13.666  24.503   6.455
10759POPC   D2A65944  13.660  24.534   6.755
10759POPC   C3A65945  13.631  24.455   7.055
10759POPC   C4A65946  13.643  24.443   7.355
10759POPC   C1B65947  13.789  24.659   6.455
10759POPC   C2B65948  13.755  24.679   6.755
10759POPC   C3B65949  13.728  24.685   7.055
10759POPC   C4B65950  13.803  24.681   7.355
10760POPC   NC365951  22.934   8.195   5.555
10760POPC   PO465952  22.925   8.239   5.855
10760POPC   GL165953  22.979   8.237   6.155
10760POPC   GL265954  22.829   8.289   6.155
10760POPC   C1A65955  22.889   8.154   6.455
10760POPC   D2A65956  22.929   8.245   6.755
10760POPC   C3A65957  22.980   8.191   7.055
10760POPC   C4A65958  22.910   8.168   7.355
10760POPC   C1B65959  22.718   8.369   6.455
10760POPC   C2B65960  22.722   8.339   6.755
10760POPC   C3B65961  22.729   8.337   7.055
10760POPC   C4B65962  22.731   8.362   7.355
10761POPC   NC365963   2.746   5.078   5.555
10761POPC   PO465964   2.762   5.142   5.855
10761POPC   GL165965   2.742   5.120   6.155
10761POPC   GL265966   2.613   4.980   6.155
10761POPC   C1A65967   2.750   5.089   6.455
10761POPC   D2A65968   2.796   5.081   6.755
10761POPC   C3A65969   2.813   5.055   7.055
10761POPC   C4A65970   2.753   5.132   7.355
10761POPC   C1B65971   2.544   4.929   6.455
10761POPC   C2B65972   2.560   4.930   6.755
10761POPC   C3B65973   2.512   4.979   7.055
10761POPC   C4B65974   2.573   4.947   7.355
10762POPC   NC365975  23.705  11.324   5.555
10762POPC   PO465976  23.678  11.281   5.855
10762POPC   GL165977  23.687  11.318   6.155
10762POPC   GL265978  23.861  11.352   6.155
10762POPC   C1A65979  23.707  11.329   6.455
10762POPC   D2A65980  23.685  11.267   6.755
10762POPC   C3A65981  23.703  11.267   7.055
10762POPC   C4A65982  23.736  11.255   7.355
10762POPC   C1B65983  24.002  11.333   6.455
10762POPC   C2B65984  23.973  11.285   6.755
10762POPC   C3B65985  23.946  11.281   7.055
10762POPC   C4B65986  23.935  11.339   7.355
10763POPC   NC365987  15.143  25.229   5.555
10763POPC   PO465988  15.202  25.219   5.855
10763POPC   GL165989  15.220  25.290   6.155
10763POPC   GL265990  15.036  25.275   6.155
10763POPC   C1A65991  15.147  25.263   6.455
10763POPC   D2A65992  15.150  25.243   6.755
10763POPC   C3A65993  15.204  25.313   7.055
10763POPC   C4A65994  15.217  25.276   7.355
10763POPC   C1B65995  14.963  25.238   6.455
10763POPC   C2B65996  14.948  25.306   6.755
10763POPC   C3B65997  14.923  25.267   7.055
10763POPC   C4B65998  14.892  25.313   7.355
10764POPC   NC365999  25.228   9.752   5.555
10764POPC   PO466000  25.252   9.792   5.855
10764POPC   GL166001  25.237   9.795   6.155
10764POPC   GL266002  25.201   9.894   6.155
10764POPC   C1A66003  25.311   9.772   6.455
10764POPC   D2A66004  25.243   9.759   6.755
10764POPC   C3A66005  25.224   9.796   7.055
10764POPC   C4A66006  25.219   9.730   7.355
10764POPC   C1B66007  25.160   9.972   6.455
10764POPC   C2B66008  25.149  10.015   6.755
10764POPC   C3B66009  25.233   9.940   7.055
10764POPC   C4B66010  25.218  10.005   7.355
10765POPC   NC366011  43.100  19.829   5.555
10765POPC   PO466012  43.154  19.875   5.855
10765POPC   GL166013  43.115  19.792   6.155
10765POPC   GL266014  43.175  19.982   6.155
10765POPC   C1A66015  43.152  19.862   6.455
10765POPC   D2A66016  43.063  19.859   6.755
10765POPC   C3A66017  43.095  19.851   7.055
10765POPC   C4A66018  43.067  19.845   7.355
10765POPC   C1B66019  43.224  20.078   6.455
10765POPC   C2B66020  43.238  20.078   6.755
10765POPC   C3B66021  43.233  20.088   7.055
10765POPC   C4B66022  43.218  20.039   7.355
10766POPC   NC366023   5.854   3.519   5.555
10766POPC   PO466024   5.898   3.563   5.855
10766POPC   GL166025   5.827   3.530   6.155
10766POPC   GL266026   5.793   3.536   6.155
10766POPC   C1A66027   5.908   3.502   6.455
10766POPC   D2A66028   5.873   3.567   6.755
10766POPC   C3A66029   5.865   3.558   7.055
10766POPC   C4A66030   5.908   3.549   7.355
10766POPC   C1B66031   5.636   3.568   6.455
10766POPC   C2B66032   5.590   3.587   6.755
10766POPC   C3B66033   5.582   3.624   7.055
10766POPC   C4B66034   5.615   3.582   7.355
10767POPC   NC366035   1.972  40.734   5.555
10767POPC   PO466036   1.966  40.756   5.855
10767POPC   GL166037   1.996  40.831   6.155
10767POPC   GL266038   2.112  40.735   6.155
10767POPC   C1A66039   2.029  40.749   6.455
10767POPC   D2A66040   1.981  40.749   6.755
10767POPC   C3A66041   1.998  40.827   7.055
10767POPC   C4A66042   2.009  40.768   7.355
10767POPC   C1B66043   2.253  40.652   6.455
10767POPC   C2B66044   2.224  40.622   6.755
10767POPC   C3B66045   2.188  40.692   7.055
10767POPC   C4B66046   2.171  40.660   7.355
10768POPC   NC366047  24.456  43.130   5.555
10768POPC   PO466048  24.486  43.124   5.855
10768POPC   GL166049  24.487  43.140   6.155
10768POPC   GL266050  24.584  43.078   6.155
10768POPC   C1A66051  24.533  43.153   6.455
10768POPC   D2A66052  24.485  43.081   6.755
10768POPC   C3A66053  24.458  43.074   7.055
10768POPC   C4A66054  24.539  43.117   7.355
10768POPC   C1B66055  24.749  43.069   6.455
10768POPC   C2B66056  24.703  43.058   6.755
10768POPC   C3B66057  24.743  43.048   7.055
10768POPC   C4B66058  24.691  43.090   7.355
10769POPC   NC366059  30.661  16.769   5.555
10769POPC   PO466060  30.648  16.723   5.855
10769POPC   GL166061  30.665  16.739   6.155
10769POPC   GL266062  30.658  16.883   6.155
10769POPC   C1A66063  30.684  16.713   6.455
10769POPC   D2A66064  30.715  16.692   6.755
10769POPC   C3A66065  30.709  16.761   7.055
10769POPC   C4A66066  30.648  16.724   7.355
10769POPC   C1B66067  30.661  17.002   6.455
10769POPC   C2B66068  30.635  16.963   6.755
10769POPC   C3B66069  30.657  16.988   7.055
10769POPC   C4B66070  30.672  16.938   7.355
10770POPC   NC366071  32.292  28.347   5.555
10770POPC   PO466072  32.235  28.384   5.855
10770POPC   GL166073  32.289  28.399   6.155
10770POPC   GL266074  32.164  28.341   6.155
10770POPC   C1A66075  32.221  28.380   6.455
10770POPC   D2A66076  32.280  28.413   6.755
10770POPC   C3A66077  32.237  28.379   7.055
10770POPC   C4A66078  32.204  28.357   7.355
10770POPC   C1B66079  31.993  28.269   6.455
10770POPC   C2B66080  31.999  28.214   6.755
10770POPC   C3B66081  31.985  28.215   7.055
10770POPC   C4B66082  32.019  28.228   7.355
10771POPC   NC366083  43.851   4.304   5.555
10771POPC   PO466084  43.909   4.313   5.855
10771POPC   GL166085  43.866   4.315   6.155
10771POPC   GL266086  44.025   4.231   6.155
10771POPC   C1A66087  43.911   4.305   6.455
10771POPC   D2A66088  43.920   4.274   6.755
10771POPC   C3A66089  43.922   4.322   7.055
10771POPC   C4A66090  43.864   4.286   7.355
10771POPC   C1B66091  44.124   4.200   6.455
10771POPC   C2B66092  44.115   4.155   6.755
10771POPC   C3B66093  44.047   4.134   7.055
10771POPC   C4B66094  44.083   4.146   7.355
10772POPC   NC366095  43.912  30.667   5.555
10772POPC   PO466096  43.836  30.678   5.855
10772POPC   GL166097  43.840  30.710   6.155
10772POPC   GL266098  43.712  30.706   6.155
10772POPC   C1A66099  43.880  30.677   6.455
10772POPC   D2A66100  43.913  30.715   6.755
10772POPC   C3A66101  43.857  30.715   7.055
10772POPC   C4A66102  43.863  30.674   7.355
10772POPC   C1B66103  43.665  30.694   6.455
10772POPC   C2B66104  43.684  30.715   6.755
10772POPC   C3B66105  43.665  30.699   7.055
10772POPC   C4B66106  43.659  30.755   7.355
10773POPC   NC366107  20.572  26.023   5.555
10773POPC   PO466108  20.563  26.090   5.855
10773POPC   GL166109  20.589  25.994   6.155
10773POPC   GL266110  20.721  25.914   6.155
10773POPC   C1A66111  20.648  26.045   6.455
10773POPC   D2A66112  20.597  25.997   6.755
10773POPC   C3A66113  20.571  26.017   7.055
10773POPC   C4A66114  20.589  26.080   7.355
10773POPC   C1B66115  20.784  25.888   6.455
10773POPC   C2B66116  20.743  25.856   6.755
10773POPC   C3B66117  20.788  25.885   7.055
10773POPC   C4B66118  20.740  25.842   7.355
10774POPC   NC366119  44.684   8.185   5.555
10774POPC   PO466120  44.708   8.219   5.855
10774POPC   GL166121  44.678   8.191   6.155
10774POPC   GL266122  44.636   8.335   6.155
10774POPC   C1A66123  44.665   8.173   6.455
10774POPC   D2A66124  44.649   8.199   6.755
10774POPC   C3A66125  44.705   8.148   7.055
10774POPC   C4A66126  44.650   8.235   7.355
10774POPC   C1B66127  44.548   8.390   6.455
10774POPC   C2B66128  44.542   8.382   6.755
10774POPC   C3B66129  44.535   8.454   7.055
10774POPC   C4B66130  44.603   8.372   7.355
10775POPC   NC366131   5.859  39.214   5.555
10775POPC   PO466132   5.848  39.188   5.855
10775POPC   GL166133   5.881  39.248   6.155
10775POPC   GL266134   5.917  39.186   6.155
10775POPC   C1A66135   5.906  39.237   6.455
10775POPC   D2A66136   5.828  39.257   6.755
10775POPC   C3A66137   5.890  39.220   7.055
10775POPC   C4A66138   5.890  39.218   7.355
10775POPC   C1B66139   6.068  39.064   6.455
10775POPC   C2B66140   6.006  39.040   6.755
10775POPC   C3B66141   6.001  39.045   7.055
10775POPC   C4B66142   6.030  39.075   7.355
10776POPC   NC366143  19.816  44.677   5.555
10776POPC   PO466144  19.883  44.706   5.855
10776POPC   GL166145  19.837  44.621   6.155
10776POPC   GL266146  19.931  44.564   6.155
10776POPC   C1A66147  19.866  44.683   6.455
10776POPC   D2A66148  19.805  44.688   6.755
10776POPC   C3A66149  19.805  44.679   7.055
10776POPC   C4A66150  19.826  44.653   7.355
10776POPC   C1B66151  19.954  44.410   6.455
10776POPC   C2B66152  19.938  44.463   6.755
10776POPC   C3B66153  19.939  44.415   7.055
10776POPC   C4B66154  19.934  44.470   7.355
10777POPC   NC366155   9.727  17.541   5.555
10777POPC   PO466156   9.745  17.473   5.855
10777POPC   GL166157   9.770  17.539   6.155
10777POPC   GL266158   9.894  17.511   6.155
10777POPC   C1A66159   9.756  17.481   6.455
10777POPC   D2A66160   9.735  17.518   6.755
10777POPC   C3A66161   9.749  17.479   7.055
10777POPC   C4A66162   9.761  17.530   7.355
10777POPC   C1B66163  10.030  17.561   6.455
10777POPC   C2B66164   9.966  17.540   6.755
10777POPC   C3B66165   9.994  17.534   7.055
10777POPC   C4B66166  10.030  17.592   7.355
10778POPC   NC366167   3.589  24.534   5.555
10778POPC   PO466168   3.528  24.539   5.855
10778POPC   GL166169   3.513  24.531   6.155
10778POPC   GL266170   3.430  24.575   6.155
10778POPC   C1A66171   3.497  24.479   6.455
10778POPC   D2A66172   3.590  24.536   6.755
10778POPC   C3A66173   3.538  24.471   7.055
10778POPC   C4A66174   3.513  24.457   7.355
10778POPC   C1B66175   3.383  24.619   6.455
10778POPC   C2B66176   3.336  24.686   6.755
10778POPC   C3B66177   3.335  24.608   7.055
10778POPC   C4B66178   3.304  24.615   7.355
10779POPC   NC366179   8.956  29.133   5.555
10779POPC   PO466180   8.934  29.102   5.855
10779POPC   GL166181   9.011  29.124   6.155
10779POPC   GL266182   8.972  29.235   6.155
10779POPC   C1A66183   8.927  29.157   6.455
10779POPC   D2A66184   8.936  29.131   6.755
10779POPC   C3A66185   8.939  29.156   7.055
10779POPC   C4A66186   9.007  29.161   7.355
10779POPC   C1B66187   8.836  29.349   6.455
10779POPC   C2B66188   8.931  29.411   6.755
10779POPC   C3B66189   8.870  29.361   7.055
10779POPC   C4B66190   8.845  29.357   7.355
10780POPC   NC366191  39.265  12.067   5.555
10780POPC   PO466192  39.243  12.113   5.855
10780POPC   GL166193  39.270  12.054   6.155
10780POPC   GL266194  39.293  12.239   6.155
10780POPC   C1A66195  39.203  12.051   6.455
10780POPC   D2A66196  39.232  12.053   6.755
10780POPC   C3A66197  39.257  12.102   7.055
10780POPC   C4A66198  39.225  12.091   7.355
10780POPC   C1B66199  39.306  12.358   6.455
10780POPC   C2B66200  39.238  12.298   6.755
10780POPC   C3B66201  39.261  12.358   7.055
10780POPC   C4B66202  39.253  12.303   7.355
10781POPC   NC366203  41.537  23.699   5.555
10781POPC   PO466204  41.579  23.762   5.855
10781POPC   GL166205  41.575  23.680   6.155
10781POPC   GL266206  41.608  23.564   6.155
10781POPC   C1A66207  41.524  23.669   6.455
10781POPC   D2A66208  41.559  23.738   6.755
10781POPC   C3A66209  41.588  23.687   7.055
10781POPC   C4A66210  41.578  23.691   7.355
10781POPC   C1B66211  41.708  23.537   6.455
10781POPC   C2B66212  41.692  23.536   6.755
10781POPC   C3B66213  41.663  23.475   7.055
10781POPC   C4B66214  41.681  23.471   7.355
10782POPC   NC366215  34.536  32.284   5.555
10782POPC   PO466216  34.578  32.264   5.855
10782POPC   GL166217  34.613  32.235   6.155
10782POPC   GL266218  34.596  32.136   6.155
10782POPC   C1A66219  34.561  32.258   6.455
10782POPC   D2A66220  34.547  32.272   6.755
10782POPC   C3A66221  34.561  32.215   7.055
10782POPC   C4A66222  34.543  32.278   7.355
10782POPC   C1B66223  34.522  32.045   6.455
10782POPC   C2B66224  34.578  32.048   6.755
10782POPC   C3B66225  34.528  32.033   7.055
10782POPC   C4B66226  34.582  31.986   7.355
10783POPC   NC366227  43.089   6.693   5.555
10783POPC   PO466228  43.083   6.657   5.855
10783POPC   GL166229  43.065   6.647   6.155
10783POPC   GL266230  43.036   6.744   6.155
10783POPC   C1A66231  43.117   6.659   6.455
10783POPC   D2A66232  43.101   6.620   6.755
10783POPC   C3A66233  43.115   6.624   7.055
10783POPC   C4A66234  43.134   6.597   7.355
10783POPC   C1B66235  42.983   6.890   6.455
10783POPC   C2B66236  42.971   6.846   6.755
10783POPC   C3B66237  42.947   6.893   7.055
10783POPC   C4B66238  43.020   6.901   7.355
10784POPC   NC366239  12.077  37.713   5.555
10784POPC   PO466240  12.038  37.725   5.855
10784POPC   GL166241  12.116  37.683   6.155
10784POPC   GL266242  12.100  37.558   6.155
10784POPC   C1A66243  12.065  37.718   6.455
10784POPC   D2A66244  12.081  37.727   6.755
10784POPC   C3A66245  12.117  37.692   7.055
10784POPC   C4A66246  12.030  37.654   7.355
10784POPC   C1B66247  12.045  37.430   6.455
10784POPC   C2B66248  12.120  37.403   6.755
10784POPC   C3B66249  12.090  37.415   7.055
10784POPC   C4B66250  12.061  37.405   7.355
10785POPC   NC366251  33.771  32.977   5.555
10785POPC   PO466252  33.814  32.985   5.855
10785POPC   GL166253  33.759  32.992   6.155
10785POPC   GL266254  33.740  33.110   6.155
10785POPC   C1A66255  33.821  33.042   6.455
10785POPC   D2A66256  33.802  33.007   6.755
10785POPC   C3A66257  33.790  33.051   7.055
10785POPC   C4A66258  33.810  33.020   7.355
10785POPC   C1B66259  33.711  33.283   6.455
10785POPC   C2B66260  33.746  33.281   6.755
10785POPC   C3B66261  33.723  33.244   7.055
10785POPC   C4B66262  33.757  33.300   7.355
10786POPC   NC366263  19.825  43.920   5.555
10786POPC   PO466264  19.865  43.872   5.855
10786POPC   GL166265  19.842  43.908   6.155
10786POPC   GL266266  19.928  43.910   6.155
10786POPC   C1A66267  19.798  43.907   6.455
10786POPC   D2A66268  19.867  43.877   6.755
10786POPC   C3A66269  19.855  43.884   7.055
10786POPC   C4A66270  19.855  43.917   7.355
10786POPC   C1B66271  20.017  43.954   6.455
10786POPC   C2B66272  20.075  43.993   6.755
10786POPC   C3B66273  20.076  44.017   7.055
10786POPC   C4B66274  20.108  44.018   7.355
10787POPC   NC366275  11.287  40.784   5.555
10787POPC   PO466276  11.315  40.778   5.855
10787POPC   GL166277  11.337  40.764   6.155
10787POPC   GL266278  11.233  40.718   6.155
10787POPC   C1A66279  11.288  40.826   6.455
10787POPC   D2A66280  11.315  40.763   6.755
10787POPC   C3A66281  11.254  40.775   7.055
10787POPC   C4A66282  11.293  40.775   7.355
10787POPC   C1B66283  11.069  40.670   6.455
10787POPC   C2B66284  11.088  40.611   6.755
10787POPC   C3B66285  11.091  40.611   7.055
10787POPC   C4B66286  11.080  40.680   7.355
10788POPC   NC366287  27.587  12.865   5.555
10788POPC   PO466288  27.597  12.892   5.855
10788POPC   GL166289  27.547  12.850   6.155
10788POPC   GL266290  27.557  12.737   6.155
10788POPC   C1A66291  27.637  12.879   6.455
10788POPC   D2A66292  27.608  12.849   6.755
10788POPC   C3A66293  27.556  12.857   7.055
10788POPC   C4A66294  27.625  12.809   7.355
10788POPC   C1B66295  27.527  12.597   6.455
10788POPC   C2B66296  27.476  12.611   6.755
10788POPC   C3B66297  27.512  12.649   7.055
10788POPC   C4B66298  27.526  12.632   7.355
10789POPC   NC366299   5.839  32.996   5.555
10789POPC   PO466300   5.852  33.022   5.855
10789POPC   GL166301   5.835  33.029   6.155
10789POPC   GL266302   6.007  32.915   6.155
10789POPC   C1A66303   5.873  33.016   6.455
10789POPC   D2A66304   5.898  33.018   6.755
10789POPC   C3A66305   5.880  33.008   7.055
10789POPC   C4A66306   5.918  32.985   7.355
10789POPC   C1B66307   6.071  32.862   6.455
10789POPC   C2B66308   6.087  32.913   6.755
10789POPC   C3B66309   6.128  32.919   7.055
10789POPC   C4B66310   6.113  32.928   7.355
10790POPC   NC366311  44.708   8.955   5.555
10790POPC   PO466312  44.614   8.932   5.855
10790POPC   GL166313  44.697   8.930   6.155
10790POPC   GL266314  44.531   8.880   6.155
10790POPC   C1A66315  44.684   9.008   6.455
10790POPC   D2A66316  44.656   8.938   6.755
10790POPC   C3A66317  44.613   8.995   7.055
10790POPC   C4A66318  44.615   9.006   7.355
10790POPC   C1B66319  44.469   8.825   6.455
10790POPC   C2B66320  44.473   8.834   6.755
10790POPC   C3B66321  44.459   8.861   7.055
10790POPC   C4B66322  44.445   8.788   7.355
10791POPC   NC366323   1.234   4.317   5.555
10791POPC   PO466324   1.193   4.324   5.855
10791POPC   GL166325   1.176   4.287   6.155
10791POPC   GL266326   1.189   4.209   6.155
10791POPC   C1A66327   1.168   4.295   6.455
10791POPC   D2A66328   1.169   4.268   6.755
10791POPC   C3A66329   1.175   4.279   7.055
10791POPC   C4A66330   1.175   4.364   7.355
10791POPC   C1B66331   1.168   4.040   6.455
10791POPC   C2B66332   1.151   4.032   6.755
10791POPC   C3B66333   1.166   4.103   7.055
10791POPC   C4B66334   1.121   4.061   7.355
10792POPC   NC366335   8.202  19.791   5.555
10792POPC   PO466336   8.241  19.819   5.855
10792POPC   GL166337   8.245  19.852   6.155
10792POPC   GL266338   8.315  19.788   6.155
10792POPC   C1A66339   8.219  19.787   6.455
10792POPC   D2A66340   8.157  19.813   6.755
10792POPC   C3A66341   8.207  19.847   7.055
10792POPC   C4A66342   8.177  19.865   7.355
10792POPC   C1B66343   8.411  19.760   6.455
10792POPC   C2B66344   8.447  19.764   6.755
10792POPC   C3B66345   8.395  19.768   7.055
10792POPC   C4B66346   8.409  19.784   7.355
10793POPC   NC366347  44.668  43.846   5.555
10793POPC   PO466348  44.657  43.924   5.855
10793POPC   GL166349  44.691  43.855   6.155
10793POPC   GL266350  44.575  43.950   6.155
10793POPC   C1A66351  44.636  43.848   6.455
10793POPC   D2A66352  44.621  43.869   6.755
10793POPC   C3A66353  44.680  43.858   7.055
10793POPC   C4A66354  44.625  43.909   7.355
10793POPC   C1B66355  44.566  44.062   6.455
10793POPC   C2B66356  44.492  44.066   6.755
10793POPC   C3B66357  44.483  44.112   7.055
10793POPC   C4B66358  44.569  44.074   7.355
10794POPC   NC366359  36.891  39.215   5.555
10794POPC   PO466360  36.936  39.272   5.855
10794POPC   GL166361  36.939  39.250   6.155
10794POPC   GL266362  36.838  39.076   6.155
10794POPC   C1A66363  36.860  39.234   6.455
10794POPC   D2A66364  36.914  39.187   6.755
10794POPC   C3A66365  36.889  39.240   7.055
10794POPC   C4A66366  36.923  39.208   7.355
10794POPC   C1B66367  36.907  39.016   6.455
10794POPC   C2B66368  36.838  39.020   6.755
10794POPC   C3B66369  36.887  39.003   7.055
10794POPC   C4B66370  36.849  39.022   7.355
10795POPC   NC366371  39.979  29.112   5.555
10795POPC   PO466372  40.031  29.146   5.855
10795POPC   GL166373  40.019  29.187   6.155
10795POPC   GL266374  40.066  29.040   6.155
10795POPC   C1A66375  40.037  29.192   6.455
10795POPC   D2A66376  40.022  29.141   6.755
10795POPC   C3A66377  40.021  29.124   7.055
10795POPC   C4A66378  40.024  29.141   7.355
10795POPC   C1B66379  40.152  28.891   6.455
10795POPC   C2B66380  40.174  28.946   6.755
10795POPC   C3B66381  40.129  28.908   7.055
10795POPC   C4B66382  40.114  28.984   7.355
10796POPC   NC366383  26.785  40.768   5.555
10796POPC   PO466384  26.830  40.770   5.855
10796POPC   GL166385  26.800  40.755   6.155
10796POPC   GL266386  26.690  40.695   6.155
10796POPC   C1A66387  26.801  40.735   6.455
10796POPC   D2A66388  26.778  40.748   6.755
10796POPC   C3A66389  26.856  40.820   7.055
10796POPC   C4A66390  26.861  40.789   7.355
10796POPC   C1B66391  26.592  40.661   6.455
10796POPC   C2B66392  26.565  40.742   6.755
10796POPC   C3B66393  26.603  40.659   7.055
10796POPC   C4B66394  26.600  40.704   7.355
10797POPC   NC366395  15.969  37.715   5.555
10797POPC   PO466396  15.982  37.638   5.855
10797POPC   GL166397  15.949  37.638   6.155
10797POPC   GL266398  16.043  37.747   6.155
10797POPC   C1A66399  15.912  37.663   6.455
10797POPC   D2A66400  15.955  37.707   6.755
10797POPC   C3A66401  15.993  37.664   7.055
10797POPC   C4A66402  15.941  37.660   7.355
10797POPC   C1B66403  16.131  37.836   6.455
10797POPC   C2B66404  16.141  37.863   6.755
10797POPC   C3B66405  16.184  37.889   7.055
10797POPC   C4B66406  16.174  37.821   7.355
10798POPC   NC366407  39.987  41.584   5.555
10798POPC   PO466408  40.011  41.601   5.855
10798POPC   GL166409  39.977  41.583   6.155
10798POPC   GL266410  40.127  41.551   6.155
10798POPC   C1A66411  40.031  41.582   6.455
10798POPC   D2A66412  40.034  41.515   6.755
10798POPC   C3A66413  40.048  41.579   7.055
10798POPC   C4A66414  39.995  41.574   7.355
10798POPC   C1B66415  40.213  41.504   6.455
10798POPC   C2B66416  40.279  41.480   6.755
10798POPC   C3B66417  40.216  41.513   7.055
10798POPC   C4B66418  40.237  41.525   7.355
10799POPC   NC366419  30.672  29.176   5.555
10799POPC   PO466420  30.738  29.154   5.855
10799POPC   GL166421  30.659  29.140   6.155
10799POPC   GL266422  30.607  29.151   6.155
10799POPC   C1A66423  30.670  29.127   6.455
10799POPC   D2A66424  30.727  29.127   6.755
10799POPC   C3A66425  30.698  29.137   7.055
10799POPC   C4A66426  30.724  29.126   7.355
10799POPC   C1B66427  30.467  29.199   6.455
10799POPC   C2B66428  30.419  29.139   6.755
10799POPC   C3B66429  30.408  29.126   7.055
10799POPC   C4B66430  30.456  29.147   7.355
10800POPC   NC366431  20.611   1.994   5.555
10800POPC   PO466432  20.602   1.967   5.855
10800POPC   GL166433  20.655   1.953   6.155
10800POPC   GL266434  20.711   2.009   6.155
10800POPC   C1A66435  20.625   1.953   6.455
10800POPC   D2A66436  20.611   1.992   6.755
10800POPC   C3A66437  20.643   2.032   7.055
10800POPC   C4A66438  20.643   2.026   7.355
10800POPC   C1B66439  20.852   2.120   6.455
10800POPC   C2B66440  20.863   2.075   6.755
10800POPC   C3B66441  20.849   2.076   7.055
10800POPC   C4B66442  20.792   2.130   7.355
10801POPC   NC366443  13.674  30.699   5.555
10801POPC   PO466444  13.595  30.729   5.855
10801POPC   GL166445  13.589  30.698   6.155
10801POPC   GL266446  13.560  30.776   6.155
10801POPC   C1A66447  13.587  30.649   6.455
10801POPC   D2A66448  13.593  30.693   6.755
10801POPC   C3A66449  13.590  30.670   7.055
10801POPC   C4A66450  13.627  30.697   7.355
10801POPC   C1B66451  13.374  30.776   6.455
10801POPC   C2B66452  13.452  30.854   6.755
10801POPC   C3B66453  13.400  30.804   7.055
10801POPC   C4B66454  13.450  30.838   7.355
10802POPC   NC366455  43.079  25.288   5.555
10802POPC   PO466456  43.101  25.223   5.855
10802POPC   GL166457  43.104  25.265   6.155
10802POPC   GL266458  43.145  25.134   6.155
10802POPC   C1A66459  43.133  25.267   6.455
10802POPC   D2A66460  43.090  25.236   6.755
10802POPC   C3A66461  43.078  25.292   7.055
10802POPC   C4A66462  43.105  25.252   7.355
10802POPC   C1B66463  43.097  25.009   6.455
10802POPC   C2B66464  43.112  24.996   6.755
10802POPC   C3B66465  43.100  24.981   7.055
10802POPC   C4B66466  43.127  24.993   7.355
10803POPC   NC366467  10.547  36.120   5.555
10803POPC   PO466468  10.514  36.093   5.855
10803POPC   GL166469  10.534  36.118   6.155
10803POPC   GL266470  10.406  36.147   6.155
10803POPC   C1A66471  10.573  36.139   6.455
10803POPC   D2A66472  10.558  36.161   6.755
10803POPC   C3A66473  10.556  36.139   7.055
10803POPC   C4A66474  10.491  36.121   7.355
10803POPC   C1B66475  10.322  36.201   6.455
10803POPC   C2B66476  10.316  36.167   6.755
10803POPC   C3B66477  10.230  36.126   7.055
10803POPC   C4B66478  10.317  36.143   7.355
10804POPC   NC366479  13.606  21.410   5.555
10804POPC   PO466480  13.664  21.427   5.855
10804POPC   GL166481  13.631  21.355   6.155
10804POPC   GL266482  13.707  21.396   6.155
10804POPC   C1A66483  13.666  21.348   6.455
10804POPC   D2A66484  13.667  21.412   6.755
10804POPC   C3A66485  13.649  21.420   7.055
10804POPC   C4A66486  13.624  21.345   7.355
10804POPC   C1B66487  13.881  21.492   6.455
10804POPC   C2B66488  13.839  21.474   6.755
10804POPC   C3B66489  13.816  21.477   7.055
10804POPC   C4B66490  13.829  21.462   7.355
10805POPC   NC366491   8.170  12.031   5.555
10805POPC   PO466492   8.171  12.107   5.855
10805POPC   GL166493   8.219  12.031   6.155
10805POPC   GL266494   8.306  12.161   6.155
10805POPC   C1A66495   8.174  12.053   6.455
10805POPC   D2A66496   8.157  12.058   6.755
10805POPC   C3A66497   8.169  12.106   7.055
10805POPC   C4A66498   8.183  12.050   7.355
10805POPC   C1B66499   8.369  12.212   6.455
10805POPC   C2B66500   8.348  12.205   6.755
10805POPC   C3B66501   8.424  12.231   7.055
10805POPC   C4B66502   8.391  12.251   7.355
10806POPC   NC366503  11.329  35.319   5.555
10806POPC   PO466504  11.349  35.310   5.855
10806POPC   GL166505  11.275  35.322   6.155
10806POPC   GL266506  11.197  35.283   6.155
10806POPC   C1A66507  11.262  35.379   6.455
10806POPC   D2A66508  11.310  35.319   6.755
10806POPC   C3A66509  11.291  35.379   7.055
10806POPC   C4A66510  11.328  35.347   7.355
10806POPC   C1B66511  11.113  35.253   6.455
10806POPC   C2B66512  11.086  35.278   6.755
10806POPC   C3B66513  11.058  35.236   7.055
10806POPC   C4B66514  11.082  35.250   7.355
10807POPC   NC366515   5.919  41.525   5.555
10807POPC   PO466516   5.830  41.578   5.855
10807POPC   GL166517   5.891  41.594   6.155
10807POPC   GL266518   5.729  41.593   6.155
10807POPC   C1A66519   5.888  41.519   6.455
10807POPC   D2A66520   5.916  41.561   6.755
10807POPC   C3A66521   5.861  41.510   7.055
10807POPC   C4A66522   5.881  41.580   7.355
10807POPC   C1B66523   5.623  41.683   6.455
10807POPC   C2B66524   5.646  41.720   6.755
10807POPC   C3B66525   5.634  41.723   7.055
10807POPC   C4B66526   5.679  41.650   7.355
10808POPC   NC366527  35.398   0.424   5.555
10808POPC   PO466528  35.337   0.401   5.855
10808POPC   GL166529  35.354   0.388   6.155
10808POPC   GL266530  35.461   0.576   6.155
10808POPC   C1A66531  35.352   0.428   6.455
10808POPC   D2A66532  35.373   0.485   6.755
10808POPC   C3A66533  35.388   0.433   7.055
10808POPC   C4A66534  35.326   0.434   7.355
10808POPC   C1B66535  35.510   0.674   6.455
10808POPC   C2B66536  35.527   0.616   6.755
10808POPC   C3B66537  35.483   0.646   7.055
10808POPC   C4B66538  35.476   0.641   7.355
10809POPC   NC366539   8.926  19.093   5.555
10809POPC   PO466540   8.964  19.082   5.855
10809POPC   GL166541   8.994  19.075   6.155
10809POPC   GL266542   8.821  19.043   6.155
10809POPC   C1A66543   9.008  19.016   6.455
10809POPC   D2A66544   8.933  19.072   6.755
10809POPC   C3A66545   9.001  19.086   7.055
10809POPC   C4A66546   8.937  19.098   7.355
10809POPC   C1B66547   8.729  19.015   6.455
10809POPC   C2B66548   8.767  19.067   6.755
10809POPC   C3B66549   8.731  19.033   7.055
10809POPC   C4B66550   8.749  19.054   7.355
10810POPC   NC366551  13.628  33.803   5.555
10810POPC   PO466552  13.658  33.756   5.855
10810POPC   GL166553  13.614  33.801   6.155
10810POPC   GL266554  13.551  33.777   6.155
10810POPC   C1A66555  13.649  33.760   6.455
10810POPC   D2A66556  13.622  33.821   6.755
10810POPC   C3A66557  13.669  33.780   7.055
10810POPC   C4A66558  13.649  33.828   7.355
10810POPC   C1B66559  13.401  33.689   6.455
10810POPC   C2B66560  13.378  33.660   6.755
10810POPC   C3B66561  13.435  33.666   7.055
10810POPC   C4B66562  13.386  33.658   7.355
10811POPC   NC366563  10.481  38.504   5.555
10811POPC   PO466564  10.562  38.414   5.855
10811POPC   GL166565  10.521  38.448   6.155
10811POPC   GL266566  10.370  38.505   6.155
10811POPC   C1A66567  10.495  38.480   6.455
10811POPC   D2A66568  10.517  38.450   6.755
10811POPC   C3A66569  10.492  38.423   7.055
10811POPC   C4A66570  10.546  38.433   7.355
10811POPC   C1B66571  10.269  38.593   6.455
10811POPC   C2B66572  10.337  38.558   6.755
10811POPC   C3B66573  10.346  38.558   7.055
10811POPC   C4B66574  10.333  38.578   7.355
10812POPC   NC366575  20.578  16.743   5.555
10812POPC   PO466576  20.618  16.736   5.855
10812POPC   GL166577  20.614  16.719   6.155
10812POPC   GL266578  20.545  16.704   6.155
10812POPC   C1A66579  20.633  16.774   6.455
10812POPC   D2A66580  20.650  16.702   6.755
10812POPC   C3A66581  20.618  16.705   7.055
10812POPC   C4A66582  20.579  16.683   7.355
10812POPC   C1B66583  20.406  16.595   6.455
10812POPC   C2B66584  20.390  16.590   6.755
10812POPC   C3B66585  20.402  16.584   7.055
10812POPC   C4B66586  20.407  16.633   7.355
10813POPC   NC366587   5.083  19.057   5.555
10813POPC   PO466588   5.102  19.032   5.855
10813POPC   GL166589   5.132  19.018   6.155
10813POPC   GL266590   4.959  18.923   6.155
10813POPC   C1A66591   5.079  19.010   6.455
10813POPC   D2A66592   5.123  19.048   6.755
10813POPC   C3A66593   5.128  19.080   7.055
10813POPC   C4A66594   5.056  19.075   7.355
10813POPC   C1B66595   4.956  18.875   6.455
10813POPC   C2B66596   4.902  18.871   6.755
10813POPC   C3B66597   4.938  18.852   7.055
10813POPC   C4B66598   4.906  18.890   7.355
10814POPC   NC366599  35.382  29.177   5.555
10814POPC   PO466600  35.316  29.150   5.855
10814POPC   GL166601  35.345  29.098   6.155
10814POPC   GL266602  35.306  29.226   6.155
10814POPC   C1A66603  35.318  29.152   6.455
10814POPC   D2A66604  35.338  29.132   6.755
10814POPC   C3A66605  35.402  29.095   7.055
10814POPC   C4A66606  35.382  29.141   7.355
10814POPC   C1B66607  35.284  29.378   6.455
10814POPC   C2B66608  35.296  29.409   6.755
10814POPC   C3B66609  35.321  29.351   7.055
10814POPC   C4B66610  35.292  29.390   7.355
10815POPC   NC366611  27.642  21.392   5.555
10815POPC   PO466612  27.608  21.343   5.855
10815POPC   GL166613  27.613  21.386   6.155
10815POPC   GL266614  27.652  21.344   6.155
10815POPC   C1A66615  27.587  21.413   6.455
10815POPC   D2A66616  27.568  21.353   6.755
10815POPC   C3A66617  27.549  21.373   7.055
10815POPC   C4A66618  27.601  21.369   7.355
10815POPC   C1B66619  27.782  21.197   6.455
10815POPC   C2B66620  27.765  21.202   6.755
10815POPC   C3B66621  27.830  21.271   7.055
10815POPC   C4B66622  27.778  21.187   7.355
10816POPC   NC366623  29.099  39.201   5.555
10816POPC   PO466624  29.183  39.266   5.855
10816POPC   GL166625  29.124  39.232   6.155
10816POPC   GL266626  29.252  39.283   6.155
10816POPC   C1A66627  29.128  39.193   6.455
10816POPC   D2A66628  29.170  39.194   6.755
10816POPC   C3A66629  29.153  39.202   7.055
10816POPC   C4A66630  29.115  39.226   7.355
10816POPC   C1B66631  29.397  39.210   6.455
10816POPC   C2B66632  29.400  39.249   6.755
10816POPC   C3B66633  29.393  39.263   7.055
10816POPC   C4B66634  29.411  39.285   7.355
10817POPC   NC366635  26.034   8.200   5.555
10817POPC   PO466636  26.050   8.154   5.855
10817POPC   GL166637  26.073   8.216   6.155
10817POPC   GL266638  26.088   8.343   6.155
10817POPC   C1A66639  25.995   8.170   6.455
10817POPC   D2A66640  26.041   8.233   6.755
10817POPC   C3A66641  26.050   8.246   7.055
10817POPC   C4A66642  26.043   8.231   7.355
10817POPC   C1B66643  26.168   8.430   6.455
10817POPC   C2B66644  26.137   8.383   6.755
10817POPC   C3B66645  26.187   8.379   7.055
10817POPC   C4B66646  26.153   8.378   7.355
10818POPC   NC366647   8.948  22.189   5.555
10818POPC   PO466648   8.979  22.161   5.855
10818POPC   GL166649   9.008  22.201   6.155
10818POPC   GL266650   9.037  22.067   6.155
10818POPC   C1A66651   8.970  22.164   6.455
10818POPC   D2A66652   9.022  22.190   6.755
10818POPC   C3A66653   8.939  22.200   7.055
10818POPC   C4A66654   8.976  22.169   7.355
10818POPC   C1B66655   9.142  21.972   6.455
10818POPC   C2B66656   9.217  22.028   6.755
10818POPC   C3B66657   9.152  21.986   7.055
10818POPC   C4B66658   9.120  22.052   7.355
10819POPC   NC366659  39.193  20.573   5.555
10819POPC   PO466660  39.256  20.576   5.855
10819POPC   GL166661  39.230  20.655   6.155
10819POPC   GL266662  39.399  20.668   6.155
10819POPC   C1A66663  39.253  20.580   6.455
10819POPC   D2A66664  39.239  20.576   6.755
10819POPC   C3A66665  39.263  20.631   7.055
10819POPC   C4A66666  39.214  20.650   7.355
10819POPC   C1B66667  39.423  20.711   6.455
10819POPC   C2B66668  39.491  20.662   6.755
10819POPC   C3B66669  39.458  20.728   7.055
10819POPC   C4B66670  39.475  20.673   7.355
10820POPC   NC366671  12.890  19.811   5.555
10820POPC   PO466672  12.838  19.878   5.855
10820POPC   GL166673  12.902  19.827   6.155
10820POPC   GL266674  12.886  19.976   6.155
10820POPC   C1A66675  12.811  19.814   6.455
10820POPC   D2A66676  12.819  19.822   6.755
10820POPC   C3A66677  12.839  19.858   7.055
10820POPC   C4A66678  12.880  19.793   7.355
10820POPC   C1B66679  13.008  20.041   6.455
10820POPC   C2B66680  12.993  19.976   6.755
10820POPC   C3B66681  13.045  19.986   7.055
10820POPC   C4B66682  13.006  20.031   7.355
10821POPC   NC366683  15.176  35.386   5.555
10821POPC   PO466684  15.160  35.385   5.855
10821POPC   GL166685  15.144  35.344   6.155
10821POPC   GL266686  15.023  35.376   6.155
10821POPC   C1A66687  15.196  35.360   6.455
10821POPC   D2A66688  15.158  35.340   6.755
10821POPC   C3A66689  15.222  35.347   7.055
10821POPC   C4A66690  15.189  35.336   7.355
10821POPC   C1B66691  14.974  35.428   6.455
10821POPC   C2B66692  14.976  35.448   6.755
10821POPC   C3B66693  14.976  35.444   7.055
10821POPC   C4B66694  14.909  35.457   7.355
10822POPC   NC366695  36.913  13.649   5.555
10822POPC   PO466696  36.919  13.621   5.855
10822POPC   GL166697  36.880  13.670   6.155
10822POPC   GL266698  37.007  13.741   6.155
10822POPC   C1A66699  36.918  13.653   6.455
10822POPC   D2A66700  36.922  13.580   6.755
10822POPC   C3A66701  36.863  13.624   7.055
10822POPC   C4A66702  36.912  13.631   7.355
10822POPC   C1B66703  37.060  13.748   6.455
10822POPC   C2B66704  37.097  13.750   6.755
10822POPC   C3B66705  37.056  13.743   7.055
10822POPC   C4B66706  37.072  13.791   7.355
10823POPC   NC366707  41.581  12.118   5.555
10823POPC   PO466708  41.548  12.123   5.855
10823POPC   GL166709  41.575  12.042   6.155
10823POPC   GL266710  41.583  12.170   6.155
10823POPC   C1A66711  41.518  12.126   6.455
10823POPC   D2A66712  41.511  12.069   6.755
10823POPC   C3A66713  41.569  12.043   7.055
10823POPC   C4A66714  41.518  12.052   7.355
10823POPC   C1B66715  41.509  12.349   6.455
10823POPC   C2B66716  41.570  12.371   6.755
10823POPC   C3B66717  41.519  12.363   7.055
10823POPC   C4B66718  41.599  12.302   7.355
10824POPC   NC366719  28.358  25.997   5.555
10824POPC   PO466720  28.345  26.088   5.855
10824POPC   GL166721  28.401  26.088   6.155
10824POPC   GL266722  28.435  26.147   6.155
10824POPC   C1A66723  28.332  25.994   6.455
10824POPC   D2A66724  28.357  26.072   6.755
10824POPC   C3A66725  28.376  26.044   7.055
10824POPC   C4A66726  28.360  26.078   7.355
10824POPC   C1B66727  28.564  26.231   6.455
10824POPC   C2B66728  28.617  26.151   6.755
10824POPC   C3B66729  28.553  26.229   7.055
10824POPC   C4B66730  28.547  26.172   7.355
10825POPC   NC366731  26.828   8.936   5.555
10825POPC   PO466732  26.788   8.959   5.855
10825POPC   GL166733  26.813   8.969   6.155
10825POPC   GL266734  26.725   9.037   6.155
10825POPC   C1A66735  26.816   8.983   6.455
10825POPC   D2A66736  26.814   8.971   6.755
10825POPC   C3A66737  26.842   9.002   7.055
10825POPC   C4A66738  26.852   8.950   7.355
10825POPC   C1B66739  26.616   9.064   6.455
10825POPC   C2B66740  26.543   9.062   6.755
10825POPC   C3B66741  26.610   9.035   7.055
10825POPC   C4B66742  26.565   9.038   7.355
10826POPC   NC366743   1.167  23.691   5.555
10826POPC   PO466744   1.165  23.751   5.855
10826POPC   GL166745   1.196  23.727   6.155
10826POPC   GL266746   1.291  23.827   6.155
10826POPC   C1A66747   1.216  23.688   6.455
10826POPC   D2A66748   1.178  23.744   6.755
10826POPC   C3A66749   1.179  23.717   7.055
10826POPC   C4A66750   1.207  23.762   7.355
10826POPC   C1B66751   1.424  23.883   6.455
10826POPC   C2B66752   1.379  23.810   6.755
10826POPC   C3B66753   1.406  23.816   7.055
10826POPC   C4B66754   1.448  23.852   7.355
10827POPC   NC366755  26.078  35.317   5.555
10827POPC   PO466756  26.083  35.344   5.855
10827POPC   GL166757  26.007  35.331   6.155
10827POPC   GL266758  25.885  35.330   6.155
10827POPC   C1A66759  26.077  35.377   6.455
10827POPC   D2A66760  26.003  35.378   6.755
10827POPC   C3A66761  26.083  35.328   7.055
10827POPC   C4A66762  26.029  35.359   7.355
10827POPC   C1B66763  25.826  35.270   6.455
10827POPC   C2B66764  25.759  35.364   6.755
10827POPC   C3B66765  25.758  35.270   7.055
10827POPC   C4B66766  25.749  35.341   7.355
10828POPC   NC366767  35.376  37.661   5.555
10828POPC   PO466768  35.348  37.635   5.855
10828POPC   GL166769  35.315  37.724   6.155
10828POPC   GL266770  35.240  37.628   6.155
10828POPC   C1A66771  35.381  37.677   6.455
10828POPC   D2A66772  35.385  37.696   6.755
10828POPC   C3A66773  35.303  37.635   7.055
10828POPC   C4A66774  35.359  37.652   7.355
10828POPC   C1B66775  35.163  37.471   6.455
10828POPC   C2B66776  35.172  37.433   6.755
10828POPC   C3B66777  35.178  37.455   7.055
10828POPC   C4B66778  35.165  37.465   7.355
10829POPC   NC366779  20.583   8.195   5.555
10829POPC   PO466780  20.657   8.195   5.855
10829POPC   GL166781  20.643   8.212   6.155
10829POPC   GL266782  20.509   8.047   6.155
10829POPC   C1A66783  20.628   8.230   6.455
10829POPC   D2A66784  20.591   8.203   6.755
10829POPC   C3A66785  20.583   8.171   7.055
10829POPC   C4A66786  20.635   8.159   7.355
10829POPC   C1B66787  20.456   7.991   6.455
10829POPC   C2B66788  20.502   8.012   6.755
10829POPC   C3B66789  20.467   7.995   7.055
10829POPC   C4B66790  20.490   8.018   7.355
10830POPC   NC366791   1.946  43.157   5.555
10830POPC   PO466792   1.960  43.098   5.855
10830POPC   GL166793   1.975  43.096   6.155
10830POPC   GL266794   2.029  43.239   6.155
10830POPC   C1A66795   1.956  43.095   6.455
10830POPC   D2A66796   2.026  43.105   6.755
10830POPC   C3A66797   1.969  43.102   7.055
10830POPC   C4A66798   1.990  43.144   7.355
10830POPC   C1B66799   2.018  43.369   6.455
10830POPC   C2B66800   1.997  43.377   6.755
10830POPC   C3B66801   1.971  43.394   7.055
10830POPC   C4B66802   2.013  43.347   7.355
10831POPC   NC366803  35.394  25.227   5.555
10831POPC   PO466804  35.385  25.266   5.855
10831POPC   GL166805  35.366  25.272   6.155
10831POPC   GL266806  35.207  25.262   6.155
10831POPC   C1A66807  35.402  25.309   6.455
10831POPC   D2A66808  35.362  25.246   6.755
10831POPC   C3A66809  35.353  25.307   7.055
10831POPC   C4A66810  35.337  25.292   7.355
10831POPC   C1B66811  35.065  25.162   6.455
10831POPC   C2B66812  35.151  25.168   6.755
10831POPC   C3B66813  35.150  25.174   7.055
10831POPC   C4B66814  35.088  25.248   7.355
10832POPC   NC366815  15.978  38.499   5.555
10832POPC   PO466816  15.993  38.468   5.855
10832POPC   GL166817  15.944  38.431   6.155
10832POPC   GL266818  15.878  38.570   6.155
10832POPC   C1A66819  15.913  38.484   6.455
10832POPC   D2A66820  15.922  38.484   6.755
10832POPC   C3A66821  15.982  38.471   7.055
10832POPC   C4A66822  15.988  38.435   7.355
10832POPC   C1B66823  15.784  38.646   6.455
10832POPC   C2B66824  15.747  38.585   6.755
10832POPC   C3B66825  15.779  38.593   7.055
10832POPC   C4B66826  15.798  38.626   7.355
10833POPC   NC366827  33.044  31.436   5.555
10833POPC   PO466828  32.993  31.440   5.855
10833POPC   GL166829  33.065  31.445   6.155
10833POPC   GL266830  32.989  31.573   6.155
10833POPC   C1A66831  33.023  31.470   6.455
10833POPC   D2A66832  33.006  31.492   6.755
10833POPC   C3A66833  32.982  31.502   7.055
10833POPC   C4A66834  33.053  31.443   7.355
10833POPC   C1B66835  32.888  31.725   6.455
10833POPC   C2B66836  32.871  31.673   6.755
10833POPC   C3B66837  32.937  31.697   7.055
10833POPC   C4B66838  32.901  31.682   7.355
10834POPC   NC366839  28.329   0.450   5.555
10834POPC   PO466840  28.409   0.414   5.855
10834POPC   GL166841  28.321   0.416   6.155
10834POPC   GL266842  28.251   0.416   6.155
10834POPC   C1A66843  28.404   0.470   6.455
10834POPC   D2A66844  28.351   0.388   6.755
10834POPC   C3A66845  28.339   0.441   7.055
10834POPC   C4A66846  28.324   0.473   7.355
10834POPC   C1B66847  28.178   0.347   6.455
10834POPC   C2B66848  28.189   0.358   6.755
10834POPC   C3B66849  28.126   0.316   7.055
10834POPC   C4B66850  28.096   0.342   7.355
10835POPC   NC366851  44.626  12.839   5.555
10835POPC   PO466852  44.632  12.901   5.855
10835POPC   GL166853  44.701  12.820   6.155
10835POPC   GL266854  44.573  12.836   6.155
10835POPC   C1A66855  44.686  12.838   6.455
10835POPC   D2A66856  44.654  12.854   6.755
10835POPC   C3A66857  44.630  12.851   7.055
10835POPC   C4A66858  44.698  12.836   7.355
10835POPC   C1B66859  44.462  12.761   6.455
10835POPC   C2B66860  44.471  12.795   6.755
10835POPC   C3B66861  44.440  12.772   7.055
10835POPC   C4B66862  44.466  12.782   7.355
10836POPC   NC366863  26.829   2.011   5.555
10836POPC   PO466864  26.774   2.014   5.855
10836POPC   GL166865  26.835   1.968   6.155
10836POPC   GL266866  26.664   2.030   6.155
10836POPC   C1A66867  26.846   1.953   6.455
10836POPC   D2A66868  26.788   2.001   6.755
10836POPC   C3A66869  26.850   1.986   7.055
10836POPC   C4A66870  26.775   1.989   7.355
10836POPC   C1B66871  26.563   2.135   6.455
10836POPC   C2B66872  26.568   2.136   6.755
10836POPC   C3B66873  26.577   2.098   7.055
10836POPC   C4B66874  26.631   2.095   7.355
10837POPC   NC366875  17.523  23.667   5.555
10837POPC   PO466876  17.459  23.723   5.855
10837POPC   GL166877  17.488  23.735   6.155
10837POPC   GL266878  17.338  23.654   6.155
10837POPC   C1A66879  17.524  23.737   6.455
10837POPC   D2A66880  17.502  23.683   6.755
10837POPC   C3A66881  17.476  23.678   7.055
10837POPC   C4A66882  17.532  23.725   7.355
10837POPC   C1B66883  17.213  23.684   6.455
10837POPC   C2B66884  17.279  23.684   6.755
10837POPC   C3B66885  17.298  23.710   7.055
10837POPC   C4B66886  17.248  23.643   7.355
10838POPC   NC366887  24.475  29.901   5.555
10838POPC   PO466888  24.514  29.938   5.855
10838POPC   GL166889  24.460  29.958   6.155
10838POPC   GL266890  24.340  29.856   6.155
10838POPC   C1A66891  24.477  29.878   6.455
10838POPC   D2A66892  24.499  29.909   6.755
10838POPC   C3A66893  24.480  29.889   7.055
10838POPC   C4A66894  24.473  29.938   7.355
10838POPC   C1B66895  24.263  29.767   6.455
10838POPC   C2B66896  24.315  29.821   6.755
10838POPC   C3B66897  24.265  29.771   7.055
10838POPC   C4B66898  24.252  29.784   7.355
10839POPC   NC366899  17.529   6.607   5.555
10839POPC   PO466900  17.542   6.677   5.855
10839POPC   GL166901  17.544   6.641   6.155
10839POPC   GL266902  17.507   6.563   6.155
10839POPC   C1A66903  17.493   6.607   6.455
10839POPC   D2A66904  17.476   6.611   6.755
10839POPC   C3A66905  17.517   6.610   7.055
10839POPC   C4A66906  17.480   6.605   7.355
10839POPC   C1B66907  17.493   6.429   6.455
10839POPC   C2B66908  17.449   6.346   6.755
10839POPC   C3B66909  17.490   6.413   7.055
10839POPC   C4B66910  17.530   6.393   7.355
10840POPC   NC366911  29.945  19.808   5.555
10840POPC   PO466912  29.874  19.853   5.855
10840POPC   GL166913  29.955  19.818   6.155
10840POPC   GL266914  30.079  19.866   6.155
10840POPC   C1A66915  29.886  19.865   6.455
10840POPC   D2A66916  29.910  19.853   6.755
10840POPC   C3A66917  29.888  19.867   7.055
10840POPC   C4A66918  29.905  19.810   7.355
10840POPC   C1B66919  30.187  19.853   6.455
10840POPC   C2B66920  30.194  19.824   6.755
10840POPC   C3B66921  30.207  19.825   7.055
10840POPC   C4B66922  30.202  19.803   7.355
10841POPC   NC366923   0.454  29.150   5.555
10841POPC   PO466924   0.466  29.110   5.855
10841POPC   GL166925   0.412  29.124   6.155
10841POPC   GL266926   0.354  29.118   6.155
10841POPC   C1A66927   0.456  29.173   6.455
10841POPC   D2A66928   0.394  29.122   6.755
10841POPC   C3A66929   0.439  29.157   7.055
10841POPC   C4A66930   0.429  29.100   7.355
10841POPC   C1B66931   0.217  29.068   6.455
10841POPC   C2B66932   0.220  29.084   6.755
10841POPC   C3B66933   0.195  29.082   7.055
10841POPC   C4B66934   0.222  29.115   7.355
10842POPC   NC366935  18.312  40.777   5.555
10842POPC   PO466936  18.328  40.822   5.855
10842POPC   GL166937  18.302  40.743   6.155
10842POPC   GL266938  18.375  40.737   6.155
10842POPC   C1A66939  18.309  40.783   6.455
10842POPC   D2A66940  18.331  40.746   6.755
10842POPC   C3A66941  18.262  40.760   7.055
10842POPC   C4A66942  18.252  40.734   7.355
10842POPC   C1B66943  18.533  40.732   6.455
10842POPC   C2B66944  18.517  40.767   6.755
10842POPC   C3B66945  18.525  40.721   7.055
10842POPC   C4B66946  18.506  40.745   7.355
10843POPC   NC366947  30.650  39.212   5.555
10843POPC   PO466948  30.667  39.270   5.855
10843POPC   GL166949  30.718  39.236   6.155
10843POPC   GL266950  30.757  39.252   6.155
10843POPC   C1A66951  30.705  39.218   6.455
10843POPC   D2A66952  30.668  39.183   6.755
10843POPC   C3A66953  30.746  39.255   7.055
10843POPC   C4A66954  30.727  39.273   7.355
10843POPC   C1B66955  30.893  39.362   6.455
10843POPC   C2B66956  30.865  39.402   6.755
10843POPC   C3B66957  30.889  39.389   7.055
10843POPC   C4B66958  30.865  39.360   7.355
10844POPC   NC366959  12.804  40.040   5.555
10844POPC   PO466960  12.882  39.982   5.855
10844POPC   GL166961  12.835  40.006   6.155
10844POPC   GL266962  12.927  40.131   6.155
10844POPC   C1A66963  12.822  40.026   6.455
10844POPC   D2A66964  12.821  40.055   6.755
10844POPC   C3A66965  12.856  40.051   7.055
10844POPC   C4A66966  12.848  40.054   7.355
10844POPC   C1B66967  12.964  40.209   6.455
10844POPC   C2B66968  12.955  40.221   6.755
10844POPC   C3B66969  12.988  40.251   7.055
10844POPC   C4B66970  12.968  40.184   7.355
10845POPC   NC366971  19.037   0.405   5.555
10845POPC   PO466972  19.095   0.443   5.855
10845POPC   GL166973  19.035   0.413   6.155
10845POPC   GL266974  18.961   0.323   6.155
10845POPC   C1A66975  19.076   0.439   6.455
10845POPC   D2A66976  19.057   0.414   6.755
10845POPC   C3A66977  19.012   0.482   7.055
10845POPC   C4A66978  19.095   0.408   7.355
10845POPC   C1B66979  18.959   0.184   6.455
10845POPC   C2B66980  18.957   0.247   6.755
10845POPC   C3B66981  18.971   0.267   7.055
10845POPC   C4B66982  18.912   0.188   7.355
10846POPC   NC366983  30.730   5.834   5.555
10846POPC   PO466984  30.650   5.904   5.855
10846POPC   GL166985  30.729   5.918   6.155
10846POPC   GL266986  30.536   5.921   6.155
10846POPC   C1A66987  30.707   5.913   6.455
10846POPC   D2A66988  30.676   5.870   6.755
10846POPC   C3A66989  30.719   5.840   7.055
10846POPC   C4A66990  30.656   5.909   7.355
10846POPC   C1B66991  30.452   6.023   6.455
10846POPC   C2B66992  30.500   5.937   6.755
10846POPC   C3B66993  30.441   5.960   7.055
10846POPC   C4B66994  30.424   6.007   7.355
10847POPC   NC366995  11.315  34.540   5.555
10847POPC   PO466996  11.293  34.583   5.855
10847POPC   GL166997  11.300  34.619   6.155
10847POPC   GL266998  11.212  34.642   6.155
10847POPC   C1A66999  11.265  34.609   6.455
10847POPC   D2A67000  11.287  34.613   6.755
10847POPC   C3A67001  11.275  34.601   7.055
10847POPC   C4A67002  11.278  34.623   7.355
10847POPC   C1B67003  11.187  34.772   6.455
10847POPC   C2B67004  11.104  34.787   6.755
10847POPC   C3B67005  11.135  34.793   7.055
10847POPC   C4B67006  11.131  34.732   7.355
10848POPC   NC367007  18.239  42.355   5.555
10848POPC   PO467008  18.273  42.372   5.855
10848POPC   GL167009  18.299  42.367   6.155
10848POPC   GL267010  18.308  42.466   6.155
10848POPC   C1A67011  18.329  42.296   6.455
10848POPC   D2A67012  18.316  42.383   6.755
10848POPC   C3A67013  18.313  42.375   7.055
10848POPC   C4A67014  18.275  42.329   7.355
10848POPC   C1B67015  18.209  42.581   6.455
10848POPC   C2B67016  18.211  42.596   6.755
10848POPC   C3B67017  18.252  42.600   7.055
10848POPC   C4B67018  18.242  42.553   7.355
10849POPC   NC367019  43.086   3.520   5.555
10849POPC   PO467020  43.132   3.570   5.855
10849POPC   GL167021  43.062   3.533   6.155
10849POPC   GL267022  42.945   3.554   6.155
10849POPC   C1A67023  43.077   3.557   6.455
10849POPC   D2A67024  43.091   3.567   6.755
10849POPC   C3A67025  43.110   3.547   7.055
10849POPC   C4A67026  43.078   3.568   7.355
10849POPC   C1B67027  42.884   3.589   6.455
10849POPC   C2B67028  42.925   3.591   6.755
10849POPC   C3B67029  42.878   3.634   7.055
10849POPC   C4B67030  42.903   3.603   7.355
10850POPC   NC367031  44.642  16.691   5.555
10850POPC   PO467032  44.676  16.714   5.855
10850POPC   GL167033  44.674  16.769   6.155
10850POPC   GL267034  44.784  16.650   6.155
10850POPC   C1A67035  44.675  16.713   6.455
10850POPC   D2A67036  44.613  16.720   6.755
10850POPC   C3A67037  44.664  16.760   7.055
10850POPC   C4A67038  44.676  16.722   7.355
10850POPC   C1B67039  44.804  16.528   6.455
10850POPC   C2B67040  44.858  16.531   6.755
10850POPC   C3B67041  44.859  16.548   7.055
10850POPC   C4B67042  44.804  16.547   7.355
10851POPC   NC367043  23.739   5.049   5.555
10851POPC   PO467044  23.725   5.063   5.855
10851POPC   GL167045  23.677   5.121   6.155
10851POPC   GL267046  23.685   5.211   6.155
10851POPC   C1A67047  23.708   5.113   6.455
10851POPC   D2A67048  23.756   5.074   6.755
10851POPC   C3A67049  23.739   5.088   7.055
10851POPC   C4A67050  23.719   5.103   7.355
10851POPC   C1B67051  23.658   5.365   6.455
10851POPC   C2B67052  23.706   5.340   6.755
10851POPC   C3B67053  23.706   5.335   7.055
10851POPC   C4B67054  23.675   5.333   7.355
10852POPC   NC367055  43.917  35.400   5.555
10852POPC   PO467056  43.899  35.351   5.855
10852POPC   GL167057  43.868  35.322   6.155
10852POPC   GL267058  43.883  35.434   6.155
10852POPC   C1A67059  43.906  35.354   6.455
10852POPC   D2A67060  43.840  35.382   6.755
10852POPC   C3A67061  43.894  35.304   7.055
10852POPC   C4A67062  43.857  35.363   7.355
10852POPC   C1B67063  44.013  35.611   6.455
10852POPC   C2B67064  44.019  35.588   6.755
10852POPC   C3B67065  43.982  35.622   7.055
10852POPC   C4B67066  43.974  35.549   7.355
10853POPC   NC367067   8.213  32.254   5.555
10853POPC   PO467068   8.149  32.246   5.855
10853POPC   GL167069   8.217  32.272   6.155
10853POPC   GL267070   8.107  32.286   6.155
10853POPC   C1A67071   8.224  32.224   6.455
10853POPC   D2A67072   8.210  32.237   6.755
10853POPC   C3A67073   8.176  32.236   7.055
10853POPC   C4A67074   8.206  32.206   7.355
10853POPC   C1B67075   7.981  32.298   6.455
10853POPC   C2B67076   7.957  32.251   6.755
10853POPC   C3B67077   7.930  32.254   7.055
10853POPC   C4B67078   7.898  32.301   7.355
10854POPC   NC367079   5.866  33.843   5.555
10854POPC   PO467080   5.915  33.798   5.855
10854POPC   GL167081   5.862  33.755   6.155
10854POPC   GL267082   5.953  33.812   6.155
10854POPC   C1A67083   5.918  33.848   6.455
10854POPC   D2A67084   5.827  33.759   6.755
10854POPC   C3A67085   5.832  33.797   7.055
10854POPC   C4A67086   5.912  33.839   7.355
10854POPC   C1B67087   6.045  33.929   6.455
10854POPC   C2B67088   6.045  33.961   6.755
10854POPC   C3B67089   6.047  33.932   7.055
10854POPC   C4B67090   6.117  33.903   7.355
10855POPC   NC367091  22.184  17.531   5.555
10855POPC   PO467092  22.178  17.501   5.855
10855POPC   GL167093  22.129  17.543   6.155
10855POPC   GL267094  22.107  17.405   6.155
10855POPC   C1A67095  22.205  17.523   6.455
10855POPC   D2A67096  22.156  17.540   6.755
10855POPC   C3A67097  22.158  17.509   7.055
10855POPC   C4A67098  22.153  17.472   7.355
10855POPC   C1B67099  22.003  17.288   6.455
10855POPC   C2B67100  22.059  17.310   6.755
10855POPC   C3B67101  22.015  17.240   7.055
10855POPC   C4B67102  22.080  17.325   7.355
10856POPC   NC367103  16.778  23.705   5.555
10856POPC   PO467104  16.758  23.742   5.855
10856POPC   GL167105  16.741  23.703   6.155
10856POPC   GL267106  16.655  23.689   6.155
10856POPC   C1A67107  16.715  23.719   6.455
10856POPC   D2A67108  16.777  23.673   6.755
10856POPC   C3A67109  16.749  23.683   7.055
10856POPC   C4A67110  16.762  23.675   7.355
10856POPC   C1B67111  16.522  23.609   6.455
10856POPC   C2B67112  16.445  23.659   6.755
10856POPC   C3B67113  16.490  23.674   7.055
10856POPC   C4B67114  16.471  23.609   7.355
10857POPC   NC367115  26.042  16.692   5.555
10857POPC   PO467116  26.020  16.694   5.855
10857POPC   GL167117  26.079  16.724   6.155
10857POPC   GL267118  26.015  16.816   6.155
10857POPC   C1A67119  26.003  16.779   6.455
10857POPC   D2A67120  26.046  16.767   6.755
10857POPC   C3A67121  26.006  16.713   7.055
10857POPC   C4A67122  26.080  16.711   7.355
10857POPC   C1B67123  25.904  16.933   6.455
10857POPC   C2B67124  25.955  16.907   6.755
10857POPC   C3B67125  25.953  16.960   7.055
10857POPC   C4B67126  25.870  16.967   7.355
10858POPC   NC367127  22.160   4.344   5.555
10858POPC   PO467128  22.143   4.362   5.855
10858POPC   GL167129  22.159   4.362   6.155
10858POPC   GL267130  22.105   4.340   6.155
10858POPC   C1A67131  22.171   4.277   6.455
10858POPC   D2A67132  22.139   4.303   6.755
10858POPC   C3A67133  22.129   4.294   7.055
10858POPC   C4A67134  22.196   4.302   7.355
10858POPC   C1B67135  22.002   4.432   6.455
10858POPC   C2B67136  21.978   4.456   6.755
10858POPC   C3B67137  21.935   4.472   7.055
10858POPC   C4B67138  21.917   4.472   7.355
10859POPC   NC367139  40.769  39.267   5.555
10859POPC   PO467140  40.808  39.244   5.855
10859POPC   GL167141  40.807  39.241   6.155
10859POPC   GL267142  40.679  39.190   6.155
10859POPC   C1A67143  40.739  39.220   6.455
10859POPC   D2A67144  40.750  39.214   6.755
10859POPC   C3A67145  40.789  39.190   7.055
10859POPC   C4A67146  40.828  39.192   7.355
10859POPC   C1B67147  40.569  39.055   6.455
10859POPC   C2B67148  40.648  39.040   6.755
10859POPC   C3B67149  40.644  39.022   7.055
10859POPC   C4B67150  40.582  39.052   7.355
10860POPC   NC367151  29.139  22.938   5.555
10860POPC   PO467152  29.097  22.928   5.855
10860POPC   GL167153  29.113  22.958   6.155
10860POPC   GL267154  29.093  23.035   6.155
10860POPC   C1A67155  29.186  22.921   6.455
10860POPC   D2A67156  29.156  22.969   6.755
10860POPC   C3A67157  29.124  22.898   7.055
10860POPC   C4A67158  29.096  22.961   7.355
10860POPC   C1B67159  29.099  23.146   6.455
10860POPC   C2B67160  29.059  23.164   6.755
10860POPC   C3B67161  29.111  23.214   7.055
10860POPC   C4B67162  29.083  23.219   7.355
10861POPC   NC367163  40.038  22.122   5.555
10861POPC   PO467164  40.021  22.209   5.855
10861POPC   GL167165  39.985  22.194   6.155
10861POPC   GL267166  39.862  22.189   6.155
10861POPC   C1A67167  39.964  22.134   6.455
10861POPC   D2A67168  39.982  22.117   6.755
10861POPC   C3A67169  39.984  22.138   7.055
10861POPC   C4A67170  39.982  22.166   7.355
10861POPC   C1B67171  39.785  22.122   6.455
10861POPC   C2B67172  39.787  22.187   6.755
10861POPC   C3B67173  39.714  22.177   7.055
10861POPC   C4B67174  39.722  22.122   7.355
10862POPC   NC367175  43.140   1.972   5.555
10862POPC   PO467176  43.138   1.950   5.855
10862POPC   GL167177  43.094   2.019   6.155
10862POPC   GL267178  42.993   2.044   6.155
10862POPC   C1A67179  43.078   1.979   6.455
10862POPC   D2A67180  43.080   1.953   6.755
10862POPC   C3A67181  43.099   1.954   7.055
10862POPC   C4A67182  43.092   1.957   7.355
10862POPC   C1B67183  42.931   2.138   6.455
10862POPC   C2B67184  42.899   2.072   6.755
10862POPC   C3B67185  42.893   2.127   7.055
10862POPC   C4B67186  42.875   2.060   7.355
10863POPC   NC367187   8.936  38.412   5.555
10863POPC   PO467188   8.970  38.441   5.855
10863POPC   GL167189   9.020  38.420   6.155
10863POPC   GL267190   9.098  38.429   6.155
10863POPC   C1A67191   9.002  38.486   6.455
10863POPC   D2A67192   8.976  38.454   6.755
10863POPC   C3A67193   8.955  38.489   7.055
10863POPC   C4A67194   8.969  38.478   7.355
10863POPC   C1B67195   9.210  38.534   6.455
10863POPC   C2B67196   9.248  38.516   6.755
10863POPC   C3B67197   9.259  38.472   7.055
10863POPC   C4B67198   9.173  38.530   7.355
10864POPC   NC367199   6.609   0.439   5.555
10864POPC   PO467200   6.617   0.424   5.855
10864POPC   GL167201   6.662   0.400   6.155
10864POPC   GL267202   6.710   0.514   6.155
10864POPC   C1A67203   6.635   0.426   6.455
10864POPC   D2A67204   6.693   0.439   6.755
10864POPC   C3A67205   6.651   0.390   7.055
10864POPC   C4A67206   6.673   0.468   7.355
10864POPC   C1B67207   6.766   0.709   6.455
10864POPC   C2B67208   6.788   0.713   6.755
10864POPC   C3B67209   6.754   0.648   7.055
10864POPC   C4B67210   6.768   0.696   7.355
10865POPC   NC367211  12.035  28.330   5.555
10865POPC   PO467212  12.037  28.336   5.855
10865POPC   GL167213  12.120  28.322   6.155
10865POPC   GL267214  11.910  28.312   6.155
10865POPC   C1A67215  12.086  28.338   6.455
10865POPC   D2A67216  12.101  28.379   6.755
10865POPC   C3A67217  12.085  28.352   7.055
10865POPC   C4A67218  12.100  28.415   7.355
10865POPC   C1B67219  11.827  28.305   6.455
10865POPC   C2B67220  11.836  28.323   6.755
10865POPC   C3B67221  11.831  28.311   7.055
10865POPC   C4B67222  11.850  28.301   7.355
10866POPC   NC367223  22.964   3.536   5.555
10866POPC   PO467224  22.927   3.509   5.855
10866POPC   GL167225  22.962   3.532   6.155
10866POPC   GL267226  23.000   3.647   6.155
10866POPC   C1A67227  22.974   3.495   6.455
10866POPC   D2A67228  22.979   3.587   6.755
10866POPC   C3A67229  22.978   3.507   7.055
10866POPC   C4A67230  22.944   3.521   7.355
10866POPC   C1B67231  23.138   3.724   6.455
10866POPC   C2B67232  23.095   3.740   6.755
10866POPC   C3B67233  23.074   3.697   7.055
10866POPC   C4B67234  23.123   3.767   7.355
10867POPC   NC367235   8.206  31.466   5.555
10867POPC   PO467236   8.162  31.513   5.855
10867POPC   GL167237   8.183  31.460   6.155
10867POPC   GL267238   8.035  31.474   6.155
10867POPC   C1A67239   8.199  31.479   6.455
10867POPC   D2A67240   8.223  31.465   6.755
10867POPC   C3A67241   8.165  31.501   7.055
10867POPC   C4A67242   8.241  31.429   7.355
10867POPC   C1B67243   7.933  31.463   6.455
10867POPC   C2B67244   7.904  31.371   6.755
10867POPC   C3B67245   7.963  31.437   7.055
10867POPC   C4B67246   7.986  31.417   7.355
10868POPC   NC367247  36.908  26.790   5.555
10868POPC   PO467248  36.910  26.807   5.855
10868POPC   GL167249  36.947  26.834   6.155
10868POPC   GL267250  36.799  26.940   6.155
10868POPC   C1A67251  36.938  26.779   6.455
10868POPC   D2A67252  36.936  26.864   6.755
10868POPC   C3A67253  36.872  26.795   7.055
10868POPC   C4A67254  36.895  26.830   7.355
10868POPC   C1B67255  36.752  27.001   6.455
10868POPC   C2B67256  36.765  27.026   6.755
10868POPC   C3B67257  36.744  27.014   7.055
10868POPC   C4B67258  36.751  27.041   7.355
10869POPC   NC367259  14.437  19.059   5.555
10869POPC   PO467260  14.416  19.028   5.855
10869POPC   GL167261  14.430  19.064   6.155
10869POPC   GL267262  14.294  19.161   6.155
10869POPC   C1A67263  14.379  19.030   6.455
10869POPC   D2A67264  14.389  19.043   6.755
10869POPC   C3A67265  14.452  19.090   7.055
10869POPC   C4A67266  14.453  19.045   7.355
10869POPC   C1B67267  14.225  19.165   6.455
10869POPC   C2B67268  14.168  19.135   6.755
10869POPC   C3B67269  14.133  19.182   7.055
10869POPC   C4B67270  14.208  19.189   7.355
10870POPC   NC367271  11.341  19.802   5.555
10870POPC   PO467272  11.343  19.871   5.855
10870POPC   GL167273  11.333  19.810   6.155
10870POPC   GL267274  11.226  19.847   6.155
10870POPC   C1A67275  11.295  19.787   6.455
10870POPC   D2A67276  11.293  19.822   6.755
10870POPC   C3A67277  11.340  19.795   7.055
10870POPC   C4A67278  11.342  19.795   7.355
10870POPC   C1B67279  11.057  19.904   6.455
10870POPC   C2B67280  11.063  19.893   6.755
10870POPC   C3B67281  11.107  19.927   7.055
10870POPC   C4B67282  11.069  19.887   7.355
10871POPC   NC367283  36.867  19.097   5.555
10871POPC   PO467284  36.946  19.103   5.855
10871POPC   GL167285  36.918  19.089   6.155
10871POPC   GL267286  36.952  19.125   6.155
10871POPC   C1A67287  36.945  19.107   6.455
10871POPC   D2A67288  36.864  19.104   6.755
10871POPC   C3A67289  36.922  19.031   7.055
10871POPC   C4A67290  36.923  19.064   7.355
10871POPC   C1B67291  37.096  19.247   6.455
10871POPC   C2B67292  37.093  19.288   6.755
10871POPC   C3B67293  37.115  19.297   7.055
10871POPC   C4B67294  37.049  19.264   7.355
10872POPC   NC367295  12.820  33.011   5.555
10872POPC   PO467296  12.817  33.008   5.855
10872POPC   GL167297  12.852  33.005   6.155
10872POPC   GL267298  12.843  33.173   6.155
10872POPC   C1A67299  12.840  33.020   6.455
10872POPC   D2A67300  12.809  33.036   6.755
10872POPC   C3A67301  12.840  33.030   7.055
10872POPC   C4A67302  12.883  33.013   7.355
10872POPC   C1B67303  12.823  33.320   6.455
10872POPC   C2B67304  12.853  33.321   6.755
10872POPC   C3B67305  12.816  33.259   7.055
10872POPC   C4B67306  12.848  33.291   7.355
10873POPC   NC367307  21.349  19.838   5.555
10873POPC   PO467308  21.378  19.884   5.855
10873POPC   GL167309  21.413  19.785   6.155
10873POPC   GL267310  21.461  19.873   6.155
10873POPC   C1A67311  21.402  19.786   6.455
10873POPC   D2A67312  21.380  19.883   6.755
10873POPC   C3A67313  21.351  19.869   7.055
10873POPC   C4A67314  21.433  19.828   7.355
10873POPC   C1B67315  21.608  19.860   6.455
10873POPC   C2B67316  21.639  19.875   6.755
10873POPC   C3B67317  21.599  19.847   7.055
10873POPC   C4B67318  21.627  19.866   7.355
10874POPC   NC367319   2.745  44.684   5.555
10874POPC   PO467320   2.766  44.620   5.855
10874POPC   GL167321   2.725  44.701   6.155
10874POPC   GL267322   2.827  44.791   6.155
10874POPC   C1A67323   2.737  44.614   6.455
10874POPC   D2A67324   2.769  44.631   6.755
10874POPC   C3A67325   2.733  44.624   7.055
10874POPC   C4A67326   2.756  44.684   7.355
10874POPC   C1B67327   2.944  44.871   6.455
10874POPC   C2B67328   2.911  44.886   6.755
10874POPC   C3B67329   2.915  44.831   7.055
10874POPC   C4B67330   2.930  44.795   7.355
10875POPC   NC367331  26.773  21.393   5.555
10875POPC   PO467332  26.856  21.430   5.855
10875POPC   GL167333  26.833  21.369   6.155
10875POPC   GL267334  26.746  21.236   6.155
10875POPC   C1A67335  26.807  21.359   6.455
10875POPC   D2A67336  26.823  21.353   6.755
10875POPC   C3A67337  26.808  21.382   7.055
10875POPC   C4A67338  26.841  21.394   7.355
10875POPC   C1B67339  26.727  21.202   6.455
10875POPC   C2B67340  26.677  21.126   6.755
10875POPC   C3B67341  26.663  21.158   7.055
10875POPC   C4B67342  26.705  21.188   7.355
10876POPC   NC367343  40.750  18.272   5.555
10876POPC   PO467344  40.765  18.315   5.855
10876POPC   GL167345  40.794  18.254   6.155
10876POPC   GL267346  40.720  18.233   6.155
10876POPC   C1A67347  40.773  18.297   6.455
10876POPC   D2A67348  40.789  18.290   6.755
10876POPC   C3A67349  40.827  18.329   7.055
10876POPC   C4A67350  40.793  18.323   7.355
10876POPC   C1B67351  40.634  18.069   6.455
10876POPC   C2B67352  40.642  18.071   6.755
10876POPC   C3B67353  40.638  18.115   7.055
10876POPC   C4B67354  40.597  18.138   7.355
10877POPC   NC367355  39.225  10.531   5.555
10877POPC   PO467356  39.186  10.565   5.855
10877POPC   GL167357  39.198  10.507   6.155
10877POPC   GL267358  39.329  10.538   6.155
10877POPC   C1A67359  39.247  10.534   6.455
10877POPC   D2A67360  39.194  10.483   6.755
10877POPC   C3A67361  39.182  10.546   7.055
10877POPC   C4A67362  39.262  10.524   7.355
10877POPC   C1B67363  39.499  10.538   6.455
10877POPC   C2B67364  39.449  10.547   6.755
10877POPC   C3B67365  39.429  10.520   7.055
10877POPC   C4B67366  39.506  10.544   7.355
10878POPC   NC367367  37.640  13.650   5.555
10878POPC   PO467368  37.668  13.588   5.855
10878POPC   GL167369  37.715  13.599   6.155
10878POPC   GL267370  37.610  13.710   6.155
10878POPC   C1A67371  37.650  13.590   6.455
10878POPC   D2A67372  37.700  13.675   6.755
10878POPC   C3A67373  37.715  13.599   7.055
10878POPC   C4A67374  37.662  13.667   7.355
10878POPC   C1B67375  37.496  13.851   6.455
10878POPC   C2B67376  37.575  13.859   6.755
10878POPC   C3B67377  37.590  13.802   7.055
10878POPC   C4B67378  37.565  13.835   7.355
10879POPC   NC367379   2.016  30.728   5.555
10879POPC   PO467380   1.999  30.731   5.855
10879POPC   GL167381   2.039  30.661   6.155
10879POPC   GL267382   1.905  30.616   6.155
10879POPC   C1A67383   2.036  30.657   6.455
10879POPC   D2A67384   1.958  30.666   6.755
10879POPC   C3A67385   2.022  30.718   7.055
10879POPC   C4A67386   1.976  30.682   7.355
10879POPC   C1B67387   1.820  30.552   6.455
10879POPC   C2B67388   1.793  30.588   6.755
10879POPC   C3B67389   1.767  30.598   7.055
10879POPC   C4B67390   1.799  30.603   7.355
10880POPC   NC367391  44.650   0.431   5.555
10880POPC   PO467392  44.660   0.449   5.855
10880POPC   GL167393  44.634   0.453   6.155
10880POPC   GL267394  44.549   0.490   6.155
10880POPC   C1A67395  44.675   0.411   6.455
10880POPC   D2A67396  44.641   0.397   6.755
10880POPC   C3A67397  44.706   0.454   7.055
10880POPC   C4A67398  44.700   0.413   7.355
10880POPC   C1B67399  44.381   0.520   6.455
10880POPC   C2B67400  44.458   0.497   6.755
10880POPC   C3B67401  44.371   0.487   7.055
10880POPC   C4B67402  44.439   0.533   7.355
10881POPC   NC367403   4.320  31.450   5.555
10881POPC   PO467404   4.312  31.521   5.855
10881POPC   GL167405   4.282  31.468   6.155
10881POPC   GL267406   4.244  31.383   6.155
10881POPC   C1A67407   4.271  31.436   6.455
10881POPC   D2A67408   4.296  31.464   6.755
10881POPC   C3A67409   4.337  31.470   7.055
10881POPC   C4A67410   4.308  31.443   7.355
10881POPC   C1B67411   4.240  31.248   6.455
10881POPC   C2B67412   4.192  31.239   6.755
10881POPC   C3B67413   4.207  31.288   7.055
10881POPC   C4B67414   4.178  31.281   7.355
10882POPC   NC367415  20.623  43.158   5.555
10882POPC   PO467416  20.601  43.112   5.855
10882POPC   GL167417  20.601  43.116   6.155
10882POPC   GL267418  20.717  43.008   6.155
10882POPC   C1A67419  20.584  43.149   6.455
10882POPC   D2A67420  20.604  43.122   6.755
10882POPC   C3A67421  20.641  43.099   7.055
10882POPC   C4A67422  20.623  43.100   7.355
10882POPC   C1B67423  20.823  42.917   6.455
10882POPC   C2B67424  20.783  42.955   6.755
10882POPC   C3B67425  20.823  42.931   7.055
10882POPC   C4B67426  20.784  42.942   7.355
10883POPC   NC367427   5.099  26.007   5.555
10883POPC   PO467428   5.093  26.039   5.855
10883POPC   GL167429   5.129  26.084   6.155
10883POPC   GL267430   5.030  26.188   6.155
10883POPC   C1A67431   5.086  26.073   6.455
10883POPC   D2A67432   5.139  26.065   6.755
10883POPC   C3A67433   5.079  26.030   7.055
10883POPC   C4A67434   5.056  26.076   7.355
10883POPC   C1B67435   4.934  26.289   6.455
10883POPC   C2B67436   4.896  26.278   6.755
10883POPC   C3B67437   4.980  26.223   7.055
10883POPC   C4B67438   4.953  26.219   7.355
10884POPC   NC367439  24.444  32.233   5.555
10884POPC   PO467440  24.534  32.247   5.855
10884POPC   GL167441  24.468  32.204   6.155
10884POPC   GL267442  24.442  32.377   6.155
10884POPC   C1A67443  24.528  32.257   6.455
10884POPC   D2A67444  24.508  32.288   6.755
10884POPC   C3A67445  24.481  32.286   7.055
10884POPC   C4A67446  24.464  32.219   7.355
10884POPC   C1B67447  24.451  32.528   6.455
10884POPC   C2B67448  24.465  32.476   6.755
10884POPC   C3B67449  24.508  32.482   7.055
10884POPC   C4B67450  24.498  32.461   7.355
10885POPC   NC367451  10.505  44.679   5.555
10885POPC   PO467452  10.554  44.694   5.855
10885POPC   GL167453  10.476  44.644   6.155
10885POPC   GL267454  10.665  44.639   6.155
10885POPC   C1A67455  10.501  44.670   6.455
10885POPC   D2A67456  10.542  44.699   6.755
10885POPC   C3A67457  10.501  44.641   7.055
10885POPC   C4A67458  10.512  44.633   7.355
10885POPC   C1B67459  10.785  44.591   6.455
10885POPC   C2B67460  10.744  44.596   6.755
10885POPC   C3B67461  10.784  44.617   7.055
10885POPC   C4B67462  10.773  44.597   7.355
10886POPC   NC367463   9.009  41.553   5.555
10886POPC   PO467464   8.958  41.597   5.855
10886POPC   GL167465   8.950  41.589   6.155
10886POPC   GL267466   8.925  41.474   6.155
10886POPC   C1A67467   8.948  41.532   6.455
10886POPC   D2A67468   8.996  41.567   6.755
10886POPC   C3A67469   9.019  41.598   7.055
10886POPC   C4A67470   9.008  41.567   7.355
10886POPC   C1B67471   8.902  41.308   6.455
10886POPC   C2B67472   8.945  41.360   6.755
10886POPC   C3B67473   8.927  41.356   7.055
10886POPC   C4B67474   8.920  41.283   7.355
10887POPC   NC367475  18.269  34.554   5.555
10887POPC   PO467476  18.271  34.544   5.855
10887POPC   GL167477  18.280  34.555   6.155
10887POPC   GL267478  18.201  34.434   6.155
10887POPC   C1A67479  18.235  34.612   6.455
10887POPC   D2A67480  18.248  34.583   6.755
10887POPC   C3A67481  18.298  34.573   7.055
10887POPC   C4A67482  18.263  34.614   7.355
10887POPC   C1B67483  18.194  34.304   6.455
10887POPC   C2B67484  18.187  34.362   6.755
10887POPC   C3B67485  18.168  34.360   7.055
10887POPC   C4B67486  18.178  34.320   7.355
10888POPC   NC367487  38.419  43.868   5.555
10888POPC   PO467488  38.493  43.848   5.855
10888POPC   GL167489  38.469  43.865   6.155
10888POPC   GL267490  38.486  43.960   6.155
10888POPC   C1A67491  38.438  43.923   6.455
10888POPC   D2A67492  38.438  43.841   6.755
10888POPC   C3A67493  38.493  43.865   7.055
10888POPC   C4A67494  38.433  43.922   7.355
10888POPC   C1B67495  38.551  44.106   6.455
10888POPC   C2B67496  38.612  44.153   6.755
10888POPC   C3B67497  38.549  44.104   7.055
10888POPC   C4B67498  38.575  44.132   7.355
10889POPC   NC367499  37.714  15.907   5.555
10889POPC   PO467500  37.705  15.938   5.855
10889POPC   GL167501  37.707  15.920   6.155
10889POPC   GL267502  37.823  16.023   6.155
10889POPC   C1A67503  37.658  15.922   6.455
10889POPC   D2A67504  37.702  15.995   6.755
10889POPC   C3A67505  37.709  15.985   7.055
10889POPC   C4A67506  37.723  15.970   7.355
10889POPC   C1B67507  37.953  15.980   6.455
10889POPC   C2B67508  37.890  15.992   6.755
10889POPC   C3B67509  37.893  16.048   7.055
10889POPC   C4B67510  37.954  15.992   7.355
10890POPC   NC367511   1.181   5.142   5.555
10890POPC   PO467512   1.198   5.066   5.855
10890POPC   GL167513   1.248   5.130   6.155
10890POPC   GL267514   1.358   5.042   6.155
10890POPC   C1A67515   1.263   5.104   6.455
10890POPC   D2A67516   1.180   5.054   6.755
10890POPC   C3A67517   1.232   5.111   7.055
10890POPC   C4A67518   1.182   5.044   7.355
10890POPC   C1B67519   1.510   5.108   6.455
10890POPC   C2B67520   1.471   5.108   6.755
10890POPC   C3B67521   1.498   5.081   7.055
10890POPC   C4B67522   1.437   5.081   7.355
10891POPC   NC367523   5.872  30.666   5.555
10891POPC   PO467524   5.835  30.699   5.855
10891POPC   GL167525   5.851  30.742   6.155
10891POPC   GL267526   5.960  30.749   6.155
10891POPC   C1A67527   5.862  30.676   6.455
10891POPC   D2A67528   5.821  30.745   6.755
10891POPC   C3A67529   5.854  30.648   7.055
10891POPC   C4A67530   5.841  30.679   7.355
10891POPC   C1B67531   6.051  30.876   6.455
10891POPC   C2B67532   6.035  30.881   6.755
10891POPC   C3B67533   5.991  30.873   7.055
10891POPC   C4B67534   5.998  30.860   7.355
10892POPC   NC367535  42.354  29.943   5.555
10892POPC   PO467536  42.309  29.951   5.855
10892POPC   GL167537  42.338  29.923   6.155
10892POPC   GL267538  42.318  29.837   6.155
10892POPC   C1A67539  42.305  29.961   6.455
10892POPC   D2A67540  42.350  29.919   6.755
10892POPC   C3A67541  42.293  29.960   7.055
10892POPC   C4A67542  42.346  29.945   7.355
10892POPC   C1B67543  42.295  29.684   6.455
10892POPC   C2B67544  42.352  29.692   6.755
10892POPC   C3B67545  42.296  29.625   7.055
10892POPC   C4B67546  42.272  29.693   7.355
10893POPC   NC367547  28.331   2.035   5.555
10893POPC   PO467548  28.346   2.034   5.855
10893POPC   GL167549  28.363   1.957   6.155
10893POPC   GL267550  28.462   2.061   6.155
10893POPC   C1A67551  28.412   1.956   6.455
10893POPC   D2A67552  28.327   1.983   6.755
10893POPC   C3A67553  28.335   1.958   7.055
10893POPC   C4A67554  28.413   1.946   7.355
10893POPC   C1B67555  28.514   2.160   6.455
10893POPC   C2B67556  28.494   2.208   6.755
10893POPC   C3B67557  28.504   2.153   7.055
10893POPC   C4B67558  28.516   2.218   7.355
10894POPC   NC367559  30.680  22.139   5.555
10894POPC   PO467560  30.647  22.197   5.855
10894POPC   GL167561  30.735  22.176   6.155
10894POPC   GL267562  30.788  22.286   6.155
10894POPC   C1A67563  30.734  22.150   6.455
10894POPC   D2A67564  30.649  22.198   6.755
10894POPC   C3A67565  30.695  22.159   7.055
10894POPC   C4A67566  30.716  22.148   7.355
10894POPC   C1B67567  30.828  22.325   6.455
10894POPC   C2B67568  30.815  22.346   6.755
10894POPC   C3B67569  30.888  22.331   7.055
10894POPC   C4B67570  30.891  22.343   7.355
10895POPC   NC367571  29.153  43.146   5.555
10895POPC   PO467572  29.161  43.140   5.855
10895POPC   GL167573  29.172  43.065   6.155
10895POPC   GL267574  29.091  42.983   6.155
10895POPC   C1A67575  29.115  43.160   6.455
10895POPC   D2A67576  29.171  43.130   6.755
10895POPC   C3A67577  29.102  43.160   7.055
10895POPC   C4A67578  29.176  43.097   7.355
10895POPC   C1B67579  28.997  42.899   6.455
10895POPC   C2B67580  29.052  42.914   6.755
10895POPC   C3B67581  29.007  42.900   7.055
10895POPC   C4B67582  29.022  42.894   7.355
10896POPC   NC367583  12.037  41.582   5.555
10896POPC   PO467584  12.066  41.595   5.855
10896POPC   GL167585  12.032  41.515   6.155
10896POPC   GL267586  12.193  41.619   6.155
10896POPC   C1A67587  12.114  41.563   6.455
10896POPC   D2A67588  12.107  41.553   6.755
10896POPC   C3A67589  12.099  41.509   7.055
10896POPC   C4A67590  12.104  41.553   7.355
10896POPC   C1B67591  12.295  41.558   6.455
10896POPC   C2B67592  12.285  41.593   6.755
10896POPC   C3B67593  12.364  41.623   7.055
10896POPC   C4B67594  12.361  41.571   7.355
10897POPC   NC367595  10.562   4.281   5.555
10897POPC   PO467596  10.484   4.326   5.855
10897POPC   GL167597  10.567   4.366   6.155
10897POPC   GL267598  10.579   4.453   6.155
10897POPC   C1A67599  10.482   4.359   6.455
10897POPC   D2A67600  10.514   4.339   6.755
10897POPC   C3A67601  10.532   4.318   7.055
10897POPC   C4A67602  10.530   4.276   7.355
10897POPC   C1B67603  10.693   4.526   6.455
10897POPC   C2B67604  10.659   4.460   6.755
10897POPC   C3B67605  10.713   4.548   7.055
10897POPC   C4B67606  10.666   4.473   7.355
10898POPC   NC367607  27.569  44.702   5.555
10898POPC   PO467608  27.595  44.694   5.855
10898POPC   GL167609  27.588  44.698   6.155
10898POPC   GL267610  27.720  44.729   6.155
10898POPC   C1A67611  27.554  44.676   6.455
10898POPC   D2A67612  27.604  44.626   6.755
10898POPC   C3A67613  27.642  44.672   7.055
10898POPC   C4A67614  27.628  44.636   7.355
10898POPC   C1B67615  27.790  44.765   6.455
10898POPC   C2B67616  27.863  44.697   6.755
10898POPC   C3B67617  27.840  44.675   7.055
10898POPC   C4B67618  27.870  44.756   7.355
10899POPC   NC367619  10.483  22.914   5.555
10899POPC   PO467620  10.503  22.985   5.855
10899POPC   GL167621  10.533  22.961   6.155
10899POPC   GL267622  10.683  22.908   6.155
10899POPC   C1A67623  10.532  22.924   6.455
10899POPC   D2A67624  10.511  22.981   6.755
10899POPC   C3A67625  10.521  22.925   7.055
10899POPC   C4A67626  10.495  22.902   7.355
10899POPC   C1B67627  10.714  22.845   6.455
10899POPC   C2B67628  10.714  22.882   6.755
10899POPC   C3B67629  10.789  22.878   7.055
10899POPC   C4B67630  10.780  22.866   7.355
10900POPC   NC367631  23.675  43.847   5.555
10900POPC   PO467632  23.725  43.849   5.855
10900POPC   GL167633  23.732  43.876   6.155
10900POPC   GL267634  23.643  44.052   6.155
10900POPC   C1A67635  23.731  43.873   6.455
10900POPC   D2A67636  23.750  43.862   6.755
10900POPC   C3A67637  23.695  43.871   7.055
10900POPC   C4A67638  23.741  43.922   7.355
10900POPC   C1B67639  23.654  44.153   6.455
10900POPC   C2B67640  23.646  44.081   6.755
10900POPC   C3B67641  23.653  44.167   7.055
10900POPC   C4B67642  23.586  44.157   7.355
10901POPC   NC367643  19.039  33.030   5.555
10901POPC   PO467644  19.061  33.013   5.855
10901POPC   GL167645  19.014  33.027   6.155
10901POPC   GL267646  19.208  32.937   6.155
10901POPC   C1A67647  19.100  33.041   6.455
10901POPC   D2A67648  19.025  32.993   6.755
10901POPC   C3A67649  19.067  33.050   7.055
10901POPC   C4A67650  19.049  33.004   7.355
10901POPC   C1B67651  19.259  32.895   6.455
10901POPC   C2B67652  19.272  32.973   6.755
10901POPC   C3B67653  19.243  32.918   7.055
10901POPC   C4B67654  19.282  32.922   7.355
10902POPC   NC367655  20.566  40.017   5.555
10902POPC   PO467656  20.570  40.014   5.855
10902POPC   GL167657  20.643  39.963   6.155
10902POPC   GL267658  20.466  40.042   6.155
10902POPC   C1A67659  20.650  40.026   6.455
10902POPC   D2A67660  20.575  39.994   6.755
10902POPC   C3A67661  20.604  40.007   7.055
10902POPC   C4A67662  20.573  40.034   7.355
10902POPC   C1B67663  20.401  40.091   6.455
10902POPC   C2B67664  20.399  40.112   6.755
10902POPC   C3B67665  20.431  40.089   7.055
10902POPC   C4B67666  20.392  40.113   7.355
10903POPC   NC367667  36.107   9.762   5.555
10903POPC   PO467668  36.156   9.723   5.855
10903POPC   GL167669  36.169   9.702   6.155
10903POPC   GL267670  36.078   9.651   6.155
10903POPC   C1A67671  36.078   9.746   6.455
10903POPC   D2A67672  36.155   9.785   6.755
10903POPC   C3A67673  36.168   9.743   7.055
10903POPC   C4A67674  36.079   9.759   7.355
10903POPC   C1B67675  35.902   9.567   6.455
10903POPC   C2B67676  35.961   9.597   6.755
10903POPC   C3B67677  35.937   9.580   7.055
10903POPC   C4B67678  35.927   9.603   7.355
10904POPC   NC367679  32.249   5.075   5.555
10904POPC   PO467680  32.204   5.092   5.855
10904POPC   GL167681  32.277   5.081   6.155
10904POPC   GL267682  32.150   5.004   6.155
10904POPC   C1A67683  32.213   5.075   6.455
10904POPC   D2A67684  32.281   5.115   6.755
10904POPC   C3A67685  32.253   5.132   7.055
10904POPC   C4A67686  32.227   5.138   7.355
10904POPC   C1B67687  32.112   4.925   6.455
10904POPC   C2B67688  32.107   4.920   6.755
10904POPC   C3B67689  32.138   4.886   7.055
10904POPC   C4B67690  32.130   4.851   7.355
10905POPC   NC367691  43.850   7.435   5.555
10905POPC   PO467692  43.913   7.416   5.855
10905POPC   GL167693  43.898   7.447   6.155
10905POPC   GL267694  43.799   7.305   6.155
10905POPC   C1A67695  43.866   7.443   6.455
10905POPC   D2A67696  43.858   7.468   6.755
10905POPC   C3A67697  43.858   7.460   7.055
10905POPC   C4A67698  43.902   7.389   7.355
10905POPC   C1B67699  43.810   7.200   6.455
10905POPC   C2B67700  43.771   7.206   6.755
10905POPC   C3B67701  43.777   7.187   7.055
10905POPC   C4B67702  43.776   7.193   7.355
10906POPC   NC367703  39.260   9.010   5.555
10906POPC   PO467704  39.245   8.939   5.855
10906POPC   GL167705  39.224   8.997   6.155
10906POPC   GL267706  39.361   8.917   6.155
10906POPC   C1A67707  39.242   9.020   6.455
10906POPC   D2A67708  39.219   8.990   6.755
10906POPC   C3A67709  39.266   8.963   7.055
10906POPC   C4A67710  39.191   8.947   7.355
10906POPC   C1B67711  39.455   8.827   6.455
10906POPC   C2B67712  39.474   8.792   6.755
10906POPC   C3B67713  39.438   8.801   7.055
10906POPC   C4B67714  39.425   8.807   7.355
10907POPC   NC367715  36.923   6.643   5.555
10907POPC   PO467716  36.854   6.646   5.855
10907POPC   GL167717  36.931   6.641   6.155
10907POPC   GL267718  37.072   6.636   6.155
10907POPC   C1A67719  36.924   6.645   6.455
10907POPC   D2A67720  36.903   6.667   6.755
10907POPC   C3A67721  36.920   6.636   7.055
10907POPC   C4A67722  36.941   6.636   7.355
10907POPC   C1B67723  37.105   6.685   6.455
10907POPC   C2B67724  37.174   6.702   6.755
10907POPC   C3B67725  37.124   6.708   7.055
10907POPC   C4B67726  37.163   6.741   7.355
10908POPC   NC367727   5.053   3.546   5.555
10908POPC   PO467728   5.136   3.510   5.855
10908POPC   GL167729   5.137   3.570   6.155
10908POPC   GL267730   5.011   3.629   6.155
10908POPC   C1A67731   5.044   3.527   6.455
10908POPC   D2A67732   5.096   3.556   6.755
10908POPC   C3A67733   5.052   3.524   7.055
10908POPC   C4A67734   5.072   3.529   7.355
10908POPC   C1B67735   4.865   3.762   6.455
10908POPC   C2B67736   4.902   3.755   6.755
10908POPC   C3B67737   4.913   3.676   7.055
10908POPC   C4B67738   4.948   3.705   7.355
10909POPC   NC367739  10.525   0.430   5.555
10909POPC   PO467740  10.547   0.432   5.855
10909POPC   GL167741  10.553   0.470   6.155
10909POPC   GL267742  10.409   0.500   6.155
10909POPC   C1A67743  10.476   0.399   6.455
10909POPC   D2A67744  10.475   0.472   6.755
10909POPC   C3A67745  10.513   0.441   7.055
10909POPC   C4A67746  10.534   0.478   7.355
10909POPC   C1B67747  10.366   0.647   6.455
10909POPC   C2B67748  10.406   0.610   6.755
10909POPC   C3B67749  10.416   0.653   7.055
10909POPC   C4B67750  10.440   0.625   7.355
10910POPC   NC367751  34.572  19.076   5.555
10910POPC   PO467752  34.576  19.060   5.855
10910POPC   GL167753  34.583  19.031   6.155
10910POPC   GL267754  34.538  19.195   6.155
10910POPC   C1A67755  34.593  19.100   6.455
10910POPC   D2A67756  34.563  19.026   6.755
10910POPC   C3A67757  34.614  19.056   7.055
10910POPC   C4A67758  34.572  19.019   7.355
10910POPC   C1B67759  34.444  19.266   6.455
10910POPC   C2B67760  34.446  19.236   6.755
10910POPC   C3B67761  34.433  19.272   7.055
10910POPC   C4B67762  34.412  19.249   7.355
10911POPC   NC367763  16.694  12.805   5.555
10911POPC   PO467764  16.760  12.861   5.855
10911POPC   GL167765  16.739  12.804   6.155
10911POPC   GL267766  16.697  12.757   6.155
10911POPC   C1A67767  16.726  12.854   6.455
10911POPC   D2A67768  16.700  12.826   6.755
10911POPC   C3A67769  16.762  12.868   7.055
10911POPC   C4A67770  16.711  12.842   7.355
10911POPC   C1B67771  16.684  12.585   6.455
10911POPC   C2B67772  16.698  12.567   6.755
10911POPC   C3B67773  16.694  12.593   7.055
10911POPC   C4B67774  16.700  12.597   7.355
10912POPC   NC367775  14.362  43.121   5.555
10912POPC   PO467776  14.394  43.137   5.855
10912POPC   GL167777  14.424  43.124   6.155
10912POPC   GL267778  14.482  43.196   6.155
10912POPC   C1A67779  14.428  43.062   6.455
10912POPC   D2A67780  14.435  43.116   6.755
10912POPC   C3A67781  14.364  43.117   7.055
10912POPC   C4A67782  14.442  43.135   7.355
10912POPC   C1B67783  14.486  43.302   6.455
10912POPC   C2B67784  14.517  43.345   6.755
10912POPC   C3B67785  14.518  43.378   7.055
10912POPC   C4B67786  14.435  43.300   7.355
10913POPC   NC367787   4.358   3.510   5.555
10913POPC   PO467788   4.322   3.541   5.855
10913POPC   GL167789   4.269   3.531   6.155
10913POPC   GL267790   4.273   3.396   6.155
10913POPC   C1A67791   4.342   3.544   6.455
10913POPC   D2A67792   4.274   3.580   6.755
10913POPC   C3A67793   4.302   3.549   7.055
10913POPC   C4A67794   4.284   3.504   7.355
10913POPC   C1B67795   4.194   3.352   6.455
10913POPC   C2B67796   4.181   3.296   6.755
10913POPC   C3B67797   4.180   3.363   7.055
10913POPC   C4B67798   4.133   3.377   7.355
10914POPC   NC367799  10.493  40.785   5.555
10914POPC   PO467800  10.529  40.759   5.855
10914POPC   GL167801  10.547  40.801   6.155
10914POPC   GL267802  10.609  40.734   6.155
10914POPC   C1A67803  10.481  40.754   6.455
10914POPC   D2A67804  10.479  40.813   6.755
10914POPC   C3A67805  10.574  40.739   7.055
10914POPC   C4A67806  10.528  40.753   7.355
10914POPC   C1B67807  10.732  40.795   6.455
10914POPC   C2B67808  10.760  40.798   6.755
10914POPC   C3B67809  10.732  40.794   7.055
10914POPC   C4B67810  10.755  40.801   7.355
10915POPC   NC367811   1.185  16.682   5.555
10915POPC   PO467812   1.178  16.749   5.855
10915POPC   GL167813   1.169  16.737   6.155
10915POPC   GL267814   1.315  16.767   6.155
10915POPC   C1A67815   1.256  16.720   6.455
10915POPC   D2A67816   1.164  16.694   6.755
10915POPC   C3A67817   1.215  16.774   7.055
10915POPC   C4A67818   1.239  16.741   7.355
10915POPC   C1B67819   1.476  16.778   6.455
10915POPC   C2B67820   1.436  16.746   6.755
10915POPC   C3B67821   1.414  16.739   7.055
10915POPC   C4B67822   1.414  16.794   7.355
10916POPC   NC367823  20.566   0.413   5.555
10916POPC   PO467824  20.654   0.462   5.855
10916POPC   GL167825  20.599   0.444   6.155
10916POPC   GL267826  20.609   0.273   6.155
10916POPC   C1A67827  20.624   0.419   6.455
10916POPC   D2A67828  20.589   0.474   6.755
10916POPC   C3A67829  20.564   0.405   7.055
10916POPC   C4A67830  20.572   0.462   7.355
10916POPC   C1B67831  20.588   0.153   6.455
10916POPC   C2B67832  20.540   0.187   6.755
10916POPC   C3B67833  20.601   0.215   7.055
10916POPC   C4B67834  20.566   0.188   7.355
10917POPC   NC367835  14.358   5.850   5.555
10917POPC   PO467836  14.384   5.918   5.855
10917POPC   GL167837  14.407   5.825   6.155
10917POPC   GL267838  14.537   5.856   6.155
10917POPC   C1A67839  14.368   5.866   6.455
10917POPC   D2A67840  14.410   5.877   6.755
10917POPC   C3A67841  14.445   5.905   7.055
10917POPC   C4A67842  14.365   5.833   7.355
10917POPC   C1B67843  14.690   5.867   6.455
10917POPC   C2B67844  14.609   5.854   6.755
10917POPC   C3B67845  14.665   5.869   7.055
10917POPC   C4B67846  14.661   5.832   7.355
10918POPC   NC367847   8.212  29.917   5.555
10918POPC   PO467848   8.221  29.969   5.855
10918POPC   GL167849   8.240  29.884   6.155
10918POPC   GL267850   8.062  29.850   6.155
10918POPC   C1A67851   8.243  29.920   6.455
10918POPC   D2A67852   8.213  29.881   6.755
10918POPC   C3A67853   8.230  29.932   7.055
10918POPC   C4A67854   8.245  29.889   7.355
10918POPC   C1B67855   7.971  29.850   6.455
10918POPC   C2B67856   7.904  29.891   6.755
10918POPC   C3B67857   7.942  29.902   7.055
10918POPC   C4B67858   7.905  29.864   7.355
10919POPC   NC367859  10.502  34.586   5.555
10919POPC   PO467860  10.535  34.556   5.855
10919POPC   GL167861  10.498  34.592   6.155
10919POPC   GL267862  10.528  34.660   6.155
10919POPC   C1A67863  10.480  34.585   6.455
10919POPC   D2A67864  10.519  34.601   6.755
10919POPC   C3A67865  10.499  34.542   7.055
10919POPC   C4A67866  10.545  34.594   7.355
10919POPC   C1B67867  10.480  34.783   6.455
10919POPC   C2B67868  10.546  34.867   6.755
10919POPC   C3B67869  10.572  34.804   7.055
10919POPC   C4B67870  10.556  34.827   7.355
10920POPC   NC367871  38.476  31.487   5.555
10920POPC   PO467872  38.450  31.519   5.855
10920POPC   GL167873  38.422  31.452   6.155
10920POPC   GL267874  38.366  31.360   6.155
10920POPC   C1A67875  38.416  31.477   6.455
10920POPC   D2A67876  38.502  31.515   6.755
10920POPC   C3A67877  38.496  31.433   7.055
10920POPC   C4A67878  38.420  31.480   7.355
10920POPC   C1B67879  38.318  31.269   6.455
10920POPC   C2B67880  38.290  31.287   6.755
10920POPC   C3B67881  38.286  31.278   7.055
10920POPC   C4B67882  38.314  31.225   7.355
10921POPC   NC367883  33.007  17.469   5.555
10921POPC   PO467884  33.072  17.550   5.855
10921POPC   GL167885  33.071  17.522   6.155
10921POPC   GL267886  33.039  17.350   6.155
10921POPC   C1A67887  33.036  17.533   6.455
10921POPC   D2A67888  33.038  17.542   6.755
10921POPC   C3A67889  33.058  17.485   7.055
10921POPC   C4A67890  33.030  17.523   7.355
10921POPC   C1B67891  33.024  17.300   6.455
10921POPC   C2B67892  33.005  17.212   6.755
10921POPC   C3B67893  33.074  17.276   7.055
10921POPC   C4B67894  33.036  17.226   7.355
10922POPC   NC367895   1.257  32.274   5.555
10922POPC   PO467896   1.216  32.277   5.855
10922POPC   GL167897   1.249  32.290   6.155
10922POPC   GL267898   1.191  32.114   6.155
10922POPC   C1A67899   1.258  32.248   6.455
10922POPC   D2A67900   1.173  32.226   6.755
10922POPC   C3A67901   1.181  32.214   7.055
10922POPC   C4A67902   1.230  32.224   7.355
10922POPC   C1B67903   1.202  32.031   6.455
10922POPC   C2B67904   1.144  32.008   6.755
10922POPC   C3B67905   1.160  31.956   7.055
10922POPC   C4B67906   1.158  31.990   7.355
10923POPC   NC367907  39.239  19.056   5.555
10923POPC   PO467908  39.216  19.055   5.855
10923POPC   GL167909  39.185  19.045   6.155
10923POPC   GL267910  39.267  19.140   6.155
10923POPC   C1A67911  39.226  19.092   6.455
10923POPC   D2A67912  39.269  19.058   6.755
10923POPC   C3A67913  39.187  19.055   7.055
10923POPC   C4A67914  39.217  19.062   7.355
10923POPC   C1B67915  39.350  19.264   6.455
10923POPC   C2B67916  39.430  19.285   6.755
10923POPC   C3B67917  39.350  19.282   7.055
10923POPC   C4B67918  39.345  19.252   7.355
10924POPC   NC367919  11.342  33.849   5.555
10924POPC   PO467920  11.298  33.823   5.855
10924POPC   GL167921  11.336  33.784   6.155
10924POPC   GL267922  11.129  33.813   6.155
10924POPC   C1A67923  11.277  33.781   6.455
10924POPC   D2A67924  11.294  33.836   6.755
10924POPC   C3A67925  11.322  33.825   7.055
10924POPC   C4A67926  11.260  33.813   7.355
10924POPC   C1B67927  11.077  33.774   6.455
10924POPC   C2B67928  11.021  33.768   6.755
10924POPC   C3B67929  11.069  33.820   7.055
10924POPC   C4B67930  11.065  33.805   7.355
10925POPC   NC367931  36.081  24.494   5.555
10925POPC   PO467932  36.154  24.491   5.855
10925POPC   GL167933  36.140  24.497   6.155
10925POPC   GL267934  36.072  24.621   6.155
10925POPC   C1A67935  36.147  24.459   6.455
10925POPC   D2A67936  36.144  24.474   6.755
10925POPC   C3A67937  36.152  24.538   7.055
10925POPC   C4A67938  36.142  24.499   7.355
10925POPC   C1B67939  35.980  24.713   6.455
10925POPC   C2B67940  36.053  24.688   6.755
10925POPC   C3B67941  35.978  24.723   7.055
10925POPC   C4B67942  36.051  24.715   7.355
10926POPC   NC367943  21.390   1.998   5.555
10926POPC   PO467944  21.431   1.944   5.855
10926POPC   GL167945  21.415   1.948   6.155
10926POPC   GL267946  21.490   2.099   6.155
10926POPC   C1A67947  21.380   1.947   6.455
10926POPC   D2A67948  21.404   1.959   6.755
10926POPC   C3A67949  21.360   2.030   7.055
10926POPC   C4A67950  21.382   2.017   7.355
10926POPC   C1B67951  21.596   2.114   6.455
10926POPC   C2B67952  21.597   2.204   6.755
10926POPC   C3B67953  21.601   2.124   7.055
10926POPC   C4B67954  21.564   2.201   7.355
10927POPC   NC367955   6.610   2.805   5.555
10927POPC   PO467956   6.619   2.729   5.855
10927POPC   GL167957   6.670   2.747   6.155
10927POPC   GL267958   6.726   2.836   6.155
10927POPC   C1A67959   6.658   2.784   6.455
10927POPC   D2A67960   6.603   2.785   6.755
10927POPC   C3A67961   6.666   2.733   7.055
10927POPC   C4A67962   6.606   2.781   7.355
10927POPC   C1B67963   6.801   2.979   6.455
10927POPC   C2B67964   6.743   2.994   6.755
10927POPC   C3B67965   6.758   2.937   7.055
10927POPC   C4B67966   6.815   3.023   7.355
10928POPC   NC367967   1.215  20.568   5.555
10928POPC   PO467968   1.243  20.591   5.855
10928POPC   GL167969   1.197  20.603   6.155
10928POPC   GL267970   1.123  20.559   6.155
10928POPC   C1A67971   1.234  20.595   6.455
10928POPC   D2A67972   1.263  20.582   6.755
10928POPC   C3A67973   1.189  20.648   7.055
10928POPC   C4A67974   1.169  20.616   7.355
10928POPC   C1B67975   1.022  20.476   6.455
10928POPC   C2B67976   1.047  20.450   6.755
10928POPC   C3B67977   1.086  20.463   7.055
10928POPC   C4B67978   1.087  20.420   7.355
10929POPC   NC367979  29.141  24.451   5.555
10929POPC   PO467980  29.149  24.496   5.855
10929POPC   GL167981  29.144  24.525   6.155
10929POPC   GL267982  29.056  24.440   6.155
10929POPC   C1A67983  29.187  24.528   6.455
10929POPC   D2A67984  29.125  24.447   6.755
10929POPC   C3A67985  29.163  24.440   7.055
10929POPC   C4A67986  29.115  24.504   7.355
10929POPC   C1B67987  28.925  24.430   6.455
10929POPC   C2B67988  28.871  24.432   6.755
10929POPC   C3B67989  28.875  24.486   7.055
10929POPC   C4B67990  28.879  24.476   7.355
10930POPC   NC367991  12.030  26.025   5.555
10930POPC   PO467992  12.080  26.029   5.855
10930POPC   GL167993  12.056  26.077   6.155
10930POPC   GL267994  12.076  26.198   6.155
10930POPC   C1A67995  12.070  26.042   6.455
10930POPC   D2A67996  12.108  25.996   6.755
10930POPC   C3A67997  12.100  26.031   7.055
10930POPC   C4A67998  12.039  25.995   7.355
10930POPC   C1B67999  12.082  26.246   6.455
10930POPC   C2B68000  12.032  26.278   6.755
10930POPC   C3B68001  12.095  26.246   7.055
10930POPC   C4B68002  12.086  26.267   7.355
10931POPC   NC368003  17.533  37.674   5.555
10931POPC   PO468004  17.533  37.663   5.855
10931POPC   GL168005  17.550  37.690   6.155
10931POPC   GL268006  17.393  37.592   6.155
10931POPC   C1A68007  17.517  37.706   6.455
10931POPC   D2A68008  17.496  37.677   6.755
10931POPC   C3A68009  17.521  37.666   7.055
10931POPC   C4A68010  17.500  37.634   7.355
10931POPC   C1B68011  17.226  37.615   6.455
10931POPC   C2B68012  17.275  37.631   6.755
10931POPC   C3B68013  17.283  37.606   7.055
10931POPC   C4B68014  17.268  37.592   7.355
10932POPC   NC368015  40.773  16.738   5.555
10932POPC   PO468016  40.747  16.696   5.855
10932POPC   GL168017  40.792  16.716   6.155
10932POPC   GL268018  40.690  16.844   6.155
10932POPC   C1A68019  40.791  16.756   6.455
10932POPC   D2A68020  40.803  16.699   6.755
10932POPC   C3A68021  40.741  16.778   7.055
10932POPC   C4A68022  40.760  16.747   7.355
10932POPC   C1B68023  40.647  16.906   6.455
10932POPC   C2B68024  40.583  16.942   6.755
10932POPC   C3B68025  40.642  16.890   7.055
10932POPC   C4B68026  40.582  16.924   7.355
10933POPC   NC368027   7.448  25.225   5.555
10933POPC   PO468028   7.410  25.260   5.855
10933POPC   GL168029   7.401  25.275   6.155
10933POPC   GL268030   7.506  25.358   6.155
10933POPC   C1A68031   7.421  25.284   6.455
10933POPC   D2A68032   7.373  25.311   6.755
10933POPC   C3A68033   7.377  25.226   7.055
10933POPC   C4A68034   7.383  25.255   7.355
10933POPC   C1B68035   7.535  25.510   6.455
10933POPC   C2B68036   7.602  25.449   6.755
10933POPC   C3B68037   7.590  25.464   7.055
10933POPC   C4B68038   7.517  25.477   7.355
10934POPC   NC368039  18.248   6.691   5.555
10934POPC   PO468040  18.294   6.604   5.855
10934POPC   GL168041  18.237   6.628   6.155
10934POPC   GL268042  18.355   6.566   6.155
10934POPC   C1A68043  18.321   6.685   6.455
10934POPC   D2A68044  18.268   6.617   6.755
10934POPC   C3A68045  18.263   6.674   7.055
10934POPC   C4A68046  18.243   6.686   7.355
10934POPC   C1B68047  18.529   6.496   6.455
10934POPC   C2B68048  18.524   6.555   6.755
10934POPC   C3B68049  18.473   6.526   7.055
10934POPC   C4B68050  18.503   6.540   7.355
10935POPC   NC368051   8.176  43.081   5.555
10935POPC   PO468052   8.170  43.122   5.855
10935POPC   GL168053   8.195  43.090   6.155
10935POPC   GL268054   8.156  42.937   6.155
10935POPC   C1A68055   8.149  43.080   6.455
10935POPC   D2A68056   8.161  43.072   6.755
10935POPC   C3A68057   8.207  43.129   7.055
10935POPC   C4A68058   8.187  43.124   7.355
10935POPC   C1B68059   8.185  42.864   6.455
10935POPC   C2B68060   8.187  42.896   6.755
10935POPC   C3B68061   8.231  42.861   7.055
10935POPC   C4B68062   8.192  42.891   7.355
10936POPC   NC368063  22.943  33.826   5.555
10936POPC   PO468064  22.983  33.814   5.855
10936POPC   GL168065  22.895  33.810   6.155
10936POPC   GL268066  23.051  33.867   6.155
10936POPC   C1A68067  22.896  33.817   6.455
10936POPC   D2A68068  22.948  33.779   6.755
10936POPC   C3A68069  22.940  33.771   7.055
10936POPC   C4A68070  22.953  33.773   7.355
10936POPC   C1B68071  23.039  34.045   6.455
10936POPC   C2B68072  23.066  34.011   6.755
10936POPC   C3B68073  23.115  34.010   7.055
10936POPC   C4B68074  23.077  34.032   7.355
10937POPC   NC368075  13.645  19.067   5.555
10937POPC   PO468076  13.623  19.072   5.855
10937POPC   GL168077  13.676  19.030   6.155
10937POPC   GL268078  13.776  19.094   6.155
10937POPC   C1A68079  13.596  19.089   6.455
10937POPC   D2A68080  13.622  19.094   6.755
10937POPC   C3A68081  13.590  19.093   7.055
10937POPC   C4A68082  13.630  19.060   7.355
10937POPC   C1B68083  13.903  19.129   6.455
10937POPC   C2B68084  13.861  19.171   6.755
10937POPC   C3B68085  13.912  19.113   7.055
10937POPC   C4B68086  13.895  19.108   7.355
10938POPC   NC368087   2.732  35.356   5.555
10938POPC   PO468088   2.766  35.345   5.855
10938POPC   GL168089   2.800  35.350   6.155
10938POPC   GL268090   2.745  35.180   6.155
10938POPC   C1A68091   2.720  35.312   6.455
10938POPC   D2A68092   2.792  35.332   6.755
10938POPC   C3A68093   2.803  35.334   7.055
10938POPC   C4A68094   2.783  35.330   7.355
10938POPC   C1B68095   2.817  35.105   6.455
10938POPC   C2B68096   2.782  35.146   6.755
10938POPC   C3B68097   2.813  35.055   7.055
10938POPC   C4B68098   2.743  35.144   7.355
10939POPC   NC368099  15.917  10.548   5.555
10939POPC   PO468100  15.909  10.571   5.855
10939POPC   GL168101  15.951  10.548   6.155
10939POPC   GL268102  15.794  10.534   6.155
10939POPC   C1A68103  15.906  10.520   6.455
10939POPC   D2A68104  15.918  10.526   6.755
10939POPC   C3A68105  15.923  10.523   7.055
10939POPC   C4A68106  15.941  10.486   7.355
10939POPC   C1B68107  15.662  10.615   6.455
10939POPC   C2B68108  15.713  10.625   6.755
10939POPC   C3B68109  15.730  10.619   7.055
10939POPC   C4B68110  15.694  10.573   7.355
10940POPC   NC368111  12.104  30.663   5.555
10940POPC   PO468112  12.034  30.724   5.855
10940POPC   GL168113  12.094  30.703   6.155
10940POPC   GL268114  12.158  30.583   6.155
10940POPC   C1A68115  12.087  30.724   6.455
10940POPC   D2A68116  12.118  30.713   6.755
10940POPC   C3A68117  12.076  30.650   7.055
10940POPC   C4A68118  12.053  30.659   7.355
10940POPC   C1B68119  12.210  30.471   6.455
10940POPC   C2B68120  12.219  30.532   6.755
10940POPC   C3B68121  12.174  30.483   7.055
10940POPC   C4B68122  12.166  30.509   7.355
10941POPC   NC368123  26.011  36.911   5.555
10941POPC   PO468124  26.067  36.947   5.855
10941POPC   GL168125  26.013  36.926   6.155
10941POPC   GL268126  26.098  37.022   6.155
10941POPC   C1A68127  26.043  36.952   6.455
10941POPC   D2A68128  26.084  36.888   6.755
10941POPC   C3A68129  26.081  36.868   7.055
10941POPC   C4A68130  26.011  36.892   7.355
10941POPC   C1B68131  26.057  37.119   6.455
10941POPC   C2B68132  26.059  37.157   6.755
10941POPC   C3B68133  26.081  37.142   7.055
10941POPC   C4B68134  26.083  37.188   7.355
10942POPC   NC368135  11.271  41.573   5.555
10942POPC   PO468136  11.330  41.525   5.855
10942POPC   GL168137  11.324  41.551   6.155
10942POPC   GL268138  11.429  41.576   6.155
10942POPC   C1A68139  11.328  41.556   6.455
10942POPC   D2A68140  11.259  41.521   6.755
10942POPC   C3A68141  11.281  41.525   7.055
10942POPC   C4A68142  11.291  41.571   7.355
10942POPC   C1B68143  11.584  41.530   6.455
10942POPC   C2B68144  11.588  41.478   6.755
10942POPC   C3B68145  11.554  41.518   7.055
10942POPC   C4B68146  11.563  41.480   7.355
10943POPC   NC368147   8.231   3.567   5.555
10943POPC   PO468148   8.210   3.500   5.855
10943POPC   GL168149   8.169   3.532   6.155
10943POPC   GL268150   8.099   3.476   6.155
10943POPC   C1A68151   8.225   3.543   6.455
10943POPC   D2A68152   8.193   3.494   6.755
10943POPC   C3A68153   8.151   3.518   7.055
10943POPC   C4A68154   8.198   3.545   7.355
10943POPC   C1B68155   7.971   3.527   6.455
10943POPC   C2B68156   7.976   3.511   6.755
10943POPC   C3B68157   7.908   3.486   7.055
10943POPC   C4B68158   7.924   3.520   7.355
10944POPC   NC368159  15.165  18.329   5.555
10944POPC   PO468160  15.159  18.315   5.855
10944POPC   GL168161  15.186  18.298   6.155
10944POPC   GL268162  15.121  18.191   6.155
10944POPC   C1A68163  15.209  18.273   6.455
10944POPC   D2A68164  15.173  18.316   6.755
10944POPC   C3A68165  15.198  18.240   7.055
10944POPC   C4A68166  15.226  18.236   7.355
10944POPC   C1B68167  15.103  18.064   6.455
10944POPC   C2B68168  15.173  18.021   6.755
10944POPC   C3B68169  15.125  17.991   7.055
10944POPC   C4B68170  15.172  18.051   7.355
10945POPC   NC368171  10.555  30.674   5.555
10945POPC   PO468172  10.562  30.671   5.855
10945POPC   GL168173  10.513  30.683   6.155
10945POPC   GL268174  10.375  30.622   6.155
10945POPC   C1A68175  10.525  30.655   6.455
10945POPC   D2A68176  10.524  30.738   6.755
10945POPC   C3A68177  10.490  30.684   7.055
10945POPC   C4A68178  10.499  30.732   7.355
10945POPC   C1B68179  10.266  30.574   6.455
10945POPC   C2B68180  10.318  30.617   6.755
10945POPC   C3B68181  10.338  30.576   7.055
10945POPC   C4B68182  10.336  30.591   7.355
10946POPC   NC368183  26.005  36.093   5.555
10946POPC   PO468184  26.084  36.142   5.855
10946POPC   GL168185  26.030  36.149   6.155
10946POPC   GL268186  26.146  36.108   6.155
10946POPC   C1A68187  26.042  36.120   6.455
10946POPC   D2A68188  26.036  36.086   6.755
10946POPC   C3A68189  26.014  36.102   7.055
10946POPC   C4A68190  26.023  36.115   7.355
10946POPC   C1B68191  26.281  36.165   6.455
10946POPC   C2B68192  26.316  36.109   6.755
10946POPC   C3B68193  26.316  36.078   7.055
10946POPC   C4B68194  26.249  36.129   7.355
10947POPC   NC368195  44.709   5.128   5.555
10947POPC   PO468196  44.642   5.118   5.855
10947POPC   GL168197  44.657   5.096   6.155
10947POPC   GL268198  44.572   5.259   6.155
10947POPC   C1A68199  44.630   5.129   6.455
10947POPC   D2A68200  44.642   5.045   6.755
10947POPC   C3A68201  44.636   5.107   7.055
10947POPC   C4A68202  44.663   5.060   7.355
10947POPC   C1B68203  44.627   5.369   6.455
10947POPC   C2B68204  44.603   5.336   6.755
10947POPC   C3B68205  44.554   5.356   7.055
10947POPC   C4B68206  44.592   5.371   7.355
10948POPC   NC368207  16.721  42.355   5.555
10948POPC   PO468208  16.737  42.361   5.855
10948POPC   GL168209  16.750  42.373   6.155
10948POPC   GL268210  16.821  42.408   6.155
10948POPC   C1A68211  16.757  42.339   6.455
10948POPC   D2A68212  16.722  42.320   6.755
10948POPC   C3A68213  16.752  42.381   7.055
10948POPC   C4A68214  16.698  42.342   7.355
10948POPC   C1B68215  16.934  42.467   6.455
10948POPC   C2B68216  16.936  42.445   6.755
10948POPC   C3B68217  16.966  42.425   7.055
10948POPC   C4B68218  16.925  42.426   7.355
10949POPC   NC368219  26.068  33.036   5.555
10949POPC   PO468220  26.066  33.041   5.855
10949POPC   GL168221  26.008  33.053   6.155
10949POPC   GL268222  25.940  32.947   6.155
10949POPC   C1A68223  26.007  33.013   6.455
10949POPC   D2A68224  26.078  32.995   6.755
10949POPC   C3A68225  26.039  32.975   7.055
10949POPC   C4A68226  26.011  33.054   7.355
10949POPC   C1B68227  25.844  32.835   6.455
10949POPC   C2B68228  25.849  32.831   6.755
10949POPC   C3B68229  25.850  32.821   7.055
10949POPC   C4B68230  25.891  32.877   7.355
10950POPC   NC368231  16.701   5.822   5.555
10950POPC   PO468232  16.745   5.891   5.855
10950POPC   GL168233  16.763   5.848   6.155
10950POPC   GL268234  16.654   5.951   6.155
10950POPC   C1A68235  16.722   5.862   6.455
10950POPC   D2A68236  16.747   5.832   6.755
10950POPC   C3A68237  16.757   5.849   7.055
10950POPC   C4A68238  16.710   5.854   7.355
10950POPC   C1B68239  16.578   6.007   6.455
10950POPC   C2B68240  16.592   6.067   6.755
10950POPC   C3B68241  16.572   6.030   7.055
10950POPC   C4B68242  16.536   6.007   7.355
10951POPC   NC368243   4.364  20.617   5.555
10951POPC   PO468244   4.354  20.569   5.855
10951POPC   GL168245   4.316  20.613   6.155
10951POPC   GL268246   4.237  20.573   6.155
10951POPC   C1A68247   4.279  20.572   6.455
10951POPC   D2A68248   4.353  20.638   6.755
10951POPC   C3A68249   4.347  20.587   7.055
10951POPC   C4A68250   4.337  20.652   7.355
10951POPC   C1B68251   4.110  20.622   6.455
10951POPC   C2B68252   4.106  20.586   6.755
10951POPC   C3B68253   4.056  20.678   7.055
10951POPC   C4B68254   4.110  20.625   7.355
10952POPC   NC368255  35.319  33.060   5.555
10952POPC   PO468256  35.401  33.011   5.855
10952POPC   GL168257  35.360  33.072   6.155
10952POPC   GL268258  35.226  33.034   6.155
10952POPC   C1A68259  35.329  33.065   6.455
10952POPC   D2A68260  35.312  32.975   6.755
10952POPC   C3A68261  35.306  33.026   7.055
10952POPC   C4A68262  35.330  33.044   7.355
10952POPC   C1B68263  35.107  33.055   6.455
10952POPC   C2B68264  35.106  32.998   6.755
10952POPC   C3B68265  35.066  33.037   7.055
10952POPC   C4B68266  35.104  33.039   7.355
10953POPC   NC368267  40.787  10.481   5.555
10953POPC   PO468268  40.763  10.489   5.855
10953POPC   GL168269  40.810  10.495   6.155
10953POPC   GL268270  40.879  10.511   6.155
10953POPC   C1A68271  40.780  10.489   6.455
10953POPC   D2A68272  40.778  10.501   6.755
10953POPC   C3A68273  40.821  10.511   7.055
10953POPC   C4A68274  40.757  10.516   7.355
10953POPC   C1B68275  41.011  10.613   6.455
10953POPC   C2B68276  41.011  10.566   6.755
10953POPC   C3B68277  41.045  10.563   7.055
10953POPC   C4B68278  41.033  10.598   7.355
10954POPC   NC368279   8.206  16.729   5.555
10954POPC   PO468280   8.242  16.772   5.855
10954POPC   GL168281   8.188  16.702   6.155
10954POPC   GL268282   8.155  16.623   6.155
10954POPC   C1A68283   8.229  16.725   6.455
10954POPC   D2A68284   8.212  16.774   6.755
10954POPC   C3A68285   8.225  16.716   7.055
10954POPC   C4A68286   8.221  16.777   7.355
10954POPC   C1B68287   7.992  16.591   6.455
10954POPC   C2B68288   8.046  16.576   6.755
10954POPC   C3B68289   8.006  16.559   7.055
10954POPC   C4B68290   7.990  16.528   7.355
10955POPC   NC368291   5.081  27.633   5.555
10955POPC   PO468292   5.116  27.614   5.855
10955POPC   GL168293   5.110  27.546   6.155
10955POPC   GL268294   5.245  27.581   6.155
10955POPC   C1A68295   5.044  27.547   6.455
10955POPC   D2A68296   5.067  27.560   6.755
10955POPC   C3A68297   5.122  27.616   7.055
10955POPC   C4A68298   5.089  27.631   7.355
10955POPC   C1B68299   5.320  27.502   6.455
10955POPC   C2B68300   5.301  27.563   6.755
10955POPC   C3B68301   5.382  27.570   7.055
10955POPC   C4B68302   5.297  27.550   7.355
10956POPC   NC368303   3.508   0.446   5.555
10956POPC   PO468304   3.521   0.433   5.855
10956POPC   GL168305   3.588   0.473   6.155
10956POPC   GL268306   3.489   0.573   6.155
10956POPC   C1A68307   3.589   0.408   6.455
10956POPC   D2A68308   3.575   0.404   6.755
10956POPC   C3A68309   3.548   0.422   7.055
10956POPC   C4A68310   3.587   0.397   7.355
10956POPC   C1B68311   3.475   0.676   6.455
10956POPC   C2B68312   3.402   0.665   6.755
10956POPC   C3B68313   3.474   0.636   7.055
10956POPC   C4B68314   3.439   0.677   7.355
10957POPC   NC368315  41.552   2.721   5.555
10957POPC   PO468316  41.581   2.798   5.855
10957POPC   GL168317  41.546   2.721   6.155
10957POPC   GL268318  41.546   2.928   6.155
10957POPC   C1A68319  41.550   2.813   6.455
10957POPC   D2A68320  41.557   2.768   6.755
10957POPC   C3A68321  41.532   2.731   7.055
10957POPC   C4A68322  41.595   2.785   7.355
10957POPC   C1B68323  41.494   3.034   6.455
10957POPC   C2B68324  41.563   3.051   6.755
10957POPC   C3B68325  41.559   3.020   7.055
10957POPC   C4B68326  41.528   3.015   7.355
10958POPC   NC368327   5.851   1.240   5.555
10958POPC   PO468328   5.869   1.208   5.855
10958POPC   GL168329   5.894   1.249   6.155
10958POPC   GL268330   5.924   1.140   6.155
10958POPC   C1A68331   5.866   1.206   6.455
10958POPC   D2A68332   5.842   1.172   6.755
10958POPC   C3A68333   5.903   1.222   7.055
10958POPC   C4A68334   5.823   1.216   7.355
10958POPC   C1B68335   5.962   0.949   6.455
10958POPC   C2B68336   5.951   1.024   6.755
10958POPC   C3B68337   5.971   0.991   7.055
10958POPC   C4B68338   5.985   0.986   7.355
10959POPC   NC368339  17.500  12.815   5.555
10959POPC   PO468340  17.540  12.809   5.855
10959POPC   GL168341  17.470  12.892   6.155
10959POPC   GL268342  17.631  12.899   6.155
10959POPC   C1A68343  17.486  12.900   6.455
10959POPC   D2A68344  17.531  12.830   6.755
10959POPC   C3A68345  17.480  12.820   7.055
10959POPC   C4A68346  17.497  12.819   7.355
10959POPC   C1B68347  17.742  12.878   6.455
10959POPC   C2B68348  17.730  12.837   6.755
10959POPC   C3B68349  17.724  12.845   7.055
10959POPC   C4B68350  17.779  12.819   7.355
10960POPC   NC368351  19.828   5.124   5.555
10960POPC   PO468352  19.806   5.106   5.855
10960POPC   GL168353  19.786   5.096   6.155
10960POPC   GL268354  19.788   4.961   6.155
10960POPC   C1A68355  19.861   5.085   6.455
10960POPC   D2A68356  19.869   5.100   6.755
10960POPC   C3A68357  19.877   5.141   7.055
10960POPC   C4A68358  19.838   5.113   7.355
10960POPC   C1B68359  19.793   4.836   6.455
10960POPC   C2B68360  19.783   4.876   6.755
10960POPC   C3B68361  19.759   4.808   7.055
10960POPC   C4B68362  19.746   4.812   7.355
10961POPC   NC368363  43.149   8.936   5.555
10961POPC   PO468364  43.126   8.934   5.855
10961POPC   GL168365  43.152   8.985   6.155
10961POPC   GL268366  43.260   8.967   6.155
10961POPC   C1A68367  43.090   9.022   6.455
10961POPC   D2A68368  43.107   8.997   6.755
10961POPC   C3A68369  43.126   9.002   7.055
10961POPC   C4A68370  43.092   8.992   7.355
10961POPC   C1B68371  43.384   8.881   6.455
10961POPC   C2B68372  43.356   8.945   6.755
10961POPC   C3B68373  43.350   8.936   7.055
10961POPC   C4B68374  43.368   8.924   7.355
10962POPC   NC368375  40.023   2.812   5.555
10962POPC   PO468376  39.974   2.755   5.855
10962POPC   GL168377  39.984   2.768   6.155
10962POPC   GL268378  39.961   2.674   6.155
10962POPC   C1A68379  39.957   2.744   6.455
10962POPC   D2A68380  39.963   2.784   6.755
10962POPC   C3A68381  40.005   2.747   7.055
10962POPC   C4A68382  39.994   2.734   7.355
10962POPC   C1B68383  39.839   2.570   6.455
10962POPC   C2B68384  39.802   2.608   6.755
10962POPC   C3B68385  39.822   2.561   7.055
10962POPC   C4B68386  39.871   2.566   7.355
10963POPC   NC368387  26.776  16.736   5.555
10963POPC   PO468388  26.847  16.715   5.855
10963POPC   GL168389  26.781  16.736   6.155
10963POPC   GL268390  26.919  16.803   6.155
10963POPC   C1A68391  26.810  16.704   6.455
10963POPC   D2A68392  26.796  16.765   6.755
10963POPC   C3A68393  26.810  16.758   7.055
10963POPC   C4A68394  26.773  16.711   7.355
10963POPC   C1B68395  26.935  16.980   6.455
10963POPC   C2B68396  26.917  16.964   6.755
10963POPC   C3B68397  26.909  16.932   7.055
10963POPC   C4B68398  26.891  16.916   7.355
10964POPC   NC368399  43.906  18.303   5.555
10964POPC   PO468400  43.934  18.314   5.855
10964POPC   GL168401  43.913  18.301   6.155
10964POPC   GL268402  43.767  18.148   6.155
10964POPC   C1A68403  43.896  18.234   6.455
10964POPC   D2A68404  43.844  18.240   6.755
10964POPC   C3A68405  43.839  18.274   7.055
10964POPC   C4A68406  43.858  18.272   7.355
10964POPC   C1B68407  43.730  18.157   6.455
10964POPC   C2B68408  43.659  18.074   6.755
10964POPC   C3B68409  43.720  18.102   7.055
10964POPC   C4B68410  43.718  18.099   7.355
10965POPC   NC368411  22.183  22.194   5.555
10965POPC   PO468412  22.187  22.184   5.855
10965POPC   GL168413  22.149  22.154   6.155
10965POPC   GL268414  22.039  22.187   6.155
10965POPC   C1A68415  22.190  22.170   6.455
10965POPC   D2A68416  22.163  22.169   6.755
10965POPC   C3A68417  22.115  22.202   7.055
10965POPC   C4A68418  22.125  22.136   7.355
10965POPC   C1B68419  21.901  22.283   6.455
10965POPC   C2B68420  21.966  22.226   6.755
10965POPC   C3B68421  21.914  22.261   7.055
10965POPC   C4B68422  21.933  22.242   7.355
10966POPC   NC368423   2.720   3.520   5.555
10966POPC   PO468424   2.791   3.547   5.855
10966POPC   GL168425   2.804   3.525   6.155
10966POPC   GL268426   2.800   3.631   6.155
10966POPC   C1A68427   2.780   3.554   6.455
10966POPC   D2A68428   2.758   3.509   6.755
10966POPC   C3A68429   2.795   3.549   7.055
10966POPC   C4A68430   2.766   3.546   7.355
10966POPC   C1B68431   2.745   3.819   6.455
10966POPC   C2B68432   2.775   3.773   6.755
10966POPC   C3B68433   2.806   3.743   7.055
10966POPC   C4B68434   2.779   3.788   7.355
10967POPC   NC368435   5.845  39.976   5.555
10967POPC   PO468436   5.917  39.975   5.855
10967POPC   GL168437   5.864  40.057   6.155
10967POPC   GL268438   5.796  39.926   6.155
10967POPC   C1A68439   5.841  39.995   6.455
10967POPC   D2A68440   5.905  39.962   6.755
10967POPC   C3A68441   5.846  39.976   7.055
10967POPC   C4A68442   5.854  39.977   7.355
10967POPC   C1B68443   5.610  39.897   6.455
10967POPC   C2B68444   5.685  39.932   6.755
10967POPC   C3B68445   5.642  39.874   7.055
10967POPC   C4B68446   5.657  39.865   7.355
10968POPC   NC368447  30.661  18.260   5.555
10968POPC   PO468448  30.678  18.254   5.855
10968POPC   GL168449  30.701  18.313   6.155
10968POPC   GL268450  30.576  18.250   6.155
10968POPC   C1A68451  30.652  18.290   6.455
10968POPC   D2A68452  30.672  18.238   6.755
10968POPC   C3A68453  30.668  18.248   7.055
10968POPC   C4A68454  30.700  18.275   7.355
10968POPC   C1B68455  30.488  18.339   6.455
10968POPC   C2B68456  30.459  18.281   6.755
10968POPC   C3B68457  30.430  18.316   7.055
10968POPC   C4B68458  30.471  18.248   7.355
10969POPC   NC368459  22.180  30.649   5.555
10969POPC   PO468460  22.143  30.697   5.855
10969POPC   GL168461  22.128  30.689   6.155
10969POPC   GL268462  22.017  30.713   6.155
10969POPC   C1A68463  22.171  30.713   6.455
10969POPC   D2A68464  22.199  30.688   6.755
10969POPC   C3A68465  22.135  30.704   7.055
10969POPC   C4A68466  22.118  30.746   7.355
10969POPC   C1B68467  21.943  30.767   6.455
10969POPC   C2B68468  21.939  30.822   6.755
10969POPC   C3B68469  21.953  30.792   7.055
10969POPC   C4B68470  21.888  30.774   7.355
10970POPC   NC368471  31.519   5.890   5.555
10970POPC   PO468472  31.435   5.879   5.855
10970POPC   GL168473  31.451   5.887   6.155
10970POPC   GL268474  31.635   5.904   6.155
10970POPC   C1A68475  31.472   5.827   6.455
10970POPC   D2A68476  31.470   5.831   6.755
10970POPC   C3A68477  31.482   5.863   7.055
10970POPC   C4A68478  31.429   5.888   7.355
10970POPC   C1B68479  31.718   5.889   6.455
10970POPC   C2B68480  31.676   5.944   6.755
10970POPC   C3B68481  31.710   5.890   7.055
10970POPC   C4B68482  31.707   5.960   7.355
10971POPC   NC368483  28.369  10.532   5.555
10971POPC   PO468484  28.418  10.516   5.855
10971POPC   GL168485  28.322  10.559   6.155
10971POPC   GL268486  28.445  10.636   6.155
10971POPC   C1A68487  28.380  10.486   6.455
10971POPC   D2A68488  28.319  10.554   6.755
10971POPC   C3A68489  28.415  10.505   7.055
10971POPC   C4A68490  28.320  10.485   7.355
10971POPC   C1B68491  28.539  10.679   6.455
10971POPC   C2B68492  28.527  10.725   6.755
10971POPC   C3B68493  28.554  10.720   7.055
10971POPC   C4B68494  28.577  10.747   7.355
10972POPC   NC368495  39.995  19.847   5.555
10972POPC   PO468496  40.042  19.827   5.855
10972POPC   GL168497  39.973  19.881   6.155
10972POPC   GL268498  39.908  19.779   6.155
10972POPC   C1A68499  40.033  19.879   6.455
10972POPC   D2A68500  39.986  19.801   6.755
10972POPC   C3A68501  40.018  19.802   7.055
10972POPC   C4A68502  39.993  19.803   7.355
10972POPC   C1B68503  39.825  19.728   6.455
10972POPC   C2B68504  39.807  19.704   6.755
10972POPC   C3B68505  39.857  19.710   7.055
10972POPC   C4B68506  39.821  19.655   7.355
10973POPC   NC368507  15.166  17.471   5.555
10973POPC   PO468508  15.183  17.466   5.855
10973POPC   GL168509  15.198  17.486   6.155
10973POPC   GL268510  15.052  17.574   6.155
10973POPC   C1A68511  15.179  17.466   6.455
10973POPC   D2A68512  15.203  17.526   6.755
10973POPC   C3A68513  15.142  17.485   7.055
10973POPC   C4A68514  15.176  17.542   7.355
10973POPC   C1B68515  14.931  17.596   6.455
10973POPC   C2B68516  14.970  17.561   6.755
10973POPC   C3B68517  14.948  17.574   7.055
10973POPC   C4B68518  14.996  17.594   7.355
10974POPC   NC368519   0.458  36.922   5.555
10974POPC   PO468520   0.455  36.856   5.855
10974POPC   GL168521   0.472  36.915   6.155
10974POPC   GL268522   0.545  36.841   6.155
10974POPC   C1A68523   0.466  36.953   6.455
10974POPC   D2A68524   0.413  36.886   6.755
10974POPC   C3A68525   0.411  36.935   7.055
10974POPC   C4A68526   0.420  36.918   7.355
10974POPC   C1B68527   0.608  36.669   6.455
10974POPC   C2B68528   0.557  36.732   6.755
10974POPC   C3B68529   0.576  36.754   7.055
10974POPC   C4B68530   0.564  36.763   7.355
10975POPC   NC368531  34.597  23.729   5.555
10975POPC   PO468532  34.530  23.746   5.855
10975POPC   GL168533  34.594  23.664   6.155
10975POPC   GL268534  34.455  23.732   6.155
10975POPC   C1A68535  34.598  23.732   6.455
10975POPC   D2A68536  34.562  23.690   6.755
10975POPC   C3A68537  34.598  23.694   7.055
10975POPC   C4A68538  34.598  23.738   7.355
10975POPC   C1B68539  34.302  23.785   6.455
10975POPC   C2B68540  34.344  23.753   6.755
10975POPC   C3B68541  34.325  23.777   7.055
10975POPC   C4B68542  34.385  23.753   7.355
10976POPC   NC368543   3.558  42.383   5.555
10976POPC   PO468544   3.556  42.292   5.855
10976POPC   GL168545   3.527  42.374   6.155
10976POPC   GL268546   3.664  42.267   6.155
10976POPC   C1A68547   3.573  42.349   6.455
10976POPC   D2A68548   3.569  42.325   6.755
10976POPC   C3A68549   3.549  42.339   7.055
10976POPC   C4A68550   3.540  42.374   7.355
10976POPC   C1B68551   3.673  42.115   6.455
10976POPC   C2B68552   3.728  42.185   6.755
10976POPC   C3B68553   3.654  42.140   7.055
10976POPC   C4B68554   3.657  42.128   7.355
10977POPC   NC368555  29.931  40.023   5.555
10977POPC   PO468556  29.935  39.992   5.855
10977POPC   GL168557  29.895  40.006   6.155
10977POPC   GL268558  29.954  40.086   6.155
10977POPC   C1A68559  29.962  39.967   6.455
10977POPC   D2A68560  29.881  39.997   6.755
10977POPC   C3A68561  29.965  39.988   7.055
10977POPC   C4A68562  29.880  39.990   7.355
10977POPC   C1B68563  30.013  40.248   6.455
10977POPC   C2B68564  29.973  40.269   6.755
10977POPC   C3B68565  30.027  40.242   7.055
10977POPC   C4B68566  30.007  40.266   7.355
10978POPC   NC368567  27.619  28.341   5.555
10978POPC   PO468568  27.627  28.417   5.855
10978POPC   GL168569  27.550  28.336   6.155
10978POPC   GL268570  27.533  28.451   6.155
10978POPC   C1A68571  27.597  28.337   6.455
10978POPC   D2A68572  27.594  28.345   6.755
10978POPC   C3A68573  27.614  28.342   7.055
10978POPC   C4A68574  27.622  28.379   7.355
10978POPC   C1B68575  27.396  28.614   6.455
10978POPC   C2B68576  27.478  28.575   6.755
10978POPC   C3B68577  27.409  28.605   7.055
10978POPC   C4B68578  27.404  28.565   7.355
10979POPC   NC368579  38.410  25.291   5.555
10979POPC   PO468580  38.429  25.310   5.855
10979POPC   GL168581  38.425  25.313   6.155
10979POPC   GL268582  38.567  25.221   6.155
10979POPC   C1A68583  38.475  25.220   6.455
10979POPC   D2A68584  38.471  25.258   6.755
10979POPC   C3A68585  38.418  25.308   7.055
10979POPC   C4A68586  38.443  25.238   7.355
10979POPC   C1B68587  38.647  25.125   6.455
10979POPC   C2B68588  38.695  25.179   6.755
10979POPC   C3B68589  38.637  25.126   7.055
10979POPC   C4B68590  38.701  25.171   7.355
10980POPC   NC368591   5.115  28.339   5.555
10980POPC   PO468592   5.089  28.400   5.855
10980POPC   GL168593   5.083  28.339   6.155
10980POPC   GL268594   5.065  28.456   6.155
10980POPC   C1A68595   5.123  28.362   6.455
10980POPC   D2A68596   5.074  28.387   6.755
10980POPC   C3A68597   5.137  28.412   7.055
10980POPC   C4A68598   5.052  28.397   7.355
10980POPC   C1B68599   5.081  28.613   6.455
10980POPC   C2B68600   5.076  28.585   6.755
10980POPC   C3B68601   5.078  28.617   7.055
10980POPC   C4B68602   5.153  28.658   7.355
10981POPC   NC368603   7.396  29.115   5.555
10981POPC   PO468604   7.371  29.158   5.855
10981POPC   GL168605   7.378  29.113   6.155
10981POPC   GL268606   7.439  29.250   6.155
10981POPC   C1A68607   7.398  29.106   6.455
10981POPC   D2A68608   7.403  29.102   6.755
10981POPC   C3A68609   7.407  29.166   7.055
10981POPC   C4A68610   7.453  29.165   7.355
10981POPC   C1B68611   7.445  29.386   6.455
10981POPC   C2B68612   7.434  29.413   6.755
10981POPC   C3B68613   7.425  29.390   7.055
10981POPC   C4B68614   7.430  29.346   7.355
10982POPC   NC368615  14.441  35.346   5.555
10982POPC   PO468616  14.383  35.333   5.855
10982POPC   GL168617  14.417  35.311   6.155
10982POPC   GL268618  14.303  35.353   6.155
10982POPC   C1A68619  14.452  35.366   6.455
10982POPC   D2A68620  14.356  35.376   6.755
10982POPC   C3A68621  14.407  35.397   7.055
10982POPC   C4A68622  14.392  35.340   7.355
10982POPC   C1B68623  14.203  35.275   6.455
10982POPC   C2B68624  14.118  35.301   6.755
10982POPC   C3B68625  14.128  35.344   7.055
10982POPC   C4B68626  14.205  35.315   7.355
10983POPC   NC368627  29.872  16.702   5.555
10983POPC   PO468628  29.872  16.756   5.855
10983POPC   GL168629  29.871  16.751   6.155
10983POPC   GL268630  29.857  16.645   6.155
10983POPC   C1A68631  29.884  16.719   6.455
10983POPC   D2A68632  29.893  16.735   6.755
10983POPC   C3A68633  29.916  16.741   7.055
10983POPC   C4A68634  29.940  16.780   7.355
10983POPC   C1B68635  29.856  16.497   6.455
10983POPC   C2B68636  29.840  16.516   6.755
10983POPC   C3B68637  29.838  16.439   7.055
10983POPC   C4B68638  29.854  16.501   7.355
10984POPC   NC368639  40.759  29.114   5.555
10984POPC   PO468640  40.802  29.191   5.855
10984POPC   GL168641  40.744  29.111   6.155
10984POPC   GL268642  40.841  29.280   6.155
10984POPC   C1A68643  40.744  29.114   6.455
10984POPC   D2A68644  40.756  29.136   6.755
10984POPC   C3A68645  40.737  29.102   7.055
10984POPC   C4A68646  40.765  29.121   7.355
10984POPC   C1B68647  40.867  29.413   6.455
10984POPC   C2B68648  40.859  29.401   6.755
10984POPC   C3B68649  40.852  29.413   7.055
10984POPC   C4B68650  40.831  29.405   7.355
10985POPC   NC368651  12.808  33.773   5.555
10985POPC   PO468652  12.810  33.838   5.855
10985POPC   GL168653  12.846  33.823   6.155
10985POPC   GL268654  12.783  33.709   6.155
10985POPC   C1A68655  12.894  33.834   6.455
10985POPC   D2A68656  12.812  33.788   6.755
10985POPC   C3A68657  12.847  33.757   7.055
10985POPC   C4A68658  12.844  33.818   7.355
10985POPC   C1B68659  12.795  33.593   6.455
10985POPC   C2B68660  12.736  33.568   6.755
10985POPC   C3B68661  12.759  33.524   7.055
10985POPC   C4B68662  12.739  33.553   7.355
10986POPC   NC368663  43.140  30.723   5.555
10986POPC   PO468664  43.116  30.649   5.855
10986POPC   GL168665  43.064  30.702   6.155
10986POPC   GL268666  42.962  30.646   6.155
10986POPC   C1A68667  43.160  30.715   6.455
10986POPC   D2A68668  43.100  30.647   6.755
10986POPC   C3A68669  43.146  30.681   7.055
10986POPC   C4A68670  43.084  30.693   7.355
10986POPC   C1B68671  42.905  30.549   6.455
10986POPC   C2B68672  42.863  30.602   6.755
10986POPC   C3B68673  42.912  30.587   7.055
10986POPC   C4B68674  42.949  30.589   7.355
10987POPC   NC368675  36.952   5.106   5.555
10987POPC   PO468676  36.947   5.092   5.855
10987POPC   GL168677  36.875   5.114   6.155
10987POPC   GL268678  36.787   4.998   6.155
10987POPC   C1A68679  36.945   5.071   6.455
10987POPC   D2A68680  36.892   5.088   6.755
10987POPC   C3A68681  36.872   5.053   7.055
10987POPC   C4A68682  36.916   5.116   7.355
10987POPC   C1B68683  36.729   4.939   6.455
10987POPC   C2B68684  36.691   4.927   6.755
10987POPC   C3B68685  36.696   4.909   7.055
10987POPC   C4B68686  36.686   4.957   7.355
10988POPC   NC368687  19.870  15.973   5.555
10988POPC   PO468688  19.809  15.992   5.855
10988POPC   GL168689  19.879  15.958   6.155
10988POPC   GL268690  19.720  16.021   6.155
10988POPC   C1A68691  19.844  15.923   6.455
10988POPC   D2A68692  19.868  15.952   6.755
10988POPC   C3A68693  19.807  15.988   7.055
10988POPC   C4A68694  19.848  15.955   7.355
10988POPC   C1B68695  19.643  16.007   6.455
10988POPC   C2B68696  19.604  16.006   6.755
10988POPC   C3B68697  19.624  16.071   7.055
10988POPC   C4B68698  19.649  16.023   7.355
10989POPC   NC368699  41.567  22.209   5.555
10989POPC   PO468700  41.517  22.206   5.855
10989POPC   GL168701  41.582  22.135   6.155
10989POPC   GL268702  41.592  22.065   6.155
10989POPC   C1A68703  41.520  22.128   6.455
10989POPC   D2A68704  41.567  22.192   6.755
10989POPC   C3A68705  41.588  22.116   7.055
10989POPC   C4A68706  41.607  22.199   7.355
10989POPC   C1B68707  41.656  21.906   6.455
10989POPC   C2B68708  41.661  21.941   6.755
10989POPC   C3B68709  41.605  21.909   7.055
10989POPC   C4B68710  41.682  21.874   7.355
10990POPC   NC368711  10.510  41.600   5.555
10990POPC   PO468712  10.573  41.579   5.855
10990POPC   GL168713  10.519  41.523   6.155
10990POPC   GL268714  10.532  41.674   6.155
10990POPC   C1A68715  10.522  41.583   6.455
10990POPC   D2A68716  10.529  41.515   6.755
10990POPC   C3A68717  10.561  41.590   7.055
10990POPC   C4A68718  10.541  41.566   7.355
10990POPC   C1B68719  10.578  41.803   6.455
10990POPC   C2B68720  10.660  41.767   6.755
10990POPC   C3B68721  10.653  41.797   7.055
10990POPC   C4B68722  10.589  41.803   7.355
10991POPC   NC368723  13.586   9.012   5.555
10991POPC   PO468724  13.667   9.003   5.855
10991POPC   GL168725  13.667   8.964   6.155
10991POPC   GL268726  13.640   9.065   6.155
10991POPC   C1A68727  13.670   8.979   6.455
10991POPC   D2A68728  13.582   8.985   6.755
10991POPC   C3A68729  13.632   8.927   7.055
10991POPC   C4A68730  13.668   8.989   7.355
10991POPC   C1B68731  13.685   9.269   6.455
10991POPC   C2B68732  13.593   9.179   6.755
10991POPC   C3B68733  13.686   9.195   7.055
10991POPC   C4B68734  13.650   9.186   7.355
10992POPC   NC368735  16.765  43.121   5.555
10992POPC   PO468736  16.766  43.121   5.855
10992POPC   GL168737  16.717  43.157   6.155
10992POPC   GL268738  16.742  43.034   6.155
10992POPC   C1A68739  16.747  43.084   6.455
10992POPC   D2A68740  16.728  43.150   6.755
10992POPC   C3A68741  16.712  43.150   7.055
10992POPC   C4A68742  16.722  43.097   7.355
10992POPC   C1B68743  16.808  42.855   6.455
10992POPC   C2B68744  16.814  42.939   6.755
10992POPC   C3B68745  16.896  42.840   7.055
10992POPC   C4B68746  16.822  42.927   7.355
10993POPC   NC368747   1.995  32.250   5.555
10993POPC   PO468748   2.033  32.220   5.855
10993POPC   GL168749   1.989  32.204   6.155
10993POPC   GL268750   2.108  32.128   6.155
10993POPC   C1A68751   1.946  32.244   6.455
10993POPC   D2A68752   2.000  32.274   6.755
10993POPC   C3A68753   1.943  32.203   7.055
10993POPC   C4A68754   2.011  32.279   7.355
10993POPC   C1B68755   2.157  32.098   6.455
10993POPC   C2B68756   2.197  32.068   6.755
10993POPC   C3B68757   2.228  32.136   7.055
10993POPC   C4B68758   2.184  32.117   7.355
10994POPC   NC368759  31.427  19.846   5.555
10994POPC   PO468760  31.514  19.813   5.855
10994POPC   GL168761  31.514  19.875   6.155
10994POPC   GL268762  31.612  19.772   6.155
10994POPC   C1A68763  31.509  19.829   6.455
10994POPC   D2A68764  31.435  19.818   6.755
10994POPC   C3A68765  31.489  19.882   7.055
10994POPC   C4A68766  31.432  19.833   7.355
10994POPC   C1B68767  31.737  19.772   6.455
10994POPC   C2B68768  31.688  19.751   6.755
10994POPC   C3B68769  31.752  19.714   7.055
10994POPC   C4B68770  31.736  19.704   7.355
10995POPC   NC368771  44.617  32.214   5.555
10995POPC   PO468772  44.638  32.253   5.855
10995POPC   GL168773  44.690  32.281   6.155
10995POPC   GL268774  44.600  32.215   6.155
10995POPC   C1A68775  44.651  32.237   6.455
10995POPC   D2A68776  44.703  32.244   6.755
10995POPC   C3A68777  44.623  32.285   7.055
10995POPC   C4A68778  44.690  32.237   7.355
10995POPC   C1B68779  44.479  32.142   6.455
10995POPC   C2B68780  44.460  32.159   6.755
10995POPC   C3B68781  44.407  32.098   7.055
10995POPC   C4B68782  44.461  32.141   7.355
10996POPC   NC368783  43.103  10.485   5.555
10996POPC   PO468784  43.084  10.521   5.855
10996POPC   GL168785  43.063  10.517   6.155
10996POPC   GL268786  42.962  10.557   6.155
10996POPC   C1A68787  43.083  10.506   6.455
10996POPC   D2A68788  43.083  10.521   6.755
10996POPC   C3A68789  43.129  10.515   7.055
10996POPC   C4A68790  43.094  10.493   7.355
10996POPC   C1B68791  42.817  10.544   6.455
10996POPC   C2B68792  42.864  10.566   6.755
10996POPC   C3B68793  42.861  10.578   7.055
10996POPC   C4B68794  42.870  10.584   7.355
10997POPC   NC368795  33.065  22.923   5.555
10997POPC   PO468796  33.054  22.979   5.855
10997POPC   GL168797  33.013  22.901   6.155
10997POPC   GL268798  33.116  22.882   6.155
10997POPC   C1A68799  33.061  22.956   6.455
10997POPC   D2A68800  33.000  22.943   6.755
10997POPC   C3A68801  33.002  22.985   7.055
10997POPC   C4A68802  33.012  22.986   7.355
10997POPC   C1B68803  33.308  22.891   6.455
10997POPC   C2B68804  33.285  22.947   6.755
10997POPC   C3B68805  33.269  22.901   7.055
10997POPC   C4B68806  33.284  22.935   7.355
10998POPC   NC368807   2.780  26.060   5.555
10998POPC   PO468808   2.813  26.054   5.855
10998POPC   GL168809   2.791  26.028   6.155
10998POPC   GL268810   2.641  26.022   6.155
10998POPC   C1A68811   2.779  26.025   6.455
10998POPC   D2A68812   2.724  26.016   6.755
10998POPC   C3A68813   2.727  26.077   7.055
10998POPC   C4A68814   2.740  26.008   7.355
10998POPC   C1B68815   2.557  26.057   6.455
10998POPC   C2B68816   2.551  26.057   6.755
10998POPC   C3B68817   2.473  26.067   7.055
10998POPC   C4B68818   2.539  26.079   7.355
10999POPC   NC368819  26.827  37.672   5.555
10999POPC   PO468820  26.776  37.634   5.855
10999POPC   GL168821  26.787  37.711   6.155
10999POPC   GL268822  26.680  37.596   6.155
10999POPC   C1A68823  26.785  37.691   6.455
10999POPC   D2A68824  26.854  37.693   6.755
10999POPC   C3A68825  26.851  37.719   7.055
10999POPC   C4A68826  26.820  37.681   7.355
10999POPC   C1B68827  26.575  37.629   6.455
10999POPC   C2B68828  26.553  37.635   6.755
10999POPC   C3B68829  26.605  37.573   7.055
10999POPC   C4B68830  26.627  37.635   7.355
11000POPC   NC368831  15.151   9.017   5.555
11000POPC   PO468832  15.182   8.962   5.855
11000POPC   GL168833  15.164   8.989   6.155
11000POPC   GL268834  15.050   9.009   6.155
11000POPC   C1A68835  15.177   8.992   6.455
11000POPC   D2A68836  15.199   8.983   6.755
11000POPC   C3A68837  15.214   9.011   7.055
11000POPC   C4A68838  15.132   8.977   7.355
11000POPC   C1B68839  14.938   9.051   6.455
11000POPC   C2B68840  14.927   9.111   6.755
11000POPC   C3B68841  14.964   9.062   7.055
11000POPC   C4B68842  14.922   9.041   7.355
11001POPC   NC368843  25.257  36.157   5.555
11001POPC   PO468844  25.298  36.120   5.855
11001POPC   GL168845  25.275  36.098   6.155
11001POPC   GL268846  25.178  36.236   6.155
11001POPC   C1A68847  25.224  36.106   6.455
11001POPC   D2A68848  25.258  36.087   6.755
11001POPC   C3A68849  25.275  36.108   7.055
11001POPC   C4A68850  25.236  36.128   7.355
11001POPC   C1B68851  25.109  36.358   6.455
11001POPC   C2B68852  25.128  36.365   6.755
11001POPC   C3B68853  25.087  36.287   7.055
11001POPC   C4B68854  25.081  36.306   7.355
11002POPC   NC368855   1.249   9.782   5.555
11002POPC   PO468856   1.229   9.743   5.855
11002POPC   GL168857   1.190   9.702   6.155
11002POPC   GL268858   1.271   9.705   6.155
11002POPC   C1A68859   1.212   9.758   6.455
11002POPC   D2A68860   1.240   9.754   6.755
11002POPC   C3A68861   1.175   9.770   7.055
11002POPC   C4A68862   1.184   9.708   7.355
11002POPC   C1B68863   1.392   9.596   6.455
11002POPC   C2B68864   1.382   9.615   6.755
11002POPC   C3B68865   1.411   9.525   7.055
11002POPC   C4B68866   1.421   9.527   7.355
11003POPC   NC368867  29.182  38.458   5.555
11003POPC   PO468868  29.192  38.499   5.855
11003POPC   GL168869  29.147  38.423   6.155
11003POPC   GL268870  29.102  38.602   6.155
11003POPC   C1A68871  29.165  38.470   6.455
11003POPC   D2A68872  29.124  38.437   6.755
11003POPC   C3A68873  29.158  38.468   7.055
11003POPC   C4A68874  29.155  38.467   7.355
11003POPC   C1B68875  29.127  38.680   6.455
11003POPC   C2B68876  29.159  38.665   6.755
11003POPC   C3B68877  29.158  38.730   7.055
11003POPC   C4B68878  29.152  38.718   7.355
11004POPC   NC368879  19.052  40.800   5.555
11004POPC   PO468880  19.031  40.740   5.855
11004POPC   GL168881  19.039  40.736   6.155
11004POPC   GL268882  18.959  40.691   6.155
11004POPC   C1A68883  19.032  40.795   6.455
11004POPC   D2A68884  19.048  40.751   6.755
11004POPC   C3A68885  19.064  40.830   7.055
11004POPC   C4A68886  19.068  40.827   7.355
11004POPC   C1B68887  18.914  40.577   6.455
11004POPC   C2B68888  18.882  40.586   6.755
11004POPC   C3B68889  18.857  40.628   7.055
11004POPC   C4B68890  18.943  40.623   7.355
11005POPC   NC368891   8.931  44.618   5.555
11005POPC   PO468892   9.003  44.656   5.855
11005POPC   GL168893   8.963  44.687   6.155
11005POPC   GL268894   8.893  44.739   6.155
11005POPC   C1A68895   8.961  44.695   6.455
11005POPC   D2A68896   8.930  44.653   6.755
11005POPC   C3A68897   8.956  44.705   7.055
11005POPC   C4A68898   8.973  44.619   7.355
11005POPC   C1B68899   8.802  44.806   6.455
11005POPC   C2B68900   8.813  44.776   6.755
11005POPC   C3B68901   8.764  44.780   7.055
11005POPC   C4B68902   8.825  44.779   7.355
11006POPC   NC368903  32.224  37.637   5.555
11006POPC   PO468904  32.285  37.670   5.855
11006POPC   GL168905  32.229  37.713   6.155
11006POPC   GL268906  32.233  37.527   6.155
11006POPC   C1A68907  32.208  37.688   6.455
11006POPC   D2A68908  32.218  37.720   6.755
11006POPC   C3A68909  32.202  37.711   7.055
11006POPC   C4A68910  32.227  37.630   7.355
11006POPC   C1B68911  32.234  37.471   6.455
11006POPC   C2B68912  32.242  37.443   6.755
11006POPC   C3B68913  32.305  37.418   7.055
11006POPC   C4B68914  32.233  37.481   7.355
11007POPC   NC368915   5.837  13.654   5.555
11007POPC   PO468916   5.896  13.647   5.855
11007POPC   GL168917   5.885  13.677   6.155
11007POPC   GL268918   5.824  13.473   6.155
11007POPC   C1A68919   5.859  13.632   6.455
11007POPC   D2A68920   5.910  13.597   6.755
11007POPC   C3A68921   5.882  13.649   7.055
11007POPC   C4A68922   5.844  13.593   7.355
11007POPC   C1B68923   5.802  13.368   6.455
11007POPC   C2B68924   5.756  13.400   6.755
11007POPC   C3B68925   5.777  13.368   7.055
11007POPC   C4B68926   5.816  13.418   7.355
11008POPC   NC368927  25.257   8.971   5.555
11008POPC   PO468928  25.265   9.010   5.855
11008POPC   GL168929  25.253   8.995   6.155
11008POPC   GL268930  25.221   8.813   6.155
11008POPC   C1A68931  25.290   8.940   6.455
11008POPC   D2A68932  25.273   8.968   6.755
11008POPC   C3A68933  25.233   8.956   7.055
11008POPC   C4A68934  25.277   8.984   7.355
11008POPC   C1B68935  25.271   8.707   6.455
11008POPC   C2B68936  25.272   8.674   6.755
11008POPC   C3B68937  25.212   8.754   7.055
11008POPC   C4B68938  25.283   8.726   7.355
11009POPC   NC368939  32.294   6.690   5.555
11009POPC   PO468940  32.257   6.661   5.855
11009POPC   GL168941  32.287   6.607   6.155
11009POPC   GL268942  32.214   6.556   6.155
11009POPC   C1A68943  32.256   6.612   6.455
11009POPC   D2A68944  32.220   6.677   6.755
11009POPC   C3A68945  32.251   6.643   7.055
11009POPC   C4A68946  32.220   6.619   7.355
11009POPC   C1B68947  32.137   6.365   6.455
11009POPC   C2B68948  32.179   6.419   6.755
11009POPC   C3B68949  32.142   6.442   7.055
11009POPC   C4B68950  32.200   6.441   7.355
11010POPC   NC368951   9.756  42.384   5.555
11010POPC   PO468952   9.711  42.380   5.855
11010POPC   GL168953   9.793  42.384   6.155
11010POPC   GL268954   9.724  42.483   6.155
11010POPC   C1A68955   9.760  42.317   6.455
11010POPC   D2A68956   9.699  42.311   6.755
11010POPC   C3A68957   9.741  42.359   7.055
11010POPC   C4A68958   9.725  42.374   7.355
11010POPC   C1B68959   9.685  42.552   6.455
11010POPC   C2B68960   9.634  42.582   6.755
11010POPC   C3B68961   9.682  42.579   7.055
11010POPC   C4B68962   9.658  42.546   7.355
11011POPC   NC368963  16.686   1.247   5.555
11011POPC   PO468964  16.750   1.207   5.855
11011POPC   GL168965  16.748   1.197   6.155
11011POPC   GL268966  16.657   1.343   6.155
11011POPC   C1A68967  16.693   1.179   6.455
11011POPC   D2A68968  16.775   1.247   6.755
11011POPC   C3A68969  16.699   1.232   7.055
11011POPC   C4A68970  16.776   1.188   7.355
11011POPC   C1B68971  16.554   1.358   6.455
11011POPC   C2B68972  16.573   1.390   6.755
11011POPC   C3B68973  16.504   1.370   7.055
11011POPC   C4B68974  16.518   1.384   7.355
11012POPC   NC368975  26.837  13.656   5.555
11012POPC   PO468976  26.836  13.624   5.855
11012POPC   GL168977  26.811  13.635   6.155
11012POPC   GL268978  26.806  13.780   6.155
11012POPC   C1A68979  26.773  13.668   6.455
11012POPC   D2A68980  26.841  13.673   6.755
11012POPC   C3A68981  26.791  13.619   7.055
11012POPC   C4A68982  26.854  13.658   7.355
11012POPC   C1B68983  26.823  13.921   6.455
11012POPC   C2B68984  26.811  13.840   6.755
11012POPC   C3B68985  26.749  13.910   7.055
11012POPC   C4B68986  26.818  13.836   7.355
11013POPC   NC368987  23.707  12.074   5.555
11013POPC   PO468988  23.748  12.076   5.855
11013POPC   GL168989  23.675  12.068   6.155
11013POPC   GL268990  23.785  12.225   6.155
11013POPC   C1A68991  23.735  12.077   6.455
11013POPC   D2A68992  23.712  12.107   6.755
11013POPC   C3A68993  23.672  12.092   7.055
11013POPC   C4A68994  23.723  12.087   7.355
11013POPC   C1B68995  23.797  12.347   6.455
11013POPC   C2B68996  23.745  12.275   6.755
11013POPC   C3B68997  23.728  12.360   7.055
11013POPC   C4B68998  23.778  12.341   7.355
11014POPC   NC368999  24.457  44.690   5.555
11014POPC   PO469000  24.472  44.681   5.855
11014POPC   GL169001  24.515  44.632   6.155
11014POPC   GL269002  24.431  44.772   6.155
11014POPC   C1A69003  24.448  44.645   6.455
11014POPC   D2A69004  24.537  44.648   6.755
11014POPC   C3A69005  24.500  44.618   7.055
11014POPC   C4A69006  24.495  44.680   7.355
11014POPC   C1B69007  24.369  44.899   6.455
11014POPC   C2B69008  24.330  44.860   6.755
11014POPC   C3B69009  24.369  44.864   7.055
11014POPC   C4B69010  24.359  44.811   7.355
11015POPC   NC369011  28.339   7.416   5.555
11015POPC   PO469012  28.385   7.410   5.855
11015POPC   GL169013  28.359   7.428   6.155
11015POPC   GL269014  28.408   7.341   6.155
11015POPC   C1A69015  28.332   7.431   6.455
11015POPC   D2A69016  28.340   7.446   6.755
11015POPC   C3A69017  28.416   7.399   7.055
11015POPC   C4A69018  28.404   7.388   7.355
11015POPC   C1B69019  28.384   7.125   6.455
11015POPC   C2B69020  28.388   7.136   6.755
11015POPC   C3B69021  28.345   7.182   7.055
11015POPC   C4B69022  28.327   7.158   7.355
11016POPC   NC369023  40.765  19.867   5.555
11016POPC   PO469024  40.809  19.833   5.855
11016POPC   GL169025  40.829  19.854   6.155
11016POPC   GL269026  40.769  19.751   6.155
11016POPC   C1A69027  40.747  19.850   6.455
11016POPC   D2A69028  40.750  19.829   6.755
11016POPC   C3A69029  40.794  19.831   7.055
11016POPC   C4A69030  40.740  19.808   7.355
11016POPC   C1B69031  40.750  19.544   6.455
11016POPC   C2B69032  40.765  19.584   6.755
11016POPC   C3B69033  40.825  19.583   7.055
11016POPC   C4B69034  40.787  19.604   7.355
11017POPC   NC369035  42.342   2.760   5.555
11017POPC   PO469036  42.337   2.771   5.855
11017POPC   GL169037  42.311   2.783   6.155
11017POPC   GL269038  42.211   2.761   6.155
11017POPC   C1A69039  42.302   2.768   6.455
11017POPC   D2A69040  42.371   2.761   6.755
11017POPC   C3A69041  42.301   2.761   7.055
11017POPC   C4A69042  42.312   2.815   7.355
11017POPC   C1B69043  42.104   2.812   6.455
11017POPC   C2B69044  42.052   2.841   6.755
11017POPC   C3B69045  42.104   2.819   7.055
11017POPC   C4B69046  42.114   2.825   7.355
11018POPC   NC369047  43.844  33.041   5.555
11018POPC   PO469048  43.912  32.995   5.855
11018POPC   GL169049  43.881  33.018   6.155
11018POPC   GL269050  43.940  32.951   6.155
11018POPC   C1A69051  43.849  32.974   6.455
11018POPC   D2A69052  43.924  33.024   6.755
11018POPC   C3A69053  43.871  33.057   7.055
11018POPC   C4A69054  43.909  33.050   7.355
11018POPC   C1B69055  44.057  32.840   6.455
11018POPC   C2B69056  44.049  32.861   6.755
11018POPC   C3B69057  44.078  32.820   7.055
11018POPC   C4B69058  44.023  32.860   7.355
11019POPC   NC369059   0.437  31.428   5.555
11019POPC   PO469060   0.391  31.460   5.855
11019POPC   GL169061   0.468  31.501   6.155
11019POPC   GL269062   0.285  31.487   6.155
11019POPC   C1A69063   0.420  31.437   6.455
11019POPC   D2A69064   0.435  31.488   6.755
11019POPC   C3A69065   0.466  31.512   7.055
11019POPC   C4A69066   0.419  31.425   7.355
11019POPC   C1B69067   0.177  31.519   6.455
11019POPC   C2B69068   0.160  31.615   6.755
11019POPC   C3B69069   0.188  31.561   7.055
11019POPC   C4B69070   0.187  31.617   7.355
11020POPC   NC369071  18.279  41.513   5.555
11020POPC   PO469072  18.304  41.563   5.855
11020POPC   GL169073  18.297  41.512   6.155
11020POPC   GL269074  18.160  41.684   6.155
11020POPC   C1A69075  18.234  41.603   6.455
11020POPC   D2A69076  18.279  41.538   6.755
11020POPC   C3A69077  18.243  41.533   7.055
11020POPC   C4A69078  18.332  41.544   7.355
11020POPC   C1B69079  18.079  41.740   6.455
11020POPC   C2B69080  18.086  41.686   6.755
11020POPC   C3B69081  18.080  41.735   7.055
11020POPC   C4B69082  18.075  41.712   7.355
11021POPC   NC369083  43.900  40.781   5.555
11021POPC   PO469084  43.878  40.810   5.855
11021POPC   GL169085  43.896  40.758   6.155
11021POPC   GL269086  44.027  40.789   6.155
11021POPC   C1A69087  43.863  40.768   6.455
11021POPC   D2A69088  43.898  40.770   6.755
11021POPC   C3A69089  43.888  40.832   7.055
11021POPC   C4A69090  43.878  40.756   7.355
11021POPC   C1B69091  44.111  40.824   6.455
11021POPC   C2B69092  44.103  40.851   6.755
11021POPC   C3B69093  44.129  40.841   7.055
11021POPC   C4B69094  44.111  40.755   7.355
11022POPC   NC369095   2.776  30.722   5.555
11022POPC   PO469096   2.777  30.714   5.855
11022POPC   GL169097   2.777  30.683   6.155
11022POPC   GL269098   2.694  30.846   6.155
11022POPC   C1A69099   2.771  30.696   6.455
11022POPC   D2A69100   2.781  30.656   6.755
11022POPC   C3A69101   2.789  30.649   7.055
11022POPC   C4A69102   2.717  30.703   7.355
11022POPC   C1B69103   2.681  30.931   6.455
11022POPC   C2B69104   2.599  30.935   6.755
11022POPC   C3B69105   2.648  30.951   7.055
11022POPC   C4B69106   2.668  30.945   7.355
11023POPC   NC369107   5.838  40.777   5.555
11023POPC   PO469108   5.823  40.809   5.855
11023POPC   GL169109   5.905  40.745   6.155
11023POPC   GL269110   5.904  40.673   6.155
11023POPC   C1A69111   5.834  40.746   6.455
11023POPC   D2A69112   5.891  40.804   6.755
11023POPC   C3A69113   5.863  40.787   7.055
11023POPC   C4A69114   5.880  40.748   7.355
11023POPC   C1B69115   5.938  40.533   6.455
11023POPC   C2B69116   5.973  40.571   6.755
11023POPC   C3B69117   5.962  40.586   7.055
11023POPC   C4B69118   5.945  40.586   7.355
11024POPC   NC369119  34.585  20.605   5.555
11024POPC   PO469120  34.600  20.621   5.855
11024POPC   GL169121  34.528  20.612   6.155
11024POPC   GL269122  34.557  20.715   6.155
11024POPC   C1A69123  34.562  20.576   6.455
11024POPC   D2A69124  34.617  20.603   6.755
11024POPC   C3A69125  34.617  20.572   7.055
11024POPC   C4A69126  34.551  20.659   7.355
11024POPC   C1B69127  34.509  20.886   6.455
11024POPC   C2B69128  34.465  20.812   6.755
11024POPC   C3B69129  34.529  20.840   7.055
11024POPC   C4B69130  34.462  20.861   7.355
11025POPC   NC369131   5.900  22.892   5.555
11025POPC   PO469132   5.867  22.921   5.855
11025POPC   GL169133   5.908  22.891   6.155
11025POPC   GL269134   5.949  22.989   6.155
11025POPC   C1A69135   5.918  22.894   6.455
11025POPC   D2A69136   5.918  22.939   6.755
11025POPC   C3A69137   5.881  22.972   7.055
11025POPC   C4A69138   5.838  22.895   7.355
11025POPC   C1B69139   6.071  22.972   6.455
11025POPC   C2B69140   6.135  23.053   6.755
11025POPC   C3B69141   6.086  23.018   7.055
11025POPC   C4B69142   6.129  23.051   7.355
11026POPC   NC369143  41.608  30.702   5.555
11026POPC   PO469144  41.605  30.654   5.855
11026POPC   GL169145  41.528  30.701   6.155
11026POPC   GL269146  41.644  30.818   6.155
11026POPC   C1A69147  41.578  30.733   6.455
11026POPC   D2A69148  41.607  30.746   6.755
11026POPC   C3A69149  41.598  30.649   7.055
11026POPC   C4A69150  41.569  30.719   7.355
11026POPC   C1B69151  41.692  30.873   6.455
11026POPC   C2B69152  41.688  30.848   6.755
11026POPC   C3B69153  41.723  30.916   7.055
11026POPC   C4B69154  41.744  30.903   7.355
11027POPC   NC369155   1.179  10.495   5.555
11027POPC   PO469156   1.256  10.516   5.855
11027POPC   GL169157   1.225  10.486   6.155
11027POPC   GL269158   1.261  10.438   6.155
11027POPC   C1A69159   1.240  10.533   6.455
11027POPC   D2A69160   1.180  10.539   6.755
11027POPC   C3A69161   1.186  10.551   7.055
11027POPC   C4A69162   1.247  10.543   7.355
11027POPC   C1B69163   1.214  10.292   6.455
11027POPC   C2B69164   1.285  10.258   6.755
11027POPC   C3B69165   1.242  10.292   7.055
11027POPC   C4B69166   1.274  10.257   7.355
11028POPC   NC369167  26.862  40.015   5.555
11028POPC   PO469168  26.796  40.025   5.855
11028POPC   GL169169  26.845  39.994   6.155
11028POPC   GL269170  26.929  39.948   6.155
11028POPC   C1A69171  26.857  40.000   6.455
11028POPC   D2A69172  26.842  40.003   6.755
11028POPC   C3A69173  26.807  39.998   7.055
11028POPC   C4A69174  26.830  40.032   7.355
11028POPC   C1B69175  27.017  39.851   6.455
11028POPC   C2B69176  27.044  39.788   6.755
11028POPC   C3B69177  26.964  39.796   7.055
11028POPC   C4B69178  27.037  39.835   7.355
11029POPC   NC369179  10.500  26.020   5.555
11029POPC   PO469180  10.548  26.065   5.855
11029POPC   GL169181  10.512  26.066   6.155
11029POPC   GL269182  10.415  26.082   6.155
11029POPC   C1A69183  10.499  26.060   6.455
11029POPC   D2A69184  10.485  25.994   6.755
11029POPC   C3A69185  10.534  26.050   7.055
11029POPC   C4A69186  10.479  26.088   7.355
11029POPC   C1B69187  10.247  26.101   6.455
11029POPC   C2B69188  10.293  26.103   6.755
11029POPC   C3B69189  10.300  26.068   7.055
11029POPC   C4B69190  10.252  26.106   7.355
11030POPC   NC369191   4.316  40.750   5.555
11030POPC   PO469192   4.364  40.743   5.855
11030POPC   GL169193   4.320  40.752   6.155
11030POPC   GL269194   4.423  40.812   6.155
11030POPC   C1A69195   4.339  40.805   6.455
11030POPC   D2A69196   4.285  40.827   6.755
11030POPC   C3A69197   4.292  40.757   7.055
11030POPC   C4A69198   4.365  40.782   7.355
11030POPC   C1B69199   4.533  40.868   6.455
11030POPC   C2B69200   4.523  40.914   6.755
11030POPC   C3B69201   4.575  40.880   7.055
11030POPC   C4B69202   4.549  40.926   7.355
11031POPC   NC369203  36.952   0.454   5.555
11031POPC   PO469204  36.857   0.456   5.855
11031POPC   GL169205  36.939   0.477   6.155
11031POPC   GL269206  36.893   0.579   6.155
11031POPC   C1A69207  36.926   0.389   6.455
11031POPC   D2A69208  36.877   0.408   6.755
11031POPC   C3A69209  36.953   0.431   7.055
11031POPC   C4A69210  36.874   0.396   7.355
11031POPC   C1B69211  36.856   0.628   6.455
11031POPC   C2B69212  36.831   0.687   6.755
11031POPC   C3B69213  36.856   0.631   7.055
11031POPC   C4B69214  36.871   0.656   7.355
11032POPC   NC369215  43.923  15.958   5.555
11032POPC   PO469216  43.890  15.917   5.855
11032POPC   GL169217  43.900  15.920   6.155
11032POPC   GL269218  43.811  16.044   6.155
11032POPC   C1A69219  43.928  15.918   6.455
11032POPC   D2A69220  43.851  15.940   6.755
11032POPC   C3A69221  43.875  15.918   7.055
11032POPC   C4A69222  43.859  15.963   7.355
11032POPC   C1B69223  43.694  16.075   6.455
11032POPC   C2B69224  43.717  16.090   6.755
11032POPC   C3B69225  43.732  16.102   7.055
11032POPC   C4B69226  43.682  16.128   7.355
11033POPC   NC369227  39.270   1.184   5.555
11033POPC   PO469228  39.279   1.244   5.855
11033POPC   GL169229  39.237   1.219   6.155
11033POPC   GL269230  39.354   1.253   6.155
11033POPC   C1A69231  39.241   1.190   6.455
11033POPC   D2A69232  39.249   1.193   6.755
11033POPC   C3A69233  39.240   1.217   7.055
11033POPC   C4A69234  39.267   1.263   7.355
11033POPC   C1B69235  39.459   1.335   6.455
11033POPC   C2B69236  39.386   1.342   6.755
11033POPC   C3B69237  39.475   1.332   7.055
11033POPC   C4B69238  39.396   1.390   7.355
11034POPC   NC369239  19.060  33.819   5.555
11034POPC   PO469240  19.084  33.831   5.855
11034POPC   GL169241  19.034  33.766   6.155
11034POPC   GL269242  19.122  33.919   6.155
11034POPC   C1A69243  19.071  33.817   6.455
11034POPC   D2A69244  19.057  33.790   6.755
11034POPC   C3A69245  19.097  33.805   7.055
11034POPC   C4A69246  19.019  33.769   7.355
11034POPC   C1B69247  19.098  34.013   6.455
11034POPC   C2B69248  19.136  34.089   6.755
11034POPC   C3B69249  19.102  34.036   7.055
11034POPC   C4B69250  19.160  34.083   7.355
11035POPC   NC369251  24.489  33.020   5.555
11035POPC   PO469252  24.510  33.064   5.855
11035POPC   GL169253  24.498  33.009   6.155
11035POPC   GL269254  24.405  33.139   6.155
11035POPC   C1A69255  24.488  33.015   6.455
11035POPC   D2A69256  24.494  33.007   6.755
11035POPC   C3A69257  24.466  33.049   7.055
11035POPC   C4A69258  24.508  33.028   7.355
11035POPC   C1B69259  24.364  33.159   6.455
11035POPC   C2B69260  24.288  33.239   6.755
11035POPC   C3B69261  24.286  33.216   7.055
11035POPC   C4B69262  24.295  33.186   7.355
11036POPC   NC369263  32.208   7.432   5.555
11036POPC   PO469264  32.250   7.391   5.855
11036POPC   GL169265  32.261   7.446   6.155
11036POPC   GL269266  32.117   7.342   6.155
11036POPC   C1A69267  32.217   7.449   6.455
11036POPC   D2A69268  32.234   7.403   6.755
11036POPC   C3A69269  32.232   7.422   7.055
11036POPC   C4A69270  32.284   7.441   7.355
11036POPC   C1B69271  32.024   7.229   6.455
11036POPC   C2B69272  32.081   7.301   6.755
11036POPC   C3B69273  32.102   7.249   7.055
11036POPC   C4B69274  32.103   7.274   7.355
11037POPC   NC369275  19.041  39.212   5.555
11037POPC   PO469276  19.095  39.207   5.855
11037POPC   GL169277  19.022  39.187   6.155
11037POPC   GL269278  19.033  39.087   6.155
11037POPC   C1A69279  19.033  39.220   6.455
11037POPC   D2A69280  19.024  39.262   6.755
11037POPC   C3A69281  19.054  39.224   7.055
11037POPC   C4A69282  19.079  39.225   7.355
11037POPC   C1B69283  18.987  39.035   6.455
11037POPC   C2B69284  18.955  39.049   6.755
11037POPC   C3B69285  18.969  39.001   7.055
11037POPC   C4B69286  18.934  38.986   7.355
11038POPC   NC369287  42.332   5.905   5.555
11038POPC   PO469288  42.300   5.881   5.855
11038POPC   GL169289  42.384   5.871   6.155
11038POPC   GL269290  42.285   5.953   6.155
11038POPC   C1A69291  42.351   5.830   6.455
11038POPC   D2A69292  42.292   5.854   6.755
11038POPC   C3A69293  42.317   5.836   7.055
11038POPC   C4A69294  42.318   5.910   7.355
11038POPC   C1B69295  42.231   6.076   6.455
11038POPC   C2B69296  42.282   6.151   6.755
11038POPC   C3B69297  42.277   6.136   7.055
11038POPC   C4B69298  42.272   6.106   7.355
11039POPC   NC369299   8.930  33.800   5.555
11039POPC   PO469300   8.991  33.803   5.855
11039POPC   GL169301   9.018  33.850   6.155
11039POPC   GL269302   8.836  33.728   6.155
11039POPC   C1A69303   8.926  33.762   6.455
11039POPC   D2A69304   8.971  33.798   6.755
11039POPC   C3A69305   8.997  33.777   7.055
11039POPC   C4A69306   8.962  33.753   7.355
11039POPC   C1B69307   8.773  33.647   6.455
11039POPC   C2B69308   8.736  33.644   6.755
11039POPC   C3B69309   8.780  33.718   7.055
11039POPC   C4B69310   8.787  33.659   7.355
11040POPC   NC369311  43.850  19.054   5.555
11040POPC   PO469312  43.920  19.047   5.855
11040POPC   GL169313  43.931  19.093   6.155
11040POPC   GL269314  43.943  19.164   6.155
11040POPC   C1A69315  43.934  19.070   6.455
11040POPC   D2A69316  43.860  19.090   6.755
11040POPC   C3A69317  43.906  19.057   7.055
11040POPC   C4A69318  43.893  19.089   7.355
11040POPC   C1B69319  43.999  19.226   6.455
11040POPC   C2B69320  44.037  19.267   6.755
11040POPC   C3B69321  44.014  19.244   7.055
11040POPC   C4B69322  44.002  19.298   7.355
11041POPC   NC369323  40.740  25.998   5.555
11041POPC   PO469324  40.824  26.007   5.855
11041POPC   GL169325  40.769  26.017   6.155
11041POPC   GL269326  40.886  26.062   6.155
11041POPC   C1A69327  40.737  26.091   6.455
11041POPC   D2A69328  40.751  26.000   6.755
11041POPC   C3A69329  40.766  26.013   7.055
11041POPC   C4A69330  40.745  26.029   7.355
11041POPC   C1B69331  41.061  26.120   6.455
11041POPC   C2B69332  41.060  26.092   6.755
11041POPC   C3B69333  41.051  26.156   7.055
11041POPC   C4B69334  40.993  26.127   7.355
11042POPC   NC369335   0.480  21.429   5.555
11042POPC   PO469336   0.462  21.411   5.855
11042POPC   GL169337   0.454  21.372   6.155
11042POPC   GL269338   0.320  21.283   6.155
11042POPC   C1A69339   0.394  21.342   6.455
11042POPC   D2A69340   0.397  21.410   6.755
11042POPC   C3A69341   0.446  21.432   7.055
11042POPC   C4A69342   0.453  21.404   7.355
11042POPC   C1B69343   0.341  21.132   6.455
11042POPC   C2B69344   0.341  21.185   6.755
11042POPC   C3B69345   0.336  21.214   7.055
11042POPC   C4B69346   0.292  21.176   7.355
11043POPC   NC369347  26.046  39.999   5.555
11043POPC   PO469348  26.046  40.031   5.855
11043POPC   GL169349  26.088  40.042   6.155
11043POPC   GL269350  25.971  40.084   6.155
11043POPC   C1A69351  26.072  40.028   6.455
11043POPC   D2A69352  26.040  39.965   6.755
11043POPC   C3A69353  26.019  40.017   7.055
11043POPC   C4A69354  26.047  40.032   7.355
11043POPC   C1B69355  25.854  40.171   6.455
11043POPC   C2B69356  25.878  40.162   6.755
11043POPC   C3B69357  25.847  40.228   7.055
11043POPC   C4B69358  25.929  40.215   7.355
11044POPC   NC369359  16.696  13.677   5.555
11044POPC   PO469360  16.690  13.609   5.855
11044POPC   GL169361  16.683  13.677   6.155
11044POPC   GL269362  16.865  13.703   6.155
11044POPC   C1A69363  16.751  13.604   6.455
11044POPC   D2A69364  16.691  13.676   6.755
11044POPC   C3A69365  16.703  13.625   7.055
11044POPC   C4A69366  16.756  13.607   7.355
11044POPC   C1B69367  16.858  13.796   6.455
11044POPC   C2B69368  16.937  13.767   6.755
11044POPC   C3B69369  16.874  13.772   7.055
11044POPC   C4B69370  16.886  13.843   7.355
11045POPC   NC369371  24.509  36.124   5.555
11045POPC   PO469372  24.508  36.140   5.855
11045POPC   GL169373  24.501  36.149   6.155
11045POPC   GL269374  24.583  36.216   6.155
11045POPC   C1A69375  24.530  36.156   6.455
11045POPC   D2A69376  24.526  36.097   6.755
11045POPC   C3A69377  24.478  36.135   7.055
11045POPC   C4A69378  24.489  36.138   7.355
11045POPC   C1B69379  24.759  36.259   6.455
11045POPC   C2B69380  24.687  36.242   6.755
11045POPC   C3B69381  24.688  36.212   7.055
11045POPC   C4B69382  24.716  36.231   7.355
11046POPC   NC369383  22.888   4.305   5.555
11046POPC   PO469384  22.905   4.280   5.855
11046POPC   GL169385  22.890   4.335   6.155
11046POPC   GL269386  22.853   4.165   6.155
11046POPC   C1A69387  22.934   4.303   6.455
11046POPC   D2A69388  22.980   4.316   6.755
11046POPC   C3A69389  22.896   4.285   7.055
11046POPC   C4A69390  22.908   4.331   7.355
11046POPC   C1B69391  22.783   4.095   6.455
11046POPC   C2B69392  22.789   4.104   6.755
11046POPC   C3B69393  22.825   4.131   7.055
11046POPC   C4B69394  22.834   4.086   7.355
11047POPC   NC369395  43.086  44.674   5.555
11047POPC   PO469396  43.146  44.662   5.855
11047POPC   GL169397  43.133  44.620   6.155
11047POPC   GL269398  42.938  44.634   6.155
11047POPC   C1A69399  43.072  44.673   6.455
11047POPC   D2A69400  43.153  44.655   6.755
11047POPC   C3A69401  43.095  44.647   7.055
11047POPC   C4A69402  43.138  44.655   7.355
11047POPC   C1B69403  42.892  44.593   6.455
11047POPC   C2B69404  42.899  44.649   6.755
11047POPC   C3B69405  42.843  44.671   7.055
11047POPC   C4B69406  42.822  44.634   7.355
11048POPC   NC369407  20.657   5.867   5.555
11048POPC   PO469408  20.625   5.845   5.855
11048POPC   GL169409  20.648   5.846   6.155
11048POPC   GL269410  20.475   5.928   6.155
11048POPC   C1A69411  20.592   5.885   6.455
11048POPC   D2A69412  20.575   5.840   6.755
11048POPC   C3A69413  20.588   5.916   7.055
11048POPC   C4A69414  20.621   5.825   7.355
11048POPC   C1B69415  20.410   6.034   6.455
11048POPC   C2B69416  20.447   5.993   6.755
11048POPC   C3B69417  20.401   6.079   7.055
11048POPC   C4B69418  20.468   6.075   7.355
11049POPC   NC369419   3.538  20.615   5.555
11049POPC   PO469420   3.582  20.644   5.855
11049POPC   GL169421   3.550  20.609   6.155
11049POPC   GL269422   3.483  20.568   6.155
11049POPC   C1A69423   3.517  20.580   6.455
11049POPC   D2A69424   3.517  20.643   6.755
11049POPC   C3A69425   3.555  20.574   7.055
11049POPC   C4A69426   3.530  20.625   7.355
11049POPC   C1B69427   3.387  20.419   6.455
11049POPC   C2B69428   3.312  20.414   6.755
11049POPC   C3B69429   3.335  20.487   7.055
11049POPC   C4B69430   3.378  20.450   7.355
11050POPC   NC369431  39.215  43.878   5.555
11050POPC   PO469432  39.199  43.904   5.855
11050POPC   GL169433  39.187  43.900   6.155
11050POPC   GL269434  39.124  43.825   6.155
11050POPC   C1A69435  39.210  43.841   6.455
11050POPC   D2A69436  39.208  43.916   6.755
11050POPC   C3A69437  39.266  43.848   7.055
11050POPC   C4A69438  39.223  43.872   7.355
11050POPC   C1B69439  38.965  43.836   6.455
11050POPC   C2B69440  38.960  43.857   6.755
11050POPC   C3B69441  39.019  43.801   7.055
11050POPC   C4B69442  38.938  43.883   7.355
11051POPC   NC369443  32.277  19.042   5.555
11051POPC   PO469444  32.259  19.066   5.855
11051POPC   GL169445  32.279  19.039   6.155
11051POPC   GL269446  32.088  19.055   6.155
11051POPC   C1A69447  32.254  19.101   6.455
11051POPC   D2A69448  32.213  19.068   6.755
11051POPC   C3A69449  32.246  19.044   7.055
11051POPC   C4A69450  32.277  19.100   7.355
11051POPC   C1B69451  32.015  19.121   6.455
11051POPC   C2B69452  31.991  19.175   6.755
11051POPC   C3B69453  32.000  19.093   7.055
11051POPC   C4B69454  32.018  19.123   7.355
11052POPC   NC369455  26.846  14.370   5.555
11052POPC   PO469456  26.838  14.382   5.855
11052POPC   GL169457  26.780  14.387   6.155
11052POPC   GL269458  26.882  14.293   6.155
11052POPC   C1A69459  26.832  14.419   6.455
11052POPC   D2A69460  26.795  14.395   6.755
11052POPC   C3A69461  26.781  14.442   7.055
11052POPC   C4A69462  26.774  14.391   7.355
11052POPC   C1B69463  26.870  14.114   6.455
11052POPC   C2B69464  26.884  14.117   6.755
11052POPC   C3B69465  26.846  14.188   7.055
11052POPC   C4B69466  26.825  14.152   7.355
11053POPC   NC369467  37.695  20.598   5.555
11053POPC   PO469468  37.660  20.571   5.855
11053POPC   GL169469  37.649  20.614   6.155
11053POPC   GL269470  37.794  20.629   6.155
11053POPC   C1A69471  37.715  20.561   6.455
11053POPC   D2A69472  37.638  20.639   6.755
11053POPC   C3A69473  37.677  20.602   7.055
11053POPC   C4A69474  37.691  20.639   7.355
11053POPC   C1B69475  37.932  20.679   6.455
11053POPC   C2B69476  37.921  20.671   6.755
11053POPC   C3B69477  37.900  20.710   7.055
11053POPC   C4B69478  37.906  20.739   7.355
11054POPC   NC369479  16.000  22.189   5.555
11054POPC   PO469480  15.979  22.113   5.855
11054POPC   GL169481  15.953  22.151   6.155
11054POPC   GL269482  16.076  22.306   6.155
11054POPC   C1A69483  15.915  22.211   6.455
11054POPC   D2A69484  15.973  22.193   6.755
11054POPC   C3A69485  15.954  22.128   7.055
11054POPC   C4A69486  16.004  22.145   7.355
11054POPC   C1B69487  16.085  22.365   6.455
11054POPC   C2B69488  16.112  22.324   6.755
11054POPC   C3B69489  16.124  22.362   7.055
11054POPC   C4B69490  16.114  22.330   7.355
11055POPC   NC369491  15.998   6.630   5.555
11055POPC   PO469492  15.943   6.675   5.855
11055POPC   GL169493  15.980   6.665   6.155
11055POPC   GL269494  15.962   6.486   6.155
11055POPC   C1A69495  15.927   6.629   6.455
11055POPC   D2A69496  15.967   6.635   6.755
11055POPC   C3A69497  15.909   6.693   7.055
11055POPC   C4A69498  15.927   6.634   7.355
11055POPC   C1B69499  15.871   6.443   6.455
11055POPC   C2B69500  15.900   6.376   6.755
11055POPC   C3B69501  15.949   6.392   7.055
11055POPC   C4B69502  15.861   6.351   7.355
11056POPC   NC369503   9.011  36.952   5.555
11056POPC   PO469504   8.950  36.941   5.855
11056POPC   GL169505   9.015  36.910   6.155
11056POPC   GL269506   9.022  36.992   6.155
11056POPC   C1A69507   8.928  36.881   6.455
11056POPC   D2A69508   8.991  36.939   6.755
11056POPC   C3A69509   8.928  36.946   7.055
11056POPC   C4A69510   8.997  36.873   7.355
11056POPC   C1B69511   9.069  37.125   6.455
11056POPC   C2B69512   9.110  37.141   6.755
11056POPC   C3B69513   9.122  37.124   7.055
11056POPC   C4B69514   9.054  37.116   7.355
11057POPC   NC369515  19.072   2.799   5.555
11057POPC   PO469516  19.058   2.751   5.855
11057POPC   GL169517  19.066   2.737   6.155
11057POPC   GL269518  18.990   2.750   6.155
11057POPC   C1A69519  19.047   2.741   6.455
11057POPC   D2A69520  19.071   2.765   6.755
11057POPC   C3A69521  19.099   2.798   7.055
11057POPC   C4A69522  19.049   2.745   7.355
11057POPC   C1B69523  18.865   2.725   6.455
11057POPC   C2B69524  18.842   2.704   6.755
11057POPC   C3B69525  18.827   2.665   7.055
11057POPC   C4B69526  18.783   2.716   7.355
11058POPC   NC369527   6.691  26.011   5.555
11058POPC   PO469528   6.640  26.056   5.855
11058POPC   GL169529   6.632  26.041   6.155
11058POPC   GL269530   6.736  26.056   6.155
11058POPC   C1A69531   6.667  26.079   6.455
11058POPC   D2A69532   6.621  26.044   6.755
11058POPC   C3A69533   6.637  26.080   7.055
11058POPC   C4A69534   6.676  26.003   7.355
11058POPC   C1B69535   6.885  25.968   6.455
11058POPC   C2B69536   6.870  26.019   6.755
11058POPC   C3B69537   6.921  26.002   7.055
11058POPC   C4B69538   6.904  26.029   7.355
11059POPC   NC369539  15.178  12.118   5.555
11059POPC   PO469540  15.174  12.097   5.855
11059POPC   GL169541  15.133  12.064   6.155
11059POPC   GL269542  15.228  12.230   6.155
11059POPC   C1A69543  15.181  12.032   6.455
11059POPC   D2A69544  15.179  12.112   6.755
11059POPC   C3A69545  15.214  12.102   7.055
11059POPC   C4A69546  15.171  12.124   7.355
11059POPC   C1B69547  15.263  12.265   6.455
11059POPC   C2B69548  15.295  12.307   6.755
11059POPC   C3B69549  15.251  12.294   7.055
11059POPC   C4B69550  15.291  12.282   7.355
11060POPC   NC369551   0.388  42.364   5.555
11060POPC   PO469552   0.441  42.374   5.855
11060POPC   GL169553   0.410  42.330   6.155
11060POPC   GL269554   0.353  42.453   6.155
11060POPC   C1A69555   0.416  42.342   6.455
11060POPC   D2A69556   0.419  42.286   6.755
11060POPC   C3A69557   0.442  42.291   7.055
11060POPC   C4A69558   0.436  42.372   7.355
11060POPC   C1B69559   0.330  42.573   6.455
11060POPC   C2B69560   0.370  42.540   6.755
11060POPC   C3B69561   0.391  42.542   7.055
11060POPC   C4B69562   0.316  42.552   7.355
11061POPC   NC369563  21.398  11.337   5.555
11061POPC   PO469564  21.434  11.300   5.855
11061POPC   GL169565  21.385  11.347   6.155
11061POPC   GL269566  21.310  11.385   6.155
11061POPC   C1A69567  21.344  11.269   6.455
11061POPC   D2A69568  21.403  11.292   6.755
11061POPC   C3A69569  21.348  11.319   7.055
11061POPC   C4A69570  21.357  11.260   7.355
11061POPC   C1B69571  21.180  11.431   6.455
11061POPC   C2B69572  21.132  11.367   6.755
11061POPC   C3B69573  21.107  11.391   7.055
11061POPC   C4B69574  21.192  11.379   7.355
11062POPC   NC369575  19.881  31.514   5.555
11062POPC   PO469576  19.842  31.461   5.855
11062POPC   GL169577  19.798  31.490   6.155
11062POPC   GL269578  19.868  31.644   6.155
11062POPC   C1A69579  19.839  31.446   6.455
11062POPC   D2A69580  19.856  31.454   6.755
11062POPC   C3A69581  19.881  31.519   7.055
11062POPC   C4A69582  19.813  31.425   7.355
11062POPC   C1B69583  19.861  31.757   6.455
11062POPC   C2B69584  19.869  31.753   6.755
11062POPC   C3B69585  19.829  31.750   7.055
11062POPC   C4B69586  19.822  31.764   7.355
11063POPC   NC369587  36.872  31.521   5.555
11063POPC   PO469588  36.950  31.478   5.855
11063POPC   GL169589  36.856  31.457   6.155
11063POPC   GL269590  37.005  31.332   6.155
11063POPC   C1A69591  36.921  31.477   6.455
11063POPC   D2A69592  36.864  31.494   6.755
11063POPC   C3A69593  36.880  31.474   7.055
11063POPC   C4A69594  36.950  31.443   7.355
11063POPC   C1B69595  37.041  31.269   6.455
11063POPC   C2B69596  37.022  31.208   6.755
11063POPC   C3B69597  37.001  31.218   7.055
11063POPC   C4B69598  36.999  31.223   7.355
11064POPC   NC369599  29.160  27.604   5.555
11064POPC   PO469600  29.160  27.603   5.855
11064POPC   GL169601  29.121  27.606   6.155
11064POPC   GL269602  29.157  27.463   6.155
11064POPC   C1A69603  29.160  27.609   6.455
11064POPC   D2A69604  29.126  27.637   6.755
11064POPC   C3A69605  29.110  27.551   7.055
11064POPC   C4A69606  29.175  27.562   7.355
11064POPC   C1B69607  29.263  27.321   6.455
11064POPC   C2B69608  29.278  27.385   6.755
11064POPC   C3B69609  29.279  27.319   7.055
11064POPC   C4B69610  29.213  27.359   7.355
11065POPC   NC369611  31.492  16.698   5.555
11065POPC   PO469612  31.494  16.729   5.855
11065POPC   GL169613  31.445  16.710   6.155
11065POPC   GL269614  31.511  16.843   6.155
11065POPC   C1A69615  31.431  16.732   6.455
11065POPC   D2A69616  31.443  16.701   6.755
11065POPC   C3A69617  31.459  16.740   7.055
11065POPC   C4A69618  31.475  16.756   7.355
11065POPC   C1B69619  31.644  16.958   6.455
11065POPC   C2B69620  31.625  16.943   6.755
11065POPC   C3B69621  31.627  16.932   7.055
11065POPC   C4B69622  31.604  16.873   7.355
11066POPC   NC369623   5.907  32.249   5.555
11066POPC   PO469624   5.914  32.222   5.855
11066POPC   GL169625   5.895  32.261   6.155
11066POPC   GL269626   5.948  32.128   6.155
11066POPC   C1A69627   5.911  32.211   6.455
11066POPC   D2A69628   5.898  32.213   6.755
11066POPC   C3A69629   5.884  32.267   7.055
11066POPC   C4A69630   5.908  32.224   7.355
11066POPC   C1B69631   6.022  32.007   6.455
11066POPC   C2B69632   5.999  32.048   6.755
11066POPC   C3B69633   6.007  32.082   7.055
11066POPC   C4B69634   6.062  32.056   7.355
11067POPC   NC369635   8.199  25.300   5.555
11067POPC   PO469636   8.153  25.271   5.855
11067POPC   GL169637   8.207  25.269   6.155
11067POPC   GL269638   8.263  25.211   6.155
11067POPC   C1A69639   8.186  25.255   6.455
11067POPC   D2A69640   8.236  25.225   6.755
11067POPC   C3A69641   8.230  25.283   7.055
11067POPC   C4A69642   8.234  25.311   7.355
11067POPC   C1B69643   8.402  25.058   6.455
11067POPC   C2B69644   8.331  25.066   6.755
11067POPC   C3B69645   8.308  25.058   7.055
11067POPC   C4B69646   8.335  25.073   7.355
11068POPC   NC369647  13.667  29.102   5.555
11068POPC   PO469648  13.644  29.124   5.855
11068POPC   GL169649  13.588  29.157   6.155
11068POPC   GL269650  13.549  29.098   6.155
11068POPC   C1A69651  13.579  29.136   6.455
11068POPC   D2A69652  13.604  29.147   6.755
11068POPC   C3A69653  13.632  29.184   7.055
11068POPC   C4A69654  13.606  29.142   7.355
11068POPC   C1B69655  13.343  29.126   6.455
11068POPC   C2B69656  13.370  29.073   6.755
11068POPC   C3B69657  13.337  29.077   7.055
11068POPC   C4B69658  13.354  29.094   7.355
11069POPC   NC369659  12.865  22.159   5.555
11069POPC   PO469660  12.836  22.207   5.855
11069POPC   GL169661  12.855  22.176   6.155
11069POPC   GL269662  12.746  22.207   6.155
11069POPC   C1A69663  12.853  22.123   6.455
11069POPC   D2A69664  12.868  22.184   6.755
11069POPC   C3A69665  12.890  22.164   7.055
11069POPC   C4A69666  12.897  22.195   7.355
11069POPC   C1B69667  12.599  22.268   6.455
11069POPC   C2B69668  12.641  22.197   6.755
11069POPC   C3B69669  12.621  22.221   7.055
11069POPC   C4B69670  12.568  22.276   7.355
11070POPC   NC369671  20.580  14.418   5.555
11070POPC   PO469672  20.585  14.357   5.855
11070POPC   GL169673  20.594  14.401   6.155
11070POPC   GL269674  20.564  14.258   6.155
11070POPC   C1A69675  20.601  14.418   6.455
11070POPC   D2A69676  20.591  14.377   6.755
11070POPC   C3A69677  20.637  14.370   7.055
11070POPC   C4A69678  20.593  14.444   7.355
11070POPC   C1B69679  20.629  14.175   6.455
11070POPC   C2B69680  20.570  14.148   6.755
11070POPC   C3B69681  20.663  14.113   7.055
11070POPC   C4B69682  20.628  14.122   7.355
11071POPC   NC369683  13.580   9.796   5.555
11071POPC   PO469684  13.645   9.734   5.855
11071POPC   GL169685  13.608   9.702   6.155
11071POPC   GL269686  13.710   9.790   6.155
11071POPC   C1A69687  13.599   9.739   6.455
11071POPC   D2A69688  13.661   9.795   6.755
11071POPC   C3A69689  13.579   9.726   7.055
11071POPC   C4A69690  13.666   9.741   7.355
11071POPC   C1B69691  13.816   9.948   6.455
11071POPC   C2B69692  13.772   9.958   6.755
11071POPC   C3B69693  13.849   9.902   7.055
11071POPC   C4B69694  13.841   9.866   7.355
11072POPC   NC369695  19.793  37.680   5.555
11072POPC   PO469696  19.883  37.701   5.855
11072POPC   GL169697  19.797  37.716   6.155
11072POPC   GL269698  19.720  37.700   6.155
11072POPC   C1A69699  19.813  37.721   6.455
11072POPC   D2A69700  19.800  37.640   6.755
11072POPC   C3A69701  19.828  37.683   7.055
11072POPC   C4A69702  19.868  37.643   7.355
11072POPC   C1B69703  19.557  37.670   6.455
11072POPC   C2B69704  19.545  37.700   6.755
11072POPC   C3B69705  19.599  37.667   7.055
11072POPC   C4B69706  19.617  37.677   7.355
11073POPC   NC369707  35.377  21.369   5.555
11073POPC   PO469708  35.303  21.345   5.855
11073POPC   GL169709  35.383  21.394   6.155
11073POPC   GL269710  35.370  21.302   6.155
11073POPC   C1A69711  35.363  21.372   6.455
11073POPC   D2A69712  35.351  21.370   6.755
11073POPC   C3A69713  35.333  21.356   7.055
11073POPC   C4A69714  35.391  21.347   7.355
11073POPC   C1B69715  35.454  21.192   6.455
11073POPC   C2B69716  35.399  21.157   6.755
11073POPC   C3B69717  35.469  21.198   7.055
11073POPC   C4B69718  35.404  21.162   7.355
11074POPC   NC369719  34.620  17.541   5.555
11074POPC   PO469720  34.531  17.512   5.855
11074POPC   GL169721  34.587  17.530   6.155
11074POPC   GL269722  34.490  17.529   6.155
11074POPC   C1A69723  34.570  17.476   6.455
11074POPC   D2A69724  34.559  17.514   6.755
11074POPC   C3A69725  34.538  17.464   7.055
11074POPC   C4A69726  34.550  17.525   7.355
11074POPC   C1B69727  34.342  17.657   6.455
11074POPC   C2B69728  34.335  17.597   6.755
11074POPC   C3B69729  34.382  17.582   7.055
11074POPC   C4B69730  34.369  17.578   7.355
11075POPC   NC369731   5.852  34.609   5.555
11075POPC   PO469732   5.869  34.558   5.855
11075POPC   GL169733   5.904  34.530   6.155
11075POPC   GL269734   5.708  34.634   6.155
11075POPC   C1A69735   5.876  34.559   6.455
11075POPC   D2A69736   5.871  34.547   6.755
11075POPC   C3A69737   5.900  34.571   7.055
11075POPC   C4A69738   5.896  34.534   7.355
11075POPC   C1B69739   5.617  34.713   6.455
11075POPC   C2B69740   5.604  34.663   6.755
11075POPC   C3B69741   5.600  34.705   7.055
11075POPC   C4B69742   5.646  34.662   7.355
11076POPC   NC369743  28.361  40.733   5.555
11076POPC   PO469744  28.400  40.762   5.855
11076POPC   GL169745  28.390  40.750   6.155
11076POPC   GL269746  28.500  40.761   6.155
11076POPC   C1A69747  28.406  40.811   6.455
11076POPC   D2A69748  28.362  40.823   6.755
11076POPC   C3A69749  28.395  40.784   7.055
11076POPC   C4A69750  28.368  40.736   7.355
11076POPC   C1B69751  28.590  40.772   6.455
11076POPC   C2B69752  28.666  40.811   6.755
11076POPC   C3B69753  28.635  40.853   7.055
11076POPC   C4B69754  28.597  40.856   7.355
11077POPC   NC369755  41.565  21.356   5.555
11077POPC   PO469756  41.606  21.372   5.855
11077POPC   GL169757  41.602  21.431   6.155
11077POPC   GL269758  41.546  21.270   6.155
11077POPC   C1A69759  41.525  21.401   6.455
11077POPC   D2A69760  41.547  21.361   6.755
11077POPC   C3A69761  41.526  21.382   7.055
11077POPC   C4A69762  41.598  21.435   7.355
11077POPC   C1B69763  41.568  21.177   6.455
11077POPC   C2B69764  41.593  21.187   6.755
11077POPC   C3B69765  41.627  21.173   7.055
11077POPC   C4B69766  41.624  21.132   7.355
11078POPC   NC369767  28.389  29.923   5.555
11078POPC   PO469768  28.322  29.931   5.855
11078POPC   GL169769  28.415  29.904   6.155
11078POPC   GL269770  28.390  29.838   6.155
11078POPC   C1A69771  28.391  29.906   6.455
11078POPC   D2A69772  28.360  29.924   6.755
11078POPC   C3A69773  28.319  29.917   7.055
11078POPC   C4A69774  28.414  29.903   7.355
11078POPC   C1B69775  28.327  29.713   6.455
11078POPC   C2B69776  28.344  29.623   6.755
11078POPC   C3B69777  28.317  29.622   7.055
11078POPC   C4B69778  28.396  29.674   7.355
11079POPC   NC369779  43.069  15.206   5.555
11079POPC   PO469780  43.143  15.179   5.855
11079POPC   GL169781  43.153  15.142   6.155
11079POPC   GL269782  43.190  15.077   6.155
11079POPC   C1A69783  43.156  15.147   6.455
11079POPC   D2A69784  43.073  15.155   6.755
11079POPC   C3A69785  43.071  15.135   7.055
11079POPC   C4A69786  43.073  15.173   7.355
11079POPC   C1B69787  43.200  14.926   6.455
11079POPC   C2B69788  43.187  14.909   6.755
11079POPC   C3B69789  43.191  14.926   7.055
11079POPC   C4B69790  43.237  14.908   7.355
11080POPC   NC369791  18.280  40.027   5.555
11080POPC   PO469792  18.315  40.038   5.855
11080POPC   GL169793  18.278  40.036   6.155
11080POPC   GL269794  18.186  39.927   6.155
11080POPC   C1A69795  18.263  40.056   6.455
11080POPC   D2A69796  18.281  39.961   6.755
11080POPC   C3A69797  18.274  40.019   7.055
11080POPC   C4A69798  18.315  39.958   7.355
11080POPC   C1B69799  18.086  39.946   6.455
11080POPC   C2B69800  18.090  39.892   6.755
11080POPC   C3B69801  18.068  39.879   7.055
11080POPC   C4B69802  18.093  39.940   7.355
11081POPC   NC369803  25.295  43.863   5.555
11081POPC   PO469804  25.262  43.925   5.855
11081POPC   GL169805  25.236  43.865   6.155
11081POPC   GL269806  25.391  43.851   6.155
11081POPC   C1A69807  25.220  43.855   6.455
11081POPC   D2A69808  25.225  43.837   6.755
11081POPC   C3A69809  25.281  43.873   7.055
11081POPC   C4A69810  25.313  43.841   7.355
11081POPC   C1B69811  25.484  43.882   6.455
11081POPC   C2B69812  25.544  43.858   6.755
11081POPC   C3B69813  25.500  43.902   7.055
11081POPC   C4B69814  25.531  43.899   7.355
11082POPC   NC369815  39.209  13.641   5.555
11082POPC   PO469816  39.268  13.656   5.855
11082POPC   GL169817  39.226  13.579   6.155
11082POPC   GL269818  39.286  13.483   6.155
11082POPC   C1A69819  39.202  13.594   6.455
11082POPC   D2A69820  39.262  13.637   6.755
11082POPC   C3A69821  39.192  13.662   7.055
11082POPC   C4A69822  39.253  13.593   7.355
11082POPC   C1B69823  39.286  13.368   6.455
11082POPC   C2B69824  39.340  13.430   6.755
11082POPC   C3B69825  39.329  13.389   7.055
11082POPC   C4B69826  39.284  13.381   7.355
11083POPC   NC369827  15.139  22.170   5.555
11083POPC   PO469828  15.200  22.117   5.855
11083POPC   GL169829  15.184  22.172   6.155
11083POPC   GL269830  15.105  22.080   6.155
11083POPC   C1A69831  15.132  22.209   6.455
11083POPC   D2A69832  15.210  22.187   6.755
11083POPC   C3A69833  15.149  22.211   7.055
11083POPC   C4A69834  15.226  22.178   7.355
11083POPC   C1B69835  15.044  21.965   6.455
11083POPC   C2B69836  15.001  22.025   6.755
11083POPC   C3B69837  15.011  21.948   7.055
11083POPC   C4B69838  14.966  21.993   7.355
11084POPC   NC369839   3.506  40.040   5.555
11084POPC   PO469840   3.583  40.043   5.855
11084POPC   GL169841   3.494  39.983   6.155
11084POPC   GL269842   3.623  39.928   6.155
11084POPC   C1A69843   3.508  40.023   6.455
11084POPC   D2A69844   3.503  40.021   6.755
11084POPC   C3A69845   3.535  39.962   7.055
11084POPC   C4A69846   3.493  40.024   7.355
11084POPC   C1B69847   3.611  39.806   6.455
11084POPC   C2B69848   3.674  39.774   6.755
11084POPC   C3B69849   3.673  39.775   7.055
11084POPC   C4B69850   3.698  39.786   7.355
11085POPC   NC369851  30.714  42.340   5.555
11085POPC   PO469852  30.675  42.351   5.855
11085POPC   GL169853  30.683  42.329   6.155
11085POPC   GL269854  30.833  42.289   6.155
11085POPC   C1A69855  30.745  42.333   6.455
11085POPC   D2A69856  30.722  42.359   6.755
11085POPC   C3A69857  30.661  42.378   7.055
11085POPC   C4A69858  30.692  42.312   7.355
11085POPC   C1B69859  30.867  42.179   6.455
11085POPC   C2B69860  30.880  42.168   6.755
11085POPC   C3B69861  30.875  42.232   7.055
11085POPC   C4B69862  30.845  42.193   7.355
11086POPC   NC369863  42.337  19.066   5.555
11086POPC   PO469864  42.369  19.054   5.855
11086POPC   GL169865  42.365  19.036   6.155
11086POPC   GL269866  42.469  19.129   6.155
11086POPC   C1A69867  42.316  19.020   6.455
11086POPC   D2A69868  42.312  19.043   6.755
11086POPC   C3A69869  42.383  19.015   7.055
11086POPC   C4A69870  42.298  19.088   7.355
11086POPC   C1B69871  42.506  19.175   6.455
11086POPC   C2B69872  42.518  19.225   6.755
11086POPC   C3B69873  42.502  19.167   7.055
11086POPC   C4B69874  42.536  19.201   7.355
11087POPC   NC369875  36.888  38.423   5.555
11087POPC   PO469876  36.896  38.420   5.855
11087POPC   GL169877  36.925  38.414   6.155
11087POPC   GL269878  36.751  38.482   6.155
11087POPC   C1A69879  36.907  38.476   6.455
11087POPC   D2A69880  36.866  38.409   6.755
11087POPC   C3A69881  36.895  38.411   7.055
11087POPC   C4A69882  36.934  38.419   7.355
11087POPC   C1B69883  36.658  38.530   6.455
11087POPC   C2B69884  36.630  38.492   6.755
11087POPC   C3B69885  36.683  38.493   7.055
11087POPC   C4B69886  36.617  38.499   7.355
11088POPC   NC369887  12.037   8.981   5.555
11088POPC   PO469888  12.125   8.991   5.855
11088POPC   GL169889  12.087   8.987   6.155
11088POPC   GL269890  12.027   8.878   6.155
11088POPC   C1A69891  12.095   8.932   6.455
11088POPC   D2A69892  12.086   8.960   6.755
11088POPC   C3A69893  12.095   9.015   7.055
11088POPC   C4A69894  12.064   9.001   7.355
11088POPC   C1B69895  11.878   8.751   6.455
11088POPC   C2B69896  11.938   8.803   6.755
11088POPC   C3B69897  11.913   8.756   7.055
11088POPC   C4B69898  11.918   8.753   7.355
11089POPC   NC369899  17.527  26.046   5.555
11089POPC   PO469900  17.548  26.046   5.855
11089POPC   GL169901  17.478  26.019   6.155
11089POPC   GL269902  17.475  26.204   6.155
11089POPC   C1A69903  17.522  26.017   6.455
11089POPC   D2A69904  17.486  26.034   6.755
11089POPC   C3A69905  17.528  26.022   7.055
11089POPC   C4A69906  17.529  26.059   7.355
11089POPC   C1B69907  17.552  26.254   6.455
11089POPC   C2B69908  17.545  26.332   6.755
11089POPC   C3B69909  17.464  26.279   7.055
11089POPC   C4B69910  17.550  26.321   7.355
11090POPC   NC369911   9.765   4.367   5.555
11090POPC   PO469912   9.795   4.281   5.855
11090POPC   GL169913   9.768   4.355   6.155
11090POPC   GL269914   9.845   4.275   6.155
11090POPC   C1A69915   9.717   4.330   6.455
11090POPC   D2A69916   9.768   4.350   6.755
11090POPC   C3A69917   9.706   4.332   7.055
11090POPC   C4A69918   9.728   4.284   7.355
11090POPC   C1B69919   9.977   4.178   6.455
11090POPC   C2B69920   9.971   4.169   6.755
11090POPC   C3B69921   9.914   4.132   7.055
11090POPC   C4B69922   9.907   4.101   7.355
11091POPC   NC369923  40.743  41.542   5.555
11091POPC   PO469924  40.734  41.539   5.855
11091POPC   GL169925  40.809  41.515   6.155
11091POPC   GL269926  40.765  41.647   6.155
11091POPC   C1A69927  40.825  41.598   6.455
11091POPC   D2A69928  40.737  41.597   6.755
11091POPC   C3A69929  40.808  41.564   7.055
11091POPC   C4A69930  40.795  41.530   7.355
11091POPC   C1B69931  40.729  41.769   6.455
11091POPC   C2B69932  40.715  41.809   6.755
11091POPC   C3B69933  40.689  41.781   7.055
11091POPC   C4B69934  40.648  41.823   7.355
11092POPC   NC369935  44.685  27.600   5.555
11092POPC   PO469936  44.650  27.604   5.855
11092POPC   GL169937  44.708  27.583   6.155
11092POPC   GL269938  44.724  27.716   6.155
11092POPC   C1A69939  44.631  27.565   6.455
11092POPC   D2A69940  44.671  27.556   6.755
11092POPC   C3A69941  44.655  27.593   7.055
11092POPC   C4A69942  44.628  27.611   7.355
11092POPC   C1B69943  44.801  27.826   6.455
11092POPC   C2B69944  44.827  27.787   6.755
11092POPC   C3B69945  44.861  27.781   7.055
11092POPC   C4B69946  44.853  27.812   7.355
11093POPC   NC369947   4.271  26.767   5.555
11093POPC   PO469948   4.300  26.831   5.855
11093POPC   GL169949   4.304  26.842   6.155
11093POPC   GL269950   4.425  26.728   6.155
11093POPC   C1A69951   4.298  26.781   6.455
11093POPC   D2A69952   4.287  26.774   6.755
11093POPC   C3A69953   4.326  26.781   7.055
11093POPC   C4A69954   4.334  26.803   7.355
11093POPC   C1B69955   4.552  26.645   6.455
11093POPC   C2B69956   4.518  26.669   6.755
11093POPC   C3B69957   4.547  26.635   7.055
11093POPC   C4B69958   4.571  26.642   7.355
11094POPC   NC369959  36.149   3.522   5.555
11094POPC   PO469960  36.106   3.530   5.855
11094POPC   GL169961  36.173   3.550   6.155
11094POPC   GL269962  36.093   3.420   6.155
11094POPC   C1A69963  36.098   3.587   6.455
11094POPC   D2A69964  36.139   3.500   6.755
11094POPC   C3A69965  36.147   3.554   7.055
11094POPC   C4A69966  36.092   3.591   7.355
11094POPC   C1B69967  36.070   3.274   6.455
11094POPC   C2B69968  36.015   3.264   6.755
11094POPC   C3B69969  36.053   3.311   7.055
11094POPC   C4B69970  36.078   3.331   7.355
11095POPC   NC369971  32.264  29.970   5.555
11095POPC   PO469972  32.287  29.952   5.855
11095POPC   GL169973  32.274  29.908   6.155
11095POPC   GL269974  32.324  29.941   6.155
11095POPC   C1A69975  32.267  29.923   6.455
11095POPC   D2A69976  32.261  29.910   6.755
11095POPC   C3A69977  32.247  29.891   7.055
11095POPC   C4A69978  32.202  29.933   7.355
11095POPC   C1B69979  32.492  30.007   6.455
11095POPC   C2B69980  32.498  30.054   6.755
11095POPC   C3B69981  32.436  30.011   7.055
11095POPC   C4B69982  32.478  30.048   7.355
11096POPC   NC369983  31.519  15.988   5.555
11096POPC   PO469984  31.503  15.934   5.855
11096POPC   GL169985  31.433  15.994   6.155
11096POPC   GL269986  31.328  15.853   6.155
11096POPC   C1A69987  31.488  15.982   6.455
11096POPC   D2A69988  31.432  15.988   6.755
11096POPC   C3A69989  31.449  15.945   7.055
11096POPC   C4A69990  31.462  15.976   7.355
11096POPC   C1B69991  31.260  15.848   6.455
11096POPC   C2B69992  31.209  15.827   6.755
11096POPC   C3B69993  31.293  15.852   7.055
11096POPC   C4B69994  31.261  15.847   7.355
11097POPC   NC369995  16.731  38.482   5.555
11097POPC   PO469996  16.718  38.462   5.855
11097POPC   GL169997  16.747  38.448   6.155
11097POPC   GL269998  16.768  38.333   6.155
11097POPC   C1A69999  16.696  38.418   6.455
11097POPC   D2A70000  16.732  38.439   6.755
11097POPC   C3A70001  16.761  38.502   7.055
11097POPC   C4A70002  16.729  38.416   7.355
11097POPC   C1B70003  16.839  38.185   6.455
11097POPC   C2B70004  16.789  38.217   6.755
11097POPC   C3B70005  16.859  38.241   7.055
11097POPC   C4B70006  16.824  38.258   7.355
11098POPC   NC370007  18.298  31.445   5.555
11098POPC   PO470008  18.284  31.443   5.855
11098POPC   GL170009  18.287  31.428   6.155
11098POPC   GL270010  18.317  31.572   6.155
11098POPC   C1A70011  18.296  31.498   6.455
11098POPC   D2A70012  18.235  31.509   6.755
11098POPC   C3A70013  18.301  31.514   7.055
11098POPC   C4A70014  18.286  31.513   7.355
11098POPC   C1B70015  18.392  31.670   6.455
11098POPC   C2B70016  18.406  31.704   6.755
11098POPC   C3B70017  18.428  31.656   7.055
11098POPC   C4B70018  18.344  31.746   7.355
11099POPC   NC370019   0.471  38.431   5.555
11099POPC   PO470020   0.450  38.462   5.855
11099POPC   GL170021   0.395  38.432   6.155
11099POPC   GL270022   0.383  38.569   6.155
11099POPC   C1A70023   0.483  38.470   6.455
11099POPC   D2A70024   0.447  38.406   6.755
11099POPC   C3A70025   0.442  38.504   7.055
11099POPC   C4A70026   0.452  38.479   7.355
11099POPC   C1B70027   0.206  38.651   6.455
11099POPC   C2B70028   0.269  38.611   6.755
11099POPC   C3B70029   0.289  38.591   7.055
11099POPC   C4B70030   0.303  38.579   7.355
11100POPC   NC370031  40.046  12.123   5.555
11100POPC   PO470032  40.054  12.037   5.855
11100POPC   GL170033  39.993  12.040   6.155
11100POPC   GL270034  40.058  12.159   6.155
11100POPC   C1A70035  39.967  12.094   6.455
11100POPC   D2A70036  39.967  12.035   6.755
11100POPC   C3A70037  40.011  12.070   7.055
11100POPC   C4A70038  40.040  12.090   7.355
11100POPC   C1B70039  40.109  12.259   6.455
11100POPC   C2B70040  40.086  12.320   6.755
11100POPC   C3B70041  40.104  12.296   7.055
11100POPC   C4B70042  40.123  12.258   7.355
11101POPC   NC370043   5.888   0.396   5.555
11101POPC   PO470044   5.831   0.399   5.855
11101POPC   GL170045   5.863   0.398   6.155
11101POPC   GL270046   6.028   0.409   6.155
11101POPC   C1A70047   5.860   0.411   6.455
11101POPC   D2A70048   5.834   0.486   6.755
11101POPC   C3A70049   5.819   0.408   7.055
11101POPC   C4A70050   5.860   0.396   7.355
11101POPC   C1B70051   6.126   0.469   6.455
11101POPC   C2B70052   6.088   0.518   6.755
11101POPC   C3B70053   6.106   0.477   7.055
11101POPC   C4B70054   6.076   0.498   7.355
11102POPC   NC370055  23.720  40.755   5.555
11102POPC   PO470056  23.743  40.831   5.855
11102POPC   GL170057  23.724  40.804   6.155
11102POPC   GL270058  23.804  40.704   6.155
11102POPC   C1A70059  23.673  40.752   6.455
11102POPC   D2A70060  23.758  40.821   6.755
11102POPC   C3A70061  23.707  40.801   7.055
11102POPC   C4A70062  23.715  40.795   7.355
11102POPC   C1B70063  23.853  40.530   6.455
11102POPC   C2B70064  23.799  40.555   6.755
11102POPC   C3B70065  23.771  40.580   7.055
11102POPC   C4B70066  23.831  40.502   7.355
11103POPC   NC370067  19.823   9.747   5.555
11103POPC   PO470068  19.827   9.721   5.855
11103POPC   GL170069  19.802   9.701   6.155
11103POPC   GL270070  19.756   9.590   6.155
11103POPC   C1A70071  19.814   9.758   6.455
11103POPC   D2A70072  19.786   9.723   6.755
11103POPC   C3A70073  19.797   9.703   7.055
11103POPC   C4A70074  19.815   9.703   7.355
11103POPC   C1B70075  19.755   9.511   6.455
11103POPC   C2B70076  19.711   9.565   6.755
11103POPC   C3B70077  19.737   9.474   7.055
11103POPC   C4B70078  19.715   9.550   7.355
11104POPC   NC370079  18.312  10.481   5.555
11104POPC   PO470080  18.262  10.517   5.855
11104POPC   GL170081  18.246  10.567   6.155
11104POPC   GL270082  18.172  10.522   6.155
11104POPC   C1A70083  18.262  10.482   6.455
11104POPC   D2A70084  18.322  10.520   6.755
11104POPC   C3A70085  18.331  10.572   7.055
11104POPC   C4A70086  18.286  10.514   7.355
11104POPC   C1B70087  18.055  10.528   6.455
11104POPC   C2B70088  17.999  10.465   6.755
11104POPC   C3B70089  18.019  10.526   7.055
11104POPC   C4B70090  18.041  10.548   7.355
11105POPC   NC370091   0.407  43.903   5.555
11105POPC   PO470092   0.476  43.884   5.855
11105POPC   GL170093   0.453  43.920   6.155
11105POPC   GL270094   0.553  43.820   6.155
11105POPC   C1A70095   0.410  43.866   6.455
11105POPC   D2A70096   0.463  43.854   6.755
11105POPC   C3A70097   0.472  43.920   7.055
11105POPC   C4A70098   0.427  43.868   7.355
11105POPC   C1B70099   0.690  43.826   6.455
11105POPC   C2B70100   0.677  43.854   6.755
11105POPC   C3B70101   0.723  43.864   7.055
11105POPC   C4B70102   0.691  43.872   7.355
11106POPC   NC370103  41.585  26.828   5.555
11106POPC   PO470104  41.510  26.817   5.855
11106POPC   GL170105  41.531  26.771   6.155
11106POPC   GL270106  41.668  26.869   6.155
11106POPC   C1A70107  41.564  26.785   6.455
11106POPC   D2A70108  41.590  26.791   6.755
11106POPC   C3A70109  41.563  26.860   7.055
11106POPC   C4A70110  41.582  26.780   7.355
11106POPC   C1B70111  41.774  26.930   6.455
11106POPC   C2B70112  41.747  26.984   6.755
11106POPC   C3B70113  41.741  26.946   7.055
11106POPC   C4B70114  41.809  26.946   7.355
11107POPC   NC370115  27.577  11.327   5.555
11107POPC   PO470116  27.580  11.307   5.855
11107POPC   GL170117  27.631  11.297   6.155
11107POPC   GL270118  27.588  11.229   6.155
11107POPC   C1A70119  27.631  11.316   6.455
11107POPC   D2A70120  27.603  11.288   6.755
11107POPC   C3A70121  27.578  11.257   7.055
11107POPC   C4A70122  27.577  11.334   7.355
11107POPC   C1B70123  27.499  11.113   6.455
11107POPC   C2B70124  27.489  11.049   6.755
11107POPC   C3B70125  27.515  11.072   7.055
11107POPC   C4B70126  27.495  11.031   7.355
11108POPC   NC370127   4.342   2.740   5.555
11108POPC   PO470128   4.274   2.782   5.855
11108POPC   GL170129   4.315   2.761   6.155
11108POPC   GL270130   4.474   2.831   6.155
11108POPC   C1A70131   4.280   2.792   6.455
11108POPC   D2A70132   4.279   2.724   6.755
11108POPC   C3A70133   4.354   2.786   7.055
11108POPC   C4A70134   4.341   2.739   7.355
11108POPC   C1B70135   4.525   2.802   6.455
11108POPC   C2B70136   4.545   2.831   6.755
11108POPC   C3B70137   4.535   2.768   7.055
11108POPC   C4B70138   4.544   2.831   7.355
11109POPC   NC370139   3.531  15.950   5.555
11109POPC   PO470140   3.509  15.941   5.855
11109POPC   GL170141   3.546  15.946   6.155
11109POPC   GL270142   3.535  15.805   6.155
11109POPC   C1A70143   3.535  15.925   6.455
11109POPC   D2A70144   3.537  15.943   6.755
11109POPC   C3A70145   3.507  16.004   7.055
11109POPC   C4A70146   3.545  15.966   7.355
11109POPC   C1B70147   3.610  15.755   6.455
11109POPC   C2B70148   3.528  15.722   6.755
11109POPC   C3B70149   3.608  15.738   7.055
11109POPC   C4B70150   3.567  15.670   7.355
11110POPC   NC370151   1.170   0.422   5.555
11110POPC   PO470152   1.234   0.420   5.855
11110POPC   GL170153   1.238   0.439   6.155
11110POPC   GL270154   1.215   0.556   6.155
11110POPC   C1A70155   1.242   0.396   6.455
11110POPC   D2A70156   1.166   0.472   6.755
11110POPC   C3A70157   1.178   0.474   7.055
11110POPC   C4A70158   1.209   0.452   7.355
11110POPC   C1B70159   1.254   0.664   6.455
11110POPC   C2B70160   1.306   0.654   6.755
11110POPC   C3B70161   1.232   0.695   7.055
11110POPC   C4B70162   1.310   0.714   7.355
11111POPC   NC370163  34.555  36.930   5.555
11111POPC   PO470164  34.614  36.942   5.855
11111POPC   GL170165  34.545  36.910   6.155
11111POPC   GL270166  34.499  36.929   6.155
11111POPC   C1A70167  34.576  36.899   6.455
11111POPC   D2A70168  34.562  36.907   6.755
11111POPC   C3A70169  34.592  36.873   7.055
11111POPC   C4A70170  34.534  36.911   7.355
11111POPC   C1B70171  34.400  37.057   6.455
11111POPC   C2B70172  34.346  37.045   6.755
11111POPC   C3B70173  34.331  36.995   7.055
11111POPC   C4B70174  34.397  37.071   7.355
11112POPC   NC370175   2.815  12.814   5.555
11112POPC   PO470176   2.775  12.896   5.855
11112POPC   GL170177   2.779  12.897   6.155
11112POPC   GL270178   2.825  13.026   6.155
11112POPC   C1A70179   2.766  12.882   6.455
11112POPC   D2A70180   2.792  12.841   6.755
11112POPC   C3A70181   2.784  12.886   7.055
11112POPC   C4A70182   2.719  12.844   7.355
11112POPC   C1B70183   2.766  13.136   6.455
11112POPC   C2B70184   2.824  13.140   6.755
11112POPC   C3B70185   2.757  13.065   7.055
11112POPC   C4B70186   2.777  13.096   7.355
11113POPC   NC370187  25.300  16.711   5.555
11113POPC   PO470188  25.262  16.694   5.855
11113POPC   GL170189  25.299  16.700   6.155
11113POPC   GL270190  25.112  16.683   6.155
11113POPC   C1A70191  25.221  16.743   6.455
11113POPC   D2A70192  25.288  16.712   6.755
11113POPC   C3A70193  25.220  16.702   7.055
11113POPC   C4A70194  25.239  16.761   7.355
11113POPC   C1B70195  25.074  16.639   6.455
11113POPC   C2B70196  25.003  16.645   6.755
11113POPC   C3B70197  25.023  16.598   7.055
11113POPC   C4B70198  25.082  16.611   7.355
11114POPC   NC370199  36.171  27.631   5.555
11114POPC   PO470200  36.122  27.570   5.855
11114POPC   GL170201  36.139  27.544   6.155
11114POPC   GL270202  36.240  27.596   6.155
11114POPC   C1A70203  36.148  27.584   6.455
11114POPC   D2A70204  36.113  27.641   6.755
11114POPC   C3A70205  36.097  27.586   7.055
11114POPC   C4A70206  36.150  27.595   7.355
11114POPC   C1B70207  36.364  27.678   6.455
11114POPC   C2B70208  36.363  27.644   6.755
11114POPC   C3B70209  36.389  27.676   7.055
11114POPC   C4B70210  36.360  27.662   7.355
11115POPC   NC370211  40.746  14.423   5.555
11115POPC   PO470212  40.787  14.414   5.855
11115POPC   GL170213  40.812  14.366   6.155
11115POPC   GL270214  40.693  14.397   6.155
11115POPC   C1A70215  40.813  14.386   6.455
11115POPC   D2A70216  40.757  14.378   6.755
11115POPC   C3A70217  40.811  14.373   7.055
11115POPC   C4A70218  40.787  14.375   7.355
11115POPC   C1B70219  40.529  14.440   6.455
11115POPC   C2B70220  40.506  14.460   6.755
11115POPC   C3B70221  40.576  14.426   7.055
11115POPC   C4B70222  40.538  14.422   7.355
11116POPC   NC370223  37.666   5.827   5.555
11116POPC   PO470224  37.675   5.878   5.855
11116POPC   GL170225  37.676   5.901   6.155
11116POPC   GL270226  37.650   5.725   6.155
11116POPC   C1A70227  37.712   5.842   6.455
11116POPC   D2A70228  37.711   5.863   6.755
11116POPC   C3A70229  37.634   5.834   7.055
11116POPC   C4A70230  37.664   5.875   7.355
11116POPC   C1B70231  37.632   5.610   6.455
11116POPC   C2B70232  37.720   5.601   6.755
11116POPC   C3B70233  37.694   5.614   7.055
11116POPC   C4B70234  37.677   5.595   7.355
11117POPC   NC370235  29.189  31.461   5.555
11117POPC   PO470236  29.137  31.432   5.855
11117POPC   GL170237  29.129  31.495   6.155
11117POPC   GL270238  29.035  31.531   6.155
11117POPC   C1A70239  29.102  31.516   6.455
11117POPC   D2A70240  29.159  31.445   6.755
11117POPC   C3A70241  29.145  31.466   7.055
11117POPC   C4A70242  29.102  31.476   7.355
11117POPC   C1B70243  28.922  31.569   6.455
11117POPC   C2B70244  28.866  31.570   6.755
11117POPC   C3B70245  28.866  31.570   7.055
11117POPC   C4B70246  28.917  31.542   7.355
11118POPC   NC370247  26.079  31.511   5.555
11118POPC   PO470248  26.008  31.446   5.855
11118POPC   GL170249  26.040  31.469   6.155
11118POPC   GL270250  26.144  31.405   6.155
11118POPC   C1A70251  26.007  31.442   6.455
11118POPC   D2A70252  26.012  31.473   6.755
11118POPC   C3A70253  26.024  31.468   7.055
11118POPC   C4A70254  26.079  31.426   7.355
11118POPC   C1B70255  26.308  31.479   6.455
11118POPC   C2B70256  26.264  31.402   6.755
11118POPC   C3B70257  26.314  31.407   7.055
11118POPC   C4B70258  26.313  31.460   7.355
11119POPC   NC370259   0.402  12.851   5.555
11119POPC   PO470260   0.440  12.864   5.855
11119POPC   GL170261   0.404  12.822   6.155
11119POPC   GL270262   0.297  12.806   6.155
11119POPC   C1A70263   0.415  12.822   6.455
11119POPC   D2A70264   0.486  12.840   6.755
11119POPC   C3A70265   0.436  12.870   7.055
11119POPC   C4A70266   0.392  12.844   7.355
11119POPC   C1B70267   0.203  12.681   6.455
11119POPC   C2B70268   0.253  12.683   6.755
11119POPC   C3B70269   0.203  12.680   7.055
11119POPC   C4B70270   0.245  12.729   7.355
11120POPC   NC370271  29.172  29.921   5.555
11120POPC   PO470272  29.122  29.957   5.855
11120POPC   GL170273  29.163  29.915   6.155
11120POPC   GL270274  29.039  29.961   6.155
11120POPC   C1A70275  29.107  29.885   6.455
11120POPC   D2A70276  29.110  29.895   6.755
11120POPC   C3A70277  29.107  29.967   7.055
11120POPC   C4A70278  29.135  29.939   7.355
11120POPC   C1B70279  28.958  30.044   6.455
11120POPC   C2B70280  28.903  30.103   6.755
11120POPC   C3B70281  28.972  30.098   7.055
11120POPC   C4B70282  28.983  30.049   7.355
11121POPC   NC370283  26.029  32.211   5.555
11121POPC   PO470284  26.061  32.229   5.855
11121POPC   GL170285  26.045  32.278   6.155
11121POPC   GL270286  25.984  32.345   6.155
11121POPC   C1A70287  26.001  32.297   6.455
11121POPC   D2A70288  26.019  32.253   6.755
11121POPC   C3A70289  26.077  32.298   7.055
11121POPC   C4A70290  26.048  32.272   7.355
11121POPC   C1B70291  25.936  32.532   6.455
11121POPC   C2B70292  25.990  32.466   6.755
11121POPC   C3B70293  25.995  32.527   7.055
11121POPC   C4B70294  25.983  32.457   7.355
11122POPC   NC370295  30.735   0.409   5.555
11122POPC   PO470296  30.688   0.422   5.855
11122POPC   GL170297  30.675   0.450   6.155
11122POPC   GL270298  30.822   0.565   6.155
11122POPC   C1A70299  30.649   0.438   6.455
11122POPC   D2A70300  30.680   0.394   6.755
11122POPC   C3A70301  30.648   0.394   7.055
11122POPC   C4A70302  30.685   0.441   7.355
11122POPC   C1B70303  30.862   0.627   6.455
11122POPC   C2B70304  30.858   0.549   6.755
11122POPC   C3B70305  30.862   0.578   7.055
11122POPC   C4B70306  30.876   0.635   7.355
11123POPC   NC370307   4.302  22.210   5.555
11123POPC   PO470308   4.328  22.137   5.855
11123POPC   GL170309   4.332  22.155   6.155
11123POPC   GL270310   4.410  22.314   6.155
11123POPC   C1A70311   4.306  22.184   6.455
11123POPC   D2A70312   4.339  22.200   6.755
11123POPC   C3A70313   4.283  22.147   7.055
11123POPC   C4A70314   4.342  22.148   7.355
11123POPC   C1B70315   4.408  22.381   6.455
11123POPC   C2B70316   4.470  22.422   6.755
11123POPC   C3B70317   4.422  22.399   7.055
11123POPC   C4B70318   4.425  22.345   7.355
11124POPC   NC370319  19.800   1.239   5.555
11124POPC   PO470320  19.824   1.211   5.855
11124POPC   GL170321  19.878   1.165   6.155
11124POPC   GL270322  19.890   1.131   6.155
11124POPC   C1A70323  19.804   1.243   6.455
11124POPC   D2A70324  19.791   1.244   6.755
11124POPC   C3A70325  19.836   1.196   7.055
11124POPC   C4A70326  19.808   1.252   7.355
11124POPC   C1B70327  19.990   1.116   6.455
11124POPC   C2B70328  20.072   1.045   6.755
11124POPC   C3B70329  19.996   1.051   7.055
11124POPC   C4B70330  20.009   1.117   7.355
11125POPC   NC370331  24.481  20.605   5.555
11125POPC   PO470332  24.459  20.650   5.855
11125POPC   GL170333  24.517  20.584   6.155
11125POPC   GL270334  24.446  20.499   6.155
11125POPC   C1A70335  24.509  20.608   6.455
11125POPC   D2A70336  24.442  20.631   6.755
11125POPC   C3A70337  24.517  20.625   7.055
11125POPC   C4A70338  24.462  20.641   7.355
11125POPC   C1B70339  24.469  20.355   6.455
11125POPC   C2B70340  24.476  20.332   6.755
11125POPC   C3B70341  24.421  20.364   7.055
11125POPC   C4B70342  24.514  20.373   7.355
11126POPC   NC370343  32.298  16.685   5.555
11126POPC   PO470344  32.236  16.722   5.855
11126POPC   GL170345  32.209  16.705   6.155
11126POPC   GL270346  32.121  16.639   6.155
11126POPC   C1A70347  32.232  16.692   6.455
11126POPC   D2A70348  32.256  16.742   6.755
11126POPC   C3A70349  32.227  16.721   7.055
11126POPC   C4A70350  32.214  16.719   7.355
11126POPC   C1B70351  32.109  16.528   6.455
11126POPC   C2B70352  32.085  16.566   6.755
11126POPC   C3B70353  32.119  16.586   7.055
11126POPC   C4B70354  32.088  16.603   7.355
11127POPC   NC370355  19.060   2.001   5.555
11127POPC   PO470356  19.037   1.963   5.855
11127POPC   GL170357  19.075   1.967   6.155
11127POPC   GL270358  18.925   1.963   6.155
11127POPC   C1A70359  19.051   1.969   6.455
11127POPC   D2A70360  19.039   2.021   6.755
11127POPC   C3A70361  19.071   1.970   7.055
11127POPC   C4A70362  19.035   1.967   7.355
11127POPC   C1B70363  18.798   1.871   6.455
11127POPC   C2B70364  18.877   1.860   6.755
11127POPC   C3B70365  18.875   1.898   7.055
11127POPC   C4B70366  18.867   1.864   7.355
11128POPC   NC370367  43.889  42.356   5.555
11128POPC   PO470368  43.867  42.307   5.855
11128POPC   GL170369  43.906  42.343   6.155
11128POPC   GL270370  44.020  42.372   6.155
11128POPC   C1A70371  43.841  42.310   6.455
11128POPC   D2A70372  43.874  42.286   6.755
11128POPC   C3A70373  43.876  42.355   7.055
11128POPC   C4A70374  43.935  42.368   7.355
11128POPC   C1B70375  44.018  42.540   6.455
11128POPC   C2B70376  44.109  42.469   6.755
11128POPC   C3B70377  44.112  42.459   7.055
11128POPC   C4B70378  44.025  42.544   7.355
11129POPC   NC370379   0.483   8.217   5.555
11129POPC   PO470380   0.473   8.240   5.855
11129POPC   GL170381   0.447   8.231   6.155
11129POPC   GL270382   0.539   8.262   6.155
11129POPC   C1A70383   0.438   8.246   6.455
11129POPC   D2A70384   0.410   8.172   6.755
11129POPC   C3A70385   0.418   8.151   7.055
11129POPC   C4A70386   0.403   8.177   7.355
11129POPC   C1B70387   0.563   8.339   6.455
11129POPC   C2B70388   0.621   8.354   6.755
11129POPC   C3B70389   0.563   8.429   7.055
11129POPC   C4B70390   0.620   8.408   7.355
11130W        W70391  43.017  29.947  12.966
11131W        W70392  26.692  35.602   0.853
11132W        W70393  10.323  18.650   0.359
11133W        W70394  20.158  12.198  10.944
11134W        W70395  37.969   0.379   3.667
11135W        W70396   2.363  27.512  13.982
11136W        W70397  37.074  30.924   1.925
11137W        W70398  28.043   7.410   4.817
11138W        W70399  14.127  42.411   4.698
11139W        W70400   4.840  27.994  12.880
11140W        W70401  39.488  28.943   1.840
11141W        W70402  39.446  12.345   1.888
11142W        W70403   3.779  43.863   2.815
11143W        W70404  18.144  43.282  10.890
11144W        W70405  43.879  28.939  13.009
11145W        W70406  14.237  36.365   0.246
11146W        W70407  27.515  25.086  14.911
11147W        W70408  25.577   7.858   0.469
11148W        W70409   1.331  40.826   1.886
11149W        W70410  15.812  38.482  13.338
11150W        W70411  41.304  28.127   1.239
11151W        W70412  12.630  15.817  12.981
11152W        W70413   4.346   0.316  12.957
11153W        W70414  21.617  43.311  13.864
11154W        W70415  20.621  30.017  10.978
11155W        W70416  43.786  12.169   3.207
11156W        W70417   8.232  32.974  14.857
11157W        W70418  39.996  31.633  12.360
11158W        W70419   6.764  24.068   0.414
11159W        W70420   4.404   5.695  10.075
11160W        W70421  35.409  39.343  11.468
11161W        W70422  42.401  24.992  14.939
11162W        W70423   0.272  35.458   1.930
11163W        W70424  22.089  43.314  14.408
11164W        W70425  25.623  35.951   0.919
11165W        W70426  43.353   6.395  14.904
11166W        W70427  25.079   7.798  14.284
11167W        W70428  21.162   3.766   3.767
11168W        W70429  22.557  26.091  12.025
11169W        W70430  25.098  15.195  14.945
11170W        W70431  33.558   6.255   5.265
11171W        W70432  22.207   2.847   4.143
11172W        W70433  24.690  15.090   2.409
11173W        W70434  21.612  41.458   3.722
11174W        W70435   4.780  13.165  12.910
11175W        W70436  14.609   0.886   3.696
11176W        W70437  23.042   2.959   4.344
11177W        W70438  32.121  13.642  10.953
11178W        W70439  33.066  10.636  12.448
11179W        W70440  27.665  16.189  14.797
11180W        W70441  32.949  40.029   5.291
11181W        W70442   3.863  30.911  12.570
11182W        W70443   2.273   9.780   4.327
11183W        W70444   6.238  28.964  10.050
11184W        W70445   3.280  24.120   1.798
11185W        W70446  24.566  35.108  13.457
11186W        W70447  15.284  27.053   3.326
11187W        W70448   1.892  20.545   0.465
11188W        W70449  34.490   0.784  14.399
11189W        W70450  21.034   0.328   3.245
11190W        W70451  27.523  40.410   3.185
11191W        W70452  42.399   5.868   2.324
11192W        W70453  23.669  43.406   4.262
11193W        W70454  27.102  12.738   3.383
11194W        W70455  22.581  23.991   1.292
11195W        W70456  22.035  36.095   1.915
11196W        W70457  34.533  16.685   0.389
11197W        W70458  39.863  22.635  10.888
11198W        W70459  14.301   5.392   2.892
11199W        W70460   5.782  14.216   0.855
11200W        W70461   0.920  23.669  10.582
11201W        W70462  19.697  42.303   4.176
11202W        W70463  33.623   9.292   1.306
11203W        W70464   6.885  39.997  11.473
11204W        W70465  20.264  12.670   0.421
11205W        W70466  28.950  41.829   2.784
11206W        W70467  43.922   4.845  12.920
11207W        W70468  17.786  42.511   1.444
11208W        W70469  18.127  30.132   2.868
11209W        W70470  15.780   7.364   3.155
11210W        W70471  33.424  29.602  14.778
11211W        W70472  36.957  10.149  12.568
11212W        W70473  38.522  27.986  14.992
11213W        W70474  19.590   1.458   1.282
11214W        W70475   2.330  25.028   1.274
11215W        W70476  21.719  42.824  12.462
11216W        W70477  31.130  25.179  10.588
11217W        W70478  26.989  18.258  11.951
11218W        W70479  24.083   2.353   2.841
11219W        W70480  25.522  28.012  14.369
11220W        W70481   0.400  43.364  11.127
11221W        W70482  14.143  23.003   0.751
11222W        W70483  13.341   8.779   9.987
11223W        W70484  19.611  40.964   2.857
11224W        W70485  38.384  32.512   5.149
11225W        W70486  40.809  29.428  14.460
11226W        W70487  23.013  28.635  13.374
11227W        W70488  36.934  28.046  12.840
11228W        W70489  21.126  37.434   5.298
11229W        W70490  17.631  13.741  12.828
11230W        W70491  40.977   2.314   4.754
11231W        W70492  37.375  19.716  12.985
11232W        W70493  24.620  40.464  14.286
11233W        W70494  28.062   7.742   1.902
11234W        W70495  29.933  31.010  12.407
11235W        W70496   9.662   2.749  13.359
11236W        W70497  26.970  30.525  14.828
11237W        W70498   9.847  17.163   2.189
11238W        W70499  28.151  12.799  11.424
11239W        W70500  25.994  17.618   1.225
11240W        W70501   4.218   2.735  14.310
11241W        W70502  22.212  12.131  13.440
11242W        W70503   7.859  21.141  12.827
11243W        W70504  36.956  41.986  12.556
11244W        W70505  19.119  12.630  11.409
11245W        W70506  15.599  27.192  12.863
11246W        W70507   0.270  29.660  10.929
11247W        W70508   9.365  32.530   3.729
11248W        W70509  16.106  23.071   4.679
11249W        W70510  16.759  20.542   5.257
11250W        W70511   9.270  12.258   4.219
11251W        W70512   0.878  31.036   0.311
11252W        W70513  10.800  24.533   4.249
11253W        W70514  42.515  24.180   1.836
11254W        W70515  30.926  31.420  12.365
11255W        W70516   7.325  42.002  14.502
11256W        W70517  26.196  20.111   2.757
11257W        W70518  41.399   6.695   1.852
11258W        W70519  43.440  10.826  12.051
11259W        W70520  10.245  17.131  11.467
11260W        W70521  34.523  40.476  11.883
11261W        W70522  19.103  15.805  13.365
11262W        W70523  15.811  16.658   4.609
11263W        W70524  33.388  15.104   1.710
11264W        W70525  20.102   4.332  14.484
11265W        W70526   6.888  19.108  10.481
11266W        W70527   3.854  26.495  12.470
11267W        W70528  29.983  13.803  14.494
11268W        W70529   7.384  39.873   0.857
11269W        W70530  20.077   9.365  10.521
11270W        W70531  36.433  38.523   2.895
11271W        W70532  29.509   2.346   3.822
11272W        W70533  36.523  22.150   2.180
11273W        W70534  18.616   1.829   3.742
11274W        W70535   4.709  31.974   1.436
11275W        W70536  27.624  28.937   4.220
11276W        W70537   4.299  42.882  12.523
11277W        W70538  12.614  23.127   1.753
11278W        W70539   4.418  32.986   1.818
11279W        W70540   5.740  23.211   2.840
11280W        W70541   3.291  16.103   4.319
11281W        W70542  10.669  44.266   4.115
11282W        W70543  26.176  14.626  13.891
11283W        W70544   4.812  43.371   0.870
11284W        W70545   7.825  43.901  12.883
11285W        W70546  37.981  36.054  12.421
11286W        W70547  22.714  28.576  11.507
11287W        W70548  16.287  11.309  10.447
11288W        W70549  10.691  37.531  10.907
11289W        W70550  31.913  29.962   3.809
11290W        W70551  38.370  15.691  14.335
11291W        W70552  32.053  32.100  12.492
11292W        W70553  26.990  24.556  11.436
11293W        W70554   7.322   6.716  10.923
11294W        W70555  10.732  22.632  14.902
11295W        W70556  32.891  40.816  13.924
11296W        W70557  11.760  21.730   2.772
11297W        W70558   7.276  12.122  13.805
11298W        W70559  44.811  34.531  12.342
11299W        W70560  41.311  19.220   1.309
11300W        W70561  18.080  33.037  10.574
11301W        W70562   8.860   8.672  10.572
11302W        W70563   4.225  17.152   4.680
11303W        W70564  35.983  37.880   4.160
11304W        W70565  12.829   3.792   3.775
11305W        W70566   8.301  10.174   4.236
11306W        W70567  31.109   1.261   1.277
11307W        W70568  26.538   9.816  12.355
11308W        W70569  37.865   5.343  10.644
11309W        W70570  36.868  26.520  12.515
11310W        W70571  42.798  26.581  11.536
11311W        W70572   6.892  36.433   0.773
11312W        W70573  15.284  11.741  10.478
11313W        W70574  36.447  33.051  11.910
11314W        W70575  17.783  44.459   4.345
11315W        W70576  43.994   5.748   0.759
11316W        W70577  32.515   5.225  11.051
11317W        W70578   1.773  27.122   3.386
11318W        W70579   4.424  20.221   1.284
11319W        W70580  26.992  29.428   4.670
11320W        W70581  16.183   4.717   0.292
11321W        W70582  26.970   8.837   4.116
11322W        W70583  11.306  15.175   0.426
11323W        W70584  23.531  13.610  12.366
11324W        W70585  11.163  13.824   0.421
11325W        W70586   0.288   6.684   1.416
11326W        W70587  29.477  12.857   3.683
11327W        W70588  30.143   6.209  11.950
11328W        W70589  25.207  37.076  13.801
11329W        W70590   7.876  32.110   2.670
11330W        W70591  22.745  39.401  10.983
11331W        W70592  34.978  42.778   0.462
11332W        W70593  35.067  25.510  14.436
11333W        W70594  39.874  25.545   2.244
11334W        W70595  36.023  38.953   4.751
11335W        W70596  38.332   2.765  13.842
11336W        W70597  33.089  44.427   2.671
11337W        W70598  38.449  13.721   3.780
11338W        W70599  19.119  10.218   4.259
11339W        W70600  44.869   0.746  12.580
11340W        W70601  14.788  27.617   5.612
11341W        W70602  12.616  14.105   1.931
11342W        W70603   8.292  26.557  10.408
11343W        W70604  14.145  37.508  11.029
11344W        W70605   5.282  42.518  12.350
11345W        W70606  43.379   8.778  13.018
11346W        W70607   7.846  32.113   0.455
11347W        W70608  34.894  31.536  12.852
11348W        W70609  38.474  44.417   2.870
11349W        W70610   4.375  29.528  11.953
11350W        W70611   6.755  44.976  11.613
11351W        W70612  44.918  25.102   5.310
11352W        W70613   2.294  37.416  12.417
11353W        W70614  31.900  20.591  10.604
11354W        W70615   8.754  39.850   4.138
11355W        W70616  28.054   1.872   2.263
11356W        W70617  21.164  29.016  13.986
11357W        W70618  11.845  12.293   0.778
11358W        W70619  31.545  32.410  14.500
11359W        W70620   5.391  36.096  13.449
11360W        W70621  43.380  25.209  14.458
11361W        W70622   1.478  44.883  13.864
11362W        W70623  10.331   2.928  11.103
11363W        W70624  28.093  39.812  12.948
11364W        W70625  38.902  12.749  12.498
11365W        W70626   6.885   9.166   3.247
11366W        W70627  27.645  40.895   3.780
11367W        W70628  31.143  21.718  10.900
11368W        W70629  36.897  35.066  12.908
11369W        W70630  20.611  22.117  12.521
11370W        W70631  37.454  14.294  14.936
11371W        W70632  17.717  37.492  11.069
11372W        W70633  13.763   0.409   4.615
11373W        W70634  16.148  26.671   3.787
11374W        W70635  13.271  17.070   2.203
11375W        W70636  29.523  29.478  14.850
11376W        W70637  19.769  14.777  11.394
11377W        W70638  32.911  29.001  14.445
11378W        W70639  19.700   9.165   3.870
11379W        W70640  15.795  30.433   3.373
11380W        W70641  31.918  25.505   0.896
11381W        W70642  36.473  37.953   0.284
11382W        W70643  27.941  25.532   1.742
11383W        W70644   5.251  16.606   3.303
11384W        W70645  24.518  38.012   3.799
11385W        W70646  19.153  27.188   2.721
11386W        W70647  21.031  36.019  12.022
11387W        W70648  33.545  39.975  13.408
11388W        W70649  15.101  15.607  14.784
11389W        W70650  25.156  19.187   1.413
11390W        W70651  35.056  33.999   1.845
11391W        W70652  31.458  36.393  13.006
11392W        W70653  35.378  31.961  12.906
11393W        W70654  42.017  15.215   0.418
11394W        W70655   2.281  37.369   2.207
11395W        W70656  31.051  10.648   1.811
11396W        W70657   3.388  25.538  10.939
11397W        W70658  41.361  19.115  10.913
11398W        W70659   3.938   9.799   4.320
11399W        W70660  26.628  33.895   4.168
11400W        W70661  17.742  11.845  10.151
11401W        W70662  39.340   2.863   1.319
11402W        W70663  28.100  36.349   2.841
11403W        W70664  27.510  33.433   3.700
11404W        W70665  18.675  36.402   4.273
11405W        W70666   1.390  32.486   2.199
11406W        W70667  16.124  26.668  13.007
11407W        W70668  36.059  30.561   4.218
11408W        W70669  30.522  39.987   1.829
11409W        W70670   0.280  37.898   2.748
11410W        W70671  40.016  23.234  10.925
11411W        W70672  38.056  41.396   4.739
11412W        W70673  16.162  11.810  13.905
11413W        W70674  43.347  25.626   4.734
11414W        W70675   2.423   6.295   1.330
11415W        W70676  21.542   9.782   2.714
11416W        W70677  25.178  18.105   4.602
11417W        W70678  29.506  24.481   4.125
11418W        W70679  12.853   4.801  11.082
11419W        W70680  30.161   1.858  12.054
11420W        W70681  42.935   8.880  11.052
11421W        W70682  13.315  29.594   2.772
11422W        W70683  24.993   0.892  10.433
11423W        W70684  28.050  40.015  11.568
11424W        W70685   3.421  13.803   3.713
11425W        W70686  38.369  28.186   3.849
11426W        W70687   3.385  26.036   0.456
11427W        W70688  25.216  16.227   2.899
11428W        W70689  36.370  38.333  14.013
11429W        W70690  19.672  16.643  12.384
11430W        W70691  43.890  23.073   0.933
11431W        W70692  32.524  39.532  14.803
11432W        W70693  44.457  42.832   2.787
11433W        W70694  35.925  23.000   0.402
11434W        W70695  40.516  25.597  11.596
11435W        W70696  37.476  24.064  10.430
11436W        W70697  39.060   7.273   2.835
11437W        W70698   1.732  18.169   4.670
11438W        W70699   1.290  44.311  10.006
11439W        W70700   2.866  24.999  13.474
11440W        W70701   8.754   6.688   0.744
11441W        W70702  39.433  15.099  10.488
11442W        W70703  33.127  44.285   2.311
11443W        W70704   6.879  15.819   4.717
11444W        W70705  14.281  35.359  14.778
11445W        W70706  15.612   2.912  10.538
11446W        W70707  13.351  28.003   9.480
11447W        W70708  36.415  13.141  13.355
11448W        W70709  18.290  25.538   4.163
11449W        W70710  29.045  23.625  11.531
11450W        W70711  35.561   5.227  12.530
11451W        W70712   8.741   2.779   0.311
11452W        W70713  13.239  22.531   2.280
11453W        W70714   0.963  22.501   3.240
11454W        W70715  42.465  24.517  12.892
11455W        W70716  22.721   8.227  11.429
11456W        W70717  14.755  42.820  10.138
11457W        W70718  40.392   6.206  11.380
11458W        W70719  16.593  20.546   9.991
11459W        W70720  25.654  30.132   2.898
11460W        W70721  10.716  44.796   0.962
11461W        W70722  20.529  34.964   2.845
11462W        W70723   8.300   0.407  10.520
11463W        W70724  11.786  15.746  10.517
11464W        W70725  13.333  36.074   4.243
11465W        W70726   1.375  21.164   0.453
11466W        W70727  21.751  42.995  11.552
11467W        W70728  23.997  37.947   4.760
11468W        W70729  41.931  37.555   5.647
11469W        W70730  22.741  20.073  14.294
11470W        W70731  17.636   8.739   3.743
11471W        W70732   8.788   5.757   3.187
11472W        W70733  23.539  22.029  13.989
11473W        W70734  42.491  11.142   1.799
11474W        W70735  10.779  17.790   0.818
11475W        W70736   5.214  38.431   2.201
11476W        W70737   3.450  28.533   1.928
11477W        W70738  32.927  44.943   3.718
11478W        W70739  30.059  44.363   3.216
11479W        W70740  22.577   9.888  12.952
11480W        W70741  14.798  25.622   1.424
11481W        W70742  17.068   3.933   2.701
11482W        W70743   4.718  21.611   0.949
11483W        W70744  27.984  21.729  12.356
11484W        W70745   8.897  12.247  12.904
11485W        W70746  25.129  41.422  14.826
11486W        W70747  18.559  35.070   0.777
11487W        W70748  28.071  41.498   3.241
11488W        W70749   7.176  16.715   4.815
11489W        W70750  21.108  27.171  12.846
11490W        W70751  29.472  31.088  11.446
11491W        W70752  43.969   5.290   2.838
11492W        W70753  22.568  18.788   2.794
11493W        W70754  11.690  43.994   3.775
11494W        W70755  37.899  42.386  13.385
11495W        W70756   2.233  39.496  14.311
11496W        W70757  32.554  37.025  14.952
11497W        W70758   0.953   6.270  13.542
11498W        W70759  25.034  11.149  12.492
11499W        W70760  40.020   8.385   4.653
11500W        W70761  38.948  18.144  14.907
11501W        W70762   1.808  14.339   4.757
11502W        W70763  21.739  39.025  10.004
11503W        W70764   0.461  25.037   2.873
11504W        W70765   9.736  12.159  14.963
11505W        W70766  39.556  17.250  12.524
11506W        W70767  25.603  34.604   3.292
11507W        W70768  43.798  27.167  11.560
11508W        W70769   3.367  35.413  10.637
11509W        W70770  16.279  19.193   1.341
11510W        W70771  23.178   6.720  10.442
11511W        W70772   9.168  11.360   1.918
11512W        W70773   4.919  33.079   2.222
11513W        W70774   6.805  31.954  12.566
11514W        W70775   8.312   0.392  11.113
11515W        W70776  34.943   4.340  12.071
11516W        W70777  41.449  11.862  11.486
11517W        W70778  28.442   9.753  13.367
11518W        W70779  37.377   1.904   2.331
11519W        W70780  20.760  29.558   2.827
11520W        W70781  11.140  12.335   0.845
11521W        W70782  42.404  14.102  13.032
11522W        W70783   8.693  27.677  14.367
11523W        W70784  26.516   3.824   2.874
11524W        W70785   5.824  13.678  12.889
11525W        W70786  24.069  36.080  11.509
11526W        W70787   7.700  44.864  12.485
11527W        W70788  15.269  44.836  13.359
11528W        W70789  19.232   9.295   4.667
11529W        W70790  32.082  13.310   2.360
11530W        W70791   9.302  14.798  11.066
11531W        W70792  13.649  43.908  14.431
11532W        W70793  15.164  18.584   9.638
11533W        W70794  29.599  44.417   4.118
11534W        W70795  44.781  27.052  11.611
11535W        W70796   6.860  31.084   2.408
11536W        W70797  19.741  14.161  11.408
11537W        W70798  36.478  34.929  12.087
11538W        W70799  37.942  43.859  13.059
11539W        W70800  32.002  40.549   4.683
11540W        W70801   7.870   1.297   2.401
11541W        W70802  35.886  39.027  12.944
11542W        W70803  13.779  40.305  12.569
11543W        W70804  16.627  19.636  10.588
11544W        W70805  10.772  43.333  10.943
11545W        W70806  24.604   1.237  12.543
11546W        W70807  42.979   4.424  11.102
11547W        W70808  31.130  28.640  14.952
11548W        W70809  25.028   8.202   4.159
11549W        W70810  15.581  23.045   4.702
11550W        W70811   0.331  17.784  11.882
11551W        W70812   7.871  33.428   1.305
11552W        W70813  15.120  33.450  11.970
11553W        W70814   8.405  37.556   2.801
11554W        W70815  21.576  21.251   3.706
11555W        W70816   5.397  11.233  14.424
11556W        W70817  27.944   7.311  12.950
11557W        W70818  20.648  21.521  12.043
11558W        W70819  24.562  38.406  13.537
11559W        W70820  22.642  19.570   3.682
11560W        W70821  36.548  36.049   2.368
11561W        W70822   2.345  29.588   3.198
11562W        W70823  42.341   9.336  12.568
11563W        W70824   9.701  23.137   1.747
11564W        W70825   7.742  16.605   3.856
11565W        W70826  27.087  23.615   3.164
11566W        W70827   5.911  44.001  11.448
11567W        W70828  28.462   8.808   1.320
11568W        W70829  33.952   5.743  11.863
11569W        W70830   3.895  28.656   4.334
11570W        W70831  26.461  24.709   1.362
11571W        W70832  25.052  36.892   3.243
11572W        W70833  18.150  20.092   1.909
11573W        W70834  43.446  18.577  14.018
11574W        W70835  13.618  21.209  13.793
11575W        W70836  10.174  18.547   2.702
11576W        W70837  17.127  36.087  10.501
11577W        W70838  22.531  26.505   4.766
11578W        W70839  31.993  14.630   1.899
11579W        W70840   9.152   1.409  12.467
11580W        W70841  33.510  44.500   3.376
11581W        W70842  24.176  30.432   0.262
11582W        W70843  41.831  21.128   3.353
11583W        W70844  17.752  20.163  11.953
11584W        W70845  13.825  34.406   4.316
11585W        W70846  16.731  37.981   1.295
11586W        W70847  32.957  41.979  11.593
11587W        W70848   8.202  22.746   2.880
11588W        W70849   7.370   8.733  12.977
11589W        W70850  35.026   0.445   4.691
11590W        W70851   0.879  10.369   4.669
11591W        W70852  31.945   9.668  12.947
11592W        W70853  27.508  29.444  10.484
11593W        W70854  17.289   9.261  12.842
11594W        W70855  19.750   4.851   2.392
11595W        W70856  42.883  21.678  13.451
11596W        W70857  31.997  10.745  14.426
11597W        W70858   6.730  37.407   1.868
11598W        W70859  29.452  36.505   1.246
11599W        W70860  17.634   3.453   2.728
11600W        W70861   8.807   8.213   3.370
11601W        W70862  22.076  11.720  10.932
11602W        W70863  10.867   7.870  11.891
11603W        W70864  28.931  34.551   0.243
11604W        W70865  40.042  38.484   2.385
11605W        W70866  39.387  26.964   0.455
11606W        W70867   3.914  37.488  13.368
11607W        W70868  44.445  15.687   5.290
11608W        W70869  22.119  31.487  12.413
11609W        W70870   3.737  21.727   4.242
11610W        W70871  38.847  29.921   0.930
11611W        W70872  36.563  27.988  13.419
11612W        W70873   7.390  23.189  11.035
11613W        W70874  27.094   2.459  14.760
11614W        W70875   2.913  22.017  12.365
11615W        W70876  36.847  21.227   2.731
11616W        W70877   8.404  18.242   0.458
11617W        W70878  19.640  10.295   2.321
11618W        W70879  30.506  21.722  13.871
11619W        W70880   1.461  15.651   4.740
11620W        W70881  21.085  36.542  12.963
11621W        W70882  19.538  33.060   1.262
11622W        W70883  39.380  31.011   2.805
11623W        W70884  42.316  36.539  14.919
11624W        W70885  41.380   3.882   0.348
11625W        W70886  22.187  14.809   4.142
11626W        W70887  28.647   2.791   0.815
11627W        W70888  33.106  12.620   1.251
11628W        W70889  15.122  31.113   3.830
11629W        W70890  13.804   7.839   1.804
11630W        W70891   4.735  39.516   0.293
11631W        W70892  28.516  42.027   3.836
11632W        W70893  39.008  31.637  12.043
11633W        W70894   5.798  13.342   2.886
11634W        W70895  22.684  38.919  13.505
11635W        W70896   9.308  26.509   1.899
11636W        W70897  27.180  41.026   4.628
11637W        W70898  37.412   9.816   0.831
11638W        W70899  18.739  27.574   3.759
11639W        W70900   8.686  19.601  11.079
11640W        W70901  31.958   9.317   3.718
11641W        W70902  24.182  26.564  13.956
11642W        W70903  29.649   3.750   4.819
11643W        W70904   0.967  28.955   2.737
11644W        W70905  28.582   8.188  14.824
11645W        W70906  40.349  11.645  14.311
11646W        W70907  43.401  19.127   0.747
11647W        W70908  38.430  34.961   0.913
11648W        W70909   7.362   2.763   0.855
11649W        W70910  24.603  22.061  13.346
11650W        W70911  14.622  23.619  10.441
11651W        W70912  42.306   3.874  14.413
11652W        W70913  30.968  21.550   1.739
11653W        W70914   0.818   0.406  13.501
11654W        W70915   1.405   5.220   1.401
11655W        W70916  44.941  11.758   3.291
11656W        W70917  27.168   0.986   1.726
11657W        W70918  20.739  40.045   1.725
11658W        W70919   6.251  37.877   4.319
11659W        W70920   6.381  15.157  12.340
11660W        W70921   7.717   8.279   3.236
11661W        W70922  44.456  26.198  12.342
11662W        W70923  13.654   6.903   0.322
11663W        W70924  42.384  11.313   2.824
11664W        W70925  18.765  40.349   1.274
11665W        W70926  35.502  24.085  13.814
11666W        W70927   1.936   8.829   3.750
11667W        W70928  15.624  26.489   1.338
11668W        W70929  30.040  44.474  13.900
11669W        W70930  41.944  24.160  12.954
11670W        W70931  26.035  39.529   0.409
11671W        W70932  21.248  17.216  13.411
11672W        W70933  20.726   7.780  12.950
11673W        W70934  34.446  29.629  10.554
11674W        W70935  11.774  25.166   0.806
11675W        W70936  26.076  37.968   4.172
11676W        W70937  32.507  29.457  13.472
11677W        W70938  27.492  15.599   2.754
11678W        W70939  30.134  33.018   4.242
11679W        W70940  13.284   3.785  10.598
11680W        W70941   7.320  23.135  13.514
11681W        W70942   0.396  32.102   2.180
11682W        W70943  42.312  41.903   3.211
11683W        W70944   2.939  13.645  14.941
11684W        W70945  15.135  12.765   0.856
11685W        W70946  25.577  36.382  12.484
11686W        W70947  43.005   0.357   0.778
11687W        W70948  14.319  30.534  13.512
11688W        W70949  14.259  24.639   1.325
11689W        W70950  19.681  44.325   4.762
11690W        W70951  32.003  41.879  13.443
11691W        W70952  44.914  17.193  11.533
11692W        W70953  20.169  27.519   3.295
11693W        W70954  22.510  29.575  11.073
11694W        W70955  28.012  15.270   3.838
11695W        W70956  40.853   4.279  13.807
11696W        W70957  38.466   4.337  10.619
11697W        W70958  37.855  10.695   1.305
11698W        W70959  40.831   5.389   4.188
11699W        W70960  19.114  20.746   3.815
11700W        W70961  18.159   4.778  14.922
11701W        W70962  41.972  44.973   4.185
11702W        W70963  25.681   1.268  12.854
11703W        W70964  33.124  44.812  10.974
11704W        W70965  28.078  23.100   2.241
11705W        W70966  30.509   9.393  14.515
11706W        W70967  42.936  28.606  14.984
11707W        W70968  43.970   8.698   0.782
11708W        W70969  22.155  42.021  12.911
11709W        W70970   9.818   7.824   1.872
11710W        W70971  17.764  19.610   0.876
11711W        W70972  10.794  32.923   1.787
11712W        W70973  15.105  42.327   1.831
11713W        W70974  33.065  44.833   3.338
11714W        W70975  18.276  34.926   2.394
11715W        W70976  35.923  21.090  14.379
11716W        W70977  33.875  13.740   0.951
11717W        W70978  24.507  29.985   0.866
11718W        W70979  35.534   6.793  12.020
11719W        W70980  36.892  36.411   0.441
11720W        W70981  12.692  18.581  14.850
11721W        W70982  12.836  42.810   1.773
11722W        W70983  17.140  36.912   4.781
11723W        W70984  41.381  38.823  11.571
11724W        W70985  19.161   4.329   0.317
11725W        W70986   5.853  35.011  11.457
11726W        W70987  30.913   7.265  12.550
11727W        W70988  43.804   6.689   4.693
11728W        W70989   4.360  14.106  11.997
11729W        W70990  14.282  43.380   0.884
11730W        W70991  25.640  20.138  10.970
11731W        W70992  13.818   9.719   1.835
11732W        W70993  10.639  34.033  14.371
11733W        W70994  19.571  23.571  12.423
11734W        W70995   6.680  27.554   0.335
11735W        W70996   9.847  17.687   3.755
11736W        W70997  36.911  30.027   4.168
11737W        W70998  19.048  21.130   2.703
11738W        W70999  28.128  16.154  14.468
11739W        W71000   6.680   1.375   3.869
11740W        W71001  18.766  32.021   5.135
11741W        W71002  39.993  20.237  11.541
11742W        W71003  24.494  15.578  10.501
11743W        W71004   9.169  29.459   2.310
11744W        W71005  31.032   2.859   1.394
11745W        W71006  13.650  29.952  12.367
11746W        W71007  12.672  15.206   4.801
11747W        W71008   7.304  20.214   1.879
11748W        W71009  35.454  10.199   2.239
11749W        W71010  32.103  23.219   3.174
11750W        W71011  41.955  37.976   1.894
11751W        W71012   7.368  24.674  10.590
11752W        W71013   4.914  10.143   0.419
11753W        W71014  23.627  19.044   0.739
11754W        W71015   4.878  19.212   3.243
11755W        W71016  30.532   8.829  11.419
11756W        W71017  39.026  28.528  11.503
11757W        W71018  36.901   1.337  14.426
11758W        W71019  34.051  37.055   3.870
11759W        W71020  41.975  38.913  10.527
11760W        W71021   8.737  32.460   5.312
11761W        W71022  19.184   4.369   1.256
11762W        W71023  39.985  15.250  13.011
11763W        W71024  41.911  26.589  11.525
11764W        W71025  36.418  11.248  14.967
11765W        W71026  28.186   3.429  13.866
11766W        W71027  20.672  40.412   1.835
11767W        W71028  25.703  17.127   1.291
11768W        W71029  20.757  27.539   3.151
11769W        W71030  14.170  37.000   4.651
11770W        W71031  35.450  43.443   4.781
11771W        W71032  13.203  35.395  11.026
11772W        W71033  13.630   9.390  11.409
11773W        W71034   0.463   8.788   4.216
11774W        W71035  28.651  23.602   4.716
11775W        W71036  14.628  40.878   1.892
11776W        W71037   2.229  22.230  12.512
11777W        W71038   1.473  23.238  14.412
11778W        W71039  14.757  26.578   4.124
11779W        W71040   5.821  18.744  14.832
11780W        W71041  27.972  20.095   4.134
11781W        W71042  22.599  14.296   2.894
11782W        W71043   2.907  43.897  12.071
11783W        W71044   0.388   1.438   4.132
11784W        W71045  30.098  42.948  12.886
11785W        W71046  44.975   4.212   3.729
11786W        W71047  15.211   9.365   1.301
11787W        W71048  10.380  29.116  14.840
11788W        W71049  44.775   5.917  10.416
11789W        W71050   4.719  19.215  10.633
11790W        W71051  18.219   2.865   1.439
11791W        W71052  15.167  34.891   3.211
11792W        W71053   0.428   8.249  11.035
11793W        W71054  33.105  39.393  10.454
11794W        W71055  44.314  32.511   4.766
11795W        W71056   2.781  42.344  13.477
11796W        W71057  10.325  13.730   9.618
11797W        W71058  40.496  29.089  10.061
11798W        W71059  26.699  32.968   0.349
11799W        W71060  10.254  16.650  14.847
11800W        W71061  34.931  40.530   4.612
11801W        W71062   1.974  29.072  11.495
11802W        W71063  34.918  21.698  13.543
11803W        W71064  18.149  34.893  14.438
11804W        W71065  40.373   4.342  13.882
11805W        W71066  28.043  34.395   5.194
11806W        W71067  22.581  39.517  11.999
11807W        W71068  25.967   1.918   4.640
11808W        W71069   2.355   1.882  14.459
11809W        W71070  12.129   0.393   2.388
11810W        W71071  22.504  25.109   2.840
11811W        W71072   6.312  21.630   2.275
11812W        W71073  38.071   8.717  14.441
11813W        W71074  16.669  19.102  12.859
11814W        W71075   0.339   4.412  13.543
11815W        W71076  40.489  22.229  13.023
11816W        W71077  23.127  12.156  11.015
11817W        W71078  35.434  40.874  10.545
11818W        W71079  32.476  11.697  14.368
11819W        W71080   1.360  11.762  10.599
11820W        W71081  21.153   7.227  13.029
11821W        W71082  29.429  33.609  11.075
11822W        W71083  11.170  17.566  13.029
11823W        W71084  11.307   0.760   3.651
11824W        W71085  42.490  36.515  13.009
11825W        W71086  25.193  37.077   1.757
11826W        W71087   5.225  10.255   0.302
11827W        W71088  17.192   0.434  13.914
11828W        W71089  26.544  19.241   1.247
11829W        W71090   3.811  43.373  13.004
11830W        W71091  19.541  41.960   5.288
11831W        W71092  26.475  21.586  14.988
11832W        W71093  18.785  33.022  11.525
11833W        W71094  30.920   2.923  11.902
11834W        W71095  38.353  16.214   0.870
11835W        W71096   6.885   8.661   0.430
11836W        W71097  22.230   2.423   2.364
11837W        W71098  37.035   5.264   2.816
11838W        W71099   6.308  19.116   3.835
11839W        W71100  44.855  42.028   4.725
11840W        W71101  32.042  39.026   3.759
11841W        W71102  16.713  10.736   4.716
11842W        W71103  30.935  19.058   4.217
11843W        W71104   4.244   3.394  11.509
11844W        W71105   1.349  44.266   1.340
11845W        W71106  31.432  17.758   4.683
11846W        W71107  43.844  12.361  14.339
11847W        W71108  23.056  11.330   2.701
11848W        W71109  19.098  22.634   2.363
11849W        W71110  10.262  41.429  14.771
11850W        W71111  29.552  37.036   2.792
11851W        W71112  36.395  26.186   3.340
11852W        W71113  31.022  40.835  13.806
11853W        W71114  43.437  25.658  13.016
11854W        W71115  37.476  27.107   2.763
11855W        W71116  38.356  44.395  10.437
11856W        W71117  29.072  29.064  12.014
11857W        W71118  19.736  42.299  12.026
11858W        W71119   3.270   3.370   4.245
11859W        W71120  13.637   7.203  10.639
11860W        W71121  24.572  38.486  11.561
11861W        W71122  35.542  12.276  10.415
11862W        W71123  39.840  28.007  11.435
11863W        W71124  15.686  27.985  11.942
11864W        W71125  11.261  43.425  11.857
11865W        W71126  20.042  25.682  11.474
11866W        W71127  21.167  42.782   4.722
11867W        W71128  16.287  44.317   2.240
11868W        W71129  26.968  15.281   1.746
11869W        W71130   6.283  12.647   4.721
11870W        W71131  21.661  30.657   3.268
11871W        W71132  44.318  39.951  13.944
11872W        W71133  27.008   4.350  12.450
11873W        W71134   2.867  16.279  10.465
11874W        W71135   3.286  18.681   2.250
11875W        W71136  16.610   8.890   2.678
11876W        W71137  29.478  15.285   4.234
11877W        W71138  16.174  27.117  13.507
11878W        W71139   9.870  11.867  10.040
11879W        W71140  22.704  32.532  11.030
11880W        W71141   6.258  38.551   0.278
11881W        W71142   8.384  23.098  13.917
11882W        W71143  32.493  19.607  12.578
11883W        W71144  27.945  38.887   3.679
11884W        W71145  42.403  15.184   3.712
11885W        W71146  12.151  23.213   0.335
11886W        W71147  11.200  34.396   4.630
11887W        W71148  40.311   6.900  14.835
11888W        W71149  44.833  11.759  12.018
11889W        W71150  28.099  13.129  14.965
11890W        W71151  29.542  22.702  13.893
11891W        W71152  31.487  40.905   0.948
11892W        W71153  21.556  16.661  12.067
11893W        W71154  12.195  42.972  12.862
11894W        W71155  15.222  32.470   1.782
11895W        W71156   1.340  44.368   3.762
11896W        W71157  16.112  25.006  11.914
11897W        W71158  10.146  28.174  14.305
11898W        W71159  40.864  38.359   3.844
11899W        W71160  32.577  44.858  11.508
11900W        W71161   6.844   3.774   0.920
11901W        W71162  43.514  39.544  14.921
11902W        W71163  26.016  12.129   2.812
11903W        W71164  36.994  32.959   3.239
11904W        W71165  23.698   7.415  14.465
11905W        W71166  21.605  20.210   0.786
11906W        W71167   5.369  33.071   2.373
11907W        W71168  14.289  36.047   0.779
11908W        W71169  42.852  13.193  13.989
11909W        W71170  41.490   9.281  10.965
11910W        W71171  16.633  14.638   3.362
11911W        W71172  20.194  29.165   5.109
11912W        W71173  41.949   5.724  12.078
11913W        W71174  32.480  43.493  14.350
11914W        W71175  24.479  19.259  12.041
11915W        W71176  39.524  22.519   1.786
11916W        W71177   6.800  40.355   3.312
11917W        W71178  26.540   1.427   4.769
11918W        W71179  28.598  18.092   4.325
11919W        W71180  31.071  10.802  14.914
11920W        W71181  32.595  25.534   3.649
11921W        W71182  44.422  17.572  12.897
11922W        W71183  18.084  32.935   1.891
11923W        W71184  43.320  20.142   0.965
11924W        W71185  12.707  15.277   4.353
11925W        W71186  36.870  42.002   0.753
11926W        W71187  43.964   6.192   3.281
11927W        W71188  34.888  36.075  14.872
11928W        W71189   0.320   7.703  14.849
11929W        W71190   1.339  21.640   3.345
11930W        W71191   1.843   1.772   0.385
11931W        W71192  25.969  27.949  14.847
11932W        W71193  43.875   1.276   0.879
11933W        W71194  29.565   5.837   2.725
11934W        W71195  13.330  20.541  11.909
11935W        W71196  21.674  44.907   2.690
11936W        W71197  32.965  34.608   2.376
11937W        W71198  31.620  26.624  10.445
11938W        W71199  10.805  34.547  13.345
11939W        W71200   3.317  24.210  12.481
11940W        W71201  37.968  32.398  12.889
11941W        W71202  39.893  28.145   1.700
11942W        W71203  43.404  36.361   0.263
11943W        W71204   3.876  14.285   5.160
11944W        W71205  28.640   1.305   3.779
11945W        W71206   7.807  31.134  11.067
11946W        W71207   9.321  26.515   0.409
11947W        W71208  32.636   8.207  13.005
11948W        W71209  18.579   3.238   4.312
11949W        W71210  26.671  34.590   0.850
11950W        W71211  35.037  32.516  11.964
11951W        W71212  20.712  22.149   4.185
11952W        W71213  35.891   9.790  10.986
11953W        W71214   1.872   7.183  14.928
11954W        W71215  43.775  30.494   4.722
11955W        W71216  21.161   3.240   4.300
11956W        W71217  32.433   3.390   4.192
11957W        W71218  28.127  34.519  10.626
11958W        W71219  26.145  19.635  12.070
11959W        W71220  30.517  34.069   2.731
11960W        W71221  22.057  14.656   2.409
11961W        W71222  21.752  32.082  11.441
11962W        W71223  40.423  41.330   3.699
11963W        W71224  19.687  12.187   1.913
11964W        W71225  31.619  31.441   2.677
11965W        W71226  22.137  19.598  13.943
11966W        W71227  18.626  33.382   2.703
11967W        W71228  26.998  22.148  14.800
11968W        W71229  25.182  14.728  11.946
11969W        W71230  14.754   0.860  11.443
11970W        W71231  21.632   3.407  12.831
11971W        W71232   6.308  43.300  10.960
11972W        W71233   4.854  20.163  14.831
11973W        W71234  34.464  42.361  10.623
11974W        W71235  37.493   7.811   5.207
11975W        W71236  36.371   7.399  12.863
11976W        W71237  41.828  43.902  11.425
11977W        W71238  15.224  23.686  14.329
11978W        W71239  33.425  35.394   0.748
11979W        W71240  24.116  30.612   1.303
11980W        W71241  22.604   7.251  11.984
11981W        W71242  35.392   2.858   2.744
11982W        W71243  28.058  20.138   4.637
11983W        W71244  15.190   3.940   1.868
11984W        W71245  13.319  21.098   2.854
11985W        W71246  15.694  37.543  11.435
11986W        W71247  17.776  10.252  13.954
11987W        W71248  14.205   8.235   2.385
11988W        W71249   8.204  39.838  10.479
11989W        W71250  17.259  12.824  11.547
11990W        W71251  39.994  16.775   0.821
11991W        W71252  41.509   4.388   2.375
11992W        W71253  38.467  29.660   1.828
11993W        W71254  12.187  13.698   1.892
11994W        W71255  21.745  26.480  11.540
11995W        W71256   9.371  19.584  12.018
11996W        W71257  23.619  11.774  13.481
11997W        W71258  41.428  13.263   0.942
11998W        W71259  13.738  30.453  13.349
11999W        W71260   5.300  44.868  14.473
12000W        W71261  21.263   2.258   5.114
12001W        W71262   4.272  33.625   4.220
12002W        W71263  16.741  38.441   4.616
12003W        W71264  19.560   2.456   0.849
12004W        W71265  16.214  19.555  13.912
12005W        W71266  13.705   9.206  13.800
12006W        W71267  29.513   8.351  14.474
12007W        W71268  13.286   4.717   2.844
12008W        W71269  29.931  16.759  12.981
12009W        W71270  37.340  29.015   2.861
12010W        W71271  16.587  32.096   1.443
12011W        W71272   0.903  38.007  11.093
12012W        W71273  15.691   1.268   4.310
12013W        W71274   3.439  38.973   2.391
12014W        W71275  41.040  28.681   0.332
12015W        W71276  31.050  36.977  12.561
12016W        W71277  21.654  16.267   1.724
12017W        W71278  13.263  42.397  10.949
12018W        W71279  23.489  36.570   1.837
12019W        W71280  14.818  15.647  14.782
12020W        W71281  43.392  39.458   3.868
12021W        W71282   0.845  41.895   2.790
12022W        W71283  41.001  13.765  12.421
12023W        W71284  35.874  20.134   4.253
12024W        W71285  32.129  13.295  13.977
12025W        W71286  31.478  34.069   0.444
12026W        W71287  34.893   2.410  12.517
12027W        W71288  27.582   8.384  12.396
12028W        W71289  14.704  13.216  10.108
12029W        W71290  21.652   1.238   2.288
12030W        W71291  22.048   4.255  13.518
12031W        W71292  34.484  14.311   0.781
12032W        W71293  13.709  10.182  11.909
12033W        W71294  10.215  33.420   1.375
12034W        W71295  36.966  22.554  14.893
12035W        W71296   1.799  39.474  10.948
12036W        W71297  19.195  38.542  11.913
12037W        W71298  24.054  11.837  11.560
12038W        W71299  23.186  23.994   3.793
12039W        W71300  17.695   4.881  13.403
12040W        W71301  21.097  17.259   4.145
12041W        W71302  36.355   8.265   3.642
12042W        W71303  23.672  36.009   2.306
12043W        W71304  11.341  16.783   3.851
12044W        W71305   2.926  13.275   3.669
12045W        W71306  13.774  13.802   1.807
12046W        W71307  22.234  10.850   4.204
12047W        W71308  37.360   8.814  13.483
12048W        W71309  11.234   8.663   2.327
12049W        W71310  44.480   2.882  11.457
12050W        W71311  34.390  33.893   3.338
12051W        W71312   2.331   2.400  14.412
12052W        W71313  35.942  29.949  14.801
12053W        W71314  31.498  30.532   3.337
12054W        W71315  35.512  28.114  10.482
12055W        W71316  29.594  26.098   4.325
12056W        W71317  35.992  24.487   3.734
12057W        W71318  17.674  28.143   0.470
12058W        W71319   0.792   8.662  12.932
12059W        W71320  37.418  34.000  12.950
12060W        W71321  44.447  39.860   4.308
12061W        W71322  16.646  34.001   1.804
12062W        W71323   3.806   7.741   5.093
12063W        W71324  34.543  25.547   0.737
12064W        W71325   3.298   7.202  13.470
12065W        W71326  40.343  24.558  14.280
12066W        W71327  41.394  35.505  14.492
12067W        W71328  36.994   3.777   4.294
12068W        W71329  28.109  19.234   9.927
12069W        W71330  12.142  25.105   3.662
12070W        W71331   1.364  25.143  13.459
12071W        W71332  34.111  41.009   4.732
12072W        W71333  10.809  15.747  11.087
12073W        W71334  40.359  38.928  10.951
12074W        W71335   0.415   4.325   1.371
12075W        W71336   1.282  33.102  14.427
12076W        W71337  40.304  32.020  11.514
12077W        W71338  27.499  18.053  11.407
12078W        W71339  24.153  22.238   0.863
12079W        W71340  15.634  12.677   1.740
12080W        W71341  32.602  10.375   2.182
12081W        W71342  40.948  35.014   1.235
12082W        W71343   0.833  42.980  13.391
12083W        W71344  37.933  15.736   2.668
12084W        W71345  17.590  39.472   0.896
12085W        W71346   4.831  13.699  14.906
12086W        W71347  21.082  22.134  13.907
12087W        W71348  24.693  32.562   1.739
12088W        W71349   6.731  28.662  14.292
12089W        W71350  36.097  12.653   4.723
12090W        W71351  38.505  19.084   2.692
12091W        W71352  14.223  11.768   0.759
12092W        W71353  44.842  33.425   1.828
12093W        W71354  12.679  22.580  12.930
12094W        W71355  26.056  34.945  12.849
12095W        W71356  20.250  37.554  12.375
12096W        W71357  30.015   0.401   1.292
12097W        W71358  27.951   9.358   3.810
12098W        W71359  38.825  22.040   1.262
12099W        W71360  44.971  20.568  14.349
12100W        W71361  14.706  44.396   0.445
12101W        W71362  38.395  17.679   2.324
12102W        W71363  20.038  13.842   3.252
12103W        W71364  44.841  20.533  12.460
12104W        W71365  15.714  13.338  11.961
12105W        W71366  30.581  17.145   4.678
12106W        W71367  41.969   6.182   4.202
12107W        W71368  43.302   2.944  10.498
12108W        W71369   1.764  13.144   3.249
12109W        W71370  35.363  35.457   1.366
12110W        W71371  27.687  36.091   4.177
12111W        W71372  34.456   2.251   1.779
12112W        W71373   9.349  33.131   4.343
12113W        W71374  44.426  23.120  12.496
12114W        W71375  21.516  31.519   2.357
12115W        W71376  20.046   0.292  11.884
12116W        W71377  10.284  23.071   4.150
12117W        W71378  41.973  16.713   4.307
12118W        W71379  41.838   1.923  11.512
12119W        W71380  11.324   5.360  13.793
12120W        W71381  33.950   6.334   0.838
12121W        W71382  28.558   9.714  13.052
12122W        W71383  39.377  43.835   4.298
12123W        W71384  43.912  13.700  12.057
12124W        W71385   7.231   5.241  13.814
12125W        W71386  37.844  32.414   0.388
12126W        W71387  39.403   9.881  14.965
12127W        W71388   3.336  40.309  13.911
12128W        W71389  31.430  27.994   3.309
12129W        W71390  23.615   0.801   2.821
12130W        W71391   6.309  10.215  13.020
12131W        W71392  23.990  21.591  14.836
12132W        W71393  19.222  14.121  10.950
12133W        W71394  26.636  43.004   2.829
12134W        W71395  14.743  31.633  12.564
12135W        W71396  24.154  28.006   2.689
12136W        W71397  33.039  10.311  10.408
12137W        W71398  14.162  23.018  11.049
12138W        W71399  37.934  32.623  11.474
12139W        W71400  34.559   8.662  10.562
12140W        W71401  33.592  22.710  10.999
12141W        W71402  29.101  36.362  12.361
12142W        W71403   3.716  20.526   3.759
12143W        W71404  23.199  26.177   0.742
12144W        W71405  21.109  40.049   2.680
12145W        W71406  41.811  38.492   3.240
12146W        W71407  29.008  24.073   1.785
12147W        W71408  31.057  36.929  12.994
12148W        W71409  24.707  25.178   0.961
12149W        W71410   6.368  12.635  13.390
12150W        W71411  24.518  34.440   1.285
12151W        W71412   5.772   4.320  11.894
12152W        W71413  31.434  39.378  13.399
12153W        W71414  35.975   1.382   4.305
12154W        W71415  43.454  10.237  11.497
12155W        W71416   4.814  15.240  14.773
12156W        W71417  33.914  36.882  13.915
12157W        W71418  11.811  29.510  10.490
12158W        W71419   3.341  16.075   0.941
12159W        W71420  25.604  23.651   2.416
12160W        W71421  31.429  10.755  11.461
12161W        W71422  16.688  40.931   1.889
12162W        W71423  22.716  26.472   4.123
12163W        W71424  34.477  44.304   2.714
12164W        W71425  39.043  23.061  12.424
12165W        W71426  36.384  12.221   2.410
12166W        W71427  10.254   1.947   0.248
12167W        W71428  34.912  23.005   2.184
12168W        W71429  21.668  36.872  11.387
12169W        W71430   9.807  30.968   2.414
12170W        W71431  38.075  26.539  12.386
12171W        W71432   7.818   1.356   4.271
12172W        W71433  10.370  36.990  13.920
12173W        W71434  37.946  37.930   5.113
12174W        W71435  43.851  36.934  11.913
12175W        W71436  17.124  20.695   3.189
12176W        W71437  29.647  16.615   1.844
12177W        W71438  40.029  37.010  10.578
12178W        W71439  33.431  34.396   1.342
12179W        W71440  17.656  23.600  13.490
12180W        W71441  22.742   6.731  11.417
12181W        W71442  18.659   1.873  10.595
12182W        W71443  28.603   8.808   0.362
12183W        W71444  28.560  13.837  12.913
12184W        W71445  13.176  17.798   0.863
12185W        W71446  43.935  15.811   1.346
12186W        W71447  12.314   9.291  10.629
12187W        W71448  28.113  35.577  12.541
12188W        W71449  21.229  16.676  13.393
12189W        W71450  17.204  42.917  14.785
12190W        W71451  43.328  19.754   2.835
12191W        W71452  10.768  17.788   2.232
12192W        W71453  26.637  40.893   2.903
12193W        W71454  13.766  18.647   0.413
12194W        W71455  41.300  26.540  12.096
12195W        W71456  19.559  19.283  12.349
12196W        W71457  34.023  21.555   3.722
12197W        W71458   0.775  13.785  11.505
12198W        W71459  31.043  25.619   0.321
12199W        W71460   2.920  39.353  12.525
12200W        W71461  27.003  17.210   2.261
12201W        W71462  12.830  15.306   1.865
12202W        W71463  11.297  28.029  10.633
12203W        W71464  12.844  34.443   3.262
12204W        W71465  22.022  19.235  13.365
12205W        W71466  26.556   5.346  13.494
12206W        W71467  38.977  37.858  13.811
12207W        W71468  32.426   7.796  11.401
12208W        W71469  34.387  42.935  13.464
12209W        W71470  23.490  36.924  14.426
12210W        W71471  23.149  39.925   0.459
12211W        W71472  14.104  21.037  14.305
12212W        W71473  23.561  21.072   0.357
12213W        W71474  22.026   6.246   0.921
12214W        W71475  39.838   7.384  11.596
12215W        W71476  22.219  13.344  10.560
12216W        W71477  33.914  32.502  12.843
12217W        W71478  44.934  28.017   3.863
12218W        W71479  30.481  44.856   3.190
12219W        W71480  30.508  34.012  10.006
12220W        W71481  43.287   7.873  13.829
12221W        W71482  42.864  38.449  10.990
12222W        W71483  33.129  16.732  10.599
12223W        W71484  39.910  19.598   0.320
12224W        W71485  26.116  17.259  11.418
12225W        W71486  31.502  36.850  12.414
12226W        W71487  37.947  19.650   3.675
12227W        W71488  19.589  23.495   2.869
12228W        W71489  44.855  18.703   0.466
12229W        W71490  27.549  42.375  12.359
12230W        W71491  18.775  44.347   0.863
12231W        W71492  19.225  12.639  13.959
12232W        W71493  11.272  28.951   2.853
12233W        W71494  27.535  10.864  12.089
12234W        W71495  25.586  11.758  10.522
12235W        W71496   7.335  38.381   2.806
12236W        W71497  10.798  35.493   3.352
12237W        W71498   3.905  29.032   0.401
12238W        W71499   1.974  30.614   3.228
12239W        W71500   2.831   1.313  11.958
12240W        W71501  44.399  39.023  11.491
12241W        W71502  23.167  32.000   4.627
12242W        W71503  43.980  44.468  13.453
12243W        W71504  37.934  25.639   4.838
12244W        W71505  33.975   0.907  14.971
12245W        W71506  38.513   0.900  11.977
12246W        W71507  38.058   2.907  10.574
12247W        W71508  14.254  40.396  11.488
12248W        W71509   6.766  14.630  10.485
12249W        W71510  10.665  40.964   1.843
12250W        W71511  25.650  21.098  10.040
12251W        W71512  33.560  33.505  14.453
12252W        W71513  15.807  10.240  12.365
12253W        W71514  40.490  44.270   0.927
12254W        W71515   6.738  25.604   4.213
12255W        W71516  31.416   4.793   4.738
12256W        W71517  42.857  38.380   1.755
12257W        W71518  36.980  40.401  12.026
12258W        W71519   9.745  43.412   1.917
12259W        W71520  15.743  44.381  10.120
12260W        W71521  42.809  39.464   4.748
12261W        W71522  25.086  25.471  11.899
12262W        W71523  41.402  32.980  12.014
12263W        W71524  31.138  24.114  14.031
12264W        W71525   8.807  17.279  11.382
12265W        W71526  40.042  30.608  12.997
12266W        W71527  23.069  35.002  13.019
12267W        W71528  33.507  40.965  14.017
12268W        W71529   1.456  12.363   2.680
12269W        W71530  27.016  13.795   0.879
12270W        W71531  27.671   1.944   4.220
12271W        W71532  17.644  44.482  12.891
12272W        W71533   4.700  29.642  11.482
12273W        W71534  12.198  15.820  12.906
12274W        W71535   8.875  34.482  10.530
12275W        W71536  18.163  20.173   0.867
12276W        W71537  38.057  29.524  11.103
12277W        W71538   4.933  32.073   2.362
12278W        W71539  25.042  40.330   1.861
12279W        W71540  24.984  40.876  14.912
12280W        W71541  15.124   4.925  12.957
12281W        W71542   6.370  10.262   5.728
12282W        W71543  35.525  39.483  12.036
12283W        W71544  16.208  17.079  10.040
12284W        W71545  11.665  20.099   4.339
12285W        W71546  11.346  13.220  14.017
12286W        W71547  36.005  21.517  10.910
12287W        W71548  27.975  19.107  11.906
12288W        W71549  33.964  38.956   3.651
12289W        W71550   1.363  24.198   2.217
12290W        W71551   4.441   1.865  14.929
12291W        W71552   0.812  40.012   3.184
12292W        W71553  19.273  37.350  10.643
12293W        W71554  44.940  32.913  10.615
12294W        W71555  19.706   3.235   0.751
12295W        W71556  23.202  28.022   0.246
12296W        W71557  38.036  25.160   5.191
12297W        W71558  40.022  22.741   4.816
12298W        W71559   4.943  20.215   3.284
12299W        W71560  41.351  41.321   3.701
12300W        W71561   6.277  16.767   1.789
12301W        W71562  40.318   2.748   1.928
12302W        W71563   3.311  24.603   3.648
12303W        W71564   5.213  27.603  10.934
12304W        W71565   7.734  32.082   5.300
12305W        W71566   8.671  16.123   3.183
12306W        W71567  25.604  22.014  12.054
12307W        W71568  31.947   9.162   0.912
12308W        W71569  11.232  23.073  13.041
12309W        W71570  22.050  23.615  11.483
12310W        W71571  28.636  41.502   1.247
12311W        W71572   8.739  33.039  14.479
12312W        W71573  29.443   3.716  14.300
12313W        W71574  42.989  38.928   2.411
12314W        W71575  24.610   9.355  14.404
12315W        W71576   1.747   9.744   0.867
12316W        W71577  11.235  17.160   1.694
12317W        W71578  42.385  34.535   0.335
12318W        W71579  42.421  10.743   0.403
12319W        W71580   8.656  39.486   3.668
12320W        W71581  14.109  20.717   2.768
12321W        W71582   3.245   3.936   2.752
12322W        W71583  21.566   3.308  11.552
12323W        W71584   3.721  16.284  12.913
12324W        W71585  20.724  41.835   4.244
12325W        W71586  22.085   8.348   2.721
12326W        W71587   3.728  37.864  13.528
12327W        W71588  41.451   9.723  14.423
12328W        W71589  36.063  44.366   2.715
12329W        W71590  11.838  41.876  13.838
12330W        W71591   0.426  12.192   4.648
12331W        W71592  22.590  43.323   3.261
12332W        W71593  14.172   3.720   2.227
12333W        W71594  24.210  21.048   5.291
12334W        W71595   9.324  36.465   4.776
12335W        W71596  18.642  38.528   3.799
12336W        W71597  44.477  34.979   2.805
12337W        W71598  39.966  14.099   1.846
12338W        W71599  39.028  18.637  13.007
12339W        W71600  23.548   8.231  13.853
12340W        W71601  43.375   9.282   3.652
12341W        W71602  34.884   0.284  11.116
12342W        W71603  30.478   7.411   1.231
12343W        W71604  30.076  40.824  13.462
12344W        W71605  13.708  30.445  12.023
12345W        W71606  22.091   3.257   4.785
12346W        W71607   8.865   8.394   0.731
12347W        W71608   6.329  43.420  12.385
12348W        W71609  41.825   3.729   4.789
12349W        W71610   5.345  14.129  11.087
12350W        W71611   3.227  18.578   2.759
12351W        W71612  14.799  22.026  13.385
12352W        W71613  11.347   2.758   0.868
12353W        W71614   9.763   4.326  14.471
12354W        W71615  13.778   2.377  14.375
12355W        W71616  29.118  27.102   3.152
12356W        W71617   3.782  19.131  13.797
12357W        W71618  12.772  37.393   0.255
12358W        W71619  23.535   4.298  12.989
12359W        W71620  24.710  17.102   0.929
12360W        W71621  13.764  26.962  14.394
12361W        W71622   6.260   9.720   3.634
12362W        W71623   3.436   8.262   9.462
12363W        W71624   5.392  27.085  13.004
12364W        W71625  25.483  31.425   1.384
12365W        W71626  22.725  39.358   4.300
12366W        W71627  19.650  44.984   1.249
12367W        W71628   6.702  44.899  10.986
12368W        W71629  24.669  16.265   3.319
12369W        W71630  18.119   8.870   4.802
12370W        W71631  37.052   2.245  12.905
12371W        W71632  31.906   3.727   3.812
12372W        W71633  40.872  19.609  13.801
12373W        W71634  17.602  21.575  12.073
12374W        W71635  43.941  15.584  12.403
12375W        W71636  41.328   5.196  11.095
12376W        W71637   5.340  39.851   4.335
12377W        W71638  27.086  24.725  12.092
12378W        W71639   4.889  11.278  12.505
12379W        W71640  37.423  31.103   3.343
12380W        W71641   1.965  42.862  10.997
12381W        W71642   0.342  34.503   0.876
12382W        W71643  25.083  22.034  12.926
12383W        W71644  25.561  36.553  12.075
12384W        W71645  41.034  31.509  10.564
12385W        W71646  11.204  27.636   3.364
12386W        W71647   5.789  19.766  11.022
12387W        W71648  12.236   9.161   1.284
12388W        W71649  21.086  39.953   1.228
12389W        W71650  28.963  33.939  11.408
12390W        W71651  13.753   9.804   4.786
12391W        W71652   6.378   0.980   2.893
12392W        W71653  17.211  33.540   9.970
12393W        W71654  29.101  34.023   4.258
12394W        W71655  10.723   4.733  14.758
12395W        W71656   2.471  41.865   0.850
12396W        W71657  13.309  42.975  11.964
12397W        W71658  44.944   2.909  14.428
12398W        W71659  25.970  31.966   0.874
12399W        W71660  15.578  23.710   2.407
12400W        W71661  22.086  31.004  14.786
12401W        W71662  44.474   8.398  13.548
12402W        W71663  31.605  19.228   2.776
12403W        W71664  25.054  16.270  13.051
12404W        W71665  36.926  26.594   1.361
12405W        W71666   7.871  23.604   2.402
12406W        W71667  26.028  10.697   1.717
12407W        W71668  11.206   7.809  14.029
12408W        W71669  15.695  23.579   0.879
12409W        W71670   9.841   8.279  11.962
12410W        W71671  27.042   9.760   4.266
12411W        W71672   7.413   8.732   0.254
12412W        W71673  23.237  31.443  11.606
12413W        W71674  22.189  32.911  12.088
12414W        W71675   2.402  41.442   4.824
12415W        W71676  33.978   5.194  14.976
12416W        W71677   5.743  40.528   3.856
12417W        W71678  34.527  27.462  10.490
12418W        W71679  33.426   0.802   5.155
12419W        W71680  36.910  20.622   2.834
12420W        W71681  42.368  43.359   0.966
12421W        W71682   2.949  12.254  13.964
12422W        W71683  41.475  34.401  14.820
12423W        W71684  38.002  17.208   0.747
12424W        W71685  23.552  16.754   1.252
12425W        W71686  24.590  33.019  12.048
12426W        W71687  17.727  30.659   2.407
12427W        W71688  12.325  38.392   0.766
12428W        W71689  42.452   1.424   0.890
12429W        W71690  15.588   9.251  13.996
12430W        W71691   8.875  21.732  11.092
12431W        W71692  35.892  24.605  11.032
12432W        W71693  42.470  17.666  10.430
12433W        W71694  10.768   1.354  13.535
12434W        W71695   0.391  10.204   2.786
12435W        W71696  20.254  14.613   1.361
12436W        W71697   3.317  44.843  12.558
12437W        W71698   4.283  10.765   2.259
12438W        W71699  29.433  20.571  11.552
12439W        W71700   7.273   3.922  12.992
12440W        W71701  28.159  41.022   3.347
12441W        W71702   7.861  29.118  11.066
12442W        W71703  41.029  30.049   1.862
12443W        W71704  38.512  41.871   0.298
12444W        W71705  10.771  29.426  13.996
12445W        W71706   5.420  19.264  14.485
12446W        W71707  43.470  24.482  12.848
12447W        W71708  36.430   6.684   1.406
12448W        W71709   8.858  44.275  11.974
12449W        W71710  23.198  23.589  10.958
12450W        W71711   0.460  33.415   0.779
12451W        W71712  11.755  28.560   3.248
12452W        W71713   4.752  23.125  12.986
12453W        W71714  14.782  36.450   3.188
12454W        W71715  22.555  33.584  13.909
12455W        W71716  21.697  41.361   3.344
12456W        W71717  17.748  29.639   5.307
12457W        W71718  13.249  39.421  13.943
12458W        W71719   5.763   5.221   3.178
12459W        W71720  31.595  41.000   2.416
12460W        W71721   3.900  26.056   0.426
12461W        W71722   0.249  14.763   4.778
12462W        W71723   6.824  26.486  13.426
12463W        W71724  13.308  43.297   4.258
12464W        W71725  23.123   3.230  14.879
12465W        W71726   8.383   7.693  10.125
12466W        W71727  44.267  38.430   4.768
12467W        W71728   4.860  17.742   1.328
12468W        W71729  28.626  19.203  12.903
12469W        W71730  10.351   3.403  10.609
12470W        W71731   5.304  15.609   2.805
12471W        W71732  41.807  33.955  11.413
12472W        W71733   2.390   1.846   4.682
12473W        W71734  43.962  20.754  10.558
12474W        W71735  35.877  18.603   3.718
12475W        W71736  42.453  13.731   3.242
12476W        W71737   6.838  40.450  10.407
12477W        W71738  43.982  27.970  14.414
12478W        W71739  39.927  41.825  12.892
12479W        W71740  28.932   3.448  13.910
12480W        W71741  27.075  20.757   1.932
12481W        W71742  14.247  36.093   2.781
12482W        W71743  42.519  13.166   3.283
12483W        W71744  15.785  23.241  13.346
12484W        W71745  13.843  44.486   2.299
12485W        W71746  10.703  42.379  12.824
12486W        W71747  15.282  44.496   3.264
12487W        W71748   4.223  23.238  10.987
12488W        W71749   4.928  22.583  12.430
12489W        W71750  41.488  12.806   3.858
12490W        W71751  34.011  33.567   1.797
12491W        W71752  23.233  42.866   3.643
12492W        W71753  40.358   8.686   4.322
12493W        W71754  42.853  26.678  10.115
12494W        W71755  12.143  24.711   2.859
12495W        W71756  20.554  35.011  10.970
12496W        W71757   6.211  27.111  12.892
12497W        W71758  36.555  40.948   4.745
12498W        W71759  20.656  16.244  13.544
12499W        W71760   0.416  28.447  10.517
12500W        W71761  21.603  26.179   1.741
12501W        W71762  12.811   4.858   0.252
12502W        W71763  33.546  32.024   2.236
12503W        W71764  32.610  40.353   3.722
12504W        W71765  30.430  33.056   1.854
12505W        W71766  21.723  23.121   1.279
12506W        W71767  16.073  31.151  13.377
12507W        W71768  40.371  17.204  14.977
12508W        W71769  30.632   4.720   0.272
12509W        W71770   4.791  27.530  14.441
12510W        W71771  42.312  34.870  12.836
12511W        W71772  34.990  31.043   0.317
12512W        W71773  43.501  14.322   4.294
12513W        W71774  30.968  37.019   0.457
12514W        W71775  27.564  18.787   0.923
12515W        W71776  25.095   6.795   1.736
12516W        W71777   5.869  18.739   2.754
12517W        W71778  23.505  32.142   3.226
12518W        W71779  37.475  17.136  12.065
12519W        W71780  39.485  21.071   1.807
12520W        W71781  31.425   5.717   2.244
12521W        W71782  20.225  35.484  10.603
12522W        W71783  34.509  38.341   5.087
12523W        W71784   4.324   0.274   1.317
12524W        W71785  36.971  36.426   4.285
12525W        W71786  16.182  20.560   2.201
12526W        W71787  26.461  18.650  13.934
12527W        W71788  18.725   7.261  11.097
12528W        W71789  33.449  23.172   0.384
12529W        W71790   8.776   1.809  10.047
12530W        W71791   4.809  44.388   2.727
12531W        W71792  18.239  43.791   1.297
12532W        W71793  19.093  41.310  13.870
12533W        W71794   7.338   1.359   2.685
12534W        W71795   3.439  16.576  10.453
12535W        W71796  17.741  21.240   5.236
12536W        W71797  15.604  31.097   2.289
12537W        W71798  16.202  18.191  13.834
12538W        W71799   7.309   4.791   4.666
12539W        W71800  30.069   8.868   1.885
12540W        W71801   5.915  39.454   4.115
12541W        W71802  32.636  27.466  12.895
12542W        W71803  17.750  18.205  10.499
12543W        W71804  21.528  14.211  10.599
12544W        W71805  17.633  12.255  14.980
12545W        W71806  23.048  41.376   4.268
12546W        W71807   5.741   8.303  14.862
12547W        W71808  34.582  35.568  11.603
12548W        W71809  20.096  15.588   2.752
12549W        W71810   9.332  10.336   4.145
12550W        W71811  41.410  13.113  12.899
12551W        W71812  44.261  42.974   3.720
12552W        W71813   1.340   1.898   3.147
12553W        W71814  21.159   4.743  14.765
12554W        W71815  38.879  21.640  14.360
12555W        W71816  20.206  18.230   2.278
12556W        W71817   2.421   9.338  14.997
12557W        W71818  31.523  23.150  14.293
12558W        W71819  31.139  13.157  13.840
12559W        W71820  28.944  12.159   3.312
12560W        W71821   0.752  37.905   0.389
12561W        W71822  23.140   8.311  10.548
12562W        W71823  41.500  36.501   3.795
12563W        W71824   8.688  31.132  11.875
12564W        W71825  12.775  14.755  12.855
12565W        W71826  15.601  10.332  13.921
12566W        W71827  19.040  42.402  12.882
12567W        W71828  12.270  36.078  12.028
12568W        W71829   7.905  12.611  14.008
12569W        W71830  26.003  42.962  10.443
12570W        W71831  21.676   6.835  14.492
12571W        W71832  37.399   3.262  10.157
12572W        W71833  37.523   8.302  12.406
12573W        W71834   3.438  32.052  12.898
12574W        W71835   5.383  10.753  14.334
12575W        W71836  42.840  32.442  10.434
12576W        W71837   2.888  16.214  12.063
12577W        W71838   3.396  19.710   1.909
12578W        W71839  24.488  37.849   2.893
12579W        W71840  42.827  21.201  12.549
12580W        W71841  32.112  41.491  14.343
12581W        W71842  30.972   6.269   3.162
12582W        W71843  29.503  25.213  10.487
12583W        W71844  20.145  41.292  10.053
12584W        W71845  17.607  28.934  11.080
12585W        W71846  29.649   0.823   2.715
12586W        W71847   4.376  11.202   3.727
12587W        W71848  16.756   3.835  13.882
12588W        W71849  37.550   8.759   2.409
12589W        W71850  39.516  25.613   3.776
12590W        W71851   1.763   7.824  13.943
12591W        W71852   3.922  23.106  14.381
12592W        W71853  33.520  44.997   1.748
12593W        W71854  44.975   0.745   2.249
12594W        W71855   3.882  19.537   5.310
12595W        W71856  10.370  42.326   3.727
12596W        W71857   0.334  26.136  10.464
12597W        W71858  17.733  33.534  11.471
12598W        W71859   3.280  28.595  14.314
12599W        W71860  21.241  18.280   1.779
12600W        W71861  20.728  37.375   4.721
12601W        W71862  26.656   5.318  13.033
12602W        W71863  13.315  39.986  13.803
12603W        W71864  13.770  38.359  11.976
12604W        W71865   7.888  23.040  13.405
12605W        W71866   5.734   3.338   0.259
12606W        W71867   5.219   0.299   3.784
12607W        W71868  29.086   2.439  13.893
12608W        W71869  44.830  37.047   0.371
12609W        W71870  43.408  25.153   2.393
12610W        W71871  21.225  18.096  10.924
12611W        W71872  24.006  11.697   3.166
12612W        W71873  24.199  10.265   3.652
12613W        W71874  14.642  38.499   0.835
12614W        W71875  24.010  12.660   0.374
12615W        W71876   9.684  11.200  13.791
12616W        W71877  37.065  43.389  10.920
12617W        W71878  14.155  25.193   3.362
12618W        W71879   5.717  11.186   3.243
12619W        W71880  37.535  25.490  12.518
12620W        W71881   2.748   9.814   4.252
12621W        W71882   7.780  25.495  12.461
12622W        W71883  29.531  26.561  11.857
12623W        W71884  38.538  36.446   2.887
12624W        W71885  15.586  39.809  10.558
12625W        W71886  44.942  40.999  13.890
12626W        W71887  15.637  13.661  14.924
12627W        W71888  20.609   5.411  11.865
12628W        W71889   3.725  19.131   0.441
12629W        W71890  31.920  36.582  13.812
12630W        W71891  44.863   0.299   1.365
12631W        W71892   6.798  17.118   0.932
12632W        W71893   6.764  19.761   3.735
12633W        W71894  20.163  36.946   4.148
12634W        W71895  44.886  18.589  10.928
12635W        W71896  13.194  30.651   4.787
12636W        W71897   6.921  16.715  11.127
12637W        W71898  41.433  38.535   2.222
12638W        W71899  25.571  26.963   1.251
12639W        W71900  30.932  15.733   0.890
12640W        W71901  27.073  21.173   4.822
12641W        W71902  30.468  39.926  11.918
12642W        W71903  44.965  10.179   4.834
12643W        W71904  35.575  35.053   1.449
12644W        W71905   3.298  41.489   0.746
12645W        W71906  41.458   4.890   9.943
12646W        W71907  22.090  19.534  14.851
12647W        W71908   8.699   5.381  13.414
12648W        W71909  28.102  42.946   0.864
12649W        W71910  23.118  30.046   1.385
12650W        W71911  22.531  39.336  10.559
12651W        W71912  33.578  31.027   2.722
12652W        W71913  20.545  12.271  13.404
12653W        W71914  24.993  30.422  13.420
12654W        W71915   6.847  33.462  10.915
12655W        W71916  38.463  22.006  14.419
12656W        W71917  24.163  41.311   0.286
12657W        W71918  42.441  32.904   0.274
12658W        W71919  23.999  24.059   1.356
12659W        W71920   3.262  29.974   1.793
12660W        W71921  18.552  14.195   0.966
12661W        W71922  11.308  16.151   0.770
12662W        W71923  26.652   9.196  13.371
12663W        W71924  39.389  44.822   2.794
12664W        W71925  38.956   7.787  12.017
12665W        W71926  36.029  34.457  12.883
12666W        W71927   2.763  29.161  11.495
12667W        W71928  22.126  37.936  12.911
12668W        W71929  31.057  16.125   3.179
12669W        W71930  32.413  40.387  11.454
12670W        W71931   0.988  10.275   2.858
12671W        W71932  42.390  24.671  12.473
12672W        W71933   1.852  14.816   1.878
12673W        W71934  26.130  31.919   4.794
12674W        W71935   2.228  22.052  13.353
12675W        W71936   6.333  16.247   4.719
12676W        W71937  29.122  11.319   0.923
12677W        W71938  38.479   1.466  14.513
12678W        W71939  33.491  10.799   2.796
12679W        W71940  35.988   6.301  14.995
12680W        W71941  32.488  24.608   0.831
12681W        W71942  18.083  43.848  12.884
12682W        W71943   1.974   7.775  12.351
12683W        W71944   3.279   1.867   3.286
12684W        W71945  37.420  22.717   0.471
12685W        W71946  39.811   5.742   1.397
12686W        W71947  23.040  27.543   3.842
12687W        W71948   0.319  26.153   2.747
12688W        W71949  32.887  31.956   2.371
12689W        W71950  22.630  37.520  11.438
12690W        W71951   1.969  42.929   3.268
12691W        W71952  41.365  36.080   5.261
12692W        W71953   0.325  17.766   4.336
12693W        W71954  30.912   0.308   4.190
12694W        W71955  32.498  15.165   0.809
12695W        W71956   3.857   7.746  10.450
12696W        W71957   8.361  19.662  12.435
12697W        W71958   4.807  27.479   1.772
12698W        W71959   0.746   4.384  12.033
12699W        W71960  17.731  14.312  14.929
12700W        W71961  44.338  38.534  14.507
12701W        W71962   6.773  30.635  11.513
12702W        W71963  27.658  25.110   3.667
12703W        W71964  24.222  27.093  10.996
12704W        W71965   2.869  33.577  14.329
12705W        W71966  15.759  29.057   1.913
12706W        W71967  32.543  21.141   1.758
12707W        W71968  44.973  42.396   2.679
12708W        W71969  44.768   1.371   3.797
12709W        W71970   9.198  43.960  12.572
12710W        W71971  37.938  23.229  12.934
12711W        W71972  39.008  40.431   2.264
12712W        W71973  21.634  40.470  14.318
12713W        W71974  39.528  17.203   2.195
12714W        W71975  11.865  39.446   1.707
12715W        W71976  43.431  35.899   0.481
12716W        W71977  25.218   1.412   4.265
12717W        W71978  33.972  15.304  10.463
12718W        W71979  27.032  22.688   1.776
12719W        W71980  33.892   6.278  12.522
12720W        W71981  34.443  23.104  11.508
12721W        W71982  37.460  20.114   1.798
12722W        W71983  33.551  29.497  13.336
12723W        W71984   8.894  18.098  13.545
12724W        W71985  13.625  25.136   3.332
12725W        W71986   3.751  13.204   3.252
12726W        W71987  30.517  10.655   1.394
12727W        W71988  22.672  32.452   3.697
12728W        W71989  33.579   4.278  12.450
12729W        W71990  37.046  11.751  13.405
12730W        W71991  35.452  29.934   1.277
12731W        W71992  34.388  22.198  12.842
12732W        W71993  28.180   3.813  14.829
12733W        W71994  26.966   4.869   3.164
12734W        W71995  24.720  28.661  11.990
12735W        W71996  20.096  31.069  13.360
12736W        W71997  34.381  36.518   3.643
12737W        W71998  39.974   3.367  11.608
12738W        W71999  44.273   3.223  14.027
12739W        W72000  35.506   6.230  10.959
12740W        W72001  20.649   5.723   2.309
12741W        W72002  32.035  12.143  11.561
12742W        W72003  44.939  38.535   3.337
12743W        W72004  23.639  14.191  14.994
12744W        W72005  42.417  19.543  13.349
12745W        W72006  28.644  44.963   4.773
12746W        W72007  39.894  43.964  14.991
12747W        W72008   5.355  30.132   3.273
12748W        W72009  20.183   7.907  10.917
12749W        W72010   6.901  22.232  12.085
12750W        W72011   9.881  28.482   2.847
12751W        W72012  41.394  13.631   2.297
12752W        W72013  23.131   9.308  10.549
12753W        W72014  37.370  36.988   3.660
12754W        W72015  36.872  22.727  12.024
12755W        W72016  17.663  13.211  14.392
12756W        W72017  12.332   7.711   2.762
12757W        W72018   6.248  37.952   3.253
12758W        W72019  40.023   4.865   3.285
12759W        W72020  33.967  15.798  11.908
12760W        W72021  17.148  36.443   0.404
12761W        W72022  26.641  17.215  12.567
12762W        W72023   8.388  41.819   0.943
12763W        W72024   3.867  26.965   2.186
12764W        W72025  23.132  24.566  14.999
12765W        W72026  25.101   1.420   3.261
12766W        W72027   7.358  12.697  10.617
12767W        W72028  13.181  15.740  13.458
12768W        W72029  40.815   7.413   2.825
12769W        W72030  35.450  19.583  11.026
12770W        W72031  38.466  42.892  12.383
12771W        W72032  14.825  24.537   1.833
12772W        W72033  15.578  11.635  12.402
12773W        W72034  12.245  33.556  12.437
12774W        W72035  27.095  27.061  10.890
12775W        W72036  14.758  38.974   9.986
12776W        W72037  17.567   4.734  10.990
12777W        W72038   9.390  18.184   4.672
12778W        W72039  41.294  16.230  10.450
12779W        W72040  22.544  12.837   1.829
12780W        W72041  29.143  10.775   1.905
12781W        W72042   9.295  33.049   2.191
12782W        W72043  30.436  13.229   4.168
12783W        W72044  13.137  43.879  14.969
12784W        W72045   6.770  10.343   1.321
12785W        W72046  12.733   6.907   0.939
12786W        W72047  16.765   6.843   0.407
12787W        W72048  24.088   9.395   3.717
12788W        W72049  36.539  29.963   2.315
12789W        W72050  32.401   2.822   1.245
12790W        W72051  12.115  42.955   3.226
12791W        W72052  20.212  17.565  14.000
12792W        W72053  44.896  21.183  12.015
12793W        W72054  12.202  16.601  14.870
12794W        W72055  32.080  25.098  10.561
12795W        W72056  14.278   2.317   5.162
12796W        W72057  37.582  24.686   0.316
12797W        W72058   9.243  16.297   4.283
12798W        W72059  39.532  17.114   2.834
12799W        W72060   9.289  23.099  11.912
12800W        W72061  21.260  26.967   0.426
12801W        W72062  43.788  17.178   4.787
12802W        W72063  43.418   4.811   3.851
12803W        W72064  36.528  36.041   2.852
12804W        W72065   9.659  39.976  11.517
12805W        W72066  21.693  30.600  14.943
12806W        W72067   3.215  33.997   2.747
12807W        W72068  22.646  29.073   3.318
12808W        W72069  36.902  25.496  11.048
12809W        W72070  23.515  36.501  12.369
12810W        W72071  13.299   2.940  13.506
12811W        W72072  37.027  23.597  13.845
12812W        W72073  31.584   7.735  10.453
12813W        W72074  44.496  39.985  11.857
12814W        W72075  25.005  13.202  10.533
12815W        W72076  18.204  16.799   0.312
12816W        W72077   1.472   6.183   0.274
12817W        W72078  23.562  35.091   3.156
12818W        W72079  42.836  19.256  13.398
12819W        W72080  14.819   4.361  13.482
12820W        W72081  37.543  20.064  12.548
12821W        W72082  31.954   4.816   0.421
12822W        W72083  38.074   3.913   0.354
12823W        W72084  20.763  41.452   0.407
12824W        W72085  13.139  14.733   0.364
12825W        W72086  31.152  23.060  13.870
12826W        W72087  39.546   2.726  11.114
12827W        W72088  11.840  26.663  13.442
12828W        W72089  41.493  30.101  13.873
12829W        W72090  30.506  27.523   0.335
12830W        W72091  40.374  16.181   0.904
12831W        W72092  20.726  29.992   5.232
12832W        W72093  37.509   9.687  12.470
12833W        W72094  37.071  27.679  11.474
12834W        W72095  10.648  16.726   4.299
12835W        W72096  24.180  22.667  10.477
12836W        W72097  26.045  20.547  11.873
12837W        W72098  35.043  26.634   3.841
12838W        W72099  33.897  13.810   4.276
12839W        W72100  42.522  39.419   1.257
12840W        W72101  32.049  16.752  10.929
12841W        W72102  10.254  19.074   4.616
12842W        W72103  32.092  29.979  14.434
12843W        W72104  40.944  12.329   1.802
12844W        W72105  21.672  35.997  13.996
12845W        W72106  29.925  17.737  14.467
12846W        W72107  32.523  25.992  13.837
12847W        W72108  37.948  42.012   0.267
12848W        W72109  22.726  29.971   4.271
12849W        W72110  22.243  44.821   4.260
12850W        W72111  36.046  43.279  12.013
12851W        W72112  16.124  42.896   0.347
12852W        W72113  32.505  20.763  12.528
12853W        W72114   7.868  43.480   2.418
12854W        W72115  42.384  39.441   4.294
12855W        W72116  35.447  41.435  12.022
12856W        W72117  43.478  23.117   4.281
12857W        W72118  24.591  33.988  13.483
12858W        W72119   7.831  26.200  10.892
12859W        W72120  27.531  38.357  11.097
12860W        W72121  21.183   5.777   3.276
12861W        W72122  21.208  16.312  14.859
12862W        W72123  15.100  29.434  12.425
12863W        W72124  15.135  28.546   0.735
12864W        W72125   1.803   9.316   2.798
12865W        W72126   5.812  23.539   0.771
12866W        W72127  42.420   6.760   2.709
12867W        W72128  20.134  40.817   2.756
12868W        W72129  26.502   3.931   0.928
12869W        W72130  38.884  32.975   0.378
12870W        W72131  37.386  30.948  11.558
12871W        W72132  40.977   2.445  14.277
12872W        W72133  39.976  20.569   0.759
12873W        W72134  10.651  44.753   3.796
12874W        W72135  36.046  12.721  14.876
12875W        W72136  27.103  32.451  10.629
12876W        W72137  30.477  15.245  14.277
12877W        W72138  14.687  14.805   4.192
12878W        W72139   6.795  27.144   0.362
12879W        W72140  10.227   9.800  12.580
12880W        W72141  17.635  31.931  11.946
12881W        W72142  26.651  16.747   0.260
12882W        W72143   7.786  38.832   5.294
12883W        W72144  14.588  18.591   0.428
12884W        W72145  21.667  19.588   5.296
12885W        W72146  18.588  15.599   1.274
12886W        W72147  19.665  34.520   3.200
12887W        W72148  31.600  12.771  11.936
12888W        W72149  22.080   1.272  11.440
12889W        W72150  16.595  19.258  14.867
12890W        W72151  13.733  29.982   2.671
12891W        W72152  33.092   6.703   2.860
12892W        W72153  19.650   0.978  10.524
12893W        W72154  16.309  13.318  11.372
12894W        W72155  31.924  23.024  13.975
12895W        W72156  13.155   8.849  11.997
12896W        W72157  28.033  40.532   1.337
12897W        W72158   6.921  37.910  14.985
12898W        W72159   2.924  14.124   4.322
12899W        W72160  28.049  17.680   3.180
12900W        W72161  40.483  34.400  13.814
12901W        W72162  19.275  16.713  11.024
12902W        W72163   3.372  29.138   3.733
12903W        W72164  21.591  34.485  11.492
12904W        W72165  29.435  44.895  14.993
12905W        W72166  29.037  27.502  13.843
12906W        W72167  12.664   9.666  13.900
12907W        W72168   9.236  20.683  13.355
12908W        W72169   2.264  20.562   1.438
12909W        W72170   0.868  22.079   4.119
12910W        W72171  21.102  24.696   3.787
12911W        W72172   0.760  10.774  11.438
12912W        W72173   4.390  30.946   1.338
12913W        W72174  31.002  20.123  11.030
12914W        W72175   5.882  24.484  14.821
12915W        W72176  13.729  27.613   0.897
12916W        W72177  20.207  43.806   0.410
12917W        W72178  28.010   4.344  14.822
12918W        W72179  37.558  28.146  13.899
12919W        W72180  29.151  28.142  13.324
12920W        W72181  27.950  43.977   4.710
12921W        W72182  26.006  32.486  11.502
12922W        W72183   5.930  37.392   4.649
12923W        W72184   4.342  16.628  10.425
12924W        W72185   9.181   3.756  14.030
12925W        W72186   2.735  18.597  11.912
12926W        W72187  31.898   9.765   0.369
12927W        W72188  28.082  41.789   3.723
12928W        W72189   6.851  30.025   3.645
12929W        W72190   6.835  11.355   2.252
12930W        W72191   2.435  33.391  14.928
12931W        W72192  27.602  12.313   0.411
12932W        W72193  37.007  43.015  14.839
12933W        W72194  29.648  38.481   1.795
12934W        W72195  14.727   2.390   3.736
12935W        W72196   3.925  43.954   1.895
12936W        W72197  44.830  22.735  13.490
12937W        W72198  30.944   5.270  12.034
12938W        W72199  23.598  19.163  13.963
12939W        W72200  21.646  26.689   3.832
12940W        W72201  24.172  15.246  11.580
12941W        W72202  24.220  44.448   1.694
12942W        W72203  23.147  38.988  11.421
12943W        W72204  29.638  28.142  11.042
12944W        W72205   8.334  38.069  13.483
12945W        W72206  42.831  36.909  14.025
12946W        W72207  39.538   2.861  12.565
12947W        W72208   4.368   3.944  12.401
12948W        W72209   3.918  28.533   1.238
12949W        W72210  43.313  27.462   0.825
12950W        W72211  14.751  23.134   4.128
12951W        W72212  21.556  34.435  10.936
12952W        W72213  29.095  13.268   4.741
12953W        W72214  15.212  19.123  11.944
12954W        W72215  42.435  26.685   2.323
12955W        W72216  25.600  30.442   4.320
12956W        W72217   2.389  33.488   1.871
12957W        W72218  32.593   1.322  12.055
12958W        W72219  30.460  39.970   9.934
12959W        W72220  35.525  27.127  12.036
12960W        W72221  28.639  44.890  14.409
12961W        W72222  26.084  21.636  10.959
12962W        W72223  44.913  32.393  11.577
12963W        W72224  35.429  22.604   3.809
12964W        W72225  33.016   9.358   4.638
12965W        W72226   0.773  44.975   2.899
12966W        W72227   4.342  14.299  13.325
12967W        W72228   4.870   0.886   0.314
12968W        W72229  12.688   7.336   3.806
12969W        W72230  42.955  13.196   2.806
12970W        W72231   1.917  25.029   2.212
12971W        W72232  16.288   0.799   1.369
12972W        W72233  30.529  13.304   2.350
12973W        W72234  16.123  14.782   0.426
12974W        W72235  44.999   0.899  12.096
12975W        W72236  21.144  13.197   3.253
12976W        W72237  42.026  35.455  11.541
12977W        W72238   6.383  35.092   0.445
12978W        W72239  35.512  36.418   1.731
12979W        W72240  23.614  16.168  13.931
12980W        W72241   2.770  14.123   0.892
12981W        W72242  40.349   5.760  12.411
12982W        W72243  31.520  42.825   4.115
12983W        W72244  27.139  33.958   4.666
12984W        W72245  35.037  12.634  14.797
12985W        W72246  38.826  28.997   4.689
12986W        W72247  23.126   3.425   0.764
12987W        W72248   4.922  24.563  14.972
12988W        W72249  34.968  32.986   0.348
12989W        W72250  41.926  35.592   2.178
12990W        W72251   2.357   3.376   1.756
12991W        W72252  34.487  12.125   1.850
12992W        W72253  38.529  35.518   0.371
12993W        W72254  21.198   9.178   1.762
12994W        W72255   7.676   3.856  13.373
12995W        W72256   2.380   5.755  11.977
12996W        W72257  38.405  32.083   0.930
12997W        W72258  28.654  40.021   2.664
12998W        W72259  18.192  42.487   4.833
12999W        W72260  32.063   4.830   4.670
13000W        W72261  16.277  26.532   0.740
13001W        W72262   9.184  18.550  13.049
13002W        W72263  37.397  20.769  10.454
13003W        W72264  15.686  22.531  10.904
13004W        W72265  33.456  16.087  12.963
13005W        W72266  26.601  40.312  13.334
13006W        W72267  44.317  26.561   5.279
13007W        W72268  19.687  22.171   4.713
13008W        W72269   6.724  28.504  13.429
13009W        W72270  35.480  38.453   1.851
13010W        W72271  36.566  23.060  12.904
13011W        W72272  16.599  30.511   5.617
13012W        W72273  44.423  39.820  11.048
13013W        W72274   3.233  44.353  13.319
13014W        W72275  34.615  11.160  14.970
13015W        W72276  39.895  23.712  12.849
13016W        W72277   8.278  30.427  12.022
13017W        W72278  20.766  21.557   1.917
13018W        W72279  40.453  20.681   2.257
13019W        W72280  14.235  28.472   4.685
13020W        W72281  41.999  10.277  10.146
13021W        W72282  40.538  18.711  11.584
13022W        W72283  27.112  14.153  10.595
13023W        W72284   8.659  38.385  14.959
13024W        W72285   0.485   0.326   2.666
13025W        W72286  39.401  27.568  13.861
13026W        W72287  31.085  23.578  13.307
13027W        W72288  42.998   9.243  12.401
13028W        W72289  33.087   0.316  13.394
13029W        W72290  34.423  42.367   4.124
13030W        W72291  29.477  30.054   1.708
13031W        W72292   6.247  42.934   3.652
13032W        W72293  17.235   1.251   1.911
13033W        W72294   2.933   5.336   2.380
13034W        W72295  29.114  35.099   1.763
13035W        W72296  26.995  11.755  10.427
13036W        W72297  39.018  41.445  13.493
13037W        W72298  37.943  22.185   0.422
13038W        W72299  10.349  12.291  14.494
13039W        W72300   1.789  41.029   4.307
13040W        W72301  10.841  14.820  12.063
13041W        W72302  44.862  15.776  10.102
13042W        W72303  28.976  40.361  13.963
13043W        W72304  11.825  23.519   3.821
13044W        W72305  40.506  10.809   0.934
13045W        W72306  15.285  32.076  10.499
13046W        W72307  31.916   4.411   4.642
13047W        W72308  10.633  17.191  13.424
13048W        W72309  35.525   3.364   4.260
13049W        W72310  38.022  16.612   2.179
13050W        W72311   5.876  39.404  12.405
13051W        W72312  20.528  34.100  14.396
13052W        W72313  39.954  33.520   0.352
13053W        W72314  37.935  38.024  11.076
13054W        W72315  36.927   9.887  12.859
13055W        W72316  19.100  11.351  12.858
13056W        W72317   0.808  39.332   2.843
13057W        W72318  31.104  32.913   1.914
13058W        W72319  37.420  41.958  13.842
13059W        W72320  31.005   6.384   2.373
13060W        W72321  31.609  22.647   4.276
13061W        W72322   6.701  18.067   3.325
13062W        W72323  31.048  10.808  13.839
13063W        W72324   4.238  42.880   3.862
13064W        W72325  42.432  23.160  12.460
13065W        W72326  29.448   8.215   1.821
13066W        W72327  21.020   2.286  14.768
13067W        W72328  30.102   4.850   3.270
13068W        W72329  43.449  38.885   9.988
13069W        W72330   8.832  41.903  13.989
13070W        W72331   9.657  22.739  12.340
13071W        W72332  19.653  36.416   3.163
13072W        W72333  16.288   2.450   4.259
13073W        W72334  42.998  40.534  14.332
13074W        W72335   3.413  12.360   4.117
13075W        W72336  13.716  14.790   5.222
13076W        W72337   2.459  31.065   1.352
13077W        W72338   4.778  27.014   0.464
13078W        W72339  26.553   2.285  10.515
13079W        W72340   0.384  34.500   4.713
13080W        W72341   6.401   7.373  12.972
13081W        W72342  41.414  29.440   0.443
13082W        W72343  14.180  10.351  13.896
13083W        W72344   6.762  21.189  13.453
13084W        W72345  27.999  40.490  11.888
13085W        W72346   3.360  24.538  11.112
13086W        W72347  38.548  25.126  10.904
13087W        W72348  12.801  18.625  12.407
13088W        W72349  10.257   6.389   1.252
13089W        W72350  20.238  16.806   1.409
13090W        W72351  20.191   2.366   3.217
13091W        W72352  11.813  18.763  10.482
13092W        W72353  19.255  22.029  12.987
13093W        W72354   5.884  26.040   4.774
13094W        W72355  12.653  17.568   4.229
13095W        W72356  36.370  17.728   2.182
13096W        W72357  37.561   1.381  11.902
13097W        W72358   5.817  44.806   4.665
13098W        W72359  28.517   4.203  11.521
13099W        W72360  34.092   2.253   1.771
13100W        W72361  20.616  24.711  11.441
13101W        W72362   3.291  14.781   2.717
13102W        W72363  35.925  44.802  10.475
13103W        W72364  42.392  44.314   4.292
13104W        W72365  43.500   0.946  13.803
13105W        W72366   4.785   4.429  11.941
13106W        W72367  39.529  34.445  13.987
13107W        W72368  43.876   6.345  11.892
13108W        W72369   8.208  14.612  12.541
13109W        W72370  12.617   7.786  12.495
13110W        W72371  36.993  33.503  14.967
13111W        W72372   5.425  28.629  12.467
13112W        W72373   9.832  29.966  10.611
13113W        W72374  20.153  13.344  13.951
13114W        W72375  10.253  15.175  14.925
13115W        W72376  34.991  12.358   2.717
13116W        W72377  23.650  25.218   2.248
13117W        W72378  26.969  24.138   1.234
13118W        W72379  11.795  44.882   2.839
13119W        W72380   7.744   3.289   9.963
13120W        W72381   2.845   3.326   0.265
13121W        W72382  19.202  31.403  12.857
13122W        W72383  33.021  26.177  13.401
13123W        W72384  39.058   1.437  10.587
13124W        W72385  17.598   8.812  11.014
13125W        W72386  43.294  43.802   1.898
13126W        W72387  21.525  14.155  13.335
13127W        W72388  20.700  29.047   3.711
13128W        W72389  39.007  37.965  12.857
13129W        W72390  27.053  27.645   4.712
13130W        W72391  10.292  44.826  12.843
13131W        W72392  24.173  28.085  14.370
13132W        W72393   8.886   0.978  13.435
13133W        W72394  21.701  16.665   4.836
13134W        W72395  30.438   1.904  12.491
13135W        W72396  25.046  10.875   0.791
13136W        W72397  31.594  10.329  13.970
13137W        W72398  18.603  35.424  11.079
13138W        W72399  34.588  16.200   4.173
13139W        W72400   5.759   1.962   3.368
13140W        W72401  13.672  39.009  11.109
13141W        W72402  20.223  42.879   1.408
13142W        W72403  13.705  40.929  10.941
13143W        W72404   6.713   5.877  13.931
13144W        W72405  19.095  24.115  12.470
13145W        W72406   0.872  20.728   3.369
13146W        W72407  36.989  21.232  10.466
13147W        W72408  42.404  41.946  11.005
13148W        W72409  23.000  31.905  14.277
13149W        W72410   6.806   1.283   2.235
13150W        W72411   7.269   0.326   4.697
13151W        W72412  20.656  27.589  14.826
13152W        W72413  33.050  36.591  11.976
13153W        W72414   0.945  15.746  11.578
13154W        W72415  14.316  15.197   2.783
13155W        W72416  17.066   9.699   3.705
13156W        W72417  27.132  14.684   3.685
13157W        W72418  22.610  22.078  10.540
13158W        W72419  20.586  17.221   0.254
13159W        W72420   4.412  34.477  12.571
13160W        W72421  28.065  44.469   2.702
13161W        W72422   7.762  32.103  10.538
13162W        W72423  10.817  10.369  12.572
13163W        W72424   5.422  40.835  12.540
13164W        W72425  33.501  36.096  12.437
13165W        W72426  34.913   9.671   0.937
13166W        W72427  25.009  31.081   2.901
13167W        W72428  16.302   5.917  11.387
13168W        W72429   7.684   9.282   4.734
13169W        W72430  18.632  36.065  10.598
13170W        W72431  10.141  41.490   3.811
13171W        W72432  30.003   4.894  14.918
13172W        W72433  30.975  37.547  10.067
13173W        W72434  11.660  41.826   3.860
13174W        W72435  24.707  29.445   4.225
13175W        W72436   7.411  13.814   3.817
13176W        W72437  40.413  37.851   2.409
13177W        W72438  33.543   4.757   2.764
13178W        W72439   3.278  29.631   0.946
13179W        W72440  24.567  19.641  12.429
13180W        W72441  34.059   3.286   1.749
13181W        W72442   1.934  37.339   5.146
13182W        W72443  38.848   1.916  13.429
13183W        W72444  27.607   1.463  10.910
13184W        W72445  28.475   6.707   2.712
13185W        W72446  26.578  14.634   3.670
13186W        W72447  39.449  13.717  13.040
13187W        W72448  19.611   9.281  13.489
13188W        W72449  14.820  35.897   4.334
13189W        W72450  29.655  18.289  14.373
13190W        W72451  15.787   9.348   3.168
13191W        W72452  39.473  25.996   2.818
13192W        W72453   7.889  17.061   0.342
13193W        W72454  19.764  41.895   1.891
13194W        W72455  14.124   7.231   2.742
13195W        W72456   3.909   1.418   4.192
13196W        W72457  18.687  41.853  10.645
13197W        W72458  26.080  13.647   2.787
13198W        W72459   7.862  11.208  11.940
13199W        W72460   7.319  16.304   0.852
13200W        W72461  17.599  39.406   1.911
13201W        W72462  20.625  38.403   1.302
13202W        W72463  33.400   1.831   2.199
13203W        W72464  19.596   7.836   2.784
13204W        W72465  18.169  14.664   3.301
13205W        W72466   7.760  35.937   2.846
13206W        W72467   1.333  17.556   2.683
13207W        W72468  30.972  39.868   3.217
13208W        W72469  33.549  44.422  13.896
13209W        W72470  25.020  43.806   1.895
13210W        W72471   4.215  23.076   3.337
13211W        W72472  37.008  35.359   3.273
13212W        W72473  34.911  37.878  13.957
13213W        W72474  43.430  25.646  13.944
13214W        W72475  11.803  33.049   4.342
13215W        W72476  35.365   7.758   2.820
13216W        W72477  16.100  38.984   1.759
13217W        W72478   2.727  33.877   3.701
13218W        W72479  27.686  34.947   4.289
13219W        W72480  22.064  17.726   1.867
13220W        W72481  35.528  10.744  14.792
13221W        W72482  35.559   7.182  13.841
13222W        W72483  16.764  42.451   2.889
13223W        W72484  20.537  15.099   3.799
13224W        W72485   2.407  10.747   0.891
13225W        W72486  28.173  21.601  13.932
13226W        W72487  30.658  29.991  13.969
13227W        W72488  43.299  13.319   1.344
13228W        W72489  13.635   8.255   0.950
13229W        W72490  37.377  25.144  11.083
13230W        W72491  15.739   0.453  13.034
13231W        W72492  25.605   8.730  14.948
13232W        W72493   6.199  31.083  12.057
13233W        W72494   8.227  32.585   4.718
13234W        W72495  21.199  23.546  14.849
13235W        W72496   8.829  34.877  11.596
13236W        W72497  28.942  38.858   2.286
13237W        W72498  34.378   9.357  14.275
13238W        W72499  18.154  43.864   4.288
13239W        W72500  42.385  33.411  12.060
13240W        W72501   9.256  35.601  14.470
13241W        W72502  41.929  30.656  13.484
13242W        W72503  42.877  24.062   4.120
13243W        W72504  22.603  33.383  10.025
13244W        W72505  43.787   9.253  14.819
13245W        W72506  42.785  42.777   4.115
13246W        W72507  24.555  35.972   1.237
13247W        W72508  20.043  35.559  13.006
13248W        W72509  23.597  34.042  11.416
13249W        W72510   3.936  30.584  10.448
13250W        W72511  14.316  35.967  11.868
13251W        W72512   2.957   0.793  14.278
13252W        W72513   2.303  34.615  10.029
13253W        W72514   2.326  15.590  12.913
13254W        W72515  19.758   9.792   2.233
13255W        W72516   9.686  39.006   4.731
13256W        W72517   7.751   4.926   4.763
13257W        W72518   0.282  17.242  11.950
13258W        W72519  19.065  16.601   3.642
13259W        W72520  12.622   1.935  13.945
13260W        W72521  32.079   9.347  14.307
13261W        W72522  20.206  18.251  13.997
13262W        W72523  40.408  11.180   1.337
13263W        W72524  44.271  20.716   0.297
13264W        W72525  32.525  18.684   4.711
13265W        W72526  17.606   4.229   3.870
13266W        W72527  25.048  20.259   1.388
13267W        W72528  24.626  18.670  11.579
13268W        W72529  28.609  38.855  13.826
13269W        W72530  28.641  31.565  11.901
13270W        W72531  25.165  23.651  13.993
13271W        W72532   1.285   4.808   0.269
13272W        W72533  42.491  23.651  14.974
13273W        W72534  20.581   4.308   0.795
13274W        W72535  11.149  31.486  14.814
13275W        W72536  14.328  38.334  13.916
13276W        W72537  38.889  17.238   1.763
13277W        W72538  10.370  12.301  11.506
13278W        W72539  44.358  14.802  11.577
13279W        W72540  29.564  42.462  13.015
13280W        W72541  35.941   5.419  10.494
13281W        W72542   9.193  20.166  14.310
13282W        W72543   1.971  39.051   4.616
13283W        W72544  10.140  10.817   1.370
13284W        W72545  10.785   4.385   1.700
13285W        W72546   6.289   8.798  12.091
13286W        W72547  25.977   8.362   1.376
13287W        W72548  42.840  21.644  14.325
13288W        W72549  14.620   2.775   4.688
13289W        W72550  29.489  33.967   3.227
13290W        W72551   6.222  25.179  10.029
13291W        W72552  24.599  22.082  10.019
13292W        W72553   0.370  12.169   3.248
13293W        W72554  27.014   0.346  11.528
13294W        W72555  26.151   6.265   3.677
13295W        W72556   5.300  22.211  11.574
13296W        W72557  42.858  43.976   9.946
13297W        W72558  40.324  41.336  11.065
13298W        W72559   9.840  43.270  13.849
13299W        W72560  19.628  42.281   1.307
13300W        W72561  33.091   4.763   1.798
13301W        W72562  22.563  28.651  10.447
13302W        W72563  14.810  15.208  10.926
13303W        W72564  36.508  17.571   4.623
13304W        W72565   2.830  44.462   1.816
13305W        W72566   1.893  23.722   0.480
13306W        W72567  12.834  38.045   0.744
13307W        W72568  20.753   4.932  12.450
13308W        W72569  14.632   0.287   0.816
13309W        W72570   7.265   0.407   4.268
13310W        W72571  19.137  22.609  12.901
13311W        W72572  33.561  16.747  13.064
13312W        W72573  21.662   5.306  10.543
13313W        W72574  32.598  38.358  12.537
13314W        W72575   2.230  37.074  11.055
13315W        W72576   0.854   1.841  13.443
13316W        W72577  10.204  21.657  14.908
13317W        W72578  20.635  40.997   0.326
13318W        W72579  32.532   0.336   2.849
13319W        W72580  18.126  41.891   0.311
13320W        W72581  30.164  33.438   9.617
13321W        W72582  25.054  31.435  13.835
13322W        W72583  14.218  30.987  12.910
13323W        W72584   1.332  41.998  11.066
13324W        W72585  29.013  43.405   3.332
13325W        W72586   7.256  13.347   0.797
13326W        W72587  25.064  40.019   1.698
13327W        W72588  36.887  39.878  12.487
13328W        W72589  32.116  11.235  13.880
13329W        W72590  11.643  37.912  13.356
13330W        W72591  23.042  31.564  14.440
13331W        W72592  15.248  38.067   4.819
13332W        W72593  26.580  37.954  13.347
13333W        W72594  42.873  32.541  11.901
13334W        W72595  36.910  19.215   2.744
13335W        W72596  21.213  13.703   4.271
13336W        W72597   4.804  31.999   3.195
13337W        W72598  11.143  18.574  12.095
13338W        W72599  39.511  11.741  12.048
13339W        W72600   7.863  11.135  12.441
13340W        W72601  29.454   3.913   3.235
13341W        W72602  38.909  22.674  13.934
13342W        W72603  42.899  20.116  12.046
13343W        W72604   3.782  13.143  12.043
13344W        W72605   0.426  35.916  13.915
13345W        W72606   5.383  21.756   2.207
13346W        W72607  41.499  20.136  12.378
13347W        W72608  15.695  43.938   3.235
13348W        W72609  10.778   1.376  10.425
13349W        W72610  10.764  42.950  10.630
13350W        W72611  26.185   7.321  10.411
13351W        W72612   4.934  27.594  14.963
13352W        W72613  44.472   1.918   2.374
13353W        W72614  18.716  16.095   4.285
13354W        W72615  24.034   8.864   4.828
13355W        W72616  14.109   0.273  12.452
13356W        W72617  22.618  28.454  14.950
13357W        W72618   9.244  11.734   0.438
13358W        W72619  24.985  33.583   4.639
13359W        W72620   5.766  35.494   0.756
13360W        W72621  18.696   1.939   4.149
13361W        W72622  26.115  13.756  11.458
13362W        W72623  11.184  41.350   4.699
13363W        W72624  17.622   2.355   0.334
13364W        W72625  12.722   8.829   2.796
13365W        W72626  19.127   4.421   2.309
13366W        W72627  20.635  16.675   0.372
13367W        W72628  32.095  18.184  12.396
13368W        W72629  33.414  37.882  10.645
13369W        W72630  10.151  20.594  13.003
13370W        W72631  21.167  44.417  10.597
13371W        W72632   9.206  27.947   2.759
13372W        W72633   1.888  43.361  11.393
13373W        W72634  42.388  13.307  11.440
13374W        W72635   4.450  29.560  13.809
13375W        W72636  13.227  26.580   4.782
13376W        W72637  39.541   2.874  13.318
13377W        W72638  38.993   8.779  14.937
13378W        W72639  27.014  18.703   4.750
13379W        W72640  43.021  41.492  11.967
13380W        W72641  36.584  41.307   5.093
13381W        W72642  13.688  23.592  14.324
13382W        W72643   3.776  39.522  14.815
13383W        W72644  28.543  10.233   4.632
13384W        W72645  36.892   5.226  12.414
13385W        W72646  15.615  42.519   0.748
13386W        W72647  44.961  24.563  11.881
13387W        W72648   7.414  31.068   0.942
13388W        W72649  29.094  36.431   3.365
13389W        W72650   6.269  39.532   4.666
13390W        W72651  37.522  29.122  12.357
13391W        W72652  34.567  42.880   5.644
13392W        W72653  41.796  22.086   4.688
13393W        W72654  16.583  22.108   2.272
13394W        W72655  41.880  34.433   3.365
13395W        W72656   7.856  36.518  11.970
13396W        W72657  27.544  29.027  12.095
13397W        W72658  30.494  22.513   3.753
13398W        W72659   8.170  28.105  11.972
13399W        W72660   1.429  16.111  11.041
13400W        W72661  44.948  38.484   0.750
13401W        W72662  23.023  23.144   0.401
13402W        W72663  18.569  10.778   1.818
13403W        W72664   9.380   6.729   4.729
13404W        W72665  18.774   0.339   4.598
13405W        W72666  37.379   0.947   3.251
13406W        W72667  15.237  41.420   1.780
13407W        W72668  40.880  26.474   1.238
13408W        W72669  19.061  14.211   3.769
13409W        W72670  31.509  32.904   0.271
13410W        W72671   6.694  43.339   0.272
13411W        W72672  13.771   7.270  10.993
13412W        W72673  22.033  12.254   0.804
13413W        W72674   8.294  34.028   4.630
13414W        W72675  29.141  19.539  13.848
13415W        W72676  23.135  18.071  14.370
13416W        W72677   7.788  31.115  13.022
13417W        W72678   7.763  38.545   2.784
13418W        W72679  37.841   8.679   4.720
13419W        W72680  18.632  31.563   0.730
13420W        W72681  42.285  21.180   3.811
13421W        W72682  36.396   9.709   3.367
13422W        W72683   9.327  21.635   4.313
13423W        W72684  31.424  19.117  12.568
13424W        W72685  10.193  29.610   0.923
13425W        W72686  29.554  11.200   0.964
13426W        W72687  15.123  44.343  12.420
13427W        W72688   9.395  30.445   4.721
13428W        W72689   7.268  33.086   4.342
13429W        W72690  12.197  29.532   3.152
13430W        W72691   0.303  11.280   0.890
13431W        W72692  21.241  26.457   4.213
13432W        W72693  19.585  10.217   2.681
13433W        W72694  31.082  32.461  10.115
13434W        W72695  31.501  15.595   2.357
13435W        W72696  17.141  12.726  14.299
13436W        W72697  19.765  22.653  14.815
13437W        W72698  39.973  14.789   2.718
13438W        W72699  25.996   6.263   0.245
13439W        W72700  14.261   6.394  12.556
13440W        W72701  34.457  12.184   0.756
13441W        W72702  41.515  15.584  14.496
13442W        W72703  34.030  18.702  14.478
13443W        W72704   2.940  12.159  11.519
13444W        W72705   4.230  36.012   0.400
13445W        W72706  11.744   5.310   4.670
13446W        W72707  18.185  27.576   4.815
13447W        W72708  27.516  39.484  12.865
13448W        W72709   4.221  21.535  10.947
13449W        W72710  18.697  15.788   0.855
13450W        W72711  39.866  24.999   1.439
13451W        W72712   2.929  11.333   1.786
13452W        W72713  19.134  34.569  13.504
13453W        W72714  39.002  21.691   2.825
13454W        W72715  19.080  40.476   1.734
13455W        W72716  27.959  23.018  14.349
13456W        W72717  34.035   5.770  14.502
13457W        W72718  22.007  12.740  11.960
13458W        W72719  12.727   9.858  10.533
13459W        W72720  41.870  29.470  11.482
13460W        W72721  40.852  16.774   1.253
13461W        W72722  29.083  30.537   0.481
13462W        W72723  43.280  40.920   1.894
13463W        W72724   1.458  38.842  10.561
13464W        W72725   9.303  24.695   2.740
13465W        W72726  17.694  25.479   2.784
13466W        W72727   7.369  38.866   4.273
13467W        W72728   3.458  40.862  13.887
13468W        W72729   5.713   0.953  11.475
13469W        W72730  33.497  25.675   0.394
13470W        W72731   4.768   1.433   2.260
13471W        W72732  32.995  39.922   4.342
13472W        W72733   1.287  32.585  11.103
13473W        W72734  11.336  28.150   2.231
13474W        W72735  28.028  37.435   4.755
13475W        W72736  19.097  33.530   2.268
13476W        W72737  43.017   2.309   2.866
13477W        W72738  13.228   2.377  13.338
13478W        W72739  22.656  21.206   2.330
13479W        W72740  32.934  37.387  14.852
13480W        W72741  32.976   8.306   0.456
13481W        W72742  29.136  43.997   1.291
13482W        W72743   0.352  15.181  12.415
13483W        W72744  37.004   8.221   0.370
13484W        W72745  36.484  16.171   4.794
13485W        W72746  38.011  33.443   0.941
13486W        W72747   6.398  15.680   0.737
13487W        W72748  22.572  29.018   4.800
13488W        W72749  22.610  14.196   3.209
13489W        W72750  12.256  11.751  10.129
13490W        W72751  12.337  21.071  10.912
13491W        W72752  32.916  26.695   0.876
13492W        W72753   3.352   2.960   4.210
13493W        W72754  13.749  28.040   2.723
13494W        W72755  44.470   4.702  11.539
13495W        W72756  41.852  37.891  14.818
13496W        W72757  24.064  29.997   0.821
13497W        W72758  37.377   2.817   4.817
13498W        W72759  11.149  33.079   1.741
13499W        W72760  19.581   7.297  14.867
13500W        W72761  29.661   6.206   2.899
13501W        W72762  15.132  22.026   2.394
13502W        W72763  28.655  10.725  10.589
13503W        W72764   6.736  28.454  11.603
13504W        W72765  29.631  44.924  13.423
13505W        W72766  40.836  34.111  10.456
13506W        W72767  13.118   1.762   3.212
13507W        W72768   7.318  20.072   0.842
13508W        W72769   7.868   8.378  13.971
13509W        W72770  27.177  12.672  11.073
13510W        W72771  17.167  29.578   3.149
13511W        W72772  39.900  40.040   3.241
13512W        W72773  31.095  39.439  14.456
13513W        W72774  14.605  32.475  13.943
13514W        W72775  31.590   2.814  12.985
13515W        W72776  22.508   7.293  10.094
13516W        W72777  18.678  10.746   4.352
13517W        W72778  24.023  44.391  11.538
13518W        W72779  26.204  34.062  12.839
13519W        W72780   3.856  22.624  14.767
13520W        W72781  22.708  26.529  14.375
13521W        W72782   3.246  33.383   3.159
13522W        W72783  39.035  20.649  11.505
13523W        W72784  21.665  32.903   4.326
13524W        W72785  39.912  40.472  14.870
13525W        W72786   4.701  21.059  12.503
13526W        W72787  27.449  13.716  12.393
13527W        W72788  29.580  40.799   3.210
13528W        W72789   7.383   1.971  12.539
13529W        W72790   2.459  43.449  12.905
13530W        W72791   4.319  43.464   0.774
13531W        W72792   7.681  41.921   2.274
13532W        W72793   1.468  37.055  12.472
13533W        W72794   4.764   3.770   0.304
13534W        W72795  30.582   5.828   1.923
13535W        W72796  21.536  37.416   2.863
13536W        W72797  32.485   0.288  13.515
13537W        W72798  42.300  27.189   2.242
13538W        W72799   4.243  22.199  14.426
13539W        W72800  36.052  18.626  12.869
13540W        W72801  21.750   0.303  12.861
13541W        W72802  36.361  40.387   3.826
13542W        W72803  34.084  40.988  11.425
13543W        W72804  18.687  15.300   4.792
13544W        W72805  34.934  30.068  10.934
13545W        W72806  21.666  12.327   4.299
13546W        W72807  34.449  39.408  13.013
13547W        W72808  25.034  24.508   1.734
13548W        W72809  32.939  21.020   1.317
13549W        W72810  28.098  40.996   1.240
13550W        W72811  42.510   2.309   1.864
13551W        W72812  30.030  30.553  12.462
13552W        W72813  25.699  41.834  12.561
13553W        W72814  39.997  15.748   0.480
13554W        W72815  23.080  31.148  14.467
13555W        W72816  31.498  44.279  10.976
13556W        W72817  15.289  23.117   0.868
13557W        W72818   3.347  20.744   4.769
13558W        W72819  20.610  20.202   9.660
13559W        W72820  33.544   1.451   4.124
13560W        W72821   7.385  40.429  12.920
13561W        W72822   5.277   0.845   3.170
13562W        W72823  36.431  40.505   0.339
13563W        W72824  25.620  15.182   2.272
13564W        W72825   5.350  30.004   0.740
13565W        W72826  15.595   3.913   1.837
13566W        W72827  21.062  33.103  14.450
13567W        W72828  44.959  44.389  13.463
13568W        W72829  14.650  44.386   2.684
13569W        W72830  41.882  10.672   2.229
13570W        W72831  33.952  28.630   2.780
13571W        W72832  35.065  11.332   3.660
13572W        W72833  27.510  34.392  10.018
13573W        W72834  37.524  37.027  11.092
13574W        W72835  21.731  18.700   0.287
13575W        W72836  22.570  11.351  13.058
13576W        W72837  33.971  33.108  11.447
13577W        W72838  32.132  10.853   1.911
13578W        W72839   0.840  20.557  14.389
13579W        W72840  21.727  40.902  14.947
13580W        W72841  13.136   8.302   0.844
13581W        W72842  25.970  21.072   3.839
13582W        W72843   1.907  10.669  14.274
13583W        W72844  41.423  26.042   1.886
13584W        W72845  32.577   1.816   4.827
13585W        W72846   6.770  43.975   4.673
13586W        W72847  14.281  30.036  13.542
13587W        W72848   4.293  17.175   2.778
13588W        W72849   6.693  30.477  13.060
13589W        W72850  42.781  25.612   2.787
13590W        W72851  38.485  23.068   0.359
13591W        W72852  26.085  34.969  14.418
13592W        W72853  30.430  43.282   5.313
13593W        W72854  34.084  17.681  13.365
13594W        W72855  24.638   0.448  11.562
13595W        W72856  16.619  18.740   1.347
13596W        W72857  14.119  23.187  13.413
13597W        W72858  20.709  39.857  14.452
13598W        W72859   4.285  24.037   0.932
13599W        W72860  32.532  35.600   3.283
13600W        W72861   6.321  22.057  10.980
13601W        W72862  43.875  38.877  13.848
13602W        W72863  12.206   9.830  12.367
13603W        W72864  44.789  22.713  12.832
13604W        W72865  28.086  11.836  10.058
13605W        W72866  17.153  18.097  10.964
13606W        W72867  26.601   8.803  14.503
13607W        W72868  22.187  31.906  14.391
13608W        W72869   1.951  39.895   1.924
13609W        W72870  44.295   1.872   9.929
13610W        W72871  12.744  24.531  11.987
13611W        W72872  31.443  20.141  12.028
13612W        W72873  30.622  11.237  13.518
13613W        W72874  39.486  26.493   3.644
13614W        W72875   3.730  34.446   2.290
13615W        W72876   2.269  27.103  12.381
13616W        W72877  30.527  38.514  11.492
13617W        W72878  13.722  21.663   3.791
13618W        W72879  16.573  28.986  11.421
13619W        W72880  42.942  13.282  12.525
13620W        W72881  33.019  24.213  14.810
13621W        W72882  10.634  36.035   1.821
13622W        W72883  38.941  24.528   1.710
13623W        W72884  24.168  15.783  11.998
13624W        W72885   1.328  20.736   4.293
13625W        W72886  32.584  42.312   2.867
13626W        W72887   7.729   9.265   2.285
13627W        W72888   6.233   4.711   1.867
13628W        W72889   0.400  40.019  14.373
13629W        W72890  13.622  10.283   2.376
13630W        W72891  31.005   6.691   1.245
13631W        W72892   2.408  34.080  13.988
13632W        W72893  34.933  17.775   1.329
13633W        W72894  33.005  14.630  11.029
13634W        W72895   2.773  44.449  11.375
13635W        W72896  40.462  25.595  13.838
13636W        W72897  36.521  39.036  13.548
13637W        W72898  39.522  22.736  10.151
13638W        W72899  14.653   7.188   4.151
13639W        W72900  40.976  29.662  14.791
13640W        W72901  14.758  43.506   2.208
13641W        W72902  40.017  15.740  12.348
13642W        W72903  43.355  13.341  12.897
13643W        W72904  39.021  10.687  14.805
13644W        W72905  19.696  29.010  13.401
13645W        W72906   9.704   1.935   3.187
13646W        W72907  34.373  22.578   2.838
13647W        W72908  21.264   2.804  11.503
13648W        W72909   7.255  13.730  14.485
13649W        W72910  30.532  11.157  12.033
13650W        W72911  15.810   3.855   3.714
13651W        W72912   4.874  10.331  12.437
13652W        W72913   0.310   0.422  10.957
13653W        W72914  24.991  27.009  13.911
13654W        W72915  37.915  29.050  11.017
13655W        W72916  17.592  22.128   2.307
13656W        W72917  14.824   1.384  13.447
13657W        W72918  37.555   1.284  13.368
13658W        W72919  17.698  18.736   3.836
13659W        W72920   0.788  38.005   4.766
13660W        W72921   5.728  10.267   4.244
13661W        W72922  21.687   3.919  13.792
13662W        W72923  34.426   3.773  11.905
13663W        W72924  42.333  36.881  14.402
13664W        W72925  23.099  38.878  14.790
13665W        W72926  23.731   8.257   0.331
13666W        W72927   7.372  10.842   1.273
13667W        W72928   3.893  11.785   3.802
13668W        W72929  10.205  43.302  14.413
13669W        W72930  30.437  18.279  11.948
13670W        W72931  43.324  25.646   3.700
13671W        W72932  13.186  37.499  12.494
13672W        W72933  32.600   2.372   2.828
13673W        W72934   0.805  21.165   0.333
13674W        W72935  32.030  21.726  13.362
13675W        W72936  21.073   9.207  11.063
13676W        W72937  14.136  42.282   0.839
13677W        W72938  17.692  32.999   1.742
13678W        W72939  30.628   5.341  14.875
13679W        W72940  38.483  22.663   0.909
13680W        W72941  23.228  16.220   2.345
13681W        W72942  41.023  18.717  14.009
13682W        W72943  41.511  14.284  11.567
13683W        W72944  30.585  34.531   3.869
13684W        W72945  35.992   6.887  13.944
13685W        W72946  43.332  23.675  14.829
13686W        W72947   4.283  35.459   0.866
13687W        W72948  11.222  28.598  12.537
13688W        W72949  17.269  14.733  14.904
13689W        W72950   2.768  17.166   1.833
13690W        W72951  27.624  28.664  11.901
13691W        W72952  36.069  23.192   3.248
13692W        W72953   5.400  24.632  14.890
13693W        W72954  20.764  36.371   4.636
13694W        W72955  41.877   4.370   0.949
13695W        W72956   7.726  13.183   4.268
13696W        W72957  25.205  41.850   1.289
13697W        W72958  42.812   6.347   1.305
13698W        W72959  22.635  28.074  13.320
13699W        W72960  24.510  27.117  13.855
13700W        W72961  24.596  31.110   1.867
13701W        W72962  21.136  39.868  13.480
13702W        W72963  26.477   0.912  11.461
13703W        W72964  40.439   9.877  14.008
13704W        W72965   4.426  23.991  13.419
13705W        W72966   4.356  31.600   4.626
13706W        W72967   2.799   4.710  14.012
13707W        W72968  38.071  35.940  13.973
13708W        W72969  41.941  43.384  13.392
13709W        W72970  11.707  12.835   4.225
13710W        W72971  30.538  27.678  14.940
13711W        W72972   9.352  15.783   3.182
13712W        W72973  29.525  26.071   0.358
13713W        W72974  42.421   6.365  11.476
13714W        W72975  10.292  29.039  11.429
13715W        W72976   5.844   9.156  10.931
13716W        W72977  14.750  33.503   1.856
13717W        W72978   5.350   1.390   4.674
13718W        W72979  18.590  34.873   0.270
13719W        W72980  38.862   6.735  14.904
13720W        W72981   1.970  29.970  14.356
13721W        W72982  25.199  27.601   3.671
13722W        W72983  40.937   8.687  13.983
13723W        W72984   0.912  35.962   0.428
13724W        W72985  13.146  18.744  12.502
13725W        W72986  42.393  28.107   3.349
13726W        W72987  29.157  18.555   0.943
13727W        W72988  40.053  38.386   3.260
13728W        W72989   6.817  17.689   2.708
13729W        W72990  19.158  32.928  14.888
13730W        W72991  29.544  36.933   0.474
13731W        W72992  26.045  22.060   2.318
13732W        W72993   8.886   9.732  14.929
13733W        W72994   4.333  20.124  12.394
13734W        W72995  25.969  29.920  14.898
13735W        W72996  15.754  20.059  11.400
13736W        W72997  21.580  21.543   1.413
13737W        W72998  37.443  44.973   0.465
13738W        W72999  29.026  38.860  10.588
13739W        W73000   5.926  19.594  14.428
13740W        W73001  19.052  17.210   1.292
13741W        W73002  40.321  30.556  12.467
13742W        W73003  43.279  26.560   4.687
13743W        W73004   5.230  38.529  13.008
13744W        W73005  31.519  30.061  14.460
13745W        W73006  20.557  27.638   5.278
13746W        W73007   2.939  16.679   3.652
13747W        W73008  41.918  20.229  12.830
13748W        W73009  44.893   3.402   4.718
13749W        W73010  31.505  21.017   0.747
13750W        W73011   3.362  37.556  14.919
13751W        W73012  34.482  39.969   2.746
13752W        W73013  18.193  37.925   1.331
13753W        W73014  26.058  14.699  10.576
13754W        W73015  41.377  37.459   1.316
13755W        W73016  32.924  29.641   0.413
13756W        W73017   1.810  26.579  12.418
13757W        W73018  24.095  23.569   9.504
13758W        W73019   6.756  16.799   0.480
13759W        W73020  34.551  43.396   3.737
13760W        W73021  21.190   9.719  11.405
13761W        W73022  24.604  24.125   2.902
13762W        W73023   4.929  28.590  10.469
13763W        W73024   4.933  36.979  11.398
13764W        W73025  25.489  22.696  13.908
13765W        W73026  19.237  41.895  13.484
13766W        W73027  13.809   5.368   4.749
13767W        W73028  19.720   2.728   1.911
13768W        W73029   2.451   6.922  14.401
13769W        W73030  43.372  21.560   2.285
13770W        W73031  26.203  42.386  12.388
13771W        W73032   6.189  41.407   0.918
13772W        W73033  17.642  44.397  12.488
13773W        W73034  14.698   3.372   3.245
13774W        W73035  12.670  10.831   4.642
13775W        W73036   4.274   8.760  13.824
13776W        W73037  19.191  40.855   1.837
13777W        W73038  44.918  25.217  13.491
13778W        W73039  44.460  11.796   0.843
13779W        W73040  34.481  41.306   3.817
13780W        W73041  11.727  20.561  14.450
13781W        W73042   1.921  21.248   4.774
13782W        W73043  11.217  44.796   4.164
13783W        W73044   3.781   1.783  13.336
13784W        W73045  43.772  33.946   0.941
13785W        W73046  14.250  23.004  14.456
13786W        W73047  27.995   6.755  11.097
13787W        W73048   4.889  22.569   1.733
13788W        W73049   3.391  22.687  10.467
13789W        W73050  38.455  29.088   4.768
13790W        W73051  24.201  38.352  10.960
13791W        W73052  42.515   0.744   4.718
13792W        W73053  24.116  20.720  13.818
13793W        W73054  23.714   1.427  12.830
13794W        W73055  35.107  40.320   2.370
13795W        W73056  36.461   3.447   0.397
13796W        W73057  15.661  39.860   0.851
13797W        W73058  28.595  22.553  11.537
13798W        W73059   4.928   3.416  11.391
13799W        W73060  41.372   0.954  10.956
13800W        W73061   4.434  12.252  13.354
13801W        W73062  37.444  31.616   0.302
13802W        W73063  37.417  24.228   5.217
13803W        W73064  21.096  43.919  13.918
13804W        W73065  30.020  30.984   4.319
13805W        W73066  30.523  10.669   9.996
13806W        W73067  31.985  30.066   1.727
13807W        W73068  13.628  26.111   1.364
13808W        W73069   8.869  17.214   5.305
13809W        W73070  14.288  31.101   4.288
13810W        W73071  28.169  44.814   2.192
13811W        W73072  33.049  37.473  10.900
13812W        W73073  26.620  22.554   4.810
13813W        W73074  24.653  26.500   1.823
13814W        W73075  38.419   3.833  13.343
13815W        W73076  29.526  36.966   4.145
13816W        W73077  16.082  28.577   0.936
13817W        W73078  14.165  12.652   4.198
13818W        W73079  40.855  13.650  11.987
13819W        W73080  21.066  15.258   5.153
13820W        W73081   8.801  35.935   2.381
13821W        W73082  16.795  29.035   5.184
13822W        W73083  42.415  44.787  13.054
13823W        W73084   1.257  19.053   1.913
13824W        W73085  11.664   6.729  11.538
13825W        W73086  22.217  13.785  14.447
13826W        W73087  34.497  15.251  13.440
13827W        W73088  24.638  16.284  13.942
13828W        W73089  12.742  33.927   0.427
13829W        W73090  39.424  29.562   3.319
13830W        W73091   1.459  38.992   4.742
13831W        W73092  23.994  42.407   4.749
13832W        W73093   8.804  28.962  13.903
13833W        W73094  35.595  15.231  14.469
13834W        W73095   7.834  19.124   1.846
13835W        W73096  34.879  32.915  14.028
13836W        W73097  29.969   8.820   4.604
13837W        W73098  39.063  28.476  13.517
13838W        W73099  32.117  26.691   9.980
13839W        W73100  17.658  24.566   2.725
13840W        W73101  12.124  19.681   3.639
13841W        W73102  38.040  12.848  10.930
13842W        W73103   7.881   5.932   4.333
13843W        W73104  31.997  36.882   0.765
13844W        W73105  38.386  39.061   4.814
13845W        W73106  24.169   2.336   1.374
13846W        W73107   3.244  10.805  11.465
13847W        W73108  27.474  30.508  12.851
13848W        W73109   0.950   8.258   2.782
13849W        W73110  16.102  14.661  13.478
13850W        W73111  36.532   0.448  10.992
13851W        W73112  25.533  15.812  14.022
13852W        W73113   9.172  36.905  14.970
13853W        W73114  33.089  11.846  12.043
13854W        W73115  34.949   2.804  12.058
13855W        W73116  18.573  42.832   2.412
13856W        W73117  18.070  18.276   0.355
13857W        W73118  20.613  22.506   1.266
13858W        W73119  34.016  16.674  12.415
13859W        W73120  42.823   4.345  11.946
13860W        W73121  30.614  16.730   0.865
13861W        W73122  24.530  42.974   3.199
13862W        W73123  43.441   1.480  14.467
13863W        W73124   5.412   3.954  10.951
13864W        W73125  14.149  44.775   0.414
13865W        W73126  10.867  17.301  12.384
13866W        W73127  24.178  25.995   3.860
13867W        W73128  17.243  26.050   4.260
13868W        W73129  13.820  29.133  13.452
13869W        W73130  33.526  17.252   0.772
13870W        W73131  41.383  18.163  14.837
13871W        W73132  27.535  39.457   0.369
13872W        W73133  38.024  24.009  11.015
13873W        W73134  21.718  11.850   4.236
13874W        W73135  18.288  10.217  10.512
13875W        W73136   4.784  36.893   3.671
13876W        W73137  20.141   8.374   1.761
13877W        W73138  11.360   7.184   1.248
13878W        W73139   2.789  23.541   0.437
13879W        W73140  20.659  13.627   4.680
13880W        W73141  23.553  26.984  11.050
13881W        W73142  10.313   2.880  12.525
13882W        W73143  32.527  21.232  10.494
13883W        W73144  11.667  37.070  13.880
13884W        W73145  30.033  20.129   4.719
13885W        W73146  14.244  20.541   3.251
13886W        W73147  37.886   6.828   1.415
13887W        W73148  30.576  19.542   0.393
13888W        W73149   7.221   4.817   4.260
13889W        W73150  12.779  18.562   0.398
13890W        W73151   7.912   6.224  10.124
13891W        W73152  21.257  30.136  11.931
13892W        W73153   7.255  16.253  13.363
13893W        W73154  31.940  42.368  12.981
13894W        W73155  11.628  39.939  10.022
13895W        W73156  13.666  36.421  12.876
13896W        W73157  18.747  14.262   2.297
13897W        W73158  27.970   3.227   2.307
13898W        W73159  18.595  42.284   3.853
13899W        W73160  18.200  11.725   2.303
13900W        W73161  42.918  27.684  12.484
13901W        W73162  26.662  36.078   2.229
13902W        W73163  11.840  44.410  13.995
13903W        W73164  43.401  30.043   2.189
13904W        W73165  35.934  22.025  12.426
13905W        W73166  18.077  30.629  11.105
13906W        W73167   8.879  28.557  14.775
13907W        W73168  41.301  29.141   0.766
13908W        W73169  36.094   5.803   0.852
13909W        W73170  28.945  17.112   2.877
13910W        W73171  14.306  16.265   3.864
13911W        W73172  42.849   6.764   1.300
13912W        W73173  39.844   7.856  14.294
13913W        W73174  19.617  17.271  12.545
13914W        W73175  23.020  14.173  11.562
13915W        W73176  13.174  35.900   3.650
13916W        W73177  18.267  15.093   2.397
13917W        W73178  29.511  27.164   0.308
13918W        W73179  23.523   1.403   1.703
13919W        W73180  35.570  28.957  14.505
13920W        W73181  19.100  13.638   3.676
13921W        W73182  22.643  40.956   3.293
13922W        W73183  29.935  38.549  11.011
13923W        W73184  18.171  41.927  12.487
13924W        W73185   9.328  33.494  11.122
13925W        W73186  35.052  12.746   3.178
13926W        W73187  19.239  44.995  13.831
13927W        W73188  30.150   3.304  10.406
13928W        W73189  36.576  14.769   3.216
13929W        W73190  44.317   6.764  12.386
13930W        W73191  27.541  36.448  14.321
13931W        W73192   1.820  34.476   2.373
13932W        W73193  22.620  23.062   3.340
13933W        W73194   4.448  33.380   3.304
13934W        W73195  21.729  14.323  12.432
13935W        W73196  34.871   8.382   0.847
13936W        W73197   2.428  24.698   2.795
13937W        W73198   3.273  44.477   0.243
13938W        W73199  30.058  10.829  13.912
13939W        W73200  30.533  23.058   2.736
13940W        W73201  40.403   4.370  12.934
13941W        W73202   8.287  43.013  10.615
13942W        W73203  36.905  34.602  12.885
13943W        W73204  13.650   0.862   0.362
13944W        W73205  11.814  15.608  11.388
13945W        W73206  11.181  32.891  11.003
13946W        W73207  20.595  32.582   3.360
13947W        W73208  13.122   1.435   2.720
13948W        W73209  16.099   9.214  12.342
13949W        W73210  31.514  42.979  10.963
13950W        W73211   2.756  24.229   0.357
13951W        W73212  36.942   1.836   0.939
13952W        W73213  10.215  32.588   4.701
13953W        W73214  30.003  39.815   3.865
13954W        W73215   4.358  27.110  10.409
13955W        W73216  24.640  10.227  14.950
13956W        W73217  20.547  19.662   0.935
13957W        W73218   1.939  44.505  12.381
13958W        W73219  18.635  27.140  12.955
13959W        W73220  22.221   4.775   3.841
13960W        W73221   7.250  36.008  12.407
13961W        W73222  26.546  37.060   1.783
13962W        W73223  21.634  44.883   1.440
13963W        W73224  41.866  43.825   1.231
13964W        W73225   6.242  30.076   2.199
13965W        W73226  36.428  15.591  10.581
13966W        W73227  14.278  42.966   5.212
13967W        W73228  20.730  44.801  12.556
13968W        W73229  32.588  26.146   4.247
13969W        W73230   5.427  30.523   2.298
13970W        W73231  30.991  39.325  11.865
13971W        W73232  26.024  28.556   0.373
13972W        W73233  25.189   1.292  13.322
13973W        W73234  27.981  29.172   2.399
13974W        W73235  27.577  19.098  11.871
13975W        W73236  22.132  29.077  12.536
13976W        W73237   6.782   9.329  12.989
13977W        W73238  22.237  27.608   3.847
13978W        W73239  36.583  38.955   4.720
13979W        W73240   4.931  28.453  12.352
13980W        W73241  25.988  42.513   2.280
13981W        W73242  15.085  29.666  14.473
13982W        W73243   0.809  33.050   3.786
13983W        W73244   0.973  23.041   4.346
13984W        W73245  23.239  30.144  13.791
13985W        W73246  29.115  41.906   4.133
13986W        W73247  43.348  24.586  13.943
13987W        W73248  39.897   1.438   0.916
13988W        W73249  11.860   6.909  13.831
13989W        W73250  26.592   2.898  11.120
13990W        W73251  26.554  22.178   2.290
13991W        W73252  21.064  37.867   0.466
13992W        W73253  30.633   7.302  12.939
13993W        W73254  30.086  12.326  12.088
13994W        W73255  19.741  23.138   4.712
13995W        W73256  39.436  14.340   4.619
13996W        W73257  27.640  30.447   4.713
13997W        W73258   0.361  22.690  14.477
13998W        W73259  22.119  19.553  14.326
13999W        W73260  32.552  12.183  12.343
14000W        W73261  44.368  15.721  12.378
14001W        W73262   7.775   8.331   2.880
14002W        W73263  28.171  41.987   0.914
14003W        W73264  27.470  25.195  13.826
14004W        W73265  19.760  41.819   3.723
14005W        W73266  20.057   3.933   4.190
14006W        W73267  28.440  15.123  13.798
14007W        W73268  24.167   0.294   3.318
14008W        W73269  42.500  31.031  11.539
14009W        W73270   4.215  38.443   3.747
14010W        W73271  37.043  14.162   5.300
14011W        W73272  15.640  39.507   3.192
14012W        W73273  15.182  38.849  13.011
14013W        W73274  30.107   9.306   1.283
14014W        W73275  17.245  23.046   0.358
14015W        W73276   2.767  26.025  13.929
14016W        W73277  38.337  36.506   2.236
14017W        W73278  35.588  23.692   1.219
14018W        W73279  37.014  15.258  14.022
14019W        W73280  13.775  26.616  11.986
14020W        W73281  37.009  28.060   4.626
14021W        W73282  36.535  24.152   3.776
14022W        W73283  29.052  18.774  13.024
14023W        W73284  37.527  43.927   0.478
14024W        W73285  18.174  14.265   1.862
14025W        W73286   4.403  35.923   3.149
14026W        W73287  37.371  11.207  12.376
14027W        W73288  34.882   6.248   1.414
14028W        W73289  22.587   3.308  11.935
14029W        W73290  30.644  37.427  12.038
14030W        W73291  13.832  32.970  14.422
14031W        W73292  41.436   8.304  12.388
14032W        W73293  31.153  15.603  12.862
14033W        W73294  32.424   9.687  11.923
14034W        W73295  32.554   6.398  13.371
14035W        W73296  10.825  32.455   1.219
14036W        W73297  10.699  20.192   0.830
14037W        W73298  26.667  31.145   0.472
14038W        W73299  25.159  23.181  13.525
14039W        W73300  37.970  14.207  13.478
14040W        W73301  17.210  42.881  12.017
14041W        W73302  15.222  13.626  13.355
14042W        W73303  24.014  29.112   0.407
14043W        W73304  24.521  41.858  10.975
14044W        W73305  12.844  32.449   1.368
14045W        W73306   1.773  37.363   4.701
14046W        W73307   3.302  23.638  12.971
14047W        W73308  22.730  12.669   4.660
14048W        W73309  44.852  29.117  12.424
14049W        W73310  29.166   8.331   1.775
14050W        W73311  30.123  25.697   1.386
14051W        W73312  21.037  24.714   0.373
14052W        W73313  25.523  20.563   4.680
14053W        W73314  42.894  11.786   1.381
14054W        W73315  23.547  13.613  14.473
14055W        W73316  24.133  35.996  11.128
14056W        W73317   9.270  26.693   3.333
14057W        W73318  12.664  14.620   0.810
14058W        W73319  24.989  11.292  14.388
14059W        W73320  22.186  42.847  12.456
14060W        W73321  30.125  10.646   2.847
14061W        W73322  28.456  27.087  12.018
14062W        W73323  13.224   0.258   3.698
14063W        W73324   1.385   0.982   3.277
14064W        W73325  27.088   1.346  12.449
14065W        W73326  20.078  41.834   0.329
14066W        W73327  24.029  41.986   2.757
14067W        W73328  13.249  16.754  10.971
14068W        W73329  28.061  26.192  11.855
14069W        W73330  41.951  40.420  11.456
14070W        W73331  37.875  12.307   2.283
14071W        W73332  10.800  24.712  14.508
14072W        W73333  25.973  42.414  13.032
14073W        W73334  19.649  23.098  10.916
14074W        W73335  37.863  42.406  14.829
14075W        W73336  15.738   0.888  13.374
14076W        W73337  44.773  39.051  12.536
14077W        W73338  28.654  15.617   3.860
14078W        W73339   9.809  33.404  10.969
14079W        W73340   6.917  14.656  10.940
14080W        W73341  22.208  39.485   0.329
14081W        W73342  20.569  17.096  14.893
14082W        W73343  24.139  35.504   1.803
14083W        W73344  17.789  36.563  11.443
14084W        W73345   1.845  34.552  12.458
14085W        W73346  30.419  14.819   4.136
14086W        W73347   2.948  16.234  13.447
14087W        W73348  26.027  39.064  10.482
14088W        W73349  10.166   1.817   3.331
14089W        W73350  38.827  26.022   4.829
14090W        W73351  13.746   5.896  14.009
14091W        W73352  10.363   6.811  10.915
14092W        W73353  43.929  38.829  12.081
14093W        W73354  17.727  44.997  13.793
14094W        W73355   5.852   6.718  12.015
14095W        W73356   9.160  24.511  12.063
14096W        W73357  13.634  24.597   2.185
14097W        W73358   1.297  27.088   4.288
14098W        W73359  24.636  40.808  11.528
14099W        W73360  20.081  37.421   0.809
14100W        W73361   9.750  29.147   2.845
14101W        W73362  31.953  12.353  11.983
14102W        W73363   5.217  23.172   3.649
14103W        W73364  36.967  29.487   0.797
14104W        W73365  19.155  28.951   2.329
14105W        W73366  37.519   5.705   1.926
14106W        W73367   6.752  38.356  14.881
14107W        W73368  39.442  23.550  14.282
14108W        W73369  21.552  30.043   3.674
14109W        W73370  20.059  11.669  13.994
14110W        W73371  11.202  20.696   1.249
14111W        W73372  18.715  19.633  14.975
14112W        W73373  39.848   9.221   1.279
14113W        W73374  35.491  12.191   2.799
14114W        W73375  10.138  22.215   4.655
14115W        W73376  38.951  14.229   1.851
14116W        W73377  11.348  20.553   2.381
14117W        W73378  32.052  36.558  14.444
14118W        W73379  40.398   3.837  11.531
14119W        W73380  20.666   5.268   2.272
14120W        W73381  35.977  39.488  13.811
14121W        W73382  36.019  38.332   1.349
14122W        W73383  38.426  12.817   0.926
14123W        W73384  23.614  42.937  14.881
14124W        W73385  34.089  18.120  13.394
14125W        W73386  36.045  14.637  11.912
14126W        W73387  32.055  15.261  10.497
14127W        W73388  35.596  40.843  12.393
14128W        W73389  25.144  35.940   4.750
14129W        W73390  33.539  36.350   4.770
14130W        W73391  36.951  17.204   1.826
14131W        W73392  30.457  14.194   3.853
14132W        W73393  12.159  18.694  13.417
14133W        W73394  18.686  27.176   3.857
14134W        W73395  37.971  14.264   2.247
14135W        W73396  19.085  27.965  11.592
14136W        W73397  24.072  18.142   2.870
14137W        W73398   4.749  37.507   2.249
14138W        W73399  10.366   7.299  13.984
14139W        W73400  11.187   8.782   3.781
14140W        W73401  20.529  43.850   2.410
14141W        W73402   9.259  39.388   1.772
14142W        W73403   1.939  11.836  12.534
14143W        W73404  22.740  16.684   4.667
14144W        W73405  33.028  10.690  13.357
14145W        W73406  12.346  30.486   3.199
14146W        W73407  37.047  41.320   1.828
14147W        W73408   7.785  10.642   3.812
14148W        W73409  42.877  32.526   3.687
14149W        W73410   7.880   9.194  10.417
14150W        W73411  31.904   7.769   2.865
14151W        W73412  19.680  43.881  12.008
14152W        W73413  36.085  37.371   3.160
14153W        W73414  42.361  43.890   1.769
14154W        W73415  38.062  43.908   2.288
14155W        W73416  34.550  22.123   1.428
14156W        W73417  28.545  29.565  14.302
14157W        W73418  42.968   2.905   0.331
14158W        W73419  22.163  23.523   3.211
14159W        W73420  43.002  28.643   1.229
14160W        W73421  34.983   0.750  10.515
14161W        W73422   3.845  36.394  14.012
14162W        W73423  35.565  20.568  12.039
14163W        W73424  26.662  17.665   0.435
14164W        W73425   5.918  34.418  13.791
14165W        W73426  10.869  16.625  11.515
14166W        W73427  35.927  13.161   2.345
14167W        W73428  20.753   5.432  13.978
14168W        W73429  44.437  11.694   3.664
14169W        W73430  24.978   2.396  10.571
14170W        W73431   8.172   4.410  11.552
14171W        W73432  22.033  34.615   3.828
14172W        W73433  24.630  44.785   1.738
14173W        W73434  21.166  42.387   3.267
14174W        W73435   5.697  15.688   0.435
14175W        W73436  41.376  17.276  12.869
14176W        W73437   9.257  36.080   0.891
14177W        W73438  30.114  10.346  13.011
14178W        W73439  34.486   2.941   4.120
14179W        W73440  44.949  18.230  11.460
14180W        W73441  43.415   7.786   3.230
14181W        W73442  10.338  33.030   3.854
14182W        W73443  44.290  14.286  13.982
14183W        W73444  44.769  23.002  14.446
14184W        W73445  12.229  38.539  10.448
14185W        W73446  12.126  27.117  13.506
14186W        W73447  38.983  36.856  13.912
14187W        W73448  32.895  29.948   3.784
14188W        W73449  11.135  24.984   4.722
14189W        W73450  42.504  24.557  13.489
14190W        W73451  19.722  44.819   4.688
14191W        W73452  17.558  36.527   0.403
14192W        W73453   1.774   1.301   1.789
14193W        W73454   1.810  34.954  10.508
14194W        W73455  16.635   9.789   2.203
14195W        W73456  29.499  36.086  10.455
14196W        W73457  27.182  35.531  13.810
14197W        W73458  42.356  40.485   3.680
14198W        W73459  20.046  13.730  14.798
14199W        W73460  35.489  30.656   3.192
14200W        W73461   5.876  21.130  12.945
14201W        W73462  25.029   6.409   0.257
14202W        W73463   6.870   4.923  13.322
14203W        W73464  40.344  12.323   4.626
14204W        W73465  27.663   6.697  13.013
14205W        W73466  18.658  15.237  11.462
14206W        W73467  38.361  41.905   3.650
14207W        W73468  27.064   4.704   4.813
14208W        W73469  23.096  36.460  11.557
14209W        W73470  21.573  33.474  13.024
14210W        W73471  27.465  14.659  12.565
14211W        W73472  44.955  37.018  10.465
14212W        W73473  41.034   0.857  14.947
14213W        W73474  26.495  41.950  12.947
14214W        W73475  32.934  14.658  14.868
14215W        W73476   4.436  13.233   3.308
14216W        W73477  42.832  23.690   1.748
14217W        W73478   9.316  24.121   2.334
14218W        W73479  31.068  29.054  10.607
14219W        W73480  27.981  42.803   2.296
14220W        W73481   4.271   7.788  11.923
14221W        W73482   3.342  37.579  12.933
14222W        W73483   6.414  10.291   2.689
14223W        W73484   3.358   9.746  11.539
14224W        W73485  22.119  27.124   3.823
14225W        W73486   8.800   3.325   2.854
14226W        W73487  37.500  33.123  14.340
14227W        W73488  26.591  31.485   4.203
14228W        W73489  26.666  23.002   0.454
14229W        W73490  11.371   1.281   3.775
14230W        W73491  22.032  34.047  10.431
14231W        W73492  12.171  16.078   0.467
14232W        W73493  20.214  16.149  11.484
14233W        W73494   0.248  16.597  13.474
14234W        W73495   5.819   0.341   0.929
14235W        W73496   9.379   0.410   4.673
14236W        W73497  44.994  22.247   4.250
14237W        W73498   4.427  13.787   2.308
14238W        W73499  18.074  24.571  11.498
14239W        W73500   9.289  13.691  13.064
14240W        W73501   6.422  12.173  11.458
14241W        W73502  11.172  21.026   0.311
14242W        W73503   8.298  34.038   0.863
14243W        W73504  19.216  20.688  12.022
14244W        W73505  14.335   2.736  12.339
14245W        W73506  42.811  33.114  14.013
14246W        W73507  41.951  21.691  13.517
14247W        W73508  21.188  18.703   4.157
14248W        W73509   1.392  31.469   2.245
14249W        W73510  21.168  35.495  14.939
14250W        W73511  27.449  20.562  14.865
14251W        W73512  39.354  38.338  13.533
14252W        W73513   9.175  15.626  14.813
14253W        W73514  37.943  22.223   3.350
14254W        W73515   7.776  36.033   5.223
14255W        W73516  37.963  21.231   1.369
14256W        W73517  37.022  24.488   0.892
14257W        W73518  29.482   4.772  14.922
14258W        W73519   1.324  11.741   4.630
14259W        W73520  40.450  41.407  11.940
14260W        W73521  17.141  40.355  13.867
14261W        W73522  18.199  34.567   0.258
14262W        W73523  24.140  16.107  10.645
14263W        W73524  17.675  12.256   4.301
14264W        W73525   8.787  14.262   4.217
14265W        W73526  33.453  31.552   1.254
14266W        W73527  42.425   4.790   2.238
14267W        W73528   4.445  35.363   2.884
14268W        W73529  21.047  10.663  10.129
14269W        W73530   3.844  21.684   2.190
14270W        W73531  13.791  27.595   4.117
14271W        W73532  22.174   2.763  12.048
14272W        W73533   3.844  11.772  14.421
14273W        W73534  14.674  42.280  12.456
14274W        W73535  25.548  44.404  10.156
14275W        W73536  43.382  18.759  11.385
14276W        W73537  43.017  21.634  12.855
14277W        W73538   6.322  32.482   2.709
14278W        W73539  43.513  15.158  12.921
14279W        W73540  16.276   7.794  13.918
14280W        W73541  17.625  11.696   4.627
14281W        W73542  16.221  35.882  13.386
14282W        W73543  44.306  29.050   1.444
14283W        W73544   4.311  21.183  12.063
14284W        W73545  34.394  22.730   3.201
14285W        W73546  36.952  16.231   1.772
14286W        W73547   6.719  12.814  13.879
14287W        W73548  25.663   2.726   4.314
14288W        W73549  33.030  22.592   2.398
14289W        W73550  22.517  19.615  11.962
14290W        W73551  38.403  35.978   3.829
14291W        W73552  11.750  30.624  11.988
14292W        W73553  32.460  22.168   3.730
14293W        W73554   0.355  28.143  13.046
14294W        W73555   3.915  14.240  10.519
14295W        W73556   2.245  25.166   5.275
14296W        W73557  19.106  40.013  12.569
14297W        W73558   9.744  42.943   0.272
14298W        W73559  31.451  37.011  12.030
14299W        W73560  30.438  25.215   3.292
14300W        W73561  21.239  23.710  14.452
14301W        W73562  26.123  14.649   2.852
14302W        W73563  28.174   2.920   3.687
14303W        W73564  37.914  24.109   4.309
14304W        W73565  16.639  16.747  14.931
14305W        W73566   9.811  34.432   1.873
14306W        W73567  19.242  40.839  13.356
14307W        W73568  36.511   5.282  11.978
14308W        W73569  37.556  43.303  12.526
14309W        W73570  14.288  41.439   0.882
14310W        W73571   4.349  28.553   0.313
14311W        W73572  24.624  28.444  11.374
14312W        W73573  19.752  38.327   0.456
14313W        W73574  21.196  20.651   1.372
14314W        W73575  28.017  13.235  10.910
14315W        W73576   2.949  17.067   4.667
14316W        W73577  27.556  38.948  14.349
14317W        W73578  30.612  24.492  14.810
14318W        W73579  34.465  42.927   3.314
14319W        W73580  23.632   5.258  12.917
14320W        W73581  22.085  28.055   0.253
14321W        W73582   3.433  29.175   1.329
14322W        W73583  22.728  38.066   9.926
14323W        W73584  44.343  23.228  12.880
14324W        W73585  27.645  37.505   0.471
14325W        W73586  33.462   3.336  14.992
14326W        W73587  10.829  10.846  11.610
14327W        W73588  30.159  25.575  10.986
14328W        W73589   0.747  25.669  12.562
14329W        W73590  26.173  41.936  13.488
14330W        W73591  37.503  29.108  11.501
14331W        W73592  40.004  37.441   3.319
14332W        W73593  10.317  15.656   0.269
14333W        W73594   1.449   3.297   4.182
14334W        W73595   3.784  37.045  11.885
14335W        W73596  33.012   1.338  10.408
14336W        W73597   0.397  17.767  10.591
14337W        W73598  42.360  13.273   3.707
14338W        W73599  30.907  30.931  12.874
14339W        W73600   1.949  22.043  13.431
14340W        W73601  26.457  22.538  12.998
14341W        W73602  35.394  41.446   1.266
14342W        W73603  36.058   4.907   4.261
14343W        W73604   8.839  41.381   3.264
14344W        W73605  43.368   5.414   2.724
14345W        W73606  27.647   1.861  14.795
14346W        W73607  36.873   6.339  13.824
14347W        W73608   8.197  18.699   2.760
14348W        W73609  28.139  40.492   1.702
14349W        W73610  15.135  42.006   0.902
14350W        W73611  13.723  12.788  12.873
14351W        W73612  42.885  19.533   3.763
14352W        W73613  27.679  19.623  13.036
14353W        W73614  28.133  38.905   3.224
14354W        W73615  19.605   0.264  12.387
14355W        W73616  36.510  41.319  14.787
14356W        W73617  35.983  27.524  13.517
14357W        W73618  44.790  35.951  12.563
14358W        W73619   6.842   1.249  12.999
14359W        W73620  17.264  22.718  11.579
14360W        W73621  43.301  28.186  12.006
14361W        W73622  25.107  31.451  10.906
14362W        W73623  30.502   8.851  13.059
14363W        W73624  40.377  13.725  10.418
14364W        W73625  24.569  39.429   3.285
14365W        W73626  44.782  25.630   1.793
14366W        W73627  19.701  35.373   0.795
14367W        W73628  18.174  23.657   9.925
14368W        W73629   6.274  44.496   5.276
14369W        W73630  14.740   1.296  12.356
14370W        W73631  32.598  16.227  10.895
14371W        W73632  38.533  18.599   0.297
14372W        W73633  38.359   3.723   2.764
14373W        W73634  10.764  27.446   1.918
14374W        W73635  30.925  29.049   3.352
14375W        W73636  41.511   5.342   3.365
14376W        W73637  37.383  22.007   3.767
14377W        W73638  27.124   0.364  12.041
14378W        W73639  39.329  29.498  10.622
14379W        W73640  14.148   1.415  11.885
14380W        W73641   5.256  30.534   0.924
14381W        W73642  35.590  34.372  14.278
14382W        W73643   8.162  21.530  11.508
14383W        W73644  35.990  27.017  10.572
14384W        W73645  34.506  19.080   1.272
14385W        W73646  36.844  43.896  12.966
14386W        W73647  21.629  31.147   1.302
14387W        W73648  44.902   1.434  13.386
14388W        W73649  18.119  40.904  10.534
14389W        W73650  15.168   9.337  14.781
14390W        W73651  23.619  12.182  12.341
14391W        W73652  31.044  15.579  13.530
14392W        W73653   6.286  14.749   3.677
14393W        W73654  43.784  42.398   2.760
14394W        W73655  25.561  31.931   3.157
14395W        W73656  18.259  16.613   2.730
14396W        W73657  16.174  38.454   3.804
14397W        W73658  15.769  16.713  10.568
14398W        W73659  43.987  33.563  11.044
14399W        W73660  17.185  21.166   1.772
14400W        W73661  17.297  33.486   5.097
14401W        W73662  34.992  38.406   1.777
14402W        W73663  41.847  37.992  10.993
14403W        W73664  19.563  22.045   0.913
14404W        W73665  21.231   7.407   3.826
14405W        W73666  19.177  33.574  11.463
14406W        W73667  13.613  43.363  12.478
14407W        W73668  42.923  36.351   3.675
14408W        W73669  41.360  39.398  11.542
14409W        W73670  44.979  37.029   4.723
14410W        W73671   4.820  12.122   4.285
14411W        W73672  31.494   6.390   0.400
14412W        W73673   2.963  13.834  14.505
14413W        W73674   5.329  44.968  11.418
14414W        W73675  16.611  11.333   2.733
14415W        W73676  13.201  42.501  12.386
14416W        W73677  20.610   2.934  12.351
14417W        W73678  39.366  28.174   4.616
14418W        W73679  25.630   1.332  10.571
14419W        W73680  35.030   8.775   5.134
14420W        W73681  39.823  15.280   1.800
14421W        W73682  18.675   2.389   3.185
14422W        W73683  37.455  35.457  11.959
14423W        W73684  27.095  19.563   0.475
14424W        W73685  14.695  10.858   3.155
14425W        W73686  35.566  19.578  13.319
14426W        W73687  10.705   4.325   0.879
14427W        W73688  31.496   1.445   1.882
14428W        W73689  28.677   2.345   1.695
14429W        W73690  21.097  29.061  11.535
14430W        W73691  16.751  32.441   1.787
14431W        W73692   2.441   7.910  14.386
14432W        W73693  23.640   3.723   4.142
14433W        W73694  43.507  20.655   3.256
14434W        W73695  11.205  26.597   0.862
14435W        W73696  14.237  24.043  13.022
14436W        W73697  22.558  37.044   0.762
14437W        W73698  21.671  13.274   2.747
14438W        W73699  16.088  23.563   2.283
14439W        W73700  22.614  19.594  10.558
14440W        W73701  22.690  39.946  11.895
14441W        W73702  19.662  35.872   2.847
14442W        W73703  35.392  12.260  11.583
14443W        W73704   2.759  38.847  14.357
14444W        W73705   1.298  19.750  11.980
14445W        W73706  42.509  14.329  12.499
14446W        W73707  37.446  26.118   4.748
14447W        W73708  20.157  34.410   3.170
14448W        W73709  24.000  33.445  10.437
14449W        W73710  32.406  11.139  12.056
14450W        W73711  15.166  12.711  10.585
14451W        W73712  13.109   7.319  12.516
14452W        W73713  17.242   5.274   3.635
14453W        W73714  13.267  27.474  13.019
14454W        W73715  33.575  18.257  13.854
14455W        W73716  18.761  40.452  13.380
14456W        W73717  38.439  37.039  13.916
14457W        W73718  40.963  42.836   2.356
14458W        W73719  35.387  38.916   3.197
14459W        W73720  26.085  21.699   4.173
14460W        W73721  19.564  40.492   4.118
14461W        W73722   7.796   9.827   3.794
14462W        W73723  38.486  27.028  12.393
14463W        W73724  13.743  15.248  14.510
14464W        W73725  21.254  31.997   5.180
14465W        W73726   0.344  18.258   3.225
14466W        W73727   9.784   1.919  13.390
14467W        W73728  26.006   1.434  14.513
14468W        W73729  34.453  10.822   4.197
14469W        W73730  32.574  27.463  14.990
14470W        W73731  14.658  37.563  13.891
14471W        W73732  37.453  22.592   5.308
14472W        W73733   2.427  34.041   3.176
14473W        W73734  12.290  35.507  12.858
14474W        W73735  17.181   4.437  13.971
14475W        W73736  29.935  33.623   4.617
14476W        W73737   9.260   6.363  10.889
14477W        W73738  19.550   4.269   3.261
14478W        W73739  12.745  17.131   0.769
14479W        W73740  10.307   0.939  13.898
14480W        W73741   1.851  42.023  13.522
14481W        W73742  31.058  36.885  10.001
14482W        W73743  39.322   0.283  14.801
14483W        W73744  26.532  35.415  13.921
14484W        W73745  39.361  40.381   2.901
14485W        W73746  12.291  26.002   1.869
14486W        W73747  25.627   6.886  14.355
14487W        W73748   7.777   9.734   5.229
14488W        W73749  13.762  18.059   1.314
14489W        W73750   2.359  31.090   3.639
14490W        W73751   2.373  33.618   3.667
14491W        W73752   9.752   3.302  11.509
14492W        W73753   4.291   2.335  11.120
14493W        W73754  20.244  43.418  13.500
14494W        W73755  14.815  41.484  11.117
14495W        W73756  22.737  17.203   3.317
14496W        W73757   6.810   0.343  14.453
14497W        W73758   9.182  19.045  10.404
14498W        W73759  41.300  35.988   1.291
14499W        W73760  17.223  11.223   0.838
14500W        W73761  39.426  22.175  13.033
14501W        W73762  24.167   3.221  11.526
14502W        W73763   7.691  12.202   0.843
14503W        W73764   4.352   2.923   4.828
14504W        W73765   1.943  18.148   3.641
14505W        W73766  14.321  43.504  14.026
14506W        W73767   4.772   8.343   2.815
14507W        W73768  12.320  11.662   1.867
14508W        W73769   1.240  12.744   3.181
14509W        W73770  26.171  26.196   1.762
14510W        W73771   6.260   8.888   0.280
14511W        W73772  36.965  42.407   2.206
14512W        W73773  33.591  43.942   3.654
14513W        W73774  23.218  43.979   2.860
14514W        W73775  39.974   0.927   3.247
14515W        W73776  12.238   7.414   4.245
14516W        W73777  24.144   0.939  10.561
14517W        W73778  33.381  28.996  12.387
14518W        W73779  33.071  21.109   5.141
14519W        W73780  38.008  33.039  14.407
14520W        W73781  14.111  16.237  12.405
14521W        W73782  14.612  24.113   4.190
14522W        W73783  17.754  25.487   4.832
14523W        W73784  12.144   1.363   2.817
14524W        W73785  21.147   7.182   0.846
14525W        W73786  43.317   6.330  13.047
14526W        W73787  42.360  20.236   1.928
14527W        W73788  43.940   0.432  13.395
14528W        W73789  43.310  43.269  14.406
14529W        W73790  23.035  40.523   1.361
14530W        W73791  44.330   2.271   3.372
14531W        W73792  14.156  27.448   3.150
14532W        W73793  34.589  28.967  10.924
14533W        W73794  30.607  27.660   9.978
14534W        W73795   0.961  42.447   0.921
14535W        W73796  11.676  36.536   1.367
14536W        W73797  20.722  11.757   0.256
14537W        W73798  44.451  23.062   1.721
14538W        W73799  18.274  33.529  13.981
14539W        W73800  27.526  25.162  14.512
14540W        W73801  23.206  20.558   2.835
14541W        W73802  41.385  40.442  12.011
14542W        W73803  38.012  34.880  14.996
14543W        W73804  16.639  41.983  10.972
14544W        W73805  28.642  23.669  14.342
14545W        W73806  32.926   5.232   4.197
14546W        W73807  26.031  31.485   3.254
14547W        W73808  14.741  15.282   0.352
14548W        W73809  29.622  42.937  10.943
14549W        W73810   1.358  32.432  11.941
14550W        W73811  21.688  24.719  14.969
14551W        W73812  27.507  18.658   3.865
14552W        W73813   0.410   9.263  11.999
14553W        W73814  42.938   4.424  14.469
14554W        W73815   7.836  28.496  12.493
14555W        W73816   6.214   3.373  13.522
14556W        W73817   2.358   0.348  14.378
14557W        W73818  12.254  15.127   1.736
14558W        W73819   3.461   4.844   2.764
14559W        W73820  44.903  30.510  14.384
14560W        W73821  36.355   6.914  13.823
14561W        W73822   4.422  41.434  13.481
14562W        W73823  29.480  12.625  10.573
14563W        W73824  19.129  36.990   2.284
14564W        W73825  22.214  23.127  13.967
14565W        W73826   3.753  41.459  10.957
14566W        W73827  14.802  33.494   9.962
14567W        W73828  39.548   1.856  14.903
14568W        W73829   0.901  35.535   4.779
14569W        W73830   6.691  12.149   4.228
14570W        W73831   3.416  23.677   2.768
14571W        W73832   0.467  18.091   4.807
14572W        W73833  21.643  12.143   3.229
14573W        W73834   6.917   7.272  14.320
14574W        W73835   9.662  11.179   2.337
14575W        W73836  42.313  37.513   1.792
14576W        W73837   6.838  38.048   4.706
14577W        W73838  44.910   3.772   0.302
14578W        W73839   9.344  11.840  11.890
14579W        W73840  15.785  19.257   0.770
14580W        W73841  18.257  34.885   1.275
14581W        W73842  35.392  23.536  14.437
14582W        W73843  27.690  24.597  14.862
14583W        W73844   3.226  23.615  11.507
14584W        W73845  34.952  30.146   2.320
14585W        W73846  18.087  41.828   4.740
14586W        W73847  40.542  23.026  14.805
14587W        W73848  29.481   0.745  12.924
14588W        W73849   0.944  25.172   4.627
14589W        W73850  38.070  20.272  13.467
14590W        W73851   1.267   8.357  14.807
14591W        W73852  37.475  33.588   2.233
14592W        W73853  39.357  11.796   3.333
14593W        W73854  43.825   3.822  12.918
14594W        W73855  17.605   6.780  10.430
14595W        W73856  40.825  14.186  13.315
14596W        W73857  22.533   7.827   1.801
14597W        W73858   4.929  16.672  11.983
14598W        W73859  44.777  19.658   4.328
14599W        W73860  36.565   2.340   3.187
14600W        W73861   7.298  32.528   4.173
14601W        W73862   7.282  20.614   0.317
14602W        W73863   3.315   7.818   5.261
14603W        W73864  44.473   9.325   2.310
14604W        W73865  15.792   0.293   0.915
14605W        W73866  28.456  39.464  13.466
14606W        W73867   7.735  43.468   4.754
14607W        W73868  15.164  32.962  11.994
14608W        W73869   9.648  14.816  13.498
14609W        W73870  21.709  34.534  12.340
14610W        W73871  40.897  16.697   3.740
14611W        W73872   8.307  42.284  12.853
14612W        W73873   1.826  33.491   4.687
14613W        W73874  30.970  34.077  11.910
14614W        W73875  39.467  15.804  10.479
14615W        W73876   7.854  43.886  12.433
14616W        W73877  23.559  13.632   2.287
14617W        W73878  31.051  14.179  12.862
14618W        W73879   6.834  31.506  12.018
14619W        W73880  24.138  35.447  12.063
14620W        W73881  40.943  35.011   3.671
14621W        W73882  41.358  19.600   4.681
14622W        W73883  10.794  43.356  12.952
14623W        W73884  14.739  14.226  13.891
14624W        W73885  23.601   7.679   0.447
14625W        W73886   8.730   1.951   0.874
14626W        W73887  19.175  30.010   4.769
14627W        W73888  33.893  44.404  10.527
14628W        W73889  15.660   8.381  12.995
14629W        W73890   4.797  40.940   1.304
14630W        W73891  24.703   3.879  11.885
14631W        W73892  44.775  23.734  11.086
14632W        W73893  36.060  43.911   0.835
14633W        W73894  21.615  28.166  10.621
14634W        W73895   1.469   9.766   0.419
14635W        W73896  25.213   2.857   0.833
14636W        W73897  35.490   1.791  13.850
14637W        W73898   6.361  17.150  13.396
14638W        W73899  43.911  42.469  10.481
14639W        W73900   6.240  42.022  10.570
14640W        W73901  19.640   4.446   4.775
14641W        W73902  32.502   5.197   2.752
14642W        W73903  12.785  17.092  14.962
14643W        W73904  19.121   8.223   4.712
14644W        W73905  34.439  39.932   4.240
14645W        W73906  35.566   7.192  14.434
14646W        W73907  44.793   4.864  10.628
14647W        W73908  30.527  15.111  12.092
14648W        W73909  24.025  12.843  14.459
14649W        W73910  34.930  23.702  14.281
14650W        W73911  20.640  35.482   4.146
14651W        W73912  10.151  26.060  11.558
14652W        W73913  13.111  33.957  11.941
14653W        W73914  16.800  42.957   4.179
14654W        W73915   1.975   3.733   3.234
14655W        W73916   2.407  16.233   4.795
14656W        W73917  11.737  37.392   0.899
14657W        W73918   7.377  33.128   2.831
14658W        W73919  15.183   9.828   4.168
14659W        W73920  18.700  23.627   0.434
14660W        W73921  37.447  19.266  13.017
14661W        W73922  21.230  15.258  12.369
14662W        W73923  40.007  13.199   2.365
14663W        W73924  32.900  37.846  12.384
14664W        W73925  38.017   7.238  14.489
14665W        W73926  44.410  31.601  13.405
14666W        W73927  10.175  30.582  13.793
14667W        W73928   0.417   8.791  14.992
14668W        W73929  29.044  10.335   0.353
14669W        W73930  37.436  30.914  12.036
14670W        W73931  17.639  28.515   2.352
14671W        W73932   0.460  39.320   3.793
14672W        W73933   7.291  28.440  14.952
14673W        W73934  20.171  36.031   3.170
14674W        W73935  32.981  27.566   4.250
14675W        W73936  23.182  25.162  12.974
14676W        W73937  37.933  26.066  12.955
14677W        W73938  22.099   0.476  12.056
14678W        W73939  42.024  23.598  13.367
14679W        W73940  34.568  15.666  14.772
14680W        W73941  18.064   3.309  12.976
14681W        W73942  25.614  13.159   4.290
14682W        W73943  30.052  18.695   3.283
14683W        W73944  20.206  26.108   3.830
14684W        W73945  28.633  21.695   1.800
14685W        W73946  40.939  27.109  11.032
14686W        W73947  14.655  23.999   1.379
14687W        W73948  29.587  14.177  13.892
14688W        W73949  12.796  29.553   3.721
14689W        W73950  32.449  15.222  12.371
14690W        W73951  23.677  24.483   3.718
14691W        W73952  11.345  27.115   1.445
14692W        W73953  26.496  44.887  10.956
14693W        W73954   6.416  38.409  13.535
14694W        W73955   7.870   8.385   3.842
14695W        W73956  27.517  26.619   9.537
14696W        W73957  38.395  24.024  10.432
14697W        W73958   4.724  43.299   1.739
14698W        W73959  32.134  32.052   2.888
14699W        W73960  16.768   5.353  12.538
14700W        W73961  36.981  10.254   1.438
14701W        W73962  41.534  29.138  12.827
14702W        W73963  28.179  41.987   1.398
14703W        W73964   9.664  13.190  11.023
14704W        W73965   3.735  40.829  12.552
14705W        W73966  13.300  25.510  13.829
14706W        W73967  15.113   3.717  14.766
14707W        W73968  27.608  30.988  13.533
14708W        W73969   6.831  14.705  13.308
14709W        W73970  21.682  38.336  13.527
14710W        W73971  24.647  43.458  10.999
14711W        W73972  35.939  26.675   1.753
14712W        W73973  37.850   6.371  13.853
14713W        W73974  33.878  32.133   2.259
14714W        W73975   8.874   8.765   3.248
14715W        W73976   5.251   9.393   0.759
14716W        W73977   4.882  16.231   4.624
14717W        W73978  11.761  12.649   0.258
14718W        W73979  30.419  35.926   0.392
14719W        W73980   2.848  21.643   2.252
14720W        W73981   7.402  30.157   2.753
14721W        W73982  44.277  28.979   3.842
14722W        W73983  14.291  25.214  11.951
14723W        W73984   7.383  22.711   4.136
14724W        W73985  15.315   7.696   2.377
14725W        W73986  31.151  28.664   2.387
14726W        W73987   8.751  43.783   0.783
14727W        W73988   3.229  31.009  12.948
14728W        W73989  25.205  15.162  14.396
14729W        W73990  31.142  35.553   2.410
14730W        W73991  26.144  23.087   5.271
14731W        W73992  32.916  11.748   2.851
14732W        W73993  12.244  23.551   2.236
14733W        W73994   0.914  36.374  14.286
14734W        W73995  15.259   2.366   2.204
14735W        W73996  14.785  31.557   4.186
14736W        W73997  24.032   6.393   3.192
14737W        W73998  18.571  33.995  13.385
14738W        W73999  21.205   4.379  10.047
14739W        W74000  44.976  31.984   1.922
14740W        W74001  42.369  27.947   4.163
14741W        W74002   3.264  15.694   3.186
14742W        W74003  23.681  30.431  14.283
14743W        W74004   8.735  41.498   4.608
14744W        W74005  38.820  15.165  10.451
14745W        W74006  43.509  44.428  14.297
14746W        W74007   0.811   4.910   3.866
14747W        W74008   5.416   7.783  12.475
14748W        W74009  21.048   8.235  11.574
14749W        W74010   1.919   4.239   0.786
14750W        W74011   4.798  27.101   9.939
14751W        W74012  43.353  33.493   1.257
14752W        W74013  40.812  23.581  14.887
14753W        W74014   5.733  28.614   1.846
14754W        W74015   0.454  25.077  11.001
14755W        W74016  42.302  25.109   4.672
14756W        W74017   9.311  28.643   3.364
14757W        W74018  13.825  30.435  13.861
14758W        W74019  31.505  37.010  10.037
14759W        W74020  12.846  38.935  11.897
14760W        W74021  30.066  34.571   2.684
14761W        W74022  25.048  30.453  11.598
14762W        W74023  32.587  19.072   1.770
14763W        W74024  17.564  38.827   3.694
14764W        W74025   2.382  21.091  10.097
14765W        W74026  14.112  30.007   0.879
14766W        W74027   9.874  40.398  14.992
14767W        W74028  18.294  41.825   1.764
14768W        W74029  26.541  10.738   0.248
14769W        W74030  36.592  42.347   1.870
14770W        W74031  33.978   1.907   1.323
14771W        W74032  12.786  10.331  12.514
14772W        W74033  29.054  25.073  10.515
14773W        W74034  33.444  43.315  13.911
14774W        W74035  36.008  42.996  10.446
14775W        W74036   0.330  42.300   4.129
14776W        W74037  28.181   7.816   5.260
14777W        W74038  39.553  42.398   4.646
14778W        W74039  17.214  40.528   0.439
14779W        W74040   3.329  16.269   1.322
14780W        W74041  26.481  27.188   2.693
14781W        W74042  34.042  40.523   3.202
14782W        W74043  38.456  43.786  12.547
14783W        W74044  36.491  23.112   1.263
14784W        W74045  19.534  38.969   3.206
14785W        W74046  25.146   5.234   4.631
14786W        W74047  29.962   9.341   3.193
14787W        W74048  31.545  23.697   3.173
14788W        W74049  29.078   2.239   1.863
14789W        W74050  19.137  16.797   1.412
14790W        W74051  30.128  15.617  12.545
14791W        W74052  30.986  23.599   0.420
14792W        W74053  21.069  38.887  11.096
14793W        W74054  10.152   9.832   4.223
14794W        W74055  19.063  24.072   1.719
14795W        W74056  36.399  31.627   2.728
14796W        W74057  40.889  32.122  13.002
14797W        W74058  19.586  33.938  14.920
14798W        W74059  34.866   5.423   0.397
14799W        W74060   1.285   0.332  12.350
14800W        W74061  24.976  16.746   1.294
14801W        W74062  33.893   5.915   4.827
14802W        W74063  38.963   3.889  11.530
14803W        W74064   5.433  32.599   2.670
14804W        W74065  19.172  29.978   1.790
14805W        W74066  16.193  25.543   3.698
14806W        W74067   5.419  21.642  12.963
14807W        W74068   5.837  31.579   0.370
14808W        W74069  32.895  35.944  10.909
14809W        W74070  40.840   2.787  12.555
14810W        W74071  16.809  14.198  14.448
14811W        W74072   9.795  14.229  11.407
14812W        W74073  25.575  39.502   0.789
14813W        W74074  28.577  18.689  12.463
14814W        W74075  14.701  31.456  12.907
14815W        W74076  39.846   5.203   1.274
14816W        W74077  24.491   7.883  13.983
14817W        W74078  15.127  15.691   3.304
14818W        W74079  35.886  42.929   3.182
14819W        W74080  28.568  37.897  13.325
14820W        W74081   1.927  14.111   5.187
14821W        W74082  26.544  32.016  11.002
14822W        W74083  27.978  30.085  14.502
14823W        W74084   4.277  26.578  10.594
14824W        W74085  17.276  22.131  13.363
14825W        W74086  37.882  27.053   0.944
14826W        W74087   7.198   4.363  13.052
14827W        W74088  42.803   5.910  12.475
14828W        W74089   5.420   3.297  14.327
14829W        W74090  41.984  33.030  10.128
14830W        W74091  22.091  23.550  13.382
14831W        W74092   6.249  43.798  14.840
14832W        W74093  26.073  20.525   4.673
14833W        W74094  23.708  42.425  11.995
14834W        W74095  44.812  34.418  13.047
14835W        W74096  21.108  33.064  10.935
14836W        W74097   0.284  41.492  12.964
14837W        W74098  19.653  22.541   0.907
14838W        W74099   0.342  36.991  11.910
14839W        W74100  34.525  20.121   1.217
14840W        W74101  18.755  35.045  12.470
14841W        W74102  32.596  25.571  12.416
14842W        W74103  35.020  32.013  14.826
14843W        W74104   6.232  35.485  13.525
14844W        W74105   5.893  17.782   0.910
14845W        W74106  21.743   7.369  11.981
14846W        W74107   5.291   5.362   1.416
14847W        W74108  19.048  39.464   2.203
14848W        W74109   6.319  28.607   2.765
14849W        W74110  29.921  39.378   3.758
14850W        W74111  31.621  30.080   0.375
14851W        W74112  38.883  19.595   4.824
14852W        W74113  16.685  42.504  12.832
14853W        W74114   1.793  28.097  13.823
14854W        W74115  39.061  26.958   4.804
14855W        W74116  34.973  18.169   1.769
14856W        W74117  31.509   9.368   2.407
14857W        W74118  12.718  24.105  12.492
14858W        W74119  13.159  44.907   4.657
14859W        W74120  35.937  23.712  11.390
14860W        W74121   1.281  21.236   4.621
14861W        W74122  18.669  17.084   1.801
14862W        W74123  33.595   4.237  14.396
14863W        W74124  37.021  38.859   0.456
14864W        W74125  35.005  43.980  12.872
14865W        W74126   4.864  41.020  12.505
14866W        W74127  11.776  20.260   0.481
14867W        W74128  40.521  17.076   0.758
14868W        W74129   2.801  43.431   4.597
14869W        W74130  37.460  35.861  12.432
14870W        W74131  41.891   1.386   3.256
14871W        W74132  43.935  44.803   1.724
14872W        W74133  32.003  19.127   3.630
14873W        W74134   6.284  20.649   4.325
14874W        W74135  29.651  24.551  13.823
14875W        W74136  18.682  43.821  14.417
14876W        W74137  44.345  30.422   2.384
14877W        W74138  35.451  32.904  13.468
14878W        W74139  12.677  29.140  14.425
14879W        W74140   0.254   7.183   2.343
14880W        W74141   1.424  36.859  13.991
14881W        W74142  18.546  15.748   2.319
14882W        W74143  37.958  44.958  11.005
14883W        W74144  38.337  41.852  13.029
14884W        W74145  18.577   7.710  13.411
14885W        W74146  14.273  28.942   0.818
14886W        W74147  18.228  23.555  13.360
14887W        W74148  32.945  13.834   3.277
14888W        W74149  32.628   9.646  13.970
14889W        W74150  24.202   2.312   0.764
14890W        W74151  12.671   0.280   2.891
14891W        W74152   3.354  27.473  12.988
14892W        W74153   3.362   0.930   2.812
14893W        W74154  44.861  38.520  11.868
14894W        W74155  38.501  29.637   3.809
14895W        W74156  21.583   7.200  14.799
14896W        W74157   1.396  40.456   3.293
14897W        W74158  13.197  34.953  11.979
14898W        W74159   2.465   3.820   2.708
14899W        W74160  22.235   0.345   3.783
14900W        W74161  37.555   5.315   1.263
14901W        W74162  39.479  17.618   4.705
14902W        W74163  20.090  28.160  10.496
14903W        W74164  30.436  42.877   1.238
14904W        W74165   4.211  41.395   1.731
14905W        W74166  18.256  21.546   4.172
14906W        W74167   2.233  36.441  11.948
14907W        W74168  38.329   0.435   1.708
14908W        W74169  11.852  20.078  12.542
14909W        W74170  40.974   8.188  12.498
14910W        W74171  22.609  17.788  13.400
14911W        W74172  28.943  42.526   2.314
14912W        W74173  14.626   6.720   4.263
14913W        W74174  35.419  30.571  13.931
14914W        W74175  44.971  27.592   4.317
14915W        W74176  14.820   9.664   2.708
14916W        W74177  44.286  33.529  12.835
14917W        W74178  44.758   8.800  12.048
14918W        W74179  29.508   9.725  14.910
14919W        W74180  40.053  37.076   3.818
14920W        W74181   0.301   5.740   4.736
14921W        W74182  19.058  25.971   4.294
14922W        W74183  14.690  12.162   2.888
14923W        W74184  28.943  22.578  12.929
14924W        W74185  28.572  22.599   0.886
14925W        W74186  35.433  28.131   1.368
14926W        W74187   1.966   2.886   4.606
14927W        W74188  28.658  11.339   2.227
14928W        W74189  13.162  20.703   2.817
14929W        W74190  37.004   2.355  11.970
14930W        W74191  13.137   5.312   3.775
14931W        W74192  40.390  29.071  14.501
14932W        W74193   2.904  28.107  14.299
14933W        W74194  27.947  20.029  14.933
14934W        W74195   3.391   7.791   3.658
14935W        W74196  21.225  41.882   4.165
14936W        W74197  37.530  31.039   1.775
14937W        W74198  13.809  35.465   4.699
14938W        W74199  25.474  13.154   0.312
14939W        W74200   6.868  44.983  14.869
14940W        W74201  41.959   5.700  11.061
14941W        W74202  32.027   9.853   4.293
14942W        W74203  40.024   6.399  13.343
14943W        W74204  14.641  43.903  12.012
14944W        W74205  12.329   3.816   3.175
14945W        W74206   6.189  25.625  12.062
14946W        W74207   6.262  38.921   3.663
14947W        W74208  23.174  17.072   0.742
14948W        W74209  10.325   9.317  10.517
14949W        W74210  28.637   8.369  14.505
14950W        W74211  38.504  26.073   0.387
14951W        W74212  17.248  22.565   0.480
14952W        W74213  18.183  28.947  13.968
14953W        W74214  30.585   2.389  14.317
14954W        W74215  14.755  22.627  14.860
14955W        W74216  24.516   7.214  12.522
14956W        W74217  29.009  18.707  14.303
14957W        W74218  41.872  40.546   5.318
14958W        W74219  40.492   7.887   0.753
14959W        W74220  36.422  43.925  10.995
14960W        W74221   4.365  41.514   0.812
14961W        W74222  27.111   7.183   1.702
14962W        W74223   5.703  29.166  10.616
14963W        W74224  33.445  16.803  14.910
14964W        W74225  33.079  32.011   9.996
14965W        W74226  17.659  38.064   3.755
14966W        W74227  30.921  19.644   4.204
14967W        W74228  20.040  19.073  13.504
14968W        W74229  16.620  38.401   1.899
14969W        W74230   4.250   3.932  11.903
14970W        W74231  38.936   3.912  10.491
14971W        W74232  15.699   3.730  13.834
14972W        W74233  29.096  25.965   3.814
14973W        W74234  19.176   4.861  11.877
14974W        W74235  34.602  39.894  13.314
14975W        W74236  12.234  18.062   3.764
14976W        W74237   1.970  39.321   4.618
14977W        W74238  24.155  38.427  14.765
14978W        W74239  25.505  14.729  13.960
14979W        W74240  19.701   2.261   3.659
14980W        W74241  35.448  25.174  13.378
14981W        W74242  29.164   6.429  14.998
14982W        W74243  11.290   5.197   3.784
14983W        W74244  38.961   9.766   0.292
14984W        W74245  34.937  17.729   2.764
14985W        W74246  10.840  40.404   0.776
14986W        W74247  21.197  26.065  11.032
14987W        W74248  29.054   2.808   4.792
14988W        W74249  26.490  11.721   5.093
14989W        W74250  14.108  34.117  13.838
14990W        W74251  43.472   0.905  11.602
14991W        W74252   9.207  28.677  12.469
14992W        W74253  19.594  42.933  14.478
14993W        W74254  23.622  27.485   3.369
14994W        W74255  20.722  25.152  13.046
14995W        W74256  11.157  30.923  11.010
14996W        W74257  42.842   4.903   1.787
14997W        W74258  39.047  30.486  10.619
14998W        W74259   2.761  17.089  12.940
14999W        W74260  37.474  25.032   4.139
15000W        W74261  31.567  11.365   0.277
15001W        W74262  27.996  35.874   0.371
15002W        W74263  26.001  11.679   2.791
15003W        W74264   4.345  32.966  10.548
15004W        W74265  10.307  13.600  14.849
15005W        W74266  35.602   0.307  13.830
15006W        W74267  30.636  44.847   2.309
15007W        W74268  37.412  28.082  13.444
15008W        W74269  14.623  33.985   0.314
15009W        W74270   5.887  38.886  12.499
15010W        W74271  33.113  38.425   3.840
15011W        W74272  13.697  36.065   0.479
15012W        W74273  42.458  19.272  13.047
15013W        W74274  29.928  43.854   3.747
15014W        W74275  34.977   1.268   2.865
15015W        W74276  36.487   8.215  11.908
15016W        W74277  21.723  27.619  14.365
15017W        W74278   0.350   9.267  14.474
15018W        W74279  40.887   0.763   3.682
15019W        W74280  41.372  13.217   3.268
15020W        W74281  41.837   7.802   4.309
15021W        W74282  23.610  36.919   2.865
15022W        W74283   5.739  12.802  10.472
15023W        W74284  39.533   6.369  11.493
15024W        W74285  44.263  31.611   1.792
15025W        W74286  40.526  13.618  11.903
15026W        W74287  35.106   6.862  11.594
15027W        W74288  27.453  24.182   0.811
15028W        W74289  38.841  28.088  11.407
15029W        W74290  21.567  37.394   3.845
15030W        W74291   6.411   0.899   1.740
15031W        W74292  14.204  13.172   2.204
15032W        W74293  24.700   8.326   0.470
15033W        W74294  40.488   1.372  12.490
15034W        W74295  30.959  35.106   4.305
15035W        W74296  20.529   2.941   1.859
15036W        W74297  42.299  31.429   0.899
15037W        W74298  35.446  16.671  10.983
15038W        W74299  33.448  10.266  12.824
15039W        W74300   4.733   8.326   2.317
15040W        W74301  26.465  25.046  14.938
15041W        W74302  10.139  34.071   1.900
15042W        W74303  24.122  25.661   2.418
15043W        W74304  21.729  15.312   0.813
15044W        W74305  18.681  38.409  14.343
15045W        W74306  27.556   9.765  10.638
15046W        W74307  10.194  21.582   3.818
15047W        W74308  39.853  21.714   2.343
15048W        W74309  13.335   1.318   1.784
15049W        W74310  34.949  24.028  12.843
15050W        W74311  41.021  15.270   3.253
15051W        W74312  22.086  26.554   0.385
15052W        W74313  37.044   4.727   4.313
15053W        W74314  29.093  22.154   3.834
15054W        W74315  30.136  17.786  12.527
15055W        W74316  13.293  41.842   4.709
15056W        W74317  11.843   0.879  10.991
15057W        W74318  37.893  42.798   9.622
15058W        W74319  40.838  42.499  11.003
15059W        W74320  20.538  28.606   2.679
15060W        W74321  21.586   1.476   4.609
15061W        W74322  43.930   7.842  14.506
15062W        W74323   4.741  22.639  10.940
15063W        W74324  35.526  11.836  13.969
15064W        W74325  11.151  16.205   1.323
15065W        W74326  10.367   6.404  13.413
15066W        W74327   3.798   9.739   1.230
15067W        W74328  41.437   7.780  11.117
15068W        W74329  31.599  34.893  12.862
15069W        W74330   2.884  12.303   0.427
15070W        W74331  40.533  28.632  13.794
15071W        W74332   8.335   3.336  12.092
15072W        W74333   1.853  44.312   1.855
15073W        W74334  19.235   1.900   4.285
15074W        W74335  32.955  12.697  11.019
15075W        W74336   4.757  13.157  12.417
15076W        W74337  19.765  35.983   4.613
15077W        W74338  31.555   9.313  13.505
15078W        W74339  15.608  17.132   5.158
15079W        W74340   9.209   7.349   3.375
15080W        W74341  21.589  41.498  11.537
15081W        W74342  25.197  34.908   0.823
15082W        W74343  38.881  17.074   2.745
15083W        W74344  32.022  40.375   4.198
15084W        W74345  16.171  12.207   2.865
15085W        W74346  41.415   2.315  12.028
15086W        W74347  43.327  36.973  10.521
15087W        W74348  26.536  38.332  12.462
15088W        W74349  42.356  19.074   0.731
15089W        W74350  38.527  43.820  11.987
15090W        W74351  30.970  32.427   1.274
15091W        W74352  16.785   0.377   4.691
15092W        W74353  36.535  22.695  14.881
15093W        W74354  39.840  34.479  12.877
15094W        W74355  30.029  27.527   3.320
15095W        W74356   9.801  28.138   0.299
15096W        W74357   7.182  37.047   1.927
15097W        W74358  18.197  30.459  14.834
15098W        W74359  16.227  29.087  13.343
15099W        W74360  41.953   6.874   4.169
15100W        W74361  39.905  16.162  14.808
15101W        W74362  35.089   5.361   2.250
15102W        W74363  23.090  31.134  14.987
15103W        W74364  33.588  12.355  13.974
15104W        W74365  10.208  36.903  10.908
15105W        W74366  31.489   5.403  12.532
15106W        W74367  10.164  27.048  13.031
15107W        W74368  23.637  29.921  11.605
15108W        W74369  42.433  33.892  10.111
15109W        W74370  25.145   8.310   1.301
15110W        W74371  14.205  21.599   1.282
15111W        W74372   6.400  10.210   0.269
15112W        W74373  41.799  10.782  11.500
15113W        W74374  12.219  27.182   1.386
15114W        W74375   8.331  38.048  11.567
15115W        W74376  30.088  42.399  13.853
15116W        W74377  10.797  39.451  12.544
15117W        W74378  17.265   2.279  10.513
15118W        W74379  32.423  38.435   1.893
15119W        W74380   8.208  20.684  13.501
15120W        W74381  32.595  32.090   2.856
15121W        W74382   9.747  30.912  14.470
15122W        W74383   5.286  31.517  14.479
15123W        W74384  15.741  12.661   1.400
15124W        W74385  41.302  15.720   1.318
15125W        W74386  28.552  41.894   3.278
15126W        W74387  36.352  31.530   1.419
15127W        W74388  14.125   9.710   1.226
15128W        W74389  35.588   1.869   4.300
15129W        W74390   5.702  42.406  13.499
15130W        W74391  23.219   8.758  13.810
15131W        W74392  39.825  43.874   3.364
15132W        W74393  39.378   0.488  11.072
15133W        W74394  13.326  30.040  12.489
15134W        W74395  33.451   0.430   4.678
15135W        W74396  28.529  38.405  11.986
15136W        W74397   1.868  35.864   4.667
15137W        W74398  36.530   4.442  13.827
15138W        W74399  17.302  22.235   3.377
15139W        W74400  11.726  21.164  10.131
15140W        W74401  29.012  18.551  14.976
15141W        W74402  44.451  27.660  11.408
15142W        W74403  43.392  24.193   3.379
15143W        W74404  34.539  40.843  12.555
15144W        W74405  37.016  10.287   2.299
15145W        W74406  23.671  35.533   3.780
15146W        W74407  27.092  23.116  12.572
15147W        W74408  29.616  15.726  13.356
15148W        W74409   7.182  33.602   3.780
15149W        W74410  24.506  32.512   2.783
15150W        W74411  37.898  18.253   1.291
15151W        W74412  19.165  13.699  14.026
15152W        W74413  23.124  24.639   1.373
15153W        W74414   0.320  33.025   4.206
15154W        W74415  10.375   5.902  13.471
15155W        W74416  26.659  41.915   0.898
15156W        W74417  19.145  17.669   0.787
15157W        W74418  40.954   8.389  14.895
15158W        W74419  44.299  21.079   4.726
15159W        W74420  23.170  39.398  14.334
15160W        W74421  39.008   8.799  12.946
15161W        W74422  28.085  43.832  13.971
15162W        W74423  43.931  32.613   1.788
15163W        W74424  41.806  34.492   3.736
15164W        W74425  18.758  18.173  12.419
15165W        W74426  15.738  25.607   5.195
15166W        W74427  17.674  44.266  10.529
15167W        W74428   1.410  12.654   0.402
15168W        W74429  33.493  17.243  10.637
15169W        W74430  26.544  31.927  14.324
15170W        W74431  36.087   7.208   4.257
15171W        W74432  43.483  19.268  10.973
15172W        W74433  10.341   5.404   1.867
15173W        W74434  31.074  20.210  14.501
15174W        W74435  11.166  10.765  13.982
15175W        W74436  19.594   7.699  14.003
15176W        W74437  33.057  19.129  14.402
15177W        W74438  12.253  36.875   2.226
15178W        W74439  13.671  23.059  14.447
15179W        W74440  15.124  16.160   0.812
15180W        W74441  19.724  34.598   2.890
15181W        W74442  24.653  12.745   4.238
15182W        W74443  10.340  25.566   3.799
15183W        W74444  39.879  18.180   3.214
15184W        W74445   5.212  44.339   1.324
15185W        W74446   8.683  11.687   3.742
15186W        W74447  20.759   6.896   0.785
15187W        W74448  16.303  21.055  11.085
15188W        W74449  33.382  42.790   2.706
15189W        W74450  19.731  15.232  11.043
15190W        W74451  30.482  13.280   1.333
15191W        W74452  41.377   0.779  13.504
15192W        W74453  16.675   5.237  10.039
15193W        W74454  35.574  38.915   4.663
15194W        W74455  33.591  26.489  11.414
15195W        W74456  19.237  17.066   9.452
15196W        W74457   4.736  39.832  13.490
15197W        W74458  21.539  12.783  13.947
15198W        W74459  42.975  13.296   0.779
15199W        W74460   9.317  30.503  13.056
15200W        W74461  31.643   3.401   0.246
15201W        W74462   5.879  26.581   4.709
15202W        W74463  34.922  34.404   0.322
15203W        W74464  44.447  44.766  11.942
15204W        W74465  21.138  17.728   2.235
15205W        W74466   7.287  33.456   2.402
15206W        W74467   9.164  39.441  14.366
15207W        W74468   9.326   1.967   3.273
15208W        W74469   7.252  20.159   4.274
15209W        W74470  44.920  15.327  12.024
15210W        W74471  38.412  26.508  11.499
15211W        W74472  35.903   7.178  11.931
15212W        W74473  34.993   1.787   0.296
15213W        W74474  20.240  13.765   0.453
15214W        W74475  40.502  32.919   1.895
15215W        W74476  20.129  26.968   4.172
15216W        W74477   0.775  30.585  12.955
15217W        W74478   6.379   3.956  11.963
15218W        W74479  41.301  38.566   2.834
15219W        W74480  33.545  29.078  10.990
15220W        W74481  36.080  23.006   4.710
15221W        W74482  32.463  24.075  12.558
15222W        W74483   8.760  24.650   4.292
15223W        W74484  17.105  34.412  11.439
15224W        W74485   5.909  32.045   2.371
15225W        W74486  25.647  15.164  12.366
15226W        W74487   8.751  12.143   2.372
15227W        W74488   1.975  15.600  11.127
15228W        W74489  32.543  14.183   9.535
15229W        W74490   4.747  13.138  12.080
15230W        W74491  12.222  11.273   0.810
15231W        W74492   7.405   6.826   4.202
15232W        W74493  35.940   1.282   3.668
15233W        W74494  24.132  23.217   0.784
15234W        W74495  43.509  29.933   4.636
15235W        W74496   7.413  34.016   4.114
15236W        W74497  22.607  10.379   3.146
15237W        W74498  35.042   2.302   0.416
15238W        W74499  15.650  44.325  12.887
15239W        W74500  39.041  42.288  11.127
15240W        W74501  13.630  26.537  10.981
15241W        W74502  23.510  33.129  12.572
15242W        W74503  25.988  13.777   0.322
15243W        W74504  14.833  16.621   1.720
15244W        W74505  15.629  14.132  11.929
15245W        W74506  17.726   1.326  10.634
15246W        W74507  16.312  30.122  11.455
15247W        W74508   5.424  38.024  14.853
15248W        W74509  32.924  16.237   1.708
15249W        W74510  32.428  27.576   0.900
15250W        W74511  20.274  39.383  12.366
15251W        W74512  19.679  35.018  14.424
15252W        W74513   3.835  31.082   0.956
15253W        W74514  23.018  44.480  10.411
15254W        W74515   1.297  26.174   0.928
15255W        W74516   9.395   9.728  14.976
15256W        W74517  24.202   1.874  14.380
15257W        W74518  18.135  42.381   2.231
15258W        W74519  29.426   2.784  14.362
15259W        W74520  22.158  14.189  11.088
15260W        W74521  43.985  36.919   2.833
15261W        W74522   3.897  24.638   1.289
15262W        W74523  41.505  22.249  13.447
15263W        W74524  44.311  19.140  13.480
15264W        W74525  18.557  32.021  13.411
15265W        W74526  19.082   8.166  13.528
15266W        W74527  27.111  31.925  13.966
15267W        W74528  35.544  33.127   1.694
15268W        W74529  19.238  37.941   3.760
15269W        W74530  38.472  39.848   4.705
15270W        W74531  39.431  37.394  14.937
15271W        W74532  28.532  20.669   3.763
15272W        W74533  44.893  22.687   2.792
15273W        W74534  19.052  39.398  11.939
15274W        W74535  17.229  24.606   3.829
15275W        W74536  41.904  27.060   4.277
15276W        W74537  23.214  15.638  14.012
15277W        W74538  11.304  36.996  12.455
15278W        W74539  10.759  23.009  10.990
15279W        W74540  13.191  20.725  11.507
15280W        W74541  23.512  32.028  11.555
15281W        W74542  40.840  42.306   0.258
15282W        W74543  25.127  41.905  10.920
15283W        W74544  17.252  10.670   2.805
15284W        W74545  29.078   1.431  11.522
15285W        W74546   2.335   0.845  12.997
15286W        W74547  14.291  32.933   4.314
15287W        W74548   2.415  20.646   1.835
15288W        W74549   8.758  44.477   4.246
15289W        W74550  36.047   3.923  13.441
15290W        W74551   7.723  26.973  13.406
15291W        W74552  31.553  25.967   3.647
15292W        W74553   3.779  36.921   4.246
15293W        W74554  34.965   4.819  10.033
15294W        W74555  24.667  24.981  14.968
15295W        W74556  24.676   6.778  12.478
15296W        W74557  15.678  33.440   2.375
15297W        W74558  16.230  26.034  14.852
15298W        W74559  25.203  19.284  12.992
15299W        W74560  27.509  21.595   0.451
15300W        W74561  31.528  21.046   4.724
15301W        W74562  19.640  19.575   3.292
15302W        W74563  24.637  40.861   1.806
15303W        W74564  42.526  30.441  13.440
15304W        W74565  16.166  30.472   4.682
15305W        W74566  44.302  39.983   1.439
15306W        W74567   1.843  41.501  11.887
15307W        W74568  11.154  14.698   1.827
15308W        W74569  33.948   5.785  14.919
15309W        W74570   4.249  13.669  14.504
15310W        W74571   0.754   2.317  13.022
15311W        W74572  34.892  32.615   2.292
15312W        W74573  19.219  11.807  13.870
15313W        W74574   4.860  13.311  13.368
15314W        W74575  27.145   6.382  12.905
15315W        W74576  24.043  27.035  13.481
15316W        W74577  40.401   7.686   1.928
15317W        W74578  27.953  19.278  10.584
15318W        W74579  16.745  15.141   0.341
15319W        W74580  19.076  18.565  11.119
15320W        W74581  40.309  23.637  10.403
15321W        W74582   6.379  17.688   2.879
15322W        W74583  41.457  11.370  11.866
15323W        W74584   6.184   5.858  14.436
15324W        W74585  22.154  28.182  14.876
15325W        W74586  19.243  36.453   0.735
15326W        W74587  42.999  38.020  11.504
15327W        W74588  25.213  16.221  11.069
15328W        W74589  34.370  11.698  12.487
15329W        W74590  17.786  22.701   1.847
15330W        W74591  33.567  31.448  14.348
15331W        W74592  32.097  29.930  12.895
15332W        W74593  24.053  42.792   5.188
15333W        W74594   4.323   8.760   0.268
15334W        W74595  28.511  37.402  12.984
15335W        W74596  35.902  30.577  12.473
15336W        W74597   7.261  29.124   0.766
15337W        W74598   3.449  26.607   1.702
15338W        W74599  15.716  13.332   4.678
15339W        W74600   8.772   1.355   2.221
15340W        W74601  17.718  37.509  10.001
15341W        W74602  26.653  26.594   4.118
15342W        W74603  40.913  13.717   2.284
15343W        W74604  31.899  41.523  11.511
15344W        W74605  27.971  41.023  13.508
15345W        W74606  20.748   9.711  13.539
15346W        W74607   1.883   9.216  14.888
15347W        W74608  28.119  21.600  12.073
15348W        W74609   6.206  28.587  12.005
15349W        W74610  15.582   7.358  13.044
15350W        W74611  21.557  10.684   2.411
15351W        W74612  44.913  11.200   1.801
15352W        W74613  24.145  29.590  14.336
15353W        W74614   3.408  30.449   3.363
15354W        W74615  34.030  41.470   2.728
15355W        W74616  10.662  11.338   3.267
15356W        W74617   5.318  36.368   2.231
15357W        W74618   8.331  15.084  11.499
15358W        W74619  37.405  41.309  13.541
15359W        W74620   0.756  41.369   5.194
15360W        W74621  17.747  35.935  13.502
15361W        W74622   6.860  32.470   0.863
15362W        W74623   2.255  37.048   4.829
15363W        W74624  23.003  39.865   4.763
15364W        W74625  38.430  37.580   3.639
15365W        W74626  23.158  28.446  13.869
15366W        W74627  14.095   8.404  13.016
15367W        W74628  25.555  26.109  14.957
15368W        W74629  10.781   4.845   1.887
15369W        W74630  14.735  31.077   2.819
15370W        W74631   8.220  40.536  13.428
15371W        W74632  13.673  29.974  12.092
15372W        W74633  12.724  20.232  14.761
15373W        W74634  26.485  26.123   9.624
15374W        W74635  16.803  33.396   1.221
15375W        W74636  31.508  31.009   4.780
15376W        W74637  37.359   2.242   3.229
15377W        W74638  18.205   0.929  11.599
15378W        W74639  13.139  37.411   1.367
15379W        W74640  36.474  10.216   1.264
15380W        W74641  29.561   2.860  12.416
15381W        W74642  31.899  42.781  10.940
15382W        W74643  36.047  30.509  14.827
15383W        W74644  27.994  44.952  14.334
15384W        W74645  32.105  25.554   2.823
15385W        W74646  27.510  33.035   1.288
15386W        W74647  32.491  12.857  13.524
15387W        W74648  39.853  37.573   4.139
15388W        W74649  39.466  18.706  10.563
15389W        W74650   8.662  28.026  13.450
15390W        W74651   6.923  34.539  14.887
15391W        W74652  35.477  25.095  14.406
15392W        W74653  12.317   5.910  11.921
15393W        W74654  35.530  34.111   1.753
15394W        W74655   0.388  23.182  14.963
15395W        W74656  22.506  22.641   2.737
15396W        W74657  23.019  39.906   2.882
15397W        W74658  43.373  24.601  12.094
15398W        W74659   9.265  38.044   1.785
15399W        W74660   5.431  35.401   4.764
15400W        W74661   6.834  40.872  11.478
15401W        W74662  32.943  13.251   3.261
15402W        W74663  15.127  20.605   4.124
15403W        W74664  32.401  21.596   1.271
15404W        W74665  16.250  25.050  11.415
15405W        W74666  29.161  31.617   0.257
15406W        W74667  29.423  10.233  13.797
15407W        W74668   5.884  37.882   1.750
15408W        W74669  11.758  11.754   1.383
15409W        W74670   9.370  35.547   1.765
15410W        W74671  37.439  18.115   4.632
15411W        W74672  30.571  33.497  14.470
15412W        W74673  27.482   8.815  13.049
15413W        W74674  28.101  26.142   4.208
15414W        W74675  38.404  12.275   4.625
15415W        W74676   2.337  19.103  10.417
15416W        W74677   2.937  32.070   3.719
15417W        W74678   2.965  24.674  13.415
15418W        W74679  30.569  34.584   2.296
15419W        W74680  44.505   9.647   2.895
15420W        W74681  13.824  32.390   3.213
15421W        W74682  44.315  36.445   0.819
15422W        W74683  16.651   8.189   0.450
15423W        W74684  28.588  34.896  11.943
15424W        W74685  13.803  34.904  12.881
15425W        W74686  31.404  24.636  11.606
15426W        W74687  32.512   9.656   0.962
15427W        W74688  33.908  14.207  11.993
15428W        W74689  16.605   7.246  11.089
15429W        W74690  43.285   3.439   2.796
15430W        W74691  44.485   1.974  13.958
15431W        W74692  40.827  39.865  12.498
15432W        W74693   9.836   7.385   1.812
15433W        W74694  21.714  38.031  12.915
15434W        W74695   2.252  34.381   0.868
15435W        W74696   6.832  30.432  14.850
15436W        W74697   3.262  12.129   3.631
15437W        W74698  11.351   9.692   1.260
15438W        W74699  12.235  13.218  13.864
15439W        W74700  41.021  41.912   2.739
15440W        W74701  24.107  24.196  13.038
15441W        W74702  29.166  33.941  13.005
15442W        W74703   8.224  35.079   3.178
15443W        W74704  29.646  21.707   0.893
15444W        W74705  14.674  37.936  11.399
15445W        W74706  24.196   6.826   4.757
15446W        W74707   8.227  42.011   4.190
15447W        W74708  28.467  38.057   4.730
15448W        W74709  43.006   2.924  11.107
15449W        W74710  16.231   2.853  11.606
15450W        W74711  44.353  28.606   0.444
15451W        W74712  11.350   4.347  10.495
15452W        W74713  38.938   4.742  11.433
15453W        W74714   9.673  26.128   1.913
15454W        W74715  22.186   0.292  12.857
15455W        W74716  23.070   8.662  13.009
15456W        W74717  20.718  38.531  13.372
15457W        W74718  12.703  10.176  11.906
15458W        W74719   9.316  14.779  14.842
15459W        W74720  37.055  40.384   4.198
15460W        W74721   6.195  40.334  14.310
15461W        W74722  15.287  30.488  14.492
15462W        W74723   1.445  13.141   3.207
15463W        W74724  26.972  34.427   4.683
15464W        W74725  19.077   9.396  11.036
15465W        W74726   9.328  18.587  12.471
15466W        W74727  15.814  21.701   3.264
15467W        W74728  31.969  18.579  12.502
15468W        W74729  10.775   0.975  14.893
15469W        W74730   8.276   2.292  10.614
15470W        W74731  35.870  23.150  12.881
15471W        W74732   9.250  38.022  10.928
15472W        W74733  19.078   2.260   2.402
15473W        W74734  12.236  43.847  12.497
15474W        W74735  14.313  37.014  11.597
15475W        W74736  10.361  19.232  13.374
15476W        W74737  34.887  25.654   2.407
15477W        W74738  14.767  13.651  14.926
15478W        W74739   9.237  13.275  10.979
15479W        W74740  18.776  35.997   2.359
15480W        W74741  29.479  21.754  13.046
15481W        W74742  25.634  42.356  13.043
15482W        W74743  18.634  13.327  11.920
15483W        W74744   9.663  16.761   1.218
15484W        W74745   3.276  26.565  10.491
15485W        W74746  23.998  21.574  13.831
15486W        W74747  37.391  41.405  12.451
15487W        W74748  14.249  22.633  12.565
15488W        W74749  37.376  32.592  12.357
15489W        W74750  41.842  26.088  12.046
15490W        W74751   6.719  11.868   9.565
15491W        W74752  42.856   7.770   0.848
15492W        W74753   5.344  16.798   2.211
15493W        W74754  21.023   4.285   2.379
15494W        W74755  38.930  41.807  11.933
15495W        W74756   4.921  43.385  14.842
15496W        W74757  30.139  22.070  11.554
15497W        W74758   9.271  23.566   4.302
15498W        W74759  35.484  17.295   4.812
15499W        W74760  40.545  35.557  10.050
15500W        W74761  27.640  17.660   2.205
15501W        W74762  37.492   1.481  13.051
15502W        W74763  30.954   8.238  14.953
15503W        W74764  11.226  36.896   4.131
15504W        W74765   3.945  16.272  11.562
15505W        W74766  23.131  12.697  14.795
15506W        W74767   4.381  24.214  10.565
15507W        W74768  12.676  31.006   1.433
15508W        W74769  35.052   0.746  13.329
15509W        W74770  42.399  33.921   2.849
15510W        W74771  30.530  41.347  11.910
15511W        W74772  31.991   0.808   0.824
15512W        W74773  33.534  34.577  14.896
15513W        W74774  36.011  29.440   3.245
15514W        W74775  13.725   5.731  11.388
15515W        W74776   9.209  40.827  10.951
15516W        W74777  27.537  35.045  13.921
15517W        W74778  18.724  11.824  11.381
15518W        W74779   6.847  32.543  13.418
15519W        W74780  35.388  32.927  11.410
15520W        W74781  21.683  28.570   0.455
15521W        W74782  37.871   4.938  13.333
15522W        W74783  17.292  29.557   3.832
15523W        W74784  12.799  11.768   3.800
15524W        W74785  24.625  39.975  10.892
15525W        W74786  30.558   1.298  14.348
15526W        W74787  36.426   3.390  11.494
15527W        W74788   7.746  33.574  13.538
15528W        W74789  44.354  27.689  13.858
15529W        W74790  15.750  10.215  11.389
15530W        W74791   5.751  34.886   0.357
15531W        W74792  36.484  33.611  12.456
15532W        W74793  19.775  12.265  14.477
15533W        W74794  26.054  34.000   3.740
15534W        W74795   4.252  39.494  13.042
15535W        W74796  21.238  26.554   3.820
15536W        W74797   7.781  19.218   4.630
15537W        W74798  40.848   8.194  10.405
15538W        W74799  36.097   0.425   4.803
15539W        W74800  17.576  11.837   2.408
15540W        W74801  27.049  37.836   2.233
15541W        W74802  25.706   7.830  13.378
15542W        W74803  21.042  16.095  14.450
15543W        W74804  18.234   9.205  12.476
15544W        W74805  26.132  19.257   4.657
15545W        W74806  18.194   0.266  12.526
15546W        W74807   5.380  38.474  12.497
15547W        W74808   8.744  11.355   2.250
15548W        W74809  18.249   8.321  12.973
15549W        W74810  12.352  21.737   1.811
15550W        W74811  32.907  37.036   0.301
15551W        W74812   4.845  12.706   2.741
15552W        W74813  16.272  16.649   1.294
15553W        W74814   4.441  13.329   1.254
15554W        W74815  28.655  20.184  10.608
15555W        W74816  11.831  14.187  13.992
15556W        W74817   6.862  19.677   2.874
15557W        W74818  14.294  20.734   1.320
15558W        W74819  28.073  35.566  10.478
15559W        W74820  28.073  42.857   2.749
15560W        W74821  35.103  12.730  14.012
15561W        W74822  17.749  21.757  13.430
15562W        W74823  11.734  12.335  14.311
15563W        W74824  21.528  38.448  14.870
15564W        W74825  22.596   8.395  10.595
15565W        W74826  20.250  10.264  13.816
15566W        W74827  33.394  14.679   3.845
15567W        W74828  24.622  31.436  11.128
15568W        W74829  13.806   3.905  11.550
15569W        W74830  23.042  15.299  11.018
15570W        W74831  38.530  26.638  10.938
15571W        W74832  41.007  34.612   1.743
15572W        W74833  28.142  26.589  11.421
15573W        W74834  28.627  17.666  13.055
15574W        W74835  36.365  28.983  13.800
15575W        W74836   1.362  18.673  12.897
15576W        W74837   4.402  15.810  11.883
15577W        W74838  20.561   2.739  14.325
15578W        W74839  44.804   6.729   1.858
15579W        W74840   6.337  37.457  12.499
15580W        W74841  41.871  23.131   4.613
15581W        W74842  28.105  26.591  13.013
15582W        W74843   7.335  21.182  14.974
15583W        W74844  20.200  44.775  13.847
15584W        W74845  41.294  21.726  10.629
15585W        W74846  39.001   6.328   1.790
15586W        W74847   5.690  39.341  12.060
15587W        W74848  11.329   0.312  12.007
15588W        W74849  14.240  20.549  11.940
15589W        W74850  44.953   8.877  12.416
15590W        W74851  34.885  32.503  13.446
15591W        W74852   4.447  22.682  11.455
15592W        W74853  13.205  13.817   2.232
15593W        W74854  24.673  19.233  12.972
15594W        W74855  35.010  34.931   9.992
15595W        W74856  42.310  36.073   4.619
15596W        W74857  13.168  33.936  14.514
15597W        W74858  18.054   1.441   2.389
15598W        W74859  32.445  29.656   1.327
15599W        W74860   4.244   6.746  12.038
15600W        W74861  24.198  41.846   3.293
15601W        W74862  26.496   6.250   2.355
15602W        W74863  16.679  44.962   2.671
15603W        W74864  40.405   5.752  14.819
15604W        W74865  32.589  21.075   4.238
15605W        W74866  15.684  27.954   1.898
15606W        W74867  44.267  32.560  11.488
15607W        W74868  18.693  34.865  14.806
15608W        W74869   2.430   5.727   2.663
15609W        W74870   8.707  17.132  10.483
15610W        W74871  38.879   0.428   0.368
15611W        W74872  40.530   8.250   2.880
15612W        W74873  30.524  10.729  14.004
15613W        W74874   8.867  24.490  11.056
15614W        W74875  22.733  27.612   3.233
15615W        W74876  23.072   0.305   4.277
15616W        W74877   8.313   3.452  13.374
15617W        W74878  37.040  14.283  14.509
15618W        W74879  31.505  14.824  10.970
15619W        W74880   3.226  14.104   3.340
15620W        W74881  19.234  25.181  14.449
15621W        W74882  41.432  33.387  14.766
15622W        W74883  25.644   4.795   5.255
15623W        W74884  35.875  34.387  10.952
15624W        W74885  38.542  13.250  11.430
15625W        W74886  10.659  11.160   2.732
15626W        W74887   3.791  23.634   2.218
15627W        W74888  33.055   9.853  11.497
15628W        W74889   2.760  44.876  12.434
15629W        W74890  10.682  40.799   3.274
15630W        W74891   6.890  40.458   3.663
15631W        W74892  20.536  20.247   2.697
15632W        W74893  18.743  36.565   4.797
15633W        W74894  38.534  11.659   3.789
15634W        W74895  32.962  11.369  14.901
15635W        W74896  20.641   9.195  10.515
15636W        W74897  33.898  24.985   3.167
15637W        W74898  22.613   5.900  14.985
15638W        W74899  15.630  32.090  13.472
15639W        W74900  25.203   9.236   0.249
15640W        W74901  27.165  30.137   4.642
15641W        W74902  24.575  27.155   2.254
15642W        W74903  41.452  32.415   2.363
15643W        W74904  34.074   8.659  14.318
15644W        W74905  19.693  31.528   0.328
15645W        W74906  30.117  41.876  13.527
15646W        W74907   1.277   2.260  11.122
15647W        W74908  24.608  38.030   0.896
15648W        W74909   8.238   8.818   0.881
15649W        W74910   1.324  20.097   4.710
15650W        W74911   2.794  42.335   4.643
15651W        W74912  17.154  21.119  13.317
15652W        W74913  31.457  42.404  11.440
15653W        W74914  17.090  31.080   5.179
15654W        W74915  10.149  31.434  12.473
15655W        W74916  14.235   9.315   3.272
15656W        W74917  27.605   9.656   4.224
15657W        W74918  12.291  30.658   0.958
15658W        W74919  23.166   7.689   0.409
15659W        W74920  29.062  32.464  12.092
15660W        W74921  18.192  21.629   3.330
15661W        W74922   6.855  43.903  12.559
15662W        W74923  35.943  39.501   4.292
15663W        W74924  15.232  31.615  11.090
15664W        W74925  32.014  32.626   3.701
15665W        W74926  23.095  21.044   4.661
15666W        W74927  38.007   5.926  10.592
15667W        W74928  34.611  20.244   3.315
15668W        W74929   3.248  38.408  14.365
15669W        W74930  26.575  40.387   0.925
15670W        W74931  27.611  24.665   4.235
15671W        W74932  36.093   7.692  11.492
15672W        W74933  25.517  35.976  11.933
15673W        W74934  31.110  38.041  12.547
15674W        W74935  33.128  39.529  11.945
15675W        W74936  42.378   3.723  11.548
15676W        W74937  27.019  40.529  12.402
15677W        W74938  33.424  37.971  12.522
15678W        W74939  15.736  32.076   2.755
15679W        W74940  12.322  41.985   2.264
15680W        W74941  24.209  34.120  13.355
15681W        W74942  25.514  29.485  14.416
15682W        W74943  27.517  21.681  11.449
15683W        W74944   8.323  44.338   0.377
15684W        W74945  13.215  14.817  13.856
15685W        W74946   9.847  27.689   3.768
15686W        W74947  40.820  17.672   1.288
15687W        W74948   6.693  22.540  14.410
15688W        W74949  38.015  11.329  14.478
15689W        W74950  26.052  32.068   1.264
15690W        W74951  35.574  16.283  12.506
15691W        W74952  38.508  24.022  12.554
15692W        W74953  23.611  35.575   0.326
15693W        W74954  15.724  16.738   2.860
15694W        W74955  26.541  43.401   2.852
15695W        W74956  12.782  29.106  10.538
15696W        W74957  32.620  10.665   4.206
15697W        W74958  33.042  17.798  14.499
15698W        W74959  36.860  34.404  11.604
15699W        W74960  23.063  30.968   3.751
15700W        W74961  21.045  10.763  14.406
15701W        W74962   7.362  33.930  13.439
15702W        W74963  43.776   5.292  11.027
15703W        W74964  43.961  43.322  11.982
15704W        W74965  33.617  23.121   3.199
15705W        W74966  31.101  11.758   0.469
15706W        W74967   2.759   1.343   2.207
15707W        W74968  23.078  14.167   1.934
15708W        W74969  14.268  23.990  10.899
15709W        W74970  35.524  37.054   1.752
15710W        W74971  39.893  33.604   1.843
15711W        W74972  18.219  27.645  14.275
15712W        W74973   1.280  14.111  11.996
15713W        W74974  23.067  26.163  11.873
15714W        W74975   5.325  31.042  12.021
15715W        W74976  18.121   1.813   0.935
15716W        W74977   0.378  27.120   4.295
15717W        W74978  32.960  14.731  11.390
15718W        W74979  37.852  28.616  12.452
15719W        W74980  30.962  36.501  12.483
15720W        W74981  25.602  23.162  10.962
15721W        W74982  39.423  20.684   2.723
15722W        W74983  38.012  23.143   1.226
15723W        W74984  31.477  32.522  11.982
15724W        W74985  17.139   4.772  13.939
15725W        W74986   6.819  38.462   3.347
15726W        W74987  38.057  26.197  13.793
15727W        W74988  34.913   9.649  10.635
15728W        W74989  14.769  29.624   2.398
15729W        W74990  30.928  32.633  14.373
15730W        W74991  27.116  10.783  14.336
15731W        W74992  37.470   7.882  13.503
15732W        W74993   0.926   1.483  13.398
15733W        W74994   3.401  19.629   4.244
15734W        W74995  21.620  23.012   4.717
15735W        W74996  27.053  26.585   4.295
15736W        W74997  12.666  28.054  12.524
15737W        W74998   4.410  29.618  11.057
15738W        W74999  33.123  36.391   0.395
15739W        W75000   8.831   0.826  14.842
15740W        W75001  20.174  28.066   2.900
15741W        W75002   4.799   5.232   4.201
15742W        W75003  21.025  10.362  12.394
15743W        W75004  26.683  11.328  12.043
15744W        W75005  37.436  13.633  10.925
15745W        W75006   4.394   3.887   1.887
15746W        W75007  34.377   2.887   1.292
15747W        W75008  29.999  16.610   0.413
15748W        W75009   4.237  37.990   0.322
15749W        W75010  34.563   9.207   2.270
15750W        W75011  32.907  15.778  12.985
15751W        W75012  12.204   7.302  13.856
15752W        W75013  27.658  20.250  10.449
15753W        W75014  14.294  30.434  11.948
15754W        W75015  25.030   3.930  11.941
15755W        W75016  26.157   6.390   3.376
15756W        W75017  13.311  11.695  14.992
15757W        W75018  24.147   2.310   2.337
15758W        W75019   5.215  27.499   1.807
15759W        W75020  24.186  42.878   0.347
15760W        W75021  26.126  44.996  12.082
15761W        W75022  12.769  16.179  14.768
15762W        W75023  41.029  29.011  11.005
15763W        W75024   6.897  22.146   0.468
15764W        W75025  38.048  12.713   1.426
15765W        W75026  16.644  10.168  12.544
15766W        W75027  18.266  19.698  13.524
15767W        W75028   8.402  17.739   2.345
15768W        W75029  27.528  24.497   1.917
15769W        W75030  41.864   9.224  11.026
15770W        W75031  20.078  37.941  12.041
15771W        W75032  27.473  30.422  14.775
15772W        W75033  42.953  24.623  10.508
15773W        W75034  17.650   0.337   3.712
15774W        W75035  37.042  12.743  13.052
15775W        W75036   0.802   3.946  10.523
15776W        W75037  41.856  32.611  12.067
15777W        W75038  35.916  26.032  14.440
15778W        W75039   8.389  10.660   0.895
15779W        W75040   0.342   8.710  13.899
15780W        W75041   8.253   1.781   0.399
15781W        W75042  20.177  44.815  12.429
15782W        W75043  36.377  12.232   4.714
15783W        W75044  31.463  20.140   1.423
15784W        W75045  22.244  29.556  13.814
15785W        W75046  22.614  21.581  14.454
15786W        W75047  24.633  26.117  13.480
15787W        W75048  20.688  41.376  12.856
15788W        W75049  41.992  14.181   0.745
15789W        W75050   5.230  29.149   0.916
15790W        W75051  28.022  34.079  12.857
15791W        W75052  15.329  10.738   1.746
15792W        W75053  22.730   2.822  13.479
15793W        W75054  35.934  12.331  12.487
15794W        W75055  13.726  12.653  10.551
15795W        W75056   1.465  12.834  14.842
15796W        W75057  43.462  30.461   1.237
15797W        W75058  42.796   8.702  14.017
15798W        W75059  28.496   3.269  11.536
15799W        W75060  12.690  32.424  10.949
15800W        W75061  28.454  33.406   0.270
15801W        W75062  29.568  38.348  12.947
15802W        W75063   9.858  26.618  10.547
15803W        W75064  19.604  29.439   0.757
15804W        W75065  39.835   2.723  11.446
15805W        W75066  34.982  23.144  14.943
15806W        W75067   2.942  33.935   0.804
15807W        W75068  35.405  12.848   3.225
15808W        W75069   5.727  31.047   3.360
15809W        W75070  23.068   1.383   4.808
15810W        W75071  30.975  12.307   2.673
15811W        W75072  32.093  34.060   5.113
15812W        W75073  11.674  36.564   3.688
15813W        W75074  38.820   9.655  14.441
15814W        W75075  39.550  38.919   0.828
15815W        W75076  41.786  44.491   9.984
15816W        W75077  38.449  40.885  13.313
15817W        W75078  44.943  11.205  13.422
15818W        W75079  24.221  11.350  10.421
15819W        W75080  30.519  13.302  13.812
15820W        W75081  14.243  12.633  11.565
15821W        W75082  15.821   2.917  14.357
15822W        W75083  18.679  26.988   2.329
15823W        W75084  27.576  19.102  13.057
15824W        W75085  20.138  17.742  12.860
15825W        W75086   9.698   2.854   2.887
15826W        W75087  42.460  30.024  12.886
15827W        W75088  38.541   6.859   0.459
15828W        W75089  25.135  29.607  13.508
15829W        W75090  40.896  37.028  10.608
15830W        W75091  21.233   0.917   2.800
15831W        W75092  13.268  17.610   2.239
15832W        W75093  37.403  34.105  10.609
15833W        W75094  44.454   2.312   4.190
15834W        W75095   6.874  43.417  11.505
15835W        W75096  19.538  38.446  14.912
15836W        W75097  25.994   2.756   4.257
15837W        W75098  17.254  24.598  12.474
15838W        W75099  11.282  32.525  11.100
15839W        W75100   7.711  22.203  12.897
15840W        W75101  13.631  27.476   2.412
15841W        W75102  14.705   4.734  12.890
15842W        W75103  38.991  17.143   5.134
15843W        W75104   2.774  23.051  13.929
15844W        W75105  19.652  32.585  14.800
15845W        W75106  24.223  38.328   3.646
15846W        W75107  22.126   9.260   1.289
15847W        W75108   7.705  12.632   4.291
15848W        W75109  41.843   2.280   2.815
15849W        W75110   9.737   3.429   4.140
15850W        W75111  29.516  10.190   2.818
15851W        W75112  16.113   5.439  10.420
15852W        W75113  19.100  30.582   3.305
15853W        W75114   3.856   9.272   3.357
15854W        W75115  35.574  43.871  14.792
15855W        W75116  31.458   9.839   3.702
15856W        W75117  27.572  17.629   1.251
15857W        W75118  35.948  14.766   9.971
15858W        W75119  14.746  10.668  14.820
15859W        W75120  40.978  23.543   3.362
15860W        W75121  37.001  13.297  14.910
15861W        W75122  31.940  18.239   2.352
15862W        W75123  18.288  27.106   1.381
15863W        W75124  43.850  32.999  14.350
15864W        W75125  26.044  23.992  12.943
15865W        W75126   6.339  41.314  11.539
15866W        W75127   2.321  25.095  14.790
15867W        W75128  32.091   9.715   2.892
15868W        W75129  24.142  27.657  11.870
15869W        W75130  41.436  37.876   2.306
15870W        W75131  12.266  44.913  13.445
15871W        W75132  14.812  28.656  13.342
15872W        W75133  29.473  43.333  12.554
15873W        W75134   4.278  32.888   3.338
15874W        W75135   3.271  43.341  13.971
15875W        W75136  44.961  37.454   4.245
15876W        W75137  43.471  15.707  12.079
15877W        W75138  38.955  23.153  12.013
15878W        W75139  24.598  19.600   0.335
15879W        W75140  16.101   0.345   3.204
15880W        W75141   7.893  16.079  10.984
15881W        W75142   2.439  28.444   2.200
15882W        W75143  19.124  21.081   1.375
15883W        W75144   0.891  21.102   2.314
15884W        W75145  39.887   0.810  12.382
15885W        W75146   8.357   2.898  10.610
15886W        W75147  31.899  26.680  12.912
15887W        W75148  11.753   2.377   3.328
15888W        W75149  33.898   5.863  10.544
15889W        W75150  39.333   7.676  12.351
15890W        W75151   1.880  18.083  14.788
15891W        W75152  21.037  35.021  13.353
15892W        W75153   9.724  24.033  11.378
15893W        W75154  38.968   7.850  12.491
15894W        W75155  37.003  37.859   1.850
15895W        W75156  30.937   3.856  13.895
15896W        W75157  15.224  21.127   0.809
15897W        W75158  16.233  36.372   1.893
15898W        W75159  40.959  43.393  12.418
15899W        W75160   8.666  42.961   3.367
15900W        W75161  29.954  37.459  12.034
15901W        W75162   8.220  12.301  11.101
15902W        W75163  10.788  24.601   0.250
15903W        W75164  37.007  18.282   0.254
15904W        W75165  20.547  40.320   2.244
15905W        W75166  41.893  34.933   0.938
15906W        W75167  30.528   9.871   3.372
15907W        W75168   8.208  19.131   2.893
15908W        W75169  31.517  18.711  13.984
15909W        W75170  38.398   8.354  11.459
15910W        W75171  40.414   1.311   0.301
15911W        W75172   4.910  41.900   2.782
15912W        W75173  18.266  35.571   0.810
15913W        W75174  16.304   3.789  10.627
15914W        W75175  29.104  44.305   0.427
15915W        W75176  20.173  43.314   3.295
15916W        W75177  20.166   0.803  13.003
15917W        W75178   9.709  14.649   3.248
15918W        W75179  19.063   2.789  13.979
15919W        W75180  38.958   4.438   1.309
15920W        W75181   3.252   2.809  11.112
15921W        W75182   0.381  24.063  10.426
15922W        W75183  29.548  22.546   2.666
15923W        W75184  20.159  37.897   0.804
15924W        W75185  12.304  44.992   2.345
15925W        W75186  10.374  21.574   1.722
15926W        W75187   3.798  13.144   1.792
15927W        W75188   3.746  10.309  14.777
15928W        W75189  43.329  36.530   3.862
15929W        W75190  30.928  33.433   1.311
15930W        W75191   5.261  26.665   1.790
15931W        W75192  30.634  16.786   1.226
15932W        W75193  29.966  30.558   0.739
15933W        W75194  38.924  16.576  12.348
15934W        W75195  30.009  16.694  11.084
15935W        W75196  33.973  42.841   2.349
15936W        W75197   8.880   4.783   5.143
15937W        W75198  20.551   3.841  12.474
15938W        W75199   0.931  42.906  11.509
15939W        W75200  35.384  37.419  13.857
15940W        W75201  14.626  24.028  14.418
15941W        W75202   3.362  20.677  12.926
15942W        W75203  20.125   7.300  10.637
15943W        W75204  44.327  14.733   4.289
15944W        W75205  33.904  30.123   2.778
15945W        W75206   3.368  41.969  14.960
15946W        W75207  35.067  26.581  12.844
15947W        W75208  12.267  34.051   0.408
15948W        W75209  35.885   3.395  10.946
15949W        W75210  30.987  30.515  14.863
15950W        W75211   8.365   1.439  12.411
15951W        W75212   6.307   5.802   2.841
15952W        W75213  26.111   2.803   4.653
15953W        W75214   7.267  33.545  10.453
15954W        W75215  29.472  35.555  13.537
15955W        W75216  31.599  19.692   0.947
15956W        W75217  24.643  13.329  10.420
15957W        W75218  34.046  19.776  13.388
15958W        W75219  28.009  27.966  13.031
15959W        W75220  43.312   1.877   1.407
15960W        W75221  40.491  30.505   3.778
15961W        W75222  32.943  10.160  11.570
15962W        W75223   6.302  41.297   1.883
15963W        W75224   4.257  12.779  10.443
15964W        W75225   1.243  11.858  11.552
15965W        W75226  21.731  30.122   4.173
15966W        W75227  42.285  41.878  14.801
15967W        W75228  24.056  25.697  10.024
15968W        W75229  22.626  25.572   2.680
15969W        W75230  14.330  20.578  14.403
15970W        W75231  33.524  12.752  14.436
15971W        W75232  21.592   4.896   1.860
15972W        W75233  21.113  21.225  10.416
15973W        W75234  17.711  10.245  10.927
15974W        W75235   4.216   6.685  11.006
15975W        W75236  13.626  38.064  13.858
15976W        W75237  22.010  28.185   3.665
15977W        W75238  29.160  29.662   3.336
15978W        W75239  27.983  13.720  12.890
15979W        W75240  32.619  25.631   0.884
15980W        W75241  25.054  42.318  10.976
15981W        W75242  31.999   3.442   4.340
15982W        W75243  26.148  20.707  12.856
15983W        W75244  38.897  27.172  11.553
15984W        W75245  30.100  39.064   2.680
15985W        W75246  29.631   6.836  11.003
15986W        W75247  26.966  40.999  12.496
15987W        W75248  22.622  35.440  12.852
15988W        W75249  13.200  34.015  12.533
15989W        W75250  13.198  27.166   1.829
15990W        W75251  30.583  42.381  13.497
15991W        W75252  44.762   5.906  14.323
15992W        W75253  16.675  39.870  14.450
15993W        W75254  28.479  31.615   4.176
15994W        W75255   3.807  22.722   1.317
15995W        W75256  42.340   2.348  14.927
15996W        W75257   3.400   9.872   5.590
15997W        W75258  15.776  41.844  11.411
15998W        W75259  35.913  31.475  13.470
15999W        W75260  34.446  34.406  14.944
16000W        W75261  16.184  40.016  13.496
16001W        W75262   5.703  41.901   1.280
16002W        W75263  40.373  26.474   3.681
16003W        W75264  40.959   2.406   3.339
16004W        W75265  22.039   9.844   4.141
16005W        W75266  10.850  37.572   3.286
16006W        W75267  34.070  21.148   2.816
16007W        W75268  39.970  31.909   2.802
16008W        W75269  23.679  32.467  10.555
16009W        W75270  15.625  20.201   3.765
16010W        W75271  11.219  38.859   2.672
16011W        W75272  41.907  31.013   4.820
16012W        W75273   2.816   4.813   0.955
16013W        W75274   9.215  16.175  14.282
16014W        W75275  40.975  16.194  12.485
16015W        W75276  25.484  30.482   2.238
16016W        W75277  12.303  39.868  13.887
16017W        W75278  10.191  21.126  10.588
16018W        W75279   0.916  36.560   1.290
16019W        W75280  35.542  11.754   4.194
16020W        W75281  13.277  31.007   3.715
16021W        W75282  12.119   2.892  14.357
16022W        W75283  30.029  11.171  10.530
16023W        W75284  37.013  27.987   0.328
16024W        W75285   1.942  20.201  11.425
16025W        W75286  43.415  14.753  12.971
16026W        W75287   0.786  44.291   0.350
16027W        W75288  33.077   3.817   2.826
16028W        W75289  36.957  36.590  13.318
16029W        W75290  42.415  34.891   4.738
16030W        W75291  11.795   6.367   1.397
16031W        W75292  27.557   7.702  12.980
16032W        W75293  12.348  23.230   3.347
16033W        W75294  15.686  16.722  13.381
16034W        W75295  32.085  30.073   3.171
16035W        W75296  31.573  16.589   3.692
16036W        W75297  14.831  44.984  11.115
16037W        W75298  36.013   5.793  14.833
16038W        W75299  10.304   8.893  12.428
16039W        W75300   3.283  33.128   3.252
16040W        W75301  34.432   4.326  11.111
16041W        W75302  28.645  32.046   2.344
16042W        W75303  27.629  34.527  11.125
16043W        W75304  16.169  27.618   4.672
16044W        W75305  18.734  18.604   0.861
16045W        W75306  19.675  23.232   2.213
16046W        W75307  13.738  24.483   1.714
16047W        W75308  15.293  14.753  10.056
16048W        W75309  43.349  31.899  11.049
16049W        W75310   5.798   1.954   0.433
16050W        W75311   7.293  19.584   3.246
16051W        W75312  39.896  30.041  11.057
16052W        W75313  10.234  25.649   4.791
16053W        W75314  28.940  17.177   3.745
16054W        W75315  19.269  33.608   3.258
16055W        W75316  30.066  19.579   2.795
16056W        W75317   3.931  35.016  14.816
16057W        W75318  43.375  10.794  14.319
16058W        W75319  32.060  29.470   5.117
16059W        W75320  14.303  12.731   0.376
16060W        W75321  21.537  40.975  12.530
16061W        W75322  19.708  31.997   1.867
16062W        W75323  28.532   6.270   1.726
16063W        W75324   9.827  26.621   0.899
16064W        W75325  43.931  13.786   0.359
16065W        W75326  43.881  43.365   2.882
16066W        W75327  13.216  27.944   9.968
16067W        W75328  38.017  21.123  10.594
16068W        W75329  13.712   7.880   0.833
16069W        W75330   6.296   6.190   4.204
16070W        W75331   4.330   2.443   2.799
16071W        W75332  30.618  38.934   0.310
16072W        W75333  12.230  18.080  11.613
16073W        W75334  27.481  30.423   1.441
16074W        W75335  11.340   4.734  12.506
16075W        W75336  34.398  18.192  14.490
16076W        W75337  17.254  33.954  11.049
16077W        W75338  35.878   1.953   3.160
16078W        W75339  42.292  18.593  12.570
16079W        W75340  41.385  44.400  12.346
16080W        W75341  40.451   7.242  13.057
16081W        W75342  12.125  40.305   4.136
16082W        W75343   6.687  41.516  11.427
16083W        W75344  33.113  22.106   2.289
16084W        W75345   9.778   1.436  12.566
16085W        W75346  33.437  34.016   0.893
16086W        W75347   3.797   9.695  14.860
16087W        W75348  16.086  17.754  12.533
16088W        W75349  40.506  31.917   5.268
16089W        W75350  38.036   1.825   3.633
16090W        W75351  37.005  37.554  14.324
16091W        W75352   9.811  38.516   3.661
16092W        W75353  21.593  35.039   0.365
16093W        W75354  28.015  35.403  13.511
16094W        W75355  26.585  21.623  13.928
16095W        W75356  26.583  12.319  13.324
16096W        W75357  19.239  42.335  14.366
16097W        W75358  24.533  36.046  13.408
16098W        W75359   4.744  35.503  12.473
16099W        W75360  18.669  42.916  12.049
16100W        W75361  23.063   6.754   4.189
16101W        W75362   5.367  41.947   3.660
16102W        W75363  28.162  12.133   0.873
16103W        W75364  36.953  18.600  14.883
16104W        W75365   8.880  11.637  14.998
16105W        W75366  21.065  24.207  12.427
16106W        W75367   9.885  23.522   3.287
16107W        W75368   5.921  41.809  14.301
16108W        W75369  29.533   8.283   1.258
16109W        W75370  10.701  25.602  12.078
16110W        W75371  36.869  28.511  10.582
16111W        W75372  32.107  23.223  11.122
16112W        W75373  39.489  11.847  10.517
16113W        W75374   2.371  35.493   3.277
16114W        W75375  13.603   7.269   1.324
16115W        W75376  22.174  20.029   1.284
16116W        W75377  24.707  22.578   0.778
16117W        W75378  34.066  30.094   0.304
16118W        W75379  29.934  40.813  11.516
16119W        W75380  43.461   2.891   2.663
16120W        W75381  34.939   9.815   3.168
16121W        W75382  32.420   1.894  12.424
16122W        W75383  16.102  14.104   1.887
16123W        W75384  44.351  11.241  13.442
16124W        W75385  13.205  18.725  10.531
16125W        W75386   9.284  42.446  11.039
16126W        W75387  21.253   6.386  14.004
16127W        W75388  21.062  35.057  14.889
16128W        W75389  20.154   6.219  14.765
16129W        W75390  14.771  27.590   3.832
16130W        W75391  35.898  34.447  14.431
16131W        W75392  37.574  39.989   0.883
16132W        W75393   0.969  14.627   0.810
16133W        W75394  26.951  35.432  12.482
16134W        W75395  30.447   6.400   2.365
16135W        W75396  23.099   1.403   2.802
16136W        W75397  19.175  34.604  10.511
16137W        W75398   9.149  32.479  12.873
16138W        W75399  37.895   5.734   4.134
16139W        W75400  40.003  13.758   3.376
16140W        W75401  29.015  14.272   3.715
16141W        W75402   9.788  44.902  13.925
16142W        W75403  34.026  43.817   3.786
16143W        W75404   8.772  12.625  13.974
16144W        W75405   6.841  11.284  12.958
16145W        W75406  41.314   5.236   4.706
16146W        W75407  15.646  35.426   4.638
16147W        W75408  24.998  31.153   0.359
16148W        W75409  29.990   7.890   0.730
16149W        W75410   5.691   5.300   2.398
16150W        W75411   3.890   4.765  10.065
16151W        W75412  36.852  18.130   4.277
16152W        W75413   2.964  39.878  13.029
16153W        W75414   9.207  10.852  14.913
16154W        W75415  28.972  27.589   1.423
16155W        W75416   6.206  42.446   1.437
16156W        W75417  42.505  18.786   3.696
16157W        W75418  30.452  23.006   4.247
16158W        W75419   4.397  16.098   2.720
16159W        W75420  37.006  36.989  11.888
16160W        W75421  20.122   7.360  11.123
16161W        W75422  40.900  26.545   5.157
16162W        W75423  37.888  20.217   3.368
16163W        W75424  39.900  40.354   1.307
16164W        W75425  10.649   4.917   4.270
16165W        W75426  44.926  22.686  12.480
16166W        W75427  25.654  18.237  13.841
16167W        W75428  32.930  42.781   0.389
16168W        W75429  11.739  29.024   2.338
16169W        W75430  13.783  11.272   3.825
16170W        W75431  15.252  34.935  13.811
16171W        W75432  23.670   4.313   2.875
16172W        W75433  33.984   5.321   1.732
16173W        W75434  13.716   8.722   3.665
16174W        W75435  25.511  18.210   5.308
16175W        W75436  33.995  28.516   3.662
16176W        W75437  21.635  18.690   1.431
16177W        W75438  13.233  43.312   3.387
16178W        W75439  26.460  11.227   3.208
16179W        W75440  38.427  42.013  13.886
16180W        W75441  28.442  25.487   0.959
16181W        W75442  14.834  11.688   0.427
16182W        W75443   2.308  41.979  10.641
16183W        W75444   8.838   8.405   1.286
16184W        W75445  28.505  15.287   4.293
16185W        W75446  15.684  33.012   1.284
16186W        W75447  36.920  25.630  14.285
16187W        W75448  19.082  19.257   1.363
16188W        W75449  44.389  13.178  10.636
16189W        W75450  12.152  14.146   3.150
16190W        W75451  34.035  12.309  14.312
16191W        W75452   2.913  18.749  12.394
16192W        W75453   8.175  27.658  14.926
16193W        W75454  30.500   7.302   0.266
16194W        W75455  10.666   6.714   0.751
16195W        W75456  21.216  11.770   3.849
16196W        W75457  44.910  34.086  10.614
16197W        W75458  24.005  22.202  10.969
16198W        W75459  27.060  31.008   1.737
16199W        W75460  20.053  11.253   0.822
16200W        W75461  15.298   8.281  12.373
16201W        W75462  17.301  33.967  11.922
16202W        W75463  42.796  16.674  13.853
16203W        W75464  24.173  13.810  14.950
16204W        W75465  23.024   0.867  14.862
16205W        W75466   7.849   0.859   5.229
16206W        W75467  14.682   2.326   3.180
16207W        W75468  18.763   6.771   4.811
16208W        W75469  24.205  43.438  11.565
16209W        W75470   5.389  27.639   4.833
16210W        W75471  12.779   3.241   1.359
16211W        W75472  21.579  26.968   0.888
16212W        W75473   9.386   5.435  11.395
16213W        W75474   6.820  32.499  11.571
16214W        W75475  32.994   8.854  12.840
16215W        W75476  13.709  18.713  10.603
16216W        W75477  17.170   8.702  11.533
16217W        W75478  39.416  30.560  10.943
16218W        W75479  18.555  31.079   2.364
16219W        W75480   8.657  19.593  13.899
16220W        W75481  42.805  23.126   3.263
16221W        W75482  15.749  13.223  14.837
16222W        W75483   4.744   7.375   1.795
16223W        W75484  38.863   6.791  13.035
16224W        W75485  11.667  29.520   4.263
16225W        W75486  12.824  18.091  12.430
16226W        W75487  27.641  15.243  14.958
16227W        W75488  16.728  28.597   4.128
16228W        W75489  31.108   1.264   1.715
16229W        W75490   0.958   3.743   2.849
16230W        W75491   5.851  44.283  12.929
16231W        W75492   3.337  16.179   4.787
16232W        W75493   1.346  36.414  14.003
16233W        W75494  18.276  16.809  11.405
16234W        W75495  31.493  43.428   3.742
16235W        W75496  20.222  39.023  14.309
16236W        W75497   1.817   4.801   0.369
16237W        W75498  37.943  10.852  12.917
16238W        W75499  37.049  21.083   2.389
16239W        W75500  15.140  29.662   0.942
16240W        W75501  22.524  31.096  12.998
16241W        W75502  17.092  18.711   3.771
16242W        W75503   7.283  19.098  10.500
16243W        W75504  27.137  32.079  12.924
16244W        W75505  35.419  18.216  13.862
16245W        W75506  17.124  26.170   0.782
16246W        W75507   8.700  29.426  11.512
16247W        W75508  12.738  16.318   4.783
16248W        W75509  38.326  43.467   0.955
16249W        W75510  38.329  18.782   4.664
16250W        W75511   5.891  32.040   0.809
16251W        W75512   4.205   9.742  14.005
16252W        W75513  29.657  13.161  13.540
16253W        W75514   8.852  38.051   2.851
16254W        W75515  11.279   2.461   3.373
16255W        W75516  14.718  13.185  11.607
16256W        W75517  27.558  24.073   1.383
16257W        W75518  24.001   2.323  12.097
16258W        W75519   9.164  27.665   4.229
16259W        W75520   6.268  40.883  13.431
16260W        W75521   6.884  32.988   1.334
16261W        W75522   9.382   9.736   0.446
16262W        W75523   8.732  15.585  12.397
16263W        W75524   6.210   4.239   0.799
16264W        W75525  16.177  34.001   0.728
16265W        W75526   5.739   3.399  14.289
16266W        W75527  26.092   1.819  12.904
16267W        W75528  27.691   3.866  11.613
16268W        W75529  38.901  27.566  14.295
16269W        W75530  13.833  25.711  14.503
16270W        W75531   6.701   8.792  10.991
16271W        W75532  16.721   4.216  14.319
16272W        W75533   0.404  36.877  13.826
16273W        W75534   2.412  17.277   1.252
16274W        W75535  26.207  44.004   4.259
16275W        W75536  42.330  24.585   2.346
16276W        W75537  32.994  35.533   1.800
16277W        W75538  29.927  27.121   0.256
16278W        W75539  32.027  38.050  11.044
16279W        W75540  11.176   9.660   2.325
16280W        W75541   0.765  25.612   2.354
16281W        W75542  26.470  20.742   1.778
16282W        W75543  20.544  15.267   2.233
16283W        W75544  31.045  44.914  12.356
16284W        W75545  39.520  18.628   4.639
16285W        W75546   2.303  19.187   2.877
16286W        W75547   8.378   0.788  10.497
16287W        W75548  10.145  32.441   4.287
16288W        W75549   6.340   0.354   1.304
16289W        W75550  15.188  25.016  13.028
16290W        W75551  26.191   2.386  10.431
16291W        W75552  15.589  30.977   1.838
16292W        W75553  32.960   9.352  12.053
16293W        W75554  22.137  29.143  11.909
16294W        W75555  12.273  44.274  11.043
16295W        W75556  32.433  21.229  11.942
16296W        W75557  18.675  30.548   3.168
16297W        W75558  40.459  20.143   4.808
16298W        W75559   7.737  26.559  14.396
16299W        W75560  10.742  28.976  13.364
16300W        W75561  31.632   9.678  12.919
16301W        W75562  11.797  40.050  13.960
16302W        W75563  13.618   8.268  10.431
16303W        W75564  25.023  41.884  11.950
16304W        W75565   5.214  38.397   4.325
16305W        W75566  24.549  34.105  13.874
16306W        W75567  14.691  19.638   3.206
16307W        W75568  20.139  26.654  11.931
16308W        W75569  12.700  36.502  13.046
16309W        W75570  40.358   1.377  14.976
16310W        W75571   7.316  10.207   4.268
16311W        W75572  11.762   1.382   3.719
16312W        W75573   8.170  10.224   3.843
16313W        W75574  37.969  10.853  10.460
16314W        W75575  33.984  29.109   1.806
16315W        W75576   5.811  15.140  12.066
16316W        W75577  44.910  35.459   2.399
16317W        W75578  16.240  33.549  13.521
16318W        W75579  15.312  44.806  11.531
16319W        W75580   9.203  40.977   4.130
16320W        W75581  29.048   3.434  13.016
16321W        W75582  14.729  44.310  11.913
16322W        W75583  15.212   3.338  13.377
16323W        W75584  36.074   6.215   4.301
16324W        W75585  31.149  40.890  10.158
16325W        W75586  34.591  40.435  10.445
16326W        W75587   1.875  29.457  12.925
16327W        W75588  26.627  12.315   1.927
16328W        W75589  30.084  10.801   0.854
16329W        W75590  15.769  36.851  10.535
16330W        W75591  10.790  12.155   0.298
16331W        W75592  25.126  24.070   3.271
16332W        W75593  20.071   3.944  14.445
16333W        W75594  36.580  23.628  14.815
16334W        W75595  11.683  30.960   4.604
16335W        W75596  38.875  28.981  11.389
16336W        W75597  19.177   8.702  13.836
16337W        W75598  32.061  39.849   2.369
16338W        W75599  12.743  12.264  12.386
16339W        W75600  15.692  18.636  10.550
16340W        W75601  38.430  36.392   1.809
16341W        W75602  19.541  32.588   3.372
16342W        W75603  16.249  24.553  13.334
16343W        W75604  35.868  34.042  12.842
16344W        W75605  40.375  23.506  10.078
16345W        W75606  29.129  30.563  13.503
16346W        W75607  19.744  27.144  14.318
16347W        W75608  44.843  33.070   1.905
16348W        W75609  39.050  27.975  14.909
16349W        W75610  43.984   8.839  14.306
16350W        W75611  38.475  42.910  11.495
16351W        W75612  35.375  28.096   0.826
16352W        W75613  17.583  27.646   0.422
16353W        W75614  30.035  29.099   3.156
16354W        W75615   2.913  19.594   4.133
16355W        W75616   6.873   4.886   2.375
16356W        W75617  16.142  10.266   1.748
16357W        W75618  35.574  40.311  11.065
16358W        W75619  36.560   8.394   4.812
16359W        W75620  18.059   0.269  11.380
16360W        W75621  18.548   0.904  13.957
16361W        W75622  18.119  16.090  13.483
16362W        W75623  33.056   8.743   5.684
16363W        W75624  16.200  38.458   2.815
16364W        W75625  33.449  14.267  12.561
16365W        W75626  29.649  23.117   2.311
16366W        W75627  35.425  30.983   0.913
16367W        W75628   1.759  10.671  13.357
16368W        W75629  14.650  11.319  10.501
16369W        W75630  33.381  32.502   4.327
16370W        W75631  27.478  15.176  13.400
16371W        W75632   4.396  40.321   1.366
16372W        W75633   7.326  18.596   0.352
16373W        W75634  25.024  24.226  12.023
16374W        W75635   2.845  30.042   1.325
16375W        W75636  24.193  41.896  11.426
16376W        W75637  10.841  10.176  14.863
16377W        W75638  13.761  33.386  12.926
16378W        W75639  37.054  40.505  12.418
16379W        W75640  17.646  38.976   0.924
16380W        W75641   6.783  17.579   1.711
16381W        W75642  14.257  29.482  11.372
16382W        W75643  24.649  36.542  13.382
16383W        W75644  34.598  16.098  11.461
16384W        W75645  43.796  13.627   1.268
16385W        W75646  17.647  38.047  12.880
16386W        W75647   7.817  12.636  12.565
16387W        W75648   6.916  35.031   4.227
16388W        W75649  10.384  22.078  13.328
16389W        W75650  35.601  19.613   0.909
16390W        W75651  24.112   6.791  14.787
16391W        W75652  32.116  19.068  13.830
16392W        W75653  34.465  21.610   0.811
16393W        W75654  13.207  27.450   0.376
16394W        W75655  42.836  33.905  12.964
16395W        W75656  21.595  30.107  11.559
16396W        W75657   0.284   6.694   3.634
16397W        W75658  10.751  20.700   2.370
16398W        W75659  13.238  19.691  12.903
16399W        W75660   5.315   8.290  10.503
16400W        W75661   3.396  37.874  11.865
16401W        W75662  39.517   0.981  11.591
16402W        W75663  25.713  11.746  12.950
16403W        W75664  30.482  21.661  14.791
16404W        W75665  31.510  17.789  13.951
16405W        W75666  15.144  44.879   1.275
16406W        W75667  23.721  39.355  10.609
16407W        W75668  12.277  33.072  11.903
16408W        W75669   1.764  28.940   0.849
16409W        W75670   8.252  39.372  12.945
16410W        W75671  12.218   2.386  14.915
16411W        W75672  34.399  18.596  13.947
16412W        W75673  13.349   8.665   0.920
16413W        W75674   0.418  12.154   2.268
16414W        W75675  23.111   2.943   1.930
16415W        W75676  13.300  44.339  12.993
16416W        W75677  21.662  25.518   5.148
16417W        W75678  44.313   6.692  13.948
16418W        W75679  40.419  42.467  10.473
16419W        W75680  20.527   5.345   4.139
16420W        W75681   4.383  42.012   2.729
16421W        W75682  35.358  12.758  10.147
16422W        W75683  34.604  36.465   4.272
16423W        W75684  24.060  44.380  14.361
16424W        W75685  25.508  16.763  12.560
16425W        W75686  12.741  27.600   2.206
16426W        W75687   4.383   9.791  14.336
16427W        W75688  26.974  17.076  13.963
16428W        W75689  34.984  26.019  13.410
16429W        W75690   9.277   7.825  11.478
16430W        W75691   2.739   9.724   5.111
16431W        W75692  41.926  27.092  14.790
16432W        W75693  28.488  14.834  12.056
16433W        W75694  27.010   9.887  14.808
16434W        W75695  36.587  20.111   2.256
16435W        W75696  21.229  24.048   4.264
16436W        W75697  12.198  23.546   4.648
16437W        W75698  34.102  24.224   2.181
16438W        W75699  15.590  34.476   4.119
16439W        W75700  28.000  44.337  12.352
16440W        W75701  32.395  33.508  12.067
16441W        W75702  16.208  15.138   9.658
16442W        W75703  31.936  14.709  11.858
16443W        W75704  32.485  16.748   2.690
16444W        W75705   5.799  24.533  13.545
16445W        W75706  30.520  36.874  12.999
16446W        W75707  10.328   9.868  10.091
16447W        W75708  38.333  26.476  13.842
16448W        W75709  42.810  41.860   4.349
16449W        W75710  39.492   5.715   1.253
16450W        W75711  26.613  10.873   1.261
16451W        W75712   0.828  38.928   9.949
16452W        W75713  22.190  28.036   2.762
16453W        W75714  35.506  37.954  12.006
16454W        W75715  31.532   5.847  14.498
16455W        W75716  16.195  15.271   5.575
16456W        W75717  22.522  16.585   1.378
16457W        W75718  21.615   0.291  13.404
16458W        W75719  27.105  23.510  13.057
16459W        W75720   3.900  40.850  10.945
16460W        W75721  36.079  16.624  14.324
16461W        W75722  34.410  18.681  11.581
16462W        W75723   5.208  17.182  11.073
16463W        W75724   4.934  35.878  10.078
16464W        W75725  39.030   0.856  13.894
16465W        W75726   8.270  25.204  12.835
16466W        W75727  11.631  36.531  12.900
16467W        W75728  40.883  35.443   9.590
16468W        W75729   8.299  24.618  14.787
16469W        W75730  37.395  32.391   4.169
16470W        W75731  29.613   3.854  10.437
16471W        W75732  15.656  26.033   2.396
16472W        W75733  16.139  18.074   1.384
16473W        W75734   4.896  37.036  13.502
16474W        W75735  40.480  44.335  11.995
16475W        W75736  30.587  30.019  10.627
16476W        W75737  25.668  37.956   4.747
16477W        W75738  25.004  42.440   2.879
16478W        W75739  20.122  43.769  13.473
16479W        W75740  43.461  15.193   1.809
16480W        W75741   5.817  14.757  14.997
16481W        W75742  37.062  22.068  11.590
16482W        W75743   8.686  34.956   0.785
16483W        W75744  30.047  16.589   3.329
16484W        W75745   0.797  22.550  14.932
16485W        W75746  10.345   6.902  10.116
16486W        W75747  40.908   6.709   1.395
16487W        W75748   1.395   4.345   2.411
16488W        W75749  29.591   5.238  14.937
16489W        W75750  29.646  11.687   0.796
16490W        W75751  41.917   6.187   1.445
16491W        W75752  36.524  16.162  12.833
16492W        W75753  36.410  34.459   9.951
16493W        W75754  42.931   2.966   2.346
16494W        W75755  40.490  30.995   4.119
16495W        W75756  37.901   7.891  11.416
16496W        W75757  41.392  35.052   1.449
16497W        W75758  30.097  34.400  14.821
16498W        W75759  42.307  15.638   3.190
16499W        W75760   5.431  19.722   0.453
16500W        W75761  35.930  29.550  10.478
16501W        W75762  21.540  28.035  13.802
16502W        W75763  15.274  30.539   2.237
16503W        W75764  30.136  43.009  13.316
16504W        W75765  15.198  26.111   1.861
16505W        W75766  26.161  40.960  13.540
16506W        W75767  29.947   5.235  13.513
16507W        W75768   4.329  20.124  10.988
16508W        W75769   7.399  41.923  13.063
16509W        W75770  43.483  40.846   3.264
16510W        W75771  30.109  14.139   0.325
16511W        W75772   5.808  19.219   0.885
16512W        W75773  18.274  44.305  10.952
16513W        W75774  29.970  17.664  13.346
16514W        W75775  39.962   8.276   0.261
16515W        W75776  31.490   8.304   0.923
16516W        W75777  33.450  32.055   0.884
16517W        W75778  37.383   9.203   1.859
16518W        W75779  10.356  12.192   3.218
16519W        W75780  37.991  39.056  14.023
16520W        W75781  17.189   1.748   1.743
16521W        W75782  24.084  27.057   5.301
16522W        W75783  39.380  34.436   1.791
16523W        W75784   2.720  32.556   2.892
16524W        W75785  33.972  13.173   2.672
16525W        W75786  34.946   6.312  13.843
16526W        W75787  37.460  26.190   4.340
16527W        W75788  30.007  27.590   0.351
16528W        W75789  31.112  39.472  12.403
16529W        W75790   8.371  27.060  12.825
16530W        W75791  32.550   5.755  13.939
16531W        W75792  41.356  36.920  11.456
16532W        W75793  12.251  29.947  10.958
16533W        W75794  29.451   0.422   4.598
16534W        W75795  18.238   6.274  12.050
16535W        W75796  15.580   3.834   2.888
16536W        W75797  44.493   4.342   1.442
16537W        W75798  22.698  38.991  14.835
16538W        W75799  16.695  10.369  13.456
16539W        W75800  24.633   0.387   1.774
16540W        W75801  12.656  10.382  12.899
16541W        W75802  18.554  23.675  10.424
16542W        W75803  19.656  26.097  13.830
16543W        W75804   0.334  22.506   0.337
16544W        W75805  37.556   4.443  13.816
16545W        W75806  10.718  32.466   3.202
16546W        W75807   8.748   1.852  10.569
16547W        W75808  24.707  13.274   1.424
16548W        W75809   2.238  14.324   3.761
16549W        W75810  28.114  14.119   2.771
16550W        W75811  13.306   5.362  11.104
16551W        W75812  44.988  32.005   1.300
16552W        W75813  24.213  40.443   1.925
16553W        W75814  23.111  34.110  12.539
16554W        W75815  13.233  38.391  10.977
16555W        W75816  17.572  31.026  14.837
16556W        W75817  10.635  43.514   4.684
16557W        W75818  36.098  12.152  13.907
16558W        W75819   8.870  23.501  11.100
16559W        W75820   8.228   2.790   3.220
16560W        W75821   9.852   7.830  12.852
16561W        W75822  10.323  15.278  13.401
16562W        W75823  12.789   9.872  10.939
16563W        W75824  29.038  28.943   1.257
16564W        W75825  10.380  11.664  14.507
16565W        W75826  40.473  39.993   2.839
16566W        W75827  34.514   0.836   1.714
16567W        W75828  25.133  20.702   2.838
16568W        W75829   1.401   9.215  12.088
16569W        W75830  41.315  41.482  10.473
16570W        W75831  30.586   6.416  12.383
16571W        W75832   5.379  10.866   5.698
16572W        W75833  30.486  20.634  14.781
16573W        W75834   1.871  44.362  11.523
16574W        W75835  35.016  28.583  12.343
16575W        W75836  41.345  26.665  11.513
16576W        W75837  40.838   5.813  12.471
16577W        W75838  26.522  35.072  11.401
16578W        W75839  20.197  30.559  13.962
16579W        W75840  39.834  10.280  11.496
16580W        W75841  15.771   1.477  13.834
16581W        W75842  15.312  16.303   1.789
16582W        W75843  35.037  27.100  11.486
16583W        W75844  40.004  44.972  10.997
16584W        W75845  44.352  17.267  10.062
16585W        W75846  10.655   0.261  12.374
16586W        W75847  40.389  17.172   3.261
16587W        W75848  44.891  22.632  10.520
16588W        W75849   2.454  40.026  10.579
16589W        W75850  21.030  38.567   2.701
16590W        W75851  30.523  36.414   1.288
16591W        W75852  43.424   3.373   0.948
16592W        W75853   9.752  30.633  13.427
16593W        W75854   1.351  17.665  12.355
16594W        W75855  37.955  16.797  10.503
16595W        W75856  35.436  38.388  14.324
16596W        W75857  21.562  28.472  14.381
16597W        W75858  30.939  37.831  13.360
16598W        W75859   7.769  17.243  12.063
16599W        W75860   8.705  36.444  14.367
16600W        W75861   0.915  29.573   1.429
16601W        W75862   0.359  32.949  13.812
16602W        W75863  25.686   4.437  12.343
16603W        W75864  22.238  21.039   0.763
16604W        W75865  19.050   1.401   0.474
16605W        W75866  16.785   2.833   5.620
16606W        W75867  14.676  34.016   1.752
16607W        W75868  29.941  41.855  10.483
16608W        W75869  11.664   9.261   4.332
16609W        W75870  33.997  21.602  10.970
16610W        W75871  32.499  40.440  12.041
16611W        W75872   7.850  36.589   0.255
16612W        W75873  26.199   7.747  11.087
16613W        W75874  20.160  17.078   4.202
16614W        W75875  20.112  35.885   2.350
16615W        W75876  42.971  34.376   4.654
16616W        W75877   9.727  15.800   2.377
16617W        W75878  35.901  36.536   4.346
16618W        W75879  40.861  18.683  12.540
16619W        W75880  16.648  23.674   0.895
16620W        W75881  15.160  30.611  11.129
16621W        W75882  38.438  11.165   2.355
16622W        W75883  35.469  43.861  12.932
16623W        W75884  10.291   3.764   1.293
16624W        W75885  24.521  18.611  14.310
16625W        W75886  13.298   3.928   3.708
16626W        W75887  27.946   9.356  11.408
16627W        W75888  24.523  12.342  14.939
16628W        W75889  38.893  41.455   1.214
16629W        W75890  27.543  10.164   3.339
16630W        W75891  15.134  28.509   2.240
16631W        W75892  42.306  16.099   2.198
16632W        W75893   3.840  25.132   5.252
16633W        W75894  34.090   7.372   0.360
16634W        W75895  13.255  28.104   0.375
16635W        W75896  35.927  15.314   4.324
16636W        W75897   5.315   3.864   4.114
16637W        W75898   8.297  26.587  10.902
16638W        W75899  23.222  20.266  10.575
16639W        W75900  18.261  11.228  12.832
16640W        W75901  29.551  19.138  14.353
16641W        W75902  13.221   0.420   1.301
16642W        W75903  14.164  37.921  14.004
16643W        W75904  41.795   3.891  14.812
16644W        W75905  43.885  22.596   3.739
16645W        W75906  42.378  32.971  12.434
16646W        W75907  11.738  29.021  12.939
16647W        W75908  23.689   1.466   2.716
16648W        W75909  34.409  12.767  11.859
16649W        W75910  35.509  37.019   0.307
16650W        W75911  17.230  20.722   2.756
16651W        W75912  36.557  20.763   3.772
16652W        W75913  35.018  35.029   5.298
16653W        W75914   1.356   3.254  14.326
16654W        W75915  24.505  11.190  13.506
16655W        W75916  35.407  15.671   0.451
16656W        W75917  28.997   9.764  12.034
16657W        W75918  28.944  21.579  11.540
16658W        W75919  14.771   2.790  11.984
16659W        W75920   3.392  40.527  14.344
16660W        W75921  37.019   9.868   4.320
16661W        W75922   0.952  18.109   2.319
16662W        W75923  27.041  29.551  13.331
16663W        W75924  34.971   2.464  11.470
16664W        W75925  20.185  41.849  12.823
16665W        W75926  27.957  10.792  10.963
16666W        W75927  32.931  22.146   2.797
16667W        W75928   5.812  36.588  11.404
16668W        W75929   9.805   1.831   1.329
16669W        W75930  26.084   6.345  12.953
16670W        W75931   3.258  34.603   0.271
16671W        W75932  16.655  27.000   0.469
16672W        W75933  24.602  17.060   3.235
16673W        W75934  34.452  39.987  13.900
16674W        W75935  36.846  18.701   1.827
16675W        W75936  18.569   4.246   1.780
16676W        W75937   8.696  31.590  13.519
16677W        W75938   2.836   8.259  14.944
16678W        W75939  24.085   4.215  14.365
16679W        W75940  37.484  30.457  14.842
16680W        W75941  14.831  31.469  11.885
16681W        W75942  34.867  43.999  14.979
16682W        W75943  36.357   4.297   0.841
16683W        W75944  12.314   9.877   2.797
16684W        W75945   7.246  39.496   4.803
16685W        W75946  12.260  15.721  11.940
16686W        W75947  43.343  19.551  13.364
16687W        W75948  12.216  41.902  10.540
16688W        W75949  19.074  14.745  11.060
16689W        W75950  24.138  12.816   0.873
16690W        W75951   1.976  17.251  10.515
16691W        W75952  17.283   4.821  10.933
16692W        W75953  20.527  43.327  14.427
16693W        W75954  38.372   8.775   5.129
16694W        W75955  10.163  34.603   4.836
16695W        W75956   1.478  43.284   0.281
16696W        W75957  12.197  40.523   4.702
16697W        W75958  25.147  40.527  13.307
16698W        W75959  39.880  44.403   3.257
16699W        W75960  30.573  40.881   2.407
16700W        W75961   1.406  37.411   3.218
16701W        W75962  10.820  15.810   1.762
16702W        W75963   6.325  18.107  10.635
16703W        W75964   9.174   3.281   9.986
16704W        W75965  15.728  22.669  10.452
16705W        W75966  17.147  30.066  11.894
16706W        W75967  17.667  43.826  14.907
16707W        W75968  30.648  22.501  12.865
16708W        W75969  24.030  23.538   1.235
16709W        W75970  23.505   6.390   2.671
16710W        W75971  30.151   3.903   1.785
16711W        W75972  41.797  37.979  12.090
16712W        W75973  38.476  41.448   4.125
16713W        W75974  29.457  21.213  10.085
16714W        W75975  43.021  33.118   4.716
16715W        W75976   3.779  33.072  14.897
16716W        W75977  31.134  22.613  12.078
16717W        W75978   2.825  29.142   2.703
16718W        W75979   2.358  20.082   2.411
16719W        W75980   6.697   8.218  13.059
16720W        W75981  36.558  38.933   0.338
16721W        W75982  33.097  24.225  10.428
16722W        W75983  43.271   0.981  10.923
16723W        W75984  34.019  37.480   3.365
16724W        W75985   2.918   3.742   4.129
16725W        W75986  39.395  25.543   3.319
16726W        W75987   8.684  43.943  13.924
16727W        W75988  18.736  29.122  13.805
16728W        W75989  16.227  25.076   2.337
16729W        W75990  18.247  19.136  13.020
16730W        W75991  28.435  42.811  10.943
16731W        W75992  27.194  24.578   3.824
16732W        W75993  29.037  16.182   4.746
16733W        W75994  39.945  25.474  14.801
16734W        W75995  40.827  32.908   9.973
16735W        W75996  27.559  36.351  12.570
16736W        W75997  21.604  17.278   2.692
16737W        W75998  41.487  15.244   3.849
16738W        W75999  41.978  26.685   4.601
16739W        W76000  28.602   7.233  10.547
16740W        W76001  21.024  27.978  12.024
16741W        W76002  25.991  35.945   3.277
16742W        W76003   6.191  21.632  14.822
16743W        W76004  32.002  39.526  11.107
16744W        W76005  43.344  37.468   2.285
16745W        W76006  12.321  42.937   3.806
16746W        W76007  27.487   5.222   1.354
16747W        W76008  35.366  39.927   1.815
16748W        W76009  12.619  43.406  14.430
16749W        W76010  10.824  29.157   2.761
16750W        W76011  13.245  17.116  14.835
16751W        W76012   8.728  38.445  11.990
16752W        W76013  35.568   8.197  11.123
16753W        W76014  21.514  11.233   2.238
16754W        W76015  41.504  15.614  11.012
16755W        W76016   9.766  13.350   0.730
16756W        W76017   7.718  15.178   1.210
16757W        W76018   4.745  10.735   2.234
16758W        W76019  10.648  40.455  12.368
16759W        W76020  30.990   3.329   2.312
16760W        W76021  24.586  41.351   4.163
16761W        W76022   7.414  14.306  11.919
16762W        W76023  42.401  12.155  11.099
16763W        W76024  39.892  12.164  14.006
16764W        W76025  40.903  25.206   1.304
16765W        W76026  43.793  42.335   4.613
16766W        W76027  27.071  36.550  13.347
16767W        W76028  31.637  44.896  10.957
16768W        W76029  43.380   3.294   2.386
16769W        W76030  14.241  25.116  12.952
16770W        W76031  40.513  32.042   4.655
16771W        W76032  16.262  34.550  12.023
16772W        W76033  22.638  36.003  13.491
16773W        W76034  20.550   2.947   1.336
16774W        W76035  29.441  25.644   0.471
16775W        W76036  44.453  23.519  14.984
16776W        W76037  30.629  28.053   2.736
16777W        W76038   9.382  41.945   3.862
16778W        W76039  20.158  12.336  13.901
16779W        W76040   5.871  17.100   2.778
16780W        W76041  21.551  27.477   2.399
16781W        W76042  16.161   6.748   4.713
16782W        W76043   9.805  12.262   4.169
16783W        W76044   2.300  26.628  11.119
16784W        W76045  11.729  31.015  11.448
16785W        W76046   0.911  41.861   9.963
16786W        W76047  37.859  19.280   0.407
16787W        W76048   2.462  23.676   2.797
16788W        W76049   9.208  35.417   2.400
16789W        W76050   7.743  30.075  13.871
16790W        W76051  33.404  34.117  13.896
16791W        W76052  11.339  13.639  14.792
16792W        W76053  22.650   7.823  10.896
16793W        W76054  23.221  35.911   2.211
16794W        W76055  13.632  11.766   3.776
16795W        W76056  44.443  29.500  12.556
16796W        W76057  34.448  18.564  14.880
16797W        W76058  21.121  12.666  11.528
16798W        W76059  35.469  18.724  12.843
16799W        W76060  20.211   0.412   4.273
16800W        W76061  14.262   9.258  10.620
16801W        W76062  34.487  24.126  11.976
16802W        W76063  25.660  19.082   4.336
16803W        W76064  38.871  15.579  11.993
16804W        W76065   9.199  17.215   2.795
16805W        W76066  21.747  19.560   4.633
16806W        W76067  12.744  11.765  13.855
16807W        W76068  28.952   2.424   2.853
16808W        W76069  19.145   8.403  14.421
16809W        W76070   8.672  37.917   3.865
16810W        W76071  33.433  11.143   0.957
16811W        W76072  35.937  24.179   0.958
16812W        W76073  28.602  31.988  10.423
16813W        W76074  18.137  40.442  11.541
16814W        W76075  30.135  10.699  12.533
16815W        W76076  34.510   2.765  10.567
16816W        W76077  33.578  38.034  12.987
16817W        W76078   4.343  44.303  10.618
16818W        W76079  43.316   2.796   2.189
16819W        W76080  11.351  15.084   2.304
16820W        W76081  28.038  41.330   4.688
16821W        W76082  33.450  22.145   0.419
16822W        W76083  30.497  23.558  11.014
16823W        W76084   3.850  22.599   4.698
16824W        W76085  43.504   6.696  12.994
16825W        W76086  10.250  26.474   4.237
16826W        W76087  29.106  14.323   2.366
16827W        W76088  12.656  23.010   3.652
16828W        W76089   4.443  11.234  13.373
16829W        W76090  30.121  21.118   4.626
16830W        W76091  22.075   9.190   4.651
16831W        W76092   7.763  20.654  13.352
16832W        W76093  32.429  32.118   0.372
16833W        W76094  19.571  36.555  11.980
16834W        W76095  22.207  44.495  11.447
16835W        W76096  13.162  27.091   3.242
16836W        W76097  44.845  25.019   2.729
16837W        W76098  18.630  29.159   0.299
16838W        W76099  15.315   4.351   9.967
16839W        W76100  44.916  33.606  10.072
16840W        W76101  24.067  34.027  11.596
16841W        W76102  44.360  37.838  14.315
16842W        W76103  43.391  11.826  12.569
16843W        W76104  41.804  34.020   1.424
16844W        W76105  24.709   8.751  14.503
16845W        W76106  39.814  25.978  12.832
16846W        W76107  42.309  40.376   0.806
16847W        W76108  11.857   1.824  10.927
16848W        W76109  14.143  26.977  14.325
16849W        W76110  29.576  19.590   3.267
16850W        W76111  43.431  36.930  14.822
16851W        W76112   8.696  20.765   3.708
16852W        W76113  39.345  37.084  11.947
16853W        W76114   6.701  38.897   2.327
16854W        W76115  32.916  20.530  11.007
16855W        W76116  21.241   8.221  12.901
16856W        W76117  44.383  22.029  13.981
16857W        W76118   2.721  10.280   2.298
16858W        W76119  18.062  12.638   2.378
16859W        W76120  22.064  10.849  14.333
16860W        W76121  29.068  41.442  12.565
16861W        W76122  20.192  25.140  11.984
16862W        W76123  18.768  18.574  11.876
16863W        W76124  26.194  34.537  14.853
16864W        W76125  32.068  12.698   0.802
16865W        W76126   9.699  43.881  14.275
16866W        W76127  35.481   3.392  11.012
16867W        W76128  22.089  30.591   3.751
16868W        W76129  35.588  35.411  13.405
16869W        W76130  27.468  37.476  11.911
16870W        W76131  18.073   1.277   2.804
16871W        W76132   6.909  42.838  12.391
16872W        W76133  21.716  29.169   4.680
16873W        W76134  18.120   9.809  12.342
16874W        W76135  13.769   7.416  11.565
16875W        W76136   2.266  18.064  13.977
16876W        W76137  13.838  15.313   4.674
16877W        W76138   6.412  42.356   4.832
16878W        W76139  35.922  28.077  12.572
16879W        W76140  39.017  23.621   3.168
16880W        W76141  30.575  32.912   4.766
16881W        W76142  33.091  37.526  13.981
16882W        W76143  33.053  12.148  11.597
16883W        W76144   9.655  29.987  13.949
16884W        W76145  38.850  36.025   5.660
16885W        W76146  27.460   8.814   0.940
16886W        W76147  33.497   7.267  11.116
16887W        W76148  21.616  25.050  14.351
16888W        W76149  31.599  20.583  13.380
16889W        W76150  11.359  24.088  10.580
16890W        W76151  23.001  35.033  14.403
16891W        W76152  12.208   5.312  12.355
16892W        W76153  10.370  38.541  13.880
16893W        W76154  10.230  23.077  14.870
16894W        W76155  40.347   3.936   2.242
16895W        W76156  27.644  38.835  11.611
16896W        W76157  35.411   6.237  11.901
16897W        W76158  16.201  14.822   3.707
16898W        W76159  11.318  36.858  12.074
16899W        W76160  33.391  22.511  14.481
16900W        W76161  21.679  43.824  14.921
16901W        W76162  29.549  32.983   0.283
16902W        W76163  15.731   7.414  11.411
16903W        W76164   5.327  11.622  13.902
16904W        W76165  31.116   2.766   4.298
16905W        W76166   5.814  44.915   1.377
16906W        W76167  26.084  23.617   3.783
16907W        W76168  15.588  31.422   4.760
16908W        W76169  16.188  21.177  13.483
16909W        W76170  15.590   6.851   1.223
16910W        W76171  22.528  25.563  11.908
16911W        W76172   5.198  38.892  12.543
16912W        W76173  26.033   5.710   4.746
16913W        W76174   2.894  16.754  11.396
16914W        W76175  27.032   2.726   4.745
16915W        W76176  11.827   7.389  10.484
16916W        W76177  17.749  18.572  10.962
16917W        W76178  32.070  41.352   0.876
16918W        W76179  12.761  29.659   2.845
16919W        W76180   4.336  19.773   1.218
16920W        W76181  31.461  19.672   2.825
16921W        W76182  32.410  10.176   1.430
16922W        W76183   1.239  22.114   0.766
16923W        W76184  13.308   6.738  14.497
16924W        W76185  17.759  41.965   3.333
16925W        W76186  10.754  35.463  14.916
16926W        W76187   1.348   0.850   4.146
16927W        W76188  22.594  38.913  12.523
16928W        W76189  13.681  14.274   9.920
16929W        W76190  38.936  30.657  10.963
16930W        W76191  23.078  23.018   2.676
16931W        W76192   1.349   7.756  11.892
16932W        W76193  43.403  26.075  14.357
16933W        W76194  34.029  34.426   2.399
16934W        W76195  25.543  17.692   1.385
16935W        W76196  39.474  26.626  10.552
16936W        W76197  40.925  21.650   2.265
16937W        W76198  20.568  27.661   2.880
16938W        W76199  38.049  19.162   4.762
16939W        W76200   9.322  14.325   4.216
16940W        W76201  24.029   6.325   2.872
16941W        W76202  32.612  29.622  11.029
16942W        W76203   3.391  27.648   4.820
16943W        W76204  33.064   1.421   3.263
16944W        W76205   9.300  33.556   4.704
16945W        W76206   7.369  13.845  12.935
16946W        W76207  25.126  35.966  13.016
16947W        W76208  31.948  15.681   4.318
16948W        W76209  41.930  18.111   1.451
16949W        W76210  10.664   1.931   3.381
16950W        W76211  22.646  44.269  10.142
16951W        W76212   2.756  22.516   3.330
16952W        W76213   2.374   1.824  10.552
16953W        W76214   2.272  19.091   3.843
16954W        W76215  28.529  19.244  12.511
16955W        W76216  37.973  41.390   1.919
16956W        W76217   6.906  29.044   4.123
16957W        W76218  22.079  20.070  10.631
16958W        W76219  27.582  36.854   0.885
16959W        W76220  28.509  30.997  10.609
16960W        W76221   8.793  28.948  14.876
16961W        W76222   2.848   8.277  14.290
16962W        W76223  23.539  38.434   4.735
16963W        W76224  19.555  43.011   2.689
16964W        W76225  14.773  23.662   1.220
16965W        W76226  34.075  29.097   2.234
16966W        W76227  26.022  34.101   1.427
16967W        W76228  37.877   1.315  13.382
16968W        W76229  32.454  38.988  10.446
16969W        W76230   5.319  30.964   1.702
16970W        W76231  15.684   0.319   3.275
16971W        W76232  21.070  41.994  14.455
16972W        W76233  12.711   3.882   2.257
16973W        W76234   6.308   9.841   2.804
16974W        W76235   1.464  31.958  13.026
16975W        W76236  32.490  40.892  13.853
16976W        W76237  22.567  44.973  14.837
16977W        W76238  13.263  34.565  10.096
16978W        W76239  30.540  29.110   4.691
16979W        W76240  17.662  17.580   5.766
16980W        W76241  23.999  10.679  13.509
16981W        W76242   8.668  39.988  13.431
16982W        W76243  41.534  22.726  14.832
16983W        W76244  26.546  29.138   3.762
16984W        W76245  11.687  26.016  12.480
16985W        W76246  16.212  34.028   1.713
16986W        W76247  23.568  28.990  11.585
16987W        W76248   4.225  16.197   2.281
16988W        W76249  21.061  13.809  14.910
16989W        W76250   0.317  10.715   3.722
16990W        W76251  13.792  34.940  14.401
16991W        W76252  36.001  12.342   2.822
16992W        W76253   7.834  23.504  13.874
16993W        W76254   0.797  11.626  14.294
16994W        W76255  30.107  15.100   4.730
16995W        W76256  28.634   2.721  12.503
16996W        W76257   8.271  42.869   3.675
16997W        W76258  30.977  14.830  13.806
16998W        W76259  25.171   0.930  13.845
16999W        W76260   6.251  22.248   2.890
17000W        W76261  20.105  37.380  11.408
17001W        W76262   3.804  33.924   0.903
17002W        W76263  37.400  30.494   1.264
17003W        W76264  32.436   8.877  11.460
17004W        W76265   5.401  28.035  10.518
17005W        W76266  34.606  27.082   2.838
17006W        W76267  27.074  12.155  13.328
17007W        W76268   3.290   8.326   3.372
17008W        W76269   0.945  39.517   1.872
17009W        W76270  29.623  39.046  11.911
17010W        W76271   4.854  35.960  12.373
17011W        W76272  27.023  42.468  12.420
17012W        W76273  28.170  15.226  13.827
17013W        W76274  15.166  21.243  14.507
17014W        W76275  26.693  25.519  14.378
17015W        W76276  44.941  29.552  12.913
17016W        W76277  12.816  41.413  11.859
17017W        W76278   4.419   0.430  12.505
17018W        W76279  26.459   5.872   4.123
17019W        W76280  14.277  16.207   2.296
17020W        W76281   7.361   2.450   3.631
17021W        W76282  27.129   7.181   5.157
17022W        W76283  26.464   0.320   3.374
17023W        W76284  19.243  18.705   4.609
17024W        W76285   8.311  19.126  12.925
17025W        W76286   9.331  38.430   3.236
17026W        W76287  28.040  19.571   2.844
17027W        W76288  31.500  29.116   4.292
17028W        W76289  19.130   1.369  10.480
17029W        W76290  36.485  20.576   1.416
17030W        W76291  29.454  25.698   3.693
17031W        W76292  33.501  17.129  11.872
17032W        W76293  14.688  35.429  13.912
17033W        W76294  30.142  11.345   1.822
17034W        W76295   4.754  35.458  11.029
17035W        W76296  40.488   0.831  11.547
17036W        W76297  42.965  10.361  10.426
17037W        W76298  10.139  29.655  12.476
17038W        W76299   6.232  35.503  14.952
17039W        W76300  40.448  16.708   3.791
17040W        W76301  34.093  39.052  13.050
17041W        W76302   3.372  42.965  12.966
17042W        W76303   4.896  23.086   1.779
17043W        W76304  11.173  11.860   1.904
17044W        W76305   9.322  34.435  11.439
17045W        W76306  43.923   1.320   2.681
17046W        W76307  26.032  26.540  13.509
17047W        W76308  32.105  20.251   2.374
17048W        W76309  11.268  43.010  10.485
17049W        W76310  36.932  27.606  12.030
17050W        W76311  10.214  44.395   4.811
17051W        W76312  17.291   8.744   3.739
17052W        W76313   6.411  35.511   1.251
17053W        W76314   9.216  13.787  14.275
17054W        W76315   8.268   4.332   2.321
17055W        W76316   1.785  28.658  14.407
17056W        W76317   0.815   2.372   4.115
17057W        W76318  15.788  27.178  11.095
17058W        W76319  25.602  44.350  12.844
17059W        W76320   0.757  26.499  10.081
17060W        W76321   4.206  24.714  11.575
17061W        W76322  20.145  23.599   9.984
17062W        W76323  16.772   0.452   2.246
17063W        W76324  30.636  20.035  14.304
17064W        W76325  42.861  34.461  12.070
17065W        W76326   8.865   5.372  14.869
17066W        W76327  32.099  10.270  12.581
17067W        W76328  36.355  39.531  13.430
17068W        W76329  26.613  34.955   2.801
17069W        W76330  42.507  16.237  11.018
17070W        W76331  17.690   2.299  10.492
17071W        W76332  22.691  10.275  13.407
17072W        W76333  30.419  18.211  13.407
17073W        W76334  14.098  15.215   3.306
17074W        W76335   9.296  33.600   3.683
17075W        W76336  16.252  34.903  14.453
17076W        W76337   8.670  19.617  11.978
17077W        W76338   1.737  30.523  14.014
17078W        W76339  33.546   7.392   3.666
17079W        W76340  44.895  34.509   2.209
17080W        W76341  38.873   3.784  13.988
17081W        W76342  18.671  25.670   4.816
17082W        W76343  16.189  31.456  11.867
17083W        W76344  22.087   5.750   3.311
17084W        W76345  39.442  39.553  10.065
17085W        W76346   3.907  28.647   2.699
17086W        W76347  18.154  15.118   1.930
17087W        W76348  24.974  22.167  13.379
17088W        W76349  11.350   3.248  12.092
17089W        W76350  40.462  14.192   1.802
17090W        W76351  39.016  31.571   4.789
17091W        W76352  41.304  41.825   2.255
17092W        W76353  27.070  21.077   1.345
17093W        W76354   3.451   7.330   1.449
17094W        W76355  36.526   2.386   1.364
17095W        W76356  30.515   5.353   4.800
17096W        W76357  11.305  16.140   1.912
17097W        W76358  28.123  13.282  13.922
17098W        W76359   4.309  25.013   3.825
17099W        W76360  11.797   3.882   2.180
17100W        W76361  25.981  22.742  11.477
17101W        W76362  35.935   0.819  13.548
17102W        W76363  38.921  35.950  14.508
17103W        W76364   1.445   7.253   1.762
17104W        W76365  32.447   1.831   3.325
17105W        W76366  17.578  16.605   4.225
17106W        W76367  24.684  37.476  11.508
17107W        W76368  34.966  10.785   3.361
17108W        W76369  24.675  30.480   2.280
17109W        W76370   9.825  36.961  13.440
17110W        W76371  14.218  10.250  12.473
17111W        W76372  32.625   0.965   0.881
17112W        W76373  13.629  44.886   0.266
17113W        W76374  43.401  24.188   0.426
17114W        W76375   4.750  13.341   2.847
17115W        W76376  33.978  15.094  13.347
17116W        W76377  24.662  17.162   2.186
17117W        W76378  23.635  41.441  12.902
17118W        W76379  34.380  19.770   0.786
17119W        W76380   7.344   5.234   2.387
17120W        W76381  11.759   7.810   2.847
17121W        W76382  19.638  39.960  12.874
17122W        W76383  24.498   8.677   2.267
17123W        W76384  29.489  21.653  13.402
17124W        W76385  27.653  32.995  14.796
17125W        W76386  16.776  12.704   1.747
17126W        W76387   7.242  39.853   1.817
17127W        W76388   5.210  14.125  13.049
17128W        W76389  19.085  43.943  13.529
17129W        W76390  28.118  43.838  10.010
17130W        W76391  29.582  19.139  11.548
17131W        W76392  11.751  10.793   2.873
17132W        W76393  26.012  33.874  11.960
17133W        W76394  25.630  15.221   1.303
17134W        W76395   3.296   7.867   1.399
17135W        W76396  24.211  43.324   1.445
17136W        W76397  44.836   4.431   2.369
17137W        W76398  20.252  23.184   5.574
17138W        W76399  25.638  41.434  13.436
17139W        W76400  31.950  22.101  11.058
17140W        W76401  40.374   6.842  13.416
17141W        W76402  24.680   4.393  11.464
17142W        W76403   1.380  22.049   4.145
17143W        W76404  13.769  25.651  12.529
17144W        W76405  23.106  16.075  10.904
17145W        W76406   0.744  42.518  13.307
17146W        W76407  26.165  20.552  10.478
17147W        W76408  25.500  15.609  11.965
17148W        W76409   0.451   6.284   4.201
17149W        W76410   7.805  39.452  10.489
17150W        W76411  41.955  25.156  11.384
17151W        W76412  34.088  34.934   2.694
17152W        W76413  38.955  25.570   4.310
17153W        W76414  38.942   8.845  11.965
17154W        W76415  25.202  18.186   2.220
17155W        W76416  12.740  29.969  13.988
17156W        W76417   3.276  19.218   1.727
17157W        W76418  40.311   4.750   2.247
17158W        W76419  17.676  37.990  14.408
17159W        W76420   5.241  21.020   2.844
17160W        W76421  24.500   0.748  13.872
17161W        W76422  10.337  22.744  10.605
17162W        W76423  40.494  40.509   9.964
17163W        W76424   3.460  38.373  12.875
17164W        W76425  19.252  15.228   1.875
17165W        W76426   0.821  18.753   3.368
17166W        W76427  16.592   7.877  14.374
17167W        W76428  16.127  21.583   0.327
17168W        W76429   9.834  38.551  14.841
17169W        W76430  22.653  43.802   2.751
17170W        W76431  15.796  11.788  12.045
17171W        W76432  36.883  22.165  12.506
17172W        W76433  23.074  17.611   2.816
17173W        W76434  12.334  18.546  11.078
17174W        W76435  10.216   5.439  14.005
17175W        W76436  29.155   9.698   0.426
17176W        W76437  28.622  10.191  13.028
17177W        W76438  14.774   3.420  12.876
17178W        W76439   6.198  42.452  13.006
17179W        W76440  14.616  21.220  13.426
17180W        W76441  15.321  31.595   4.206
17181W        W76442  36.007  37.972   3.346
17182W        W76443  41.330  34.438   4.770
17183W        W76444  12.126   8.750  13.957
17184W        W76445   5.289  43.421  11.998
17185W        W76446  14.285  10.643  10.528
17186W        W76447   1.919  30.988   1.363
17187W        W76448   6.374   4.928   2.784
17188W        W76449   5.279   3.743  13.389
17189W        W76450  23.734  39.962   3.204
17190W        W76451  10.281   3.424   9.445
17191W        W76452  32.438  15.614  14.489
17192W        W76453  44.772  34.484   1.828
17193W        W76454  41.017  34.446  13.490
17194W        W76455  29.598  23.047   3.746
17195W        W76456   0.462  12.678   2.380
17196W        W76457  33.955  26.129   1.301
17197W        W76458   7.885  36.532  13.511
17198W        W76459  34.888  34.438  11.420
17199W        W76460  38.435  15.818   9.923
17200W        W76461  39.532   9.294  12.445
17201W        W76462  17.567  22.578  14.292
17202W        W76463  34.994  40.323   0.816
17203W        W76464  33.924   7.241  13.820
17204W        W76465   5.743   1.288   3.842
17205W        W76466  21.540   9.650   3.361
17206W        W76467  36.567  41.032  10.424
17207W        W76468  42.010  34.031  13.496
17208W        W76469  43.512  22.043   0.475
17209W        W76470   6.794  28.152   3.192
17210W        W76471  20.593  10.726  11.997
17211W        W76472   4.323  21.614  11.899
17212W        W76473  39.468  20.664   1.319
17213W        W76474  27.182   5.795  13.345
17214W        W76475  16.574  36.554   1.388
17215W        W76476  13.720  30.464  14.868
17216W        W76477  37.872   7.691  13.453
17217W        W76478   7.381  30.964   3.376
17218W        W76479  35.083  15.677  14.478
17219W        W76480  15.587  42.487   0.346
17220W        W76481  19.216   1.265   0.754
17221W        W76482   0.391  37.396   2.694
17222W        W76483  21.539  33.885   0.804
17223W        W76484  32.595  29.060   1.881
17224W        W76485  35.071  39.532   1.732
17225W        W76486  27.017  44.462  14.998
17226W        W76487  18.079  39.393   4.676
17227W        W76488  24.025   0.757  13.962
17228W        W76489  24.720  18.243   1.398
17229W        W76490  32.051   2.349   2.414
17230W        W76491  33.498  28.182  14.982
17231W        W76492  24.006   7.276   2.793
17232W        W76493  32.457  21.651  14.022
17233W        W76494  17.760  30.582   2.674
17234W        W76495   7.838  12.248  10.559
17235W        W76496  34.118  28.622   4.787
17236W        W76497   7.764  26.121   0.257
17237W        W76498  21.756   4.754   2.782
17238W        W76499  10.287  33.049  13.342
17239W        W76500   2.353  10.696  12.834
17240W        W76501  14.245  34.998   1.791
17241W        W76502  14.744  34.573  14.012
17242W        W76503  15.683  40.982  12.480
17243W        W76504  37.972  14.293   4.649
17244W        W76505  29.525  32.066   2.196
17245W        W76506  17.673  16.198   2.855
17246W        W76507  39.492  39.057  13.796
17247W        W76508  35.029  29.076  14.769
17248W        W76509  12.842  15.284   2.268
17249W        W76510  31.628  25.034  12.414
17250W        W76511  29.920  33.526  11.464
17251W        W76512  21.700  18.251  14.885
17252W        W76513  30.069  27.942  14.870
17253W        W76514  13.324  38.890  11.530
17254W        W76515  39.331  32.945  12.339
17255W        W76516   1.776  29.669   2.736
17256W        W76517  41.344  18.713   0.386
17257W        W76518  24.054  37.055  12.402
17258W        W76519  27.510  44.498  13.833
17259W        W76520  18.637  38.400   1.362
17260W        W76521   7.681   2.833  14.393
17261W        W76522  33.515  27.115   2.715
17262W        W76523  20.267  19.614   2.342
17263W        W76524  43.422  36.526   2.320
17264W        W76525  43.428  26.001   0.875
17265W        W76526   7.236  41.042  14.461
17266W        W76527  14.191   1.765   4.330
17267W        W76528  40.004  13.240  10.961
17268W        W76529   7.703  12.278  12.407
17269W        W76530  44.980   7.241   3.833
17270W        W76531  32.584  25.186  12.048
17271W        W76532  31.917   6.691   5.284
17272W        W76533   3.943  30.493  10.062
17273W        W76534  39.817  24.134   1.699
17274W        W76535  12.647   6.348   0.379
17275W        W76536   2.438   0.775  14.480
17276W        W76537  19.167  26.509  13.360
17277W        W76538   3.753  33.515   1.696
17278W        W76539  43.462  16.739  13.859
17279W        W76540  42.898  40.376   4.662
17280W        W76541  35.974  19.639   4.710
17281W        W76542   3.922   8.776  12.556
17282W        W76543   7.316  14.669   1.357
17283W        W76544  18.254  10.845  11.520
17284W        W76545  31.475  40.939   3.256
17285W        W76546  36.970  16.581  14.882
17286W        W76547   4.834   6.355   4.299
17287W        W76548  26.479  44.360   1.732
17288W        W76549  35.978  16.119   1.420
17289W        W76550  42.342  30.591   4.179
17290W        W76551  17.772  12.778   4.824
17291W        W76552   8.362   1.945   3.191
17292W        W76553  35.385  40.488  10.113
17293W        W76554   4.832  32.545   3.209
17294W        W76555  37.446  41.814  10.504
17295W        W76556  41.372  21.030   0.800
17296W        W76557  13.184  27.501   1.706
17297W        W76558  21.747  22.550  12.409
17298W        W76559  39.408  30.542  12.049
17299W        W76560  24.564  14.824   3.640
17300W        W76561  18.161  32.443  12.482
17301W        W76562  14.299  10.241   3.807
17302W        W76563  26.142  30.972   4.701
17303W        W76564  14.191   7.351  13.950
17304W        W76565  30.919   0.490  11.375
17305W        W76566  25.712  28.090  12.909
17306W        W76567  34.952  19.113  13.319
17307W        W76568  35.966   8.213  14.018
17308W        W76569  33.093   5.196  13.345
17309W        W76570  15.812  27.517   3.785
17310W        W76571   8.170  24.702   2.392
17311W        W76572  24.510   8.891  11.001
17312W        W76573   9.161  11.729   1.412
17313W        W76574  39.324  24.682   1.342
17314W        W76575  41.004  29.944   3.215
17315W        W76576  10.735  41.962   1.776
17316W        W76577  41.474  27.100  13.966
17317W        W76578  17.305  33.023   1.352
17318W        W76579  17.180  41.322   0.924
17319W        W76580   7.907  29.535  11.424
17320W        W76581  18.247  39.897  11.046
17321W        W76582  27.006  31.986   4.742
17322W        W76583   1.302  25.694  13.968
17323W        W76584  19.208  11.180   4.632
17324W        W76585  34.925  23.065  11.415
17325W        W76586   6.852   4.825  12.955
17326W        W76587  25.701  10.811   2.370
17327W        W76588   5.413   2.882   4.141
17328W        W76589  38.968  42.420  13.953
17329W        W76590  44.270  39.457   0.264
17330W        W76591   2.296  18.274   5.100
17331W        W76592  15.580   8.854  12.363
17332W        W76593  25.534   6.385   0.405
17333W        W76594   2.440  12.146   1.803
17334W        W76595  35.975  29.148  13.542
17335W        W76596  17.152  26.179   4.725
17336W        W76597  28.636  20.526   2.666
17337W        W76598   2.898  14.161  10.505
17338W        W76599  21.204   6.750  11.542
17339W        W76600   7.325   6.380  10.945
17340W        W76601  37.070  35.970  13.851
17341W        W76602  16.246  42.394   0.273
17342W        W76603   2.415  35.041   1.434
17343W        W76604  31.505  27.026  14.904
17344W        W76605  17.262  10.321   3.282
17345W        W76606  39.008  32.436   5.227
17346W        W76607  38.869  42.846   2.733
17347W        W76608  15.755  14.810  12.004
17348W        W76609  24.188  28.634   4.352
17349W        W76610   2.288   5.749   0.861
17350W        W76611   7.308   9.356   5.242
17351W        W76612  41.351  10.166   1.753
17352W        W76613  16.219  14.639  12.037
17353W        W76614   7.790  43.304   4.262
17354W        W76615  28.559  19.770   1.357
17355W        W76616   7.813  14.174   1.225
17356W        W76617  43.985  17.221   2.232
17357W        W76618  24.536   8.266   3.745
17358W        W76619  38.513   2.445   2.835
17359W        W76620  16.303   1.895  10.541
17360W        W76621  39.927   4.856  12.580
17361W        W76622  33.077  41.960  14.349
17362W        W76623   7.323  34.877   3.667
17363W        W76624   0.311   9.185   3.804
17364W        W76625  36.371  34.975   5.117
17365W        W76626   9.744   5.871   1.836
17366W        W76627  17.748   9.775  14.898
17367W        W76628  11.151  44.377   4.605
17368W        W76629   7.187  15.797   2.845
17369W        W76630  25.119  35.468  14.494
17370W        W76631  14.185   1.822  12.073
17371W        W76632  11.628  34.940   4.244
17372W        W76633   0.348  27.636   1.315
17373W        W76634  15.120  17.134   4.224
17374W        W76635  41.999   7.759  13.874
17375W        W76636  20.204   6.853  12.473
17376W        W76637   1.782  24.540   3.629
17377W        W76638  36.349  12.144   2.797
17378W        W76639  18.280  19.228   3.799
17379W        W76640  15.736  34.585   3.213
17380W        W76641   1.392   9.671  13.327
17381W        W76642  33.573  26.047  13.538
17382W        W76643  44.972  34.063  11.069
17383W        W76644  19.135  17.229   2.745
17384W        W76645   4.275  18.560   0.464
17385W        W76646   3.910  40.533   0.255
17386W        W76647  14.807  25.546  14.476
17387W        W76648  15.809   0.834   4.235
17388W        W76649  27.142   1.739   3.763
17389W        W76650   2.930  31.551  13.533
17390W        W76651  15.592  12.179   3.796
17391W        W76652  39.864   7.730   4.160
17392W        W76653  40.845   5.851   3.693
17393W        W76654   4.244   1.434   3.173
17394W        W76655   4.716  23.653  13.518
17395W        W76656   3.299  37.431  12.019
17396W        W76657  10.804  33.422  13.993
17397W        W76658  15.700  28.978  12.914
17398W        W76659  14.183  38.951   1.730
17399W        W76660  44.447  13.644   3.387
17400W        W76661  26.572  31.037  14.855
17401W        W76662  40.803   4.878  12.432
17402W        W76663  33.054  43.830  12.980
17403W        W76664  10.170  29.474   9.974
17404W        W76665  13.639  36.918  14.886
17405W        W76666  38.932  30.552   0.291
17406W        W76667  44.776  13.228   3.682
17407W        W76668  24.615  42.397   2.316
17408W        W76669  14.810  38.953  12.928
17409W        W76670  23.130   4.790   2.740
17410W        W76671  38.821   0.304  13.878
17411W        W76672   9.745   5.796   2.843
17412W        W76673  44.414   9.387  12.993
17413W        W76674   0.905  31.647   0.884
17414W        W76675   6.184   2.785  13.053
17415W        W76676  24.095  16.629  14.927
17416W        W76677  44.468  17.250   1.854
17417W        W76678   8.746  41.839   4.119
17418W        W76679  28.514  35.538  13.528
17419W        W76680  23.067  34.578  14.844
17420W        W76681  40.427   7.690   1.230
17421W        W76682  40.373   8.300   2.399
17422W        W76683  19.675  33.457   3.791
17423W        W76684  34.542  26.539  11.017
17424W        W76685   1.838  37.503  13.481
17425W        W76686   6.331  12.822   3.765
17426W        W76687  24.491  41.507  10.958
17427W        W76688   4.265  22.681   1.367
17428W        W76689  42.844  29.988  14.458
17429W        W76690  33.498  27.659  13.024
17430W        W76691  25.137  31.583   1.395
17431W        W76692   3.390  20.743   2.290
17432W        W76693  10.744   9.866   1.379
17433W        W76694  23.597  40.954   2.215
17434W        W76695  25.005  28.980   0.788
17435W        W76696  14.821  38.511  14.975
17436W        W76697   2.336  38.500  14.860
17437W        W76698   1.934  33.619   1.236
17438W        W76699  12.183  36.848   4.165
17439W        W76700  42.828   5.198   2.773
17440W        W76701   2.808  18.723   2.295
17441W        W76702   5.920  32.117  11.404
17442W        W76703  19.117   1.308  12.823
17443W        W76704  27.194   2.245   3.760
17444W        W76705  22.560  43.287   4.148
17445W        W76706  12.288  26.100  11.378
17446W        W76707  29.496  29.564   4.200
17447W        W76708  43.307  19.592  12.553
17448W        W76709  12.133  22.688  11.121
17449W        W76710  30.656  38.505   2.222
17450W        W76711  10.667  21.226  14.806
17451W        W76712  36.853   9.657   2.844
17452W        W76713  39.369   5.379  14.420
17453W        W76714   8.378  31.049  12.432
17454W        W76715  29.669   2.253  12.966
17455W        W76716  29.019  44.838   3.816
17456W        W76717   6.209  10.217  11.527
17457W        W76718  42.860   9.697   0.731
17458W        W76719  25.599  19.693  11.399
17459W        W76720  36.969  20.565   4.703
17460W        W76721  14.166  32.083  11.975
17461W        W76722   5.808   4.795   0.827
17462W        W76723  14.206  16.663  14.985
17463W        W76724  14.743  44.334  14.468
17464W        W76725   8.365  43.905  14.384
17465W        W76726  44.499  37.456  10.454
17466W        W76727  14.179   6.780   0.859
17467W        W76728   3.916  42.978  14.284
17468W        W76729  12.753  36.923  10.618
17469W        W76730  27.169  41.002   0.872
17470W        W76731  39.897  41.489  10.613
17471W        W76732  18.647  13.266  14.028
17472W        W76733  19.625  19.774   1.426
17473W        W76734  23.691  17.256  13.969
17474W        W76735  23.727  10.763   2.344
17475W        W76736  29.962  13.156   0.411
17476W        W76737  35.603   6.701  11.119
17477W        W76738  23.179  39.021  14.012
17478W        W76739   3.954   5.863   1.825
17479W        W76740  17.121  27.052  14.421
17480W        W76741  33.542  42.362  13.915
17481W        W76742  27.689  16.199  12.470
17482W        W76743  20.157  31.543   4.217
17483W        W76744  31.052  38.468  12.570
17484W        W76745  16.101  24.533  11.573
17485W        W76746  38.465  37.446   2.249
17486W        W76747   7.862  15.728   1.766
17487W        W76748  21.633  30.582   3.796
17488W        W76749  38.347  31.016   2.665
17489W        W76750  27.497  17.727   2.681
17490W        W76751   6.418  20.707   3.188
17491W        W76752  12.174   5.781  11.053
17492W        W76753  41.885  39.815  11.102
17493W        W76754  42.929   4.843  13.058
17494W        W76755  30.555  39.364  14.902
17495W        W76756  25.651  24.544   0.328
17496W        W76757   5.933  16.101   0.344
17497W        W76758  24.589  39.432   2.260
17498W        W76759  13.667   8.714   5.190
17499W        W76760   1.281  27.093   1.304
17500W        W76761  31.577   8.329   4.626
17501W        W76762  26.193  37.532  10.143
17502W        W76763  25.019   0.821   0.796
17503W        W76764   2.261   8.888   2.181
17504W        W76765  14.778  24.680  12.472
17505W        W76766   3.722  29.493  12.867
17506W        W76767   0.797   6.221   4.698
17507W        W76768  29.025   6.790  13.005
17508W        W76769  35.468  27.593  14.421
17509W        W76770  14.783  27.095  12.042
17510W        W76771  44.844  36.396  11.507
17511W        W76772  15.121  35.359  11.062
17512W        W76773  26.999   6.197  10.990
17513W        W76774  18.129   6.284   0.877
17514W        W76775  35.376   1.780   2.741
17515W        W76776  21.645  44.958  13.004
17516W        W76777  17.167  31.112  11.991
17517W        W76778   6.915  43.301   3.742
17518W        W76779   5.331  21.169   2.231
17519W        W76780  22.542  34.985   1.448
17520W        W76781  33.936  29.515  11.585
17521W        W76782  26.036  43.316   3.869
17522W        W76783   6.916  24.700   3.760
17523W        W76784  39.490  22.109  14.347
17524W        W76785   4.440  10.266  13.029
17525W        W76786  23.183   4.897   0.809
17526W        W76787  14.731  16.172   0.271
17527W        W76788  34.096  31.612   2.752
17528W        W76789  29.021  14.648  10.464
17529W        W76790  15.726  22.095  11.932
17530W        W76791  12.731  35.476   0.378
17531W        W76792  19.604  23.572   3.673
17532W        W76793  41.295  32.034   4.744
17533W        W76794   5.756  39.402  14.288
17534W        W76795  15.706  36.538  11.038
17535W        W76796  25.113   4.700  11.106
17536W        W76797  19.225   0.830   1.303
17537W        W76798  39.388  28.582  14.011
17538W        W76799  40.360  10.227   0.346
17539W        W76800  13.327   7.801   3.790
17540W        W76801  32.026   0.381   0.816
17541W        W76802   5.932  32.893   1.921
17542W        W76803  21.158  42.330  14.898
17543W        W76804  32.567  37.882   2.262
17544W        W76805   6.344  21.246  12.457
17545W        W76806  15.233   5.777   0.453
17546W        W76807  18.691   1.958   1.416
17547W        W76808   0.422  13.129  11.449
17548W        W76809   9.195   3.733  12.996
17549W        W76810  28.992   1.302   1.322
17550W        W76811  28.072   1.397  11.476
17551W        W76812  40.497  33.520   1.838
17552W        W76813  37.989  41.982   4.673
17553W        W76814  29.140   1.749   2.376
17554W        W76815  38.355  31.981  14.302
17555W        W76816  42.938   9.170   5.136
17556W        W76817   8.659  23.520  12.567
17557W        W76818  27.625   6.830   2.379
17558W        W76819   6.915  31.423   1.342
17559W        W76820   8.291  16.812  13.545
17560W        W76821  18.645  20.735   0.798
17561W        W76822  17.115  16.769   0.312
17562W        W76823  41.458  29.542   1.832
17563W        W76824  20.731  30.607   0.742
17564W        W76825  36.084  44.982  14.861
17565W        W76826  44.386  25.152  14.457
17566W        W76827  42.893  15.303  13.383
17567W        W76828  28.556  40.950   3.364
17568W        W76829  28.018  36.545   1.221
17569W        W76830  17.764   1.303   2.187
17570W        W76831   8.790   3.354  10.986
17571W        W76832  27.479  34.101   9.656
17572W        W76833  10.665  17.571   3.806
17573W        W76834  14.609   8.292  14.795
17574W        W76835  26.668  26.962   4.710
17575W        W76836  16.293   0.307   2.314
17576W        W76837  37.996  16.183  11.603
17577W        W76838  28.986  27.502   2.899
17578W        W76839   5.740   1.832  13.048
17579W        W76840  21.190  13.705  12.867
17580W        W76841   6.182   5.914   1.715
17581W        W76842  23.235   8.844  11.066
17582W        W76843   5.899  38.017   1.369
17583W        W76844  35.098  38.468  14.291
17584W        W76845   8.380  19.724  12.073
17585W        W76846  42.398  24.091   2.850
17586W        W76847  16.811   8.338  13.839
17587W        W76848   9.351  30.462   1.398
17588W        W76849  42.816  23.652   4.623
17589W        W76850  19.110   2.857   2.197
17590W        W76851  19.627   3.422   2.870
17591W        W76852   7.851  15.583   9.945
17592W        W76853  21.158  28.929  10.546
17593W        W76854  38.517  39.513   2.728
17594W        W76855  36.465  12.255  14.928
17595W        W76856  10.803  26.531   0.479
17596W        W76857  41.347  14.214   3.746
17597W        W76858  19.243   7.235  10.465
17598W        W76859  33.429  21.690   3.314
17599W        W76860  22.650   0.756  12.905
17600W        W76861  26.111  12.339  13.797
17601W        W76862   1.832  21.212  14.907
17602W        W76863  16.601  16.649  12.457
17603W        W76864  33.973  37.019  14.829
17604W        W76865   9.172  11.816   2.765
17605W        W76866   3.321  10.776   1.930
17606W        W76867  28.457  24.222   3.258
17607W        W76868  16.709   2.770  12.010
17608W        W76869  42.942  27.981   4.837
17609W        W76870  23.027  12.360   2.708
17610W        W76871  24.980  15.793  13.805
17611W        W76872  20.598  16.672  12.073
17612W        W76873  31.430  44.876  13.016
17613W        W76874   2.420   4.810  13.329
17614W        W76875  26.076   5.422  12.463
17615W        W76876  35.403   5.408   0.293
17616W        W76877  40.481  11.790   3.256
17617W        W76878  38.548   4.805   2.351
17618W        W76879  39.843  10.339  13.419
17619W        W76880  43.450  38.981   0.415
17620W        W76881  19.619  33.973   1.313
17621W        W76882  17.296  14.701  14.346
17622W        W76883   5.720  28.665   0.464
17623W        W76884  13.299  34.578  12.048
17624W        W76885   5.394  39.950  10.998
17625W        W76886  20.599  16.239   1.736
17626W        W76887   8.813  21.154   1.877
17627W        W76888  29.519   4.831  12.573
17628W        W76889  18.093  44.340   1.380
17629W        W76890  16.616   9.804   3.236
17630W        W76891  26.051  24.223  11.514
17631W        W76892  11.183   2.868  14.279
17632W        W76893   6.899  43.385  14.333
17633W        W76894   8.230  29.472   0.387
17634W        W76895  30.982  22.118  11.097
17635W        W76896   4.809   3.241   2.378
17636W        W76897  41.363  13.258   0.481
17637W        W76898  20.256  43.011  12.559
17638W        W76899  18.114  37.940   4.149
17639W        W76900  21.555  37.479  12.485
17640W        W76901  21.260  21.246  14.897
17641W        W76902  23.066  27.116   2.703
17642W        W76903  35.437  42.292   5.683
17643W        W76904  14.765  35.991  10.890
17644W        W76905  21.065   2.391   3.630
17645W        W76906   5.326   6.712   2.740
17646W        W76907  22.718  14.705   3.639
17647W        W76908  29.525  39.874  10.099
17648W        W76909  33.034  41.349   0.751
17649W        W76910   7.371  28.537   0.832
17650W        W76911  17.584  37.078  11.405
17651W        W76912  22.065   6.742  13.482
17652W        W76913  11.854  11.191  12.516
17653W        W76914  42.795   9.308  10.464
17654W        W76915  42.920  14.326  12.014
17655W        W76916  31.074  24.624   4.778
17656W        W76917  42.430  30.995   0.469
17657W        W76918   5.396  43.288   3.255
17658W        W76919  20.269  34.444   2.323
17659W        W76920  14.306  10.224   2.809
17660W        W76921  24.666  11.276   0.847
17661W        W76922  22.742  37.473  11.937
17662W        W76923  25.614  36.062   3.768
17663W        W76924  18.671  10.774  14.773
17664W        W76925   2.731   5.293  10.626
17665W        W76926  33.053  11.321  12.427
17666W        W76927  26.635   9.352   3.670
17667W        W76928  33.057  14.782  12.892
17668W        W76929  30.452   4.350  11.027
17669W        W76930  28.133  22.655  13.028
17670W        W76931  37.048  19.054   0.417
17671W        W76932  43.917  27.096   0.866
17672W        W76933  30.133  28.540  14.350
17673W        W76934  11.302   1.343  13.424
17674W        W76935   1.403  21.192  12.500
17675W        W76936  12.749  19.565   2.782
17676W        W76937   3.373  28.003  10.625
17677W        W76938  16.725  33.126   3.368
17678W        W76939  44.979  27.982  10.080
17679W        W76940  24.990  39.470  11.425
17680W        W76941   1.282  20.736   2.204
17681W        W76942   0.362  19.117   0.449
17682W        W76943   9.280  40.384   3.820
17683W        W76944  19.046  33.064   0.389
17684W        W76945  18.056  20.683   2.839
17685W        W76946   5.420  22.241   2.262
17686W        W76947  39.913   4.901  10.417
17687W        W76948  43.916   6.806  12.369
17688W        W76949  33.937  21.081   4.191
17689W        W76950  37.928   2.305   4.317
17690W        W76951  42.974  41.986  11.525
17691W        W76952   5.767  34.570   4.122
17692W        W76953  31.588   3.774  11.595
17693W        W76954  14.823  16.775   5.185
17694W        W76955  24.647  11.717  10.469
17695W        W76956  36.918  34.118  11.124
17696W        W76957  12.315  44.455   3.653
17697W        W76958  27.997  14.174  12.009
17698W        W76959  21.086   0.872  12.498
17699W        W76960  24.974  31.540  13.377
17700W        W76961  35.900  31.147  14.980
17701W        W76962  15.193  18.596  11.013
17702W        W76963  13.635  15.704   3.853
17703W        W76964  10.204  16.737   0.775
17704W        W76965  22.724   3.737   3.356
17705W        W76966  42.341  13.142   1.277
17706W        W76967  13.161  15.124   4.804
17707W        W76968  24.514   4.303  14.393
17708W        W76969   7.275  34.963   4.762
17709W        W76970  18.201  30.948   0.400
17710W        W76971  18.549  21.562  12.087
17711W        W76972  25.496  17.291  13.997
17712W        W76973  12.294  32.029  13.514
17713W        W76974  43.771   6.825   0.827
17714W        W76975  16.151  17.138  14.373
17715W        W76976  43.010  10.152  11.453
17716W        W76977   6.401  16.128   3.805
17717W        W76978  39.515  37.529   2.260
17718W        W76979  32.115  13.786   2.236
17719W        W76980   1.373   4.409  12.859
17720W        W76981  11.750  36.543  13.939
17721W        W76982  34.009   4.749  13.993
17722W        W76983  36.392  43.515   2.290
17723W        W76984  44.278  19.735  10.493
17724W        W76985   2.363  41.453   3.293
17725W        W76986  23.127  17.572   2.335
17726W        W76987  13.163   2.258   2.288
17727W        W76988   4.320  30.912   3.839
17728W        W76989   1.360  32.000   3.176
17729W        W76990  33.058  30.534   3.238
17730W        W76991   4.276  43.945  14.442
17731W        W76992   6.375  37.068   3.837
17732W        W76993   5.901  31.016   0.452
17733W        W76994  31.517  44.878  10.599
17734W        W76995   5.854   6.921   5.313
17735W        W76996   6.771  31.055  13.816
17736W        W76997  16.658  44.777  10.944
17737W        W76998   8.288  33.430   0.472
17738W        W76999  39.864  22.660  13.421
17739W        W77000   0.884  17.224  10.986
17740W        W77001   5.861  41.940   2.757
17741W        W77002   8.255  31.620   2.293
17742W        W77003  22.122  28.665  10.940
17743W        W77004  16.813   2.242   2.202
17744W        W77005  36.411  23.189  12.343
17745W        W77006  36.027  43.296   0.854
17746W        W77007  28.472  17.181   1.241
17747W        W77008  41.016  26.207  11.926
17748W        W77009  41.455  31.631   2.835
17749W        W77010  32.103  40.982   5.145
17750W        W77011   8.858  29.971  12.869
17751W        W77012   9.824  11.223   1.800
17752W        W77013  27.612  38.978   4.219
17753W        W77014  29.144  13.638  14.892
17754W        W77015  42.798  16.725   1.744
17755W        W77016  17.656  15.726   0.856
17756W        W77017  39.891  43.470  11.065
17757W        W77018   3.293  22.673   0.853
17758W        W77019  22.015  40.421   4.123
17759W        W77020   4.395  12.245   3.805
17760W        W77021  13.319   7.281  13.456
17761W        W77022  22.704  36.901  14.325
17762W        W77023  36.046  14.164   0.964
17763W        W77024  26.993  14.138  14.904
17764W        W77025  38.057  19.219  13.015
17765W        W77026   4.699   5.725   4.755
17766W        W77027  24.087  37.461  12.053
17767W        W77028  37.429  39.893  14.885
17768W        W77029   1.752  36.588   4.815
17769W        W77030  16.791  44.811  11.462
17770W        W77031  37.884  24.625  13.019
17771W        W77032  33.383  12.785   9.632
17772W        W77033  25.501  34.581   0.819
17773W        W77034  27.170  33.892  11.566
17774W        W77035  24.152   7.856   1.790
17775W        W77036   8.844  44.324  14.912
17776W        W77037   0.792  24.578  14.844
17777W        W77038   3.272  35.471  14.302
17778W        W77039  23.023  34.460   4.671
17779W        W77040   7.290  27.131  11.973
17780W        W77041  27.151  24.991   1.763
17781W        W77042  41.294  39.553   2.258
17782W        W77043  43.885  33.991  13.978
17783W        W77044   7.373  43.482  12.436
17784W        W77045  28.647  37.910  10.932
17785W        W77046  36.442  19.231   0.798
17786W        W77047  35.024  21.236   4.832
17787W        W77048  29.658  29.956   3.692
17788W        W77049  19.746  34.564   0.286
17789W        W77050  23.603  16.168  13.395
17790W        W77051  15.608  20.608  13.968
17791W        W77052  25.712  40.004   0.909
17792W        W77053  17.237   5.421   3.365
17793W        W77054  35.395  19.593  11.371
17794W        W77055  11.269  27.645  12.916
17795W        W77056  14.635   9.244  13.935
17796W        W77057  21.624  16.246  11.872
17797W        W77058  36.400  13.325  14.392
17798W        W77059  21.609  27.018   1.713
17799W        W77060   9.314  14.270  11.890
17800W        W77061  14.324  24.040  12.517
17801W        W77062  24.655   4.383  14.922
17802W        W77063   3.452  25.575  14.952
17803W        W77064   5.262   0.387  10.403
17804W        W77065   0.480  20.068   3.154
17805W        W77066  14.678  24.115   4.693
17806W        W77067  26.102  37.835  14.483
17807W        W77068   9.809   9.874  13.981
17808W        W77069   9.680  37.401  14.966
17809W        W77070   6.280  22.092   2.195
17810W        W77071   2.902   7.417   2.737
17811W        W77072  22.720   1.746  12.959
17812W        W77073   2.802  33.037  11.993
17813W        W77074  10.797  12.143  11.932
17814W        W77075  12.239  25.014  10.995
17815W        W77076   0.851  36.970  10.415
17816W        W77077  44.826  43.472   1.926
17817W        W77078  37.848  37.568   0.338
17818W        W77079  22.626   7.236   0.762
17819W        W77080  31.640  33.027   0.772
17820W        W77081  35.915  35.098   3.177
17821W        W77082  19.534  11.691   5.118
17822W        W77083   3.883   6.228  11.029
17823W        W77084  44.388  28.516   2.255
17824W        W77085   4.864  42.369   1.837
17825W        W77086  38.504  14.696  14.816
17826W        W77087  43.336  33.124  13.885
17827W        W77088   8.296  10.150  12.036
17828W        W77089   9.655   1.297  14.896
17829W        W77090   4.918  22.092   1.741
17830W        W77091   6.314  29.654  10.582
17831W        W77092  11.681  30.420   1.432
17832W        W77093  40.829  29.146  14.294
17833W        W77094  17.196  26.684   0.264
17834W        W77095  17.086  36.060  13.382
17835W        W77096  11.233  29.560   2.338
17836W        W77097  41.327  23.621  11.002
17837W        W77098  33.875  11.352   9.640
17838W        W77099  24.115  21.607   0.921
17839W        W77100   2.257  20.730   0.731
17840W        W77101  20.270  39.912  14.377
17841W        W77102  20.606  36.856   1.418
17842W        W77103  24.613  35.061   2.884
17843W        W77104  41.009  10.265  14.383
17844W        W77105  42.804  19.651  10.146
17845W        W77106  16.268   1.441   4.314
17846W        W77107  10.848  20.173  10.609
17847W        W77108  24.512   1.863  11.879
17848W        W77109  31.539  44.003   1.823
17849W        W77110  39.060  42.455   3.328
17850W        W77111   8.326  29.175  11.380
17851W        W77112  30.468  15.182   3.298
17852W        W77113   7.402  16.728  11.458
17853W        W77114  10.675   8.175  10.484
17854W        W77115  33.897  33.432  11.938
17855W        W77116  43.839  31.639  11.898
17856W        W77117  21.559  32.932  10.608
17857W        W77118  24.567  16.169   3.766
17858W        W77119  27.522  33.572  13.414
17859W        W77120  16.810  19.724   1.787
17860W        W77121  36.405  21.619  12.071
17861W        W77122  37.462  38.388  11.548
17862W        W77123  25.670  27.565  11.122
17863W        W77124  22.091   5.365  11.508
17864W        W77125  10.659  10.371   3.166
17865W        W77126  16.724  12.307   3.730
17866W        W77127  16.710  14.614  11.025
17867W        W77128  14.167   4.818   2.720
17868W        W77129  12.204  13.239  12.994
17869W        W77130  12.774  15.317   5.242
17870W        W77131  25.083  44.850   2.884
17871W        W77132   9.782  25.613  12.858
17872W        W77133   8.229  12.281   2.350
17873W        W77134  22.167   4.844   1.346
17874W        W77135  38.846  40.809  14.390
17875W        W77136  25.029  14.770  10.504
17876W        W77137  18.237  39.931  14.787
17877W        W77138  13.731  11.250  12.389
17878W        W77139  18.074  41.498  12.883
17879W        W77140  15.159  17.286  12.464
17880W        W77141   7.262   5.849   3.770
17881W        W77142  14.709  18.658   1.908
17882W        W77143  12.765   4.436   0.426
17883W        W77144   4.281  34.118  14.467
17884W        W77145  35.089  12.268  12.469
17885W        W77146  15.631  15.794   3.336
17886W        W77147   9.379   4.907  13.324
17887W        W77148  14.307  10.758  12.892
17888W        W77149  22.671  41.406   5.084
17889W        W77150  22.671  20.651  10.921
17890W        W77151   5.316  44.982  12.426
17891W        W77152  35.426  19.681   0.397
17892W        W77153  12.620  24.480   4.238
17893W        W77154  41.021  11.672   0.438
17894W        W77155   7.219   6.245  14.341
17895W        W77156  37.025  17.087  14.861
17896W        W77157  33.099   7.885   3.644
17897W        W77158  37.088  13.227   1.902
17898W        W77159  10.253  42.333  11.566
17899W        W77160  17.069  14.278  13.815
17900W        W77161  30.591  34.472  11.093
17901W        W77162   1.833   7.756   0.865
17902W        W77163  13.203   2.752   1.909
17903W        W77164  36.361  11.841   0.380
17904W        W77165  12.175  15.702   2.302
17905W        W77166  36.963  18.285   3.380
17906W        W77167  44.814  44.328   0.769
17907W        W77168  30.609   5.353   3.250
17908W        W77169  43.919  34.964  12.058
17909W        W77170  16.262  25.564   4.653
17910W        W77171  24.504  25.172   2.704
17911W        W77172  11.186  21.182   1.322
17912W        W77173   9.377  12.230   2.690
17913W        W77174  39.833   3.769   0.799
17914W        W77175  43.455  28.981   2.799
17915W        W77176  16.724   8.205  11.058
17916W        W77177  26.509   1.898  10.019
17917W        W77178  41.011  36.479   2.890
17918W        W77179  21.538  42.779  10.618
17919W        W77180  19.749  39.393   1.222
17920W        W77181   5.792  37.992   0.732
17921W        W77182   3.762  13.651  11.955
17922W        W77183  41.497  44.803   3.778
17923W        W77184   2.847  42.935   2.233
17924W        W77185  30.518  39.971   3.794
17925W        W77186   4.765  44.402   3.195
17926W        W77187  21.221  26.184  13.906
17927W        W77188  35.958   2.366   3.210
17928W        W77189  21.147  32.037  11.955
17929W        W77190   8.195   6.424  11.912
17930W        W77191  26.635   4.397  12.944
17931W        W77192   2.771  40.395   3.333
17932W        W77193  10.793  39.915   0.911
17933W        W77194  37.929  19.070   0.825
17934W        W77195  13.296   1.396   4.769
17935W        W77196  44.424  26.033  13.843
17936W        W77197   4.446   8.296  14.338
17937W        W77198   6.351  35.376   2.728
17938W        W77199  25.594  31.411  14.901
17939W        W77200  32.472  14.097   4.257
17940W        W77201  22.091   6.764  10.927
17941W        W77202  36.522  12.163   1.880
17942W        W77203  43.821  16.580  10.887
17943W        W77204   7.309  31.461  12.405
17944W        W77205  23.991  23.644  14.014
17945W        W77206  32.016  22.736  10.914
17946W        W77207  10.786   4.347   0.277
17947W        W77208  30.623  11.165   5.121
17948W        W77209  31.967  18.757   0.767
17949W        W77210   6.412  30.581  13.446
17950W        W77211  27.597  39.065  12.931
17951W        W77212  31.104  35.420  10.046
17952W        W77213   4.862  21.263   5.110
17953W        W77214  32.543  10.774  12.458
17954W        W77215  27.554   4.850  13.859
17955W        W77216  18.572  32.565  14.824
17956W        W77217   2.374   0.964  10.989
17957W        W77218  27.002  42.471   1.252
17958W        W77219   5.831  42.359  14.309
17959W        W77220  12.637   5.436  13.502
17960W        W77221  30.954  40.986  11.447
17961W        W77222  41.525  33.076  14.920
17962W        W77223  17.606  34.565  11.531
17963W        W77224  36.351  20.049   1.861
17964W        W77225  18.062  32.503   4.302
17965W        W77226  18.184  23.200  14.911
17966W        W77227   4.853  20.559  14.929
17967W        W77228  41.450   8.775   4.264
17968W        W77229  42.914  31.451   3.289
17969W        W77230  21.077  44.262   3.666
17970W        W77231   1.750  24.998  12.510
17971W        W77232  40.033  31.584   1.728
17972W        W77233  10.863  22.679  12.825
17973W        W77234  37.529  38.920  13.534
17974W        W77235  42.872  11.208   1.392
17975W        W77236   8.162  32.105  13.890
17976W        W77237   5.883   0.847  14.780
17977W        W77238  20.200  43.876  13.896
17978W        W77239  29.631  16.287   4.780
17979W        W77240   9.231  29.634  11.402
17980W        W77241  33.608  14.268   1.788
17981W        W77242  20.541  26.628  14.915
17982W        W77243  25.152  20.158  14.279
17983W        W77244  36.017   2.882  10.504
17984W        W77245  19.656  22.084  14.489
17985W        W77246  42.492  24.718  11.040
17986W        W77247  23.992   0.466  10.895
17987W        W77248  10.382   2.789  12.845
17988W        W77249  38.026   6.904  12.918
17989W        W77250  30.466   6.899   2.808
17990W        W77251  18.658   4.423   2.253
17991W        W77252  10.174  28.176   5.161
17992W        W77253  30.117  25.161   4.185
17993W        W77254  18.249  40.865   4.133
17994W        W77255  19.565  30.638  14.997
17995W        W77256  20.084   9.810   1.768
17996W        W77257  12.152  39.960  13.043
17997W        W77258  15.654  18.707   2.814
17998W        W77259  10.773  16.704  11.993
17999W        W77260  20.665  29.501  12.976
18000W        W77261   8.703  27.111   0.429
18001W        W77262  38.823  10.264   4.765
18002W        W77263  23.170  40.389  13.828
18003W        W77264  44.874  13.126   3.248
18004W        W77265   0.467  41.009  12.341
18005W        W77266  25.118  10.371   2.850
18006W        W77267  28.052  31.132  13.495
18007W        W77268  17.224  26.540   3.859
18008W        W77269  32.466  23.228  13.367
18009W        W77270  40.847  26.184  14.300
18010W        W77271  15.610  28.025   2.366
18011W        W77272  34.025  25.144   1.697
18012W        W77273  22.582   2.243   0.247
18013W        W77274  16.168  26.532  13.818
18014W        W77275   6.423  37.928  14.768
18015W        W77276  37.432   8.192   0.362
18016W        W77277   6.408  30.637  14.019
18017W        W77278  26.105   1.755  10.533
18018W        W77279   3.905  37.980  10.555
18019W        W77280   7.717  10.860   4.198
18020W        W77281   9.160  11.845  13.397
18021W        W77282  38.375  17.091   0.912
18022W        W77283   7.748   4.897   1.766
18023W        W77284  12.227  33.931  14.996
18024W        W77285   5.370  22.187   4.714
18025W        W77286   4.789  16.202   0.375
18026W        W77287  26.120  24.518   4.276
18027W        W77288  38.535   3.233  13.443
18028W        W77289  33.466  25.177   4.124
18029W        W77290   4.858   5.242  11.994
18030W        W77291   4.272  25.695   3.181
18031W        W77292  11.188   8.242  14.836
18032W        W77293   0.362  23.663   2.194
18033W        W77294  12.178   7.709   2.203
18034W        W77295  20.655  31.088   0.771
18035W        W77296  36.941  24.192   4.703
18036W        W77297  27.520  22.015   3.384
18037W        W77298  25.987  35.395  13.025
18038W        W77299  37.930  23.629  11.604
18039W        W77300  24.649  28.649  13.373
18040W        W77301  39.490  44.788   3.289
18041W        W77302   0.862  28.635  14.799
18042W        W77303   8.237  23.681   0.411
18043W        W77304  17.673   9.657  13.450
18044W        W77305  24.517  21.201   2.843
18045W        W77306  22.220   2.343  10.982
18046W        W77307  34.038  20.691   0.954
18047W        W77308  19.668  24.519  12.430
18048W        W77309  11.652   7.313  13.386
18049W        W77310  14.635  38.841  14.926
18050W        W77311  42.981  12.788   2.697
18051W        W77312  41.413   6.386  10.949
18052W        W77313  38.834  43.429  13.824
18053W        W77314   9.741   1.325  11.589
18054W        W77315  44.262  27.983  14.821
18055W        W77316  22.647  25.611  13.339
18056W        W77317  12.173  12.750   5.799
18057W        W77318  34.405  30.653  11.380
18058W        W77319  43.379  24.088   4.674
18059W        W77320   3.828  20.586  14.442
18060W        W77321  32.925  32.121  12.011
18061W        W77322  11.711  38.075   2.751
18062W        W77323  27.985  31.603   1.828
18063W        W77324  37.494  19.771  13.807
18064W        W77325  24.681  33.453  14.988
18065W        W77326  33.928  28.435  14.928
18066W        W77327  15.820   5.709   3.661
18067W        W77328  42.357  22.088   0.827
18068W        W77329  12.283   5.882   4.304
18069W        W77330  10.736   8.256  11.975
18070W        W77331  22.177  17.126  13.880
18071W        W77332  20.766  33.130  10.589
18072W        W77333   9.280  20.231  13.011
18073W        W77334   2.415  38.858   4.162
18074W        W77335   1.941  35.565  10.508
18075W        W77336  43.832   2.859   1.213
18076W        W77337  21.241  16.631  14.813
18077W        W77338   0.842  15.296   3.764
18078W        W77339  14.144  26.493  10.551
18079W        W77340  15.144  10.142  12.827
18080W        W77341   5.781  17.670  11.057
18081W        W77342   4.402  40.411   4.739
18082W        W77343  34.372  16.647   0.767
18083W        W77344  38.501   0.325   0.939
18084W        W77345   4.840  44.759   1.718
18085W        W77346  44.011  14.307  12.874
18086W        W77347  44.970  27.090   3.809
18087W        W77348  29.028  20.166   1.878
18088W        W77349  23.061  10.265   4.154
18089W        W77350  44.936  18.273  13.492
18090W        W77351  38.955   7.415  13.467
18091W        W77352   1.945   0.438  10.892
18092W        W77353  29.467  21.019  13.419
18093W        W77354  16.268   5.323  13.823
18094W        W77355   6.400  34.612  11.053
18095W        W77356  31.915  39.903  14.932
18096W        W77357  26.007   4.734  12.484
18097W        W77358  19.590  33.090   3.154
18098W        W77359   5.753  42.317   2.703
18099W        W77360  36.878  36.531   4.791
18100W        W77361  16.761  18.671   0.258
18101W        W77362   1.811  13.240   4.780
18102W        W77363  25.497  40.973  13.843
18103W        W77364  17.221  30.486   1.837
18104W        W77365  22.747  18.690   1.412
18105W        W77366   1.366   7.328  12.412
18106W        W77367  28.122  32.433  13.364
18107W        W77368  29.923   0.278  14.861
18108W        W77369  31.485  21.705   4.745
18109W        W77370  23.031  35.593  10.982
18110W        W77371   9.169  36.549   2.410
18111W        W77372  35.100  28.582  14.973
18112W        W77373   7.239  41.518  10.412
18113W        W77374  18.105  24.026   4.333
18114W        W77375   0.434  39.539   4.709
18115W        W77376   0.950   7.183   0.805
18116W        W77377  21.756  42.416  11.095
18117W        W77378   1.971  19.637   3.751
18118W        W77379   3.332  36.079   4.136
18119W        W77380  13.712  35.403  12.845
18120W        W77381  17.742  27.563  12.513
18121W        W77382  37.999  13.337  13.837
18122W        W77383  30.088  26.536  11.909
18123W        W77384  27.038  11.848  12.827
18124W        W77385  42.485  19.110   2.716
18125W        W77386   6.880   2.840  12.438
18126W        W77387  23.216   1.754  11.579
18127W        W77388  15.209  29.056   3.236
18128W        W77389   1.446  15.812  12.385
18129W        W77390  13.723  18.170  10.433
18130W        W77391   6.763   7.703  12.831
18131W        W77392  31.482  24.593   2.874
18132W        W77393  19.040  22.598  14.991
18133W        W77394  39.019  26.111   3.690
18134W        W77395  10.374  36.460  14.465
18135W        W77396  16.709  35.431  12.546
18136W        W77397  36.062   0.983  12.950
18137W        W77398   4.783  41.851  12.833
18138W        W77399  29.090  26.135   4.301
18139W        W77400   8.380  11.759  10.982
18140W        W77401  39.419  33.444   4.788
18141W        W77402  38.532   9.865  12.016
18142W        W77403  40.050  29.121  14.385
18143W        W77404  15.664  17.754  14.400
18144W        W77405  44.493  29.030  12.525
18145W        W77406   5.429  26.175  13.827
18146W        W77407  29.599  33.574   3.229
18147W        W77408  19.130  33.910  10.992
18148W        W77409  44.483  28.102   3.239
18149W        W77410  12.652  39.359   0.928
18150W        W77411  18.238  10.802  12.436
18151W        W77412  25.584  11.757  11.550
18152W        W77413  33.055  27.541  13.478
18153W        W77414   6.403  21.219  14.275
18154W        W77415  40.909  37.887  12.473
18155W        W77416  30.486  27.177   3.713
18156W        W77417  33.444  33.450  13.962
18157W        W77418  33.018  39.929  13.491
18158W        W77419  10.839  37.050  13.437
18159W        W77420  12.758   4.716  13.041
18160W        W77421  39.319  43.357   4.201
18161W        W77422  21.032  37.454  14.759
18162W        W77423  28.667  40.530  11.069
18163W        W77424  26.956   0.303   5.110
18164W        W77425  37.536  42.490   2.271
18165W        W77426   4.843   7.415  14.354
18166W        W77427   4.326  26.191   0.938
18167W        W77428  28.973  27.482   2.247
18168W        W77429  26.593  30.611   3.305
18169W        W77430  28.546  17.109  14.880
18170W        W77431  10.334  28.482   4.160
18171W        W77432  15.106   0.819  11.479
18172W        W77433  26.604  33.593  12.565
18173W        W77434   8.398   6.186  13.421
18174W        W77435   5.744  13.705   4.762
18175W        W77436  27.141  37.578  14.766
18176W        W77437   6.726  39.897   3.159
18177W        W77438  21.181  41.469   2.856
18178W        W77439  23.555  37.959  10.921
18179W        W77440  17.583  21.701   4.119
18180W        W77441  36.485  29.568   4.822
18181W        W77442   0.875  38.066   2.808
18182W        W77443   0.836  19.726   0.404
18183W        W77444  32.008   7.377  14.019
18184W        W77445  28.957  18.221   3.178
18185W        W77446  34.374  39.427  13.402
18186W        W77447  11.811  23.186   4.259
18187W        W77448  29.000  21.128  13.945
18188W        W77449  25.031   8.854   4.133
18189W        W77450  25.501  34.995   3.231
18190W        W77451  44.782  26.126   0.920
18191W        W77452  30.608  19.645   4.620
18192W        W77453  38.014  25.636   0.260
18193W        W77454   2.859   0.385  13.816
18194W        W77455  16.688  13.154   0.941
18195W        W77456  35.006  14.784  13.009
18196W        W77457  34.876  12.309  13.821
18197W        W77458  26.536  11.234   3.697
18198W        W77459  18.663  34.053  13.900
18199W        W77460  18.067  43.305  14.421
18200W        W77461  35.066  15.705   2.791
18201W        W77462  17.266   6.238  14.853
18202W        W77463  11.782  44.965   9.926
18203W        W77464  22.168  42.864   2.285
18204W        W77465   1.314  30.072  12.388
18205W        W77466  21.713  23.678  10.419
18206W        W77467  21.021   0.334  12.440
18207W        W77468  19.540  35.028   1.835
18208W        W77469  18.119  11.260  13.503
18209W        W77470  34.068  44.502  11.589
18210W        W77471  33.895  27.471   4.657
18211W        W77472  10.176  43.005   5.217
18212W        W77473  37.360   3.456   3.864
18213W        W77474   1.799   8.716  12.520
18214W        W77475  19.109  37.385   0.352
18215W        W77476  18.711  14.774  10.959
18216W        W77477   0.482  37.354   1.800
18217W        W77478   5.703  23.137   0.928
18218W        W77479  27.029  11.833   4.619
18219W        W77480  30.454  13.696   0.279
18220W        W77481  10.801   6.739  14.292
18221W        W77482  39.997  15.264   2.763
18222W        W77483  29.952  14.201  14.351
18223W        W77484  12.744  20.216   3.171
18224W        W77485  36.042  31.948  10.490
18225W        W77486  37.441   0.473  10.546
18226W        W77487  31.076   8.239  10.611
18227W        W77488  41.442  28.976  12.471
18228W        W77489   7.700  18.112  14.884
18229W        W77490  19.598  20.270   2.313
18230W        W77491  23.220  18.129   1.244
18231W        W77492  32.045  23.152   1.283
18232W        W77493   6.358  44.981  13.054
18233W        W77494  20.144   6.871  13.459
18234W        W77495   1.356  22.192  12.092
18235W        W77496   5.355  38.452  13.495
18236W        W77497  22.077  30.458   2.704
18237W        W77498  11.669  22.717  13.341
18238W        W77499   5.688  17.620   3.698
18239W        W77500  23.079  15.807   1.804
18240W        W77501   3.887  44.997   0.302
18241W        W77502  24.529  35.988   2.881
18242W        W77503   7.758   7.366  13.514
18243W        W77504   6.872  42.296  13.056
18244W        W77505  32.060  22.171  13.893
18245W        W77506  23.032  18.218  10.551
18246W        W77507  36.914   9.643  10.627
18247W        W77508  25.060  30.122  11.076
18248W        W77509  30.041   0.904   2.844
18249W        W77510  40.388  29.670   1.809
18250W        W77511   3.454   4.771   3.658
18251W        W77512  34.068  44.967  14.373
18252W        W77513  21.743  35.926  12.050
18253W        W77514  27.493  42.002   1.770
18254W        W77515  16.671  12.156  14.805
18255W        W77516  43.285   9.190   4.634
18256W        W77517   3.247  31.104   3.710
18257W        W77518  40.853  40.452  11.399
18258W        W77519  16.632  27.146   9.995
18259W        W77520  21.515  39.510   0.291
18260W        W77521  32.038   5.308  11.070
18261W        W77522   3.801  13.802  14.012
18262W        W77523  20.749  27.666   3.686
18263W        W77524  32.504  30.947  14.952
18264W        W77525  28.558  10.844   4.303
18265W        W77526   9.817  25.540   3.252
18266W        W77527  11.782  27.165  14.447
18267W        W77528   9.813   1.429  10.561
18268W        W77529  42.350  12.828  11.122
18269W        W77530  22.503   8.331   1.385
18270W        W77531  27.996  43.491   1.210
18271W        W77532  41.914  16.737   2.737
18272W        W77533   4.396  25.137   4.698
18273W        W77534  44.267  43.827   3.318
18274W        W77535  34.028  16.609  13.893
18275W        W77536   3.236  30.155  10.481
18276W        W77537  37.863  36.043   1.217
18277W        W77538  18.726  13.252  12.824
18278W        W77539   9.243  41.521   5.141
18279W        W77540  33.926  34.428  13.409
18280W        W77541  30.991   8.832  11.078
18281W        W77542  12.821  40.887  14.981
18282W        W77543  26.000  27.994  11.048
18283W        W77544  17.710   4.719  14.962
18284W        W77545  38.346   4.331  11.966
18285W        W77546   0.965  41.029   2.338
18286W        W77547  23.136   6.914   4.770
18287W        W77548  44.440  33.913   0.264
18288W        W77549   5.254  31.560   2.300
18289W        W77550  26.670  37.416  13.816
18290W        W77551  33.094  42.905   1.298
18291W        W77552   8.801  32.427  11.976
18292W        W77553  36.939  25.994   3.203
18293W        W77554   8.382  23.562  12.543
18294W        W77555  23.019  23.094  12.852
18295W        W77556  10.223   1.256   9.967
18296W        W77557  28.572   3.400   4.696
18297W        W77558  20.172  29.112   4.243
18298W        W77559  43.443  23.591   3.717
18299W        W77560  24.539  44.266   1.229
18300W        W77561  34.094   5.901   3.277
18301W        W77562  10.167  27.598  11.526
18302W        W77563  41.532  43.782  14.866
18303W        W77564   9.692  22.219  11.608
18304W        W77565  38.974   2.861  14.909
18305W        W77566  34.949  27.069   4.697
18306W        W77567  16.210  32.136  13.994
18307W        W77568  39.038  15.587   0.872
18308W        W77569  19.109  38.372  13.528
18309W        W77570  11.283  10.781   0.254
18310W        W77571   6.900  35.372   4.659
18311W        W77572  10.249  36.373  13.888
18312W        W77573  34.057  35.584   1.432
18313W        W77574  43.391   7.852   2.198
18314W        W77575  12.277  23.030   0.857
18315W        W77576  16.620  24.092   4.678
18316W        W77577  24.575  33.545  10.040
18317W        W77578  20.032  40.435   3.274
18318W        W77579  34.408   4.427  12.502
18319W        W77580  18.088  44.300   0.315
18320W        W77581  35.886  20.111  12.975
18321W        W77582  28.506  30.606   2.354
18322W        W77583  16.721  28.674  10.079
18323W        W77584  34.585  35.450  12.078
18324W        W77585  41.975  17.147  13.490
18325W        W77586   3.828  34.402  13.971
18326W        W77587  43.479  40.823   0.814
18327W        W77588  30.099  43.821  13.928
18328W        W77589  40.340  35.107   0.798
18329W        W77590  22.009   9.762   1.802
18330W        W77591  37.005  10.294  14.772
18331W        W77592  30.164  24.699  11.997
18332W        W77593  29.175  25.580  11.580
18333W        W77594  35.974  29.045  13.816
18334W        W77595   9.737  36.034   0.450
18335W        W77596   1.905   9.312  12.532
18336W        W77597  23.199  39.465  11.387
18337W        W77598  27.092  15.680   0.299
18338W        W77599  32.945  38.517  11.433
18339W        W77600  32.113  19.079   0.355
18340W        W77601  24.198  17.146   4.626
18341W        W77602  37.970  37.970  12.438
18342W        W77603  37.933  42.439  11.935
18343W        W77604  15.725  18.141  10.494
18344W        W77605  28.562  26.174  10.978
18345W        W77606   7.849  26.005   3.741
18346W        W77607  21.753  34.879  10.416
18347W        W77608  29.017  29.050   2.196
18348W        W77609   7.678   4.286   1.272
18349W        W77610  23.147  10.259   3.777
18350W        W77611  36.979  20.123   0.475
18351W        W77612   2.940  21.064   3.291
18352W        W77613   0.907  32.418  13.845
18353W        W77614  13.139  31.540   0.857
18354W        W77615  26.087  15.090  13.969
18355W        W77616   8.849  17.694   4.674
18356W        W77617  10.300  27.491  13.032
18357W        W77618  36.413  21.672   2.824
18358W        W77619  27.128  34.937   3.358
18359W        W77620  33.982  13.128  14.843
18360W        W77621  19.046  39.403   4.810
18361W        W77622  40.406  31.414   4.314
18362W        W77623  16.588  34.917   1.281
18363W        W77624  40.333   7.239   3.855
18364W        W77625  15.724  43.387  10.642
18365W        W77626  24.696  31.411   0.276
18366W        W77627  18.251  12.797   4.189
18367W        W77628  24.000  26.588   5.765
18368W        W77629  36.501  10.845   0.920
18369W        W77630  20.187  29.103   2.342
18370W        W77631  26.971  34.427   3.338
18371W        W77632  41.013   4.296  10.482
18372W        W77633  42.462  33.513  13.904
18373W        W77634   2.339   1.447   0.384
18374W        W77635   1.965   5.834  11.897
18375W        W77636   3.264  22.667   5.265
18376W        W77637  24.146  25.684   5.110
18377W        W77638  18.121  18.294  14.926
18378W        W77639   2.324   9.292   3.812
18379W        W77640   4.801  42.900   1.282
18380W        W77641  27.143  35.033   0.360
18381W        W77642  27.964  11.818  11.501
18382W        W77643   6.183  41.879   3.277
18383W        W77644  10.145  28.473   2.680
18384W        W77645  29.620  34.116   2.707
18385W        W77646  26.645  27.071  14.300
18386W        W77647   9.793  14.750   1.804
18387W        W77648  27.620   2.803   2.804
18388W        W77649  13.247  10.635  11.866
18389W        W77650  19.633   7.705   4.740
18390W        W77651  36.070  23.671  13.905
18391W        W77652  33.874   7.341  10.922
18392W        W77653   6.921   5.246  11.116
18393W        W77654  30.052  36.972  11.027
18394W        W77655  22.623   5.706   2.401
18395W        W77656  40.506  40.803  14.833
18396W        W77657  21.699  24.623  11.448
18397W        W77658  20.033  10.262  10.985
18398W        W77659  40.462  36.023   2.828
18399W        W77660  42.361   6.831   0.398
18400W        W77661   6.917  24.668  14.295
18401W        W77662  12.801  35.985   4.220
18402W        W77663  27.489  30.098  14.356
18403W        W77664  17.186  30.991   4.773
18404W        W77665  15.204   9.190   0.393
18405W        W77666  38.513  35.012  13.037
18406W        W77667   2.762  13.697   2.279
18407W        W77668  39.389  35.441  11.955
18408W        W77669  21.109  24.111   0.925
18409W        W77670  23.602   9.341   0.453
18410W        W77671   8.336   4.364   2.714
18411W        W77672  19.137  38.508  11.118
18412W        W77673   9.805  37.428  10.622
18413W        W77674   6.347  32.552   0.918
18414W        W77675  21.682   0.973   3.765
18415W        W77676  39.810  30.144   1.278
18416W        W77677  32.405  27.142   2.863
18417W        W77678  21.048  36.961   1.234
18418W        W77679   3.366  39.500  14.298
18419W        W77680  16.788  21.709  13.488
18420W        W77681   8.832  44.347  10.996
18421W        W77682   1.334   2.422  12.999
18422W        W77683  19.778  12.311  12.579
18423W        W77684  25.692  43.780   1.236
18424W        W77685  20.570   2.288  13.410
18425W        W77686  23.682   8.297  12.400
18426W        W77687  14.597  10.647  11.437
18427W        W77688  44.846   1.252   0.806
18428W        W77689  10.308  10.317   0.434
18429W        W77690  28.040  24.579  10.929
18430W        W77691  15.247  31.961  13.510
18431W        W77692  44.260  15.310   2.690
18432W        W77693  12.130   5.241  13.473
18433W        W77694   4.283  16.225  11.521
18434W        W77695   5.417  26.071   0.902
18435W        W77696   2.265  36.925  10.619
18436W        W77697  28.048  26.625   2.851
18437W        W77698  36.378  42.332   5.267
18438W        W77699  38.417  22.214  11.464
18439W        W77700  23.165  12.128  11.972
18440W        W77701  43.325  27.525   1.218
18441W        W77702   9.336  40.516  10.958
18442W        W77703  15.733   7.806   4.309
18443W        W77704  35.063  40.355  11.557
18444W        W77705  15.111  41.964  10.499
18445W        W77706  28.610   4.857  13.897
18446W        W77707  27.538  27.024  14.397
18447W        W77708   7.257  28.974  13.345
18448W        W77709  15.678  41.884   4.263
18449W        W77710  43.823  20.544   3.822
18450W        W77711   9.364  18.189  12.968
18451W        W77712  18.623  44.845  11.417
18452W        W77713  41.524  25.698   1.704
18453W        W77714   1.801  41.832  13.047
18454W        W77715  28.011  41.469  14.419
18455W        W77716  38.344  39.857   0.958
18456W        W77717  16.218   5.759   1.812
18457W        W77718  13.730  44.946   3.154
18458W        W77719  28.488  26.144   2.781
18459W        W77720  16.101  31.526   4.271
18460W        W77721  22.030  29.640  14.362
18461W        W77722  38.822  14.602   0.367
18462W        W77723  24.544  21.742  10.896
18463W        W77724  11.244   6.913   2.294
18464W        W77725   0.461  38.331  11.029
18465W        W77726  41.804  21.748  14.370
18466W        W77727  13.656  11.309   0.312
18467W        W77728  20.155   5.382  10.561
18468W        W77729  37.402  11.195   2.354
18469W        W77730  19.537   0.419   2.232
18470W        W77731  23.036   7.195   0.377
18471W        W77732  34.075  31.412   0.363
18472W        W77733  18.756  21.191   4.751
18473W        W77734  36.536  22.616   3.755
18474W        W77735  18.659  28.482  13.933
18475W        W77736  27.504  26.524   0.810
18476W        W77737   9.672   6.221   4.731
18477W        W77738  37.934  28.562   1.368
18478W        W77739  26.114  38.020   0.883
18479W        W77740  29.167  27.583   4.259
18480W        W77741  36.429  24.120   1.813
18481W        W77742  25.594  15.191   0.390
18482W        W77743   7.851  23.020  14.796
18483W        W77744  10.321  30.006   2.328
18484W        W77745  36.876  32.435  11.455
18485W        W77746   9.801  19.214  11.414
18486W        W77747  12.664  13.311   0.338
18487W        W77748  31.035   0.798  12.493
18488W        W77749  31.991  24.632   0.462
18489W        W77750  11.246  39.536   2.390
18490W        W77751  21.752   3.794  11.108
18491W        W77752   5.776  30.952   2.387
18492W        W77753  27.160  30.581  11.926
18493W        W77754  34.070  24.180  11.431
18494W        W77755   0.852  17.119  14.468
18495W        W77756  36.877  43.341  14.361
18496W        W77757  10.635   6.699   1.216
18497W        W77758   1.440   8.861   0.289
18498W        W77759  37.992   7.752   1.904
18499W        W77760  12.835  31.620  12.505
18500W        W77761  24.024  23.134   2.375
18501W        W77762   0.286   5.864   2.891
18502W        W77763  27.686   4.253   0.474
18503W        W77764  16.109  25.575  13.895
18504W        W77765  12.186  36.387  13.057
18505W        W77766  16.177  14.177   3.350
18506W        W77767  37.919   2.747   2.743
18507W        W77768  16.812  20.193  14.395
18508W        W77769   4.361   7.275  13.329
18509W        W77770  40.529  25.521  12.580
18510W        W77771  36.882  32.540  11.947
18511W        W77772  24.631   5.202  10.478
18512W        W77773  18.649   4.362  11.896
18513W        W77774  39.469  35.577   2.235
18514W        W77775  38.005  30.560  11.997
18515W        W77776  23.498  29.459  10.139
18516W        W77777  11.183   9.761  13.984
18517W        W77778   8.374  13.301  12.902
18518W        W77779  24.505  42.911  14.012
18519W        W77780  40.324  13.704  14.437
18520W        W77781   4.893  44.804   3.229
18521W        W77782  20.087  20.144  13.518
18522W        W77783  40.466   1.237   3.710
18523W        W77784  36.098  20.680  11.995
18524W        W77785  40.472  22.700   3.257
18525W        W77786  31.511  24.677  14.288
18526W        W77787  44.350   8.794  11.969
18527W        W77788  39.444   6.682  12.473
18528W        W77789  16.794  34.000  14.807
18529W        W77790  32.030  15.160  11.389
18530W        W77791   3.418  23.064   4.790
18531W        W77792  18.684   6.260   4.647
18532W        W77793  44.262  11.229   4.345
18533W        W77794   0.935  30.073   3.200
18534W        W77795  17.656  33.030   0.339
18535W        W77796  36.029   3.441   2.247
18536W        W77797   2.901  13.787   3.861
18537W        W77798  44.302   2.835   1.360
18538W        W77799  38.034  25.136  12.453
18539W        W77800  40.850  35.541  14.846
18540W        W77801  33.988  36.037  14.357
18541W        W77802  27.195  19.730   2.243
18542W        W77803  24.078  28.038  10.499
18543W        W77804  10.657  30.527   1.241
18544W        W77805  28.649  30.623  11.391
18545W        W77806  35.955   6.403   0.364
18546W        W77807  15.636  25.555   0.869
18547W        W77808  13.621  36.996   2.387
18548W        W77809  24.997   3.946   0.425
18549W        W77810   4.416   2.861   1.318
18550W        W77811  37.508  43.006   0.405
18551W        W77812  27.589  42.360  14.845
18552W        W77813  18.290   5.205  14.781
18553W        W77814  25.129   2.300   1.710
18554W        W77815  30.571  19.750  13.355
18555W        W77816  15.134  18.576   3.653
18556W        W77817  28.516  17.154  14.499
18557W        W77818  24.155  44.849   0.325
18558W        W77819   0.380  10.682   4.641
18559W        W77820  42.433   9.318   2.841
18560W        W77821   0.356  23.683  14.969
18561W        W77822  34.085  35.383  14.297
18562W        W77823   4.707   6.779   3.361
18563W        W77824  30.971  17.691  14.512
18564W        W77825   8.654  24.480  14.443
18565W        W77826  22.199   3.275  13.032
18566W        W77827  34.114  15.689  12.359
18567W        W77828  35.893  13.599  14.016
18568W        W77829  34.941  30.094  13.378
18569W        W77830  44.926  23.042   0.841
18570W        W77831  33.022  14.686   4.772
18571W        W77832   8.202  17.725  12.427
18572W        W77833  44.984   0.361  10.551
18573W        W77834   0.801  37.342  13.539
18574W        W77835  28.154  10.808  14.922
18575W        W77836  36.506  42.506   0.354
18576W        W77837  34.118  24.640   3.204
18577W        W77838  24.094   4.221   0.834
18578W        W77839  34.476  40.307   5.258
18579W        W77840  18.157  36.364   3.855
18580W        W77841   6.325  28.467   3.219
18581W        W77842  37.346  16.159  13.417
18582W        W77843   7.367  36.851   1.298
18583W        W77844  43.768  10.311  10.889
18584W        W77845  24.999  25.595  10.486
18585W        W77846  17.626  43.482  12.449
18586W        W77847  27.949   8.312   4.116
18587W        W77848  31.025  23.663  13.891
18588W        W77849  40.536  29.952  13.419
18589W        W77850  39.491  37.996  13.877
18590W        W77851  26.511  10.823   4.611
18591W        W77852  35.484  16.699   0.898
18592W        W77853  23.155  16.295   1.781
18593W        W77854   6.238  33.919   0.960
18594W        W77855  18.070  31.478   2.699
18595W        W77856  26.548  43.830  14.917
18596W        W77857  13.162   3.856  14.423
18597W        W77858  40.938  30.972  14.978
18598W        W77859   2.781  25.588  10.978
18599W        W77860  26.137  21.087  13.427
18600W        W77861  29.001  13.130  11.935
18601W        W77862  15.103  32.485  14.853
18602W        W77863  36.421  44.869   4.315
18603W        W77864  43.307  15.209   1.363
18604W        W77865  11.275   1.310   0.352
18605W        W77866  10.758   3.414  13.927
18606W        W77867  13.801  24.096  11.610
18607W        W77868  36.976  40.478   1.281
18608W        W77869  42.346  43.986   4.626
18609W        W77870  32.978   2.863  12.863
18610W        W77871  42.962  12.241  11.974
18611W        W77872  20.575   1.791   3.221
18612W        W77873  19.691  12.785   4.120
18613W        W77874  28.996  31.062   0.458
18614W        W77875  38.963  39.501   2.191
18615W        W77876   3.252  40.851   0.410
18616W        W77877  39.354  31.567   0.823
18617W        W77878  16.643  14.164   0.776
18618W        W77879  17.286  12.312   1.358
18619W        W77880  16.674  18.654  12.049
18620W        W77881  22.192  29.481   4.655
18621W        W77882  21.745  28.069  13.515
18622W        W77883   5.786  43.487   4.650
18623W        W77884  24.092   4.759   2.704
18624W        W77885  35.040  43.362   3.720
18625W        W77886  37.460  35.011   4.133
18626W        W77887   2.296  25.170   2.769
18627W        W77888  15.819  25.033   9.994
18628W        W77889  33.548  40.364   3.167
18629W        W77890  18.749  28.626   0.798
18630W        W77891  43.893  28.538  13.956
18631W        W77892  36.539  44.771  10.476
18632W        W77893  25.508  16.620   4.611
18633W        W77894  25.527  41.527  11.017
18634W        W77895  13.123   6.294  12.970
18635W        W77896  10.865   4.738  11.468
18636W        W77897   3.940  38.460  10.523
18637W        W77898  37.386  44.489   5.239
18638W        W77899  29.627  36.572   4.727
18639W        W77900  37.890  22.616   0.897
18640W        W77901  37.078  27.638  12.921
18641W        W77902  25.695  13.612   0.248
18642W        W77903  28.650  22.220  13.463
18643W        W77904  17.732  40.829   0.750
18644W        W77905  35.586   3.933  11.031
18645W        W77906  31.923  30.413  13.061
18646W        W77907   4.760  19.588  14.763
18647W        W77908   9.812   2.905   2.390
18648W        W77909  28.072  39.439  11.885
18649W        W77910  27.060  23.612   5.260
18650W        W77911  38.873  35.026   0.411
18651W        W77912  28.025  22.605   4.127
18652W        W77913  13.721  27.145  10.493
18653W        W77914  14.638   9.230   2.222
18654W        W77915  18.686   3.402   4.661
18655W        W77916  32.600  26.475   2.706
18656W        W77917   8.743  31.467   2.230
18657W        W77918  43.820  16.676   0.418
18658W        W77919  23.063  18.583   0.423
18659W        W77920   2.417   3.300  11.398
18660W        W77921  39.506  44.463  12.498
18661W        W77922   8.717   2.864  13.310
18662W        W77923  15.698   2.846   2.771
18663W        W77924  15.291   4.390  14.022
18664W        W77925  44.769  14.232  13.533
18665W        W77926  44.486  35.935  14.366
18666W        W77927   2.423  11.816   1.441
18667W        W77928  32.072  39.908  14.480
18668W        W77929  42.008  35.074  12.459
18669W        W77930   1.921  19.259  11.016
18670W        W77931   8.743   2.236  11.604
18671W        W77932  31.513  12.842   9.977
18672W        W77933  27.036  27.052  14.920
18673W        W77934  36.029  15.732  12.430
18674W        W77935   3.382  15.778   1.860
18675W        W77936  26.028  33.397   4.153
18676W        W77937  17.685   2.469  13.995
18677W        W77938   0.804  31.127  14.507
18678W        W77939  38.872  17.587   2.285
18679W        W77940   7.234  39.503   2.669
18680W        W77941  27.611  30.456  13.325
18681W        W77942  35.948  22.529  13.813
18682W        W77943  27.480   0.493   0.366
18683W        W77944  11.770  32.122  12.535
18684W        W77945  39.997  44.497   2.890
18685W        W77946   8.789  22.683   2.181
18686W        W77947  27.123  18.192   4.640
18687W        W77948  24.519  23.208   4.232
18688W        W77949  13.121  36.504   4.197
18689W        W77950  37.395  10.223  10.529
18690W        W77951  34.919  24.157   0.873
18691W        W77952  22.504  36.440  13.948
18692W        W77953   9.164  18.229  14.843
18693W        W77954   6.750   5.330   3.870
18694W        W77955  33.500  40.411   0.781
18695W        W77956  21.624  27.124   3.312
18696W        W77957  26.458  26.990  13.853
18697W        W77958  23.645  33.395   0.318
18698W        W77959  20.254  42.466  11.610
18699W        W77960  13.758  22.608   3.788
18700W        W77961  30.431  28.052  13.391
18701W        W77962  19.541  41.328  11.080
18702W        W77963  38.488  10.779  11.005
18703W        W77964  27.555  21.535   3.307
18704W        W77965  20.264  24.153  13.495
18705W        W77966  39.399  29.154  12.488
18706W        W77967  41.019  44.400   2.741
18707W        W77968  21.260  19.264   3.740
18708W        W77969  34.446  24.528   1.270
18709W        W77970  36.538  12.224   3.200
18710W        W77971  32.492  27.972  12.866
18711W        W77972  43.889  27.089   1.829
18712W        W77973  18.771   5.813   2.706
18713W        W77974  43.378  36.953  11.473
18714W        W77975   6.361  13.648  14.883
18715W        W77976  43.857  33.995   4.129
18716W        W77977  10.713   1.365  12.553
18717W        W77978  38.023  17.128   4.327
18718W        W77979  24.016  37.904  10.959
18719W        W77980  31.524   0.343   1.224
18720W        W77981  36.871   6.222   2.349
18721W        W77982  25.626  22.169  13.452
18722W        W77983  44.818   3.398  10.504
18723W        W77984  19.559  35.944   3.155
18724W        W77985  10.809  44.926  12.856
18725W        W77986  25.964  18.675  10.952
18726W        W77987   9.196  12.853   1.412
18727W        W77988  26.651  22.082   4.233
18728W        W77989  15.586   6.270   3.858
18729W        W77990  18.617  31.934   1.820
18730W        W77991  33.938  28.588   0.900
18731W        W77992  40.025  29.557  11.990
18732W        W77993  18.285   4.943  13.876
18733W        W77994  31.108  29.620  10.025
18734W        W77995  27.097   3.879  11.973
18735W        W77996   2.852   3.889  10.893
18736W        W77997  25.174  33.988  13.909
18737W        W77998  13.804   0.307   3.160
18738W        W77999  35.572  33.520   2.237
18739W        W78000  11.150   4.711   1.410
18740W        W78001   1.772  20.145   1.231
18741W        W78002  42.361  13.201  13.511
18742W        W78003   3.342  22.568   0.481
18743W        W78004   9.285  15.736   4.120
18744W        W78005  22.707  42.309   1.725
18745W        W78006  30.652  21.527   3.772
18746W        W78007  31.998   0.258  13.055
18747W        W78008   0.343   8.317   4.816
18748W        W78009  35.900  38.981  12.064
18749W        W78010   5.400  37.372   4.290
18750W        W78011   6.893  41.869   1.697
18751W        W78012   8.336  31.977  11.468
18752W        W78013   3.750   4.877   4.656
18753W        W78014   2.331  43.944  12.964
18754W        W78015   1.253   7.243  13.415
18755W        W78016  25.528   1.872  10.091
18756W        W78017  24.691  13.168   3.728
18757W        W78018  33.578  35.956  11.377
18758W        W78019  28.119   0.446   1.307
18759W        W78020  21.680  32.063  11.918
18760W        W78021  17.704   8.162   2.709
18761W        W78022  32.091  21.603   0.308
18762W        W78023   2.954  19.214  10.950
18763W        W78024  23.104  19.046  12.385
18764W        W78025  42.007   4.786   9.922
18765W        W78026  21.619   5.706   1.444
18766W        W78027  15.773  34.931  14.426
18767W        W78028  22.147  34.035  11.005
18768W        W78029   2.963   6.420  11.547
18769W        W78030   2.760  39.536   4.760
18770W        W78031  32.943  29.592  14.335
18771W        W78032  15.300  40.539  10.629
18772W        W78033  22.224  24.533  14.457
18773W        W78034  30.638  32.571   2.338
18774W        W78035  21.675  35.036  12.894
18775W        W78036  44.335  27.159  12.436
18776W        W78037  40.361  29.489  10.608
18777W        W78038  22.099   0.770   1.255
18778W        W78039  28.587  14.727   2.717
18779W        W78040  18.180  13.167   1.355
18780W        W78041  12.695   8.858   1.393
18781W        W78042  33.932   4.820   5.249
18782W        W78043  28.603  20.052  14.279
18783W        W78044   1.462   7.400  13.838
18784W        W78045  17.102  31.148   2.794
18785W        W78046  23.706  23.600  12.032
18786W        W78047  44.951  34.960   4.699
18787W        W78048  13.706   7.388   9.568
18788W        W78049  16.286  24.127   4.812
18789W        W78050   6.341   7.228  12.408
18790W        W78051  28.519  26.010   0.845
18791W        W78052  30.922  37.425  10.596
18792W        W78053  18.109  15.645  14.305
18793W        W78054   0.830  14.265  14.471
18794W        W78055   9.367  23.578  11.996
18795W        W78056   0.292  21.738   2.336
18796W        W78057  22.180  36.429   4.735
18797W        W78058  44.807   6.680  13.451
18798W        W78059  20.593  38.535  10.419
18799W        W78060  24.693  20.039  13.320
18800W        W78061  33.563   7.192  12.341
18801W        W78062  13.677  22.088  14.322
18802W        W78063  10.159   5.785   4.243
18803W        W78064  44.819  10.170   0.913
18804W        W78065  15.152  40.844  14.429
18805W        W78066  14.786  24.681  11.996
18806W        W78067   8.382  17.633   2.759
18807W        W78068  27.559   5.693   4.195
18808W        W78069   0.263  41.314   3.771
18809W        W78070   9.861  23.987  12.015
18810W        W78071  10.326   6.332  11.553
18811W        W78072   3.897   0.271  10.994
18812W        W78073   9.801  21.118   2.806
18813W        W78074   3.285   6.321  10.495
18814W        W78075  42.401  44.809   0.409
18815W        W78076   1.242  10.680  11.569
18816W        W78077  19.046  29.120  10.615
18817W        W78078  16.221  32.616  12.894
18818W        W78079  24.150   7.718  14.350
18819W        W78080  43.461  32.115   0.860
18820W        W78081  22.565  24.131   3.684
18821W        W78082  35.005  35.923  12.458
18822W        W78083   6.726  37.427  12.068
18823W        W78084  17.688  30.158   0.331
18824W        W78085  30.533  23.092  10.509
18825W        W78086  23.642  13.712  13.061
18826W        W78087  16.284  12.341   4.628
18827W        W78088  32.139  13.126   0.909
18828W        W78089  13.228  38.467  11.457
18829W        W78090   7.788  18.071   1.434
18830W        W78091  26.577  12.218   3.764
18831W        W78092   4.359  40.404   3.820
18832W        W78093  20.214  40.405   2.261
18833W        W78094  10.838  36.921   2.387
18834W        W78095   9.180  13.299  14.817
18835W        W78096  11.292  17.711   5.588
18836W        W78097  43.418  36.066  12.554
18837W        W78098   9.886  28.129   2.280
18838W        W78099   5.919  41.377   0.794
18839W        W78100  40.005   5.819   0.933
18840W        W78101  33.992  34.592   0.271
18841W        W78102  11.664  22.529  14.322
18842W        W78103  31.493  28.080  13.939
18843W        W78104  40.463  22.592  12.485
18844W        W78105   2.898   9.391   1.377
18845W        W78106  35.499  11.675  14.504
18846W        W78107  10.773  37.954  13.307
18847W        W78108  29.599  31.606   3.207
18848W        W78109  41.464   0.328   0.330
18849W        W78110  17.283  28.949   3.386
18850W        W78111  23.705  35.427   2.871
18851W        W78112  27.949  21.629  10.972
18852W        W78113  19.243  37.832   1.418
18853W        W78114  29.581  24.158  12.533
18854W        W78115  32.550  12.770   2.277
18855W        W78116  42.954  25.628   3.802
18856W        W78117   4.215  21.212  12.921
18857W        W78118  11.691  11.674   1.751
18858W        W78119  33.056  41.435   2.700
18859W        W78120  27.025  35.031  10.608
18860W        W78121  43.019   3.436  13.882
18861W        W78122  31.901  29.464  10.614
18862W        W78123  30.468   5.779   4.604
18863W        W78124  23.991  25.548   1.354
18864W        W78125  31.516  18.604  12.517
18865W        W78126  34.480   7.241   4.716
18866W        W78127  25.502  19.164  12.965
18867W        W78128  19.135  40.533  14.483
18868W        W78129   4.867   6.330   0.729
18869W        W78130  30.571  41.427  12.471
18870W        W78131   6.184  14.133   4.283
18871W        W78132  38.834  16.249  11.519
18872W        W78133   1.248  29.125   2.672
18873W        W78134  17.077  29.003   1.808
18874W        W78135   7.298  40.991  13.464
18875W        W78136  24.204  11.788  14.413
18876W        W78137  41.475  30.418   1.824
18877W        W78138  43.773  42.334  12.078
18878W        W78139  23.228   3.833   1.764
18879W        W78140  42.839  19.171  10.899
18880W        W78141  28.944  24.039  11.902
18881W        W78142  21.069   2.374  11.524
18882W        W78143  10.247  24.079   1.806
18883W        W78144  26.507  19.189  13.040
18884W        W78145   7.362  13.117   1.375
18885W        W78146   4.253  24.484   3.802
18886W        W78147  20.217   3.388  12.985
18887W        W78148  39.918   1.859  12.907
18888W        W78149   8.679  34.889  13.542
18889W        W78150  17.782   8.198  14.899
18890W        W78151  26.003  31.459   3.749
18891W        W78152  34.067  44.944   3.323
18892W        W78153   9.850  23.033   0.469
18893W        W78154  29.627  18.786   1.322
18894W        W78155  21.183   0.782  12.024
18895W        W78156  11.240  36.979  11.071
18896W        W78157   9.852  39.497   2.335
18897W        W78158  32.636   4.756   2.363
18898W        W78159  20.746   2.862   4.731
18899W        W78160  41.821  13.240  11.014
18900W        W78161  31.126  36.075   1.901
18901W        W78162  18.068   2.739  13.347
18902W        W78163  42.399  22.508  10.532
18903W        W78164  33.889  27.604   2.179
18904W        W78165  35.413  30.508  14.514
18905W        W78166  30.954  22.598  12.461
18906W        W78167  16.125  32.985   3.303
18907W        W78168  41.366   0.785  12.966
18908W        W78169  38.037  24.649   4.114
18909W        W78170   0.315  44.826   1.435
18910W        W78171   4.717   5.698  11.485
18911W        W78172  30.938  10.644   3.289
18912W        W78173   4.437  21.084  10.915
18913W        W78174  25.618  30.137   3.362
18914W        W78175  21.201  11.226  14.019
18915W        W78176   6.324   8.749   3.668
18916W        W78177  21.544  31.599  10.552
18917W        W78178  22.732   0.753   3.810
18918W        W78179  16.226   5.701   1.369
18919W        W78180  30.029  21.641  10.896
18920W        W78181   0.752  17.300  14.027
18921W        W78182  44.463  33.593  12.541
18922W        W78183  42.471  21.538   0.306
18923W        W78184   9.659   3.713   9.450
18924W        W78185   0.907  28.016  10.056
18925W        W78186  36.071  16.303  14.290
18926W        W78187  28.596  12.129   3.243
18927W        W78188  18.602  36.575  13.846
18928W        W78189  44.764   0.451   1.835
18929W        W78190  41.933  28.642   3.350
18930W        W78191  10.168  36.053  13.859
18931W        W78192  31.060  19.167  14.765
18932W        W78193  41.870  15.648  12.852
18933W        W78194  15.163  33.888   4.775
18934W        W78195   7.754  38.903   2.278
18935W        W78196  18.583  12.141   3.293
18936W        W78197  18.206  15.118  10.616
18937W        W78198  40.531  20.119   3.268
18938W        W78199  10.864  41.013  10.431
18939W        W78200  28.950   6.803  12.369
18940W        W78201  19.727  21.697   3.151
18941W        W78202  14.122  29.519   0.800
18942W        W78203  43.965  33.486   0.280
18943W        W78204  31.089  18.561  11.534
18944W        W78205  35.401   4.244  12.863
18945W        W78206  42.393  32.455   4.341
18946W        W78207  26.673  42.494  13.033
18947W        W78208  18.173  31.919   3.727
18948W        W78209  21.593  10.716  11.604
18949W        W78210   8.300  27.651   3.221
18950W        W78211  41.851  24.653   3.762
18951W        W78212  23.194  14.817   4.738
18952W        W78213   2.739  10.653  14.003
18953W        W78214  25.096  25.028  14.396
18954W        W78215  10.792  11.364  14.494
18955W        W78216  27.124  44.335   3.699
18956W        W78217  23.214  36.864  13.064
18957W        W78218  35.051  12.246  10.041
18958W        W78219  22.692  29.485  12.384
18959W        W78220  21.033  11.648   0.300
18960W        W78221  20.229  27.466  12.899
18961W        W78222  17.202   5.217   0.372
18962W        W78223  39.443  27.940   2.839
18963W        W78224  39.494  13.256   0.918
18964W        W78225  18.225  35.541   2.270
18965W        W78226  27.944  24.211  14.948
18966W        W78227  41.996  26.046  13.421
18967W        W78228  14.183   7.307   3.146
18968W        W78229  20.207  13.680   4.603
18969W        W78230  41.808  40.429   0.441
18970W        W78231   5.327  36.907   3.173
18971W        W78232  44.775   5.731  11.966
18972W        W78233   1.822  14.134  10.906
18973W        W78234   2.937  23.203  11.875
18974W        W78235  15.285   8.831  11.069
18975W        W78236  22.649   8.796  14.795
18976W        W78237  19.598  31.939   0.746
18977W        W78238  31.440  20.530   0.953
18978W        W78239  40.816  13.694   0.263
18979W        W78240   2.818  32.116  12.465
18980W        W78241   2.466  30.609  10.119
18981W        W78242   2.416   2.442   4.794
18982W        W78243   9.282   6.762   3.750
18983W        W78244  29.983  17.595  10.573
18984W        W78245  33.040  37.486   4.127
18985W        W78246  17.162  41.350  13.011
18986W        W78247  25.970   4.892  14.282
18987W        W78248  29.963  39.858   4.191
18988W        W78249  40.941  22.742  12.092
18989W        W78250  31.107  19.533   0.800
18990W        W78251  38.435  32.526  13.797
18991W        W78252  13.767   2.801   0.329
18992W        W78253  18.755  16.261  14.291
18993W        W78254   6.360  29.458  13.424
18994W        W78255   1.309  33.939   0.391
18995W        W78256  40.824  41.477  11.959
18996W        W78257  17.138   9.222  11.027
18997W        W78258  44.389  44.267   3.384
18998W        W78259  22.996  21.174   2.374
18999W        W78260   4.827  23.699   1.889
19000W        W78261  31.994   8.192   3.699
19001W        W78262  38.960  28.636  12.409
19002W        W78263  15.649  43.940   0.825
19003W        W78264   4.348   8.245   1.286
19004W        W78265   9.765  24.982  11.869
19005W        W78266  44.956   3.845   3.334
19006W        W78267  33.608   1.750   4.618
19007W        W78268   9.765  15.675   0.451
19008W        W78269   3.887  10.298   3.713
19009W        W78270  19.602  27.946   3.189
19010W        W78271   8.166  35.934   0.463
19011W        W78272  35.104  11.316  13.022
19012W        W78273  16.716   2.367  12.852
19013W        W78274  13.167  15.658   4.812
19014W        W78275  21.148  13.315   1.285
19015W        W78276  41.824   7.398  10.433
19016W        W78277  40.894  30.615  13.908
19017W        W78278  22.670  25.628   1.338
19018W        W78279  27.561   7.899  13.873
19019W        W78280   1.282  44.321  12.878
19020W        W78281  39.975  29.094   2.286
19021W        W78282  16.212  25.154  11.012
19022W        W78283  39.390  31.434   3.868
19023W        W78284   5.308   1.349   2.320
19024W        W78285  38.991  36.955   2.821
19025W        W78286  10.343  11.865   4.131
19026W        W78287  35.602  34.865  13.879
19027W        W78288  38.830  34.891   2.777
19028W        W78289  15.740  15.216   1.285
19029W        W78290   3.777  12.347  12.824
19030W        W78291  39.868   4.794  13.793
19031W        W78292   4.823  14.128  14.395
19032W        W78293  11.257  25.209  11.550
19033W        W78294  19.211  36.842   4.606
19034W        W78295  32.541   5.429  10.593
19035W        W78296  31.897  26.955   4.639
19036W        W78297  29.994  43.342  11.911
19037W        W78298   8.788  13.717   5.203
19038W        W78299  35.601  16.314   0.398
19039W        W78300  22.577  43.409  12.494
19040W        W78301  24.053   4.313  10.922
19041W        W78302  19.147  14.744   3.719
19042W        W78303  37.430   3.318   1.704
19043W        W78304  44.262  32.000   2.332
19044W        W78305  36.914  44.436   2.216
19045W        W78306   6.334   7.881   1.814
19046W        W78307  33.464  13.740  12.349
19047W        W78308  32.065  19.248  13.513
19048W        W78309   6.913  36.006  11.024
19049W        W78310  44.912  42.930   2.727
19050W        W78311  30.569   8.349  10.547
19051W        W78312  24.524  17.737   2.706
19052W        W78313  17.294   6.830   1.371
19053W        W78314  34.096  22.506   0.799
19054W        W78315  36.405  15.782   1.333
19055W        W78316  36.509   3.864  10.511
19056W        W78317  28.178   1.274   3.853
19057W        W78318  31.917  32.906   0.454
19058W        W78319   3.335  10.327  10.896
19059W        W78320  37.045   0.931   4.632
19060W        W78321  44.941  36.427   1.875
19061W        W78322  39.399  12.249  11.435
19062W        W78323  11.742  12.796   2.894
19063W        W78324  24.660  31.054   3.317
19064W        W78325   8.267   2.878   4.318
19065W        W78326   4.228  40.423  14.426
19066W        W78327  41.312  22.516  12.002
19067W        W78328  16.730  23.701  10.621
19068W        W78329  41.490  22.043   4.348
19069W        W78330  37.405  42.954   2.859
19070W        W78331  44.845   5.392   2.406
19071W        W78332  30.505  17.556   3.334
19072W        W78333  17.791  34.078   1.713
19073W        W78334  26.093   4.701   1.871
19074W        W78335  20.271  42.808  13.936
19075W        W78336  39.427   8.810  12.503
19076W        W78337  34.936  36.069   0.809
19077W        W78338   2.901  18.084   1.250
19078W        W78339  21.663  15.217   4.347
19079W        W78340   2.780  16.572   3.386
19080W        W78341  26.991   4.285  11.089
19081W        W78342  20.250  36.536   0.847
19082W        W78343  20.760  11.643   4.598
19083W        W78344   3.354   7.397  11.568
19084W        W78345   6.791  12.276   2.410
19085W        W78346   9.176  17.589  14.832
19086W        W78347   1.775  19.256  11.589
19087W        W78348  13.666  14.649  13.346
19088W        W78349  23.532  20.722  14.982
19089W        W78350  29.045  12.249   1.905
19090W        W78351   0.390  10.141   2.267
19091W        W78352  15.151  28.132  13.964
19092W        W78353  39.882   6.402   0.405
19093W        W78354  38.858  13.230   0.380
19094W        W78355  12.639   3.346  10.632
19095W        W78356  10.853  38.888   1.808
19096W        W78357  38.543  10.162   4.770
19097W        W78358  31.635  30.490  12.833
19098W        W78359  41.324   4.701  12.451
19099W        W78360   0.318  18.071  11.100
19100W        W78361   5.713  29.571   2.312
19101W        W78362  25.633  29.135   3.225
19102W        W78363  36.426  16.227   2.723
19103W        W78364  23.697  26.062  14.314
19104W        W78365  12.215  22.574  13.466
19105W        W78366  25.557  22.688   2.738
19106W        W78367   1.319  27.175  12.431
19107W        W78368  42.955  34.980   0.910
19108W        W78369  16.117  26.005  11.969
19109W        W78370  40.352   2.382   2.784
19110W        W78371  18.620  11.833   3.780
19111W        W78372   3.815   3.324   1.212
19112W        W78373  36.376  44.402  14.913
19113W        W78374  14.722  15.741   2.773
19114W        W78375  42.422   1.298   0.447
19115W        W78376   7.772  34.896   5.211
19116W        W78377  38.829  35.590  12.915
19117W        W78378  23.013  14.098   1.273
19118W        W78379   8.272  30.463   3.319
19119W        W78380  18.060  31.527   1.347
19120W        W78381  12.642  24.142   2.283
19121W        W78382  16.129  31.403  13.802
19122W        W78383  11.303  30.487  11.036
19123W        W78384  24.081   8.710   3.384
19124W        W78385  37.501  39.021  14.389
19125W        W78386  36.073   3.773   0.313
19126W        W78387  35.036  33.897   0.765
19127W        W78388  14.120  41.912   0.269
19128W        W78389   1.247  32.924   4.598
19129W        W78390   4.243  27.663   1.387
19130W        W78391  42.800  24.630  12.354
19131W        W78392  10.325  22.241  12.968
19132W        W78393  12.628  35.907   1.922
19133W        W78394  34.918  17.139   3.795
19134W        W78395  13.266  29.066  12.465
19135W        W78396   0.759  38.517  12.406
19136W        W78397   8.860   0.290  14.286
19137W        W78398  15.688  21.210  11.595
19138W        W78399  12.205  40.493  12.874
19139W        W78400  11.331  11.703   4.797
19140W        W78401  10.827  38.007  13.023
19141W        W78402  16.592  13.351   1.808
19142W        W78403  25.692  38.470   2.823
19143W        W78404  31.023  37.036   3.164
19144W        W78405  36.848  19.615  13.353
19145W        W78406  12.804   6.830  12.577
19146W        W78407   5.767  15.748  14.491
19147W        W78408  36.985  19.249  13.490
19148W        W78409  18.781  11.127  12.915
19149W        W78410  31.022  24.625  10.969
19150W        W78411  31.409   2.468  14.904
19151W        W78412   8.782  14.819   0.471
19152W        W78413  41.942  18.258   0.892
19153W        W78414  41.858   3.270   3.376
19154W        W78415  38.478  23.543  11.896
19155W        W78416  10.672   9.154   0.321
19156W        W78417  25.215  22.519  12.422
19157W        W78418  16.260  19.276  11.541
19158W        W78419  15.218  11.342  10.946
19159W        W78420  19.544  16.242  12.843
19160W        W78421  29.546  41.848  12.012
19161W        W78422  44.811  10.719  13.515
19162W        W78423  30.473  28.622  10.908
19163W        W78424  44.439  16.575   3.679
19164W        W78425  26.132  31.592  13.965
19165W        W78426  24.194  34.895   4.626
19166W        W78427  23.493   3.773  13.957
19167W        W78428  19.626  11.344   2.738
19168W        W78429   4.824   3.380   0.935
19169W        W78430  11.838  32.626   1.766
19170W        W78431  30.562  19.723  12.902
19171W        W78432   6.886  19.746  13.490
19172W        W78433  33.410  42.407  12.003
19173W        W78434   3.806  13.731   1.713
19174W        W78435   6.914  15.659  14.356
19175W        W78436  21.566  18.683   3.641
19176W        W78437  38.069  34.101   2.232
19177W        W78438   3.274  30.954  10.598
19178W        W78439  27.669  21.729   1.334
19179W        W78440  22.083   5.835  14.282
19180W        W78441  15.155  12.309   4.713
19181W        W78442   2.237   8.833   0.956
19182W        W78443  14.591  32.888   2.193
19183W        W78444  31.492  44.778   3.161
19184W        W78445  26.673  35.562   1.237
19185W        W78446  13.622  23.172  13.443
19186W        W78447  40.404  27.022   3.774
19187W        W78448   0.324  15.199   0.394
19188W        W78449  34.479  33.996  11.505
19189W        W78450  33.498  24.686   3.158
19190W        W78451   7.309  38.389  11.941
19191W        W78452   0.328  39.332   2.701
19192W        W78453  27.048  16.244   2.374
19193W        W78454   8.230   1.733   0.870
19194W        W78455  13.826  21.627  14.895
19195W        W78456  11.133   4.940  10.500
19196W        W78457  19.118   2.836  11.432
19197W        W78458  19.140  35.008  14.799
19198W        W78459  30.950  12.145   1.210
19199W        W78460  39.030   1.290  13.926
19200W        W78461  30.027   2.312  13.362
19201W        W78462  15.804  20.737   1.920
19202W        W78463   8.762  35.889   4.803
19203W        W78464  34.500  42.500  14.943
19204W        W78465  15.781  25.028  12.447
19205W        W78466   6.729  34.094   3.355
19206W        W78467  41.037  15.293  11.124
19207W        W78468  28.179   3.789   2.399
19208W        W78469  21.583  33.926   2.718
19209W        W78470  37.897  33.471   5.160
19210W        W78471  37.988  44.877   0.245
19211W        W78472   2.441  35.908   0.808
19212W        W78473  39.810   9.395  10.941
19213W        W78474  27.960  22.177   1.871
19214W        W78475  38.914  36.902   4.217
19215W        W78476   3.740  31.556   0.383
19216W        W78477  36.422  32.098  14.916
19217W        W78478   7.715  14.142   0.910
19218W        W78479  28.594  28.151  12.040
19219W        W78480  34.508  12.317  11.951
19220W        W78481  29.069   5.349   4.765
19221W        W78482   9.295  17.249   0.385
19222W        W78483  15.584  30.950  14.948
19223W        W78484  21.065  42.910   2.866
19224W        W78485  13.238  42.844  14.369
19225W        W78486  28.941  25.535  10.491
19226W        W78487  19.170  24.053   1.285
19227W        W78488  34.564  44.009   0.406
19228W        W78489  43.433  17.126   4.233
19229W        W78490  23.547   4.705  13.369
19230W        W78491  36.870  18.292   0.734
19231W        W78492  11.801  34.941  13.945
19232W        W78493  25.972  22.597  13.814
19233W        W78494   0.446   1.906   1.260
19234W        W78495  25.088  29.027   2.862
19235W        W78496  14.805  39.492  11.404
19236W        W78497  17.136  17.293   2.780
19237W        W78498  38.924   4.900   1.827
19238W        W78499  41.797   0.847  10.475
19239W        W78500  36.436   8.739   3.778
19240W        W78501  20.692  39.391   4.685
19241W        W78502   8.666  25.167   1.354
19242W        W78503   4.763  31.500  12.400
19243W        W78504  36.972   0.843  10.929
19244W        W78505   3.368   6.840   4.345
19245W        W78506  17.300  28.633   1.260
19246W        W78507  20.093   7.682   1.926
19247W        W78508  34.082  39.966  14.832
19248W        W78509  18.669  41.820  12.823
19249W        W78510   1.764  38.917  14.792
19250W        W78511   0.902  10.672  10.629
19251W        W78512  41.380  12.346   1.249
19252W        W78513  25.532  22.227   0.429
19253W        W78514  15.657  18.637  12.037
19254W        W78515   1.269  19.197   2.213
19255W        W78516  30.999  44.789  11.099
19256W        W78517  25.515  36.372   3.271
19257W        W78518  43.785  15.664  14.394
19258W        W78519   4.268   9.695  11.871
19259W        W78520  37.936  23.597   2.900
19260W        W78521  23.671  11.681  10.906
19261W        W78522  16.721  13.199   4.255
19262W        W78523  17.287   7.377  12.972
19263W        W78524  43.379  13.291  11.007
19264W        W78525  19.535  30.964  11.558
19265W        W78526   4.871   1.889  14.766
19266W        W78527  43.802   2.734   3.156
19267W        W78528  42.790  22.203   1.854
19268W        W78529  28.137  40.506  11.453
19269W        W78530  19.109  34.383  11.874
19270W        W78531   3.229   7.675   4.352
19271W        W78532   3.328  40.541   0.739
19272W        W78533  44.421  35.028  10.467
19273W        W78534  23.550  34.377  11.950
19274W        W78535  13.122   1.913  10.151
19275W        W78536  30.558  40.808  13.052
19276W        W78537   5.263  16.285  12.398
19277W        W78538  33.546  34.024  11.991
19278W        W78539   9.249  29.058  12.553
19279W        W78540   1.307  41.007   4.831
19280W        W78541   0.391   4.300  13.004
19281W        W78542  23.154  26.586  12.545
19282W        W78543   7.840  39.924   9.925
19283W        W78544  30.092  38.998   3.748
19284W        W78545  26.582  20.713   4.196
19285W        W78546  17.108  22.509  12.878
19286W        W78547  44.888  35.552  12.087
19287W        W78548  23.506   0.321  13.346
19288W        W78549  24.671  11.794   2.680
19289W        W78550  24.072  29.544  10.976
19290W        W78551  11.745  32.133  12.883
19291W        W78552  44.438  32.601  12.416
19292W        W78553   0.466  22.677   0.841
19293W        W78554  18.703  44.469  14.995
19294W        W78555  37.961  28.093   4.746
19295W        W78556  41.533  26.664   2.678
19296W        W78557  44.949   8.301  14.467
19297W        W78558  19.137  15.164  11.562
19298W        W78559  36.081  44.470  14.434
19299W        W78560  19.635   6.836  14.916
19300W        W78561  19.041   2.819   2.721
19301W        W78562  43.451  25.605  12.568
19302W        W78563   3.420  30.127   2.831
19303W        W78564  19.166  37.982  13.019
19304W        W78565  32.571   2.740   1.893
19305W        W78566  21.619  26.104  12.931
19306W        W78567  36.471  21.656  11.442
19307W        W78568  43.904  28.957   1.715
19308W        W78569   3.269  10.239  13.398
19309W        W78570  22.141  42.864   3.837
19310W        W78571  39.903  12.289   0.384
19311W        W78572  31.448  37.953   2.793
19312W        W78573  33.963  25.987   2.686
19313W        W78574   5.735  37.904  14.876
19314W        W78575  32.001  34.089  12.943
19315W        W78576   0.380  17.124   4.254
19316W        W78577  38.475  27.494  10.442
19317W        W78578   3.790  30.151  11.118
19318W        W78579   4.861   0.355  14.016
19319W        W78580  32.132   7.199   2.670
19320W        W78581  28.621  43.382   1.890
19321W        W78582  38.831  25.103   3.826
19322W        W78583  30.059   3.931   4.237
19323W        W78584  26.657  17.213  13.483
19324W        W78585  25.138   9.690   3.250
19325W        W78586  33.493  43.392  10.464
19326W        W78587  15.244  43.313  12.033
19327W        W78588  30.974  25.577  14.956
19328W        W78589  32.433  40.504   0.841
19329W        W78590  21.175  38.425  13.536
19330W        W78591   4.423  16.257   0.269
19331W        W78592  15.232   9.888   2.696
19332W        W78593  41.840  30.571  12.914
19333W        W78594  32.999   6.745   4.643
19334W        W78595  35.368   9.773   1.300
19335W        W78596   3.826  17.699   0.412
19336W        W78597  44.405  13.244  12.061
19337W        W78598  26.605  17.162  11.952
19338W        W78599  11.330  12.303  11.000
19339W        W78600  42.907  17.062   4.298
19340W        W78601  39.942   4.702   1.816
19341W        W78602  14.115  36.371   2.662
19342W        W78603   9.677   6.386   3.669
19343W        W78604  14.761   2.407   0.341
19344W        W78605  30.595  41.465   4.600
19345W        W78606  38.940   9.295  10.912
19346W        W78607   5.206  16.134   3.709
19347W        W78608  43.834   6.836  12.908
19348W        W78609  42.343  26.156  12.483
19349W        W78610   9.764  19.650  13.887
19350W        W78611  12.170  26.008  13.822
19351W        W78612  12.624   5.385   1.829
19352W        W78613  18.267   9.260   3.146
19353W        W78614  22.578  43.516  14.969
19354W        W78615  31.950  13.347   3.382
19355W        W78616  33.491  21.635   1.908
19356W        W78617   2.371  17.680   3.646
19357W        W78618  24.550  28.170   5.158
19358W        W78619  43.366  23.242  11.403
19359W        W78620  16.571  22.142   1.828
19360W        W78621  10.698   7.813  10.937
19361W        W78622   2.334  21.090  12.529
19362W        W78623  35.054  37.008  10.551
19363W        W78624  15.715   8.811  14.443
19364W        W78625  32.390  29.010  12.542
19365W        W78626  36.553  14.188  11.969
19366W        W78627  29.935  13.342  11.557
19367W        W78628   2.409  44.396  11.975
19368W        W78629   1.939  21.228   2.287
19369W        W78630  17.792   4.359   2.691
19370W        W78631  40.964  21.234   2.706
19371W        W78632  10.347  40.477   0.372
19372W        W78633  30.524  31.065  14.927
19373W        W78634  41.873  34.996   5.311
19374W        W78635  28.638   5.242  13.530
19375W        W78636   3.274  36.023   2.349
19376W        W78637  16.114   5.371   0.291
19377W        W78638  39.368  22.229  13.348
19378W        W78639  28.537  14.773   1.306
19379W        W78640  19.121  40.335   4.605
19380W        W78641   7.892  30.158   1.831
19381W        W78642   4.933  16.780  11.612
19382W        W78643  26.566  40.026   0.808
19383W        W78644  32.444   2.779  14.470
19384W        W78645  42.948  16.101  12.844
19385W        W78646   0.797   6.884  13.349
19386W        W78647  39.492  40.464   4.332
19387W        W78648  17.794   3.808  10.531
19388W        W78649  35.016  12.781  13.334
19389W        W78650  19.761  24.701   4.255
19390W        W78651   9.851  24.032   0.474
19391W        W78652   8.406  25.630   2.237
19392W        W78653  19.555  17.682   3.368
19393W        W78654  22.714  30.035  10.465
19394W        W78655  21.558  33.990  14.821
19395W        W78656   7.202  21.093  10.434
19396W        W78657   4.269  30.083  13.539
19397W        W78658  26.175  41.042  13.945
19398W        W78659   8.801  18.073  13.905
19399W        W78660  22.118  28.121   2.322
19400W        W78661  33.060  16.219   5.277
19401W        W78662  23.120  23.593   9.644
19402W        W78663  42.317  20.261  10.453
19403W        W78664  31.584   3.454   0.767
19404W        W78665  27.628   9.194  13.328
19405W        W78666  41.029  32.128  14.416
19406W        W78667  18.116  28.486   2.676
19407W        W78668  31.638  43.397  14.365
19408W        W78669  17.251  17.231   1.367
19409W        W78670  35.470  16.158  11.560
19410W        W78671  34.600  19.052  14.860
19411W        W78672   4.926  39.887   2.819
19412W        W78673  33.074   2.892  14.849
19413W        W78674  10.761  14.621  12.978
19414W        W78675  35.572   8.305   1.828
19415W        W78676  23.076   5.427  14.807
19416W        W78677   2.928  24.551   1.712
19417W        W78678   7.892  15.597  14.941
19418W        W78679   0.250   9.329   4.123
19419W        W78680  38.874  17.763  10.501
19420W        W78681   4.393  33.527   1.746
19421W        W78682  44.777   5.702   3.691
19422W        W78683  30.908  14.257  14.471
19423W        W78684  44.890  10.185  13.878
19424W        W78685  40.944   2.896  12.046
19425W        W78686  18.566  23.041  14.859
19426W        W78687  21.142  19.069  10.937
19427W        W78688  14.121   0.365   3.793
19428W        W78689  43.825  33.882   4.719
19429W        W78690   6.407  27.569  12.041
19430W        W78691  19.193  12.771   3.651
19431W        W78692  33.559  15.620   2.868
19432W        W78693  36.011  23.141   2.821
19433W        W78694   9.273   5.433   5.659
19434W        W78695   2.919  33.459   4.121
19435W        W78696  40.516  14.718  13.369
19436W        W78697  11.693   5.203   0.367
19437W        W78698  33.521   0.307  13.950
19438W        W78699  43.382  38.544  11.462
19439W        W78700   6.904  16.738   1.369
19440W        W78701  31.010  40.946  14.274
19441W        W78702  18.598  36.966  11.110
19442W        W78703  18.645  25.009   0.332
19443W        W78704   4.751  17.256  14.371
19444W        W78705  22.558  23.617  10.435
19445W        W78706  20.048  15.681  14.349
19446W        W78707  30.914  40.994   2.364
19447W        W78708  31.964  26.607  11.991
19448W        W78709  32.484  15.154   4.721
19449W        W78710   6.347  38.018  11.892
19450W        W78711  29.476  18.103  10.569
19451W        W78712  32.612  37.853  12.468
19452W        W78713  33.500  42.855   1.862
19453W        W78714  31.970  26.122   0.416
19454W        W78715  25.633  31.530   2.668
19455W        W78716  42.851   5.731  13.857
19456W        W78717  38.371   6.770   1.233
19457W        W78718   3.718   1.870   2.393
19458W        W78719  39.473  33.916  12.930
19459W        W78720  16.797  43.353   4.300
19460W        W78721   5.234  43.841   2.672
19461W        W78722  23.638  32.459   0.771
19462W        W78723  25.638   9.326  12.887
19463W        W78724  27.115  30.518  14.433
19464W        W78725  41.935  19.123   3.313
19465W        W78726   9.287  28.536   4.316
19466W        W78727  32.579  37.348  11.970
19467W        W78728   8.656  12.726  14.406
19468W        W78729  34.440  25.601  10.603
19469W        W78730  34.384  32.003  12.036
19470W        W78731   2.305  29.022  11.031
19471W        W78732  26.051  29.488  10.632
19472W        W78733  26.650  42.359   4.625
19473W        W78734  10.653   0.376  11.035
19474W        W78735  22.077  33.382   3.277
19475W        W78736   0.930  10.756  12.518
19476W        W78737  36.924   4.912   1.885
19477W        W78738  23.014  20.540   0.292
19478W        W78739   7.688  34.448   3.308
19479W        W78740  33.429  28.186  11.513
19480W        W78741  24.179  33.097   4.345
19481W        W78742  44.930  21.184  12.562
19482W        W78743  26.185  24.631   1.211
19483W        W78744  44.451  36.895   0.291
19484W        W78745  33.389   8.803  10.935
19485W        W78746  16.138   6.361   0.964
19486W        W78747  35.064  38.446   1.221
19487W        W78748  13.733  36.589   3.297
19488W        W78749  13.804  20.540  14.372
19489W        W78750  24.102  41.437  10.976
19490W        W78751  43.832  31.488   3.324
19491W        W78752   6.891  16.198  13.020
19492W        W78753   8.739  15.628  10.896
19493W        W78754  30.585  43.862  12.451
19494W        W78755  34.932   7.742   1.869
19495W        W78756  37.424  25.126   3.239
19496W        W78757  39.498   0.905   0.403
19497W        W78758  40.366  42.906  13.841
19498W        W78759   0.829   9.182  11.899
19499W        W78760  36.391   9.306   4.181
19500W        W78761  22.103  37.358  12.504
19501W        W78762  10.678   9.837  11.527
19502W        W78763  20.056  37.881   4.134
19503W        W78764  40.014  13.173   0.876
19504W        W78765  29.074  41.462  10.497
19505W        W78766  17.106  17.749   4.237
19506W        W78767  15.130  33.875   3.278
19507W        W78768   2.249  12.852  11.035
19508W        W78769   0.888   6.315  13.849
19509W        W78770  28.533   5.925   0.873
19510W        W78771   2.343  30.995   3.243
19511W        W78772  30.045  19.598   4.115
19512W        W78773  30.071   4.910  12.853
19513W        W78774  32.053  16.593   2.745
19514W        W78775  10.747  29.660   3.235
19515W        W78776  13.628  21.546   4.123
19516W        W78777  28.977  40.922  14.006
19517W        W78778  21.052  27.647  14.287
19518W        W78779  37.467  43.971   1.320
19519W        W78780  33.884  17.248  10.912
19520W        W78781  12.277  44.280  13.839
19521W        W78782  20.200   6.428  13.354
19522W        W78783  41.877  13.222   3.168
19523W        W78784   6.423  43.506  13.018
19524W        W78785   9.712  22.656   3.858
19525W        W78786  14.653   6.355  13.043
19526W        W78787  36.388   5.811  11.940
19527W        W78788  29.653  29.652  11.392
19528W        W78789   5.738  13.657   0.875
19529W        W78790   7.783  41.362  14.276
19530W        W78791  43.966  21.091  12.440
19531W        W78792  28.470  37.876   0.860
19532W        W78793  19.080  35.975   0.306
19533W        W78794  40.303  41.422   1.928
19534W        W78795  24.194  19.654   1.924
19535W        W78796   0.859  28.610  11.950
19536W        W78797   8.184  42.982  11.895
19537W        W78798  38.347  16.271   2.770
19538W        W78799   0.745   4.862   4.183
19539W        W78800  38.569   2.802  12.894
19540W        W78801   5.791   8.320   3.768
19541W        W78802   9.886   3.452  13.018
19542W        W78803  36.862  10.774   0.357
19543W        W78804  26.138  28.600   1.415
19544W        W78805  14.305   9.855   0.800
19545W        W78806  19.704   0.335   0.756
19546W        W78807  24.609  30.610   0.799
19547W        W78808   2.381  39.358  11.860
19548W        W78809  44.786   6.917  11.962
19549W        W78810  11.353  24.654   3.344
19550W        W78811  18.289  38.926   3.310
19551W        W78812  11.163  21.586   4.129
19552W        W78813  25.600   4.850   0.326
19553W        W78814   0.281  23.699   4.312
19554W        W78815  12.361  29.618   1.703
19555W        W78816  39.995  30.941  10.990
19556W        W78817  42.932   6.815  10.977
19557W        W78818  14.257  25.690  14.313
19558W        W78819  23.726  31.067   3.657
19559W        W78820   1.306  41.370  13.942
19560W        W78821  31.564  15.695   4.324
19561W        W78822  18.178   4.414   1.935
19562W        W78823  13.649  16.126  12.833
19563W        W78824  43.918  27.953   3.226
19564W        W78825  34.395  32.992   0.793
19565W        W78826   9.320   9.320   2.834
19566W        W78827  37.487  41.494   4.292
19567W        W78828   3.266  13.833   1.773
19568W        W78829  15.690   0.435  10.570
19569W        W78830   3.321  41.396   4.809
19570W        W78831   0.297  11.738   0.249
19571W        W78832  26.967   2.896   1.804
19572W        W78833  33.439   1.755   3.230
19573W        W78834  21.705  24.503  10.131
19574W        W78835  19.663  34.905   4.598
19575W        W78836  37.862   4.769   3.779
19576W        W78837  24.223  28.933  12.038
19577W        W78838  18.568   2.328   0.785
19578W        W78839  11.681  28.010   2.676
19579W        W78840  35.078  31.083  11.915
19580W        W78841  41.032  43.807   3.823
19581W        W78842  18.639  23.214  10.410
19582W        W78843  34.597  14.214  12.945
19583W        W78844   0.976  35.445   3.164
19584W        W78845  12.256  35.362   2.355
19585W        W78846  36.929  19.257  11.074
19586W        W78847  42.867  18.672  13.466
19587W        W78848  14.312  15.798  13.539
19588W        W78849  40.971  28.443   2.718
19589W        W78850  19.155   0.764   2.697
19590W        W78851  43.407  13.727   0.734
19591W        W78852  27.455  27.490   0.937
19592W        W78853  36.062  16.177  13.870
19593W        W78854  35.427  18.726   2.335
19594W        W78855  12.180   1.849   0.778
19595W        W78856  34.604  21.566  10.560
19596W        W78857  25.650  12.298  13.972
19597W        W78858  30.972  18.108  14.400
19598W        W78859  25.535  33.037   0.818
19599W        W78860  28.054   2.960   2.201
19600W        W78861   1.384   1.468  14.912
19601W        W78862  24.559  22.154   4.145
19602W        W78863  33.417  29.659  11.883
19603W        W78864  42.033  31.485  14.760
19604W        W78865  29.428  37.850   2.356
19605W        W78866  10.202   8.380   0.450
19606W        W78867   6.271   2.259  12.867
19607W        W78868  33.515  30.117   2.210
19608W        W78869   4.437  37.570   0.333
19609W        W78870   9.795   4.239  12.347
19610W        W78871   0.275  43.901  12.418
19611W        W78872  43.507  11.652  14.798
19612W        W78873  12.617   5.260   2.359
19613W        W78874   4.830  39.009   4.661
19614W        W78875  22.695  27.531   1.316
19615W        W78876  30.505   3.350  12.095
19616W        W78877  10.211   1.765  11.379
19617W        W78878  19.209  17.129   3.195
19618W        W78879   3.820  26.531   2.335
19619W        W78880  36.998   6.267  10.895
19620W        W78881  23.612  12.616  10.927
19621W        W78882  11.244  29.443  12.419
19622W        W78883  19.742   4.728   3.366
19623W        W78884  32.471  36.909  11.948
19624W        W78885  43.873  40.857  13.854
19625W        W78886   0.879   6.227   0.745
19626W        W78887   0.939   6.293   2.733
19627W        W78888  42.882  30.064   3.182
19628W        W78889  32.514  44.367   0.942
19629W        W78890  39.055  21.724   3.794
19630W        W78891  42.932   5.689   2.354
19631W        W78892  33.542  26.522  11.008
19632W        W78893  40.320  17.570  11.419
19633W        W78894  10.207  14.222   3.182
19634W        W78895  15.725  43.385   2.287
19635W        W78896  37.960  13.165   4.349
19636W        W78897  39.398  38.825   3.275
19637W        W78898  44.916  28.648   3.149
19638W        W78899  18.626  39.484  12.934
19639W        W78900  35.102  18.294   1.325
19640W        W78901  17.578  37.496   3.246
19641W        W78902  14.339  21.166  14.874
19642W        W78903  42.938  20.721   2.347
19643W        W78904   4.430  11.299  12.553
19644W        W78905  43.454   6.297   4.236
19645W        W78906  41.483  16.661  13.014
19646W        W78907  24.148  28.103  11.413
19647W        W78908  24.529  24.130   5.276
19648W        W78909  10.878  43.884  14.942
19649W        W78910  21.071  36.366  10.523
19650W        W78911  22.090  42.028   4.743
19651W        W78912  27.102   3.322   2.241
19652W        W78913  29.016  10.156   4.726
19653W        W78914  32.131  16.072  13.400
19654W        W78915  23.990  23.152  11.576
19655W        W78916  30.416  19.668  12.350
19656W        W78917  12.261  21.030   5.137
19657W        W78918  43.270  24.685   3.357
19658W        W78919  17.136   7.339  11.519
19659W        W78920  36.032  14.656   4.136
19660W        W78921  10.353  33.074  11.885
19661W        W78922  43.848  37.002  14.433
19662W        W78923   5.775  44.855  14.826
19663W        W78924  32.505  44.329   0.287
19664W        W78925  35.096  39.997   4.668
19665W        W78926  44.272  29.958   2.388
19666W        W78927  43.371  15.618  12.826
19667W        W78928   8.188  30.499  13.906
19668W        W78929  38.857  19.140   4.155
19669W        W78930  19.161  25.652  12.912
19670W        W78931  44.908  15.823  11.921
19671W        W78932  33.527  29.071  14.872
19672W        W78933  11.301  28.526   4.771
19673W        W78934  20.144   9.281   3.814
19674W        W78935  11.686   8.319  11.946
19675W        W78936  10.245   7.870   0.831
19676W        W78937  40.402  13.243   5.198
19677W        W78938   7.691  40.399   5.226
19678W        W78939   7.866  26.560   0.913
19679W        W78940  23.037  16.642  12.853
19680W        W78941  19.087   4.828   0.865
19681W        W78942  36.924   5.903  12.385
19682W        W78943  27.618  29.951  13.028
19683W        W78944  12.652  13.150   2.338
19684W        W78945  13.345  18.088   2.415
19685W        W78946   2.420  15.783   0.285
19686W        W78947  16.602  43.805   4.691
19687W        W78948  25.191  39.990   2.336
19688W        W78949   4.318   2.460   1.804
19689W        W78950  27.049  40.501   3.382
19690W        W78951  12.651  24.718   3.161
19691W        W78952  33.024  17.162   3.204
19692W        W78953   0.854  28.008  11.099
19693W        W78954   1.299  41.850  13.841
19694W        W78955   5.719  27.042   0.344
19695W        W78956  21.049  10.824   1.755
19696W        W78957  17.096   7.366  11.935
19697W        W78958  25.191  14.148   3.652
19698W        W78959  13.712  31.117   0.368
19699W        W78960  32.608  26.052   4.660
19700W        W78961  18.175  38.037   2.251
19701W        W78962  34.945   8.688  11.898
19702W        W78963  37.948  18.079  14.511
19703W        W78964   3.294  15.641   2.752
19704W        W78965  13.627  19.590  11.472
19705W        W78966  31.004  12.713   4.814
19706W        W78967  27.967  39.329   2.779
19707W        W78968   5.867   4.766  13.430
19708W        W78969  40.547  15.647   4.729
19709W        W78970  22.520  12.711  13.032
19710W        W78971  24.009  12.351  11.860
19711W        W78972   4.929  41.887   0.813
19712W        W78973  10.271  42.935   1.890
19713W        W78974  19.752   6.877  10.548
19714W        W78975  16.123   6.799  12.986
19715W        W78976  20.747   2.936   4.285
19716W        W78977  30.026  37.434   2.766
19717W        W78978   4.218  43.474  12.490
19718W        W78979  24.506  32.955  10.450
19719W        W78980  22.036  32.555  12.536
19720W        W78981  33.538   0.376   2.219
19721W        W78982  16.629  14.784   2.384
19722W        W78983  24.078   3.314   2.751
19723W        W78984  29.638  10.373   3.647
19724W        W78985  27.001  12.236   1.244
19725W        W78986  16.788  43.776  13.319
19726W        W78987   3.360   9.653  14.416
19727W        W78988  14.263  16.258  11.399
19728W        W78989  18.195   4.870  14.301
19729W        W78990  16.661  34.076  12.088
19730W        W78991  38.950  21.037   5.257
19731W        W78992  28.154   0.871  11.524
19732W        W78993  19.123  20.667   9.466
19733W        W78994  34.583  26.960   2.321
19734W        W78995  35.452  28.673  12.913
19735W        W78996  43.447  24.209   2.188
19736W        W78997  30.040   7.703   1.260
19737W        W78998  31.631   9.723   2.417
19738W        W78999   6.322  30.497   1.784
19739W        W79000   9.209  44.797  13.010
19740W        W79001  37.929  37.941  13.944
19741W        W79002  35.071  10.245  14.823
19742W        W79003  10.151  44.788  10.546
19743W        W79004  14.767  19.069   4.710
19744W        W79005  25.111  28.629   0.328
19745W        W79006  22.152  19.225  14.831
19746W        W79007  34.493   9.324   3.709
19747W        W79008  34.439   7.699   1.385
19748W        W79009  30.609  14.784  14.449
19749W        W79010  11.346  19.145   4.632
19750W        W79011  21.582  30.600  11.501
19751W        W79012  12.623  25.071  11.111
19752W        W79013  37.511  33.918   1.872
19753W        W79014  43.305  41.901   2.299
19754W        W79015  41.028  40.836   2.325
19755W        W79016  26.464  10.149   0.368
19756W        W79017  23.702  10.836   2.676
19757W        W79018  12.213  21.179  11.433
19758W        W79019  33.083  41.994   2.417
19759W        W79020  17.713  23.045   0.287
19760W        W79021  16.766   4.900   2.744
19761W        W79022  30.639  14.220   5.112
19762W        W79023   0.323  17.275   0.264
19763W        W79024  35.452  32.424   3.672
19764W        W79025  36.470  35.449  11.907
19765W        W79026  38.901  20.239   2.356
19766W        W79027  18.779  34.460   4.305
19767W        W79028   6.219   7.240  13.922
19768W        W79029   4.331  41.028  13.873
19769W        W79030  22.550  43.777   4.271
19770W        W79031  32.128  41.343   5.587
19771W        W79032  38.558   7.863   2.714
19772W        W79033  25.091   0.258  11.560
19773W        W79034   2.458  38.507   2.890
19774W        W79035   0.321  15.242  14.279
19775W        W79036   3.336   4.784   5.133
19776W        W79037  10.244  25.199  13.982
19777W        W79038   5.278  37.342   1.284
19778W        W79039  10.200  20.669   3.807
19779W        W79040  16.110  42.458   4.283
19780W        W79041  22.117  20.222  14.451
19781W        W79042   7.402   7.288  11.062
19782W        W79043  17.621  12.684  14.805
19783W        W79044  30.990   3.770   1.380
19784W        W79045   0.267  37.566   3.803
19785W        W79046  24.992   3.890   2.679
19786W        W79047  15.655   5.833   2.761
19787W        W79048  27.680  14.665  13.413
19788W        W79049   5.709  34.885  14.388
19789W        W79050  35.366  43.893   0.268
19790W        W79051  21.706  13.696  10.987
19791W        W79052  44.326  27.119   4.211
19792W        W79053  32.516  28.093  12.568
19793W        W79054  40.521  26.622   0.789
19794W        W79055  19.250   1.931   2.312
19795W        W79056  13.690  31.053  10.629
19796W        W79057  21.208  32.411   3.282
19797W        W79058  39.904   7.294   0.483
19798W        W79059  19.111  21.241   3.713
19799W        W79060  31.486   7.342  11.932
19800W        W79061  23.689  41.472  11.091
19801W        W79062  39.443  39.524   1.853
19802W        W79063  30.651  33.617   0.892
19803W        W79064  30.934  43.456  10.512
19804W        W79065   7.346  12.650  14.276
19805W        W79066  11.349  40.506   2.805
19806W        W79067  16.213  28.541  13.981
19807W        W79068   8.399  21.659  14.472
19808W        W79069  26.548  14.644   2.849
19809W        W79070  22.169  44.997  14.424
19810W        W79071  32.048  16.710   5.301
19811W        W79072  21.208   6.801  13.471
19812W        W79073  34.997  22.623  12.414
19813W        W79074  23.219   6.826  13.342
19814W        W79075  27.973   6.820  14.507
19815W        W79076   5.250   7.398   2.318
19816W        W79077   8.692   4.255   0.858
19817W        W79078  20.075   6.383  11.085
19818W        W79079   3.344  10.349  13.057
19819W        W79080  28.945  42.326   2.752
19820W        W79081  32.446  25.494  12.046
19821W        W79082  19.603  26.610  10.120
19822W        W79083  38.570  29.435  13.334
19823W        W79084  31.930  21.706  11.867
19824W        W79085  19.565  26.544   1.440
19825W        W79086   2.925  39.952  10.567
19826W        W79087  39.014  15.174   3.156
19827W        W79088  11.626  29.154   3.686
19828W        W79089  14.330  28.170  10.539
19829W        W79090   0.347  30.072  13.335
19830W        W79091  11.742  33.488  10.892
19831W        W79092  24.046  14.753   3.844
19832W        W79093  12.283  39.883  11.610
19833W        W79094  37.492  26.497   4.270
19834W        W79095  19.623  17.215   2.415
19835W        W79096   4.222   4.920   1.405
19836W        W79097   6.228  40.491   3.381
19837W        W79098  32.426  23.496  12.057
19838W        W79099  36.381  11.621   3.249
19839W        W79100  42.390  15.175   0.397
19840W        W79101  44.314   7.417  11.537
19841W        W79102  38.057   0.808   0.928
19842W        W79103  41.536  10.260  13.317
19843W        W79104  20.763  39.412   2.194
19844W        W79105   7.767  18.745  11.556
19845W        W79106  39.472  26.613   2.764
19846W        W79107  18.189  10.751   3.282
19847W        W79108   3.412  25.694   5.155
19848W        W79109  30.908  21.571  10.437
19849W        W79110  15.090  33.980  11.000
19850W        W79111  44.372  38.926   1.913
19851W        W79112  28.615  39.482   4.329
19852W        W79113  16.779  33.528  14.864
19853W        W79114  35.990  11.768  10.010
19854W        W79115  36.918  38.919  14.808
19855W        W79116  28.481   9.853  11.129
19856W        W79117  15.210  13.677  10.422
19857W        W79118   8.751  30.566  12.553
19858W        W79119   0.370  25.585  10.930
19859W        W79120  24.137  33.902   3.278
19860W        W79121  13.789  43.005  14.401
19861W        W79122  36.921  37.579   0.290
19862W        W79123  21.545  20.099   4.180
19863W        W79124  27.155  22.036   3.842
19864W        W79125  11.202  40.830   1.777
19865W        W79126  37.506  19.640   1.221
19866W        W79127  13.125  16.199  10.463
19867W        W79128   9.716  25.046  11.031
19868W        W79129  36.352  37.869   4.811
19869W        W79130   9.725  18.196  10.584
19870W        W79131  13.757  44.269   0.956
19871W        W79132  21.229  13.240  13.897
19872W        W79133  35.876   4.845   0.872
19873W        W79134  43.771  32.986   4.650
19874W        W79135  17.692  14.628  11.594
19875W        W79136  30.515   8.307   3.251
19876W        W79137   7.759  23.515   2.694
19877W        W79138  10.833   2.863   1.393
19878W        W79139  13.771   2.304   2.817
19879W        W79140  34.393   9.694   0.480
19880W        W79141  17.230  22.153  13.875
19881W        W79142  38.017  21.088   2.408
19882W        W79143  26.093  37.538   4.732
19883W        W79144   1.434  16.152   1.868
19884W        W79145  29.947  29.966  11.990
19885W        W79146  15.190  15.122   3.230
19886W        W79147  37.088  20.226   1.440
19887W        W79148  16.255  13.177   2.300
19888W        W79149  16.093  31.408  10.477
19889W        W79150   6.888  12.200  11.964
19890W        W79151  19.541  10.756   4.612
19891W        W79152  22.246  23.617  12.479
19892W        W79153   6.265  10.274   1.855
19893W        W79154   1.311   5.257  11.493
19894W        W79155   9.785  35.006  10.478
19895W        W79156  44.791  40.358   2.888
19896W        W79157  32.617   2.382   1.439
19897W        W79158   5.335  38.057   1.917
19898W        W79159  36.057   1.406   1.708
19899W        W79160  37.946  37.577  14.327
19900W        W79161  34.035  10.839  13.946
19901W        W79162  19.641  31.560  11.386
19902W        W79163  10.362  36.527  12.861
19903W        W79164  18.554  26.700  12.996
19904W        W79165  35.468  29.472  11.896
19905W        W79166  20.152  10.652   2.249
19906W        W79167  40.049  12.342  11.419
19907W        W79168  36.580   9.669  14.338
19908W        W79169  36.893  17.622   1.390
19909W        W79170  32.047   5.749  11.459
19910W        W79171  16.206  13.664  10.570
19911W        W79172  27.988  42.016   1.718
19912W        W79173  34.975  33.485  14.481
19913W        W79174  11.832  32.062  11.565
19914W        W79175  14.704   6.723   0.773
19915W        W79176   1.412  20.660  11.890
19916W        W79177  17.574  16.249   4.178
19917W        W79178   3.455  33.518   2.810
19918W        W79179   7.220  21.616  14.929
19919W        W79180  43.950   1.797   2.200
19920W        W79181  44.460  34.921  14.457
19921W        W79182  17.288  39.833  11.555
19922W        W79183  21.030  43.471  14.987
19923W        W79184  36.593   2.750   0.407
19924W        W79185  14.192   9.272  12.415
19925W        W79186  41.974  24.633  13.347
19926W        W79187  16.281  27.194   2.819
19927W        W79188  32.083  18.126   0.939
19928W        W79189  29.432  42.792   3.766
19929W        W79190  20.249  34.018   3.165
19930W        W79191  19.208  26.061   2.379
19931W        W79192   0.932   4.215   4.318
19932W        W79193  29.992  24.037  12.842
19933W        W79194  22.721   1.368   2.312
19934W        W79195  14.690   2.832  10.578
19935W        W79196  36.470  36.465  11.967
19936W        W79197  26.661  13.708  13.432
19937W        W79198  14.760   7.692  13.821
19938W        W79199  35.590  15.314  11.411
19939W        W79200  39.495  36.085  12.493
19940W        W79201  18.275  42.836   4.203
19941W        W79202  31.048  30.942  14.316
19942W        W79203  15.311  28.941   2.223
19943W        W79204  17.648   9.372  11.949
19944W        W79205  36.987  12.314   4.646
19945W        W79206  10.750   7.211   4.700
19946W        W79207   6.687  44.002   1.240
19947W        W79208  40.543   3.330   2.732
19948W        W79209   6.254  15.683  13.026
19949W        W79210  17.671  34.408  12.872
19950W        W79211  41.303  28.472  11.907
19951W        W79212  13.717  11.303  11.860
19952W        W79213  22.110  28.640   4.613
19953W        W79214  18.122  38.362   4.257
19954W        W79215  38.430   6.289  11.036
19955W        W79216  12.271   1.755  11.069
19956W        W79217   5.318  11.295   3.200
19957W        W79218  37.853  20.266   2.309
19958W        W79219  32.112  27.528   4.632
19959W        W79220  36.388  21.584  14.783
19960W        W79221   5.311  14.679  10.438
19961W        W79222  42.312   0.338  10.933
19962W        W79223  43.940  36.891  12.868
19963W        W79224  22.593  18.281   0.336
19964W        W79225  28.186  39.450  11.443
19965W        W79226  13.340   8.726   3.202
19966W        W79227  18.186   4.938   3.279
19967W        W79228  35.049  17.575  11.371
19968W        W79229  10.174  36.570   3.860
19969W        W79230  36.959  36.000   0.458
19970W        W79231  20.091  31.031   3.255
19971W        W79232   0.960  18.728   4.308
19972W        W79233  15.184  30.911  11.952
19973W        W79234  24.129  13.720  13.894
19974W        W79235  28.478  36.569   3.385
19975W        W79236  12.122  38.389  14.935
19976W        W79237  20.594   4.762  11.111
19977W        W79238  24.616  36.448  11.926
19978W        W79239  21.701  41.944  14.312
19979W        W79240  34.037  34.387   0.904
19980W        W79241  21.126  34.983   5.208
19981W        W79242  39.480  38.984  10.117
19982W        W79243  18.573  20.115  13.827
19983W        W79244   6.785  40.827   1.409
19984W        W79245   5.772  16.755   3.636
19985W        W79246  17.194  33.451  14.780
19986W        W79247  35.568   2.468  14.296
19987W        W79248  22.224  34.456  11.376
19988W        W79249   7.864   9.646   0.298
19989W        W79250  21.542  26.621   2.901
19990W        W79251   5.861  35.057  12.526
19991W        W79252   2.439   4.831  14.485
19992W        W79253   8.748  34.021   0.419
19993W        W79254  26.116  13.162  13.472
19994W        W79255  40.312  24.061  12.566
19995W        W79256  18.267  17.156   4.794
19996W        W79257   6.853  23.206  12.053
19997W        W79258   8.693  34.503  13.996
19998W        W79259  33.087  37.451  14.409
19999W        W79260  15.630  40.464  11.969
20000W        W79261  11.186  38.957  10.476
20001W        W79262  44.948  37.876  11.587
20002W        W79263  20.561  29.424  11.883
20003W        W79264   8.303  40.857  12.875
20004W        W79265   3.413  31.916   2.204
20005W        W79266  31.578   6.212   2.213
20006W        W79267  43.009  37.885  14.502
20007W        W79268   7.844  38.994  14.015
20008W        W79269   5.413  19.247   4.229
20009W        W79270  35.427  35.084   4.114
20010W        W79271  29.014  17.733   4.235
20011W        W79272  30.101   8.325  12.888
20012W        W79273  37.841  30.942   2.855
20013W        W79274  40.997  14.814  14.902
20014W        W79275  31.470   5.826  12.028
20015W        W79276   9.753  33.039  13.829
20016W        W79277  36.018   4.288  11.936
20017W        W79278  26.053  38.997   0.364
20018W        W79279  39.320  36.026   0.842
20019W        W79280   2.737  14.175   0.334
20020W        W79281  13.309  27.472  13.455
20021W        W79282  19.051  20.731  10.597
20022W        W79283  32.472  43.775   2.764
20023W        W79284  38.344  36.387  12.080
20024W        W79285  37.871  24.485   0.478
20025W        W79286  23.005  44.492  14.351
20026W        W79287  29.512  18.235   0.451
20027W        W79288   0.919   3.266  11.476
20028W        W79289  21.731  37.487  11.525
20029W        W79290  20.112   6.288   2.747
20030W        W79291  41.393  18.559   3.194
20031W        W79292  23.664  27.197   4.816
20032W        W79293  27.641   6.212  11.397
20033W        W79294  43.020  41.025   1.401
20034W        W79295  38.969   0.747   2.752
20035W        W79296  36.935  37.873   1.322
20036W        W79297   2.228  20.716  10.909
20037W        W79298   6.679  28.052   4.660
20038W        W79299  36.910  23.603  12.055
20039W        W79300   4.385  35.554  11.007
20040W        W79301  14.763  22.102   4.232
20041W        W79302  24.704   6.321  11.931
20042W        W79303  12.837   1.463  10.581
20043W        W79304  41.454  38.019  11.474
20044W        W79305   0.913  17.732   3.817
20045W        W79306   9.844  30.637  14.316
20046W        W79307  39.382  22.049   0.438
20047W        W79308  29.626  25.193   2.864
20048W        W79309  34.073   7.773  11.410
20049W        W79310  17.589  39.367   3.821
20050W        W79311  36.004  15.742  11.969
20051W        W79312   5.787  27.445   1.916
20052W        W79313  39.988  38.892  11.047
20053W        W79314  20.117  20.524   2.812
20054W        W79315  16.781  33.451  12.533
20055W        W79316  29.429  16.191  12.525
20056W        W79317  29.507  25.014  11.380
20057W        W79318  17.183   0.829  10.643
20058W        W79319  15.184  13.233  12.486
20059W        W79320  17.073  24.157   5.192
20060W        W79321   0.787  34.933  14.969
20061W        W79322  18.663  26.016   0.914
20062W        W79323  42.018  27.075  10.554
20063W        W79324  17.297  22.116  11.062
20064W        W79325  12.741  32.569   0.327
20065W        W79326  41.896  35.433  13.907
20066W        W79327  14.644  12.311  12.354
20067W        W79328  25.106  33.626  11.905
20068W        W79329  38.884   8.784  10.958
20069W        W79330  14.110   5.841   0.262
20070W        W79331  35.601   0.913  11.979
20071W        W79332  35.999   9.854  13.331
20072W        W79333  18.676  18.662  13.051
20073W        W79334  39.954  40.882   4.732
20074W        W79335  19.147   4.223   0.956
20075W        W79336   6.262  17.087  12.042
20076W        W79337  34.894   3.417  14.358
20077W        W79338  10.779  44.874  13.954
20078W        W79339   6.776  24.043   1.381
20079W        W79340  27.633  22.133  11.010
20080W        W79341  14.148  11.732   3.845
20081W        W79342  21.069  17.611   0.354
20082W        W79343   0.800  12.236  12.090
20083W        W79344  29.069  32.073  11.468
20084W        W79345  32.948  30.922   2.397
20085W        W79346  27.525  13.742   1.401
20086W        W79347   3.299   4.272   2.869
20087W        W79348  13.628  25.979   2.357
20088W        W79349  41.423  36.561   1.285
20089W        W79350  41.493  38.880  12.965
20090W        W79351  24.067  43.300  12.414
20091W        W79352  20.227  24.122  13.871
20092W        W79353  41.400   2.470   1.312
20093W        W79354  32.042  44.866   1.384
20094W        W79355   8.218  14.270   1.743
20095W        W79356  34.529  35.100  11.047
20096W        W79357   2.958  30.009   3.363
20097W        W79358  24.004  30.950  12.364
20098W        W79359  27.597  11.829  12.934
20099W        W79360   5.353  13.316   1.702
20100W        W79361  44.937  31.584  11.496
20101W        W79362  10.683  35.053   4.318
20102W        W79363  44.331  41.325  10.022
20103W        W79364  23.183  25.100  13.996
20104W        W79365  19.646  39.862  11.484
20105W        W79366  19.223  28.611   2.869
20106W        W79367  27.449  44.272  14.287
20107W        W79368  34.509  44.318   4.646
20108W        W79369   1.752   4.353  14.435
20109W        W79370  39.318  38.989  14.472
20110W        W79371  16.627   6.330  10.536
20111W        W79372  14.312  25.542   0.934
20112W        W79373  30.629   6.341  13.920
20113W        W79374   7.413   7.277   9.990
20114W        W79375  39.860  23.135   4.666
20115W        W79376   4.328  21.087   4.694
20116W        W79377  28.099  36.491  12.846
20117W        W79378  41.512  14.278   2.375
20118W        W79379  15.232   8.358   4.275
20119W        W79380   5.925  35.458  14.452
20120W        W79381  33.505  30.643  13.471
20121W        W79382   9.297  11.736  14.934
20122W        W79383  17.106   4.346  10.632
20123W        W79384   3.335  37.004   4.825
20124W        W79385  12.160  21.239   1.297
20125W        W79386  34.019  13.266  12.568
20126W        W79387  12.735   1.743  14.935
20127W        W79388  11.680   0.790   0.271
20128W        W79389  39.495  44.316   3.743
20129W        W79390  16.172  32.418   0.874
20130W        W79391  35.425  42.345  10.504
20131W        W79392  41.951  39.524   4.744
20132W        W79393  30.909  18.620  10.468
20133W        W79394   7.202  27.036  11.067
20134W        W79395  30.076  22.600   2.339
20135W        W79396   7.379  17.564  14.352
20136W        W79397  36.845  30.416  13.819
20137W        W79398  38.986   1.464  12.880
20138W        W79399   1.308  36.537   0.961
20139W        W79400   3.339  31.993   5.108
20140W        W79401  31.558  40.444  14.325
20141W        W79402  20.646  29.614  14.437
20142W        W79403  14.803  39.961   0.848
20143W        W79404  37.336   5.306   0.933
20144W        W79405  32.897  14.743   3.281
20145W        W79406   7.724  42.018   3.795
20146W        W79407   1.278  10.825  10.917
20147W        W79408  25.527  27.102  14.360
20148W        W79409   2.357  35.998   2.401
20149W        W79410   9.695  35.471   1.314
20150W        W79411  31.086  21.130   1.430
20151W        W79412   3.434  12.717  12.960
20152W        W79413  11.853  35.880  12.494
20153W        W79414  24.482  20.604  14.789
20154W        W79415   6.185  33.490  14.360
20155W        W79416  14.696   7.233   3.864
20156W        W79417  42.855  13.273   1.754
20157W        W79418  31.036  27.989  12.513
20158W        W79419  38.478   6.315  11.431
20159W        W79420  36.398  40.987   9.647
20160W        W79421  13.756  25.035  11.022
20161W        W79422  29.588  38.448  12.566
20162W        W79423  15.655  17.564   2.414
20163W        W79424  36.035  24.503   2.847
20164W        W79425   3.280  19.133  12.035
20165W        W79426  30.984  18.132   0.373
20166W        W79427  33.393  19.656  14.979
20167W        W79428  26.116  36.414  12.456
20168W        W79429  44.445   5.212   2.386
20169W        W79430   2.721   1.404  12.934
20170W        W79431   4.276  41.044   1.275
20171W        W79432  41.855  32.404  13.820
20172W        W79433  16.691  15.597   1.238
20173W        W79434  22.630   2.799  10.966
20174W        W79435  30.496   1.777  12.049
20175W        W79436  30.640  39.502   1.295
20176W        W79437  44.986   4.896   1.278
20177W        W79438  40.956  25.976  13.423
20178W        W79439  19.778  29.049   1.410
20179W        W79440  41.455  38.918  14.989
20180W        W79441  26.627  18.212  12.518
20181W        W79442  24.617  38.370   4.838
20182W        W79443   6.304  43.347   0.726
20183W        W79444  16.174  33.116  11.453
20184W        W79445  30.562  44.362   1.254
20185W        W79446  23.028  26.148  12.494
20186W        W79447  28.664  42.776  12.447
20187W        W79448  23.495  34.505  12.981
20188W        W79449   7.718   0.476  13.367
20189W        W79450  41.365  14.193  13.326
20190W        W79451  40.028  37.350  12.842
20191W        W79452  19.572   0.924  12.892
20192W        W79453  19.547  24.997   1.852
20193W        W79454   8.270   1.266  11.460
20194W        W79455   6.292   9.677   1.222
20195W        W79456  20.601  12.688   4.780
20196W        W79457  18.599   0.917  13.457
20197W        W79458  10.648  27.095   4.634
20198W        W79459  43.466  10.362  14.467
20199W        W79460  39.497  34.572   3.333
20200W        W79461  14.298   9.247   4.782
20201W        W79462  24.528  22.567  14.861
20202W        W79463  26.482   2.879   4.177
20203W        W79464  28.940  33.114   0.268
20204W        W79465  23.121  19.157   0.334
20205W        W79466  24.170  20.638  14.409
20206W        W79467   5.341  32.141   3.723
20207W        W79468  18.233   6.678  13.982
20208W        W79469  35.570  43.908  13.854
20209W        W79470   8.771  35.366   1.217
20210W        W79471  43.954   5.210  13.815
20211W        W79472  33.949  40.451   4.265
20212W        W79473  26.047  23.197   4.257
20213W        W79474  31.970   7.786  12.449
20214W        W79475   4.903  24.135   2.776
20215W        W79476  15.725  33.056   3.256
20216W        W79477  18.189  37.555   2.377
20217W        W79478  10.776  19.201   0.746
20218W        W79479  43.451  30.146   0.282
20219W        W79480  11.142  22.088  11.517
20220W        W79481   7.837  27.459   0.838
20221W        W79482  18.676  44.300   4.130
20222W        W79483  14.335  29.493  12.088
20223W        W79484  12.134  42.471  14.826
20224W        W79485  32.620  19.126   1.426
20225W        W79486  18.256   8.816   4.335
20226W        W79487  19.159   2.253  11.472
20227W        W79488  13.798  27.068  13.505
20228W        W79489  32.106  20.090   5.308
20229W        W79490  11.832   4.749  12.943
20230W        W79491  12.342  10.261   4.725
20231W        W79492  31.577  28.536  13.435
20232W        W79493  43.509  20.173   3.866
20233W        W79494   3.864  23.660  10.469
20234W        W79495   5.691  40.022  11.975
20235W        W79496   5.895  30.110   2.322
20236W        W79497  28.088  29.140   0.312
20237W        W79498   8.746  30.041  11.049
20238W        W79499  14.610   5.239  14.854
20239W        W79500   0.845  37.565  10.142
20240W        W79501  19.657  22.537   4.766
20241W        W79502  36.370  34.953  14.986
20242W        W79503  13.151  30.084   4.661
20243W        W79504  39.901  30.923   0.301
20244W        W79505   1.957  38.362  13.996
20245W        W79506   0.357  22.181   3.309
20246W        W79507  26.975  15.673  13.010
20247W        W79508  23.545  40.437  10.483
20248W        W79509   8.293  35.480   4.743
20249W        W79510  31.922  16.669  10.593
20250W        W79511   0.332  36.954   1.881
20251W        W79512   7.231  26.114   1.889
20252W        W79513  35.002  14.673   3.767
20253W        W79514  43.870   0.278   0.337
20254W        W79515   8.191  21.558   1.308
20255W        W79516  34.397   9.869   0.898
20256W        W79517   5.408  44.836  13.860
20257W        W79518  28.100  25.192   2.340
20258W        W79519  31.118  42.032  13.458
20259W        W79520   6.876  36.939  13.931
20260W        W79521  27.995   5.779   0.804
20261W        W79522  23.097  42.788   2.274
20262W        W79523  14.721  11.788  14.028
20263W        W79524  19.224  42.833  14.772
20264W        W79525  16.176  35.409  10.492
20265W        W79526  40.993  38.368   0.855
20266W        W79527  15.222  42.326   1.413
20267W        W79528  15.695  35.502  14.318
20268W        W79529   6.282  18.192   4.696
20269W        W79530  38.915  18.260   0.952
20270W        W79531  27.034  44.275   9.946
20271W        W79532  33.550  40.825  12.501
20272W        W79533   7.687  43.776  10.417
20273W        W79534  19.267  34.073   1.424
20274W        W79535   4.699   5.926  14.373
20275W        W79536   0.337  39.515   3.170
20276W        W79537   4.364  20.074  10.450
20277W        W79538   2.961   8.880  12.087
20278W        W79539  19.216  20.695   0.821
20279W        W79540  21.704  44.815   0.797
20280W        W79541  11.825  41.798   2.787
20281W        W79542  29.448  29.137   1.777
20282W        W79543  40.986  30.117  10.923
20283W        W79544  13.677  18.142   0.739
20284W        W79545  30.502   7.908  14.021
20285W        W79546  23.506   2.836  12.513
20286W        W79547  22.049  10.867  14.871
20287W        W79548   2.377  10.709   3.208
20288W        W79549  30.073   7.673   1.828
20289W        W79550  36.941  16.304  14.405
20290W        W79551   3.880  26.095  10.472
20291W        W79552  33.572   8.744   0.932
20292W        W79553  40.436  27.051   2.705
20293W        W79554  38.502  40.451  11.479
20294W        W79555  23.996  35.956  10.499
20295W        W79556   7.785  42.384   2.197
20296W        W79557  21.114  21.616   4.269
20297W        W79558  20.643  38.546   2.399
20298W        W79559  10.842  36.032  14.784
20299W        W79560  34.538  35.042   0.477
20300W        W79561  37.832  18.067   3.234
20301W        W79562  23.722   8.384   0.734
20302W        W79563  27.945   0.794  12.023
20303W        W79564  11.270  39.890   4.328
20304W        W79565  25.988  14.768  13.531
20305W        W79566  43.771  39.843  13.015
20306W        W79567  12.679  18.571   2.876
20307W        W79568   9.754  18.564  13.057
20308W        W79569  26.594  37.466   1.408
20309W        W79570  17.561  25.055   2.871
20310W        W79571  39.845  27.980  14.822
20311W        W79572  14.315  17.107  11.116
20312W        W79573  29.465  41.295   9.921
20313W        W79574  23.127  13.262  13.416
20314W        W79575  18.604  14.321  10.448
20315W        W79576   4.357   5.360   1.913
20316W        W79577  13.657  35.594  10.537
20317W        W79578  37.432  31.081  12.870
20318W        W79579  35.001  16.196   0.927
20319W        W79580  20.708  22.068   2.405
20320W        W79581  24.031  20.730   0.280
20321W        W79582  20.741  28.565   1.880
20322W        W79583  24.048  44.327  12.392
20323W        W79584  12.731  21.699  14.899
20324W        W79585   8.891  17.657  14.794
20325W        W79586  44.433   2.884  13.827
20326W        W79587   8.689  37.541   3.807
20327W        W79588  44.274  35.386   3.181
20328W        W79589  27.063   6.324   0.884
20329W        W79590  18.207  28.005  10.992
20330W        W79591  28.037  16.635  12.015
20331W        W79592  17.208  18.675   3.193
20332W        W79593  24.695  37.559   2.718
20333W        W79594   8.888  43.786  14.868
20334W        W79595  32.929   8.759  11.864
20335W        W79596  20.062  12.161   1.334
20336W        W79597  40.391  13.738  13.862
20337W        W79598  25.571  43.399   1.370
20338W        W79599  13.839  10.690  11.592
20339W        W79600   6.403   6.857   0.961
20340W        W79601  26.959  12.783   0.750
20341W        W79602   2.946   6.744   2.311
20342W        W79603  26.627  37.897  14.471
20343W        W79604  25.166   6.878  14.376
20344W        W79605  24.619  39.553  14.435
20345W        W79606  13.252   5.387   0.862
20346W        W79607  38.437  42.974  13.039
20347W        W79608   7.262  12.215  14.344
20348W        W79609  34.614  35.528  14.965
20349W        W79610  20.769  16.311   2.258
20350W        W79611  27.045  29.012   3.268
20351W        W79612  12.657   6.407  12.875
20352W        W79613  20.135   9.382   0.443
20353W        W79614  22.055  28.639   2.221
20354W        W79615  21.597  44.486  10.535
20355W        W79616  31.951   1.922  11.604
20356W        W79617  43.890  38.555  10.466
20357W        W79618  17.307  15.820   0.313
20358W        W79619  41.849  18.627  10.136
20359W        W79620   2.844  20.132   1.228
20360W        W79621  26.076   3.744  13.423
20361W        W79622   6.407  34.104  12.018
20362W        W79623  42.313  35.438   1.430
20363W        W79624  38.500  28.485  13.835
20364W        W79625   3.310  15.298  14.840
20365W        W79626  18.713  39.988  13.482
20366W        W79627  10.657   2.242   3.371
20367W        W79628  30.979  31.569   5.278
20368W        W79629  15.263  34.515  14.010
20369W        W79630  29.465   2.463   0.467
20370W        W79631   6.737  37.388   3.318
20371W        W79632  26.061  20.630  11.391
20372W        W79633  36.465  33.033  12.987
20373W        W79634  12.226  33.057   3.223
20374W        W79635  13.835  12.279  12.857
20375W        W79636  36.865  36.451  13.835
20376W        W79637  37.882   8.764  12.851
20377W        W79638   3.905  19.553   0.870
20378W        W79639  11.297  41.000   4.329
20379W        W79640  42.351  32.915  13.057
20380W        W79641   7.209  17.168  11.511
20381W        W79642   0.259  29.152  13.048
20382W        W79643  27.068  16.649  11.883
20383W        W79644  28.577  13.603  12.574
20384W        W79645  29.147   2.914   2.282
20385W        W79646  27.474  12.161  13.307
20386W        W79647   2.467  19.565  14.465
20387W        W79648  26.521  29.582   1.808
20388W        W79649  35.430  39.952   2.903
20389W        W79650  39.853  11.703  11.402
20390W        W79651  18.211  26.954   2.798
20391W        W79652  21.113  12.154   4.330
20392W        W79653  37.953   2.398   0.819
20393W        W79654  18.593  19.211   5.315
20394W        W79655  18.611   2.794  11.094
20395W        W79656   0.873  42.388  10.559
20396W        W79657  33.051  19.752   4.307
20397W        W79658  33.958   3.751   1.329
20398W        W79659  20.123  31.048   2.293
20399W        W79660  25.206  35.955   2.872
20400W        W79661  23.524  14.236   4.159
20401W        W79662   0.440  20.232  12.483
20402W        W79663  11.169  14.643  10.118
20403W        W79664  26.105  34.058  13.841
20404W        W79665  42.020  33.587   4.700
20405W        W79666   0.329  25.663   4.115
20406W        W79667   7.359  41.377   4.671
20407W        W79668   9.855  43.403   0.403
20408W        W79669   8.341  20.528  12.917
20409W        W79670  44.367  14.765   3.268
20410W        W79671  28.583   3.807  13.004
20411W        W79672  41.820  10.696  12.444
20412W        W79673  19.243  24.516  13.958
20413W        W79674  32.542  24.698   3.848
20414W        W79675   3.783  12.816   2.209
20415W        W79676  31.002  22.725   4.635
20416W        W79677  43.331  26.068  13.449
20417W        W79678  28.094  33.406   4.742
20418W        W79679  11.760  14.724  13.370
20419W        W79680  34.485   2.822  12.867
20420W        W79681  22.611  32.888   0.401
20421W        W79682  41.044   9.708  12.834
20422W        W79683  16.799   3.802  13.376
20423W        W79684  17.694  24.641   1.873
20424W        W79685  32.071   4.346  12.018
20425W        W79686  37.936  43.502  10.011
20426W        W79687   7.764  35.504  13.804
20427W        W79688  16.689  44.945   3.645
20428W        W79689  13.336  19.137   2.391
20429W        W79690  15.612  18.556   4.153
20430W        W79691   2.267  26.499  11.905
20431W        W79692  37.928  13.259   1.898
20432W        W79693  25.708  42.397  10.917
20433W        W79694   5.214  33.003  14.309
20434W        W79695  34.507  23.668  13.838
20435W        W79696  31.088  21.680   1.308
20436W        W79697   8.331  14.625   4.707
20437W        W79698  41.887  31.629  13.064
20438W        W79699   3.852   6.773   2.356
20439W        W79700  25.617  11.846  10.018
20440W        W79701  38.522   3.268  14.839
20441W        W79702  28.944  32.899  14.381
20442W        W79703  41.995  39.405   0.777
20443W        W79704  33.607  36.001  14.969
20444W        W79705  19.685  42.475   2.823
20445W        W79706   1.457  12.693  14.432
20446W        W79707  34.979  35.858   9.921
20447W        W79708  38.349  43.333   2.825
20448W        W79709  15.579  10.380   1.815
20449W        W79710  21.722  10.672  11.056
20450W        W79711  31.142  40.845  10.624
20451W        W79712  35.889  19.553   1.274
20452W        W79713  35.867  41.016   3.747
20453W        W79714  35.003  23.502  12.081
20454W        W79715   5.912  20.762   0.476
20455W        W79716  12.821  20.128  11.551
20456W        W79717  14.611   6.303   1.292
20457W        W79718  13.154   3.711   1.223
20458W        W79719  17.735  18.252  13.328
20459W        W79720  34.520   2.291  11.443
20460W        W79721  24.149  39.339  10.968
20461W        W79722   7.699  13.670   2.390
20462W        W79723  25.590  26.017   1.749
20463W        W79724   8.320  22.046  10.929
20464W        W79725  31.581  35.457  12.027
20465W        W79726  23.632  31.589  12.881
20466W        W79727   3.443  35.869   4.685
20467W        W79728  13.713  39.363   0.371
20468W        W79729  20.721  18.776  10.415
20469W        W79730   4.707  23.052  11.456
20470W        W79731  21.048  11.369  14.968
20471W        W79732   5.204  39.493   1.254
20472W        W79733  37.557  16.275  10.489
20473W        W79734  17.701   2.436   2.841
20474W        W79735  35.871  27.661   2.803
20475W        W79736  19.257  29.457   3.342
20476W        W79737  44.001  22.048   1.848
20477W        W79738  35.101   7.845   3.871
20478W        W79739  17.152  40.009   2.254
20479W        W79740   1.959   9.187  13.912
20480W        W79741  34.872  42.331  14.289
20481W        W79742   1.841  28.543   0.890
20482W        W79743  14.626  30.560  11.545
20483W        W79744  13.124  15.263  14.838
20484W        W79745  24.110  16.678   4.833
20485W        W79746  17.698   8.751  14.813
20486W        W79747   9.382  40.941  11.408
20487W        W79748  34.449  26.184   4.302
20488W        W79749  43.893   5.874  14.007
20489W        W79750  41.927  15.694  11.895
20490W        W79751  29.490   8.667   2.350
20491W        W79752   2.328  20.179   4.345
20492W        W79753  28.497  37.425  13.927
20493W        W79754  13.835   4.224  12.506
20494W        W79755   7.691  25.016  14.888
20495W        W79756  29.539  10.222   3.176
20496W        W79757  13.802  30.006   5.676
20497W        W79758  17.557  30.068   2.822
20498W        W79759  12.680  16.724  11.913
20499W        W79760  24.141   0.759   2.749
20500W        W79761  36.528  36.890  12.826
20501W        W79762   0.988  38.968   5.264
20502W        W79763  17.088   8.725  12.447
20503W        W79764  17.778  15.777   3.788
20504W        W79765  37.571   1.418   3.658
20505W        W79766  36.491   9.358  13.519
20506W        W79767  17.065  32.052  14.326
20507W        W79768  11.186  35.059  13.942
20508W        W79769  30.971   8.184  14.406
20509W        W79770  11.861  22.193  14.840
20510W        W79771  27.077   8.394   1.317
20511W        W79772   6.395   2.419   1.303
20512W        W79773  32.491  16.168   3.225
20513W        W79774  10.737  13.234   3.173
20514W        W79775  14.667   8.724   3.791
20515W        W79776  25.528  44.330  13.996
20516W        W79777  23.655  41.537   1.403
20517W        W79778  35.564  43.426   3.693
20518W        W79779  24.687  15.745   3.373
20519W        W79780  38.326  44.294   3.164
20520W        W79781  20.127  30.493  14.892
20521W        W79782  41.359  38.993  10.940
20522W        W79783  13.731  12.793   0.436
20523W        W79784  18.075  25.586   0.793
20524W        W79785  18.232   5.719  14.892
20525W        W79786  24.181  23.114  12.558
20526W        W79787  19.776   5.869   1.234
20527W        W79788  18.753   7.781   4.214
20528W        W79789  22.522  30.539   3.258
20529W        W79790   2.722  37.084  10.976
20530W        W79791  39.972  29.489   3.156
20531W        W79792  30.444  27.471   4.819
20532W        W79793  16.691   9.709   0.887
20533W        W79794  15.736  37.834   0.338
20534W        W79795  36.477  43.279   2.845
20535W        W79796   4.741  20.153   0.332
20536W        W79797  18.220  20.127   2.746
20537W        W79798  19.078  20.761  12.433
20538W        W79799  10.675   2.450   3.704
20539W        W79800  33.924  23.004   3.797
20540W        W79801  21.162  31.455   0.832
20541W        W79802  40.054  28.632   3.795
20542W        W79803   1.477  15.667   3.854
20543W        W79804  33.513  14.264  10.950
20544W        W79805  42.011  25.037   0.739
20545W        W79806  17.618   2.858  10.544
20546W        W79807  15.147  26.001  11.587
20547W        W79808  21.527  19.595  12.958
20548W        W79809  14.246  33.982   1.905
20549W        W79810  36.378  16.308  11.539
20550W        W79811  34.908   3.941   3.320
20551W        W79812   4.213  29.450  11.401
20552W        W79813  26.185  33.589   3.812
20553W        W79814  35.448  15.234  14.986
20554W        W79815  31.004  23.026  13.037
20555W        W79816   7.238  12.639   2.799
20556W        W79817  24.585   3.913   1.877
20557W        W79818  44.008  15.271   3.379
20558W        W79819  11.625  25.082   5.234
20559W        W79820  30.063  39.524   4.605
20560W        W79821   2.438   6.880  12.361
20561W        W79822  34.476  18.221   2.389
20562W        W79823  33.585   6.807   2.362
20563W        W79824  29.541  19.175  12.482
20564W        W79825   0.437   4.813   4.741
20565W        W79826  40.425  19.598   3.305
20566W        W79827  30.455   1.359   4.256
20567W        W79828  35.901  17.281   1.882
20568W        W79829  13.836  19.692  11.910
20569W        W79830  21.614  33.459  11.431
20570W        W79831  27.470   2.852   1.724
20571W        W79832  34.591  17.181  11.975
20572W        W79833   1.861  23.649   2.674
20573W        W79834  18.075  11.623   0.828
20574W        W79835  23.500  43.375  11.956
20575W        W79836  15.238   3.746   2.240
20576W        W79837  33.958  23.001   4.723
20577W        W79838  15.661   7.395  11.049
20578W        W79839  24.627   8.848  13.365
20579W        W79840  28.558  28.639   0.910
20580W        W79841  11.176  11.193  11.960
20581W        W79842  19.730  17.173   0.474
20582W        W79843   7.299  22.210  10.954
20583W        W79844  34.413  10.195  13.019
20584W        W79845  22.219  25.122   1.374
20585W        W79846  37.561  40.538  12.016
20586W        W79847  34.870  27.111   0.273
20587W        W79848   0.428   3.385  11.577
20588W        W79849  31.549  30.143  12.076
20589W        W79850  42.431  18.197   3.695
20590W        W79851  36.046  28.937  11.054
20591W        W79852  43.479   3.874  13.833
20592W        W79853  29.539  24.635  14.359
20593W        W79854  13.335   3.285   3.368
20594W        W79855   2.437  38.463  12.465
20595W        W79856  30.145  15.683   0.380
20596W        W79857  24.190  43.016   0.831
20597W        W79858  39.541  11.172  12.406
20598W        W79859  14.665  30.016  12.578
20599W        W79860  35.947  34.455  12.405
20600W        W79861  33.511  36.954   2.196
20601W        W79862  17.665  17.576  11.549
20602W        W79863  24.591  31.551  10.570
20603W        W79864   3.770  23.192  14.851
20604W        W79865  24.665  43.461   1.889
20605W        W79866   2.893  42.377  12.078
20606W        W79867  10.253  29.495   2.794
20607W        W79868  21.511  12.753   4.683
20608W        W79869  42.388  23.527   2.705
20609W        W79870   3.252  34.962   2.212
20610W        W79871  24.659  40.895  12.845
20611W        W79872  34.466  44.303  12.064
20612W        W79873  13.671  12.226  14.919
20613W        W79874   3.245  15.194   2.228
20614W        W79875   2.947  20.674   1.249
20615W        W79876  34.908  14.685  10.972
20616W        W79877   4.222   6.880   3.337
20617W        W79878  36.579   7.859  10.570
20618W        W79879  25.158  16.735  12.035
20619W        W79880  12.778  35.873   3.223
20620W        W79881   5.785  40.513   0.270
20621W        W79882  21.684   7.735   4.798
20622W        W79883  44.368  35.565   1.897
20623W        W79884  17.275  15.083   0.375
20624W        W79885  17.623  36.417   3.850
20625W        W79886  37.087   6.423  12.969
20626W        W79887  37.933  20.067   2.749
20627W        W79888   3.457  16.615  12.342
20628W        W79889  33.003   9.308   2.338
20629W        W79890   4.746  40.529  12.982
20630W        W79891  41.456   2.283  11.041
20631W        W79892  12.273   5.850  13.969
20632W        W79893  21.679  35.376  13.946
20633W        W79894  24.089  29.507  14.951
20634W        W79895  27.009  20.613  11.531
20635W        W79896   5.410  30.926  10.534
20636W        W79897  26.101  26.090  12.451
20637W        W79898  27.487  34.040  14.761
20638W        W79899  34.453  21.202   0.893
20639W        W79900  27.075   6.806  12.489
20640W        W79901  31.623   2.267  12.986
20641W        W79902  15.706   5.928  12.972
20642W        W79903   1.397  37.032   2.314
20643W        W79904  38.430  36.925   0.735
20644W        W79905  39.861  16.142   4.204
20645W        W79906  28.588  42.859   2.324
20646W        W79907  27.016  38.372  14.469
20647W        W79908  14.607  44.817   1.781
20648W        W79909  33.446  24.626  10.627
20649W        W79910  24.500  34.071  12.488
20650W        W79911   6.258  15.621  10.055
20651W        W79912  42.338  19.154  10.505
20652W        W79913  15.821  15.767  14.003
20653W        W79914  13.602   9.155   3.816
20654W        W79915  38.911  41.031   5.112
20655W        W79916  33.957  33.532   3.338
20656W        W79917  37.086  41.041   5.316
20657W        W79918   4.399  39.051  14.367
20658W        W79919  19.155  16.294  12.365
20659W        W79920  12.199  17.256   0.952
20660W        W79921  10.360  16.318  13.407
20661W        W79922  19.763  22.187   0.466
20662W        W79923   1.388  32.518  13.353
20663W        W79924  24.143  37.360  13.311
20664W        W79925  21.537  43.830  12.887
20665W        W79926   1.454   6.209   0.804
20666W        W79927  26.952  22.576   0.404
20667W        W79928   9.365  24.068  10.559
20668W        W79929   9.889  33.001   1.405
20669W        W79930   4.746  29.619   3.242
20670W        W79931  17.774  37.847  10.537
20671W        W79932  17.248  38.554   1.314
20672W        W79933   8.685  15.713   0.839
20673W        W79934   4.828  26.140  14.876
20674W        W79935   3.899   0.328  14.874
20675W        W79936  13.293  35.917  10.597
20676W        W79937   6.214  33.972   4.645
20677W        W79938  28.036  18.770   0.853
20678W        W79939  25.977   1.865   4.339
20679W        W79940   1.377  44.377  10.974
20680W        W79941   4.213  30.956  11.938
20681W        W79942  30.625  15.629   4.792
20682W        W79943  10.664  30.488   3.677
20683W        W79944  11.843  22.216  13.383
20684W        W79945   6.716  40.866  12.850
20685W        W79946  38.401   5.362  12.871
20686W        W79947  10.876  43.879  14.309
20687W        W79948  42.899  36.519   2.335
20688W        W79949  19.247  13.630  13.534
20689W        W79950  35.032  12.178   1.289
20690W        W79951  27.605  19.741   2.834
20691W        W79952   2.432  20.218  10.989
20692W        W79953  39.482   5.712   0.310
20693W        W79954  42.971   9.778   4.160
20694W        W79955  10.865  30.956  12.534
20695W        W79956  32.403  25.150   4.285
20696W        W79957  22.200   6.306   4.710
20697W        W79958   9.205  24.087  11.517
20698W        W79959   8.860  26.505   2.379
20699W        W79960  34.047  23.127  12.454
20700W        W79961  13.783  11.263  12.830
20701W        W79962  18.573  41.792  13.845
20702W        W79963  37.541  28.988   2.179
20703W        W79964  14.294  24.031   3.298
20704W        W79965  36.590  38.857  12.432
20705W        W79966   8.851  13.754   1.316
20706W        W79967  34.599   6.351  14.791
20707W        W79968  33.914  44.965  12.084
20708W        W79969  40.305   4.771   5.123
20709W        W79970  20.710   0.928   4.279
20710W        W79971  24.492  13.248  14.859
20711W        W79972  13.133  31.426   4.144
20712W        W79973  23.714  38.960   4.698
20713W        W79974  23.239   7.302  12.963
20714W        W79975  22.633  19.158  11.896
20715W        W79976  11.797  28.969  11.998
20716W        W79977  37.881   8.390   3.222
20717W        W79978   0.255   1.252   2.385
20718W        W79979  38.873  18.791  14.974
20719W        W79980  32.482  38.348  10.544
20720W        W79981   4.299  39.429  13.904
20721W        W79982  20.541  31.009   0.261
20722W        W79983  15.788  12.827  13.019
20723W        W79984  32.580  13.739   1.852
20724W        W79985   7.356   5.261   2.795
20725W        W79986  20.606  18.730   2.261
20726W        W79987  37.861   9.878  13.042
20727W        W79988  22.201  21.130  13.462
20728W        W79989  16.277  37.545  13.916
20729W        W79990  13.832  44.464  11.472
20730W        W79991  39.835  42.918   3.274
20731W        W79992  40.836  28.517   3.704
20732W        W79993  43.358  27.021   1.761
20733W        W79994  36.480  37.410  14.411
20734W        W79995   4.307  22.514  12.061
20735W        W79996  11.276  28.669   2.854
20736W        W79997  18.139  37.071  10.433
20737W        W79998  34.556  11.737   1.230
20738W        W79999   3.374  41.895   2.782
20739W        W80000  43.456  21.137  10.563
20740W        W80001  38.354  29.616  11.886
20741W        W80002   7.698  23.028  11.112
20742W        W80003  19.277  24.655  10.020
20743W        W80004  38.013  15.715  14.472
20744W        W80005  11.824  18.071  11.563
20745W        W80006  37.965  20.210   1.765
20746W        W80007  14.185   6.288   2.831
20747W        W80008  23.234   8.699   2.204
20748W        W80009   2.410   7.282  13.882
20749W        W80010  39.413   0.862  12.420
20750W        W80011   6.417   2.385   3.221
20751W        W80012  15.820   0.440  13.470
20752W        W80013  32.939  28.634   1.742
20753W        W80014  21.145  28.166   5.101
20754W        W80015  32.036  23.534  13.911
20755W        W80016  43.446  22.663   0.909
20756W        W80017  23.042  17.595   1.403
20757W        W80018  29.958  19.734   0.394
20758W        W80019  35.962  28.166   1.874
20759W        W80020  13.650  26.610  13.388
20760W        W80021   6.892  13.269  14.383
20761W        W80022   0.795  22.575  14.501
20762W        W80023  38.824   5.262   3.376
20763W        W80024  10.196  33.926   2.287
20764W        W80025  38.445  25.594  14.396
20765W        W80026  18.198  42.294   4.218
20766W        W80027  43.981  44.985  11.536
20767W        W80028  19.085  28.133  12.924
20768W        W80029  11.325  23.031   1.806
20769W        W80030  40.310  11.363   3.774
20770W        W80031  32.438   3.344   1.889
20771W        W80032   7.761   3.396   0.413
20772W        W80033  16.631  13.641  13.969
20773W        W80034  28.130   5.799   2.365
20774W        W80035  43.013  32.598   1.218
20775W        W80036  42.302  28.557  14.430
20776W        W80037   1.340  35.479   3.780
20777W        W80038   2.423  24.069   3.687
20778W        W80039  39.477  25.617   4.813
20779W        W80040  12.748  24.713   1.426
20780W        W80041  18.219  15.602   2.352
20781W        W80042  18.133  22.186   1.902
20782W        W80043  15.182  19.698  13.515
20783W        W80044  15.771  30.592  13.440
20784W        W80045  38.443  27.533  12.517
20785W        W80046  40.518  40.427  13.963
20786W        W80047   3.250   4.296  10.924
20787W        W80048  10.307   0.744   0.779
20788W        W80049  33.401  43.869   0.916
20789W        W80050  37.346  15.219  13.965
20790W        W80051  32.019  39.974  11.995
20791W        W80052  44.853  25.647  12.491
20792W        W80053  33.084  34.972   2.345
20793W        W80054  33.498  38.058   4.636
20794W        W80055  11.697  34.540  10.027
20795W        W80056   3.825   1.483  12.471
20796W        W80057  42.921   8.385  14.783
20797W        W80058  26.598   9.847   3.835
20798W        W80059  14.629  33.433  14.018
20799W        W80060  18.635  22.680  13.036
20800W        W80061  38.547  31.423  11.567
20801W        W80062   4.838   4.704   1.355
20802W        W80063   8.301   3.859   4.738
20803W        W80064  33.381  24.607   1.329
20804W        W80065  18.745  19.688  13.481
20805W        W80066   0.404  34.999  11.949
20806W        W80067  32.404  10.737   2.293
20807W        W80068   6.255  42.332   3.171
20808W        W80069  42.450  17.281  14.855
20809W        W80070  32.908  14.118  12.457
20810W        W80071  25.549  25.676   3.830
20811W        W80072  25.521  12.752   2.413
20812W        W80073  44.267  18.115  12.007
20813W        W80074  25.027  37.436   0.726
20814W        W80075  31.412  39.912   1.902
20815W        W80076  44.823  35.854   5.278
20816W        W80077  39.541  20.708  10.459
20817W        W80078  33.122  24.614   0.832
20818W        W80079  34.970  32.066   2.198
20819W        W80080   0.868  14.308  13.799
20820W        W80081  25.008   8.681  12.923
20821W        W80082   7.742  21.257   4.240
20822W        W80083  17.156  14.227  11.452
20823W        W80084  23.626   6.715  11.123
20824W        W80085  31.144  18.264  12.513
20825W        W80086  44.756   0.376  14.348
20826W        W80087  33.107  25.043   0.730
20827W        W80088  40.932  11.804  11.088
20828W        W80089  13.286  37.572  11.010
20829W        W80090  33.091  17.094  11.453
20830W        W80091   3.838  37.545  13.871
20831W        W80092   7.689  43.342   3.157
20832W        W80093  15.318   8.787   5.268
20833W        W80094  25.687  15.093   4.738
20834W        W80095   0.967   1.919   0.761
20835W        W80096  38.359  17.778  14.952
20836W        W80097  35.863  20.240   0.905
20837W        W80098   1.317  15.087   4.748
20838W        W80099   9.660  29.455  12.342
20839W        W80100  36.552  15.764   5.090
20840W        W80101  39.402   9.365  14.976
20841W        W80102  28.562  21.512  11.541
20842W        W80103  41.335   4.325  12.486
20843W        W80104   9.154  17.572  14.343
20844W        W80105  29.603  23.626  11.420
20845W        W80106  28.157   2.241  14.281
20846W        W80107  36.851   4.868   1.373
20847W        W80108  43.959  39.536  13.866
20848W        W80109  24.223   2.792   0.362
20849W        W80110   9.203   5.757  12.382
20850W        W80111  12.620  17.077  12.477
20851W        W80112  43.765  31.464  14.834
20852W        W80113   7.222   7.195  12.085
20853W        W80114  13.738  31.041  13.455
20854W        W80115   6.350  43.951   0.454
20855W        W80116   1.339  33.049   3.758
20856W        W80117  24.994  14.281  14.853
20857W        W80118  18.699  31.077   1.730
20858W        W80119  15.236  34.377  10.496
20859W        W80120  44.443  30.594  11.037
20860W        W80121  43.382  41.350  13.855
20861W        W80122  17.788  13.708  12.380
20862W        W80123  34.002  35.471   0.459
20863W        W80124   8.247  10.822  13.827
20864W        W80125   7.210   9.792   4.711
20865W        W80126  41.956  11.269  11.434
20866W        W80127  23.659  11.316   1.759
20867W        W80128  29.083   0.421   2.201
20868W        W80129  12.181   5.792  13.543
20869W        W80130  11.737  28.608   3.654
20870W        W80131   2.809  36.535  10.609
20871W        W80132  20.151  35.958  11.059
20872W        W80133   5.745  20.656  11.492
20873W        W80134   1.410  19.635   3.737
20874W        W80135  33.544  16.077   3.668
20875W        W80136  19.106  18.238  11.883
20876W        W80137  16.226  36.857  10.937
20877W        W80138  44.492  41.397  14.396
20878W        W80139  30.608  23.572  12.449
20879W        W80140  37.883  14.649   0.952
20880W        W80141  40.502  13.656   2.266
20881W        W80142   4.327  24.038  11.091
20882W        W80143  36.843  14.178  14.938
20883W        W80144  30.642  37.344  10.425
20884W        W80145   0.879   1.748   2.884
20885W        W80146  13.344  23.647  11.394
20886W        W80147  42.005  39.315   2.292
20887W        W80148   7.361  12.301  11.496
20888W        W80149  13.838  30.943  11.450
20889W        W80150  26.987   7.768  14.341
20890W        W80151  27.978   0.864   0.347
20891W        W80152  33.417  12.698   2.875
20892W        W80153  25.571  31.509   0.755
20893W        W80154  11.354  29.459  13.845
20894W        W80155  31.046  16.187  13.875
20895W        W80156  33.379  18.278   1.700
20896W        W80157  42.897   1.869  14.844
20897W        W80158  22.095   3.406   1.757
20898W        W80159   2.924  10.687   1.311
20899W        W80160  17.589   3.377  10.903
20900W        W80161  14.676   2.461   4.648
20901W        W80162  42.338  18.736   1.893
20902W        W80163  19.621   8.816   0.326
20903W        W80164  40.941  20.537   2.868
20904W        W80165   3.925  28.981   3.682
20905W        W80166  37.980  14.314   3.861
20906W        W80167  44.785   6.412   0.360
20907W        W80168  39.347  31.438  10.506
20908W        W80169  16.582   4.847  10.941
20909W        W80170  37.530  33.916   5.120
20910W        W80171   7.270  13.674  12.014
20911W        W80172  18.282   3.416  14.454
20912W        W80173   4.915  29.985  13.498
20913W        W80174   6.246  26.630   2.668
20914W        W80175  42.478   6.381  14.910
20915W        W80176   5.867  17.758   4.276
20916W        W80177  44.440  16.117  13.359
20917W        W80178  11.636  35.047   3.765
20918W        W80179  17.761  26.097  13.850
20919W        W80180  30.505  29.435   4.241
20920W        W80181  26.004   0.831   4.832
20921W        W80182   8.201  39.831   0.357
20922W        W80183   6.361  11.140   3.838
20923W        W80184  24.055  14.145   2.893
20924W        W80185  10.330  36.863  14.808
20925W        W80186   1.344  20.242  10.993
20926W        W80187   7.676   1.922  10.604
20927W        W80188  44.868  43.818  14.800
20928W        W80189  44.857  20.597   3.853
20929W        W80190  18.721   8.304   3.218
20930W        W80191   4.868   9.881   1.234
20931W        W80192  34.607   9.215   4.158
20932W        W80193   5.759  37.001   0.943
20933W        W80194  26.017  41.366  12.567
20934W        W80195  26.177  21.724  10.546
20935W        W80196  21.119  17.718  10.579
20936W        W80197  36.395  33.591   0.903
20937W        W80198   0.940  40.811  13.352
20938W        W80199  35.505  43.012  10.039
20939W        W80200   9.340   7.240   0.813
20940W        W80201  17.209  31.023   1.816
20941W        W80202  21.019  38.480  14.902
20942W        W80203  28.485  32.944   2.897
20943W        W80204  26.546  10.275  11.891
20944W        W80205  34.061   2.248   0.894
20945W        W80206  17.149  22.676  14.309
20946W        W80207  40.422  37.401   3.215
20947W        W80208  43.871  32.592  11.008
20948W        W80209  31.510  12.148   0.744
20949W        W80210  24.486  25.539  11.030
20950W        W80211  30.644  30.614  12.096
20951W        W80212  24.652   0.451  13.995
20952W        W80213  14.284   2.801   3.268
20953W        W80214  35.431  41.956   1.247
20954W        W80215  40.905  23.650   4.120
20955W        W80216  26.666  22.178  14.980
20956W        W80217  39.329  20.595  13.800
20957W        W80218  43.322  43.307  12.085
20958W        W80219  27.662  27.004  12.517
20959W        W80220   3.918  41.341  14.871
20960W        W80221  44.791  34.038  12.442
20961W        W80222  26.693   7.371   1.886
20962W        W80223   5.818  30.161   3.789
20963W        W80224  12.680  30.960   3.732
20964W        W80225  15.628  32.636   3.731
20965W        W80226  31.550  17.270   1.815
20966W        W80227  39.481  37.535   0.247
20967W        W80228  40.360   0.373  10.551
20968W        W80229  10.802  25.007  14.970
20969W        W80230  42.846  40.509   3.764
20970W        W80231  40.868  10.187   0.914
20971W        W80232  27.513  17.085   4.598
20972W        W80233   3.321  32.013   4.604
20973W        W80234  18.721  14.638   0.817
20974W        W80235  41.536  10.170   0.736
20975W        W80236   8.811  24.600   2.705
20976W        W80237  16.205  37.983   4.599
20977W        W80238  34.956   5.931  12.071
20978W        W80239  25.149  42.843   0.337
20979W        W80240   1.799  24.659  11.608
20980W        W80241  36.925   9.811  11.550
20981W        W80242  36.487  24.646  11.042
20982W        W80243   5.294  35.373   0.258
20983W        W80244  25.969   1.306   0.317
20984W        W80245  39.442  20.757  14.453
20985W        W80246  25.609  20.196   0.856
20986W        W80247  27.066  26.020   4.275
20987W        W80248   0.949   8.223   1.891
20988W        W80249   2.409  26.997   3.321
20989W        W80250   3.372  32.612   4.717
20990W        W80251  17.612  19.241  14.849
20991W        W80252  34.892  42.903   5.261
20992W        W80253  44.310  17.698   2.894
20993W        W80254   9.203  40.467   3.259
20994W        W80255  29.127  18.692  13.842
20995W        W80256  41.423  20.600  11.375
20996W        W80257  31.963  21.095   4.782
20997W        W80258   5.812  19.120   1.863
20998W        W80259  30.053  13.224  12.853
20999W        W80260  10.788  43.921  12.073
21000W        W80261  43.905  13.261  12.484
21001W        W80262   8.822  27.670  12.085
21002W        W80263  44.380   7.845  11.595
21003W        W80264  36.575  31.037   0.902
21004W        W80265  17.563  28.147  14.502
21005W        W80266  11.199  37.945  14.499
21006W        W80267  11.764  29.929   4.769
21007W        W80268  28.098   4.317   1.811
21008W        W80269  25.170   0.910  12.025
21009W        W80270  24.668  30.002  13.031
21010W        W80271   2.365  31.486  13.929
21011W        W80272  12.789  29.548   4.787
21012W        W80273  42.846   2.949   2.692
21013W        W80274  36.536   4.729   1.282
21014W        W80275  37.458  43.381   3.673
21015W        W80276  16.290  20.600   0.796
21016W        W80277  42.835   4.206   4.158
21017W        W80278  15.134  23.490   2.409
21018W        W80279  24.208  39.882  14.874
21019W        W80280  23.161   5.693  12.481
21020W        W80281  27.557   8.691  11.399
21021W        W80282  41.306  20.156   2.866
21022W        W80283   7.334  12.183  14.926
21023W        W80284  42.781  17.563  14.508
21024W        W80285  30.006  40.376   4.289
21025W        W80286  17.590  35.490  13.964
21026W        W80287  13.637  19.218  14.288
21027W        W80288  14.323  16.218   0.817
21028W        W80289  34.542   1.324  13.829
21029W        W80290  17.272  16.234   1.404
21030W        W80291   5.204  42.404  10.419
21031W        W80292  30.007   5.282   0.443
21032W        W80293  39.549   1.774  11.904
21033W        W80294   9.670  29.090   4.245
21034W        W80295   3.810  37.971  10.935
21035W        W80296   9.157   7.819  10.574
21036W        W80297  19.236  37.353  13.980
21037W        W80298  30.070  31.444  12.856
21038W        W80299  31.083  18.190   4.616
21039W        W80300   5.830  17.777   4.614
21040W        W80301  16.620  25.552   4.344
21041W        W80302  17.579  31.987   9.538
21042W        W80303  27.135  10.709  12.454
21043W        W80304   6.290  41.486   3.200
21044W        W80305   2.771  11.852  13.507
21045W        W80306   3.824   1.342  12.857
21046W        W80307  11.191  34.023  11.578
21047W        W80308   7.264  43.319  12.979
21048W        W80309   6.895  38.377   3.684
21049W        W80310  38.063  42.513   5.280
21050W        W80311  17.106  16.309   1.844
21051W        W80312  20.654  36.018  12.008
21052W        W80313  42.872   5.239   1.850
21053W        W80314  12.653  11.162  11.513
21054W        W80315   1.801  43.965   4.612
21055W        W80316   9.214  25.176   1.365
21056W        W80317  23.161  34.434  11.944
21057W        W80318  32.948   0.333   0.245
21058W        W80319  34.016  19.750   4.624
21059W        W80320  33.119  37.347   1.781
21060W        W80321   0.955  41.913  14.478
21061W        W80322  12.189  12.667  12.830
21062W        W80323  18.561  37.391  11.526
21063W        W80324   0.305  24.632   4.799
21064W        W80325   1.821   1.475  11.897
21065W        W80326  25.197  23.504   2.855
21066W        W80327   2.966  35.405  10.443
21067W        W80328  22.530   4.337  14.435
21068W        W80329  35.009  39.006  12.943
21069W        W80330  16.161  11.336   2.803
21070W        W80331  30.642  30.639  12.547
21071W        W80332  41.878  24.072   3.843
21072W        W80333  28.104  28.494   4.191
21073W        W80334  10.212   4.222   4.171
21074W        W80335  36.044  14.744   0.429
21075W        W80336  23.056  43.289  12.576
21076W        W80337  35.886  29.623  12.461
21077W        W80338  33.070   6.270   2.285
21078W        W80339  26.035  35.572  11.128
21079W        W80340  19.685  30.546  13.502
21080W        W80341   5.291  27.626  11.946
21081W        W80342   7.311  31.504   1.303
21082W        W80343   6.731  27.011   1.702
21083W        W80344   9.289  40.010  10.960
21084W        W80345  38.980  16.641  10.413
21085W        W80346  30.003  11.649   3.265
21086W        W80347  24.115  32.621   3.677
21087W        W80348  40.460  21.526   4.248
21088W        W80349  23.084  26.033  13.063
21089W        W80350  30.072   0.912  13.468
21090W        W80351  27.047   1.942  14.820
21091W        W80352  27.624  32.946  13.423
21092W        W80353  40.000  11.806  13.904
21093W        W80354  36.098  23.173   2.364
21094W        W80355   5.424  39.492   0.289
21095W        W80356  16.622  21.710   2.850
21096W        W80357  12.799  18.681  12.973
21097W        W80358  14.780  23.600  12.959
21098W        W80359  15.758   0.919   3.223
21099W        W80360  22.030   9.835  13.445
21100W        W80361  17.200  40.404   4.245
21101W        W80362  12.285  39.327   3.175
21102W        W80363  30.649   2.839  13.893
21103W        W80364  15.225  32.569  11.038
21104W        W80365   1.446  39.021  13.327
21105W        W80366   1.827  23.185  13.952
21106W        W80367   4.942  17.170  12.094
21107W        W80368   5.414  12.316  11.019
21108W        W80369   0.802  34.019  11.414
21109W        W80370  11.257  27.672   0.443
21110W        W80371  33.438  23.717  11.059
21111W        W80372   0.410   2.248  10.470
21112W        W80373  39.033  44.961  13.381
21113W        W80374   1.338  37.394  10.603
21114W        W80375  39.355   6.183   1.929
21115W        W80376  13.292  18.566  14.483
21116W        W80377  43.801  27.949  12.012
21117W        W80378  19.241  17.685  14.476
21118W        W80379  12.698  23.089  11.926
21119W        W80380  44.492  11.261   1.744
21120W        W80381  24.977   6.373   2.256
21121W        W80382  23.991   5.899   0.392
21122W        W80383  17.732  10.360   1.420
21123W        W80384  18.155   1.346   1.211
21124W        W80385  40.888  33.000   3.198
21125W        W80386  17.701  10.804   1.380
21126W        W80387  21.229  11.765  12.538
21127W        W80388  44.943  36.558  14.419
21128W        W80389  20.637  30.993  12.379
21129W        W80390  39.333  44.446   0.843
21130W        W80391  26.517   8.733  11.554
21131W        W80392   8.826  21.185  14.319
21132W        W80393  17.103   9.859   1.913
21133W        W80394   4.318  24.674  14.843
21134W        W80395  31.417  41.320   1.210
21135W        W80396  13.257  35.387  11.414
21136W        W80397  21.638   0.274   0.472
21137W        W80398  13.753  19.187   1.224
21138W        W80399  36.363   3.750  11.022
21139W        W80400  41.988  35.877   5.243
21140W        W80401  13.772  41.896  10.952
21141W        W80402  14.327   6.909  13.889
21142W        W80403  28.555  44.370  12.036
21143W        W80404  14.208  33.553   0.807
21144W        W80405  26.538  42.965  10.138
21145W        W80406   0.930  38.497  13.879
21146W        W80407  23.168  31.919   0.376
21147W        W80408  44.944  17.073  10.908
21148W        W80409  33.926  39.447  14.871
21149W        W80410  24.632  41.374   0.379
21150W        W80411  25.134  22.050  14.818
21151W        W80412  37.845  20.103   4.654
21152W        W80413  27.492  44.984  12.362
21153W        W80414  13.746   6.192  11.375
21154W        W80415  41.977  29.173   4.291
21155W        W80416   7.210  18.655   2.841
21156W        W80417  44.886  33.894   2.315
21157W        W80418  39.493  38.456  12.392
21158W        W80419  24.052   4.868  10.892
21159W        W80420  34.867  29.991  11.988
21160W        W80421  16.108  26.137   1.229
21161W        W80422  26.664  33.542   2.739
21162W        W80423   3.304  41.308  13.418
21163W        W80424  31.020  44.309  13.039
21164W        W80425  33.057  29.959  12.877
21165W        W80426   4.287  35.055  12.006
21166W        W80427  18.086   7.263   3.198
21167W        W80428  14.223  28.147   5.298
21168W        W80429  30.136  33.428   1.214
21169W        W80430  18.648  13.206  13.308
21170W        W80431   2.957   7.837  11.588
21171W        W80432  25.578  31.940   1.249
21172W        W80433  15.125  15.224  13.031
21173W        W80434  29.669  31.992  12.561
21174W        W80435  31.528   1.369  13.942
21175W        W80436  43.472  18.549   1.427
21176W        W80437  22.581  15.699   0.799
21177W        W80438  38.372   4.909   0.962
21178W        W80439  26.499  25.175  11.004
21179W        W80440  28.007   3.771  13.042
21180W        W80441   8.328   6.368   0.761
21181W        W80442  10.348   8.820   5.146
21182W        W80443   3.439  16.305  11.496
21183W        W80444  36.991   8.829  14.474
21184W        W80445  17.765  13.165  13.364
21185W        W80446  19.200  21.020   1.912
21186W        W80447  43.911  27.943  13.435
21187W        W80448  21.237  26.491  13.346
21188W        W80449  23.142  13.840  13.004
21189W        W80450  18.143  21.165   1.237
21190W        W80451  21.549  20.750   4.115
21191W        W80452  25.048  11.755  11.608
21192W        W80453  12.160  23.016  11.913
21193W        W80454  12.199  40.936  10.952
21194W        W80455  44.755  17.087  14.446
21195W        W80456   4.861  28.063   0.954
21196W        W80457  16.691   5.209   3.751
21197W        W80458  16.202  20.737   3.816
21198W        W80459  43.294   9.840  13.900
21199W        W80460  28.091  34.424  12.835
21200W        W80461  18.239  41.528  11.062
21201W        W80462   2.733  30.653  13.824
21202W        W80463  31.090   1.292  12.864
21203W        W80464  21.028  29.062  12.955
21204W        W80465  27.090   2.440   4.658
21205W        W80466  27.108  13.837   4.141
21206W        W80467   3.359   0.340  11.095
21207W        W80468  22.109  20.078   2.207
21208W        W80469  40.307  23.126  13.996
21209W        W80470  25.516   6.346   1.897
21210W        W80471  42.379  17.680  14.859
21211W        W80472  24.115  11.232   3.834
21212W        W80473  10.161  14.334   0.254
21213W        W80474  16.753   3.225  14.865
21214W        W80475  13.212  43.800   1.273
21215W        W80476  12.198   8.306  14.973
21216W        W80477  26.021   4.867  11.958
21217W        W80478   4.343  16.136   1.233
21218W        W80479   2.367  33.510   4.165
21219W        W80480  14.827  33.126   4.132
21220W        W80481  26.512  11.132  14.014
21221W        W80482  21.145  40.520  11.895
21222W        W80483  14.179  36.016   0.453
21223W        W80484  27.980   4.772  12.447
21224W        W80485  41.419  11.164  12.933
21225W        W80486  22.724  44.861   2.695
21226W        W80487  23.648   8.374  14.897
21227W        W80488  23.070  33.504   1.306
21228W        W80489  40.525   1.783  10.097
21229W        W80490  40.038  10.224   0.418
21230W        W80491  32.527  12.317  14.376
21231W        W80492  21.667  19.749  13.502
21232W        W80493  14.273   2.238   2.868
21233W        W80494  18.567  34.512   1.697
21234W        W80495  33.448  18.158   0.852
21235W        W80496  12.826   4.331  14.843
21236W        W80497  38.900   0.481  11.533
21237W        W80498  40.509   2.850   2.194
21238W        W80499  40.980  32.393  10.109
21239W        W80500  24.153   4.870  14.905
21240W        W80501   1.960   6.238   3.278
21241W        W80502  22.738   1.461   3.749
21242W        W80503  29.475  41.400   1.222
21243W        W80504  13.349  28.563  13.905
21244W        W80505   3.374  11.194   4.207
21245W        W80506   0.254   0.363  12.462
21246W        W80507  30.971  37.834   4.796
21247W        W80508  31.896  37.524   0.749
21248W        W80509  23.039  20.062   2.300
21249W        W80510   5.791  43.320  10.473
21250W        W80511  38.869  29.426   2.773
21251W        W80512  19.568   3.275   0.465
21252W        W80513   1.933  39.557  11.570
21253W        W80514  40.324  20.217   0.961
21254W        W80515   9.726  28.988   1.893
21255W        W80516  11.355  10.869  10.548
21256W        W80517  22.109  36.942   3.256
21257W        W80518  44.364  36.854  10.623
21258W        W80519   5.418  31.032  14.009
21259W        W80520  13.143  21.748   3.159
21260W        W80521  10.791  35.373   0.357
21261W        W80522   2.462  10.333  11.437
21262W        W80523  35.069  11.128  10.639
21263W        W80524  14.273  12.251  14.820
21264W        W80525  15.083  23.004  10.515
21265W        W80526  43.421   4.414  12.064
21266W        W80527  27.631  15.614  12.937
21267W        W80528  43.460  39.418   2.785
21268W        W80529   6.843   5.327   1.388
21269W        W80530   9.170  28.068   1.737
21270W        W80531   6.408  11.153  11.021
21271W        W80532  40.486  12.174  10.630
21272W        W80533  44.291  18.626   2.747
21273W        W80534  13.677  16.165   1.323
21274W        W80535   7.175  18.633  12.002
21275W        W80536  17.730  37.441  11.536
21276W        W80537  16.133  19.208   1.837
21277W        W80538   0.396  24.050   0.939
21278W        W80539  40.031   8.695  14.413
21279W        W80540  24.644   7.753   3.754
21280W        W80541  36.531  13.269   9.950
21281W        W80542  15.228  17.127   3.222
21282W        W80543  18.772  14.798   4.277
21283W        W80544  39.903  22.105  11.913
21284W        W80545   5.873   5.819   3.858
21285W        W80546  20.720   4.766  10.472
21286W        W80547  28.445  11.136  14.351
21287W        W80548  26.122   0.946   3.697
21288W        W80549  25.567  44.429  12.081
21289W        W80550  12.208   1.238  14.944
21290W        W80551  30.007   1.781   3.220
21291W        W80552   4.273   7.285   3.772
21292W        W80553  32.951   0.797   3.825
21293W        W80554  27.684   0.444   3.761
21294W        W80555  20.655  40.032   3.770
21295W        W80556  39.872  21.701   0.279
21296W        W80557  33.584  44.812  13.917
21297W        W80558  25.559  31.603  12.540
21298W        W80559  39.476  24.172  13.537
21299W        W80560  31.421   0.387   0.365
21300W        W80561   3.850   0.493  14.383
21301W        W80562  29.096  40.805  11.090
21302W        W80563  27.480  21.514  12.869
21303W        W80564  16.268  43.472  12.068
21304W        W80565  41.456  31.135  13.336
21305W        W80566   6.403  20.140   0.753
21306W        W80567  40.312  38.035   1.281
21307W        W80568  13.107  35.976  11.407
21308W        W80569  42.786  37.871  12.362
21309W        W80570  24.034  37.884  12.548
21310W        W80571  41.999  21.078   0.855
21311W        W80572  39.941  40.003   2.351
21312W        W80573   6.899  17.715  11.439
21313W        W80574  36.367  10.330  11.504
21314W        W80575  14.107  17.595  11.405
21315W        W80576   9.678  22.043   0.448
21316W        W80577  22.080  30.598  10.635
21317W        W80578   1.947   0.251   0.438
21318W        W80579   2.863   4.447  12.486
21319W        W80580   2.778  36.358  12.580
21320W        W80581   2.820  24.716  12.340
21321W        W80582  29.008  23.564  13.792
21322W        W80583  36.969  23.992   1.773
21323W        W80584   4.922  44.967   4.813
21324W        W80585  12.658  25.668  14.413
21325W        W80586  17.126  36.978   1.227
21326W        W80587   6.184  24.578  14.941
21327W        W80588   3.888  18.624   4.194
21328W        W80589  41.294  32.580  11.026
21329W        W80590  40.500   3.359  10.523
21330W        W80591  26.103   3.265   3.195
21331W        W80592   5.751  26.521   3.842
21332W        W80593  33.507  17.774   4.125
21333W        W80594  39.367  38.955   1.825
21334W        W80595  17.147  19.085  10.025
21335W        W80596  32.587  22.154   0.355
21336W        W80597  14.310  11.680   1.740
21337W        W80598  14.589  12.729  11.084
21338W        W80599   3.719  27.536  11.916
21339W        W80600  38.508  13.655  11.862
21340W        W80601  26.076  36.979  10.898
21341W        W80602  18.136  35.035  13.889
21342W        W80603   4.891  18.233   4.155
21343W        W80604   4.405  39.058   0.735
21344W        W80605  12.120  18.718   2.353
21345W        W80606   7.388  24.182   2.370
21346W        W80607  18.571  11.275   3.230
21347W        W80608   9.738  26.606   1.751
21348W        W80609  39.515   2.829   3.656
21349W        W80610   7.370  11.704  11.975
21350W        W80611  26.564  39.890  12.985
21351W        W80612  38.943  22.623  11.076
21352W        W80613   1.295  18.189   3.823
21353W        W80614  10.289  36.909  11.592
21354W        W80615  32.500  44.979   1.817
21355W        W80616  34.525  22.124  12.483
21356W        W80617  11.794  30.615   5.220
21357W        W80618  36.900   1.767  10.623
21358W        W80619  25.556   3.449   2.357
21359W        W80620   0.961  12.721   3.229
21360W        W80621   8.351  44.489   3.368
21361W        W80622  14.717  44.833   3.755
21362W        W80623  36.542  10.793  14.474
21363W        W80624  23.192  10.203  13.795
21364W        W80625  10.289  31.412  14.013
21365W        W80626  40.050   7.372   2.344
21366W        W80627  35.980  12.737   5.285
21367W        W80628  17.646  19.681   2.867
21368W        W80629  14.127  41.841   3.705
21369W        W80630   9.153   5.917   3.367
21370W        W80631  31.011  20.574   1.867
21371W        W80632   4.707   3.272   4.274
21372W        W80633   2.746  11.288   2.780
21373W        W80634  37.066  27.167  12.971
21374W        W80635  15.637   4.357   2.407
21375W        W80636  12.248  23.086  10.895
21376W        W80637  40.366   7.344   0.801
21377W        W80638  16.807  24.073   2.824
21378W        W80639  12.715  33.111   0.269
21379W        W80640  30.002  27.095  13.463
21380W        W80641  15.245   6.871   3.863
21381W        W80642   4.913   8.206  12.824
21382W        W80643  28.548  18.574  12.066
21383W        W80644   7.688  27.057  12.969
21384W        W80645  15.247  21.656  14.014
21385W        W80646  34.888  40.433  10.605
21386W        W80647  37.403  13.187  12.920
21387W        W80648  29.578  43.939  14.456
21388W        W80649   0.332   8.800  10.920
21389W        W80650  24.608  21.584  13.943
21390W        W80651  43.283  32.986  11.876
21391W        W80652  37.889  10.198  13.861
21392W        W80653   1.420  31.003   3.323
21393W        W80654  25.688  33.457   3.866
21394W        W80655  24.090  31.043  11.584
21395W        W80656  14.673  31.114  11.944
21396W        W80657  31.588  25.170   3.312
21397W        W80658  19.690   0.290   2.766
21398W        W80659  11.767   6.341  10.992
21399W        W80660  43.317   9.667   1.907
21400W        W80661  22.184  26.106   3.795
21401W        W80662   0.868  35.496  14.320
21402W        W80663  15.690  31.573  14.438
21403W        W80664  35.485   9.276   0.875
21404W        W80665  39.325   9.759  14.028
21405W        W80666  11.797  44.913  14.501
21406W        W80667  44.377  21.673  14.881
21407W        W80668   1.910  31.540  13.533
21408W        W80669  31.428   9.756  10.560
21409W        W80670  21.591  35.385   2.350
21410W        W80671   0.808  14.107  12.081
21411W        W80672   9.776  23.563   4.258
21412W        W80673  11.237  24.553  12.912
21413W        W80674  41.931  28.967  12.942
21414W        W80675  27.544  42.485  11.033
21415W        W80676  35.997  26.659   1.369
21416W        W80677  17.678  23.227   3.263
21417W        W80678  33.402  10.868   5.319
21418W        W80679   6.755  26.977  14.978
21419W        W80680   2.883  18.769   2.755
21420W        W80681  19.639  35.937  14.906
21421W        W80682  38.907   6.745   2.305
21422W        W80683   7.206   9.224   2.834
21423W        W80684  20.657  22.600  14.431
21424W        W80685  21.125  23.493   1.834
21425W        W80686  20.528  44.917   1.739
21426W        W80687  14.777  25.995  13.403
21427W        W80688   7.803  16.209   4.287
21428W        W80689  20.666  30.043  14.835
21429W        W80690  19.266  13.143   1.793
21430W        W80691   2.360  34.568   0.342
21431W        W80692  14.286  37.061  14.476
21432W        W80693  33.051  33.476   3.196
21433W        W80694  18.706  22.698  13.335
21434W        W80695  33.386  15.776  13.962
21435W        W80696   0.311  36.906   0.871
21436W        W80697  29.092   5.220   4.173
21437W        W80698  22.697  11.175   1.318
21438W        W80699  34.486   7.393  14.903
21439W        W80700  12.220  40.351  13.905
21440W        W80701  39.483  17.303   4.599
21441W        W80702  33.960   5.868   1.761
21442W        W80703  19.728  28.485  12.976
21443W        W80704  39.874  22.248   4.643
21444W        W80705  35.062  29.594   2.374
21445W        W80706  10.224  32.140   5.218
21446W        W80707  17.762   1.893   4.143
21447W        W80708  12.760  34.377  11.414
21448W        W80709  14.717  31.563  14.317
21449W        W80710  21.170  33.437   0.389
21450W        W80711  16.775  29.065  13.797
21451W        W80712  11.792  13.172   3.370
21452W        W80713  21.092  27.606  11.954
21453W        W80714  25.076   1.423   2.228
21454W        W80715  31.002   6.285   1.892
21455W        W80716  23.235  43.916   4.116
21456W        W80717  21.562  10.659  11.901
21457W        W80718   9.248   5.348   9.924
21458W        W80719  40.511  39.038  12.550
21459W        W80720   5.262  29.536  14.833
21460W        W80721  11.346  21.592  13.335
21461W        W80722   8.687  38.851  14.957
21462W        W80723  39.811   2.406  12.413
21463W        W80724  11.815  40.531   1.821
21464W        W80725  20.090  44.313  13.329
21465W        W80726  20.648  18.241  11.863
21466W        W80727  17.758  43.346  10.936
21467W        W80728  42.483  40.358  10.552
21468W        W80729  33.414  18.640   3.180
21469W        W80730  35.899  35.360   1.758
21470W        W80731   4.936   9.159   1.697
21471W        W80732   6.198  31.068  14.809
21472W        W80733  43.020  22.126  10.622
21473W        W80734  42.525  39.520   2.663
21474W        W80735   4.704  34.458   4.818
21475W        W80736  14.607  23.641   1.730
21476W        W80737  24.606  16.587   1.758
21477W        W80738  12.686  42.370   3.703
21478W        W80739   0.985  14.199   2.711
21479W        W80740  32.134  37.860  12.452
21480W        W80741   2.338  38.864   4.750
21481W        W80742  18.107  22.535  14.463
21482W        W80743   0.865   9.183   1.724
21483W        W80744  17.188  39.496  11.612
21484W        W80745  12.342  11.754  12.406
21485W        W80746   7.240  26.114  13.529
21486W        W80747  36.019  38.077  11.418
21487W        W80748  13.836  11.361  14.313
21488W        W80749   8.346   2.753   4.829
21489W        W80750  23.634  33.435   2.365
21490W        W80751   7.393  18.722   5.287
21491W        W80752  26.047  16.157   0.439
21492W        W80753   1.833   9.819   0.296
21493W        W80754  41.040  14.260  13.993
21494W        W80755  25.181  15.625  12.986
21495W        W80756   8.770  12.751   0.839
21496W        W80757  37.077  12.170   2.683
21497W        W80758  31.981  44.898  10.499
21498W        W80759  33.565   1.266  13.048
21499W        W80760  13.695  44.956  14.328
21500W        W80761   0.865  20.098   3.776
21501W        W80762   5.349  26.108   1.439
21502W        W80763  10.786   3.759   1.897
21503W        W80764   5.412  10.212  11.523
21504W        W80765  10.296  10.816  11.953
21505W        W80766  32.441  21.171  12.456
21506W        W80767  43.013  19.197  13.962
21507W        W80768   6.866  36.373  13.352
21508W        W80769  35.089  19.591   2.222
21509W        W80770  24.714  18.609  14.876
21510W        W80771  41.538  22.642  12.466
21511W        W80772  20.117  32.623   0.944
21512W        W80773  19.241   6.232   1.867
21513W        W80774  37.553  28.454   3.865
21514W        W80775  23.717  39.327  10.914
21515W        W80776   9.662   1.257   0.371
21516W        W80777   6.902   1.417   4.681
21517W        W80778  10.655  43.443   0.732
21518W        W80779  18.281  18.574   1.704
21519W        W80780  22.109   2.372   2.787
21520W        W80781  36.867  23.502   4.740
21521W        W80782   3.306  21.041   0.244
21522W        W80783  42.330  37.058  11.061
21523W        W80784  15.119  26.972   1.695
21524W        W80785   6.745  35.901   0.903
21525W        W80786  18.270  31.478  14.919
21526W        W80787  21.623  14.239  13.909
21527W        W80788  28.022  10.170  10.529
21528W        W80789  34.011   5.259  12.386
21529W        W80790   9.235  28.971  11.390
21530W        W80791   8.812  17.558   1.369
21531W        W80792   0.408  24.542   1.922
21532W        W80793  39.468  17.710  13.325
21533W        W80794  42.339  32.470   1.226
21534W        W80795  21.078  29.923  13.512
21535W        W80796   8.723  11.211  10.964
21536W        W80797  20.223  25.694  13.892
21537W        W80798  35.087  11.734  11.440
21538W        W80799  41.493   1.768  11.088
21539W        W80800   6.742  44.973   2.197
21540W        W80801  28.589  20.550  14.281
21541W        W80802  18.643  13.781  11.978
21542W        W80803  42.383  33.531   1.319
21543W        W80804  22.747  34.469  10.973
21544W        W80805  20.252  41.892  12.403
21545W        W80806  16.172  29.465  10.499
21546W        W80807  32.433  25.568   3.347
21547W        W80808  29.602  15.763   2.687
21548W        W80809  17.784  16.192  14.337
21549W        W80810   1.336  29.602  14.326
21550W        W80811   2.338  37.946   3.259
21551W        W80812  38.395  24.192   4.354
21552W        W80813   7.363  30.455  14.025
21553W        W80814   9.349  37.522  13.435
21554W        W80815  12.189  27.182   0.322
21555W        W80816  15.808   6.846  11.025
21556W        W80817   6.275   6.422   1.438
21557W        W80818  31.069  36.033   2.323
21558W        W80819  26.682  39.879   4.293
21559W        W80820  25.699  34.864   2.212
21560W        W80821  44.492  42.970  13.007
21561W        W80822  11.730  12.224  12.407
21562W        W80823  20.274  34.539   4.734
21563W        W80824  44.784  38.425   4.695
21564W        W80825  20.190  19.537  14.856
21565W        W80826  14.670  37.833  11.078
21566W        W80827  10.219  18.236   2.258
21567W        W80828   0.775  26.952  12.975
21568W        W80829  29.077  29.476   0.306
21569W        W80830  13.140   4.400   4.118
21570W        W80831  42.413  13.779   1.226
21571W        W80832  16.653  11.142  10.983
21572W        W80833  27.152  33.934  13.993
21573W        W80834  23.547  10.327   3.228
21574W        W80835  27.079  29.556   0.264
21575W        W80836  25.167  15.267   1.868
21576W        W80837  10.301  18.601   3.647
21577W        W80838  36.011  35.862   5.200
21578W        W80839   0.380  38.554   1.698
21579W        W80840  28.979  25.545  14.937
21580W        W80841   0.248  41.922  14.851
21581W        W80842   2.409   9.159  12.919
21582W        W80843  36.869  26.163   4.161
21583W        W80844  39.482  31.476  11.110
21584W        W80845  32.125   4.887   1.878
21585W        W80846   7.783  18.579   4.334
21586W        W80847  23.034  37.940  12.354
21587W        W80848   4.831  41.476  10.413
21588W        W80849   2.437  38.349   1.416
21589W        W80850  30.000  20.226  14.345
21590W        W80851  44.362  17.087  13.502
21591W        W80852   3.329  25.595   0.858
21592W        W80853   6.209  38.024  13.438
21593W        W80854  31.446  29.080  11.406
21594W        W80855  30.024   4.311  14.385
21595W        W80856  43.962  34.872  13.419
21596W        W80857  21.194   0.454   1.746
21597W        W80858  27.468   4.260  11.470
21598W        W80859  43.021  15.293  12.391
21599W        W80860  12.153   5.892  14.499
21600W        W80861   5.342  19.656   2.321
21601W        W80862   8.388  26.675   3.324
21602W        W80863  39.440  17.205   1.414
21603W        W80864   5.274  32.016  12.451
21604W        W80865  13.327  19.150  14.289
21605W        W80866  29.665  28.040  12.943
21606W        W80867   9.169  34.930  11.091
21607W        W80868  35.468   1.890  14.787
21608W        W80869  28.135  20.081  11.387
21609W        W80870  42.505   4.265   4.296
21610W        W80871   5.363  12.340  14.971
21611W        W80872   2.240   2.891  11.906
21612W        W80873   3.416  33.043  11.497
21613W        W80874  15.744   8.378   1.362
21614W        W80875  22.043  40.934   1.343
21615W        W80876   9.246  34.418  13.847
21616W        W80877  43.966  12.334   0.351
21617W        W80878   2.909  26.179   1.720
21618W        W80879  14.224  40.533   2.730
21619W        W80880  29.036  16.808  10.903
21620W        W80881  16.714  16.737   1.310
21621W        W80882  33.035  13.613   4.702
21622W        W80883  40.896  34.062   1.435
21623W        W80884  19.048  43.962  12.466
21624W        W80885  40.858  42.505  12.938
21625W        W80886  25.537  25.978   3.170
21626W        W80887  22.117   0.355  10.541
21627W        W80888  35.490  16.655  12.067
21628W        W80889   4.376  26.189   4.645
21629W        W80890  27.497  29.086   3.645
21630W        W80891  11.333  33.438   1.260
21631W        W80892   4.774  28.113   5.167
21632W        W80893  38.932  40.439   0.483
21633W        W80894  13.306  30.108  14.849
21634W        W80895  13.146  21.514  11.969
21635W        W80896  25.620  27.186  13.507
21636W        W80897  17.790  21.260  14.963
21637W        W80898  23.081   3.333   1.745
21638W        W80899  22.736  29.071   2.378
21639W        W80900  20.133  25.157  10.638
21640W        W80901   2.858  33.508   3.211
21641W        W80902  36.402  34.432   3.683
21642W        W80903  44.258  28.632   1.402
21643W        W80904  42.511  40.351  12.847
21644W        W80905  37.864   4.438  12.424
21645W        W80906   1.368   1.915   2.319
21646W        W80907  44.905  41.500  13.481
21647W        W80908  10.680  12.846   5.697
21648W        W80909  29.558  32.528   4.246
21649W        W80910   8.767  42.837  10.141
21650W        W80911  44.825  15.755  14.981
21651W        W80912  35.525  43.514  12.949
21652W        W80913  18.724  11.733  12.499
21653W        W80914  30.981  11.159  13.850
21654W        W80915  19.188  36.375   4.803
21655W        W80916  31.448  26.459   2.298
21656W        W80917  31.951   0.864  14.986
21657W        W80918   0.313  29.082   0.856
21658W        W80919  21.235  17.777  14.894
21659W        W80920  23.632   8.899   4.260
21660W        W80921  12.655  38.016  12.499
21661W        W80922  44.359   7.233   2.677
21662W        W80923  20.618  11.240   0.902
21663W        W80924  20.670  25.128   4.601
21664W        W80925  23.046  43.394   2.710
21665W        W80926   0.768   4.256   4.676
21666W        W80927  25.184  32.509  14.433
21667W        W80928  14.707   3.321   2.773
21668W        W80929   3.360  42.454  13.389
21669W        W80930  38.875  19.259   3.303
21670W        W80931  37.541  36.357  12.846
21671W        W80932  16.171  42.796   4.755
21672W        W80933  28.557   8.794  10.935
21673W        W80934  12.683  14.684  13.885
21674W        W80935  34.429  39.332   0.294
21675W        W80936  23.725  10.329   4.733
21676W        W80937  27.078  18.665   2.322
21677W        W80938  10.312  40.888  11.058
21678W        W80939  22.205  31.124   1.723
21679W        W80940  39.047  18.292   2.369
21680W        W80941  27.554  38.980   0.813
21681W        W80942  14.194  32.601   1.908
21682W        W80943  40.355  19.709   4.757
21683W        W80944  23.211  32.574   3.203
21684W        W80945  32.519  34.069   1.811
21685W        W80946   4.224   0.338  11.450
21686W        W80947  29.948  22.732  11.119
21687W        W80948  32.111  21.043   1.339
21688W        W80949  18.196  21.753   2.849
21689W        W80950  17.204  33.552  10.599
21690W        W80951  33.949  13.169   3.177
21691W        W80952   9.680  40.481  12.551
21692W        W80953   6.805  35.435   1.413
21693W        W80954  13.762  16.215   2.349
21694W        W80955  27.571   2.746   0.322
21695W        W80956  12.212  43.335  13.523
21696W        W80957   5.282  22.610  10.117
21697W        W80958  43.391  44.427   2.895
21698W        W80959  10.286  20.115  13.863
21699W        W80960   3.432   9.884  13.396
21700W        W80961  18.617  33.403  14.816
21701W        W80962  11.254  29.423   4.712
21702W        W80963  44.800  44.439   3.300
21703W        W80964  35.023  27.164  12.913
21704W        W80965  14.597  37.030  14.461
21705W        W80966  43.368   3.933   4.751
21706W        W80967  39.939   3.849   1.800
21707W        W80968   1.250  18.628  11.472
21708W        W80969   4.938  42.913   0.825
21709W        W80970  20.527   9.338  12.446
21710W        W80971   1.927  44.469  13.505
21711W        W80972  21.061  27.011  14.328
21712W        W80973  35.926  30.646  13.523
21713W        W80974  18.719  23.562   4.215
21714W        W80975  11.167   3.271   1.909
21715W        W80976  24.054  36.060  13.426
21716W        W80977  35.077  13.805   3.217
21717W        W80978  33.497  15.701   3.836
21718W        W80979   3.424  32.577  10.943
21719W        W80980   8.272  41.787  12.403
21720W        W80981  41.951   3.906  11.982
21721W        W80982  13.262  10.740   4.775
21722W        W80983  22.015  26.039  10.503
21723W        W80984  19.090   6.380   2.270
21724W        W80985  33.548  15.208   2.254
21725W        W80986   5.207  44.000   3.312
21726W        W80987  24.058  29.936  13.337
21727W        W80988  25.988  37.939  14.975
21728W        W80989   0.773  24.170  11.386
21729W        W80990   7.304  30.083  11.008
21730W        W80991   3.340  12.268   0.933
21731W        W80992  32.066  10.863  13.958
21732W        W80993   3.837   7.818   9.970
21733W        W80994   0.866  23.677  12.988
21734W        W80995  38.530  42.987   0.918
21735W        W80996  20.553  16.688   1.219
21736W        W80997  20.725  28.034   9.948
21737W        W80998  22.738  32.996  11.456
21738W        W80999  25.162  28.952  13.903
21739W        W81000  39.907  21.600  11.436
21740W        W81001  13.344   1.799  10.449
21741W        W81002  39.323  12.833  10.446
21742W        W81003  24.025  25.556   1.832
21743W        W81004  10.773  36.410  14.473
21744W        W81005  23.519  43.847   4.301
21745W        W81006  42.984  33.444   1.752
21746W        W81007  16.605  34.114   3.315
21747W        W81008  21.159  35.596   0.901
21748W        W81009  33.899  35.486  10.629
21749W        W81010  15.760   5.912   4.828
21750W        W81011  16.089  40.496  11.127
21751W        W81012   5.399  27.519   2.670
21752W        W81013  20.238  41.900   3.822
21753W        W81014  24.211  23.499  14.974
21754W        W81015  42.323  30.568  11.943
21755W        W81016  33.525  41.527   1.389
21756W        W81017  40.841  27.637   2.360
21757W        W81018  44.967  35.585  13.427
21758W        W81019  25.634  31.928   1.759
21759W        W81020   3.321  17.294   2.856
21760W        W81021  38.539   9.725   3.762
21761W        W81022   4.426  14.722  12.564
21762W        W81023  10.365  23.672   1.436
21763W        W81024  26.471  12.812  11.494
21764W        W81025   1.256  27.654   0.456
21765W        W81026  10.167  10.717   4.167
21766W        W81027  43.806  11.867  12.426
21767W        W81028  31.919  39.824   1.911
21768W        W81029  16.776  10.160   1.801
21769W        W81030  41.440  36.402   4.735
21770W        W81031  21.150  31.469   3.775
21771W        W81032  13.756  11.662   2.384
21772W        W81033   7.688  24.721   0.340
21773W        W81034  19.728  43.323  12.843
21774W        W81035  24.098  24.991   1.903
21775W        W81036  18.733  41.805   2.823
21776W        W81037  23.647  18.710  10.909
21777W        W81038  13.650   3.878   0.378
21778W        W81039  28.541  11.700  12.962
21779W        W81040  39.521  20.141   3.176
21780W        W81041  17.759   9.167  13.016
21781W        W81042  29.559  28.492  11.490
21782W        W81043   4.292   9.808   2.870
21783W        W81044  14.655  37.525  14.371
21784W        W81045   8.854  40.845   4.179
21785W        W81046  29.100  31.039  11.492
21786W        W81047   0.832  38.974  13.993
21787W        W81048  30.012   8.874   4.120
21788W        W81049  44.941  23.222  12.871
21789W        W81050  15.118  10.798  13.027
21790W        W81051   5.428  28.614   4.193
21791W        W81052  19.260  16.116   1.807
21792W        W81053   5.223  17.619  11.885
21793W        W81054  30.552  20.679   4.745
21794W        W81055  12.847  31.474   4.601
21795W        W81056  42.460   0.922  14.779
21796W        W81057  32.930  18.081   1.723
21797W        W81058   2.445   4.784   2.340
21798W        W81059  25.497   0.250  13.869
21799W        W81060  22.568  44.344  13.810
21800W        W81061  17.181  30.531   0.747
21801W        W81062  31.481  34.578  11.859
21802W        W81063  34.867  31.564  14.423
21803W        W81064  31.425   7.751  11.975
21804W        W81065  31.578  29.065   2.741
21805W        W81066   6.682  34.015  12.501
21806W        W81067  14.801  37.946   2.737
21807W        W81068  42.453  10.838  10.933
21808W        W81069  40.341   5.744  12.017
21809W        W81070  29.466   2.780   2.232
21810W        W81071  37.489  24.491   1.792
21811W        W81072  33.064  22.177  14.906
21812W        W81073  14.142   2.311  12.454
21813W        W81074  21.703  39.923  12.409
21814W        W81075  29.990  29.920   4.281
21815W        W81076  30.631  38.357  10.530
21816W        W81077  26.689  19.040   2.869
21817W        W81078   4.796   0.273   1.818
21818W        W81079   4.334  11.704   9.928
21819W        W81080  24.184   4.889   5.128
21820W        W81081  38.534  44.978   0.344
21821W        W81082  28.104  25.519  10.952
21822W        W81083  12.727  38.995   3.750
21823W        W81084  11.179   1.417  13.961
21824W        W81085   9.371  14.255  14.931
21825W        W81086   8.866  34.033  11.415
21826W        W81087  19.139  15.252  12.534
21827W        W81088  15.295  21.642  10.990
21828W        W81089   8.353  12.131   1.252
21829W        W81090  31.055   6.287   3.792
21830W        W81091  10.371  42.878   9.968
21831W        W81092  33.482   6.275   4.289
21832W        W81093  28.979  18.715   3.797
21833W        W81094  11.728  26.562   4.685
21834W        W81095   2.785  11.212  11.984
21835W        W81096   4.921  41.310   4.746
21836W        W81097  25.692   9.854  10.896
21837W        W81098  29.032  39.495  11.567
21838W        W81099  38.504  12.723   3.296
21839W        W81100   9.293  42.824  10.588
21840W        W81101  15.616  20.034   4.223
21841W        W81102  14.264  40.045   0.357
21842W        W81103   0.954   9.395  10.983
21843W        W81104  31.620  31.601  14.465
21844W        W81105   7.333  17.772   3.320
21845W        W81106  23.190  43.005   2.725
21846W        W81107  28.930  25.490  10.994
21847W        W81108  22.044  38.467  11.434
21848W        W81109  20.231  35.547   2.860
21849W        W81110  19.729  25.148   0.918
21850W        W81111  33.474   4.357  11.897
21851W        W81112  27.515  31.502   1.330
21852W        W81113  43.428  41.817  12.409
21853W        W81114  35.105   1.328  11.908
21854W        W81115  10.641  42.490   2.744
21855W        W81116   6.862  13.115  11.457
21856W        W81117  27.030   3.748  14.369
21857W        W81118   9.362  32.541   2.210
21858W        W81119  31.969  26.185  11.390
21859W        W81120  39.841   4.334  14.008
21860W        W81121  38.391  11.333  13.509
21861W        W81122  44.890   3.818   2.804
21862W        W81123  24.644   2.937   0.469
21863W        W81124  32.417  13.751   3.835
21864W        W81125  16.616  37.889  11.569
21865W        W81126  16.175   8.800  11.564
21866W        W81127  17.286  40.354   1.710
21867W        W81128   1.378   6.916   0.453
21868W        W81129   3.253  12.844   1.380
21869W        W81130  28.974  42.358   0.956
21870W        W81131  24.702   8.723  12.930
21871W        W81132  32.978  28.445   4.225
21872W        W81133   7.682  18.752  11.116
21873W        W81134   8.404   2.924  12.084
21874W        W81135   7.410  21.191  14.350
21875W        W81136   1.356  18.646  14.508
21876W        W81137  31.949  39.500  12.348
21877W        W81138  18.586  39.852  12.079
21878W        W81139  24.679  15.233   0.779
21879W        W81140  18.238  28.563  14.319
21880W        W81141  20.228   3.400   1.368
21881W        W81142  20.245   2.854  14.487
21882W        W81143   7.826  13.813  10.959
21883W        W81144  12.705   9.293  13.444
21884W        W81145  28.145  33.879  14.828
21885W        W81146   6.300   3.823  13.338
21886W        W81147  34.991  17.294   2.888
21887W        W81148   6.379   6.906  12.419
21888W        W81149  30.560  31.904   2.727
21889W        W81150  41.829  20.533  12.076
21890W        W81151   7.824  42.399  12.502
21891W        W81152  19.157   5.197   4.235
21892W        W81153  41.431  25.506  13.886
21893W        W81154  10.156  29.154   1.798
21894W        W81155  13.168  40.038  13.039
21895W        W81156  31.425  36.424  13.500
21896W        W81157  18.671  36.560   1.764
21897W        W81158  32.142  40.045   3.675
21898W        W81159  34.612  29.442   0.317
21899W        W81160  20.223  41.427  14.842
21900W        W81161  23.106  28.529   3.748
21901W        W81162   9.292  28.455   4.630
21902W        W81163  19.215   9.161   1.260
21903W        W81164  29.084  26.084   1.758
21904W        W81165   0.781  23.581  12.340
21905W        W81166  36.884  32.588  14.918
21906W        W81167  28.080   1.904   0.482
21907W        W81168   2.263   0.909   3.317
21908W        W81169  20.750  41.802   0.843
21909W        W81170  11.781  13.119  14.281
21910W        W81171  36.368   6.801  10.451
21911W        W81172  29.013  42.442  13.463
21912W        W81173  21.583  42.491   1.370
21913W        W81174  12.814   3.405  12.518
21914W        W81175  16.694   4.257   1.777
21915W        W81176  31.562  44.758   1.354
21916W        W81177  41.818  41.927  14.390
21917W        W81178  12.296  18.574   3.683
21918W        W81179  13.623  40.930  14.476
21919W        W81180   9.186  43.459   2.775
21920W        W81181   8.287  22.649  13.506
21921W        W81182  11.703  14.738   1.434
21922W        W81183  30.031  44.900   1.241
21923W        W81184  23.009  15.624  11.068
21924W        W81185  17.697  30.114   1.702
21925W        W81186  32.532  16.256   5.248
21926W        W81187  33.549  27.948   4.175
21927W        W81188  41.507  19.236  13.505
21928W        W81189  15.801  20.578  11.426
21929W        W81190  25.625  42.022  12.091
21930W        W81191  20.668  15.140  11.594
21931W        W81192  35.035   0.963  11.409
21932W        W81193  32.090  25.537  10.480
21933W        W81194  39.530   9.297   0.284
21934W        W81195   7.365  33.094   3.819
21935W        W81196  34.495  29.555   1.388
21936W        W81197  20.121  26.039  13.989
21937W        W81198  10.648  38.333  12.434
21938W        W81199   8.753  15.313   2.364
21939W        W81200  11.333  16.738   1.873
21940W        W81201  14.596  35.016   1.300
21941W        W81202  42.351  25.684  12.025
21942W        W81203  27.991  42.330   4.352
21943W        W81204  21.114  36.005  12.945
21944W        W81205  28.602   5.343  10.491
21945W        W81206  19.594  31.987  12.474
21946W        W81207  12.813  31.097   2.751
21947W        W81208  42.453  19.174  11.378
21948W        W81209  35.536  43.892   1.796
21949W        W81210   4.843   5.237  14.393
21950W        W81211   7.712  23.631  10.950
21951W        W81212  20.589  13.772  14.908
21952W        W81213  13.739   7.193  14.355
21953W        W81214   5.234   5.416  13.920
21954W        W81215   4.442  29.016   3.383
21955W        W81216  15.609  26.651   4.659
21956W        W81217  42.509  24.997   2.804
21957W        W81218   0.984  25.041  11.605
21958W        W81219  10.160  12.191  12.016
21959W        W81220  37.562   1.971  11.934
21960W        W81221  15.639  26.566  11.473
21961W        W81222  42.396  14.717  11.982
21962W        W81223  19.661  34.920   2.809
21963W        W81224  14.125   8.879  14.843
21964W        W81225  30.976  11.295   3.210
21965W        W81226  28.041   2.734  11.885
21966W        W81227  15.631   4.347   4.695
21967W        W81228  19.221  15.149   3.295
21968W        W81229  15.588   8.870   1.392
21969W        W81230  15.779  39.024  12.462
21970W        W81231   7.415  41.974   3.709
21971W        W81232   0.465  22.564  10.490
21972W        W81233   9.149  11.745  10.988
21973W        W81234  31.428   9.165  14.299
21974W        W81235  13.647  34.487  13.057
21975W        W81236  28.517   0.766  12.358
21976W        W81237  39.989  34.488  12.054
21977W        W81238  36.491  11.794   4.173
21978W        W81239  23.577   4.330   1.214
21979W        W81240  27.037   5.383   0.255
21980W        W81241   1.922  43.272  14.504
21981W        W81242  25.596  20.669  13.457
21982W        W81243  11.701  37.981   3.220
21983W        W81244   4.219   6.683  14.895
21984W        W81245  42.364  26.636  12.015
21985W        W81246   0.462  16.185  13.897
21986W        W81247  24.547  16.595  12.362
21987W        W81248  43.854   1.396   3.705
21988W        W81249   3.830  40.880   2.270
21989W        W81250   6.718   7.805  13.516
21990W        W81251   6.370  13.703   1.258
21991W        W81252  26.578   9.240   2.759
21992W        W81253  39.334  37.034  14.001
21993W        W81254   4.291  32.413   1.272
21994W        W81255  21.112  41.991   3.156
21995W        W81256   9.692  12.328   1.246
21996W        W81257  17.234  37.416   4.701
21997W        W81258  15.623  42.480   2.246
21998W        W81259  39.810  21.019  11.526
21999W        W81260  19.256  32.994  10.451
22000W        W81261  35.021  38.386   3.767
22001W        W81262  35.585  36.538  12.491
22002W        W81263   6.783  40.549  12.431
22003W        W81264   3.276  24.018   3.631
22004W        W81265  23.073   8.362  11.884
22005W        W81266  17.092  14.613  13.471
22006W        W81267  16.170  41.913  11.529
22007W        W81268  10.147  29.139  12.902
22008W        W81269  26.675  30.046  13.516
22009W        W81270  33.982   6.327  14.358
22010W        W81271   7.256  25.534  14.358
22011W        W81272  44.767  29.613  11.951
22012W        W81273  29.157  27.973  10.499
22013W        W81274   9.855  14.152  13.799
22014W        W81275  36.386  11.145  13.847
22015W        W81276  24.581  43.812  11.956
22016W        W81277  15.151  43.403   3.190
22017W        W81278  16.242  23.996   2.205
22018W        W81279  21.757  10.321   1.894
22019W        W81280  30.983  30.917   2.758
22020W        W81281  12.126  35.058   4.622
22021W        W81282  15.209   1.357   4.221
22022W        W81283  35.934  23.064   0.828
22023W        W81284  22.223   4.738   4.781
22024W        W81285  35.080  13.134  13.389
22025W        W81286  38.482  20.679  14.423
22026W        W81287  16.248  43.400  12.990
22027W        W81288   1.779  28.642   1.766
22028W        W81289  38.914  33.074   1.708
22029W        W81290  30.014   4.364  14.848
22030W        W81291  11.657  21.059  11.916
22031W        W81292  10.270  30.104  12.505
22032W        W81293  36.852  27.644   3.184
22033W        W81294  24.571  18.783   3.289
22034W        W81295  33.893   4.878   3.724
22035W        W81296  24.184   8.335  12.015
22036W        W81297  11.184   2.299  13.047
22037W        W81298  20.658   4.242  14.462
22038W        W81299  38.524  43.293  14.854
22039W        W81300  23.180  22.627  11.389
22040W        W81301  17.086  26.469   1.768
22041W        W81302  25.001  31.990  13.445
22042W        W81303  40.523  35.090   0.354
22043W        W81304  34.080  40.927  10.506
22044W        W81305  26.473   2.861   2.783
22045W        W81306  12.826   1.428  13.396
22046W        W81307   4.817  22.216   1.367
22047W        W81308   5.896  11.862  13.877
22048W        W81309  12.825   7.735  14.834
22049W        W81310  35.958  21.540   3.639
22050W        W81311  19.671  29.000   5.571
22051W        W81312   8.272  29.000   2.202
22052W        W81313  25.075  38.877   2.757
22053W        W81314  14.150  21.073   4.123
22054W        W81315  30.165   0.921   4.711
22055W        W81316  16.813  20.599   1.417
22056W        W81317  23.706  17.590  11.979
22057W        W81318   1.754  21.558  13.424
22058W        W81319   1.293  41.472   1.386
22059W        W81320  10.751  30.160   2.406
22060W        W81321  38.542  40.324  12.885
22061W        W81322  14.767  15.822  13.369
22062W        W81323  32.474   1.885  12.853
22063W        W81324  27.486  44.865  13.918
22064W        W81325  28.441   0.399   2.812
22065W        W81326  35.549  18.602   4.159
22066W        W81327  19.666  40.884  10.915
22067W        W81328   7.274  11.712   4.734
22068W        W81329  18.647   6.189  13.925
22069W        W81330  10.827  27.545  14.392
22070W        W81331  18.166  22.713   3.629
22071W        W81332  10.800  22.744  12.541
22072W        W81333  35.008  38.836   1.376
22073W        W81334  10.185  43.904  13.404
22074W        W81335   5.771  40.476  11.577
22075W        W81336  16.612  31.422  11.535
22076W        W81337  27.997  20.695  10.565
22077W        W81338  10.185  25.621   5.162
22078W        W81339  21.198  44.399   0.423
22079W        W81340  26.031  27.122   3.193
22080W        W81341  10.345  17.081   4.796
22081W        W81342  22.511  20.056  13.033
22082W        W81343  10.384  44.887   2.357
22083W        W81344  27.165  29.061  11.398
22084W        W81345  41.492  35.551  13.835
22085W        W81346  11.750  41.405   1.310
22086W        W81347   5.871   6.911  13.492
22087W        W81348  21.622  29.111  11.937
22088W        W81349   3.756  30.944   4.637
22089W        W81350  37.896   1.835  14.782
22090W        W81351   1.465  10.241   3.250
22091W        W81352   2.916   1.963  13.329
22092W        W81353   7.897  16.663  13.850
22093W        W81354  11.844  14.331  11.970
22094W        W81355  34.074  14.594  10.944
22095W        W81356  22.564  40.956  14.882
22096W        W81357  11.159  30.014  14.282
22097W        W81358  13.222  22.120   2.352
22098W        W81359  13.709  21.022  13.501
22099W        W81360   9.757  31.440   3.675
22100W        W81361   7.303   3.925   4.317
22101W        W81362   2.863  40.890  12.348
22102W        W81363  42.362  15.733  14.480
22103W        W81364  31.503  18.155  11.611
22104W        W81365   8.751  32.085  13.917
22105W        W81366  21.614  23.183  10.035
22106W        W81367  35.521  36.064   1.820
22107W        W81368  38.393   8.899   0.270
22108W        W81369  18.645  16.803  13.035
22109W        W81370  44.833  21.747   0.955
22110W        W81371   7.834  36.940  14.431
22111W        W81372  29.492  41.525   3.354
22112W        W81373  25.539   0.448   0.320
22113W        W81374  37.961   4.877   0.823
22114W        W81375   9.656  33.056   3.212
22115W        W81376  43.422  27.603  10.460
22116W        W81377   8.730  41.861  12.447
22117W        W81378  33.461  12.351  13.344
22118W        W81379  34.573  25.688  14.765
22119W        W81380  28.033  37.985   4.819
22120W        W81381  39.558  22.068   4.739
22121W        W81382   9.365   6.350  10.474
22122W        W81383  41.787  32.444   2.225
22123W        W81384   3.418  27.617  13.485
22124W        W81385  29.107   6.736   1.449
22125W        W81386  16.271   5.715   9.627
22126W        W81387  44.819   4.864   3.826
22127W        W81388  11.746  17.295  10.928
22128W        W81389  36.969  21.556  11.991
22129W        W81390  25.563  13.680  11.378
22130W        W81391  26.169  32.893   0.961
22131W        W81392  27.465   5.806   2.664
22132W        W81393  18.206  15.222  12.965
22133W        W81394  20.588  44.852   3.640
22134W        W81395  28.027  12.227  10.504
22135W        W81396   5.395  38.545   0.953
22136W        W81397  15.649  35.568  11.492
22137W        W81398   8.836  19.616   0.466
22138W        W81399  43.288   3.875   0.898
22139W        W81400   5.326  35.374  14.898
22140W        W81401   0.333  15.578   0.346
22141W        W81402  12.786  44.009   3.262
22142W        W81403   2.746  35.423  10.889
22143W        W81404  16.581   1.413  14.313
22144W        W81405  34.533  22.670   1.451
22145W        W81406  24.631  23.613  14.317
22146W        W81407   2.747  35.505  13.500
22147W        W81408  20.614  29.040  12.037
22148W        W81409   0.277  19.720  14.014
22149W        W81410  21.711  14.674  13.903
22150W        W81411   5.210  25.517  14.300
22151W        W81412  40.361  30.586   3.332
22152W        W81413  29.971   5.311  11.399
22153W        W81414   5.248  41.483   4.340
22154W        W81415  43.433  22.724   1.872
22155W        W81416   1.453  41.321  12.035
22156W        W81417  17.726  39.395  13.937
22157W        W81418  42.962  30.003   4.796
22158W        W81419  25.621  30.155  13.441
22159W        W81420  28.462   8.719   0.927
22160W        W81421   4.833  33.587  13.986
22161W        W81422  35.900  40.418   1.392
22162W        W81423  40.003  13.185   1.293
22163W        W81424   0.791  33.496  10.127
22164W        W81425  42.976  18.217  12.044
22165W        W81426  17.679   9.768   2.288
22166W        W81427  25.477  37.376   5.226
22167W        W81428  22.659  30.044   2.226
22168W        W81429  33.380  22.083  11.072
22169W        W81430  38.350  32.069  11.094
22170W        W81431  40.436  12.736  12.836
22171W        W81432  20.663  28.607   3.797
22172W        W81433  34.905  18.101  11.942
22173W        W81434   8.830  28.048   4.742
22174W        W81435  38.379  30.552   1.422
22175W        W81436  22.083  39.430  12.460
22176W        W81437  19.255   2.304   2.822
22177W        W81438  22.660  11.143  14.297
22178W        W81439  18.260   0.290   0.928
22179W        W81440  12.679  42.920  11.913
22180W        W81441  44.336  22.596  10.481
22181W        W81442  35.514  27.159  14.961
22182W        W81443   6.345  36.062  13.404
22183W        W81444  39.529  10.311   1.796
22184W        W81445  43.998  16.800  14.326
22185W        W81446   5.893  19.153  13.802
22186W        W81447  42.487  16.213  14.020
22187W        W81448  10.676  12.759   4.777
22188W        W81449  17.269  16.299  11.460
22189W        W81450  35.465   1.366   2.249
22190W        W81451  15.086  31.588   2.742
22191W        W81452   7.764  34.040   2.835
22192W        W81453   7.725  44.420   3.664
22193W        W81454   9.732   3.375  11.981
22194W        W81455  13.338   8.233  14.311
22195W        W81456  13.787  36.564  10.926
22196W        W81457   6.411  26.961   0.765
22197W        W81458  23.122   5.341  14.484
22198W        W81459  24.565   7.405  14.439
22199W        W81460  22.609  24.526  13.322
22200W        W81461  16.267  32.118   5.141
22201W        W81462   3.869  22.117   0.342
22202W        W81463   2.400   6.186   2.264
22203W        W81464  37.359  30.069  13.879
22204W        W81465  38.526   9.327   2.694
22205W        W81466   0.451  36.485  11.113
22206W        W81467   8.200   8.790  10.525
22207W        W81468  41.538  14.698   3.278
22208W        W81469  38.408  27.467   3.178
22209W        W81470  29.172  38.549   2.875
22210W        W81471  25.609  19.674  12.383
22211W        W81472  29.493  29.593   0.292
22212W        W81473   7.202  42.517  12.484
22213W        W81474  16.695  36.904  12.550
22214W        W81475  24.154  41.930   0.314
22215W        W81476   0.925  12.327   0.854
22216W        W81477  16.730  15.584   2.666
22217W        W81478  41.984  19.634   9.957
22218W        W81479  17.148  37.847   0.396
22219W        W81480   8.210  30.001   1.302
22220W        W81481  26.577  26.488  13.831
22221W        W81482   3.774  40.344  13.020
22222W        W81483  19.710  42.523   4.829
22223W        W81484  41.037  25.965  14.817
22224W        W81485  33.408  18.132   2.210
22225W        W81486  20.044  39.330  14.278
22226W        W81487  34.548   9.798  12.891
22227W        W81488  36.978   2.356  13.319
22228W        W81489   0.414  26.029  12.535
22229W        W81490  35.979  17.177  13.414
22230W        W81491  43.430  43.505   4.835
22231W        W81492  26.997  32.896   1.913
22232W        W81493  34.905  13.118   3.789
22233W        W81494  22.242  17.760   2.849
22234W        W81495  28.148  12.286   4.170
22235W        W81496   4.740  29.471   5.144
22236W        W81497   4.922  24.481   4.752
22237W        W81498  39.026  43.872   4.206
22238W        W81499  19.223  44.890   1.234
22239W        W81500  28.021  38.010  14.891
22240W        W81501  13.606   0.418   5.168
22241W        W81502   7.223  15.611   1.739
22242W        W81503  21.550  24.522   5.772
22243W        W81504  33.879   6.882   2.837
22244W        W81505   3.433  11.865   1.265
22245W        W81506  37.874  18.549   0.333
22246W        W81507  30.910  34.569   4.146
22247W        W81508   4.931   4.929   2.723
22248W        W81509  27.564   3.362  14.491
22249W        W81510  31.513  27.678   1.308
22250W        W81511  41.854  34.902  14.029
22251W        W81512  21.640  43.012  12.825
22252W        W81513  28.124   0.937  12.399
22253W        W81514  16.117  26.168   2.750
22254W        W81515  22.114  23.595   3.835
22255W        W81516  28.595  10.711   3.690
22256W        W81517   8.672  19.625  14.942
22257W        W81518   0.986  41.310  12.958
22258W        W81519   8.321   7.866  14.368
22259W        W81520  36.981  29.106   2.338
22260W        W81521  20.065  31.956   0.330
22261W        W81522  44.458  28.637  11.977
22262W        W81523   0.902   8.668  14.473
22263W        W81524   2.816  21.569   3.374
22264W        W81525  44.414  19.682   2.211
22265W        W81526   1.292  15.582  14.355
22266W        W81527  27.197  14.597   1.717
22267W        W81528  27.117  43.393  14.980
22268W        W81529  32.510   1.279   3.674
22269W        W81530  15.319   3.740   0.267
22270W        W81531  22.590  44.458   3.336
22271W        W81532  25.037  12.704  11.527
22272W        W81533  32.632  43.944  14.344
22273W        W81534  22.104  34.031  13.426
22274W        W81535   8.858  27.545   0.806
22275W        W81536  40.039  38.480  11.484
22276W        W81537  37.855  19.696   1.369
22277W        W81538  18.193   3.438   4.616
22278W        W81539   1.756   3.398   3.710
22279W        W81540  16.073  27.971   3.244
22280W        W81541  34.514   7.263  14.009
22281W        W81542  30.006  28.461   1.719
22282W        W81543  16.163  25.710   2.775
22283W        W81544  25.558  35.015  13.880
22284W        W81545  15.735  39.977   2.178
22285W        W81546  38.929  25.708  13.059
22286W        W81547   7.807  41.410  13.530
22287W        W81548  25.128  41.413  10.415
22288W        W81549  23.651  27.501  13.408
22289W        W81550  23.078  17.216  11.997
22290W        W81551  19.733  27.176  13.540
22291W        W81552  13.121  28.998  13.321
22292W        W81553  19.193  26.113  12.407
22293W        W81554  29.973  32.474  10.160
22294W        W81555  43.975   3.825  10.897
22295W        W81556   7.221  26.151   1.327
22296W        W81557  44.411  42.436   0.819
22297W        W81558  20.576  32.928   1.443
22298W        W81559  34.370  44.362  11.020
22299W        W81560  44.383  27.531  13.393
22300W        W81561   3.736  28.032   2.233
22301W        W81562  14.761  41.476  14.469
22302W        W81563   3.310   4.272  13.854
22303W        W81564   3.428  38.994  10.973
22304W        W81565  43.780  29.542  11.073
22305W        W81566  27.673  13.194   1.407
22306W        W81567  27.576  22.672  13.358
22307W        W81568  36.937  22.718   1.229
22308W        W81569  24.519  10.774  14.502
22309W        W81570  17.248  35.106   5.210
22310W        W81571  10.874  16.754  14.392
22311W        W81572  25.030  35.418   3.813
22312W        W81573   8.341  16.273   1.412
22313W        W81574  32.466  24.032   2.738
22314W        W81575  37.992  19.730   1.815
22315W        W81576  18.680  18.050   3.330
22316W        W81577   7.729  30.581   3.822
22317W        W81578  21.723  43.932   4.335
22318W        W81579  33.102  36.841  10.139
22319W        W81580  31.581  43.815   0.418
22320W        W81581  40.052  42.526   2.773
22321W        W81582  19.656  20.216  13.981
22322W        W81583   8.159  32.414   2.733
22323W        W81584  20.556   1.460   2.395
22324W        W81585  26.058   3.401   2.261
22325W        W81586  15.108  28.967  12.411
22326W        W81587  39.820  26.201   1.721
22327W        W81588  33.132   8.379  13.486
22328W        W81589  16.713  41.402   1.879
22329W        W81590  44.410   1.970   2.804
22330W        W81591  44.484  30.019   4.232
22331W        W81592  29.614  39.455  10.928
22332W        W81593   9.693  19.215   1.364
22333W        W81594  18.233  23.729   0.951
22334W        W81595   8.285  31.636  13.838
22335W        W81596   2.865  25.505   3.825
22336W        W81597  32.019  38.452   1.897
22337W        W81598  27.948   6.217  14.961
22338W        W81599  17.120  13.794  14.479
22339W        W81600  26.641  19.561  11.046
22340W        W81601   6.392  23.521  14.326
22341W        W81602   9.870   8.691  14.956
22342W        W81603  19.164  42.823   0.333
22343W        W81604  26.093   5.438   0.932
22344W        W81605  35.864  10.277   1.784
22345W        W81606   3.717  20.553  14.863
22346W        W81607  23.203  23.101   9.586
22347W        W81608  32.120  17.606  11.506
22348W        W81609  38.339  34.083   0.956
22349W        W81610  29.501   8.280   0.393
22350W        W81611   6.318  35.393   4.680
22351W        W81612  19.552   2.369  12.412
22352W        W81613  44.263   7.315  11.052
22353W        W81614  28.089  12.625   1.325
22354W        W81615  29.497  26.678  14.908
22355W        W81616  42.880   2.305  11.963
22356W        W81617   1.909  34.035   2.382
22357W        W81618  14.599  23.565  11.929
22358W        W81619   4.872  14.205   1.914
22359W        W81620  33.618  18.217   3.201
22360W        W81621   6.309  15.194  10.565
22361W        W81622  25.493  12.796   3.386
22362W        W81623  30.536  32.938  10.046
22363W        W81624  26.152  13.725  13.931
22364W        W81625  13.674  27.949   9.502
22365W        W81626  23.637  20.028  11.516
22366W        W81627  23.172  36.971  13.939
22367W        W81628  31.116   3.757  11.115
22368W        W81629  41.525  31.416  11.445
22369W        W81630  25.104  43.428  10.494
22370W        W81631  29.489   4.819   2.328
22371W        W81632   2.768   6.393   3.168
22372W        W81633  39.468  14.785   1.230
22373W        W81634  24.156  33.895   0.450
22374W        W81635  40.896  44.451  10.924
22375W        W81636   8.731  37.543  11.934
22376W        W81637  36.022  38.393   3.822
22377W        W81638  39.912   6.326  11.394
22378W        W81639  22.527   3.925   2.283
22379W        W81640  21.063  11.360   2.289
22380W        W81641  26.077  32.993  14.024
22381W        W81642  31.408  17.660   4.307
22382W        W81643  17.098  17.083   4.795
22383W        W81644  12.138  10.733  10.533
22384W        W81645  41.304   9.682  14.994
22385W        W81646  10.236   9.877   2.257
22386W        W81647  38.495  33.579   1.739
22387W        W81648  41.974  36.414  14.947
22388W        W81649   8.218  10.372  14.348
22389W        W81650  11.143   9.829  11.464
22390W        W81651  44.987  16.635  14.800
22391W        W81652   2.245  39.469   1.841
22392W        W81653  37.494  35.859   3.286
22393W        W81654   7.803  10.170   0.376
22394W        W81655  17.269  34.061   2.727
22395W        W81656  25.207  44.917   0.962
22396W        W81657  11.802   7.195  13.948
22397W        W81658   5.845  33.921  14.316
22398W        W81659  26.164  19.124  14.771
22399W        W81660  41.898  19.654  12.579
22400W        W81661  38.437  14.311   2.285
22401W        W81662  42.362  16.131   2.834
22402W        W81663   1.891   4.846   0.920
22403W        W81664  18.084  35.431  12.934
22404W        W81665   5.266  28.150   2.789
22405W        W81666  19.632  29.972  11.976
22406W        W81667  11.689  24.203  11.426
22407W        W81668   7.821  40.372  14.939
22408W        W81669  22.121  35.966  11.877
22409W        W81670  12.663  42.846   3.220
22410W        W81671   1.782  23.202   4.632
22411W        W81672  12.790  31.102  12.513
22412W        W81673  42.874  25.543  13.507
22413W        W81674  18.618   7.804  10.574
22414W        W81675  18.222   9.363   3.662
22415W        W81676   2.948   7.277   3.819
22416W        W81677  12.639  15.629   0.421
22417W        W81678   5.801   8.171  13.390
22418W        W81679  27.474  41.465   3.866
22419W        W81680  33.901  34.379  10.531
22420W        W81681  21.737  18.674  12.576
22421W        W81682  28.656  42.908   1.928
22422W        W81683  16.667  30.580  11.955
22423W        W81684  37.064   0.358   4.832
22424W        W81685  25.013  31.618  12.896
22425W        W81686  40.946  22.052  12.853
22426W        W81687  22.037   0.419  14.974
22427W        W81688  36.997  28.521  14.018
22428W        W81689   1.807   6.261  13.875
22429W        W81690   9.294   0.923  10.459
22430W        W81691   8.670   7.689   2.716
22431W        W81692  23.176  21.039   1.434
22432W        W81693  24.524   2.243  12.988
22433W        W81694  14.227  42.887   2.670
22434W        W81695  14.200  20.078   2.225
22435W        W81696   2.938  24.526  10.491
22436W        W81697  18.675  44.889   3.774
22437W        W81698  23.200  43.841  13.375
22438W        W81699   4.407   5.238  13.416
22439W        W81700  11.159  41.786   4.790
22440W        W81701  23.111  42.446   3.321
22441W        W81702   6.337  22.082   0.854
22442W        W81703  30.079   3.759   4.788
22443W        W81704   6.271  19.535  11.411
22444W        W81705  34.021  10.655   1.785
22445W        W81706  19.726  39.859  13.975
22446W        W81707  43.992   2.458  13.434
22447W        W81708   9.331  42.954   3.764
22448W        W81709  10.341  16.165  12.390
22449W        W81710   3.410  21.017  14.472
22450W        W81711  22.722  23.714  11.559
22451W        W81712  17.275  12.296  11.951
22452W        W81713  16.699   7.783   3.632
22453W        W81714  34.555  21.519   0.447
22454W        W81715   7.349  28.527  10.609
22455W        W81716  40.051  10.751   1.393
22456W        W81717  38.443  12.834  12.961
22457W        W81718  10.199  25.077  12.473
22458W        W81719  14.619   1.459   4.140
22459W        W81720  22.577   5.785   2.780
22460W        W81721  40.960   3.434   1.848
22461W        W81722  13.652  15.736   0.468
22462W        W81723  26.520  22.151  10.051
22463W        W81724  43.431  44.300  11.587
22464W        W81725  42.941   9.307   4.643
22465W        W81726  40.403   9.804   3.317
22466W        W81727  13.832  37.081   3.272
22467W        W81728  30.657  18.636  14.292
22468W        W81729  16.751  29.994   1.787
22469W        W81730   2.375  31.403  12.017
22470W        W81731  14.298  27.471   1.293
22471W        W81732   9.150  14.715   2.856
22472W        W81733  15.774  15.218   0.303
22473W        W81734   6.726   4.917   3.178
22474W        W81735   1.834  25.113   0.828
22475W        W81736  11.626   8.670   0.885
22476W        W81737   4.230   5.782  11.550
22477W        W81738  21.677  38.400  10.526
22478W        W81739   7.190  36.462  12.963
22479W        W81740  34.581  14.699  13.816
22480W        W81741  41.492  21.213  13.796
22481W        W81742  34.480  24.723   0.909
22482W        W81743  44.340  12.117   0.293
22483W        W81744  22.501  27.595   3.867
22484W        W81745  42.912  13.235   0.371
22485W        W81746  16.082  20.081   3.258
22486W        W81747  14.327  41.475   1.922
22487W        W81748  25.084  31.965   0.868
22488W        W81749  33.041  19.734  11.023
22489W        W81750   6.800  26.176  13.828
22490W        W81751  28.994  14.835   2.252
22491W        W81752  35.514  35.861  13.312
22492W        W81753  15.792  39.339   1.212
22493W        W81754  19.153  21.605   5.200
22494W        W81755  25.654  40.307  12.467
22495W        W81756  10.174  30.136  13.851
22496W        W81757  34.032  31.053   3.733
22497W        W81758  15.759   4.239   4.165
22498W        W81759  15.109  19.615  14.482
22499W        W81760   6.914  26.111  10.449
22500W        W81761  21.753  20.765  12.890
22501W        W81762  15.607  37.481  12.011
22502W        W81763  10.766  26.629  13.330
22503W        W81764  24.019   7.303  13.541
22504W        W81765  36.556  40.027  12.439
22505W        W81766  26.957  19.707   3.739
22506W        W81767  41.988  18.745   0.881
22507W        W81768  18.679  40.997   1.707
22508W        W81769  23.691  44.357   2.246
22509W        W81770  27.584  43.961  12.386
22510W        W81771  41.442  13.158   4.716
22511W        W81772  10.662  41.985   1.268
22512W        W81773  15.708  32.404  10.118
22513W        W81774  14.676  44.289  12.420
22514W        W81775  15.174  42.399  13.523
22515W        W81776   4.779  42.346   3.671
22516W        W81777  11.819  38.029   0.901
22517W        W81778   8.833   4.358   3.704
22518W        W81779  39.364  31.592   5.577
22519W        W81780   6.283   6.821  11.940
22520W        W81781  44.783   5.389   4.251
22521W        W81782  11.271   4.209   4.664
22522W        W81783  44.421  29.625  14.368
22523W        W81784  31.087  39.374  10.981
22524W        W81785  13.633  28.120  14.406
22525W        W81786  39.355  21.534   3.271
22526W        W81787  26.525  25.105   3.640
22527W        W81788  25.544  39.845   3.173
22528W        W81789  21.703  20.659  13.508
22529W        W81790  24.527  33.420  12.566
22530W        W81791  42.495  42.964   1.296
22531W        W81792  37.904   3.302   1.717
22532W        W81793  42.989  34.004   4.268
22533W        W81794  27.941  12.126  12.497
22534W        W81795  28.949  14.211  14.028
22535W        W81796  14.256  41.899  14.333
22536W        W81797  30.595  31.590   4.162
22537W        W81798  27.665  26.603   3.708
22538W        W81799  19.260  36.890  14.303
22539W        W81800  42.325  34.449  12.527
22540W        W81801  11.736  11.157  10.525
22541W        W81802  10.822   0.788   4.118
22542W        W81803  20.037   1.395   3.275
22543W        W81804  21.529   3.818  12.027
22544W        W81805  21.239  36.000   1.715
22545W        W81806  34.394  24.094   1.849
22546W        W81807  11.832  13.172   3.658
22547W        W81808  40.541  13.245   2.350
22548W        W81809  32.460  30.622  12.863
22549W        W81810  41.812  29.962  14.447
22550W        W81811   8.297  37.072   2.228
22551W        W81812  19.279   5.820  13.968
22552W        W81813  34.069   2.453  12.854
22553W        W81814  19.235  34.609   3.330
22554W        W81815   4.761  30.130   3.792
22555W        W81816  10.201  33.910  11.438
22556W        W81817   6.818  28.056  10.573
22557W        W81818  22.708  23.698  12.890
22558W        W81819  36.550  21.664   4.304
22559W        W81820  13.146  26.062  12.904
22560W        W81821  26.693  40.335   1.872
22561W        W81822  23.022  14.835   3.858
22562W        W81823  28.123  35.980  11.535
22563W        W81824  10.638  44.437   4.791
22564W        W81825  38.378  16.689  10.567
22565W        W81826  12.190  37.418   0.296
22566W        W81827  41.531   6.278   0.926
22567W        W81828   2.749  19.128   2.890
22568W        W81829  25.500  22.624  14.294
22569W        W81830  42.386   1.378   2.741
22570W        W81831  37.930  23.118   0.932
22571W        W81832  35.569  20.254   2.870
22572W        W81833  29.957  10.245  12.357
22573W        W81834  22.213  33.538   2.706
22574W        W81835  36.028  30.564  12.888
22575W        W81836  33.991   8.268  13.529
22576W        W81837  23.694  14.806   1.695
22577W        W81838   2.940  36.913  12.080
22578W        W81839  44.790   3.741   0.914
22579W        W81840  44.844  41.808  11.932
22580W        W81841   7.332  25.174   4.234
22581W        W81842  24.073  34.909  12.454
22582W        W81843  24.148  11.338   0.913
22583W        W81844   4.403  27.688   1.726
22584W        W81845   5.896   6.372  14.893
22585W        W81846  36.483  11.795  12.909
22586W        W81847  33.877  39.845   1.922
22587W        W81848  36.353   1.946  12.090
22588W        W81849  24.190  13.767   4.681
22589W        W81850  32.633  37.921  10.435
22590W        W81851  17.606  31.975  13.838
22591W        W81852  42.024  14.827   3.192
22592W        W81853  31.069  42.884  10.479
22593W        W81854   1.805  36.025  11.563
22594W        W81855  12.186  30.058  11.878
22595W        W81856   3.812  10.355   4.337
22596W        W81857  15.775  15.822  13.043
22597W        W81858  31.994  28.138   5.298
22598W        W81859  19.626  41.007   4.731
22599W        W81860  30.642  12.707  10.518
22600W        W81861   4.217  19.054   3.238
22601W        W81862  13.658  21.175  10.570
22602W        W81863  44.498  32.614  11.105
22603W        W81864  39.363  27.485   0.277
22604W        W81865   6.721  44.421  12.991
22605W        W81866  36.995  40.310  13.903
22606W        W81867  15.139  17.633  13.539
22607W        W81868   5.790  26.468   0.483
22608W        W81869  41.499  22.099  11.409
22609W        W81870  36.385  17.154   9.982
22610W        W81871   1.402   2.285   1.918
22611W        W81872  11.798   1.329   0.483
22612W        W81873   8.838   4.737   0.828
22613W        W81874   5.241  26.594   0.288
22614W        W81875  39.531  23.055   2.760
22615W        W81876  34.441  36.937  10.428
22616W        W81877  33.381  39.876  12.884
22617W        W81878   7.224  30.563   3.293
22618W        W81879  21.254   4.769   2.676
22619W        W81880   0.805  20.690  14.791
22620W        W81881  39.014  10.157   2.326
22621W        W81882  24.115  34.600  14.431
22622W        W81883  12.285   9.362   4.625
22623W        W81884  36.369  16.187   1.712
22624W        W81885  25.590  10.359   5.285
22625W        W81886  42.462  25.993  13.814
22626W        W81887  42.470  13.754  12.879
22627W        W81888  38.483   1.888  12.078
22628W        W81889  34.521  17.559   0.805
22629W        W81890   4.801  19.638   1.724
22630W        W81891  40.448  14.230  10.591
22631W        W81892  40.514  11.673  10.027
22632W        W81893  10.150   0.476  13.535
22633W        W81894  35.444  25.513   3.787
22634W        W81895  27.009  36.379  13.032
22635W        W81896   2.384  25.101  11.941
22636W        W81897  35.062  26.964  13.426
22637W        W81898  15.221   5.754   2.417
22638W        W81899  10.185  30.924  13.381
22639W        W81900  14.274  30.066   0.305
22640W        W81901  24.197   6.342  13.942
22641W        W81902  42.293  34.467   4.708
22642W        W81903   6.348  34.564  12.921
22643W        W81904  33.396   9.326   0.253
22644W        W81905  24.137   2.312   5.273
22645W        W81906  40.449  29.651  11.502
22646W        W81907  37.014  21.641  13.421
22647W        W81908  37.970  32.096   5.098
22648W        W81909  24.505  32.110   0.302
22649W        W81910  34.042   8.327   3.731
22650W        W81911  33.122   9.350   5.577
22651W        W81912  21.017  12.800  11.884
22652W        W81913   4.893  15.724  12.095
22653W        W81914  23.100  27.506  14.416
22654W        W81915  19.558  27.457  13.987
22655W        W81916  28.114  24.618   3.677
22656W        W81917  19.087  35.067   1.844
22657W        W81918   1.894  44.418   4.744
22658W        W81919  31.123  10.187   4.154
22659W        W81920  27.483  19.620  14.445
22660W        W81921  35.952  29.583  14.458
22661W        W81922   3.282  17.750   1.403
22662W        W81923  12.175  26.584  10.510
22663W        W81924   6.287  33.593   2.274
22664W        W81925  25.605   9.243  13.958
22665W        W81926  42.870  16.753   0.283
22666W        W81927  10.758  43.286  13.428
22667W        W81928   0.881  23.998   3.246
22668W        W81929  17.096  44.813  11.447
22669W        W81930  27.508   6.858  11.508
22670W        W81931  23.608   5.913   2.695
22671W        W81932  22.580  24.086  13.509
22672W        W81933  12.131   7.211  11.033
22673W        W81934  43.928  19.135   4.791
22674W        W81935  25.707  14.102   9.963
22675W        W81936   1.873  24.608   2.284
22676W        W81937  26.082  25.015  13.859
22677W        W81938  41.039  24.683   4.260
22678W        W81939  33.587  28.109  12.506
22679W        W81940   2.263  33.883  13.059
22680W        W81941  32.133   1.946   1.441
22681W        W81942  35.594  39.979  12.396
22682W        W81943  16.105   2.346   0.868
22683W        W81944  35.472  42.805  12.975
22684W        W81945  23.199   6.335   4.225
22685W        W81946  37.938  21.040  11.516
22686W        W81947  16.104  18.693   1.354
22687W        W81948  34.038  11.300  14.345
22688W        W81949  14.731   0.861   3.367
22689W        W81950  34.380  28.155   1.748
22690W        W81951   0.825  44.380   4.306
22691W        W81952  14.184  44.840   0.773
22692W        W81953  17.212   7.863  11.117
22693W        W81954  41.359  21.698  11.598
22694W        W81955  17.211  23.566   2.814
22695W        W81956  36.582  34.113   2.687
22696W        W81957  23.203  17.090  11.570
22697W        W81958   8.744  14.266   5.270
22698W        W81959  27.644   4.748  12.970
22699W        W81960  33.041  22.067  12.946
22700W        W81961  18.219  39.423  12.939
22701W        W81962  44.926  43.511  12.489
22702W        W81963   6.723   9.231   1.312
22703W        W81964   1.744  23.575   4.721
22704W        W81965  39.036  22.678  14.890
22705W        W81966   2.457  32.538   3.857
22706W        W81967   8.297  22.130   3.290
22707W        W81968  32.891  42.895  12.380
22708W        W81969  10.170   9.674  12.994
22709W        W81970  43.469  26.673   2.346
22710W        W81971   5.934  26.621  14.759
22711W        W81972  32.969   5.303  13.006
22712W        W81973  34.046  17.130  13.943
22713W        W81974  27.108  11.716  10.034
22714W        W81975   2.387  18.167  11.476
22715W        W81976   8.753   4.942   1.428
22716W        W81977  40.487  44.386   4.813
22717W        W81978   4.425  16.193  14.975
22718W        W81979  14.721   2.758  11.595
22719W        W81980  15.311  36.891  11.452
22720W        W81981   4.793   2.243   5.233
22721W        W81982  39.866  25.552  12.412
22722W        W81983  17.584  10.758  11.601
22723W        W81984  32.509  19.754  13.917
22724W        W81985  29.113  27.101  12.519
22725W        W81986  22.214  13.303   0.453
22726W        W81987  25.628   9.847   1.773
22727W        W81988  28.650   4.735  11.903
22728W        W81989   6.238  21.696   3.715
22729W        W81990  37.934  27.514   3.230
22730W        W81991  14.167  12.223   1.816
22731W        W81992  25.597  28.519  14.350
22732W        W81993  18.115  26.131   4.158
22733W        W81994  19.676   1.272   0.424
22734W        W81995  32.540  36.997   3.723
22735W        W81996  37.989  44.273   4.769
22736W        W81997   7.797  18.190  11.543
22737W        W81998  36.095  41.802  11.913
22738W        W81999  12.682  35.422   3.159
22739W        W82000  39.904  40.866   3.653
22740W        W82001   7.312  37.927  10.965
22741W        W82002   8.771  35.411  12.973
22742W        W82003   7.367  32.433  14.287
22743W        W82004  21.603   7.303   2.370
22744W        W82005  41.800  37.380  10.487
22745W        W82006  13.612  27.161   2.178
22746W        W82007  24.997  44.416  12.540
22747W        W82008  28.091  29.591  12.364
22748W        W82009  42.795  16.254   1.445
22749W        W82010  36.028   1.917  13.933
22750W        W82011  43.010  31.532   0.245
22751W        W82012  10.285  31.916  12.547
22752W        W82013   1.288  26.105   4.682
22753W        W82014  30.071   8.714  10.917
22754W        W82015  10.170   2.347   3.794
22755W        W82016  41.004  33.031  14.394
22756W        W82017  35.486  21.086   9.967
22757W        W82018  41.343  14.338  12.041
22758W        W82019  23.074   1.340   3.276
22759W        W82020  43.877   6.683   0.343
22760W        W82021  39.413  12.790   0.479
22761W        W82022  20.768  18.075  10.993
22762W        W82023   7.185  40.503  11.434
22763W        W82024  17.107   9.183  12.429
22764W        W82025   6.760  39.380  12.500
22765W        W82026  38.464  32.513  10.065
22766W        W82027  28.066  19.711  12.979
22767W        W82028   6.200  21.108  10.625
22768W        W82029   9.773  16.778   4.175
22769W        W82030   6.198  35.376  10.960
22770W        W82031  39.424  13.226  11.944
22771W        W82032  18.550  32.930  12.408
22772W        W82033  28.047  12.640   0.422
22773W        W82034  34.460  33.504   4.246
22774W        W82035   6.908  31.049   3.257
22775W        W82036   3.767   6.889   3.368
22776W        W82037  10.370  27.480   1.255
22777W        W82038  19.177  44.479   0.476
22778W        W82039   6.784  12.123   2.779
22779W        W82040  25.167   1.356  10.609
22780W        W82041  42.389  42.028  12.375
22781W        W82042   2.237   7.783  14.899
22782W        W82043   0.294  16.146  10.612
22783W        W82044   7.777  33.043  10.412
22784W        W82045  37.441  15.780  11.878
22785W        W82046  38.515  34.524   0.243
22786W        W82047  16.240  15.257  13.310
22787W        W82048  21.530   7.894  14.480
22788W        W82049  37.074  31.475   4.257
22789W        W82050  20.737  20.769  13.874
22790W        W82051  15.620   6.261  10.527
22791W        W82052  31.962   4.871   3.748
22792W        W82053  25.656  33.951  10.517
22793W        W82054  41.010  26.605   3.359
22794W        W82055  26.666   5.435   3.357
22795W        W82056  32.556   6.869  12.406
22796W        W82057  15.621   6.744   0.335
22797W        W82058  23.179  41.021  14.275
22798W        W82059  24.600  44.767  10.950
22799W        W82060  30.933  28.514  13.014
22800W        W82061  19.156  19.092  12.976
22801W        W82062   2.341  15.109  11.896
22802W        W82063   4.238   7.212  14.899
22803W        W82064   4.853  13.152   5.307
22804W        W82065  43.893  19.594   3.679
22805W        W82066   9.267  37.887   4.637
22806W        W82067   5.268   1.754   0.425
22807W        W82068  13.264  17.178  10.159
22808W        W82069  36.994  36.573  11.033
22809W        W82070  40.465  43.839   4.241
22810W        W82071   6.304  31.527  12.436
22811W        W82072  12.122  16.683  13.490
22812W        W82073  41.935  12.357   4.658
22813W        W82074  44.468  38.861   5.147
22814W        W82075  19.661  42.924  10.542
22815W        W82076  32.017  30.453   1.391
22816W        W82077  10.334  33.940  11.929
22817W        W82078  13.794  18.167   4.208
22818W        W82079   3.939  32.110  10.498
22819W        W82080  42.511  38.571  13.398
22820W        W82081  13.790  18.126  12.374
22821W        W82082  36.556  35.107   0.810
22822W        W82083  20.169   2.943   0.856
22823W        W82084  35.429   9.214   0.260
22824W        W82085   9.689  38.013  11.397
22825W        W82086  18.717  18.159  11.920
22826W        W82087  29.096  18.076   1.749
22827W        W82088  11.144  10.633   5.735
22828W        W82089  21.055  31.916   3.230
22829W        W82090  13.277   4.387  13.506
22830W        W82091  17.093  16.602  11.512
22831W        W82092  34.577   7.214  14.320
22832W        W82093  18.088  28.676  12.513
22833W        W82094  11.371  38.428   3.748
22834W        W82095  37.958  21.111   4.773
22835W        W82096  32.589  27.044  10.637
22836W        W82097  24.703  21.745  12.455
22837W        W82098  36.036  30.653  13.865
22838W        W82099  26.953  20.614  14.934
22839W        W82100  23.734  18.600   4.220
22840W        W82101  18.075  12.134  14.785
22841W        W82102   8.258  21.653  10.923
22842W        W82103  34.016  24.203   3.278
22843W        W82104   3.322  43.824  13.324
22844W        W82105  39.473  29.513  12.035
22845W        W82106   5.320  14.173   0.356
22846W        W82107  29.625  38.958  14.908
22847W        W82108  22.124  28.678  10.531
22848W        W82109  19.577  15.328   2.709
22849W        W82110  34.430  22.640   4.123
22850W        W82111  27.514   2.288  12.905
22851W        W82112  11.178  25.118   0.298
22852W        W82113  15.145  27.143   1.308
22853W        W82114  14.159   9.877   3.244
22854W        W82115  24.209  25.521   9.657
22855W        W82116   9.759  36.355   4.804
22856W        W82117  21.538   4.247   0.255
22857W        W82118  17.686  43.942  12.072
22858W        W82119  38.514  33.537   4.820
22859W        W82120  14.719  22.152  12.920
22860W        W82121  13.299  24.109   2.240
22861W        W82122  28.071  21.743   3.665
22862W        W82123  12.138  17.722  12.414
22863W        W82124  43.770  44.382  12.939
22864W        W82125   5.346   7.200   9.956
22865W        W82126  10.227  34.611  10.644
22866W        W82127  29.651  37.011   1.426
22867W        W82128  32.548  17.305   2.276
22868W        W82129  40.485  13.628   3.245
22869W        W82130  30.039  16.686   0.770
22870W        W82131   3.745  13.291  14.416
22871W        W82132   2.470  13.238   0.784
22872W        W82133   5.704   9.731  11.966
22873W        W82134  38.382  41.856   4.779
22874W        W82135  41.027  20.156  13.043
22875W        W82136  14.127  10.806  14.926
22876W        W82137  40.999   3.949   3.821
22877W        W82138  11.865  19.235   3.266
22878W        W82139  21.631  11.225   3.837
22879W        W82140  22.518   6.203   0.773
22880W        W82141  44.868  43.453  10.499
22881W        W82142  35.500  16.178  11.916
22882W        W82143   4.703  27.467   1.394
22883W        W82144  43.934  40.501  13.417
22884W        W82145  10.301  21.047   4.125
22885W        W82146  35.494  32.055  12.421
22886W        W82147  14.205  38.835   0.953
22887W        W82148  40.445  32.448  10.926
22888W        W82149  20.528  11.294   2.321
22889W        W82150  37.067  42.904   3.706
22890W        W82151   4.904  11.249   0.293
22891W        W82152   2.740  30.567   1.294
22892W        W82153   0.421  22.180   4.274
22893W        W82154  12.656  43.315  10.520
22894W        W82155  15.590  16.175  11.978
22895W        W82156  30.086  30.031   3.684
22896W        W82157  25.693  34.890   4.768
22897W        W82158  12.621  19.578   2.190
22898W        W82159  26.595  44.305  13.389
22899W        W82160  24.983  18.764   4.163
22900W        W82161  29.661  18.623   2.355
22901W        W82162   8.199  29.993   0.341
22902W        W82163   6.771   7.326   4.763
22903W        W82164  25.475  36.894  13.372
22904W        W82165  20.118  43.323  12.984
22905W        W82166  16.725  17.236  10.935
22906W        W82167  35.425   0.391  11.055
22907W        W82168  15.643  10.690  13.830
22908W        W82169  35.427  36.052  10.435
22909W        W82170  21.624  24.554   4.654
22910W        W82171  21.628  21.138  10.019
22911W        W82172  32.054  36.359   2.295
22912W        W82173  25.687  24.643   5.637
22913W        W82174  15.097  20.066   3.326
22914W        W82175  34.441  18.238   2.808
22915W        W82176  13.274   5.375   1.748
22916W        W82177   9.736  17.218   9.990
22917W        W82178   1.447   1.807   3.723
22918W        W82179  24.116   8.392  14.801
22919W        W82180  43.781  19.281  14.899
22920W        W82181  36.421  10.169  10.077
22921W        W82182   2.747  37.562  10.443
22922W        W82183  12.824   9.160  10.982
22923W        W82184  22.575  32.138  10.610
22924W        W82185  13.279  32.551   0.830
22925W        W82186  36.079  36.020  10.958
22926W        W82187  33.609   9.337  12.967
22927W        W82188  20.632  28.495  11.506
22928W        W82189   3.241  25.651  10.553
22929W        W82190  24.992  22.594   0.870
22930W        W82191  44.857   7.847  13.307
22931W        W82192  11.349   3.314   3.217
22932W        W82193  43.399  15.696   0.889
22933W        W82194  13.820  19.264   4.340
22934W        W82195   0.347  12.808   4.707
22935W        W82196  38.926  16.273   0.876
22936W        W82197  42.846  41.339  13.867
22937W        W82198  33.470  33.459   3.218
22938W        W82199  36.061  15.207  11.894
22939W        W82200  27.683   3.338   5.169
22940W        W82201  20.166  18.063   3.634
22941W        W82202  11.329  28.951   4.818
22942W        W82203  21.710  36.425  14.327
22943W        W82204   0.422  29.616  13.435
22944W        W82205  10.210   3.356   0.305
22945W        W82206  14.276   7.337   4.260
22946W        W82207   6.323  18.111  12.476
22947W        W82208  33.605  13.823  11.893
22948W        W82209   9.698   0.963  11.449
22949W        W82210  17.234   7.351  13.467
22950W        W82211  29.101  37.496   3.354
22951W        W82212  43.957  15.181   0.823
22952W        W82213  42.319  22.711  12.042
22953W        W82214  16.787  21.142  13.846
22954W        W82215  38.970  25.593  13.470
22955W        W82216  15.116  14.718  13.869
22956W        W82217  34.866  41.428  12.381
22957W        W82218   6.206  37.910  10.427
22958W        W82219  17.584   5.717   3.241
22959W        W82220  17.257  26.477   5.170
22960W        W82221  41.492  41.450   1.759
22961W        W82222  30.643  28.594   0.915
22962W        W82223  22.634  24.660   2.666
22963W        W82224  42.817  21.548   0.305
22964W        W82225   5.405  25.023  13.058
22965W        W82226  10.669  32.536  11.100
22966W        W82227  39.015   5.862  10.084
22967W        W82228  33.093  16.182  10.982
22968W        W82229  26.471  29.623  11.552
22969W        W82230  11.209   2.280   1.229
22970W        W82231  15.791   7.235  10.492
22971W        W82232   6.905  13.227  12.894
22972W        W82233  34.893   2.928   1.285
22973W        W82234   0.942  16.653   3.778
22974W        W82235  41.413   2.252  12.444
22975W        W82236  15.174   7.715   4.680
22976W        W82237  18.113  23.209  11.929
22977W        W82238  38.042   1.959   1.274
22978W        W82239   3.811   6.204   3.194
22979W        W82240  17.773  38.934  12.943
22980W        W82241  17.137  34.040  13.793
22981W        W82242   4.863  11.255   0.868
22982W        W82243  34.078  18.135  12.000
22983W        W82244   6.356  14.681  14.769
22984W        W82245  20.036   4.840   1.374
22985W        W82246   9.788  41.796  10.576
22986W        W82247   8.812  13.162   4.140
22987W        W82248   9.837  39.887   3.322
22988W        W82249  29.032  39.451  10.553
22989W        W82250  39.015  18.058  10.072
22990W        W82251  26.665  24.555  11.572
22991W        W82252   9.224  18.119   5.139
22992W        W82253   7.681  33.882  14.286
22993W        W82254  32.628  19.618  14.308
22994W        W82255  10.239  32.521   2.214
22995W        W82256  10.802  40.450  11.504
22996W        W82257  39.379  38.525   4.260
22997W        W82258  36.538  18.704  10.988
22998W        W82259  30.009  43.805   1.903
22999W        W82260  16.589  34.922   1.924
23000W        W82261  32.562  14.733   5.093
23001W        W82262   1.898  32.430   4.625
23002W        W82263  24.192   0.955   0.857
23003W        W82264  27.945  29.118  10.112
23004W        W82265   2.799  10.810   1.727
23005W        W82266  33.625  19.567  12.844
23006W        W82267  41.793   4.310   1.428
23007W        W82268  22.513  20.197   1.323
23008W        W82269  25.105  44.481  13.483
23009W        W82270  12.267  12.349   4.670
23010W        W82271   1.820  23.671  11.020
23011W        W82272  27.647  33.029   5.289
23012W        W82273  43.913  41.834  10.602
23013W        W82274  19.774   1.739  11.856
23014W        W82275  10.747  17.243   4.654
23015W        W82276   0.847  19.207  12.057
23016W        W82277  36.473  23.092  14.842
23017W        W82278  36.417  16.085   0.817
23018W        W82279   7.855  19.210  10.988
23019W        W82280  10.153  41.817   1.380
23020W        W82281   1.911  40.928  14.422
23021W        W82282  30.654  24.570   1.286
23022W        W82283  11.756  34.551  10.429
23023W        W82284  14.603  38.972  13.797
23024W        W82285  19.273  43.940  11.124
23025W        W82286  40.482  30.639  14.923
23026W        W82287  24.167   9.320  11.872
23027W        W82288  39.843  19.746   1.426
23028W        W82289  12.667  28.612   2.867
23029W        W82290  29.075  33.984   2.205
23030W        W82291   8.818   1.831   4.735
23031W        W82292  30.929  24.690  12.527
23032W        W82293  17.144  10.304  11.559
23033W        W82294  27.591  18.605  13.039
23034W        W82295  29.001  17.681  13.944
23035W        W82296  12.655  27.615   1.812
23036W        W82297  36.845  13.254  10.586
23037W        W82298  10.301  25.996  12.397
23038W        W82299  27.186  16.252  13.529
23039W        W82300  35.970  21.195  10.617
23040W        W82301  24.133  29.668   2.210
23041W        W82302  33.005  35.394  10.562
23042W        W82303   6.751  30.546   0.286
23043W        W82304  39.970   1.317  12.444
23044W        W82305   1.740  16.802   3.158
23045W        W82306  11.198  31.023   4.729
23046W        W82307  18.709  21.041   2.761
23047W        W82308   5.289  33.564  11.393
23048W        W82309  34.111   0.402  12.559
23049W        W82310  23.580   2.847   0.365
23050W        W82311  24.150  43.931  14.959
23051W        W82312  22.506  38.898   1.847
23052W        W82313   6.755  39.822   0.348
23053W        W82314  22.739  24.174  11.090
23054W        W82315  44.827  20.183  13.981
23055W        W82316   3.828   4.362  12.010
23056W        W82317  36.044   1.343   1.300
23057W        W82318  26.114   4.314  12.920
23058W        W82319   0.825  41.398   3.360
23059W        W82320   1.383  16.123   3.343
23060W        W82321  32.101  35.559   5.623
23061W        W82322  19.658  42.960   4.300
23062W        W82323  36.900  24.155  11.512
23063W        W82324  37.518  31.637  14.378
23064W        W82325   9.234  22.641   4.736
23065W        W82326  17.143   1.878  10.032
23066W        W82327  18.156  39.374   2.682
23067W        W82328  20.145  25.016  14.826
23068W        W82329  18.161  38.382   2.361
23069W        W82330   1.345  43.513   0.876
23070W        W82331  42.364  25.647  10.944
23071W        W82332   0.771  30.910  11.863
23072W        W82333  26.995  44.988  10.635
23073W        W82334  28.466  34.497  11.372
23074W        W82335  36.055  31.521  11.378
23075W        W82336  31.639   8.822  11.420
23076W        W82337  34.470  39.389  10.547
23077W        W82338  23.588  14.600   0.404
23078W        W82339  16.161   7.248  11.998
23079W        W82340  12.241   5.216  10.422
23080W        W82341  25.623   2.396  14.975
23081W        W82342  24.512  14.800  14.916
23082W        W82343   2.829  44.958  11.399
23083W        W82344  34.542   1.450   2.376
23084W        W82345  30.467  18.118   4.690
23085W        W82346  38.410  14.220  14.853
23086W        W82347   1.846  28.177   4.157
23087W        W82348  24.620   6.891   2.269
23088W        W82349  34.940  34.891  14.356
23089W        W82350  10.175  36.060   4.639
23090W        W82351   3.894  40.890   4.178
23091W        W82352   7.330  35.091  13.395
23092W        W82353  13.298   6.864   2.698
23093W        W82354  32.897  35.972  11.894
23094W        W82355  21.123  10.263  12.051
23095W        W82356  13.218  37.536  13.477
23096W        W82357   8.343  32.618  13.798
23097W        W82358   1.405  42.915   2.400
23098W        W82359  18.585  38.846   0.365
23099W        W82360  26.114  11.778  14.370
23100W        W82361  36.494   2.805   0.840
23101W        W82362   3.903  39.019  11.864
23102W        W82363   3.380  18.642  14.512
23103W        W82364  40.495   3.311   1.277
23104W        W82365  28.128  29.583  13.425
23105W        W82366  18.552  30.924  11.445
23106W        W82367  43.901   3.379   5.097
23107W        W82368  26.158  22.575  14.824
23108W        W82369  18.739  24.079  13.872
23109W        W82370  31.999  22.210  14.364
23110W        W82371  29.449  32.610  13.512
23111W        W82372  30.080  35.398   2.866
23112W        W82373  11.817  10.718  10.977
23113W        W82374  15.787   1.424   3.163
23114W        W82375   8.656  21.163  12.431
23115W        W82376  35.564  20.147  10.543
23116W        W82377  17.556  32.075   0.875
23117W        W82378  41.321  43.771  13.041
23118W        W82379  35.440   9.832  12.572
23119W        W82380   2.759  33.586  11.017
23120W        W82381  32.889  32.444  11.479
23121W        W82382  38.062  19.199   3.834
23122W        W82383  44.923  43.790   2.784
23123W        W82384  29.154  31.148  14.969
23124W        W82385  30.094  32.972   5.646
23125W        W82386  19.059  30.067   3.660
23126W        W82387  34.552  12.638   3.293
23127W        W82388  15.807  21.183  10.903
23128W        W82389   3.442  17.204  14.779
23129W        W82390  43.958  26.965   2.662
23130W        W82391  33.574  29.146   2.892
23131W        W82392   0.254  30.617  12.082
23132W        W82393  21.127   3.753  12.990
23133W        W82394  44.346  43.933   2.217
23134W        W82395  32.988   8.253   9.566
23135W        W82396  34.507  35.580  12.386
23136W        W82397  20.702  43.477  11.059
23137W        W82398   3.944  22.136   1.276
23138W        W82399  21.108  37.450   2.814
23139W        W82400   2.462  12.715  10.643
23140W        W82401  33.547  22.536   2.412
23141W        W82402  42.778  26.967   1.803
23142W        W82403  30.046  11.212   3.726
23143W        W82404   3.345  27.654  10.961
23144W        W82405   8.365  12.132  12.007
23145W        W82406   6.408  32.609  13.449
23146W        W82407  29.432  27.556   0.909
23147W        W82408  18.686  21.255   0.784
23148W        W82409   8.780  12.618   3.386
23149W        W82410  29.667  41.993   4.355
23150W        W82411   6.918  18.096   2.790
23151W        W82412  12.813  10.846  14.499
23152W        W82413  27.115  34.004  14.413
23153W        W82414  25.636  11.736   1.704
23154W        W82415   7.773  23.206  11.983
23155W        W82416   9.872  28.127  11.075
23156W        W82417   6.355  28.544   3.786
23157W        W82418  28.068  20.150   2.881
23158W        W82419  39.324  15.819  14.762
23159W        W82420   0.977  17.173   5.251
23160W        W82421  14.668  41.369   3.829
23161W        W82422  10.148  37.868  14.018
23162W        W82423   9.347   9.365  11.579
23163W        W82424  18.178   3.780   0.798
23164W        W82425   7.330  28.138  14.913
23165W        W82426   5.221  40.512   0.898
23166W        W82427  35.929  10.339   0.837
23167W        W82428   6.217   6.333  12.573
23168W        W82429  31.081   0.785  10.639
23169W        W82430  29.061   7.277   1.775
23170W        W82431  26.634  22.675  10.492
23171W        W82432  43.835  20.259   2.884
23172W        W82433  19.673   3.862  13.874
23173W        W82434  44.947  14.714  12.947
23174W        W82435  23.089  25.067   2.268
23175W        W82436   9.363  41.361  11.088
23176W        W82437   6.356  10.844  12.905
23177W        W82438   8.187  37.347  11.585
23178W        W82439  36.444  23.053   2.416
23179W        W82440   3.890   9.277   2.221
23180W        W82441   4.322  12.629   2.802
23181W        W82442  24.640  35.378  12.056
23182W        W82443  19.100  11.246   1.795
23183W        W82444  36.384  35.593   0.258
23184W        W82445  21.163   2.892   3.837
23185W        W82446   7.331   2.857  10.990
23186W        W82447  28.662  32.946  13.409
23187W        W82448   3.242  32.570   1.771
23188W        W82449  44.339  16.696   3.203
23189W        W82450  34.511   3.415  10.963
23190W        W82451  32.515  12.768   3.372
23191W        W82452  16.285  33.383  14.906
23192W        W82453  31.974  21.087  14.817
23193W        W82454  20.701  38.036  11.405
23194W        W82455  43.982  11.309  12.856
23195W        W82456  17.243  42.495  14.886
23196W        W82457   2.267   8.800  11.085
23197W        W82458  24.216   2.388  13.846
23198W        W82459   8.342  11.671   2.665
23199W        W82460  32.525  35.001   3.334
23200W        W82461  37.959  27.673  13.317
23201W        W82462  19.114  36.364   2.731
23202W        W82463  18.239  33.056   4.342
23203W        W82464  19.692  41.323  12.416
23204W        W82465  26.577  38.900   2.759
23205W        W82466  14.747  41.485  14.962
23206W        W82467  31.570  22.611  10.947
23207W        W82468  26.570  11.802  14.448
23208W        W82469  23.626   7.747   2.822
23209W        W82470  41.958   7.841   4.706
23210W        W82471   6.875  10.192  13.035
23211W        W82472  38.532  39.893  13.842
23212W        W82473  37.342  43.344   4.610
23213W        W82474  26.123  19.757  14.818
23214W        W82475  23.096  33.530   4.199
23215W        W82476  28.447  11.305  14.998
23216W        W82477  39.907  35.013  14.992
23217W        W82478  14.792  10.146  13.013
23218W        W82479  25.633  35.993   2.735
23219W        W82480  29.428  21.240   4.789
23220W        W82481  35.415  10.176  14.296
23221W        W82482  20.581  31.905  12.845
23222W        W82483   2.330   4.800  14.810
23223W        W82484   3.789  28.664  13.850
23224W        W82485  42.917  40.517  11.494
23225W        W82486   7.666  19.680   0.387
23226W        W82487   3.384  18.172  12.956
23227W        W82488   8.299  32.970  11.427
23228W        W82489  21.257  10.271  11.401
23229W        W82490  19.256  42.812   1.721
23230W        W82491   2.799   5.312  12.347
23231W        W82492  36.369   8.213  12.908
23232W        W82493  34.466   2.365  13.513
23233W        W82494   5.766  15.816  13.850
23234W        W82495  32.905  17.757   1.810
23235W        W82496   4.711  36.854   2.735
23236W        W82497  15.596  24.495  11.434
23237W        W82498  30.631   0.760  13.998
23238W        W82499  31.076  33.451  11.857
23239W        W82500   7.831  21.606  13.392
23240W        W82501   0.357  38.852   3.220
23241W        W82502  27.549  23.166   0.950
23242W        W82503  16.811   6.203  11.564
23243W        W82504  40.831  14.602   0.768
23244W        W82505   8.668   0.817   3.337
23245W        W82506  21.132  27.143   2.245
23246W        W82507  28.487  26.088   3.786
23247W        W82508  19.173   7.666   0.438
23248W        W82509  10.138   7.849   1.357
23249W        W82510  31.502  21.625  13.916
23250W        W82511  43.446  35.461   0.961
23251W        W82512  13.272  12.774  12.976
23252W        W82513   5.213  20.195  14.013
23253W        W82514   4.424   7.254  10.098
23254W        W82515  14.174  44.987   4.757
23255W        W82516  17.110  11.698  13.966
23256W        W82517  18.130  33.933  13.009
23257W        W82518  19.065  17.784   4.738
23258W        W82519  31.008  42.847   4.674
23259W        W82520   8.807  16.188   0.249
23260W        W82521  11.277   7.729  12.076
23261W        W82522  39.435  27.462   3.246
23262W        W82523  31.634  29.926  10.412
23263W        W82524  18.587  14.671   0.406
23264W        W82525  18.760  34.020  14.304
23265W        W82526   2.337  30.157   2.782
23266W        W82527  40.328  44.969   1.739
23267W        W82528  22.226  31.530  11.503
23268W        W82529  19.576   5.232   4.667
23269W        W82530  44.940   2.329   1.741
23270W        W82531  12.684  39.813   4.749
23271W        W82532  17.201   9.286   2.366
23272W        W82533  19.601   2.386  10.405
23273W        W82534   1.760  23.594  11.986
23274W        W82535  38.523   4.893   4.343
23275W        W82536   0.934  26.082   2.828
23276W        W82537  38.944  16.176  12.510
23277W        W82538  32.611  37.027  11.537
23278W        W82539   7.871  37.872   3.644
23279W        W82540   0.365  43.903  11.097
23280W        W82541   0.422   2.866   2.394
23281W        W82542  11.197  28.022   1.216
23282W        W82543   0.972  38.339   3.830
23283W        W82544   6.317  28.954  10.443
23284W        W82545  41.978  30.531  13.946
23285W        W82546  29.495  41.946  13.308
23286W        W82547  33.484  33.503  11.059
23287W        W82548   1.910  16.695  13.336
23288W        W82549  39.828   3.870  14.769
23289W        W82550  13.618  36.945  10.967
23290W        W82551  37.886  26.132  11.391
23291W        W82552  38.389  27.451   3.789
23292W        W82553  35.999   1.912  12.957
23293W        W82554  31.562  26.101   1.371
23294W        W82555  39.051  13.129   3.739
23295W        W82556   6.231  14.601   2.788
23296W        W82557  16.280  12.237  10.481
23297W        W82558  35.088  12.116   5.269
23298W        W82559  30.641  42.310   0.429
23299W        W82560  11.684  37.002  12.003
23300W        W82561  13.246  37.969  13.388
23301W        W82562  25.534   1.320  13.966
23302W        W82563  19.132  29.670  10.110
23303W        W82564  43.788   5.819  10.421
23304W        W82565   0.369  30.462   1.347
23305W        W82566  23.568  43.408  11.033
23306W        W82567  40.940   8.683  10.973
23307W        W82568  29.114   5.717   2.348
23308W        W82569  43.398  31.413   4.260
23309W        W82570  32.022  29.618  11.004
23310W        W82571   3.821  21.030   4.801
23311W        W82572  35.871  21.590  14.312
23312W        W82573  34.033   6.804  11.871
23313W        W82574  32.446   0.984  14.765
23314W        W82575  25.687   6.380   1.350
23315W        W82576  37.924  26.051   1.916
23316W        W82577  31.017  15.308   4.123
23317W        W82578  31.013  44.923   2.237
23318W        W82579  23.126  39.345  11.954
23319W        W82580  42.943  24.217   3.734
23320W        W82581   7.831  33.945   4.712
23321W        W82582  22.077  29.600  10.522
23322W        W82583  30.073  27.097   0.838
23323W        W82584  27.965   1.281   1.709
23324W        W82585  33.540  28.652  13.815
23325W        W82586   5.904  13.793   1.774
23326W        W82587  34.391  40.545   1.932
23327W        W82588  25.023  35.594  12.562
23328W        W82589  27.123  39.845   2.224
23329W        W82590  19.613  26.474   0.440
23330W        W82591  36.878  37.499  10.951
23331W        W82592  30.015  13.326   2.737
23332W        W82593  18.736   8.728  13.889
23333W        W82594  19.779  22.061   5.184
23334W        W82595  20.535  44.823   0.882
23335W        W82596  30.433  14.189   4.269
23336W        W82597  44.958  24.675   2.786
23337W        W82598   2.791   0.335  11.437
23338W        W82599  19.570   9.765   3.662
23339W        W82600  38.990   4.788  14.766
23340W        W82601  36.938  36.042  14.876
23341W        W82602  33.511  24.009   0.768
23342W        W82603  31.132  20.595   3.250
23343W        W82604  35.450  25.485   4.689
23344W        W82605  17.114  26.096  12.085
23345W        W82606  15.597  10.734   0.879
23346W        W82607  34.961   9.707  11.108
23347W        W82608  29.979  17.665  14.023
23348W        W82609  18.189  10.652  12.001
23349W        W82610  22.712   7.282   5.292
23350W        W82611   9.726   7.309  11.923
23351W        W82612  36.376  28.016   0.311
23352W        W82613  34.390  13.136  14.766
23353W        W82614  31.472  36.513   4.335
23354W        W82615  31.493   2.722   4.761
23355W        W82616  24.529  30.443  12.923
23356W        W82617   2.462  31.032  11.968
23357W        W82618  34.948  20.691  12.476
23358W        W82619  44.972  37.386   0.412
23359W        W82620  23.518  23.590   5.572
23360W        W82621  22.736   1.455  13.517
23361W        W82622  20.613  28.130  14.498
23362W        W82623  24.172  18.239  10.986
23363W        W82624  27.173  17.576   0.823
23364W        W82625  19.681  12.245  10.609
23365W        W82626  33.453  26.053   3.663
23366W        W82627   9.670  13.839   1.220
23367W        W82628  33.396   1.815  12.836
23368W        W82629  39.046  15.744   9.982
23369W        W82630  35.602  42.446   0.250
23370W        W82631  37.383  30.617   0.450
23371W        W82632  27.564  42.290   1.220
23372W        W82633  10.369  40.963   0.727
23373W        W82634  41.959   7.758  12.988
23374W        W82635  14.769  18.768   4.803
23375W        W82636  25.682   8.215   2.731
23376W        W82637  43.842  10.366  13.850
23377W        W82638   6.238  38.364  11.606
23378W        W82639  41.007  24.126  10.954
23379W        W82640   3.783   2.733  12.828
23380W        W82641  13.784   3.415   2.872
23381W        W82642  34.866   0.893  14.897
23382W        W82643  20.097  10.260  10.148
23383W        W82644  29.919  28.631   0.467
23384W        W82645  20.086  12.266  11.981
23385W        W82646  33.412  17.163   0.477
23386W        W82647  10.345  10.683   0.373
23387W        W82648  33.927  10.810   9.973
23388W        W82649  19.229  13.607   4.751
23389W        W82650  29.642  41.298  14.972
23390W        W82651  27.984  18.177  10.028
23391W        W82652  22.701  34.412   2.855
23392W        W82653  36.431  40.340   1.296
23393W        W82654   5.869  12.270   3.664
23394W        W82655  28.972   6.801   4.281
23395W        W82656  15.237   3.885  13.936
23396W        W82657  41.026  10.167   2.668
23397W        W82658  35.941  11.846   2.306
23398W        W82659  27.623  26.579   2.216
23399W        W82660  21.656  24.016   2.709
23400W        W82661  10.801  23.641  11.490
23401W        W82662  43.805  26.046   2.798
23402W        W82663  16.684  35.502  14.388
23403W        W82664  10.332  42.384  10.606
23404W        W82665   6.410  29.427  10.921
23405W        W82666  43.988  27.487   4.181
23406W        W82667  28.169  32.902   4.322
23407W        W82668  18.661  16.755  11.417
23408W        W82669  29.972   9.239  13.865
23409W        W82670  17.784  20.193   0.261
23410W        W82671   4.411  27.070   1.809
23411W        W82672  20.066   8.877   1.916
23412W        W82673  23.561  26.690   2.783
23413W        W82674  22.651  13.309   3.642
23414W        W82675  24.654  22.213   1.328
23415W        W82676   1.360  43.330  11.994
23416W        W82677  37.008  25.168   3.634
23417W        W82678  21.746  24.129   3.332
23418W        W82679  42.482  15.622   0.317
23419W        W82680   8.239  18.109   3.723
23420W        W82681  13.320  30.109   0.794
23421W        W82682  18.270  27.173   1.886
23422W        W82683  25.708  26.539  10.517
23423W        W82684  42.866  17.593  12.972
23424W        W82685  32.439  43.772  14.994
23425W        W82686  20.188  13.659  13.042
23426W        W82687  31.485  13.836  11.535
23427W        W82688  19.547  28.488  13.416
23428W        W82689   2.419   3.367  12.489
23429W        W82690  11.367  42.368  12.021
23430W        W82691   7.687  30.630  12.012
23431W        W82692  41.989  36.876   1.892
23432W        W82693  17.124  36.941   3.245
23433W        W82694  34.393  31.648  11.585
23434W        W82695  14.250   3.947  12.942
23435W        W82696  10.717  14.663  13.886
23436W        W82697  39.964  11.748   2.335
23437W        W82698  16.769  19.702   9.595
23438W        W82699   0.303  27.954   3.234
23439W        W82700  14.702   8.891  14.361
23440W        W82701  22.547   9.700   4.837
23441W        W82702  22.705  26.158   4.726
23442W        W82703   5.413  39.461   4.613
23443W        W82704  36.455  43.797  11.936
23444W        W82705   1.408  17.768   3.277
23445W        W82706  35.464  14.705  12.083
23446W        W82707   4.780   6.326   3.169
23447W        W82708  41.517  44.839  13.445
23448W        W82709  44.463  44.390  10.502
23449W        W82710   4.815  13.731  10.915
23450W        W82711  42.322  20.664   0.477
23451W        W82712  42.416  26.965   0.885
23452W        W82713  21.557  35.447   4.791
23453W        W82714  21.174  44.870  11.486
23454W        W82715  25.967   0.445  11.551
23455W        W82716  27.598   6.892  10.596
23456W        W82717  28.436  18.661  13.967
23457W        W82718   1.308  30.009  11.534
23458W        W82719  37.991  16.675  11.501
23459W        W82720  35.369  40.500   0.795
23460W        W82721  40.523  32.886  14.389
23461W        W82722   4.871  24.221  12.906
23462W        W82723  35.933   6.761  11.550
23463W        W82724  37.370  41.836   3.191
23464W        W82725  11.635  34.922  11.434
23465W        W82726   5.886  11.833   3.783
23466W        W82727  13.657  17.652   0.781
23467W        W82728  36.026  30.425  11.966
23468W        W82729  38.886  23.105   0.467
23469W        W82730  43.890  28.594  12.867
23470W        W82731  39.425   2.298  11.497
23471W        W82732  15.248  44.338  14.507
23472W        W82733  35.507  31.560  11.096
23473W        W82734   5.333  37.044   2.747
23474W        W82735  19.678  31.977  10.459
23475W        W82736  19.605  29.978   2.836
23476W        W82737  21.146   0.797  13.799
23477W        W82738   8.167   3.230  11.098
23478W        W82739  32.477  20.263   2.713
23479W        W82740  36.846  30.053  14.943
23480W        W82741  27.069  25.203  13.988
23481W        W82742  24.091  36.432   2.222
23482W        W82743  10.723  21.239   0.402
23483W        W82744  10.792  12.629   2.384
23484W        W82745  33.477  34.972  11.016
23485W        W82746  33.585  10.345  11.077
23486W        W82747  32.926  11.792   3.268
23487W        W82748  20.075  40.535   3.806
23488W        W82749   8.672   2.335  13.854
23489W        W82750  41.847  40.360   2.242
23490W        W82751  12.843  29.521  12.351
23491W        W82752  39.525  40.955   0.462
23492W        W82753  18.656   3.836  10.517
23493W        W82754  39.316   0.302  10.480
23494W        W82755  43.973  35.900   0.739
23495W        W82756  37.864   9.182  13.008
23496W        W82757   7.363  16.616  14.025
23497W        W82758   2.911  30.136  13.979
23498W        W82759  17.688  17.662   1.737
23499W        W82760  21.561   2.781   3.186
23500W        W82761  44.270  42.957  11.861
23501W        W82762  38.358   8.800  12.866
23502W        W82763  20.739  33.897   4.169
23503W        W82764  26.597  18.133   0.820
23504W        W82765  39.851  29.550  10.589
23505W        W82766  18.726  44.005   2.794
23506W        W82767  17.117   7.770   0.256
23507W        W82768  18.117  21.205  11.900
23508W        W82769  17.262  25.697  10.072
23509W        W82770  29.041  24.536   2.702
23510W        W82771  36.931  40.409   3.716
23511W        W82772  20.258  35.062   4.130
23512W        W82773  44.864  17.221   2.689
23513W        W82774  28.057  35.085   0.787
23514W        W82775  10.215   3.889   0.766
23515W        W82776   5.916  26.550  14.507
23516W        W82777   1.911  17.167  14.377
23517W        W82778  14.192  21.028  10.429
23518W        W82779   4.238  34.518   2.261
23519W        W82780  18.589  28.096  12.573
23520W        W82781  20.221  18.205   0.865
23521W        W82782  33.973  22.093   0.862
23522W        W82783   7.305  42.775   5.107
23523W        W82784  42.934  31.012  14.455
23524W        W82785  35.089  10.274   3.707
23525W        W82786  41.374  22.585   1.864
23526W        W82787   9.756   0.828  10.966
23527W        W82788  13.640  25.096   4.732
23528W        W82789  19.643  35.534  11.405
23529W        W82790  41.927  30.433   3.842
23530W        W82791  22.647  38.875   2.877
23531W        W82792  10.632  34.454  11.983
23532W        W82793  21.689  17.086   0.435
23533W        W82794  11.844  23.572  11.470
23534W        W82795   0.875  43.867   3.829
23535W        W82796  19.216  14.192   4.268
23536W        W82797  27.033  37.864  12.823
23537W        W82798  17.612  32.940  11.384
23538W        W82799  25.672  38.997   4.663
23539W        W82800   0.925  30.457   1.235
23540W        W82801  30.970  18.092   2.727
23541W        W82802  31.112   0.308  13.045
23542W        W82803  44.444  30.512   1.737
23543W        W82804  37.060  42.486   9.554
23544W        W82805  22.641   7.676   0.934
23545W        W82806   7.903  11.819  11.463
23546W        W82807  31.941   9.287   1.390
23547W        W82808  14.793  22.039  14.509
23548W        W82809  37.534  43.371  11.109
23549W        W82810  23.071  36.530  12.393
23550W        W82811  19.724  23.734   5.643
23551W        W82812  15.105  20.540   0.333
23552W        W82813  30.445  41.311   3.257
23553W        W82814  37.859   9.870  11.020
23554W        W82815   0.819  38.048   3.765
23555W        W82816  23.147  27.974  12.386
23556W        W82817  36.486  11.753   1.214
23557W        W82818  26.476  33.488   3.316
23558W        W82819   4.931  42.501   1.280
23559W        W82820  22.170  29.462   4.230
23560W        W82821  23.200  18.609   3.687
23561W        W82822  11.309   6.309   0.350
23562W        W82823  22.030  22.689   2.799
23563W        W82824  20.081   6.210   5.171
23564W        W82825   9.718  27.014  13.002
23565W        W82826   4.698  18.197   0.945
23566W        W82827  31.565  10.211   3.205
23567W        W82828  44.387  37.483   4.152
23568W        W82829  11.129   8.850   3.297
23569W        W82830  22.234  41.343   2.299
23570W        W82831  22.026  16.226  11.531
23571W        W82832  13.212  14.135  14.841
23572W        W82833  33.618   6.337   2.740
23573W        W82834  16.721  19.193   0.349
23574W        W82835  28.176  32.528   1.407
23575W        W82836  29.998   4.335   0.726
23576W        W82837  34.992  13.171   2.821
23577W        W82838   0.345   5.750   2.343
23578W        W82839  36.558  24.708   2.843
23579W        W82840  42.816  34.999   5.239
23580W        W82841  32.998   5.733  11.551
23581W        W82842  15.129   0.449   0.849
23582W        W82843   6.765   3.855  14.780
23583W        W82844  10.844   6.786   2.840
23584W        W82845  13.641  28.450  11.452
23585W        W82846  38.013   3.756   4.831
23586W        W82847  29.130  42.860  12.525
23587W        W82848  39.967  10.824   0.411
23588W        W82849   2.855  42.520  12.963
23589W        W82850  26.514  34.022   3.344
23590W        W82851  24.986  16.753  13.971
23591W        W82852  43.849  43.436   2.262
23592W        W82853  20.266  11.257  14.388
23593W        W82854  10.721  28.999   3.840
23594W        W82855  24.110  44.768  14.866
23595W        W82856  29.029  38.439  10.549
23596W        W82857  38.493  20.737  13.972
23597W        W82858  29.602  43.867  12.890
23598W        W82859  38.456  20.706   0.448
23599W        W82860  36.370  44.810   2.894
23600W        W82861  34.448  20.732  14.445
23601W        W82862   5.259  19.050  10.908
23602W        W82863   8.404   5.801   9.933
23603W        W82864   6.888  26.159  13.368
23604W        W82865  20.746  14.666   4.717
23605W        W82866  25.158  37.932   1.250
23606W        W82867  35.884  42.358  14.873
23607W        W82868   2.278  30.074  14.017
23608W        W82869  12.168  25.613   1.431
23609W        W82870  43.915  42.328   0.450
23610W        W82871  32.990  43.857   4.305
23611W        W82872  39.947   4.275  10.503
23612W        W82873  32.467  28.966   3.340
23613W        W82874  29.134  15.112   2.834
23614W        W82875  37.841  32.954   1.234
23615W        W82876  41.952  18.089   4.709
23616W        W82877  14.159  10.347   0.897
23617W        W82878  32.571  44.816  14.506
23618W        W82879  12.840  15.237   3.205
23619W        W82880   8.749  34.455   3.374
23620W        W82881  34.497  18.276   1.225
23621W        W82882   4.768  26.553  14.307
23622W        W82883  11.758   8.371  13.982
23623W        W82884  17.744  16.648  10.455
23624W        W82885  19.131  23.730   1.241
23625W        W82886  43.937   2.235  10.494
23626W        W82887  36.422  27.118  10.428
23627W        W82888  26.467  30.608   4.765
23628W        W82889  33.443  39.508   3.749
23629W        W82890  38.348  33.100  12.435
23630W        W82891   0.928  31.126  10.501
23631W        W82892  17.065  34.445   1.726
23632W        W82893  26.114  14.761  12.339
23633W        W82894  25.660  33.936   4.611
23634W        W82895   4.430  20.682  12.994
23635W        W82896   9.390  15.321   3.184
23636W        W82897   8.350  12.740   1.305
23637W        W82898  18.652  35.584   2.841
23638W        W82899  11.769  38.562   1.355
23639W        W82900  41.032  10.837  14.779
23640W        W82901  26.548  25.603   2.418
23641W        W82902   5.890  27.459  14.896
23642W        W82903  34.927  41.306   1.295
23643W        W82904  13.234  21.533   1.878
23644W        W82905  39.002  44.827  12.524
23645W        W82906  41.016  14.240   5.127
23646W        W82907  34.981  14.754   1.908
23647W        W82908  16.309  32.996   9.593
23648W        W82909  43.803   6.836  13.362
23649W        W82910  24.133   6.789   4.243
23650W        W82911  19.267   0.382   1.277
23651W        W82912   6.279  26.153  11.384
23652W        W82913   0.905  39.916  12.439
23653W        W82914  40.477  15.601  12.869
23654W        W82915  14.312  42.333  11.056
23655W        W82916  22.120  16.163  14.412
23656W        W82917  36.915  17.790  14.389
23657W        W82918  30.140  34.961  11.519
23658W        W82919  18.584   5.201  14.809
23659W        W82920  19.601  17.629   0.938
23660W        W82921  42.414   2.933   4.349
23661W        W82922  11.648   8.323   1.383
23662W        W82923  16.115  36.018   1.338
23663W        W82924  20.193   9.864  11.034
23664W        W82925   8.257  24.636  12.832
23665W        W82926   8.842  44.798  14.760
23666W        W82927  13.339  34.919  11.418
23667W        W82928  24.147  12.179  10.419
23668W        W82929  14.163  14.683   0.420
23669W        W82930  22.049  42.475  14.877
23670W        W82931  41.321  22.717   1.409
23671W        W82932  33.437   8.318   2.766
23672W        W82933  29.090   6.810   4.778
23673W        W82934  31.600  10.872  12.569
23674W        W82935  20.250  25.072   4.791
23675W        W82936  41.321  14.777   3.649
23676W        W82937  42.484  15.740  14.875
23677W        W82938   9.887  40.933  14.835
23678W        W82939  38.492   0.816  14.987
23679W        W82940  13.643  44.960  14.936
23680W        W82941   1.285  14.224  12.925
23681W        W82942  12.653  27.581  13.348
23682W        W82943  23.144  24.103  11.413
23683W        W82944  26.173  26.053  14.430
23684W        W82945  27.049  23.109   2.231
23685W        W82946  40.952  32.139   1.874
23686W        W82947  41.874   4.931  12.390
23687W        W82948  22.132  11.340   3.328
23688W        W82949  23.057  18.194   0.378
23689W        W82950  13.284   1.482  10.607
23690W        W82951  37.884  20.729  14.359
23691W        W82952  21.650  28.545  10.463
23692W        W82953  13.612  36.419  11.984
23693W        W82954  35.108  37.465  12.393
23694W        W82955  19.612   4.341   0.256
23695W        W82956   1.811  30.415   2.844
23696W        W82957  38.463  19.097   2.181
23697W        W82958  16.699  36.530  14.510
23698W        W82959  23.004  27.644  12.371
23699W        W82960   3.926   9.802  14.379
23700W        W82961   9.325  13.707  14.966
23701W        W82962  15.704   3.343   3.668
23702W        W82963  41.523  14.305  14.327
23703W        W82964  36.514  33.512   4.155
23704W        W82965  37.556  16.626   1.720
23705W        W82966   8.765   9.297   1.762
23706W        W82967  22.059  17.710   3.216
23707W        W82968  20.093  19.233  11.518
23708W        W82969  18.692   3.421   5.217
23709W        W82970   0.939  15.227   2.398
23710W        W82971  31.574  40.521   3.190
23711W        W82972  34.368  24.489   4.336
23712W        W82973  18.710   0.373  10.044
23713W        W82974  13.830  37.838  12.855
23714W        W82975  42.936  13.175  14.779
23715W        W82976   7.302  18.702   1.746
23716W        W82977  25.565  13.694  12.089
23717W        W82978  25.022  22.203   0.848
23718W        W82979  14.267  30.584  14.794
23719W        W82980  14.202  24.225  13.999
23720W        W82981  26.519  41.829  13.939
23721W        W82982  19.766  10.711  12.443
23722W        W82983  25.644   7.181   4.237
23723W        W82984   6.248  11.714  11.500
23724W        W82985  35.425  37.389  12.893
23725W        W82986  27.113  37.905   4.333
23726W        W82987  40.462  25.613  13.023
23727W        W82988   0.441  20.525  10.911
23728W        W82989  32.107  30.993  12.339
23729W        W82990   0.979  27.107  10.453
23730W        W82991  18.159  18.625   2.356
23731W        W82992   1.892  27.196   0.349
23732W        W82993  32.397   4.430  13.478
23733W        W82994  37.441  37.520  11.541
23734W        W82995  17.766  39.038   1.245
23735W        W82996   9.284  32.099   5.221
23736W        W82997  44.848  29.587   4.639
23737W        W82998   3.294  13.325  13.506
23738W        W82999  41.887  40.327   2.771
23739W        W83000  14.752   8.716  12.441
23740W        W83001  30.632  21.552   4.199
23741W        W83002  15.776  18.241  10.003
23742W        W83003  29.930  25.600   2.889
23743W        W83004   8.385  30.529   2.756
23744W        W83005  23.053  23.171  13.829
23745W        W83006  43.304   5.398  10.974
23746W        W83007   4.442   2.431  14.931
23747W        W83008  41.963  11.356  14.952
23748W        W83009  30.128  14.163   2.853
23749W        W83010   6.384   6.289  10.065
23750W        W83011  10.857  39.832   1.320
23751W        W83012  34.518  31.485  14.418
23752W        W83013   4.841  26.482  13.911
23753W        W83014   2.956   8.747   4.222
23754W        W83015  28.043  28.600  13.823
23755W        W83016   5.375   9.325  13.467
23756W        W83017  25.697  28.529   2.839
23757W        W83018   2.914  23.181  11.055
23758W        W83019   3.278  18.115   0.452
23759W        W83020  18.256  19.756   3.385
23760W        W83021  36.034  33.408   4.259
23761W        W83022   7.892  29.067  11.452
23762W        W83023   8.899  28.498   0.368
23763W        W83024  35.370  31.414  14.471
23764W        W83025  16.102  21.232   3.832
23765W        W83026   5.286  26.482  14.434
23766W        W83027  30.155  21.245   0.896
23767W        W83028   3.254  27.095   3.230
23768W        W83029  39.441   5.834   0.941
23769W        W83030  32.054   0.858  13.039
23770W        W83031  28.447  20.688   1.817
23771W        W83032   7.718  30.545   0.959
23772W        W83033  42.512   7.902  13.801
23773W        W83034  24.497   0.473  13.490
23774W        W83035  12.848  40.803  12.866
23775W        W83036   1.355  31.574  14.873
23776W        W83037  28.183  13.756  13.450
23777W        W83038  32.538  30.975   0.449
23778W        W83039   0.374   7.268   0.333
23779W        W83040   4.815  38.342  12.020
23780W        W83041  31.984   6.753  12.533
23781W        W83042  13.699  41.416   3.764
23782W        W83043  38.998  31.616  10.590
23783W        W83044  41.792  34.004   9.511
23784W        W83045   1.878  36.551  11.424
23785W        W83046  30.937  31.522   3.829
23786W        W83047  16.126  24.016   3.820
23787W        W83048   9.689  18.579   4.133
23788W        W83049  33.418  17.746   1.761
23789W        W83050  12.714  10.716   1.771
23790W        W83051  28.072  25.708  12.395
23791W        W83052  36.057  25.084  11.944
23792W        W83053  10.328  23.186   0.428
23793W        W83054   1.474  25.118  12.533
23794W        W83055  28.486  19.046  11.395
23795W        W83056   2.807  27.505  13.006
23796W        W83057   2.885  40.527  11.428
23797W        W83058  36.592   2.372  14.481
23798W        W83059   7.902   3.828  10.566
23799W        W83060  33.971  23.502   3.328
23800W        W83061  12.795  22.229  14.884
23801W        W83062  28.080  37.944   1.216
23802W        W83063  21.635   1.387  11.897
23803W        W83064  19.273  22.154  11.470
23804W        W83065  20.123  12.734  12.069
23805W        W83066  32.497  30.491   3.777
23806W        W83067   9.827  28.592  13.379
23807W        W83068  44.830  13.792  12.508
23808W        W83069  14.695  27.187  11.394
23809W        W83070  25.706  13.112   2.206
23810W        W83071  18.204  34.415  12.047
23811W        W83072   2.331   8.768  10.517
23812W        W83073  40.456  41.511  14.313
23813W        W83074   6.762  26.656  12.560
23814W        W83075  35.486   7.816   0.327
23815W        W83076   5.330  39.383  12.426
23816W        W83077  35.897   7.814  10.557
23817W        W83078  22.088  10.848   1.855
23818W        W83079   9.800  20.717  12.350
23819W        W83080  25.979  29.468   1.234
23820W        W83081   8.775   1.378   3.159
23821W        W83082  39.965  37.902  14.398
23822W        W83083  31.927   5.324   1.312
23823W        W83084  13.305  33.032   3.377
23824W        W83085  32.425   5.302   1.809
23825W        W83086   1.783  39.408   3.844
23826W        W83087  33.606  36.552   1.901
23827W        W83088  36.956   7.348  14.907
23828W        W83089  20.534  30.526   3.646
23829W        W83090  44.802  18.772   2.357
23830W        W83091   1.271  37.950   3.295
23831W        W83092  11.837   7.892  14.398
23832W        W83093  31.420  25.190   4.642
23833W        W83094  35.465  38.035   1.445
23834W        W83095  21.727  41.361  14.960
23835W        W83096  10.192  16.594  14.507
23836W        W83097  24.722   7.215  12.823
23837W        W83098  25.197  15.579  11.412
23838W        W83099  11.833  34.406  13.980
23839W        W83100  43.878  43.905   3.312
23840W        W83101  44.262   8.740  14.470
23841W        W83102  13.227   9.799  14.514
23842W        W83103  34.006  43.959  10.946
23843W        W83104  41.987  19.152  14.928
23844W        W83105  12.610  16.682  10.407
23845W        W83106  33.890  11.674   0.861
23846W        W83107  41.019   5.296  14.804
23847W        W83108   1.322  31.058  11.992
23848W        W83109  38.856   5.922  13.473
23849W        W83110  25.183  15.185  13.044
23850W        W83111   8.899  35.854   4.269
23851W        W83112   0.815  17.596  14.820
23852W        W83113  25.037  39.947   1.325
23853W        W83114  30.537  27.576   3.311
23854W        W83115  39.858  17.234   2.750
23855W        W83116  24.565  32.913  12.478
23856W        W83117  33.622  23.641  13.979
23857W        W83118  12.300   4.725   0.799
23858W        W83119  31.420  35.566   9.947
23859W        W83120  34.893   1.741  12.913
23860W        W83121  28.532  40.902   1.227
23861W        W83122   3.246  23.179  11.453
23862W        W83123  25.204   8.161  14.810
23863W        W83124   2.734  32.540   1.370
23864W        W83125  24.190  43.433   3.177
23865W        W83126  18.216  24.986   0.738
23866W        W83127   7.334   0.263  14.959
23867W        W83128  27.568  27.945   2.700
23868W        W83129  34.952  18.191  10.926
23869W        W83130  41.912  11.639  10.528
23870W        W83131  23.240  28.184   3.688
23871W        W83132  12.611  33.961   3.269
23872W        W83133  32.066  26.181   3.773
23873W        W83134  34.937  42.339  10.610
23874W        W83135  43.313  22.504   0.434
23875W        W83136  34.470  16.601  13.901
23876W        W83137  30.068   6.260   4.810
23877W        W83138  28.094  38.015  14.006
23878W        W83139  12.613  42.492  12.832
23879W        W83140  20.071  41.384   5.241
23880W        W83141  42.851   1.463   4.300
23881W        W83142  14.833  36.973  12.880
23882W        W83143  23.219  20.759  10.644
23883W        W83144  17.667  18.750  13.377
23884W        W83145  13.315  30.053  14.472
23885W        W83146  43.842  39.497   2.180
23886W        W83147  12.163  37.537   4.635
23887W        W83148  26.154   7.393  14.503
23888W        W83149  16.725  22.140  13.951
23889W        W83150   9.861  41.822  11.010
23890W        W83151  36.099  19.092   0.345
23891W        W83152  18.653  25.182  14.289
23892W        W83153  39.354  28.075  14.957
23893W        W83154  28.584  21.192   1.719
23894W        W83155  26.635  14.784  14.295
23895W        W83156  20.703  11.709   4.179
23896W        W83157  17.182  40.478  10.041
23897W        W83158  11.215  44.448   3.841
23898W        W83159  44.450  27.146   1.294
23899W        W83160   0.261  12.826   2.761
23900W        W83161  31.535  22.152   0.883
23901W        W83162  21.619  24.181   4.719
23902W        W83163  32.140  27.459  12.063
23903W        W83164  10.797  19.732   4.161
23904W        W83165  27.520  27.164   9.936
23905W        W83166  19.210  41.395   3.703
23906W        W83167   5.849   9.659   1.308
23907W        W83168  44.824   7.816   1.381
23908W        W83169  40.477  24.211   1.814
23909W        W83170  13.180  25.071   0.727
23910W        W83171  34.944  21.641   1.438
23911W        W83172  13.635  11.643  14.923
23912W        W83173  13.163  24.522   4.233
23913W        W83174   0.422  40.878   3.377
23914W        W83175   8.356  20.108   1.752
23915W        W83176  35.945  23.735   4.285
23916W        W83177  28.113  10.700   3.187
23917W        W83178  19.580  13.659  11.867
23918W        W83179  17.226  29.528  14.027
23919W        W83180   9.736  16.317   0.317
23920W        W83181   7.702  37.035  14.021
23921W        W83182   0.749  33.382   0.405
23922W        W83183  14.740  21.041  11.502
23923W        W83184  12.653   2.336   4.686
23924W        W83185  11.263  42.001  13.016
23925W        W83186  26.508   8.759  11.926
23926W        W83187  21.727   3.776  10.473
23927W        W83188  28.486  15.812   4.241
23928W        W83189  21.172  39.544  10.889
23929W        W83190  34.025   4.391   3.317
23930W        W83191  15.589   4.812   0.891
23931W        W83192  14.630   4.343   1.319
23932W        W83193  42.776   8.193  11.605
23933W        W83194  31.016   9.257  10.615
23934W        W83195  29.547  40.340  11.921
23935W        W83196  24.624  34.605  11.872
23936W        W83197  42.312  15.648   0.750
23937W        W83198  29.969  17.715   4.806
23938W        W83199  39.517  43.829   1.311
23939W        W83200  10.339   5.925  11.545
23940W        W83201  26.586  19.727   0.806
23941W        W83202  23.710  16.605  13.974
23942W        W83203  33.883  38.076  13.333
23943W        W83204  23.544  17.581  13.029
23944W        W83205   7.240  29.023  11.099
23945W        W83206   2.402  44.782   3.162
23946W        W83207  11.666  44.977  14.769
23947W        W83208  30.425  31.506   1.716
23948W        W83209  26.973  41.975   3.643
23949W        W83210  40.874  39.383  14.909
23950W        W83211  35.861  22.664   0.360
23951W        W83212   9.871   1.319   0.901
23952W        W83213  35.102   7.273  13.526
23953W        W83214   0.250  19.664   2.811
23954W        W83215  21.257  20.742   9.540
23955W        W83216  27.047  25.081   2.789
23956W        W83217   1.927  15.692  14.497
23957W        W83218  40.343  32.537   2.670
23958W        W83219  39.949  26.628   3.838
23959W        W83220  41.818  16.153   1.280
23960W        W83221  13.758  13.846   3.738
23961W        W83222  17.682  11.781   3.764
23962W        W83223  31.432  41.310  12.982
23963W        W83224  17.215  18.728   1.775
23964W        W83225  20.577  15.814  13.343
23965W        W83226  40.972  14.787   3.180
23966W        W83227   3.374  31.538  11.039
23967W        W83228   5.329  37.437  11.126
23968W        W83229  44.889  28.585   1.440
23969W        W83230  26.042   5.259  11.505
23970W        W83231  24.104  19.763   4.192
23971W        W83232  13.767  42.329   0.345
23972W        W83233   3.805   7.317  10.961
23973W        W83234  25.593  36.918  14.360
23974W        W83235   2.860  41.977   2.853
23975W        W83236   0.362  40.400  13.426
23976W        W83237  27.951  35.549  13.940
23977W        W83238  44.891  41.838  14.871
23978W        W83239  41.416   8.276   1.367
23979W        W83240  13.159  24.532  12.882
23980W        W83241  41.977   8.887  13.865
23981W        W83242  33.941  44.900  14.775
23982W        W83243  25.512   0.372  10.999
23983W        W83244  19.047  27.478  13.397
23984W        W83245  35.454   8.741  14.355
23985W        W83246  24.548  40.859   4.630
23986W        W83247  18.582   1.733   5.137
23987W        W83248  24.508  34.970  14.996
23988W        W83249  31.122  43.767  14.463
23989W        W83250  10.818   1.850   0.904
23990W        W83251  44.821  14.707  11.894
23991W        W83252  18.612  21.607   5.198
23992W        W83253  12.742  20.050  11.919
23993W        W83254  33.582   3.246   4.667
23994W        W83255  17.086  41.404  10.475
23995W        W83256   3.279   6.187  11.377
23996W        W83257  38.471  13.841  12.427
23997W        W83258  12.156   1.473   2.200
23998W        W83259   9.735  11.669  14.414
23999W        W83260   7.898   1.453  11.381
24000W        W83261  12.685  43.792   4.194
24001W        W83262  35.593  34.988  14.890
24002W        W83263  28.991  15.611   4.700
24003W        W83264  44.001   7.897  12.368
24004W        W83265  28.597  41.869   2.365
24005W        W83266  15.710  44.364   0.287
24006W        W83267  20.767   3.291   4.631
24007W        W83268   2.364  38.827  10.983
24008W        W83269   1.859  43.882  12.571
24009W        W83270  44.270  33.548   3.302
24010W        W83271  16.110  26.084   4.619
24011W        W83272  17.088   4.924  14.820
24012W        W83273  26.003  39.063  13.405
24013W        W83274  39.347  42.482  14.026
24014W        W83275  29.983  38.517  14.794
24015W        W83276  32.542   3.735   4.655
24016W        W83277  39.871  25.029   2.379
24017W        W83278  44.873  15.239   1.357
24018W        W83279   0.320  31.571   2.347
24019W        W83280  40.359  16.585   1.758
24020W        W83281  16.716  43.466  12.478
24021W        W83282  39.546   3.836  11.120
24022W        W83283   2.905  18.636  13.834
24023W        W83284  19.576  11.279  12.008
24024W        W83285  19.160  22.524   0.482
24025W        W83286  14.616  43.914  14.906
24026W        W83287  30.633  41.343   0.940
24027W        W83288  34.098  19.686  12.056
24028W        W83289  27.499  43.436  11.878
24029W        W83290  38.941  17.139   4.635
24030W        W83291  35.052  18.699  10.406
24031W        W83292  10.208  34.018   0.783
24032W        W83293  28.524  14.807   3.710
24033W        W83294  16.781   4.934  14.949
24034W        W83295  18.071   3.812  10.936
24035W        W83296  37.508  34.065  12.042
24036W        W83297  29.475  41.962   0.472
24037W        W83298  27.128  32.556  13.423
24038W        W83299  33.901  40.494   2.353
24039W        W83300  25.698   5.278  14.022
24040W        W83301  28.134   8.729  14.372
24041W        W83302  13.283  35.006   1.871
24042W        W83303  28.133   0.313   4.646
24043W        W83304   7.330  37.839  12.435
24044W        W83305   2.408  39.984   0.304
24045W        W83306  41.837   3.843  12.457
24046W        W83307  44.304  28.571   3.759
24047W        W83308  14.169  43.270  11.114
24048W        W83309  30.637  17.239  13.413
24049W        W83310  40.947   6.375  13.979
24050W        W83311  31.484  30.615   3.828
24051W        W83312  18.639  37.960   4.113
24052W        W83313  29.123  15.231  12.395
24053W        W83314  32.105   3.727  14.769
24054W        W83315  35.061  28.121  10.980
24055W        W83316   3.779  33.419   0.888
24056W        W83317  33.942  10.219   3.189
24057W        W83318  24.604   0.949   1.238
24058W        W83319  11.358   6.911  14.304
24059W        W83320  25.085  16.731   0.344
24060W        W83321  38.064   9.259  14.439
24061W        W83322  37.948  21.628   1.220
24062W        W83323  23.169   1.904   4.177
24063W        W83324   1.829  42.385  14.494
24064W        W83325  25.641  16.809  10.547
24065W        W83326  16.589   4.323  14.870
24066W        W83327  23.198  27.946   2.753
24067W        W83328  34.428   7.773   4.649
24068W        W83329  24.687  23.997   3.277
24069W        W83330  23.228   2.937   2.305
24070W        W83331  42.423  42.824   1.695
24071W        W83332  33.442   6.207  14.498
24072W        W83333  38.408  19.052   1.810
24073W        W83334  21.076  41.991   2.672
24074W        W83335  14.241  26.538  13.456
24075W        W83336  23.546  16.688  12.918
24076W        W83337   4.807  17.201   0.731
24077W        W83338   6.811  34.406  12.431
24078W        W83339  22.010   5.363   0.772
24079W        W83340  24.493  25.635   1.378
24080W        W83341  38.906  41.489   3.848
24081W        W83342   5.780  42.845  11.868
24082W        W83343  17.702  35.947   3.846
24083W        W83344  36.935   3.228  14.356
24084W        W83345  17.632   5.765  10.441
24085W        W83346  11.205  28.106  12.888
24086W        W83347   4.749  42.867  12.958
24087W        W83348   1.857  29.954   2.684
24088W        W83349  38.045  37.002  10.949
24089W        W83350  13.246  11.309  13.498
24090W        W83351  39.556  20.094  11.533
24091W        W83352  37.358  21.597  11.027
24092W        W83353   9.714  29.503   1.852
24093W        W83354  29.944   0.331   2.189
24094W        W83355  12.357  41.357   2.388
24095W        W83356  26.174  10.311  14.324
24096W        W83357  28.564  43.455   4.613
24097W        W83358  34.375  18.594   2.764
24098W        W83359  29.067  21.721  14.298
24099W        W83360  10.665  15.667  11.962
24100W        W83361  37.843   1.253  13.791
24101W        W83362  23.181  10.317  11.437
24102W        W83363  33.397  37.541   1.261
24103W        W83364   7.266  17.664  11.902
24104W        W83365  42.940  29.958  11.608
24105W        W83366   6.252  33.038  12.577
24106W        W83367  41.932  16.796   3.853
24107W        W83368  30.911  12.298  12.519
24108W        W83369  28.967  38.461  14.891
24109W        W83370  44.486  44.821   0.406
24110W        W83371  29.535   6.896   3.661
24111W        W83372  26.519  32.536  12.559
24112W        W83373  14.129  36.513   3.272
24113W        W83374   4.910  36.380   2.316
24114W        W83375  10.306  23.234   2.884
24115W        W83376  24.621  31.122   4.151
24116W        W83377   8.756  15.178  10.608
24117W        W83378  29.458   0.890  13.860
24118W        W83379  33.050   5.785  10.959
24119W        W83380   1.882  25.601   3.694
24120W        W83381  17.240  41.999   0.378
24121W        W83382  41.032   8.878   4.778
24122W        W83383   1.331  15.185   0.850
24123W        W83384  18.739  33.557  14.462
24124W        W83385  12.801  39.408  12.930
24125W        W83386  44.898  37.425   3.667
24126W        W83387  41.896   4.925   2.361
24127W        W83388   9.760  31.454  11.891
24128W        W83389  30.032  10.221   3.274
24129W        W83390  37.869  32.437   9.943
24130W        W83391  30.951  28.989   5.112
24131W        W83392  22.600   2.251   4.620
24132W        W83393  41.392  41.937   2.750
24133W        W83394  39.469  20.667   4.352
24134W        W83395  11.365   5.703   1.908
24135W        W83396  38.941  18.082   3.356
24136W        W83397   4.242  27.046   1.386
24137W        W83398  17.569  24.221   2.887
24138W        W83399  16.769  17.711   1.712
24139W        W83400  11.221  20.203  11.924
24140W        W83401  23.523  15.154   1.413
24141W        W83402  11.722  40.448  11.116
24142W        W83403  14.608  33.571  11.480
24143W        W83404  24.077   5.302  12.553
24144W        W83405  16.075  12.253  12.899
24145W        W83406   6.224  14.742  11.102
24146W        W83407  11.326   8.716  11.462
24147W        W83408  41.788   9.260   4.330
24148W        W83409  34.540  16.714   2.371
24149W        W83410  26.661   7.885  12.004
24150W        W83411  19.090  41.897   4.831
24151W        W83412  14.181   3.946  13.470
24152W        W83413   8.828  14.216   0.788
24153W        W83414   1.358  32.598  14.402
24154W        W83415  15.791  19.146   1.857
24155W        W83416  24.591  40.360   0.766
24156W        W83417  21.224  10.347   3.233
24157W        W83418  25.968  44.857   2.296
24158W        W83419  14.718  41.300   2.770
24159W        W83420  39.062  17.169   3.828
24160W        W83421  35.499  23.507   1.798
24161W        W83422   1.473  41.954  10.499
24162W        W83423  39.849  31.089   1.406
24163W        W83424  41.932   9.336   1.381
24164W        W83425  32.907   4.884   4.686
24165W        W83426  24.677  33.472  11.437
24166W        W83427   3.392   7.307   2.202
24167W        W83428  35.853  25.980   1.360
24168W        W83429  24.125  43.453  10.564
24169W        W83430  28.631  32.063   2.871
24170W        W83431  15.812  27.613   2.283
24171W        W83432  37.903  33.104  12.434
24172W        W83433  33.049  41.423  11.964
24173W        W83434   4.819   4.365   4.810
24174W        W83435   1.356  15.760   3.326
24175W        W83436  10.289  10.326  11.009
24176W        W83437  28.656   9.683  10.488
24177W        W83438  21.168  39.059  12.502
24178W        W83439   9.804  38.940  11.874
24179W        W83440  16.142  31.032   9.946
24180W        W83441  26.630   1.811  12.984
24181W        W83442   9.844   5.213  14.906
24182W        W83443   3.820  33.577  14.995
24183W        W83444  29.930  44.790   3.209
24184W        W83445  25.041  42.896   1.224
24185W        W83446  41.957  44.921   0.791
24186W        W83447  30.131   8.286  14.419
24187W        W83448  16.081  19.676   5.774
24188W        W83449  15.225  39.929  14.315
24189W        W83450   6.764   8.714  11.928
24190W        W83451  34.565  31.139   4.255
24191W        W83452   0.430   2.342   4.746
24192W        W83453  28.677  43.305  13.981
24193W        W83454  22.532  43.347   0.787
24194W        W83455  19.598  16.090   0.461
24195W        W83456  26.478  31.935   3.671
24196W        W83457  26.623  26.993   0.326
24197W        W83458   7.674  25.990   4.741
24198W        W83459  15.733  27.620  13.308
24199W        W83460   9.711  34.946  11.119
24200W        W83461  37.041   8.229  12.382
24201W        W83462  21.130  15.821   0.839
24202W        W83463  15.821  28.652   2.810
24203W        W83464   6.678  10.233  13.385
24204W        W83465  24.148  34.578   4.620
24205W        W83466  41.942  36.401  10.453
24206W        W83467   1.933   6.679   3.257
24207W        W83468  22.569  38.488   1.385
24208W        W83469  32.952  26.477   4.710
24209W        W83470  21.103  23.128   2.766
24210W        W83471  22.569  25.106  12.837
24211W        W83472  40.501  18.596  14.954
24212W        W83473  17.691  16.596  14.766
24213W        W83474  18.161  32.540  11.885
24214W        W83475  28.660  27.623   4.838
24215W        W83476   5.893  42.297   3.638
24216W        W83477  11.657  31.508   1.887
24217W        W83478  31.408   4.770   2.203
24218W        W83479   6.262  40.544   4.597
24219W        W83480  19.196  34.418  14.479
24220W        W83481   6.329   3.883   1.902
24221W        W83482  39.956  39.045   0.309
24222W        W83483  12.194  19.661   0.922
24223W        W83484   9.682   2.407  14.916
24224W        W83485  41.925  20.109  14.873
24225W        W83486  10.788  44.876   0.288
24226W        W83487  18.620   3.320   9.933
24227W        W83488   9.306  26.089  11.388
24228W        W83489  12.775  27.579   2.756
24229W        W83490  36.567  42.803  11.870
24230W        W83491  36.081  18.107  12.082
24231W        W83492  17.089   2.912  14.964
24232W        W83493  29.645  29.527   3.650
24233W        W83494  17.610  22.018   1.826
24234W        W83495  36.891  23.075   3.749
24235W        W83496  37.949  18.140  12.341
24236W        W83497  16.662  34.987  11.376
24237W        W83498  21.699   1.887   2.323
24238W        W83499   9.359  25.488  11.022
24239W        W83500  37.534  29.510   1.846
24240W        W83501  20.620  33.940  12.973
24241W        W83502  38.416  10.373   0.962
24242W        W83503  28.606   8.800   4.120
24243W        W83504  28.175  42.391   2.322
24244W        W83505  40.856  40.421   4.123
24245W        W83506  23.554  23.155  11.987
24246W        W83507  14.600  11.216   1.268
24247W        W83508  29.541  31.990   1.814
24248W        W83509  39.895   6.300  14.886
24249W        W83510  22.224   2.381   3.854
24250W        W83511  20.178   9.314  13.886
24251W        W83512   6.375  27.485   0.283
24252W        W83513  41.869  31.636   1.258
24253W        W83514  35.417  42.977   3.258
24254W        W83515  26.078   4.249  13.884
24255W        W83516   1.742   9.201  10.465
24256W        W83517  32.065  33.406  13.322
24257W        W83518  20.222  11.630   2.347
24258W        W83519  38.544  23.196  12.859
24259W        W83520  15.083  19.582  14.766
24260W        W83521  27.682   6.274   0.408
24261W        W83522  29.472  39.004   2.225
24262W        W83523   2.823   3.247  10.952
24263W        W83524   7.779   5.431  14.505
24264W        W83525   3.332  26.667   1.217
24265W        W83526   9.671  12.319  12.916
24266W        W83527  11.687   2.304  12.061
24267W        W83528  43.438  22.063  13.899
24268W        W83529  22.552  44.468   5.143
24269W        W83530  33.989  14.198  12.855
24270W        W83531  44.968   7.250   0.293
24271W        W83532   6.370   2.425  10.995
24272W        W83533  38.471   6.817   3.286
24273W        W83534  32.120  38.951   1.424
24274W        W83535  21.095  23.242  12.417
24275W        W83536  21.214  22.582   4.252
24276W        W83537  42.889  22.141   0.902
24277W        W83538  41.791  12.856  12.934
24278W        W83539  29.174  39.432   0.440
24279W        W83540  16.585  18.555   2.782
24280W        W83541   7.783  16.705   0.439
24281W        W83542   6.389  42.340   0.827
24282W        W83543  13.729  32.542  10.980
24283W        W83544  44.952   7.258   2.370
24284W        W83545  40.963   0.278  10.586
24285W        W83546  10.875   3.257   0.834
24286W        W83547  36.362  23.716   1.254
24287W        W83548  20.749   0.803   0.919
24288W        W83549  17.705  36.462  11.037
24289W        W83550  19.766  31.493  12.442
24290W        W83551  11.328  25.977   1.897
24291W        W83552   8.715  40.447   1.439
24292W        W83553  42.876  12.661  10.419
24293W        W83554  13.217  11.834   0.824
24294W        W83555  41.932   9.293  12.410
24295W        W83556  34.049  41.462  10.019
24296W        W83557  37.899  12.812  11.535
24297W        W83558  25.215  14.810  13.876
24298W        W83559  30.119   2.426   4.157
24299W        W83560  32.566  35.961   2.310
24300W        W83561   7.190  34.945   1.766
24301W        W83562   7.874   7.896  10.442
24302W        W83563   4.801  26.046   0.442
24303W        W83564  20.764  12.703  13.940
24304W        W83565  40.448  33.020  11.915
24305W        W83566  16.629   9.347   0.852
24306W        W83567  16.119  28.498  11.954
24307W        W83568   1.929  15.684   1.909
24308W        W83569  15.278   1.354   5.194
24309W        W83570  22.555  26.475  11.972
24310W        W83571  44.990   4.443   2.776
24311W        W83572   2.757  16.739  12.434
24312W        W83573  44.421  28.944   2.750
24313W        W83574  44.504  32.521  12.075
24314W        W83575  23.030  22.612   5.166
24315W        W83576   2.917  40.845   0.426
24316W        W83577  16.603  15.300  11.075
24317W        W83578  27.009  22.230  14.315
24318W        W83579  29.481   9.300  13.936
24319W        W83580   4.435  37.521  12.904
24320W        W83581  22.567  22.663  10.539
24321W        W83582  28.529  40.410   4.258
24322W        W83583   7.300  41.868   2.718
24323W        W83584  41.397  38.057  13.927
24324W        W83585  36.918  36.056  12.993
24325W        W83586   0.303   7.756  13.354
24326W        W83587  24.195  33.961   3.796
24327W        W83588  34.381  32.997   4.627
24328W        W83589  22.645  30.087  12.519
24329W        W83590  25.606   0.752   1.824
24330W        W83591  41.376  26.081   0.462
24331W        W83592   5.422  31.023   2.250
24332W        W83593  17.251  25.480   1.769
24333W        W83594   5.204  24.147  12.476
24334W        W83595  44.478  14.244   4.628
24335W        W83596  33.544  30.913   4.120
24336W        W83597   0.382  17.723   0.784
24337W        W83598  36.886   2.795  13.986
24338W        W83599   9.784  35.912  13.444
24339W        W83600  39.512   4.819   0.771
24340W        W83601  27.084  10.154   9.976
24341W        W83602  16.097   8.391   2.818
24342W        W83603   4.236  13.308   0.255
24343W        W83604   5.220  11.852   4.801
24344W        W83605  13.638  39.556   1.239
24345W        W83606  21.172  29.070   4.698
24346W        W83607  23.105  14.781   0.763
24347W        W83608  21.751  39.393   4.632
24348W        W83609  22.639  12.132  12.876
24349W        W83610  13.781  31.491  13.452
24350W        W83611  25.686   0.390  12.002
24351W        W83612  27.488  24.996  10.980
24352W        W83613  42.790   4.819  11.938
24353W        W83614  24.111  31.095   3.363
24354W        W83615  27.955   5.236   2.379
24355W        W83616  10.656  16.640   1.231
24356W        W83617  23.015  30.430   3.325
24357W        W83618   8.169  12.840   3.224
24358W        W83619  26.468   2.349  12.070
24359W        W83620  22.154  35.502   0.456
24360W        W83621   1.790  34.977   1.892
24361W        W83622  24.991  33.440   1.775
24362W        W83623   7.223   9.199  14.015
24363W        W83624  29.494  18.672  11.409
24364W        W83625  36.066  39.889  10.974
24365W        W83626   4.437   8.884  12.898
24366W        W83627   3.325  14.198   4.749
24367W        W83628  13.309  41.334   5.218
24368W        W83629  27.517   2.248   4.797
24369W        W83630  20.261  19.105   9.965
24370W        W83631  41.949  12.718   3.851
24371W        W83632  35.973  36.500   4.657
24372W        W83633   8.776   7.802  11.483
24373W        W83634  32.567  14.152  13.861
24374W        W83635  14.308  27.586   0.265
24375W        W83636  40.382  44.446  11.050
24376W        W83637  19.685  25.586  13.452
24377W        W83638  42.890  11.360   2.320
24378W        W83639  36.505  32.115   2.317
24379W        W83640  30.934  24.053   0.927
24380W        W83641   9.710   4.274   2.247
24381W        W83642  11.230   4.786  13.830
24382W        W83643  13.691  32.116   1.910
24383W        W83644  14.184  34.615  14.371
24384W        W83645  25.103  19.640   0.800
24385W        W83646  13.800  22.529  12.472
24386W        W83647   8.375   5.706   3.215
24387W        W83648   9.154   1.261  10.499
24388W        W83649  13.748  44.877   2.310
24389W        W83650  14.205  38.378  13.053
24390W        W83651  27.458   9.792   4.744
24391W        W83652  15.642  15.201   5.751
24392W        W83653  18.116   1.795   3.276
24393W        W83654  43.290  29.533  11.025
24394W        W83655  26.058  17.710   2.190
24395W        W83656   6.289  21.168   2.857
24396W        W83657   0.834  20.560   1.288
24397W        W83658  41.313  23.504   3.652
24398W        W83659   1.805  30.596   1.234
24399W        W83660  22.717  21.715  12.387
24400W        W83661   7.692  11.789   3.194
24401W        W83662  14.262  35.942   4.201
24402W        W83663  40.898  29.083   3.330
24403W        W83664  32.488   3.906  14.005
24404W        W83665  39.445   1.963   3.841
24405W        W83666  24.120  33.093  14.816
24406W        W83667   7.212  39.519  14.338
24407W        W83668  40.388  19.554   1.267
24408W        W83669  11.841  40.375   4.152
24409W        W83670  26.135   5.758  12.499
24410W        W83671  26.150  41.961   0.330
24411W        W83672  35.545  31.457   4.665
24412W        W83673  10.267   6.736   0.289
24413W        W83674   4.328  38.425   1.772
24414W        W83675   5.692  10.688  11.470
24415W        W83676  18.743  13.171  11.007
24416W        W83677  17.666  15.231  13.945
24417W        W83678  22.041   4.312   2.861
24418W        W83679  17.575  18.220   0.373
24419W        W83680   4.425  27.148  14.431
24420W        W83681   8.885  24.655   3.834
24421W        W83682  39.371  12.682  12.985
24422W        W83683  15.197  40.036  12.862
24423W        W83684  43.343  20.153  14.825
24424W        W83685  20.216  40.914   1.798
24425W        W83686  22.014  10.270   5.298
24426W        W83687  10.162   1.272  10.914
24427W        W83688  18.052  18.568   2.898
24428W        W83689  30.464  41.804   0.894
24429W        W83690  32.901  33.502  14.843
24430W        W83691  17.645  20.155  13.956
24431W        W83692  19.607  20.580  14.976
24432W        W83693  16.116  27.065   1.448
24433W        W83694   7.904   2.939  13.944
24434W        W83695  44.505  16.600  12.535
24435W        W83696  23.724   0.313  14.973
24436W        W83697  37.433  26.135  11.973
24437W        W83698   7.359  35.445  11.503
24438W        W83699  17.293  15.707  11.611
24439W        W83700  38.559  36.432  11.382
24440W        W83701  19.739  22.627   4.222
24441W        W83702  24.676  11.840   3.701
24442W        W83703  35.423  22.225   1.718
24443W        W83704  21.021  15.244  10.643
24444W        W83705  13.743  33.566   3.721
24445W        W83706  40.031   8.207  14.782
24446W        W83707  11.289  38.853   1.843
24447W        W83708   5.300   2.743   0.886
24448W        W83709  13.109  30.147   1.912
24449W        W83710  39.332  22.015   3.703
24450W        W83711  42.949  25.665  12.560
24451W        W83712  28.999  17.256  13.469
24452W        W83713  32.435  12.837   0.305
24453W        W83714   1.899  17.653   2.786
24454W        W83715  36.960  38.036   2.723
24455W        W83716   8.308  19.139  14.431
24456W        W83717   9.855  42.864  11.921
24457W        W83718  21.142   9.838  10.551
24458W        W83719  34.112  10.228   1.931
24459W        W83720  11.176  38.546   1.216
24460W        W83721  31.646   9.264  12.353
24461W        W83722  28.049   6.322   2.769
24462W        W83723  16.136   0.839   0.292
24463W        W83724   1.835  38.014  13.911
24464W        W83725   6.707  29.490  12.933
24465W        W83726  11.625  15.149  11.456
24466W        W83727   8.723   3.756  11.531
24467W        W83728  20.040  34.080  13.936
24468W        W83729  38.939  12.270   3.759
24469W        W83730  41.969  26.205   0.295
24470W        W83731  16.755  30.072   4.724
24471W        W83732  36.534  27.605   4.614
24472W        W83733  25.618  29.432  12.522
24473W        W83734   2.899  42.915   1.789
24474W        W83735  17.650  11.302  13.466
24475W        W83736  44.280  30.146  14.856
24476W        W83737  38.946  38.372  13.404
24477W        W83738  43.805  37.556   3.761
24478W        W83739   3.862  34.960  13.309
24479W        W83740  24.025   8.664  10.529
24480W        W83741  43.338  38.551  10.410
24481W        W83742  24.221  32.119  10.999
24482W        W83743  27.620  28.638   0.285
24483W        W83744   1.769  39.373   2.742
24484W        W83745  33.000  28.640  11.054
24485W        W83746  24.701   3.265  10.951
24486W        W83747   2.324  37.896   2.873
24487W        W83748  11.327  20.065  11.542
24488W        W83749  28.547  17.221   4.156
24489W        W83750  13.351  26.032  14.437
24490W        W83751   2.312   3.780   3.814
24491W        W83752  38.352  31.573   1.843
24492W        W83753  38.075  31.444   9.476
24493W        W83754   9.833  21.540   0.456
24494W        W83755  20.704  32.533  14.795
24495W        W83756  43.480  17.734   0.742
24496W        W83757  44.259  33.056  11.914
24497W        W83758   3.882  13.733  12.895
24498W        W83759  19.104  17.229  10.902
24499W        W83760  26.671  29.525  14.840
24500W        W83761  38.397  27.049   2.208
24501W        W83762  42.802   1.414  13.942
24502W        W83763  22.558  31.008   2.882
24503W        W83764   6.361  15.782   4.656
24504W        W83765  17.153  13.254   1.317
24505W        W83766  29.596  16.250  12.880
24506W        W83767  40.308  37.048  14.862
24507W        W83768  10.372  43.423   4.280
24508W        W83769   5.401  15.150  11.401
24509W        W83770  44.854  10.827  13.872
24510W        W83771  19.129  32.052   4.791
24511W        W83772   6.725  16.272  11.395
24512W        W83773  22.511  40.980   2.294
24513W        W83774  21.025  11.809   0.818
24514W        W83775   2.353  42.849   5.225
24515W        W83776  36.996  41.844   2.394
24516W        W83777   1.354  34.519  14.015
24517W        W83778  35.557  16.741   1.402
24518W        W83779   1.253  19.172   2.698
24519W        W83780  28.064  42.333  10.948
24520W        W83781  11.253  18.791   4.115
24521W        W83782  42.788  38.521   0.394
24522W        W83783  42.345  41.310  12.439
24523W        W83784   0.383   5.214  10.457
24524W        W83785  15.702  42.821   2.208
24525W        W83786  43.459  43.418  10.639
24526W        W83787  12.847  12.620  11.943
24527W        W83788   2.854  24.228  12.436
24528W        W83789  38.465  34.057   1.716
24529W        W83790  23.088  41.792   1.262
24530W        W83791  31.128  12.195   0.821
24531W        W83792  19.745  44.880   0.334
24532W        W83793  12.631  10.211  10.160
24533W        W83794  37.019  35.434   5.733
24534W        W83795  17.597   5.892   1.923
24535W        W83796  42.446  35.039   1.256
24536W        W83797  37.563  37.537  12.532
24537W        W83798   0.471  28.067  14.288
24538W        W83799  15.696  25.495  13.396
24539W        W83800  25.205  22.095   2.396
24540W        W83801  36.514  35.371  14.365
24541W        W83802  29.571  41.958  11.501
24542W        W83803  24.608   5.329  11.431
24543W        W83804  29.534   7.810   4.622
24544W        W83805  21.526  39.453  11.918
24545W        W83806  10.748  14.814   3.245
24546W        W83807   7.830  34.951   0.956
24547W        W83808   7.843   2.880   3.278
24548W        W83809  35.441   2.727   0.966
24549W        W83810  16.790  15.653   0.362
24550W        W83811  44.902  42.979  10.895
24551W        W83812  15.721   8.277   2.754
24552W        W83813   6.363  25.014  13.374
24553W        W83814  19.632  15.175   3.335
24554W        W83815  38.993  36.931  10.437
24555W        W83816  42.403  44.915   1.759
24556W        W83817  14.590  11.243   3.149
24557W        W83818   9.757  14.094  14.483
24558W        W83819  10.160  19.776   0.739
24559W        W83820  15.104  33.532  11.436
24560W        W83821  19.596   0.394  10.450
24561W        W83822  23.550  18.680  11.475
24562W        W83823  16.104  13.656  13.062
24563W        W83824  13.120  18.120   9.949
24564W        W83825  19.770  33.105   1.780
24565W        W83826  15.258  27.548  14.451
24566W        W83827  20.174  34.866   1.920
24567W        W83828  34.065  16.657   3.858
24568W        W83829  28.480  37.579  10.025
24569W        W83830  25.679  28.676  11.876
24570W        W83831  29.440  16.723   3.714
24571W        W83832  26.600  12.823   2.417
24572W        W83833  26.011  40.424   0.299
24573W        W83834  22.251  21.076  11.907
24574W        W83835   5.274  18.283   0.359
24575W        W83836  44.856  38.552  12.553
24576W        W83837   7.278  28.076  10.450
24577W        W83838  20.231  30.442   3.716
24578W        W83839  24.050  44.325   5.245
24579W        W83840  14.788  33.997   4.337
24580W        W83841  42.486   5.913   3.751
24581W        W83842  34.513   3.411  11.971
24582W        W83843  40.053  16.737  14.767
24583W        W83844  19.151  16.083  10.958
24584W        W83845  33.121   3.279   1.298
24585W        W83846  39.040  34.105  12.005
24586W        W83847  33.924  32.053  14.515
24587W        W83848   4.204  16.685   1.722
24588W        W83849  10.738  28.028   9.922
24589W        W83850   0.873  37.544  11.515
24590W        W83851  29.109   1.742  14.292
24591W        W83852  31.604  28.935   0.894
24592W        W83853  42.850  30.502  11.058
24593W        W83854  40.368  24.142  11.943
24594W        W83855  44.496  35.474   4.783
24595W        W83856   6.387   9.817  14.449
24596W        W83857  30.654  19.577   2.700
24597W        W83858  43.904  38.906  12.926
24598W        W83859  29.494   4.283   4.241
24599W        W83860  31.960  12.740   0.328
24600W        W83861   4.287  17.635   2.889
24601W        W83862  34.104  12.190   1.359
24602W        W83863   3.450  39.468  12.433
24603W        W83864  32.618   3.244   2.396
24604W        W83865  29.597  21.751   3.324
24605W        W83866  31.615  28.145   0.361
24606W        W83867  35.484  20.210  13.043
24607W        W83868  44.000   1.358   4.656
24608W        W83869   3.904  32.973   2.745
24609W        W83870   1.824   5.825  13.867
24610W        W83871   8.810  36.523  11.887
24611W        W83872  26.485  17.796   2.732
24612W        W83873  11.226   3.325   2.792
24613W        W83874   0.443  23.734   0.898
24614W        W83875  33.056  36.978   4.800
24615W        W83876  32.957  30.015   1.248
24616W        W83877  34.943  11.751   2.857
24617W        W83878  37.907  36.866  14.786
24618W        W83879  26.684   8.788   2.252
24619W        W83880  18.124  11.230  13.845
24620W        W83881   0.309  15.763  11.382
24621W        W83882   7.695   7.273   2.242
24622W        W83883   9.860  43.411  11.011
24623W        W83884   1.290  39.384   0.314
24624W        W83885  31.058  23.585  12.409
24625W        W83886  11.836  24.721   0.749
24626W        W83887  36.012  20.066  13.546
24627W        W83888  41.450  40.930  14.477
24628W        W83889  21.077  18.673  13.536
24629W        W83890   4.392  40.804  11.375
24630W        W83891  25.522  27.542   3.850
24631W        W83892  35.455  16.264   0.929
24632W        W83893  10.173   4.340   2.190
24633W        W83894  39.937  27.096  12.349
24634W        W83895  20.161   8.765   3.164
24635W        W83896   5.715   3.279   4.764
24636W        W83897   7.296   5.932   2.224
24637W        W83898  42.025  28.484   2.846
24638W        W83899  13.819  12.134  11.029
24639W        W83900  36.480  27.595   3.870
24640W        W83901  40.889   6.714   3.854
24641W        W83902   1.445  23.566   2.833
24642W        W83903   3.934  25.039  10.536
24643W        W83904   0.750  41.889  12.568
24644W        W83905  40.510  41.017  11.083
24645W        W83906  10.363  38.873   1.790
24646W        W83907  28.510  12.687   2.874
24647W        W83908  10.357   3.436   4.182
24648W        W83909  25.151  19.535   2.869
24649W        W83910  32.929   1.942  12.352
24650W        W83911  16.570  11.718  11.025
24651W        W83912  17.065  30.007   2.282
24652W        W83913  40.426  11.270  14.888
24653W        W83914  17.556  25.592  13.423
24654W        W83915  13.810  19.285  14.850
24655W        W83916  18.637  21.662  13.308
24656W        W83917  15.620  19.539   4.148
24657W        W83918  18.163   9.755  14.338
24658W        W83919  11.289  30.138   2.279
24659W        W83920  39.379  23.052   3.303
24660W        W83921  42.956  28.187   3.299
24661W        W83922  17.716  23.071   1.860
24662W        W83923  14.316   6.736  13.052
24663W        W83924  28.448  13.792  12.058
24664W        W83925  11.160  42.514   4.683
24665W        W83926  29.472  31.524  13.840
24666W        W83927   0.288  36.444   0.409
24667W        W83928  42.956  41.981   1.878
24668W        W83929  41.810  18.235  11.871
24669W        W83930  21.103   9.880  13.505
24670W        W83931  17.756  32.104   3.852
24671W        W83932  25.660  42.887  13.052
24672W        W83933  14.707  10.163  14.016
24673W        W83934  31.568  28.145  11.113
24674W        W83935   1.819  38.057   2.181
24675W        W83936  42.977  17.286  13.941
24676W        W83937   6.336  26.202   3.213
24677W        W83938  35.896  40.037  12.360
24678W        W83939   3.745   2.822  14.439
24679W        W83940   0.857  25.657  11.475
24680W        W83941  20.095  15.135  11.538
24681W        W83942  16.123   3.371   3.189
24682W        W83943   8.749  41.857  11.582
24683W        W83944   9.857  32.075  13.905
24684W        W83945  31.932  16.309   2.223
24685W        W83946  39.394  39.486   9.562
24686W        W83947  29.516  14.117  12.919
24687W        W83948  35.445   6.802   4.749
24688W        W83949  36.514   4.844   2.376
24689W        W83950  28.662  33.054   3.780
24690W        W83951  19.283   2.822   4.824
24691W        W83952  24.616  44.867  11.510
24692W        W83953  11.740  33.547   2.799
24693W        W83954  41.403  16.604   1.743
24694W        W83955   4.910  12.631  12.096
24695W        W83956  13.244  35.430   2.407
24696W        W83957   5.811  33.061   0.789
24697W        W83958   5.816  34.951  13.890
24698W        W83959  11.339  23.716  11.430
24699W        W83960  23.731  30.479  12.517
24700W        W83961  18.111  15.806  12.980
24701W        W83962  38.385  22.081   4.117
24702W        W83963   4.839   7.826  12.441
24703W        W83964   5.742  30.967  13.942
24704W        W83965   7.858   2.373  13.336
24705W        W83966  10.229  17.101  13.891
24706W        W83967  10.311  18.756  12.944
24707W        W83968  25.553   6.412   4.831
24708W        W83969  27.029  14.213  12.930
24709W        W83970  10.804  14.223   3.342
24710W        W83971  13.310   5.830  13.044
24711W        W83972  21.214  16.254  12.465
24712W        W83973  36.471  39.421  10.486
24713W        W83974  29.134  18.573   1.721
24714W        W83975   4.398  40.527   2.712
24715W        W83976  31.641   9.305  13.868
24716W        W83977  32.070  10.275  13.511
24717W        W83978  11.160  23.221  11.040
24718W        W83979  24.480  37.519  10.034
24719W        W83980   4.742  37.531   2.738
24720W        W83981  16.782   0.461  12.071
24721W        W83982  16.127   6.758   0.260
24722W        W83983  35.090  33.973   2.405
24723W        W83984  30.507  12.316   0.430
24724W        W83985  13.129  16.764  10.587
24725W        W83986  21.096  20.721  12.994
24726W        W83987  13.143  26.626   3.719
24727W        W83988  13.659  33.410  10.482
24728W        W83989  19.048  37.018   1.878
24729W        W83990  10.684  32.038  13.796
24730W        W83991  32.461  36.867  12.935
24731W        W83992  36.438  39.433   1.278
24732W        W83993   9.802  39.550  14.409
24733W        W83994   2.404   5.263  12.067
24734W        W83995   2.905  35.060  10.994
24735W        W83996  20.767  38.429  11.948
24736W        W83997  26.468  39.356  10.588
24737W        W83998  39.337   1.961   2.359
24738W        W83999   9.185  19.153  11.592
24739W        W84000  35.449   2.242   0.391
24740W        W84001  25.634  18.613   3.193
24741W        W84002   9.652  24.650   0.447
24742W        W84003  42.385  13.696   3.854
24743W        W84004  27.507  44.440   2.719
24744W        W84005   9.881   7.741  10.620
24745W        W84006  44.979  37.895   2.713
24746W        W84007  16.608  30.948   0.480
24747W        W84008  38.926  21.220   1.809
24748W        W84009  36.531  13.737   3.338
24749W        W84010  43.998  25.690  13.328
24750W        W84011  27.600   0.432  10.455
24751W        W84012  42.477  25.568  13.048
24752W        W84013  30.016   9.377   1.776
24753W        W84014  37.471  18.622   3.754
24754W        W84015  43.331  20.095  12.075
24755W        W84016  35.910  19.218   0.764
24756W        W84017  40.951   1.962  10.455
24757W        W84018  10.736  24.592  13.475
24758W        W84019  23.162  39.993   1.836
24759W        W84020  35.024  22.722   2.388
24760W        W84021  15.700  42.853   5.264
24761W        W84022   3.944  10.874  11.991
24762W        W84023  41.941  14.605   2.758
24763W        W84024  44.983   2.730  12.871
24764W        W84025  38.008  21.558  12.025
24765W        W84026  42.819  44.352  12.856
24766W        W84027  15.795  28.017  12.842
24767W        W84028  33.611   1.830  13.811
24768W        W84029  33.129  32.987   1.411
24769W        W84030   1.386  11.859  14.837
24770W        W84031  30.502  16.093  12.547
24771W        W84032  24.564  44.997   2.894
24772W        W84033  17.596  11.132  11.084
24773W        W84034   5.198  27.516  11.575
24774W        W84035  21.076  29.958  13.914
24775W        W84036  10.694  10.213   1.912
24776W        W84037  39.822   6.890   3.726
24777W        W84038  12.813  23.611  11.415
24778W        W84039  17.791  27.032   1.831
24779W        W84040  20.763  21.066   5.237
24780W        W84041  12.329  43.373   3.678
24781W        W84042   4.228  18.673  13.498
24782W        W84043  30.659  34.425  12.882
24783W        W84044  24.029  41.397  13.307
24784W        W84045  41.954  31.523  14.414
24785W        W84046  14.710  28.053  13.909
24786W        W84047   2.787   7.280   2.359
24787W        W84048  27.493   2.374   1.758
24788W        W84049  39.037  32.998   3.358
24789W        W84050  26.984   6.404   3.345
24790W        W84051   2.431   5.403   2.314
24791W        W84052  42.308  16.309   3.727
24792W        W84053  22.191  19.213   9.509
24793W        W84054   9.367  32.456  14.482
24794W        W84055  10.641  40.419  13.974
24795W        W84056  43.349  13.674  12.394
24796W        W84057  35.864  33.519   1.430
24797W        W84058  30.462  42.305  14.472
24798W        W84059  19.166  39.011  13.883
24799W        W84060   7.726  26.591  12.922
24800W        W84061  21.182  39.902  11.480
24801W        W84062  22.222  26.536   2.250
24802W        W84063  38.409  26.205  11.036
24803W        W84064  28.168  34.374   4.190
24804W        W84065  38.569  39.330  13.049
24805W        W84066  31.009  40.348   1.249
24806W        W84067  13.703  13.808   2.796
24807W        W84068  14.246  41.378  14.894
24808W        W84069  24.581  21.060   4.255
24809W        W84070  12.260   4.809  14.314
24810W        W84071   1.851  19.162   3.145
24811W        W84072   2.944   8.206   3.238
24812W        W84073  10.634  33.019  13.992
24813W        W84074  29.664  38.338  14.458
24814W        W84075  16.137  31.510  11.046
24815W        W84076  15.233  29.980  14.855
24816W        W84077  11.656  16.078   4.317
24817W        W84078  12.253  29.584   0.896
24818W        W84079   6.314  14.694  12.027
24819W        W84080   7.873  37.498   2.883
24820W        W84081  35.901  10.321   4.611
24821W        W84082  34.899  35.865   3.161
24822W        W84083  23.510  19.720  13.796
24823W        W84084  10.319   3.755  11.509
24824W        W84085  11.341  17.211  10.980
24825W        W84086  13.629   3.953   0.830
24826W        W84087   6.389   1.476   0.820
24827W        W84088  10.800   9.345  13.919
24828W        W84089  39.468   2.903  10.484
24829W        W84090  39.509  32.631  13.310
24830W        W84091  43.019   8.900   4.655
24831W        W84092  44.934   8.800  11.486
24832W        W84093  17.146  26.548  14.441
24833W        W84094  15.268  38.889  10.428
24834W        W84095  24.677  29.004   4.626
24835W        W84096  37.452  37.034  14.899
24836W        W84097   0.980  44.856   3.344
24837W        W84098  42.350  28.035   4.834
24838W        W84099  19.738  29.997  11.461
24839W        W84100  16.161  38.903  12.348
24840W        W84101  29.531   5.335   0.446
24841W        W84102  39.442  33.427  11.863
24842W        W84103  22.617  34.423   2.320
24843W        W84104  15.154  18.767   1.872
24844W        W84105  11.277  35.523   4.260
24845W        W84106   4.398  23.621  13.943
24846W        W84107   8.161  25.973   3.186
24847W        W84108  26.057  43.371  13.473
24848W        W84109  25.505  42.377  14.923
24849W        W84110  43.992  34.937   4.609
24850W        W84111  30.138  10.825  11.033
24851W        W84112  12.318  23.568  12.942
24852W        W84113  38.001  38.037  11.586
24853W        W84114  36.039  44.872   5.741
24854W        W84115  16.593  28.150   0.816
24855W        W84116  37.438   2.363  13.330
24856W        W84117  21.063  41.920   5.262
24857W        W84118  32.140  37.419  14.303
24858W        W84119  33.399  44.435   0.874
24859W        W84120  16.572  40.539   2.337
24860W        W84121   5.865  17.247  11.856
24861W        W84122  12.363  13.751  12.928
24862W        W84123  20.105  20.727   3.174
24863W        W84124   4.366  38.847  11.568
24864W        W84125   2.888  33.427   0.780
24865W        W84126  30.462  13.791   0.939
24866W        W84127  43.892  32.946   4.252
24867W        W84128  31.459  13.844   4.254
24868W        W84129  24.562  27.680  13.993
24869W        W84130   3.315  41.908  12.441
24870W        W84131   1.380   7.724   2.894
24871W        W84132  25.700  15.759   3.661
24872W        W84133  37.493  11.305   4.203
24873W        W84134  35.527  37.548  10.002
24874W        W84135  40.388   8.679   2.314
24875W        W84136  23.071  23.022   1.914
24876W        W84137  22.029  34.613  14.507
24877W        W84138  41.946   3.942  13.936
24878W        W84139   3.264  30.146   1.220
24879W        W84140  35.924  28.186  14.296
24880W        W84141  25.143  42.347  12.937
24881W        W84142  13.748  34.423  11.551
24882W        W84143  25.545  36.370  11.110
24883W        W84144  24.611  12.619   0.421
24884W        W84145   6.249  34.381   5.298
24885W        W84146   7.175  27.054  14.784
24886W        W84147   0.392  33.949  14.940
24887W        W84148  24.566   6.199   4.807
24888W        W84149  25.985  36.530  12.999
24889W        W84150  33.976  16.605   1.714
24890W        W84151  32.566   4.274   3.371
24891W        W84152  13.265  31.896  10.092
24892W        W84153   3.757   2.375   1.791
24893W        W84154   5.290  43.913   4.350
24894W        W84155  38.868  37.574  11.061
24895W        W84156  33.913  33.117   4.212
24896W        W84157  16.128  40.897  14.771
24897W        W84158  39.848   9.214   4.241
24898W        W84159   4.865  16.238   3.688
24899W        W84160   6.894  42.285  12.339
24900W        W84161  11.656  25.173   1.356
24901W        W84162  36.424   6.271   3.189
24902W        W84163  23.185  33.484  12.571
24903W        W84164  17.162   5.282  14.986
24904W        W84165  21.707   0.765  12.541
24905W        W84166   3.453  19.099   3.209
24906W        W84167  12.292  44.911   3.329
24907W        W84168  16.723   7.687   1.315
24908W        W84169   2.823  38.825   0.889
24909W        W84170  26.475  25.084  12.004
24910W        W84171  37.378  32.610   0.462
24911W        W84172   6.886  28.138   1.265
24912W        W84173  25.175  21.678   2.304
24913W        W84174  44.931  37.963  14.376
24914W        W84175   1.346   1.296   1.716
24915W        W84176  32.068  14.285   5.718
24916W        W84177  10.848  28.504  12.943
24917W        W84178  18.211  28.628   2.319
24918W        W84179  34.869  14.306   4.130
24919W        W84180  30.650  39.354  13.878
24920W        W84181  22.125   7.900  13.910
24921W        W84182   6.892  22.039   1.352
24922W        W84183  37.077  25.524   3.195
24923W        W84184   9.304  36.496  10.904
24924W        W84185  25.642  14.162   3.639
24925W        W84186  26.128  24.652   1.908
24926W        W84187   2.226  44.918   4.759
24927W        W84188  40.974  20.218   2.195
24928W        W84189  28.466  30.998   1.826
24929W        W84190  17.635  23.587  12.512
24930W        W84191  31.953  20.557  12.858
24931W        W84192  38.545  10.382   1.831
24932W        W84193  24.023  14.650   3.373
24933W        W84194  31.123  38.363  13.911
24934W        W84195   3.907  15.105   1.299
24935W        W84196   8.657  15.243  13.987
24936W        W84197  39.465   5.909  12.876
24937W        W84198  24.998  36.039  10.131
24938W        W84199  41.956  24.685  11.503
24939W        W84200   6.830  10.172   1.773
24940W        W84201  43.957  15.149  14.285
24941W        W84202  36.028  17.128   0.921
24942W        W84203  24.117  17.292   4.294
24943W        W84204   0.984  26.967   4.729
24944W        W84205  19.704   0.947  14.478
24945W        W84206   2.731  14.108  12.488
24946W        W84207  16.719  13.142  11.040
24947W        W84208  25.494  43.955   0.911
24948W        W84209   9.875  20.137  11.381
24949W        W84210  32.921   4.872   2.195
24950W        W84211  35.470  10.668   4.655
24951W        W84212  42.396   6.377  12.495
24952W        W84213  19.602   5.783  12.365
24953W        W84214  31.465   4.875  11.498
24954W        W84215  16.749  39.413  14.791
24955W        W84216  16.723  36.544  12.866
24956W        W84217  38.546  28.060  11.503
24957W        W84218  41.528   5.309  14.809
24958W        W84219  36.365  11.225  11.479
24959W        W84220  11.780  32.624  13.369
24960W        W84221  42.927  16.601   3.255
24961W        W84222  44.399  13.667  10.049
24962W        W84223  29.154  40.830  14.323
24963W        W84224  36.416  25.162   2.681
24964W        W84225  28.641  44.916   1.886
24965W        W84226   2.745  34.517   3.366
24966W        W84227  12.313  12.137  14.925
24967W        W84228  40.871  24.617  11.008
24968W        W84229  32.571  10.822   2.832
24969W        W84230  12.321  26.536  10.910
24970W        W84231  33.626  30.461  13.962
24971W        W84232  41.325  13.211  14.898
24972W        W84233  26.186  24.030  11.928
24973W        W84234  18.618  19.102  10.495
24974W        W84235   1.943  13.177   0.449
24975W        W84236  36.873  19.071  13.967
24976W        W84237  11.244  16.167  12.026
24977W        W84238  28.070  35.016   2.876
24978W        W84239  14.182  12.696  13.334
24979W        W84240  41.318  12.778   2.691
24980W        W84241  14.776  30.984   0.777
24981W        W84242  15.183   4.401   5.141
24982W        W84243  23.991  35.854  14.776
24983W        W84244  22.084  29.555  12.529
24984W        W84245  15.297  20.093   1.881
24985W        W84246  19.690  30.643  12.424
24986W        W84247  36.388  39.318   3.236
24987W        W84248  33.502  31.416   0.741
24988W        W84249   5.261  25.019   3.848
24989W        W84250  40.488  21.021   2.763
24990W        W84251  36.384  28.138   4.346
24991W        W84252  12.328  27.188  14.984
24992W        W84253  32.603  12.274  13.955
24993W        W84254  34.895  30.421   2.810
24994W        W84255  39.908  21.539  12.087
24995W        W84256  12.796  21.532   3.221
24996W        W84257  38.069   7.229  10.630
24997W        W84258   4.765  30.617   0.930
24998W        W84259   1.315   6.374   3.335
24999W        W84260  16.604  40.430  11.983
25000W        W84261  31.604  33.383  13.923
25001W        W84262  28.616   7.863  12.513
25002W        W84263   2.455  21.594   1.873
25003W        W84264   5.339  39.513  11.924
25004W        W84265  30.995   3.394  14.031
25005W        W84266  12.122  13.655   0.926
25006W        W84267   4.252  30.427  14.027
25007W        W84268   4.778  29.138   3.745
25008W        W84269   8.248  42.987   0.805
25009W        W84270  44.475  36.484   2.814
25010W        W84271   0.873   4.359   2.727
25011W        W84272  42.818   7.878  10.956
25012W        W84273  28.467   3.953   2.219
25013W        W84274  23.720  43.859   3.739
25014W        W84275   7.762  24.108   5.187
25015W        W84276  43.448  28.001   1.837
25016W        W84277  39.812  43.503  13.920
25017W        W84278   0.909  14.097   4.708
25018W        W84279  18.637  43.792  12.006
25019W        W84280  39.854  28.617   3.246
25020W        W84281  24.675  16.658  14.886
25021W        W84282  21.238  42.335   1.445
25022W        W84283   3.728  44.318   4.236
25023W        W84284  22.600  31.036  10.986
25024W        W84285  21.742  33.385   4.349
25025W        W84286   8.225  44.931  12.382
25026W        W84287  12.357  14.790   1.303
25027W        W84288  17.707  25.628  14.997
25028W        W84289  27.514  11.812  13.830
25029W        W84290   2.954  12.242   1.807
25030W        W84291  42.800  41.305  10.445
25031W        W84292   7.696  42.306  12.999
25032W        W84293  26.504  23.492   3.781
25033W        W84294   5.262  19.044  11.486
25034W        W84295  16.765   1.853  11.064
25035W        W84296  20.672  36.512   0.855
25036W        W84297  10.283   3.749   2.316
25037W        W84298  29.621  32.417   2.370
25038W        W84299  44.919  35.558  10.916
25039W        W84300   0.856  30.648  14.513
25040W        W84301  20.035  30.456   2.259
25041W        W84302  32.524  21.077   3.726
25042W        W84303  36.372  42.380  14.963
25043W        W84304   9.368  21.074   2.745
25044W        W84305  25.152  19.692  12.945
25045W        W84306  36.461  41.351   3.346
25046W        W84307  36.398  14.762  12.923
25047W        W84308  35.543  24.193   3.192
25048W        W84309  18.165  29.424  10.618
25049W        W84310  11.838  16.572  11.427
25050W        W84311  28.531  35.101   5.180
25051W        W84312  15.253  26.533   4.319
25052W        W84313  27.155  33.380   3.760
25053W        W84314  17.267  14.326  10.566
25054W        W84315  42.341  41.387  11.058
25055W        W84316  15.249   1.757   0.452
25056W        W84317  22.167  24.068  11.610
25057W        W84318   1.353   5.213  12.922
25058W        W84319  32.111  21.606   4.164
25059W        W84320  25.002  14.599  14.861
25060W        W84321  25.535  25.544   1.794
25061W        W84322   3.780  16.592   4.725
25062W        W84323  21.618  33.550   2.245
25063W        W84324  25.485  41.935   1.905
25064W        W84325  26.583  42.295   3.324
25065W        W84326  34.118  27.980  13.478
25066W        W84327  39.899  30.138  12.503
25067W        W84328   8.869  22.045  14.506
25068W        W84329  33.409  12.265   2.306
25069W        W84330   8.782  20.150  13.947
25070W        W84331  12.640  35.002  11.612
25071W        W84332  32.096  30.633  10.608
25072W        W84333  21.110  29.585   2.881
25073W        W84334  25.080   0.340  12.969
25074W        W84335  24.156  10.305   4.735
25075W        W84336   4.778  15.250  11.987
25076W        W84337  21.148  44.411  13.824
25077W        W84338  35.447  23.617  11.611
25078W        W84339   6.334   4.875  11.430
25079W        W84340   8.901  14.647  14.447
25080W        W84341  13.730   7.257   3.347
25081W        W84342  18.156   6.343   2.257
25082W        W84343  14.279   0.296  12.917
25083W        W84344  13.829  28.159  14.854
25084W        W84345  10.258  37.530   4.187
25085W        W84346  23.038   6.252   1.935
25086W        W84347  44.791   8.209  13.917
25087W        W84348  28.595  10.237   2.740
25088W        W84349  19.673  23.026  11.963
25089W        W84350  43.439   0.315   5.134
25090W        W84351  13.320   0.973   5.109
25091W        W84352  10.363  10.665   4.671
25092W        W84353   7.695  28.544  11.511
25093W        W84354  31.015   2.948   0.414
25094W        W84355  36.066  37.505  11.932
25095W        W84356  20.611  33.411   2.845
25096W        W84357   1.323  40.413  11.084
25097W        W84358   5.314  12.809   2.307
25098W        W84359   6.914  41.306  14.359
25099W        W84360  17.116  28.160   1.319
25100W        W84361  22.718   3.796  13.385
25101W        W84362  28.091  22.141   0.728
25102W        W84363  42.282   5.772   4.611
25103W        W84364  21.523   7.720   3.725
25104W        W84365  36.382  34.600   5.706
25105W        W84366  21.146   4.795   3.701
25106W        W84367  12.670  34.535   0.963
25107W        W84368  33.071  40.900  11.861
25108W        W84369  32.024  23.208  11.505
25109W        W84370  33.894   3.893  14.433
25110W        W84371   4.316  10.167  12.069
25111W        W84372  41.492  32.496  13.854
25112W        W84373   7.883  11.840  14.362
25113W        W84374  32.458  19.747  11.523
25114W        W84375   2.302  33.081  10.426
25115W        W84376  42.795  25.019   3.304
25116W        W84377  32.054  27.194   2.351
25117W        W84378  36.462  22.106  14.428
25118W        W84379  10.859  19.719   4.676
25119W        W84380   4.385  27.578  10.632
25120W        W84381  10.740   1.911   0.441
25121W        W84382  20.217  33.521  14.880
25122W        W84383   1.812  26.509  13.440
25123W        W84384  26.002  36.924  14.924
25124W        W84385  43.813  24.559   2.772
25125W        W84386  38.008  24.113   1.368
25126W        W84387   1.854  39.349  14.979
25127W        W84388  12.322   7.845   4.659
25128W        W84389  38.052  39.386  14.397
25129W        W84390  24.601  31.930  10.128
25130W        W84391  28.934  24.663   0.309
25131W        W84392  10.342  29.490  13.394
25132W        W84393  15.723   2.836   1.322
25133W        W84394  40.328  27.116   2.375
25134W        W84395  32.504  42.941   1.329
25135W        W84396  38.839  38.957   4.801
25136W        W84397  27.111  38.498   0.740
25137W        W84398  41.796  19.556  10.578
25138W        W84399  18.217   6.367   2.878
25139W        W84400   3.323  23.645  14.913
25140W        W84401   3.905  38.922  11.611
25141W        W84402  33.982  24.649   4.203
25142W        W84403   9.374   6.313   4.226
25143W        W84404  31.125  18.556  10.898
25144W        W84405  33.062  32.631   4.621
25145W        W84406  25.541  43.489  13.005
25146W        W84407   1.241  23.008  12.519
25147W        W84408  35.905  27.148  14.504
25148W        W84409  44.862  34.406  11.085
25149W        W84410  40.372   5.247  14.492
25150W        W84411   5.279  13.602  10.976
25151W        W84412  43.818  34.449  12.378
25152W        W84413  35.604  25.198   2.250
25153W        W84414  24.621  30.639   3.282
25154W        W84415   4.249  38.459   4.626
25155W        W84416  22.638   8.692   0.901
25156W        W84417  14.244  28.495  14.505
25157W        W84418  36.883  29.069   0.362
25158W        W84419  17.603  24.642  11.063
25159W        W84420   8.717   0.946   0.281
25160W        W84421  31.419   2.433  13.326
25161W        W84422   3.327  20.264  10.629
25162W        W84423  10.865  14.696   1.220
25163W        W84424  33.514  41.881  13.999
25164W        W84425  21.094  19.653   0.866
25165W        W84426  12.248  16.312  14.012
25166W        W84427  44.767   5.207  11.607
25167W        W84428  29.144   9.308   0.824
25168W        W84429  31.038  44.376   0.782
25169W        W84430   4.285  38.437  14.303
25170W        W84431  20.527  31.648   3.149
25171W        W84432  22.036  15.593   3.220
25172W        W84433  34.979  11.797  10.624
25173W        W84434  30.923  40.308  11.067
25174W        W84435  31.933  30.974   1.725
25175W        W84436  30.929  28.954  14.786
25176W        W84437   9.679  41.389   0.730
25177W        W84438   2.332  24.639   0.765
25178W        W84439  24.152  24.722  11.882
25179W        W84440  18.595  37.457   4.708
25180W        W84441  41.333  21.717   4.207
25181W        W84442  43.916  18.283  11.531
25182W        W84443  41.306  31.596  10.962
25183W        W84444  10.671  10.187  13.945
25184W        W84445  33.434  27.180  11.541
25185W        W84446   6.198  11.325  12.558
25186W        W84447   2.929   6.782  11.872
25187W        W84448  28.573  12.684   0.264
25188W        W84449  13.791  11.149   3.160
25189W        W84450   3.329  11.266  11.111
25190W        W84451  37.867   0.441   4.298
25191W        W84452   9.809  28.155   4.674
25192W        W84453   1.905  43.442   2.672
25193W        W84454  16.233  13.697  14.291
25194W        W84455  27.522  33.957   0.784
25195W        W84456   9.295  14.613  14.418
25196W        W84457  27.187  36.549   3.316
25197W        W84458  28.037  16.271   0.479
25198W        W84459  25.105  12.844  11.038
25199W        W84460  10.172  11.640   2.327
25200W        W84461  19.187  30.024  13.316
25201W        W84462  25.119   3.856  11.037
25202W        W84463  16.247  37.409  11.947
25203W        W84464  23.094  24.028  13.848
25204W        W84465  44.859  24.221  14.809
25205W        W84466  37.913  26.487   5.284
25206W        W84467   3.749  11.671  12.572
25207W        W84468   4.908  20.704   0.848
25208W        W84469  20.269  27.140  13.865
25209W        W84470  19.582  20.754   0.443
25210W        W84471   2.929   4.891  11.059
25211W        W84472  37.514  40.807   2.811
25212W        W84473  39.417  22.073   2.285
25213W        W84474  17.142  30.059  11.547
25214W        W84475   0.266   5.390  13.842
25215W        W84476  25.133  24.088  14.398
25216W        W84477  24.620  36.962   2.830
25217W        W84478  12.718  16.281  12.348
25218W        W84479  40.910  43.962  11.957
25219W        W84480  10.691  10.675  12.550
25220W        W84481  40.030  10.335   1.437
25221W        W84482  15.818  44.987   4.826
25222W        W84483  32.890  22.199  12.390
25223W        W84484  42.837   5.195  12.574
25224W        W84485  21.526  27.600  12.848
25225W        W84486  35.032   3.314  10.019
25226W        W84487  42.904   7.879   4.208
25227W        W84488  31.024   2.447   0.899
25228W        W84489  25.598  14.298   2.254
25229W        W84490  28.478  31.590  10.433
25230W        W84491  41.017  21.665   2.867
25231W        W84492   2.268  14.601   1.721
25232W        W84493  28.177  32.392   0.865
25233W        W84494   9.889  41.498   1.337
25234W        W84495  10.687  40.033   1.694
25235W        W84496   0.339  38.393   4.201
25236W        W84497  33.520  16.100   5.186
25237W        W84498  11.753  18.675   2.331
25238W        W84499  25.668  18.262   4.164
25239W        W84500  13.168  32.574  13.900
25240W        W84501   3.296  34.889  13.022
25241W        W84502  14.673  10.322   1.881
25242W        W84503  16.617  20.076  14.004
25243W        W84504  44.784   1.345  10.437
25244W        W84505  29.102  19.621   2.235
25245W        W84506  19.201  11.362  14.401
25246W        W84507  29.620  21.560  11.915
25247W        W84508  41.420   9.686  11.002
25248W        W84509  37.515  14.599   2.321
25249W        W84510  10.285  11.211  11.896
25250W        W84511  16.593  39.531  14.008
25251W        W84512  33.490  18.229   4.740
25252W        W84513   6.367  10.719   2.710
25253W        W84514   9.223  17.598  10.461
25254W        W84515   9.672  19.165  11.021
25255W        W84516  37.506   4.292   1.915
25256W        W84517  40.051  20.640   3.203
25257W        W84518   6.297  24.205  10.486
25258W        W84519  42.030   3.942  10.439
25259W        W84520  30.923  43.456   4.818
25260W        W84521  17.745  44.938   1.790
25261W        W84522  38.873   2.889   3.657
25262W        W84523  18.692  16.270  12.511
25263W        W84524  30.544  28.034  13.973
25264W        W84525  14.148  25.161   2.762
25265W        W84526  14.812  27.185   3.175
25266W        W84527   3.403  14.829   3.377
25267W        W84528   6.757  20.759   2.348
25268W        W84529   2.236  24.592  13.910
25269W        W84530   9.381  35.034   1.900
25270W        W84531  37.425  14.156   4.609
25271W        W84532  26.509  20.695   2.240
25272W        W84533   5.386   6.884   0.756
25273W        W84534  12.160   1.757  11.562
25274W        W84535  27.647  40.884   1.329
25275W        W84536  21.707  39.472   0.788
25276W        W84537  40.421  16.120  13.859
25277W        W84538  15.611  40.358  12.825
25278W        W84539   5.863  28.504   1.248
25279W        W84540   8.187  26.162  11.514
25280W        W84541  32.132  29.648  13.419
25281W        W84542  33.509  24.035  10.492
25282W        W84543   0.296  38.854  13.827
25283W        W84544   1.421   8.288  12.881
25284W        W84545  23.006   4.939   4.641
25285W        W84546  38.880  39.875  14.807
25286W        W84547  15.714  41.865  12.072
25287W        W84548  35.085  25.211   2.876
25288W        W84549  19.093  27.677  13.941
25289W        W84550  42.830  11.368   4.238
25290W        W84551  35.035  32.053   5.124
25291W        W84552  28.542  16.153   2.775
25292W        W84553   5.381  37.520   1.831
25293W        W84554   6.263  25.115  13.019
25294W        W84555   1.242   0.936   0.432
25295W        W84556   8.900   7.789   0.411
25296W        W84557  37.973  14.616   1.324
25297W        W84558   4.317  18.604   0.804
25298W        W84559  18.631  43.460  13.991
25299W        W84560  18.203  35.367   1.329
25300W        W84561  20.731   4.236   1.893
25301W        W84562  33.625   3.752  11.074
25302W        W84563  13.720  36.871   0.879
25303W        W84564   9.249   0.914   4.780
25304W        W84565  44.866  44.351  10.414
25305W        W84566  40.924  34.391  12.458
25306W        W84567  20.736  38.993   1.763
25307W        W84568  22.251  29.484  13.447
25308W        W84569  16.629   2.242  14.978
25309W        W84570  42.309  35.403   1.932
25310W        W84571  38.957  10.342   3.630
25311W        W84572  26.701  18.246  13.901
25312W        W84573   5.307  34.397   4.825
25313W        W84574  22.126  44.863   3.308
25314W        W84575  39.421  37.432  13.907
25315W        W84576  11.779  40.362  14.457
25316W        W84577  24.167  15.718   2.363
25317W        W84578   6.196  43.400   2.417
25318W        W84579  27.585   7.740   0.458
25319W        W84580  44.949  18.076   0.390
25320W        W84581  19.123  44.996  11.543
25321W        W84582  35.858   3.900  13.800
25322W        W84583   0.493  17.571  10.941
25323W        W84584  18.113  16.640   0.740
25324W        W84585  15.610  32.406   5.258
25325W        W84586  14.155  15.084  12.976
25326W        W84587  13.837  33.897   2.301
25327W        W84588  31.902  42.999  14.890
25328W        W84589  35.402   4.406   1.338
25329W        W84590  40.908  15.084  14.881
25330W        W84591  23.657  17.720   4.315
25331W        W84592  23.685  11.640   3.704
25332W        W84593  41.434  28.932   0.302
25333W        W84594  21.139  15.229  14.948
25334W        W84595  14.661  20.105   3.278
25335W        W84596  19.546  29.954   1.806
25336W        W84597  41.841  16.170  11.994
25337W        W84598  25.626  40.047  12.855
25338W        W84599  28.162  41.794  14.478
25339W        W84600  44.822   5.827  12.390
25340W        W84601  23.492  31.975  10.900
25341W        W84602  17.682  30.924   4.309
25342W        W84603   3.797  32.076  13.353
25343W        W84604  42.370  21.222   2.709
25344W        W84605  11.767  15.591   2.745
25345W        W84606  15.644  37.052   0.854
25346W        W84607  22.209  27.579   2.810
25347W        W84608  39.901  10.165   2.876
25348W        W84609  39.968   2.289  13.547
25349W        W84610   9.793  23.039   2.238
25350W        W84611   4.880  14.311   3.328
25351W        W84612   4.761  10.227  11.887
25352W        W84613   0.967   3.268  14.007
25353W        W84614   5.286  36.951  12.557
25354W        W84615  21.252  35.523  12.028
25355W        W84616  37.404  28.513   0.958
25356W        W84617  29.122  21.030  10.089
25357W        W84618   1.323  18.644   3.860
25358W        W84619  13.311  41.815  10.469
25359W        W84620  39.885  20.662   4.213
25360W        W84621  23.108   9.657  13.510
25361W        W84622  33.878  42.786   0.430
25362W        W84623  28.056  23.653   2.213
25363W        W84624  21.066  35.882   2.258
25364W        W84625  42.861  26.202  13.818
25365W        W84626  10.247  11.776  12.042
25366W        W84627  27.092  39.868   0.881
25367W        W84628  15.706  40.997  11.407
25368W        W84629  25.493  28.520  13.832
25369W        W84630  44.866  16.287   1.865
25370W        W84631  41.993  31.094  11.587
25371W        W84632  23.648  40.454  11.610
25372W        W84633   2.894  35.107   0.457
25373W        W84634  40.848  35.078   0.963
25374W        W84635  23.497  22.608   3.185
25375W        W84636   9.326  43.010  14.936
25376W        W84637  43.804  20.630  13.050
25377W        W84638   1.767  26.005  12.980
25378W        W84639  42.867  37.352  10.442
25379W        W84640  16.235  20.569  11.508
25380W        W84641  38.531  33.481  10.429
25381W        W84642  10.791  22.692  10.620
25382W        W84643  25.156  22.700   2.220
25383W        W84644  41.513  19.255  14.004
25384W        W84645  11.307   3.452  14.490
25385W        W84646   1.771  20.621  14.000
25386W        W84647  31.450  17.651   0.413
25387W        W84648   7.887  31.927  13.386
25388W        W84649  38.869  33.607  11.887
25389W        W84650  41.463   3.380   2.236
25390W        W84651  40.006  20.091  12.888
25391W        W84652  20.115   9.726  14.018
25392W        W84653   3.235  11.743   0.376
25393W        W84654  34.569  34.093   1.864
25394W        W84655   1.335  28.001  13.017
25395W        W84656  36.896  41.316   4.212
25396W        W84657  18.255  28.615   0.728
25397W        W84658  15.122  10.761  14.860
25398W        W84659   5.417  41.394  14.512
25399W        W84660  38.037   3.459   4.638
25400W        W84661  34.926  44.495   2.828
25401W        W84662  19.073  24.126   0.323
25402W        W84663  23.702  25.693   0.353
25403W        W84664  40.358   6.333  13.322
25404W        W84665  30.025  44.316  10.963
25405W        W84666  25.210  21.553  11.050
25406W        W84667  35.415  25.556  11.524
25407W        W84668   9.673   0.361  14.387
25408W        W84669   8.290   0.754   1.790
25409W        W84670  38.491  37.545   1.706
25410W        W84671  43.345  15.628  11.394
25411W        W84672  11.640  17.702   3.255
25412W        W84673  15.714  31.919   4.254
25413W        W84674  37.873  22.659   4.249
25414W        W84675  27.680  18.121   2.860
25415W        W84676  15.311  13.156  11.531
25416W        W84677  36.487  31.633  11.947
25417W        W84678   4.844  33.075   4.353
25418W        W84679  32.431   9.268   0.810
25419W        W84680  42.377  29.925   3.820
25420W        W84681  41.919  13.174   1.842
25421W        W84682   2.340  20.158   3.371
25422W        W84683  10.844  22.602   4.736
25423W        W84684  32.428  30.484   2.207
25424W        W84685  42.920  23.212  11.404
25425W        W84686  14.158  27.493  11.122
25426W        W84687  11.343  39.361  11.029
25427W        W84688  16.811  37.495  12.956
25428W        W84689  29.599  42.422   2.313
25429W        W84690  26.962  32.009  11.910
25430W        W84691  24.701  15.291  11.429
25431W        W84692  10.799  10.800   4.230
25432W        W84693  24.641   9.372  14.847
25433W        W84694  36.063  44.863  10.970
25434W        W84695  14.141  15.744  14.829
25435W        W84696  21.587   4.861   1.310
25436W        W84697  24.031   3.914  11.893
25437W        W84698  19.073  18.267   2.884
25438W        W84699  28.977   0.916   2.352
25439W        W84700  39.045  41.296   4.599
25440W        W84701  36.389  22.597   1.720
25441W        W84702  44.887  27.061   4.354
25442W        W84703  28.151  36.064   3.381
25443W        W84704  13.200   5.844  13.974
25444W        W84705  27.682  35.920   3.642
25445W        W84706  42.884  22.652   3.355
25446W        W84707  16.792  28.162   1.433
25447W        W84708   6.248  22.658   3.322
25448W        W84709  38.946   4.700   4.753
25449W        W84710  18.707  11.754   2.407
25450W        W84711  42.818  31.103   0.907
25451W        W84712   5.743   3.938   3.685
25452W        W84713  25.052   4.808   2.301
25453W        W84714  23.057   0.266   3.713
25454W        W84715   1.917  15.586   0.307
25455W        W84716  27.553  34.095   9.937
25456W        W84717  20.645  43.489  11.541
25457W        W84718  27.683  37.894  10.570
25458W        W84719  22.737   0.828   4.329
25459W        W84720  40.476  14.181   0.940
25460W        W84721  42.941   7.191  14.320
25461W        W84722  14.649  30.480   9.541
25462W        W84723   1.254  37.563   5.304
25463W        W84724  31.556  12.735   2.720
25464W        W84725  28.650  21.248   2.287
25465W        W84726   0.810  27.538   3.324
25466W        W84727   3.216  21.545  11.551
25467W        W84728  23.134  19.193   0.949
25468W        W84729  44.287  13.348  11.505
25469W        W84730  15.192  43.300  11.003
25470W        W84731   9.784  23.726   0.729
25471W        W84732  41.393  28.547  11.596
25472W        W84733  24.704  24.066   3.633
25473W        W84734   0.249  34.599  12.973
25474W        W84735  12.776  11.357   3.267
25475W        W84736  10.638  36.884  10.938
25476W        W84737   1.872  22.156  11.125
25477W        W84738  38.990  23.684  10.140
25478W        W84739  40.432   0.811   2.895
25479W        W84740  30.580  16.138   2.278
25480W        W84741  11.689  28.500   1.725
25481W        W84742  11.862  29.156   4.277
25482W        W84743  33.882  15.741  13.391
25483W        W84744  27.624   0.892   2.865
25484W        W84745   0.745  40.854  12.483
25485W        W84746  35.511  17.612  12.918
25486W        W84747   5.825  15.643   4.773
25487W        W84748   6.265   9.830   4.792
25488W        W84749   6.801   9.250   0.752
25489W        W84750   3.249  41.433   3.829
25490W        W84751  35.896  20.618   1.785
25491W        W84752  21.668   6.280  11.452
25492W        W84753  20.186  35.078  12.971
25493W        W84754  36.069  41.043   0.408
25494W        W84755  31.498  27.146  12.559
25495W        W84756  38.963  40.938  14.953
25496W        W84757  29.654  20.234  12.857
25497W        W84758   3.861  17.069   3.739
25498W        W84759  33.421  33.438  14.828
25499W        W84760  17.751   3.741   2.735
25500W        W84761  17.623  14.614   0.307
25501W        W84762  32.577  43.480  12.084
25502W        W84763  30.506  19.569  10.486
25503W        W84764  22.547  10.263   2.786
25504W        W84765   6.355   3.220   1.846
25505W        W84766   8.307  12.760  13.328
25506W        W84767   2.306  15.598  14.968
25507W        W84768  21.155  37.870   4.203
25508W        W84769  14.132  23.511  14.763
25509W        W84770  31.073  43.849  12.967
25510W        W84771  15.220   8.372   0.731
25511W        W84772  17.262  32.608  14.360
25512W        W84773   6.358   0.919  13.455
25513W        W84774   5.306  12.268   1.275
25514W        W84775  31.500  41.978  13.906
25515W        W84776   7.297  10.663  13.387
25516W        W84777   9.304  14.682   2.211
25517W        W84778  11.760  10.286  13.386
25518W        W84779  13.115  27.122  11.036
25519W        W84780  32.525  35.029   3.796
25520W        W84781  23.002  12.310  13.464
25521W        W84782  16.628   2.886  13.515
25522W        W84783   3.838  35.941   3.806
25523W        W84784  15.676   4.375   9.662
25524W        W84785  32.100  21.221   1.767
25525W        W84786  34.588  14.777   2.890
25526W        W84787  32.526   9.278   2.771
25527W        W84788   7.837  10.215  13.957
25528W        W84789  36.985  27.466  10.515
25529W        W84790   9.835  30.608  12.036
25530W        W84791  12.674  36.458   2.774
25531W        W84792  14.778   3.451  12.009
25532W        W84793  35.571   3.788  12.366
25533W        W84794  26.630  22.612   1.830
25534W        W84795  23.159  15.169  11.535
25535W        W84796  13.311  32.585   3.794
25536W        W84797  30.536  29.544   0.480
25537W        W84798   8.835   3.788  14.966
25538W        W84799  37.954  40.808   0.275
25539W        W84800  39.816   8.290  13.455
25540W        W84801  39.031  31.923   2.336
25541W        W84802   5.280  10.641  10.533
25542W        W84803  18.571  43.277  14.459
25543W        W84804  28.077  41.384   3.776
25544W        W84805   8.388  31.968   2.220
25545W        W84806  42.835  39.919  13.362
25546W        W84807  19.671  35.410  12.903
25547W        W84808   0.928  43.402  10.968
25548W        W84809   3.848  33.108  12.399
25549W        W84810  23.703  40.435  14.963
25550W        W84811  32.941   4.427  14.388
25551W        W84812  38.863  22.671  10.583
25552W        W84813   9.310  44.842   3.795
25553W        W84814  37.045  36.348  11.492
25554W        W84815  27.515  24.158  10.600
25555W        W84816  27.593  42.463  11.428
25556W        W84817  14.687  26.505   0.871
25557W        W84818  10.324   0.265   0.739
25558W        W84819   5.927  27.458  12.840
25559W        W84820  28.676  38.031   3.220
25560W        W84821  33.003  15.671   3.747
25561W        W84822  37.570  25.667  14.801
25562W        W84823  26.152  26.135   3.782
25563W        W84824  32.967  21.551   3.811
25564W        W84825  27.534  41.455   2.195
25565W        W84826  10.183  22.136   1.859
25566W        W84827  42.853   0.829   0.414
25567W        W84828  30.963  36.885  13.465
25568W        W84829   2.864   2.247   0.350
25569W        W84830  21.627  37.511  10.573
25570W        W84831   7.771   7.830   0.888
25571W        W84832   8.293  24.522  10.916
25572W        W84833   3.907   7.898   1.283
25573W        W84834  15.758   9.656   4.675
25574W        W84835  44.451  11.708  12.042
25575W        W84836  20.595  43.889  14.435
25576W        W84837   3.868   4.827  13.436
25577W        W84838  44.834   8.880   3.329
25578W        W84839  18.694  20.133  10.137
25579W        W84840  29.083   6.844   3.324
25580W        W84841  16.133  34.105   4.307
25581W        W84842  38.433  39.385   9.923
25582W        W84843  35.430  21.163  11.074
25583W        W84844  35.045  22.168  12.465
25584W        W84845   1.962  35.518  13.529
25585W        W84846  24.048   4.705   3.805
25586W        W84847   2.841  22.150   1.440
25587W        W84848   5.240  12.171  13.372
25588W        W84849  38.916   9.387  12.896
25589W        W84850  13.665   4.314   0.745
25590W        W84851  29.546   6.380   0.842
25591W        W84852   3.371  23.104   3.305
25592W        W84853  34.603   4.215   2.823
25593W        W84854  29.160  20.745   0.415
25594W        W84855  28.118  27.030   3.711
25595W        W84856  28.536  11.264   4.350
25596W        W84857  21.608   3.757   0.325
25597W        W84858   4.331  36.982   4.770
25598W        W84859  16.221  19.623   3.699
25599W        W84860  28.485   1.801  13.468
25600W        W84861  24.198  43.810  10.462
25601W        W84862  35.472  32.987  14.981
25602W        W84863   0.471  28.179  13.323
25603W        W84864  41.529  14.738   0.874
25604W        W84865  44.504  11.154  11.874
25605W        W84866   3.457  31.148   0.881
25606W        W84867   2.788  11.645  10.613
25607W        W84868  37.462  35.522  14.387
25608W        W84869  18.155  16.121  12.941
25609W        W84870  15.763   6.858   4.753
25610W        W84871  14.252  44.933  12.838
25611W        W84872  42.393  10.352   0.463
25612W        W84873  15.739  30.970  14.480
25613W        W84874  17.083   7.174   0.883
25614W        W84875  39.487  15.695   4.246
25615W        W84876  24.554  28.998   0.291
25616W        W84877   3.348  23.000  14.385
25617W        W84878  18.213   2.444  13.474
25618W        W84879   5.296  34.029  14.312
25619W        W84880  37.980  19.093  11.419
25620W        W84881   9.335  34.544   3.307
25621W        W84882  14.162  16.749  13.323
25622W        W84883  15.801  17.087   1.420
25623W        W84884  20.678  17.178  11.394
25624W        W84885  42.315   3.385  14.431
25625W        W84886  10.274  12.712   1.450
25626W        W84887  44.945  22.193   3.287
25627W        W84888  26.136   2.744  10.522
25628W        W84889  26.601  20.074   1.704
25629W        W84890  27.012  10.381   0.731
25630W        W84891   9.854  41.423  13.517
25631W        W84892   0.465  38.346  12.397
25632W        W84893  36.561  14.265   3.682
25633W        W84894  35.950  14.260  10.030
25634W        W84895  19.631  35.909   4.197
25635W        W84896   7.810  24.495   2.332
25636W        W84897  20.569   7.196  13.506
25637W        W84898   3.868  41.362  14.288
25638W        W84899  38.517   4.869   1.842
25639W        W84900  27.942  44.368   0.325
25640W        W84901   7.756   2.787  13.544
25641W        W84902  23.104  16.246  11.953
25642W        W84903  28.451   1.244   1.695
25643W        W84904   7.261  28.102  12.046
25644W        W84905   4.840  38.337   1.835
25645W        W84906   5.750  38.366   4.608
25646W        W84907  17.655   2.465  11.537
25647W        W84908   5.718  23.200   4.650
25648W        W84909  16.276   2.313   0.444
25649W        W84910  23.126  23.025  10.149
25650W        W84911  20.528  41.877   3.147
25651W        W84912  14.326  32.119   5.264
25652W        W84913   9.776  16.075  13.328
25653W        W84914   3.401  15.306  11.024
25654W        W84915  18.763   3.419  11.978
25655W        W84916   7.319  43.909   3.742
25656W        W84917   0.845   4.706   3.275
25657W        W84918  21.054  11.207  11.902
25658W        W84919   3.338  14.658   0.863
25659W        W84920  24.213  44.990  12.988
25660W        W84921  13.128  11.831  13.448
25661W        W84922  25.527  10.340  11.883
25662W        W84923   5.894  17.190   4.729
25663W        W84924  14.647  40.906  12.510
25664W        W84925   5.788  14.267  13.938
25665W        W84926   2.772  39.400   2.674
25666W        W84927  31.959  19.278  14.515
25667W        W84928  44.411  18.137  10.992
25668W        W84929  14.331   6.684  11.575
25669W        W84930  29.493   0.339   4.186
25670W        W84931  25.050  34.085   0.781
25671W        W84932  22.730  37.996  14.020
25672W        W84933  42.475  33.046  10.638
25673W        W84934  19.648  26.658   3.169
25674W        W84935  40.322   9.311   0.376
25675W        W84936  44.783  17.780  12.362
25676W        W84937  21.594   7.394   4.688
25677W        W84938  39.011  42.341  14.946
25678W        W84939  36.573  42.311  14.362
25679W        W84940  44.007   1.460  11.610
25680W        W84941  12.230  13.809  11.860
25681W        W84942  41.025  13.126   4.259
25682W        W84943  38.338  17.142  14.869
25683W        W84944  21.675  21.635  13.846
25684W        W84945   1.748  16.191   1.924
25685W        W84946   1.922  17.675   3.735
25686W        W84947   2.788  39.032   0.248
25687W        W84948  28.993   1.895   3.242
25688W        W84949  10.749  41.928  14.311
25689W        W84950  34.115  40.440  10.161
25690W        W84951   7.183   4.343   2.842
25691W        W84952  28.085  24.638   0.364
25692W        W84953  20.653  30.416   4.234
25693W        W84954   7.278  11.164   1.791
25694W        W84955   4.706  31.109   2.207
25695W        W84956  31.443  10.818   3.852
25696W        W84957  41.493  21.095  10.950
25697W        W84958  30.128  43.382  15.000
25698W        W84959  13.205   7.325  10.585
25699W        W84960  20.171  24.628  11.391
25700W        W84961  12.151  13.280   1.806
25701W        W84962  10.324  31.074  10.500
25702W        W84963  39.397  42.957   3.839
25703W        W84964  30.998   9.809  11.899
25704W        W84965  25.089   5.209  10.955
25705W        W84966  19.223   2.324   1.750
25706W        W84967   0.948  30.478   4.771
25707W        W84968   0.260  18.614  14.507
25708W        W84969  32.953  40.358  11.569
25709W        W84970  22.051  16.665   2.713
25710W        W84971  38.043  42.526   9.953
25711W        W84972  22.125  38.838   1.900
25712W        W84973  41.431   5.738   3.236
25713W        W84974  44.368  23.634  11.874
25714W        W84975  38.920  16.076  13.342
25715W        W84976   5.213   2.897  14.827
25716W        W84977  44.313   4.830  12.850
25717W        W84978  11.793   6.283  12.410
25718W        W84979  20.741  13.700   1.898
25719W        W84980  35.954  32.534  12.918
25720W        W84981  38.337  40.507   1.401
25721W        W84982  14.734   9.758  13.988
25722W        W84983  12.676   8.841   4.210
25723W        W84984  25.709   1.768   0.367
25724W        W84985  20.243  17.558  13.402
25725W        W84986  34.535  39.362   1.286
25726W        W84987   5.821  25.124  10.561
25727W        W84988   6.218  11.220  13.808
25728W        W84989   5.402  14.805  10.975
25729W        W84990   6.834   0.808   0.426
25730W        W84991  41.363  34.606  10.891
25731W        W84992  34.400  36.085  11.451
25732W        W84993  33.443  28.053  13.906
25733W        W84994  18.178  37.989  12.505
25734W        W84995   6.746   9.666   2.297
25735W        W84996   0.312  18.050   0.900
25736W        W84997  16.615  44.351  14.781
25737W        W84998   2.872  41.993   1.295
25738W        W84999  24.054  20.684  12.349
25739W        W85000  17.111  38.015   1.218
25740W        W85001  42.463  39.557   3.157
25741W        W85002  22.646  30.536  14.947
25742W        W85003  26.044  17.103  13.351
25743W        W85004  25.688  30.543  13.831
25744W        W85005  37.359  34.048   0.869
25745W        W85006  38.464   1.466   1.878
25746W        W85007  16.132   6.911   1.420
25747W        W85008  39.828  17.130  12.361
25748W        W85009  23.078  27.120   0.832
25749W        W85010  29.995  39.846   0.433
25750W        W85011   7.242   2.307   1.262
25751W        W85012  13.810  24.622  11.104
25752W        W85013  30.005  22.134  12.864
25753W        W85014   3.876  26.082  14.975
25754W        W85015  29.014  24.019  11.127
25755W        W85016  10.781  41.010   2.233
25756W        W85017  14.694   0.491  14.875
25757W        W85018  39.979  19.619   4.200
25758W        W85019  26.009  32.601   2.860
25759W        W85020  44.971   7.685   4.642
25760W        W85021  43.814   2.390   4.652
25761W        W85022  38.052  31.435   4.310
25762W        W85023   6.791  12.822  11.448
25763W        W85024   6.389  15.718   2.818
25764W        W85025  23.185  22.544   1.790
25765W        W85026  29.536  20.268   4.613
25766W        W85027  33.439   7.288   5.117
25767W        W85028  31.521   4.335   1.863
25768W        W85029  41.456  23.216  14.338
25769W        W85030  22.079   1.913   0.338
25770W        W85031  12.147   7.392   2.292
25771W        W85032  23.536  37.989   1.694
25772W        W85033  31.467  13.707   0.931
25773W        W85034  13.837  17.593  12.992
25774W        W85035   4.356  44.850   0.841
25775W        W85036  36.553  23.016   2.873
25776W        W85037  38.019  28.442   0.885
25777W        W85038  22.167  10.646  11.858
25778W        W85039   3.293  39.887  12.416
25779W        W85040  23.193  41.036   2.329
25780W        W85041  31.956  26.976   0.250
25781W        W85042  37.482  10.247  13.414
25782W        W85043  19.780  43.870  10.970
25783W        W85044   3.843  33.914   3.336
25784W        W85045  34.038  23.173  10.993
25785W        W85046  18.779   0.886   0.318
25786W        W85047   7.747  34.436   9.947
25787W        W85048   8.689  42.366   2.777
25788W        W85049  35.377  36.968   1.233
25789W        W85050  15.781  40.834   4.655
25790W        W85051  16.112  38.565  14.398
25791W        W85052   6.304  18.250   2.400
25792W        W85053  30.909  42.515  13.861
25793W        W85054  42.520  19.569   1.226
25794W        W85055  32.509   8.698  14.875
25795W        W85056  44.990  43.394  12.828
25796W        W85057  30.121  23.551  14.375
25797W        W85058   8.390  27.174   0.878
25798W        W85059   0.762  17.065  10.003
25799W        W85060  42.853  15.648   1.909
25800W        W85061  29.638  18.195  12.997
25801W        W85062   3.928  42.019  14.907
25802W        W85063   1.252   1.284   2.208
25803W        W85064  41.799  12.297   1.747
25804W        W85065  18.723  43.312   1.265
25805W        W85066  10.237  27.104  10.576
25806W        W85067  40.819  17.717   4.273
25807W        W85068  15.720  42.522  11.372
25808W        W85069  31.137   7.730  11.122
25809W        W85070   9.360  34.897  14.420
25810W        W85071  42.905  15.151   0.297
25811W        W85072  29.977  19.569  12.079
25812W        W85073  22.579  43.954   2.308
25813W        W85074  16.268  30.045   3.772
25814W        W85075  42.301   9.883  11.124
25815W        W85076  36.429   0.749  13.819
25816W        W85077  27.016   4.750  11.884
25817W        W85078  28.607  14.642  11.383
25818W        W85079  34.896   4.920   4.335
25819W        W85080  24.676   6.392  10.911
25820W        W85081  12.638   8.212   4.230
25821W        W85082  35.979  14.160  13.534
25822W        W85083  20.081   2.881   2.785
25823W        W85084   4.440  22.169   2.227
25824W        W85085   4.269   1.769   1.306
25825W        W85086  39.869  21.599  12.545
25826W        W85087   8.739  24.189  12.540
25827W        W85088  40.811  41.371  13.330
25828W        W85089  21.259  43.882   4.671
25829W        W85090  19.074   5.841  12.931
25830W        W85091  33.398  23.078  11.957
25831W        W85092  27.685  22.615  13.956
25832W        W85093   6.687  21.239   4.799
25833W        W85094   4.716  22.156  11.026
25834W        W85095   5.881  36.939   0.424
25835W        W85096  42.308   9.799  12.979
25836W        W85097  29.129  33.481  13.351
25837W        W85098  25.967   8.832  14.484
25838W        W85099   9.684  20.135  12.388
25839W        W85100  44.360  26.520   0.758
25840W        W85101   5.336  19.581  11.023
25841W        W85102  15.126  15.752   4.174
25842W        W85103  33.596   0.818   3.324
25843W        W85104  11.337  36.088   3.714
25844W        W85105  11.840  30.563   2.350
25845W        W85106  12.336  35.975   4.184
25846W        W85107  39.925  12.278   1.740
25847W        W85108  23.515  11.737  14.926
25848W        W85109  17.225  42.789   3.843
25849W        W85110  33.578   0.750  10.944
25850W        W85111   0.974  26.113  12.085
25851W        W85112   1.252   4.302   3.178
25852W        W85113   0.369  42.940  13.936
25853W        W85114  21.588   9.395  10.942
25854W        W85115  12.326  15.207   5.209
25855W        W85116  34.393  42.405  12.012
25856W        W85117  10.873  15.171  11.093
25857W        W85118   4.261  42.020  12.859
25858W        W85119  17.655  33.966  12.423
25859W        W85120  25.046  34.412   3.368
25860W        W85121  34.371  41.861  13.384
25861W        W85122  16.728  30.042  11.463
25862W        W85123  19.180  13.279   4.153
25863W        W85124  41.866  26.524  10.630
25864W        W85125  25.074  37.574  14.921
25865W        W85126   2.862   4.386   0.903
25866W        W85127   7.324  11.312   2.764
25867W        W85128   3.390  27.621  14.425
25868W        W85129  44.980   4.847  12.823
25869W        W85130  14.801  44.498   2.263
25870W        W85131  38.063  27.001   4.654
25871W        W85132  20.565  33.131  12.448
25872W        W85133   3.235  24.206   4.649
25873W        W85134  35.973  35.921  11.572
25874W        W85135  30.627  35.977  12.055
25875W        W85136  40.940   1.806  11.563
25876W        W85137  20.640   9.235   0.265
25877W        W85138  28.063  11.689   3.381
25878W        W85139  38.832  31.639  14.952
25879W        W85140   4.268   6.706   1.383
25880W        W85141  19.535  10.377  13.049
25881W        W85142  13.163  37.511  10.100
25882W        W85143   9.364  29.577  13.989
25883W        W85144  18.562  13.803  11.567
25884W        W85145  24.720  42.818   0.303
25885W        W85146  23.564  44.482   2.810
25886W        W85147   3.847  14.310   0.423
25887W        W85148  20.705   2.921  12.914
25888W        W85149  40.870  24.053   2.846
25889W        W85150  15.747  25.016   1.222
25890W        W85151  15.683  44.906   4.327
25891W        W85152  35.101  28.536  10.407
25892W        W85153  32.519  38.024   3.664
25893W        W85154  31.988  22.700   0.895
25894W        W85155  32.548  40.041  12.950
25895W        W85156   7.716  27.059  13.965
25896W        W85157   9.253  29.015  12.094
25897W        W85158  37.452   1.345   3.333
25898W        W85159  12.234   5.228   1.277
25899W        W85160  41.956  30.421  11.446
25900W        W85161  25.127   7.701  13.834
25901W        W85162  24.032  42.494   3.306
25902W        W85163  15.728  41.799   0.442
25903W        W85164  26.056  42.796  14.769
25904W        W85165  16.134  23.209  13.796
25905W        W85166   4.308  14.336   4.150
25906W        W85167  22.745  20.730  14.426
25907W        W85168  42.932   3.912   2.328
25908W        W85169   9.319  42.804  12.913
25909W        W85170  44.955  36.509   3.740
25910W        W85171   4.896   5.348   3.380
25911W        W85172  13.117  36.348  12.870
25912W        W85173  19.044  43.911   1.376
25913W        W85174  21.110   7.798   0.428
25914W        W85175  24.542  39.388   2.774
25915W        W85176  41.016  34.380   2.372
25916W        W85177  43.391  40.350   3.252
25917W        W85178  24.533  40.518  11.514
25918W        W85179  20.230  35.968  12.371
25919W        W85180  10.232  12.317   1.252
25920W        W85181  24.111  10.229   1.363
25921W        W85182  34.988  42.863  12.379
25922W        W85183  37.011  14.214   4.298
25923W        W85184   7.809  14.185  14.877
25924W        W85185  37.425  33.459   1.900
25925W        W85186  34.551  31.053   0.760
25926W        W85187   5.747  12.118   2.786
25927W        W85188   8.160  42.931   3.224
25928W        W85189  12.217  40.907  14.365
25929W        W85190  16.780   4.294  13.968
25930W        W85191  23.102  28.139   9.975
25931W        W85192  44.830  35.358   2.873
25932W        W85193  26.574  40.448   4.833
25933W        W85194  36.506  12.318   0.925
25934W        W85195   2.747  26.482  13.962
25935W        W85196  12.226  23.157   2.713
25936W        W85197   9.308  23.513   0.850
25937W        W85198  35.382  40.971   0.324
25938W        W85199  27.116  37.487   0.272
25939W        W85200  32.460  38.995  14.859
25940W        W85201  12.780  11.762   4.161
25941W        W85202  12.730  35.087  13.441
25942W        W85203  43.846  32.128   3.211
25943W        W85204  25.078   0.388  12.410
25944W        W85205  37.050   2.430  10.591
25945W        W85206   7.293  14.194  11.527
25946W        W85207  16.155  40.868   1.866
25947W        W85208  39.815  22.678   3.716
25948W        W85209  12.751   5.722  12.995
25949W        W85210  13.153  21.716   2.309
25950W        W85211   9.265  27.582   4.618
25951W        W85212  29.953  27.598  14.378
25952W        W85213  31.942   3.373   4.730
25953W        W85214  10.811  30.450  14.503
25954W        W85215  28.028  34.496   5.760
25955W        W85216  35.056  19.111  11.983
25956W        W85217  12.338   0.350  10.011
25957W        W85218  42.790  38.913   9.964
25958W        W85219  20.672   1.951   2.280
25959W        W85220  28.669  17.141  13.376
25960W        W85221  20.064  27.505   1.415
25961W        W85222  32.414   5.871   3.335
25962W        W85223  13.716   0.873   3.768
25963W        W85224  28.457  16.294   1.425
25964W        W85225   7.767   3.447   1.442
25965W        W85226  40.939  35.433   1.398
25966W        W85227   1.798   5.754  10.963
25967W        W85228  15.806  41.352   9.944
25968W        W85229   6.212  18.622  14.489
25969W        W85230  28.013  18.653  13.932
25970W        W85231  38.011  35.455  13.888
25971W        W85232  33.096  44.799  14.900
25972W        W85233   2.769  21.147  11.513
25973W        W85234  16.165  18.740   0.961
25974W        W85235  16.107  11.865  13.038
25975W        W85236  10.377  17.597  13.413
25976W        W85237  33.950  31.449   1.427
25977W        W85238  31.079  32.062   4.631
25978W        W85239  20.092   0.928  11.879
25979W        W85240  39.376   4.736   3.856
25980W        W85241  25.472  16.708   0.251
25981W        W85242  13.294   3.797   9.935
25982W        W85243  10.667  23.532  13.053
25983W        W85244  27.657  14.325   4.801
25984W        W85245  29.030  13.329  14.514
25985W        W85246  41.876   8.797  12.470
25986W        W85247  29.635  19.131   2.237
25987W        W85248  26.573   8.746  13.406
25988W        W85249   7.850   4.757   3.376
25989W        W85250  23.174  21.179  12.365
25990W        W85251   8.675  30.976  10.482
25991W        W85252  15.598  40.851  11.964
25992W        W85253   0.747  14.768   3.315
25993W        W85254   9.306   2.238  13.310
25994W        W85255   9.395  29.490  13.020
25995W        W85256  32.891  44.475  13.451
25996W        W85257  38.373  12.633   3.772
25997W        W85258  31.411  25.990  11.090
25998W        W85259   5.802  16.750  14.297
25999W        W85260  20.686   5.838   4.316
26000W        W85261  20.118  44.378  11.485
26001W        W85262  32.481  33.069   3.294
26002W        W85263  25.214  21.514   1.787
26003W        W85264  16.661   9.219  11.025
26004W        W85265   6.343   3.932   4.769
26005W        W85266  37.561   2.341  12.049
26006W        W85267  28.663  40.978   1.840
26007W        W85268  11.862  35.404   2.257
26008W        W85269  33.121  19.123  14.883
26009W        W85270  41.306   4.362  13.003
26010W        W85271  25.554  44.865  11.488
26011W        W85272  15.140   8.355   1.744
26012W        W85273  20.755  34.489   0.301
26013W        W85274  34.036  42.786   5.209
26014W        W85275  29.652  16.317  14.482
26015W        W85276  34.455  23.496   4.303
26016W        W85277  37.871  36.455   3.159
26017W        W85278   8.170   7.308   3.225
26018W        W85279  37.391  32.964  14.871
26019W        W85280   9.338  42.343   0.825
26020W        W85281  20.256  18.293   2.740
26021W        W85282  13.695   7.868   2.782
26022W        W85283  23.111   8.384   1.434
26023W        W85284  15.133  25.552  13.443
26024W        W85285  29.043  41.937  14.420
26025W        W85286  15.255  38.398  10.540
26026W        W85287  24.170  15.135  12.915
26027W        W85288   2.252  13.245   1.791
26028W        W85289  27.612  38.566  12.829
26029W        W85290  16.582  39.869  11.392
26030W        W85291  29.971  29.435  12.096
26031W        W85292   0.485  41.892   0.366
26032W        W85293   8.807  25.519  11.458
26033W        W85294  32.037  14.098   2.371
26034W        W85295  38.415  23.719  13.812
26035W        W85296  24.136  17.597   3.305
26036W        W85297   7.413  38.977  14.922
26037W        W85298   7.387  15.222   4.715
26038W        W85299  44.852  19.683  10.502
26039W        W85300   9.294  42.496   2.339
26040W        W85301   4.858  23.120   4.717
26041W        W85302  43.385  21.567   0.960
26042W        W85303   1.278  20.628   4.712
26043W        W85304  15.139  41.032  11.475
26044W        W85305  21.575   2.301   3.789
26045W        W85306  43.479   5.821  11.930
26046W        W85307  29.005  29.610  11.099
26047W        W85308  41.375  33.383  10.527
26048W        W85309  12.274  43.863   0.776
26049W        W85310   5.853  11.353   2.798
26050W        W85311  34.056  21.171  10.999
26051W        W85312  19.701  26.165   2.210
26052W        W85313  19.265  18.615   0.729
26053W        W85314   3.290  36.098  12.460
26054W        W85315  13.670  40.911   1.865
26055W        W85316  22.669  43.854   3.661
26056W        W85317  36.359  44.870  13.454
26057W        W85318  41.506  16.593   4.777
26058W        W85319  17.220  19.070  11.593
26059W        W85320  32.120   2.919  12.010
26060W        W85321  29.026   8.399   2.247
26061W        W85322  34.584  38.561  14.025
26062W        W85323  11.210  26.074   3.209
26063W        W85324  23.092  28.518   4.675
26064W        W85325  38.876  25.130   0.318
26065W        W85326   6.292  17.699  14.409
26066W        W85327  35.969   2.923   0.786
26067W        W85328  12.841  41.518  14.398
26068W        W85329  25.653  34.441  14.867
26069W        W85330   3.926  12.648  11.876
26070W        W85331  44.270  22.117  12.856
26071W        W85332  26.599   2.324   0.428
26072W        W85333  40.384  29.172   1.217
26073W        W85334  21.035  16.603  11.119
26074W        W85335   3.325  14.706  10.953
26075W        W85336  21.604  37.368   0.931
26076W        W85337  14.308  28.456   2.278
26077W        W85338  39.517   5.416   2.744
26078W        W85339  31.903  39.808   0.346
26079W        W85340  33.982  43.959   0.862
26080W        W85341  16.261  28.007  11.939
26081W        W85342  28.515  35.985  14.437
26082W        W85343  25.177  33.086   1.418
26083W        W85344   7.770   0.857  10.981
26084W        W85345   5.327   4.709   2.252
26085W        W85346  14.304   3.250   2.286
26086W        W85347  41.438   4.773   4.641
26087W        W85348  41.528   5.816  14.295
26088W        W85349  16.622  23.077  12.068
26089W        W85350  36.377  34.028   5.119
26090W        W85351  29.939  13.740   3.209
26091W        W85352   4.751  19.182   1.801
26092W        W85353   9.219  14.611   1.891
26093W        W85354  17.562  19.662   3.271
26094W        W85355  33.600   9.248  13.937
26095W        W85356  23.133  38.052   3.226
26096W        W85357  40.435   7.877   4.703
26097W        W85358  32.485  23.677   2.344
26098W        W85359  15.578  20.104   2.374
26099W        W85360  28.497  41.386  13.529
26100W        W85361  29.621   4.305  12.058
26101W        W85362  29.115  16.632   1.448
26102W        W85363  14.589  23.027   3.302
26103W        W85364  43.288  21.194   3.630
26104W        W85365   7.767  31.554   1.723
26105W        W85366  18.780  32.129  11.604
26106W        W85367   0.817  14.765  14.506
26107W        W85368  27.191   9.369   0.316
26108W        W85369   7.741  14.601   0.346
26109W        W85370  41.016  32.439   0.860
26110W        W85371  12.774  42.494   2.694
26111W        W85372   4.743  35.906   2.360
26112W        W85373  29.127  30.446  12.042
26113W        W85374  30.118   1.903  13.989
26114W        W85375  22.570  25.495   3.201
26115W        W85376   8.865  17.745   0.924
26116W        W85377  10.250   6.325  14.856
26117W        W85378  13.327  37.337  14.001
26118W        W85379  20.636  37.932  13.397
26119W        W85380  40.040  13.814  12.571
26120W        W85381  41.848  21.129  13.337
26121W        W85382  37.920   1.805  11.920
26122W        W85383  40.336   9.735   2.855
26123W        W85384  27.097  38.886   4.657
26124W        W85385  34.571  21.191  10.404
26125W        W85386  27.952  34.587   2.797
26126W        W85387  33.598  22.712  13.389
26127W        W85388  32.482  14.136   5.282
26128W        W85389   7.209  43.318  13.899
26129W        W85390   8.258   2.323  12.548
26130W        W85391  41.502   1.761   0.299
26131W        W85392  17.069  16.654  11.924
26132W        W85393   2.927  28.138   3.331
26133W        W85394  36.371   8.806   2.795
26134W        W85395  26.102  13.762   0.934
26135W        W85396  28.061  26.636  13.919
26136W        W85397  31.139  15.812  13.840
26137W        W85398  34.015  26.503   3.773
26138W        W85399  40.329  27.955   3.655
26139W        W85400  18.212  17.201   3.270
26140W        W85401  18.729  33.394  13.934
26141W        W85402   5.814  30.621   4.686
26142W        W85403  30.654  31.418  11.575
26143W        W85404  37.044   7.874   0.897
26144W        W85405  35.869   7.699   0.368
26145W        W85406  16.240   7.681   0.397
26146W        W85407  44.390  10.665   0.922
26147W        W85408  25.139  12.807  13.451
26148W        W85409  40.549  10.636  12.953
26149W        W85410  41.038  20.172   3.311
26150W        W85411  28.670  38.515  11.577
26151W        W85412  38.969  33.513   2.249
26152W        W85413  17.122   9.644   0.375
26153W        W85414  11.292   8.889  12.947
26154W        W85415  38.001  37.050  13.972
26155W        W85416   9.682  11.200   0.926
26156W        W85417  12.263  27.603  12.882
26157W        W85418  26.128  33.973  10.417
26158W        W85419  30.622  30.429   2.695
26159W        W85420  37.431  21.262  12.367
26160W        W85421  20.763  31.102  13.871
26161W        W85422  13.317  29.490  14.490
26162W        W85423  23.232  18.591  13.970
26163W        W85424   4.929  16.773   2.278
26164W        W85425  34.466  40.424  11.592
26165W        W85426   5.815  33.477   0.395
26166W        W85427  21.529  26.701   0.957
26167W        W85428   0.882   3.426  10.929
26168W        W85429  33.556  33.405  11.856
26169W        W85430  20.605   9.646   2.840
26170W        W85431  17.596  34.470   4.788
26171W        W85432  34.942  35.529   2.796
26172W        W85433   5.715  27.480  10.451
26173W        W85434   3.283  20.175   0.956
26174W        W85435  12.173   0.869  10.585
26175W        W85436  25.169  15.782   1.768
26176W        W85437   8.698  42.803   4.682
26177W        W85438  22.509  34.463  12.499
26178W        W85439  39.384  10.647   0.479
26179W        W85440  33.966  14.751  12.928
26180W        W85441  44.334  22.533   2.756
26181W        W85442  15.189   6.847   4.220
26182W        W85443   5.871  36.503   1.240
26183W        W85444  25.031  21.657  11.591
26184W        W85445  15.186  16.171  14.282
26185W        W85446   1.935   0.960   1.244
26186W        W85447  29.117   1.380   3.708
26187W        W85448  25.572  33.543  11.018
26188W        W85449  40.347  25.696   3.819
26189W        W85450  20.692  17.664  12.846
26190W        W85451  43.775  35.869   0.361
26191W        W85452  22.643  42.925  10.056
26192W        W85453  39.981  17.766  14.023
26193W        W85454  44.285  33.959  11.908
26194W        W85455   7.319  24.206   0.434
26195W        W85456   7.277   2.242  13.494
26196W        W85457   0.836  40.411  13.438
26197W        W85458  17.267  17.215  10.462
26198W        W85459  30.047  38.940  14.808
26199W        W85460  37.430  40.869  14.363
26200W        W85461  24.046  32.143  13.433
26201W        W85462  43.989   5.194  14.764
26202W        W85463  17.282  27.014  14.915
26203W        W85464  11.260  18.653  13.410
26204W        W85465  27.544   0.795  13.992
26205W        W85466  39.904  40.467   3.342
26206W        W85467  27.627  32.048   4.611
26207W        W85468  22.146   3.324  13.993
26208W        W85469  40.449  14.338  12.554
26209W        W85470  27.160  34.458  12.869
26210W        W85471  29.501  20.649  14.300
26211W        W85472  28.063  11.861  14.885
26212W        W85473  31.116  42.997  10.916
26213W        W85474  13.273  43.876   2.243
26214W        W85475  29.918  42.874   1.260
26215W        W85476  30.627   9.870  13.036
26216W        W85477   4.936  18.164   1.910
26217W        W85478  39.371  28.080  10.084
26218W        W85479  26.488  31.559  14.451
26219W        W85480  34.019   1.963  12.989
26220W        W85481   3.912  26.062   1.761
26221W        W85482  42.967  26.516   1.700
26222W        W85483   2.256  40.865   0.963
26223W        W85484   5.317  24.536  11.011
26224W        W85485  21.195  44.335  12.536
26225W        W85486   5.280  35.994   5.304
26226W        W85487  17.117  35.887   0.437
26227W        W85488  29.927  39.030  13.922
26228W        W85489  23.028   5.755   4.827
26229W        W85490  21.018  40.804  12.961
26230W        W85491   0.980  19.676  14.889
26231W        W85492  13.713  44.468  12.514
26232W        W85493  39.372  37.923   2.323
26233W        W85494  35.865  12.227   3.220
26234W        W85495  31.529  26.677   4.297
26235W        W85496  33.984   3.317   2.239
26236W        W85497  44.430  16.622  10.960
26237W        W85498   1.733  24.678  11.928
26238W        W85499  41.967  37.471  13.877
26239W        W85500  34.557  17.558   3.173
26240W        W85501  24.573   5.790   4.761
26241W        W85502  19.742  24.567   1.245
26242W        W85503  32.559  43.005  13.923
26243W        W85504  38.824  24.189  11.024
26244W        W85505  37.049  23.126  13.386
26245W        W85506  17.667   1.735  10.468
26246W        W85507  12.271  20.628   2.344
26247W        W85508   4.212  27.977  12.040
26248W        W85509  41.335  29.015   3.859
26249W        W85510   6.279   7.348   3.642
26250W        W85511   3.718   5.298  12.369
26251W        W85512  25.070  30.618  12.495
26252W        W85513  24.158  18.679  13.921
26253W        W85514   8.191  26.136  14.871
26254W        W85515  40.994  14.328   0.281
26255W        W85516  44.981  16.732  14.351
26256W        W85517  28.639  16.293   0.736
26257W        W85518  44.849  34.062   3.842
26258W        W85519   0.875   0.261  11.389
26259W        W85520  14.658  16.167  10.136
26260W        W85521  26.032  23.090   1.815
26261W        W85522  14.708  21.222   1.366
26262W        W85523  32.113  41.973  13.968
26263W        W85524  30.145  29.032  10.937
26264W        W85525  43.462   2.468   4.228
26265W        W85526  42.776   4.319   1.726
26266W        W85527  19.075  40.955  10.610
26267W        W85528   2.471  19.236   4.646
26268W        W85529  21.106  28.530  12.866
26269W        W85530  28.621  12.285  11.955
26270W        W85531  20.557  32.987   0.376
26271W        W85532  39.887   5.845   2.256
26272W        W85533  10.226  20.164   3.673
26273W        W85534   4.314  42.390   0.948
26274W        W85535  21.051  42.874  10.471
26275W        W85536  35.038  20.211   4.655
26276W        W85537  32.979  19.609   3.307
26277W        W85538  29.488   4.428  10.579
26278W        W85539  12.739  24.500  10.963
26279W        W85540  18.116   3.385  13.919
26280W        W85541  25.982  29.430  14.835
26281W        W85542   1.755  42.335  12.350
26282W        W85543  19.232  14.130   0.443
26283W        W85544  13.167  41.984  12.916
26284W        W85545   3.371  40.037   0.259
26285W        W85546  29.976  34.906   1.900
26286W        W85547  31.073  15.230   3.729
26287W        W85548  21.179   9.352  13.871
26288W        W85549  20.738  18.077   0.775
26289W        W85550  31.444   9.848  14.766
26290W        W85551  15.758  20.712  14.339
26291W        W85552  29.016  14.737   3.811
26292W        W85553  26.642  39.528   1.701
26293W        W85554  41.337  14.281   4.761
26294W        W85555  35.992  29.481   3.761
26295W        W85556  16.124   2.830   1.913
26296W        W85557  29.116  31.102   3.807
26297W        W85558  44.396  33.504  10.469
26298W        W85559  15.627  16.629   3.660
26299W        W85560   0.471   9.809   1.854
26300W        W85561  41.413  30.960  11.590
26301W        W85562  28.090   8.734   3.846
26302W        W85563  33.492  10.792  11.958
26303W        W85564  12.121  35.409   4.606
26304W        W85565   0.948  35.857   1.376
26305W        W85566  40.352  33.379   1.287
26306W        W85567   8.881  12.837   5.631
26307W        W85568  37.346  32.019  13.847
26308W        W85569  23.164   7.381   3.169
26309W        W85570  37.454  27.671  10.917
26310W        W85571  39.941  21.085   3.785
26311W        W85572   7.833  35.391   1.790
26312W        W85573  20.702  25.524   3.740
26313W        W85574  41.497  35.950  10.898
26314W        W85575  13.266   4.895  14.012
26315W        W85576  25.559  21.718  14.904
26316W        W85577  13.273  34.992   0.757
26317W        W85578  23.734  35.045  12.990
26318W        W85579   2.301   9.356   2.687
26319W        W85580  25.560  21.020  13.863
26320W        W85581   2.777  37.986   1.348
26321W        W85582  15.681  37.036   2.293
26322W        W85583  11.295  36.559  14.998
26323W        W85584  24.707  21.628  13.434
26324W        W85585  32.118  36.571   1.328
26325W        W85586  44.408  34.547  11.484
26326W        W85587  18.163  10.757   2.211
26327W        W85588  14.832  32.957   1.253
26328W        W85589  29.020   0.852   2.897
26329W        W85590  22.061   4.355   4.838
26330W        W85591  23.030  21.133   1.767
26331W        W85592  23.721  40.499  12.456
26332W        W85593  16.093  40.311   4.319
26333W        W85594  32.476  41.454   0.863
26334W        W85595  36.981  26.648  14.299
26335W        W85596   6.344  41.298   2.257
26336W        W85597  30.521   3.403   1.784
26337W        W85598  15.723  42.014   2.901
26338W        W85599  29.485  12.815   1.401
26339W        W85600  28.611  18.284   1.917
26340W        W85601   2.437   8.725  10.128
26341W        W85602   8.830   6.255  13.840
26342W        W85603  23.515  42.440   4.298
26343W        W85604  19.216  20.082  11.930
26344W        W85605  31.911  32.000   1.804
26345W        W85606  11.822  32.533  13.959
26346W        W85607  13.786  26.490   2.694
26347W        W85608  12.719   9.233  13.895
26348W        W85609  38.870  19.214   0.858
26349W        W85610  39.454   0.913  14.406
26350W        W85611  12.822  34.375   0.419
26351W        W85612   3.715  22.064   2.192
26352W        W85613  21.262  37.432   1.752
26353W        W85614   2.721   3.864   1.339
26354W        W85615  25.192  41.011  11.997
26355W        W85616  30.981  10.266   2.406
26356W        W85617  40.534  31.065   0.883
26357W        W85618  34.952   9.230   1.746
26358W        W85619  42.416   3.792   4.738
26359W        W85620   2.946  36.944   3.861
26360W        W85621  35.595  15.683   4.250
26361W        W85622   4.354  19.218   0.370
26362W        W85623   9.157  13.818   3.317
26363W        W85624  31.581  31.904  11.987
26364W        W85625  39.319   5.731  13.431
26365W        W85626   3.850   1.977   1.361
26366W        W85627  34.966  43.900  10.129
26367W        W85628  36.409  40.422  10.641
26368W        W85629  31.582  42.881  13.324
26369W        W85630  17.591  14.807  13.502
26370W        W85631   6.835   2.776   2.862
26371W        W85632  31.582   5.702  14.851
26372W        W85633  42.997   7.722   1.853
26373W        W85634  10.343  27.591   0.426
26374W        W85635  17.189  44.312  11.027
26375W        W85636  42.361  16.097   4.280
26376W        W85637   5.322  30.095  14.349
26377W        W85638  21.083  41.498  13.933
26378W        W85639  30.461   8.189   0.359
26379W        W85640  12.613   6.724  14.760
26380W        W85641  12.716   8.731  12.372
26381W        W85642  21.639  37.937  10.555
26382W        W85643  22.553   2.879  12.022
26383W        W85644  44.864  28.523  12.832
26384W        W85645  26.545   8.250   4.127
26385W        W85646  33.540   4.829  10.934
26386W        W85647  39.512   3.236   3.231
26387W        W85648  37.524  36.908   4.133
26388W        W85649  11.336  37.514   4.660
26389W        W85650  32.934  10.161  13.453
26390W        W85651  18.151  16.591  10.450
26391W        W85652  41.872  20.266  13.320
26392W        W85653   8.299  28.663  12.082
26393W        W85654  12.746  30.085   1.700
26394W        W85655  30.503  19.105   3.709
26395W        W85656  34.905  17.184   4.245
26396W        W85657   5.315   5.728  10.469
26397W        W85658  33.554  36.587  11.075
26398W        W85659  16.303  15.102  11.933
26399W        W85660  32.548  13.694   0.783
26400W        W85661   8.900  24.078   1.273
26401W        W85662  18.178  29.931   3.815
26402W        W85663  11.848  19.696   2.185
26403W        W85664  20.170   0.286  13.487
26404W        W85665  33.551   6.367  13.896
26405W        W85666  20.701  21.071  14.965
26406W        W85667  33.594  28.027  14.429
26407W        W85668   8.306  42.000  13.413
26408W        W85669   8.279  31.921  13.491
26409W        W85670  21.137   9.268  12.055
26410W        W85671  40.406  23.645   3.686
26411W        W85672  17.112  20.080  14.455
26412W        W85673  40.051  36.587   1.414
26413W        W85674  29.157  44.885   1.851
26414W        W85675  24.164  10.849   1.892
26415W        W85676   7.828  30.650   9.970
26416W        W85677  30.911   2.882  14.501
26417W        W85678  42.845  13.239  14.509
26418W        W85679  18.683  38.441  11.584
26419W        W85680  41.459   6.227   1.724
26420W        W85681  25.629  34.580  14.443
26421W        W85682   5.214   0.977  10.529
26422W        W85683   4.378  19.555  13.460
26423W        W85684   3.271   2.452   0.364
26424W        W85685  14.835  19.169  12.071
26425W        W85686   1.245  14.322  13.964
26426W        W85687  40.822  38.063   1.304
26427W        W85688  10.802  16.734  13.935
26428W        W85689  28.000  21.048  10.019
26429W        W85690  40.401  33.557  14.358
26430W        W85691  30.634  25.694  13.335
26431W        W85692  27.978   5.233  11.414
26432W        W85693  18.119  44.791  11.377
26433W        W85694  14.667   2.791   1.891
26434W        W85695   9.719  11.723   4.726
26435W        W85696  30.989  26.149   2.337
26436W        W85697  32.090  36.056   0.386
26437W        W85698   1.928  14.792   0.826
26438W        W85699  27.981  21.687   1.437
26439W        W85700  36.856  12.208  14.276
26440W        W85701  38.551  22.556  12.998
26441W        W85702  35.997   7.195   0.483
26442W        W85703  25.134   6.682  12.560
26443W        W85704  14.125  41.471  14.003
26444W        W85705  26.684  20.245  11.000
26445W        W85706  15.794  44.292   4.774
26446W        W85707  11.336   6.859  13.493
26447W        W85708  20.657  14.785   0.927
26448W        W85709  29.581   5.825  14.765
26449W        W85710  14.633  38.050  13.011
26450W        W85711   3.887  33.435   0.390
26451W        W85712   1.823   4.769  11.487
26452W        W85713  39.346  44.324   2.803
26453W        W85714  33.964  19.180  14.305
26454W        W85715  28.616   1.288  12.480
26455W        W85716  21.648   6.766  12.059
26456W        W85717   6.331  24.109  13.326
26457W        W85718   6.889  43.777   0.741
26458W        W85719  22.528  30.536   4.190
26459W        W85720  40.997  44.355  13.990
26460W        W85721  30.000   5.708  10.505
26461W        W85722  18.726  12.854   2.879
26462W        W85723   2.838  43.274   0.445
26463W        W85724  26.701  25.199  12.824
26464W        W85725  10.793  22.668   1.839
26465W        W85726  19.191  21.749   4.705
26466W        W85727  24.567  32.060  10.592
26467W        W85728   5.333  42.881   5.139
26468W        W85729  17.215  24.016  13.867
26469W        W85730  37.990  26.202   1.346
26470W        W85731   2.908  22.690   3.806
26471W        W85732  26.471  14.740  12.848
26472W        W85733  24.658  34.524  13.042
26473W        W85734  42.962  36.064  10.460
26474W        W85735  33.461  24.121   0.482
26475W        W85736  18.277   0.450  11.984
26476W        W85737  38.550  24.100  11.935
26477W        W85738   6.351  35.453   4.292
26478W        W85739  25.651   2.764  14.839
26479W        W85740  36.962  24.991  11.387
26480W        W85741  25.000  30.611   3.651
26481W        W85742  36.532  24.161   3.288
26482W        W85743  37.567   1.244   4.817
26483W        W85744  18.070   4.926   0.446
26484W        W85745  23.203  40.412   4.252
26485W        W85746   5.211   7.724   4.318
26486W        W85747   2.409  32.070   3.290
26487W        W85748  29.467  12.240  14.354
26488W        W85749  41.813  20.605   1.785
26489W        W85750  17.204   3.354   4.830
26490W        W85751  25.529  20.569   3.347
26491W        W85752   4.772  42.882  11.388
26492W        W85753  38.054  23.061  13.456
26493W        W85754   9.666   1.436  14.424
26494W        W85755  16.286  33.070   2.881
26495W        W85756  41.484  30.493  12.483
26496W        W85757  44.887  42.819   2.351
26497W        W85758  35.368  43.473   2.811
26498W        W85759  16.572   0.370   3.247
26499W        W85760  18.693  10.677  10.996
26500W        W85761  44.293  41.382   0.322
26501W        W85762  18.641  13.348  12.415
26502W        W85763  37.335  39.558  11.959
26503W        W85764  17.180  10.710  10.580
26504W        W85765  18.245  31.898   0.934
26505W        W85766  16.659  41.358   3.815
26506W        W85767  41.807  37.558   3.833
26507W        W85768  41.332  20.567   1.771
26508W        W85769  17.657   8.801   4.138
26509W        W85770  16.184   4.259   9.977
26510W        W85771  10.221  26.196  11.029
26511W        W85772  33.612  37.367  11.903
26512W        W85773   5.924  18.057  13.371
26513W        W85774  35.596   9.669  13.408
26514W        W85775  27.463   7.356  12.944
26515W        W85776   3.335  38.394   1.777
26516W        W85777   1.428   9.362  12.959
26517W        W85778  39.463  44.381   2.186
26518W        W85779  13.215   0.320  14.313
26519W        W85780  31.470   5.792  11.425
26520W        W85781  44.408  30.043  11.043
26521W        W85782  21.227   3.384  10.473
26522W        W85783  10.680   0.488   4.692
26523W        W85784  13.253  18.666  12.849
26524W        W85785  38.834  27.190   1.226
26525W        W85786  12.776   9.707  12.515
26526W        W85787  28.669   4.250   1.287
26527W        W85788  26.140  27.655  14.934
26528W        W85789  31.485  21.745   4.137
26529W        W85790  44.297  29.069   0.477
26530W        W85791  27.497   5.859  14.438
26531W        W85792  44.881  25.033   2.245
26532W        W85793   0.452  22.139  13.496
26533W        W85794  35.097  23.536  10.102
26534W        W85795  36.033  13.206   3.765
26535W        W85796  22.573   3.263   3.212
26536W        W85797  16.595  38.907   0.775
26537W        W85798  40.041  32.479  13.432
26538W        W85799   9.309   6.764  13.401
26539W        W85800  20.569  11.789  11.554
26540W        W85801  10.709  31.138  14.808
26541W        W85802  35.589  44.386   2.245
26542W        W85803  37.514   3.337   3.320
26543W        W85804  13.197   7.828   0.447
26544W        W85805  20.685  37.872  14.863
26545W        W85806  28.556  34.432   1.860
26546W        W85807  39.811   1.477   1.913
26547W        W85808   5.238  24.014   4.138
26548W        W85809  28.578  30.051   0.469
26549W        W85810  30.161  16.148   3.726
26550W        W85811  29.071  20.048  11.968
26551W        W85812  44.900  44.465   4.668
26552W        W85813  34.034  42.803  12.026
26553W        W85814  35.452  11.321   3.222
26554W        W85815  19.726  15.614  11.066
26555W        W85816  17.099  37.055  12.040
26556W        W85817  25.071  25.480  13.482
26557W        W85818  39.902  35.370  12.917
26558W        W85819  25.598  34.538   1.723
26559W        W85820  19.229   5.372  14.762
26560W        W85821  21.739  22.555  14.409
26561W        W85822  21.174   0.794   5.109
26562W        W85823  34.612  16.601  10.612
26563W        W85824  11.720  25.586  13.357
26564W        W85825   5.286  14.223  13.341
26565W        W85826   8.226  32.409  10.538
26566W        W85827  36.440  39.434   0.925
26567W        W85828  16.628  32.066  10.469
26568W        W85829   9.348  28.963   4.242
26569W        W85830  17.062  28.001   2.671
26570W        W85831  31.576  43.322   0.964
26571W        W85832   1.394  20.246   0.914
26572W        W85833  13.608   6.235   0.961
26573W        W85834  15.144  43.405   0.394
26574W        W85835  10.746   8.356   2.382
26575W        W85836  19.560  44.003  13.358
26576W        W85837  15.676   1.867   3.713
26577W        W85838   1.424  40.048  11.118
26578W        W85839  40.810  44.820  11.562
26579W        W85840  27.088  22.656  13.358
26580W        W85841  11.854   0.885   4.289
26581W        W85842  13.800   1.357  14.313
26582W        W85843  20.581  30.131   0.952
26583W        W85844  16.228  30.065   1.837
26584W        W85845  32.550  14.292   3.719
26585W        W85846   4.712  25.617   4.136
26586W        W85847  10.760   1.276  10.902
26587W        W85848   5.336  38.972  10.093
26588W        W85849   8.679   1.824  11.916
26589W        W85850  22.675   4.798  11.070
26590W        W85851   8.792  20.175   4.129
26591W        W85852  23.576  38.998  13.015
26592W        W85853  22.579  20.097   4.766
26593W        W85854  30.960  34.930   2.215
26594W        W85855  27.559   1.475   3.333
26595W        W85856  36.507  18.702  14.848
26596W        W85857  19.659  14.616  12.490
26597W        W85858   4.250  40.318   0.962
26598W        W85859  28.445  18.171  12.533
26599W        W85860   1.408  41.827   1.796
26600W        W85861  16.659  25.002  13.504
26601W        W85862  15.794  14.745  13.517
26602W        W85863  43.269  25.495  13.513
26603W        W85864  28.109  33.444  14.471
26604W        W85865  11.656  15.184   4.276
26605W        W85866  10.802   1.460   0.432
26606W        W85867  23.725  18.678  14.997
26607W        W85868   9.830  10.181   2.345
26608W        W85869   7.265   2.335  12.476
26609W        W85870  30.152  38.384   0.357
26610W        W85871  35.458  16.077  14.839
26611W        W85872  41.886  38.900   4.114
26612W        W85873  43.989  11.802  14.422
26613W        W85874  30.465  41.390   1.753
26614W        W85875  14.337  33.943   0.458
26615W        W85876   4.403  44.386  12.534
26616W        W85877  35.866   4.350   2.875
26617W        W85878  23.594  23.138   2.184
26618W        W85879  18.748   5.925   0.950
26619W        W85880  35.060  24.144  14.948
26620W        W85881   1.774   5.416   2.295
26621W        W85882  28.087  19.685   4.240
26622W        W85883  27.983  40.963  10.475
26623W        W85884  15.646   4.346   5.701
26624W        W85885   7.761  12.728   5.157
26625W        W85886   6.733   9.377   2.818
26626W        W85887   1.449  15.319  14.905
26627W        W85888  29.659  11.713   4.161
26628W        W85889  16.740  40.962  12.366
26629W        W85890  31.509  34.370   3.266
26630W        W85891  10.360  44.999  14.443
26631W        W85892  31.077   1.415   0.911
26632W        W85893  10.749  25.030   3.685
26633W        W85894  17.789  29.460  12.432
26634W        W85895   2.845  25.491  12.896
26635W        W85896  16.774  21.593   0.851
26636W        W85897  12.753   2.824  12.436
26637W        W85898  38.342  39.315  14.511
26638W        W85899  19.689  14.282   4.132
26639W        W85900   7.263  10.192  13.368
26640W        W85901  18.577  43.865  12.570
26641W        W85902  33.094  21.163  14.384
26642W        W85903   0.291  40.306   2.701
26643W        W85904  31.569  42.305  13.532
26644W        W85905  36.848   7.349  12.034
26645W        W85906  29.448   9.648  13.352
26646W        W85907  29.594   8.850  11.564
26647W        W85908  41.410  32.416  10.498
26648W        W85909  30.101   7.679  11.571
26649W        W85910  34.529  15.624   3.859
26650W        W85911  31.634  40.506   0.261
26651W        W85912  22.210  26.479  12.014
26652W        W85913  31.937  18.638   4.837
26653W        W85914   7.845  44.810   0.839
26654W        W85915   3.410   5.384  12.897
26655W        W85916  14.708  22.196  13.899
26656W        W85917  27.680   8.273  14.429
26657W        W85918  13.727  29.488  12.420
26658W        W85919  35.091  31.468   1.397
26659W        W85920  33.037  32.102   3.254
26660W        W85921  23.592  20.644   0.351
26661W        W85922  40.414  40.340  12.954
26662W        W85923  16.727  36.492  12.549
26663W        W85924  13.199  18.588   1.414
26664W        W85925  19.704  30.015   0.758
26665W        W85926  23.000  22.695  10.416
26666W        W85927  13.342  29.474  12.442
26667W        W85928  25.124  13.338  10.970
26668W        W85929  11.369  38.963  13.798
26669W        W85930  28.066  43.398  13.396
26670W        W85931  44.819  22.599  11.055
26671W        W85932  26.143  17.176  10.521
26672W        W85933  35.927  39.424   0.299
26673W        W85934   8.388  15.584   0.275
26674W        W85935   0.294  31.896   1.896
26675W        W85936   5.375  20.747  14.876
26676W        W85937  24.619  23.679   2.856
26677W        W85938  37.881  15.193   0.348
26678W        W85939  18.216  36.416  10.903
26679W        W85940   8.702  40.349   1.723
26680W        W85941   0.972  35.075   4.671
26681W        W85942  41.524   8.791  10.997
26682W        W85943   3.299   8.343  14.332
26683W        W85944   4.363  32.057   1.709
26684W        W85945  18.225  33.508  10.528
26685W        W85946  15.118   0.431   2.419
26686W        W85947  29.936   6.249  14.826
26687W        W85948  35.403  19.776  12.422
26688W        W85949  13.307  21.748  13.458
26689W        W85950   9.315  35.451   1.236
26690W        W85951   8.850  39.001   0.474
26691W        W85952  34.484  36.500   1.347
26692W        W85953  11.702  10.768   0.879
26693W        W85954  13.266   6.191  11.941
26694W        W85955   1.828  35.376  13.998
26695W        W85956   1.953   1.433   3.319
26696W        W85957  44.358  18.585   1.696
26697W        W85958  14.306   5.770  12.890
26698W        W85959  19.591  24.642   4.674
26699W        W85960  40.450  19.758   0.870
26700W        W85961  20.174  18.790  14.965
26701W        W85962  42.381  13.761   0.410
26702W        W85963  26.701  28.176  12.343
26703W        W85964  13.162  34.507  13.887
26704W        W85965   3.954  35.424  12.413
26705W        W85966  26.042   6.841  10.557
26706W        W85967   1.783  39.316   2.318
26707W        W85968  31.638  30.457   4.618
26708W        W85969   6.350  39.813   4.833
26709W        W85970  17.799   4.312  12.854
26710W        W85971   0.251  26.617  12.990
26711W        W85972  35.922   9.807   2.301
26712W        W85973  42.466   3.219  11.864
26713W        W85974  13.282  25.687   0.334
26714W        W85975  18.723  33.423  10.958
26715W        W85976  11.323   7.766  10.427
26716W        W85977   4.857   1.943   4.185
26717W        W85978  30.600  34.948   1.877
26718W        W85979  41.309  29.033   1.705
26719W        W85980   3.365  44.471   1.877
26720W        W85981  36.868   4.333  13.384
26721W        W85982   3.312  31.094  13.796
26722W        W85983  24.552  33.564   0.375
26723W        W85984  35.889  41.340  14.476
26724W        W85985  39.038  13.226  11.440
26725W        W85986  44.392  12.648  13.323
26726W        W85987   1.424  22.151  12.532
26727W        W85988  26.009  30.133   1.858
26728W        W85989  31.012  41.038   9.652
26729W        W85990  16.619  36.871   4.256
26730W        W85991  19.606  43.979   3.758
26731W        W85992  44.504  15.655  14.995
26732W        W85993  33.091  34.000   2.698
26733W        W85994  11.806  26.618  14.334
26734W        W85995  44.339  15.631   4.826
26735W        W85996  23.109  30.021   3.638
26736W        W85997   2.938  15.315  13.425
26737W        W85998  39.440  37.033  11.500
26738W        W85999  34.993  30.041   0.373
26739W        W86000  21.180  39.887   4.321
26740W        W86001   3.859   8.239   3.372
26741W        W86002  13.212  18.194   3.692
26742W        W86003  25.193   6.899   3.361
26743W        W86004  16.787  30.550  14.851
26744W        W86005  40.952  11.782   3.161
26745W        W86006  23.152  25.578   2.850
26746W        W86007   7.377  18.124  13.835
26747W        W86008   3.713  22.534  13.860
26748W        W86009   5.706  28.028   0.791
26749W        W86010  26.108  34.930   4.611
26750W        W86011   7.250  25.045  11.471
26751W        W86012  13.321  30.615   3.699
26752W        W86013  21.213  43.320   4.339
26753W        W86014  40.879  23.149  11.922
26754W        W86015  13.108   8.190   3.788
26755W        W86016  29.541  24.111  11.948
26756W        W86017  10.234  19.668  10.040
26757W        W86018  33.988  26.075   2.344
26758W        W86019  32.049   8.823   1.336
26759W        W86020  41.978  41.882  10.901
26760W        W86021  34.053   9.184  11.461
26761W        W86022  24.611  40.467   4.675
26762W        W86023   1.936  36.429  12.961
26763W        W86024  15.162  35.500   4.339
26764W        W86025  34.551  41.936  10.995
26765W        W86026  21.197  44.777  13.933
26766W        W86027  32.559  40.824  12.379
26767W        W86028   2.828  13.261   0.881
26768W        W86029  31.897  19.228  11.546
26769W        W86030  27.641  37.976  10.139
26770W        W86031   9.765   3.396   9.624
26771W        W86032   8.712  29.149   1.420
26772W        W86033  28.037   3.322   1.242
26773W        W86034  41.910  29.484  14.876
26774W        W86035  36.084   9.376   2.205
26775W        W86036  28.484  42.832   0.832
26776W        W86037  42.882  35.108  14.791
26777W        W86038   1.941  22.189  14.974
26778W        W86039  25.138   0.766   4.158
26779W        W86040  44.490  12.212  10.996
26780W        W86041  26.469   1.858  13.545
26781W        W86042  24.697  21.256   2.248
26782W        W86043  38.454  18.290  12.955
26783W        W86044  44.429  40.356  14.843
26784W        W86045   8.219  40.867   4.738
26785W        W86046  11.806  27.450   0.472
26786W        W86047  32.988  32.955  14.875
26787W        W86048  24.701   8.818   4.812
26788W        W86049  25.010  11.746  12.055
26789W        W86050  40.519   1.789   0.797
26790W        W86051  18.091  44.877  10.981
26791W        W86052  37.345  32.038   2.205
26792W        W86053  43.831  16.801   3.722
26793W        W86054   7.195   4.436  12.403
26794W        W86055  26.512  37.023   4.659
26795W        W86056  21.643   1.460  10.608
26796W        W86057  11.700  21.591   4.207
26797W        W86058  25.668  24.024  11.109
26798W        W86059  25.097  14.692  13.509
26799W        W86060  34.570   8.302  14.000
26800W        W86061   4.340  23.646  10.469
26801W        W86062  25.124  19.284  13.914
26802W        W86063  28.989  44.821   0.479
26803W        W86064  14.193  35.937   4.737
26804W        W86065  31.503  16.291   4.208
26805W        W86066   6.816  26.129   2.723
26806W        W86067   9.395  33.941  13.816
26807W        W86068  31.948   6.744  10.503
26808W        W86069  18.215   2.444   3.366
26809W        W86070  30.136  18.625  12.551
26810W        W86071  19.535  34.595   2.231
26811W        W86072  29.114  38.566   0.270
26812W        W86073  10.270  19.141   2.363
26813W        W86074  23.989  42.338  11.400
26814W        W86075  42.856  15.662  14.426
26815W        W86076  12.636   1.880   5.209
26816W        W86077  25.556   1.365  13.467
26817W        W86078  33.955  38.385   2.247
26818W        W86079  42.017   2.818  11.983
26819W        W86080   9.794  37.847   4.241
26820W        W86081  37.017   6.394   1.326
26821W        W86082   5.366  34.948   1.806
26822W        W86083  34.558  15.212   1.441
26823W        W86084  33.572  35.554   2.327
26824W        W86085  43.771   4.763   4.614
26825W        W86086  38.484  21.573  14.936
26826W        W86087  39.004  17.258   0.846
26827W        W86088  12.238  44.833   0.364
26828W        W86089  16.765  34.093   1.319
26829W        W86090  29.614  24.713  14.824
26830W        W86091  44.356  11.640   2.732
26831W        W86092  27.472   4.297  12.393
26832W        W86093  43.860  32.428   4.668
26833W        W86094   1.481  19.177   0.898
26834W        W86095  23.643  34.443   3.812
26835W        W86096  43.956   3.358   3.810
26836W        W86097  19.120  10.216  12.441
26837W        W86098  37.516  13.189   0.938
26838W        W86099  28.518  42.829  13.893
26839W        W86100  31.406  32.637  13.996
26840W        W86101  34.945  44.897   0.868
26841W        W86102   1.293  24.514  14.299
26842W        W86103  15.181   2.723  11.435
26843W        W86104   3.280  18.720  12.046
26844W        W86105  40.446  42.906   4.201
26845W        W86106  42.471  35.519   4.257
26846W        W86107  31.974  21.740   3.803
26847W        W86108  24.491  34.055  10.522
26848W        W86109  10.323  30.127  14.349
26849W        W86110  28.665  26.654   3.193
26850W        W86111  33.402  10.326  14.401
26851W        W86112   6.417  14.329   1.293
26852W        W86113  11.154  21.736   1.782
26853W        W86114  36.996  14.094   3.863
26854W        W86115  29.968  31.973  12.511
26855W        W86116  13.261   3.899  11.877
26856W        W86117   2.355  14.629   4.162
26857W        W86118   3.715  30.486   0.482
26858W        W86119  12.818  18.190  11.904
26859W        W86120  17.621  34.901   1.898
26860W        W86121   9.742  38.069  14.002
26861W        W86122   1.321  30.595   1.399
26862W        W86123  15.247  36.469   1.826
26863W        W86124   1.440  25.593  11.581
26864W        W86125  22.675  37.514  14.812
26865W        W86126  38.971  11.653  12.388
26866W        W86127  17.710  21.752  11.514
26867W        W86128  38.405  20.090   4.659
26868W        W86129  19.682  39.558   2.784
26869W        W86130  16.598   8.354  12.550
26870W        W86131   8.824  41.821  14.458
26871W        W86132  39.841  18.242  10.586
26872W        W86133  24.487  22.541   1.303
26873W        W86134  38.950   4.395  12.564
26874W        W86135  44.315   1.850   0.400
26875W        W86136  25.044   5.899  12.033
26876W        W86137   6.843  30.562   4.608
26877W        W86138  32.480   4.423   0.258
26878W        W86139   3.264  16.159  12.496
26879W        W86140   9.659   8.395   0.353
26880W        W86141   1.389  34.582   4.351
26881W        W86142  23.533   3.262   0.809
26882W        W86143   0.307  31.145   0.447
26883W        W86144  31.516  41.358  10.434
26884W        W86145   8.691  26.975   4.694
26885W        W86146  33.090  33.505  13.363
26886W        W86147   1.922  16.205   0.422
26887W        W86148   2.791  18.107   3.685
26888W        W86149   7.741  37.002  14.910
26889W        W86150  43.356  10.163  11.018
26890W        W86151  21.709  19.122   0.914
26891W        W86152  24.516  10.696   0.817
26892W        W86153  30.979   8.742  12.047
26893W        W86154   6.288  34.520  11.497
26894W        W86155   5.893  18.556  10.498
26895W        W86156  42.783  28.492  10.915
26896W        W86157  35.875  13.630  10.487
26897W        W86158  19.701  28.014   1.214
26898W        W86159  11.323   3.429  13.045
26899W        W86160  34.552  20.623  12.493
26900W        W86161  41.455  28.098  10.563
26901W        W86162   5.407  34.111  12.369
26902W        W86163  23.692  37.920   4.206
26903W        W86164  19.122  29.514   5.228
26904W        W86165  14.802  39.944  12.045
26905W        W86166  43.377  32.057   1.797
26906W        W86167  12.164  34.473  11.859
26907W        W86168  19.769   6.862  11.040
26908W        W86169  23.088  33.447  11.085
26909W        W86170  11.794  43.316   1.831
26910W        W86171  22.191  33.605  10.892
26911W        W86172  15.302  37.009  10.601
26912W        W86173  25.558   5.772   1.328
26913W        W86174  28.978   5.413   1.791
26914W        W86175  28.469  19.679   3.669
26915W        W86176  23.059  23.087  12.455
26916W        W86177  16.768  14.590   2.772
26917W        W86178  29.991  28.453  13.964
26918W        W86179  11.744  23.570   2.381
26919W        W86180   2.885   7.304   4.814
26920W        W86181  13.256   4.422  14.856
26921W        W86182  20.615   7.792   1.734
26922W        W86183   8.732  10.215  10.536
26923W        W86184  27.566   9.804  13.497
26924W        W86185  15.083   8.196   2.825
26925W        W86186  17.291  17.168  13.940
26926W        W86187  38.889  11.770   1.254
26927W        W86188  23.027  18.194  13.838
26928W        W86189  36.417  40.949   5.617
26929W        W86190  17.570  29.978  12.864
26930W        W86191  44.487  12.636   0.909
26931W        W86192  43.851   3.890   4.245
26932W        W86193  20.673  44.008   1.348
26933W        W86194   3.915  11.361   3.295
26934W        W86195  26.072  38.410  12.867
26935W        W86196  41.438  25.160  11.379
26936W        W86197  21.227  15.144   4.667
26937W        W86198  10.235  28.077   3.161
26938W        W86199   6.319  10.248  13.543
26939W        W86200   9.676  39.833  11.007
26940W        W86201  17.167  27.460   0.778
26941W        W86202  28.524  28.606   1.283
26942W        W86203  28.445  11.353   2.744
26943W        W86204  34.490  12.783  13.962
26944W        W86205  19.619  13.266   3.223
26945W        W86206  33.931  29.652  13.349
26946W        W86207  11.277  23.686  14.959
26947W        W86208  25.095  20.156   2.247
26948W        W86209  16.246  40.408   3.642
26949W        W86210  42.945  42.293  10.547
26950W        W86211   8.773  34.991  10.442
26951W        W86212  16.596  30.964   5.196
26952W        W86213  31.990  13.163   2.685
26953W        W86214  37.390  12.737   4.719
26954W        W86215  41.851  23.233  12.466
26955W        W86216  17.740  40.026   2.853
26956W        W86217  41.786  18.707  11.373
26957W        W86218  38.949  14.659   0.766
26958W        W86219  13.256  27.669   4.155
26959W        W86220  39.899  17.129   4.829
26960W        W86221  27.575  26.052   0.381
26961W        W86222  18.050  12.614  12.036
26962W        W86223  13.259  33.583   0.248
26963W        W86224  14.796  34.486   4.131
26964W        W86225  40.485  12.245  13.379
26965W        W86226  11.854  20.209  11.095
26966W        W86227  40.360   3.454  12.993
26967W        W86228  26.097  44.961   2.802
26968W        W86229  32.045  23.097   1.873
26969W        W86230  19.111  31.939  12.915
26970W        W86231  41.903  44.779  11.987
26971W        W86232   6.196   0.317   0.408
26972W        W86233   4.376  27.603   0.404
26973W        W86234  22.746   0.433  10.476
26974W        W86235  20.231  13.754  13.337
26975W        W86236  23.649  28.481   1.426
26976W        W86237  20.576  44.278  12.381
26977W        W86238  25.558  29.533  14.912
26978W        W86239  17.699  17.163   2.233
26979W        W86240  37.518  40.331  11.550
26980W        W86241  16.651  18.087   0.921
26981W        W86242  32.910  34.395  13.876
26982W        W86243  18.701   9.159   4.754
26983W        W86244  27.118  24.597  13.027
26984W        W86245   1.437  21.520   1.826
26985W        W86246   2.251  13.211  14.436
26986W        W86247  23.140  12.781  14.309
26987W        W86248   6.408   1.237  12.987
26988W        W86249  24.014  40.361  10.997
26989W        W86250  43.861   5.735   1.228
26990W        W86251   1.427  15.651   4.352
26991W        W86252  29.993  43.969  12.948
26992W        W86253  38.835  29.989  10.624
26993W        W86254   2.768  24.016  13.984
26994W        W86255  35.447  34.508   1.789
26995W        W86256  21.066  18.278  10.624
26996W        W86257  42.463  11.769   1.432
26997W        W86258  27.592  36.001   2.301
26998W        W86259  23.057  42.983  14.909
26999W        W86260  12.723  36.987   4.837
27000W        W86261  28.186   4.427   0.475
27001W        W86262  10.839  42.853  11.412
27002W        W86263  13.730  25.146   2.286
27003W        W86264  25.216  12.681   0.756
27004W        W86265  18.671  12.196  11.091
27005W        W86266   5.244  44.441  10.617
27006W        W86267  24.660  18.130  11.027
27007W        W86268  43.378  33.885  13.063
27008W        W86269  24.161  36.866  10.483
27009W        W86270  23.209  14.659   2.185
27010W        W86271  22.632  42.433  14.972
27011W        W86272  16.693   0.877   4.617
27012W        W86273  35.003  34.401   0.915
27013W        W86274  27.472  39.887   1.403
27014W        W86275  26.005   2.450  14.769
27015W        W86276  41.484  25.977  10.617
27016W        W86277  27.160  33.537   2.680
27017W        W86278  37.845   9.340   2.202
27018W        W86279  20.196  15.604  11.045
27019W        W86280  34.004   3.333  12.034
27020W        W86281  36.501  36.082  11.031
27021W        W86282   9.151  23.561   1.326
27022W        W86283  38.480  21.591   3.282
27023W        W86284  11.756  23.034   0.774
27024W        W86285  18.577   9.214  12.554
27025W        W86286  19.088  35.927  14.802
27026W        W86287  40.488  36.965  10.949
27027W        W86288  37.065  35.966  14.339
27028W        W86289  27.035  35.596   3.243
27029W        W86290  36.367  31.511   0.844
27030W        W86291  42.872  15.581   3.693
27031W        W86292   7.368   3.263   1.695
27032W        W86293  44.842  26.968   2.756
27033W        W86294  20.131   8.784   2.697
27034W        W86295  32.581  41.385   2.724
27035W        W86296  28.569  19.590   4.343
27036W        W86297   4.897   2.436  13.448
27037W        W86298   6.705  24.698   2.880
27038W        W86299  15.177  11.641   4.624
27039W        W86300   0.758  16.782  13.489
27040W        W86301  42.988   5.847   3.272
27041W        W86302  15.578  21.190   2.698
27042W        W86303  35.051  16.180   2.315
27043W        W86304  42.951  19.083   0.741
27044W        W86305  33.070  20.240   1.737
27045W        W86306  16.088  39.849  13.936
27046W        W86307  20.193  26.522   2.407
27047W        W86308  41.368   8.855  13.317
27048W        W86309   3.453  33.902   1.395
27049W        W86310  10.692  22.010  11.452
27050W        W86311  23.155  16.278  11.394
27051W        W86312  40.497  32.921   3.372
27052W        W86313  44.997  42.833  11.882
27053W        W86314  24.030  10.730  14.446
27054W        W86315  35.596   0.336   4.123
27055W        W86316  40.345  30.907  14.946
27056W        W86317  21.684   0.298  12.574
27057W        W86318  35.391  37.834  12.483
27058W        W86319  28.564  17.700   0.396
27059W        W86320  10.821  15.154   3.667
27060W        W86321  29.428  36.076   1.420
27061W        W86322  15.610  15.181   1.738
27062W        W86323   4.920  31.524   2.325
27063W        W86324  34.454   4.410  12.005
27064W        W86325   9.336  16.727  11.118
27065W        W86326  42.915  25.686   2.380
27066W        W86327  24.172  15.121  10.450
27067W        W86328   4.231  27.095  13.447
27068W        W86329  34.977  40.479  13.035
27069W        W86330   6.759   5.224   2.187
27070W        W86331   5.270  12.737   5.291
27071W        W86332  22.234  14.734   1.847
27072W        W86333   5.920  41.935   4.686
27073W        W86334  38.564   7.280  14.971
27074W        W86335  25.637   6.421   2.316
27075W        W86336  27.980  17.713  12.521
27076W        W86337  31.470  26.686  11.392
27077W        W86338  41.461  33.930   1.277
27078W        W86339  12.223  28.977   4.278
27079W        W86340   9.291   9.746   5.183
27080W        W86341  13.627  29.578  10.407
27081W        W86342   1.803   4.263   0.346
27082W        W86343  14.308  23.093   4.724
27083W        W86344  21.145  19.275   1.318
27084W        W86345   1.905  40.354   2.841
27085W        W86346  32.462   8.376   4.145
27086W        W86347   0.406   9.384  14.957
27087W        W86348  20.260  24.990   2.884
27088W        W86349  20.569  14.130  12.360
27089W        W86350   2.394  24.974  10.409
27090W        W86351  41.444   2.797   0.814
27091W        W86352  44.837   9.154   0.947
27092W        W86353  22.124   9.829   1.418
27093W        W86354  43.924   1.964   0.951
27094W        W86355  21.540  19.686  11.019
27095W        W86356  13.707  36.903  14.318
27096W        W86357  30.031  34.879   3.267
27097W        W86358   4.787  40.345  13.522
27098W        W86359   5.828  10.153   1.829
27099W        W86360   8.330  29.942   4.235
27100W        W86361  21.105   2.777   2.332
27101W        W86362  37.898  27.175  13.482
27102W        W86363  41.953  42.468   2.323
27103W        W86364  44.834  44.338  13.887
27104W        W86365  28.553  38.485  10.939
27105W        W86366  18.253  30.598   1.362
27106W        W86367  37.873   6.857   1.821
27107W        W86368  19.064  11.847  11.959
27108W        W86369   0.887   9.387   2.194
27109W        W86370  41.537   7.869  10.510
27110W        W86371   8.884  37.485  11.471
27111W        W86372   4.228  44.756  10.978
27112W        W86373  39.856  27.092   2.807
27113W        W86374  10.738  36.362   2.202
27114W        W86375  19.086   4.252  13.050
27115W        W86376  43.485  10.250   0.355
27116W        W86377  37.909  24.159  14.478
27117W        W86378  42.882   8.226   2.685
27118W        W86379   4.220  26.064  10.550
27119W        W86380  30.976  21.244   0.407
27120W        W86381  11.648  27.188   3.732
27121W        W86382  23.985  27.626   3.245
27122W        W86383   8.779  39.417  10.456
27123W        W86384  43.884  37.011   3.349
27124W        W86385  33.018  39.536   3.800
27125W        W86386  30.455  44.406  13.383
27126W        W86387   3.230   5.881   0.876
27127W        W86388  14.589  19.217  13.307
27128W        W86389  39.379  11.308   4.757
27129W        W86390   5.315   8.301  11.920
27130W        W86391  13.655   2.446  11.038
27131W        W86392  15.810  37.374   1.426
27132W        W86393  21.110  19.593   3.853
27133W        W86394  19.588  11.811   3.384
27134W        W86395  30.082   3.761   3.370
27135W        W86396  38.862   0.325  10.074
27136W        W86397   7.689  21.718   1.850
27137W        W86398   7.748   3.756  11.943
27138W        W86399  25.708  41.465   2.204
27139W        W86400  23.614   1.740  12.989
27140W        W86401  40.509   9.372  12.346
27141W        W86402   5.203  18.130  11.958
27142W        W86403   9.277  30.469  14.900
27143W        W86404  31.447  15.286  14.992
27144W        W86405  30.629  39.834  10.900
27145W        W86406  27.080  33.415   0.313
27146W        W86407   0.946  21.109   2.738
27147W        W86408   7.397  44.278  13.045
27148W        W86409  17.084   9.716   2.746
27149W        W86410  11.712  13.132   2.792
27150W        W86411  36.058  25.112  13.370
27151W        W86412  12.634   1.387   4.623
27152W        W86413   7.354  36.917  13.933
27153W        W86414  24.528  28.973  13.817
27154W        W86415   4.896  20.069  12.426
27155W        W86416  37.408   0.374   0.457
27156W        W86417  17.205  44.930  10.634
27157W        W86418  12.325  23.688  14.294
27158W        W86419  33.044  28.436  14.458
27159W        W86420  37.404   9.679   4.658
27160W        W86421   4.868  26.131   1.854
27161W        W86422  13.696  44.780  10.485
27162W        W86423  36.978  19.555   4.254
27163W        W86424   0.883  40.526  14.942
27164W        W86425   7.860  11.220   1.348
27165W        W86426   5.769   1.873   2.700
27166W        W86427  13.195  30.501   2.679
27167W        W86428  38.505  33.426  14.802
27168W        W86429   3.250  12.155  13.417
27169W        W86430  22.194  20.212   0.245
27170W        W86431  38.432  34.086  11.927
27171W        W86432  23.222  10.366  10.544
27172W        W86433  42.854  36.546  10.434
27173W        W86434  34.056  37.056  13.394
27174W        W86435  21.570  20.638   4.694
27175W        W86436  32.399  40.447   1.347
27176W        W86437   1.378  27.471   3.796
27177W        W86438  24.621  14.097   2.389
27178W        W86439  18.632  42.827  13.954
27179W        W86440  20.140   1.287   4.188
27180W        W86441   7.667  36.999   0.436
27181W        W86442  37.346  28.980  14.288
27182W        W86443  41.026   6.205  14.446
27183W        W86444  42.363  17.185   4.321
27184W        W86445  11.736  33.408   1.232
27185W        W86446  40.500  38.370   0.397
27186W        W86447  12.277  35.387   3.240
27187W        W86448  26.974  22.087  12.946
27188W        W86449  18.762  43.828   0.833
27189W        W86450  28.563  20.222  12.474
27190W        W86451  29.552  30.625   2.735
27191W        W86452   9.178  18.151   3.168
27192W        W86453  37.402  16.812  12.941
27193W        W86454   8.761   6.381   2.844
27194W        W86455   0.800   8.706  11.371
27195W        W86456  19.730  36.419   0.448
27196W        W86457  24.039   6.251   0.479
27197W        W86458  39.459   5.400  13.833
27198W        W86459  23.720  14.279   4.802
27199W        W86460  43.846  12.798  14.446
27200W        W86461  24.486  25.524  12.926
27201W        W86462  21.232  28.667  14.356
27202W        W86463  37.364  26.567  12.454
27203W        W86464  38.944  37.940   1.932
27204W        W86465  40.317  35.530   0.948
27205W        W86466  44.928  42.357   4.639
27206W        W86467  27.624  20.225   1.877
27207W        W86468   8.748  42.905   2.254
27208W        W86469  22.694  19.259  12.993
27209W        W86470   0.322  16.693  11.405
27210W        W86471  39.553   5.832   1.890
27211W        W86472  30.069  28.620   0.938
27212W        W86473  28.983   5.841   2.851
27213W        W86474  33.971  29.943  13.973
27214W        W86475   4.829  17.589  11.573
27215W        W86476  41.510  14.148  10.984
27216W        W86477  13.712  34.896  13.467
27217W        W86478  19.770  28.041   2.255
27218W        W86479  21.552  27.042  14.813
27219W        W86480   9.297  23.649  11.485
27220W        W86481   4.755  35.028  12.969
27221W        W86482  16.305  37.390   5.264
27222W        W86483  44.470  40.941   0.363
27223W        W86484  12.135  17.167  13.012
27224W        W86485  15.662  24.002  13.454
27225W        W86486  31.020  34.017  14.511
27226W        W86487   3.232  25.083   3.737
27227W        W86488  22.575  18.213  14.772
27228W        W86489  14.832  37.558   1.848
27229W        W86490  20.179  32.933   3.635
27230W        W86491  25.202  15.170   3.640
27231W        W86492   0.250  29.589  14.977
27232W        W86493  22.108  21.534  11.461
27233W        W86494  22.180  37.518  13.433
27234W        W86495  31.963  22.644   2.270
27235W        W86496   6.886   5.275  11.566
27236W        W86497   9.781  40.917   1.910
27237W        W86498  38.059  44.318  11.959
27238W        W86499  36.914  44.860  12.390
27239W        W86500  23.028  44.786  14.972
27240W        W86501  36.554   8.340  11.562
27241W        W86502  21.180  40.016  14.944
27242W        W86503   8.686  22.648   1.926
27243W        W86504  11.809  35.577   2.891
27244W        W86505  40.463  21.071   5.228
27245W        W86506  40.048  15.638   4.242
27246W        W86507  10.657  36.465  10.606
27247W        W86508  24.134  41.965   1.252
27248W        W86509  20.558  32.895   4.707
27249W        W86510  31.558  42.507  11.007
27250W        W86511  36.091  14.752   1.789
27251W        W86512  11.180  39.945   2.391
27252W        W86513  44.807  30.648   0.831
27253W        W86514  41.466  13.175   2.723
27254W        W86515  42.333  34.002   1.332
27255W        W86516  42.293  11.345  14.398
27256W        W86517  32.570   0.273  11.885
27257W        W86518  41.418  21.257   2.813
27258W        W86519  22.087  13.645  12.081
27259W        W86520  37.850  22.669   3.769
27260W        W86521  38.544  27.601   1.813
27261W        W86522  42.401  36.022   3.153
27262W        W86523  27.949  23.545   1.819
27263W        W86524  36.394  24.719   4.316
27264W        W86525   4.280  27.130  14.817
27265W        W86526  14.214   6.818  10.946
27266W        W86527  38.496  41.348  12.952
27267W        W86528   6.316  44.268   1.403
27268W        W86529   9.341  31.484   1.363
27269W        W86530  16.757  22.023   4.688
27270W        W86531  34.426  23.665   0.288
27271W        W86532  41.529  24.067  12.566
27272W        W86533  28.583  10.346  13.456
27273W        W86534  42.878  43.861  14.922
27274W        W86535  25.978  32.114  12.095
27275W        W86536  17.599  11.141  12.874
27276W        W86537  30.530  33.408   4.646
27277W        W86538  38.455  14.710   2.661
27278W        W86539  29.070  16.203  12.545
27279W        W86540  39.416  42.909  10.948
27280W        W86541  31.548   8.850  10.902
27281W        W86542  23.179  42.893  13.982
27282W        W86543  39.041  31.491  14.476
27283W        W86544   6.817  11.854   2.416
27284W        W86545   3.943  15.636   4.762
27285W        W86546  40.830  19.263  12.840
27286W        W86547  37.860   0.464  10.484
27287W        W86548  21.146  36.416   2.279
27288W        W86549  30.606  38.852   1.313
27289W        W86550  28.531  16.628  10.581
27290W        W86551  40.954  12.774  14.800
27291W        W86552  35.465  10.276   3.785
27292W        W86553  36.063  31.487   3.176
27293W        W86554  30.092  10.220  13.519
27294W        W86555  28.945   9.238   1.787
27295W        W86556  34.459  20.210  12.534
27296W        W86557  17.660   4.789   0.339
27297W        W86558   5.819   1.414   1.262
27298W        W86559  20.573  14.139  13.439
27299W        W86560  27.100  44.295   1.816
27300W        W86561  34.387   4.375   4.200
27301W        W86562  25.553   4.882  12.950
27302W        W86563  32.987  34.606  12.396
27303W        W86564  44.755  10.161  10.626
27304W        W86565  32.885  40.945   0.431
27305W        W86566  41.858  41.021   0.248
27306W        W86567  14.626   2.247  11.958
27307W        W86568  26.608  26.008   1.335
27308W        W86569   3.775  13.668  14.480
27309W        W86570   6.375  33.952   3.780
27310W        W86571   6.360  10.207   0.781
27311W        W86572  35.405  27.460   2.841
27312W        W86573  38.516  14.659  11.506
27313W        W86574   0.486  26.514  10.583
27314W        W86575  43.996  17.077   3.737
27315W        W86576  42.866   7.820  13.839
27316W        W86577  21.590  10.263  14.442
27317W        W86578  11.858   7.397  12.551
27318W        W86579  20.768  29.122   3.211
27319W        W86580   1.809   0.265  12.879
27320W        W86581  41.954  10.685  12.994
27321W        W86582  24.590  33.926  12.839
27322W        W86583  22.041   3.903  14.357
27323W        W86584  11.250  34.038  11.077
27324W        W86585  31.445  31.536  11.128
27325W        W86586  18.067  24.124  13.348
27326W        W86587  19.613  27.490  11.512
27327W        W86588  16.293  17.573   4.296
27328W        W86589  24.494  41.314  14.297
27329W        W86590  37.037  19.056  11.986
27330W        W86591  31.632  24.105  10.928
27331W        W86592  10.788  33.415  10.547
27332W        W86593  39.354  18.214   4.299
27333W        W86594  32.996   8.836   3.338
27334W        W86595   4.857   7.888  14.001
27335W        W86596  30.541   5.391   2.676
27336W        W86597  44.294  32.078   1.830
27337W        W86598  30.072  19.610   4.720
27338W        W86599  15.295  42.026   2.207
27339W        W86600  20.087   6.188   4.171
27340W        W86601  35.852   7.875   3.802
27341W        W86602  39.856   7.317  14.429
27342W        W86603  18.613  37.995  14.408
27343W        W86604  14.724   1.453  14.810
27344W        W86605   1.466  14.233   0.272
27345W        W86606  38.336   7.330   0.919
27346W        W86607  18.132  26.088  13.935
27347W        W86608  27.560  21.737  11.962
27348W        W86609   9.748  44.418  14.374
27349W        W86610  44.943  22.139   4.618
27350W        W86611  14.124  41.851   1.325
27351W        W86612   9.314  40.017   0.392
27352W        W86613  37.843  30.025  14.471
27353W        W86614  15.274  26.617   0.260
27354W        W86615  42.384  43.863  11.532
27355W        W86616  28.979   5.213  12.923
27356W        W86617   1.924  26.520   0.463
27357W        W86618  38.328  35.574   1.291
27358W        W86619  37.873   5.299   3.340
27359W        W86620   4.825   7.274   5.724
27360W        W86621  26.119  14.151  11.465
27361W        W86622  16.640  33.078   2.249
27362W        W86623  13.648  14.753  10.154
27363W        W86624   2.307   6.396  11.876
27364W        W86625  30.084  41.321  10.988
27365W        W86626   4.414  11.368  11.986
27366W        W86627   5.701   4.384   4.741
27367W        W86628  36.523  26.678  11.419
27368W        W86629  13.300  19.167  14.930
27369W        W86630  43.327   0.428  11.009
27370W        W86631  13.646   3.340  12.905
27371W        W86632   7.397  32.060  13.379
27372W        W86633  15.601  14.816   1.244
27373W        W86634  25.966  32.489   0.960
27374W        W86635  29.960  18.189   4.629
27375W        W86636  31.068  37.861   2.419
27376W        W86637  25.007  23.082  11.510
27377W        W86638  21.571  11.670  13.394
27378W        W86639  27.607   9.769   0.285
27379W        W86640  35.367  25.045   3.724
27380W        W86641   3.248  33.521  14.779
27381W        W86642  10.748  16.214  11.987
27382W        W86643  37.530  27.673  14.433
27383W        W86644  16.195   5.845  13.529
27384W        W86645  40.922  40.917   3.157
27385W        W86646  23.127  24.194   2.291
27386W        W86647  23.996  39.393   3.729
27387W        W86648  24.589  28.558  12.908
27388W        W86649  38.980  28.121   5.190
27389W        W86650   4.262  26.549  14.919
27390W        W86651   9.154  26.494   4.646
27391W        W86652  20.269  20.698  12.939
27392W        W86653  18.574  41.963   2.385
27393W        W86654  16.753  30.528  11.406
27394W        W86655  39.316  44.826  10.518
27395W        W86656  26.133  28.013   1.933
27396W        W86657  16.706  22.197   4.270
27397W        W86658   6.832  26.647  11.457
27398W        W86659  36.024  21.071  10.956
27399W        W86660   0.937  42.331   2.876
27400W        W86661  40.912  22.205  11.009
27401W        W86662  12.262  22.108  10.525
27402W        W86663  44.945   2.849   4.355
27403W        W86664   6.910  20.693   4.284
27404W        W86665   8.307  16.792   1.848
27405W        W86666   9.814  32.474  13.002
27406W        W86667   5.766   4.238  14.415
27407W        W86668   8.710  34.993  13.961
27408W        W86669  22.523  18.115   0.739
27409W        W86670  28.671   6.678   3.342
27410W        W86671   4.738  23.631   9.928
27411W        W86672  25.069   8.841   4.749
27412W        W86673   2.393  10.861   2.200
27413W        W86674  38.904  15.788  10.911
27414W        W86675  42.905  24.213   2.686
27415W        W86676  37.393  29.595  14.496
27416W        W86677  40.505  24.513  12.057
27417W        W86678   1.418  34.505  13.047
27418W        W86679  27.529   8.675  10.991
27419W        W86680  16.736  38.838  10.119
27420W        W86681   3.460  21.627   2.291
27421W        W86682  31.920  40.921  13.491
27422W        W86683  14.156   1.376   1.359
27423W        W86684  42.479   2.310  12.394
27424W        W86685  43.834   1.904   0.471
27425W        W86686  16.750  37.047   0.853
27426W        W86687  44.346  29.606  14.008
27427W        W86688   2.907   3.237  12.346
27428W        W86689  10.821  32.472  14.997
27429W        W86690  23.686  33.890   2.418
27430W        W86691   4.900  22.192  12.365
27431W        W86692  31.553  33.548   3.345
27432W        W86693   2.247  32.975  12.091
27433W        W86694  38.536   6.695  14.297
27434W        W86695   5.904  35.367  12.078
27435W        W86696   9.821  10.204  11.100
27436W        W86697  43.287   1.394  12.094
27437W        W86698   4.745   7.825  13.472
27438W        W86699  12.726  43.853  14.946
27439W        W86700  44.376  44.460  11.038
27440W        W86701  36.012   6.810   1.370
27441W        W86702  21.055   6.923  10.544
27442W        W86703  17.790  17.666   1.443
27443W        W86704  26.577  26.012  10.427
27444W        W86705  36.097  21.067   2.195
27445W        W86706  21.565  28.655  10.134
27446W        W86707  22.098  11.828  12.496
27447W        W86708  33.954   7.815  14.920
27448W        W86709  44.389   5.354   0.846
27449W        W86710  28.175  12.748   1.851
27450W        W86711  22.112  25.550  13.881
27451W        W86712  44.330  11.265   3.844
27452W        W86713  35.885  43.771   3.866
27453W        W86714  32.091   6.686  14.844
27454W        W86715  18.548  15.764   1.920
27455W        W86716  16.204  26.510   2.791
27456W        W86717  12.626  36.080   2.312
27457W        W86718   1.943  15.768   1.242
27458W        W86719  38.035  11.724   0.336
27459W        W86720  21.726  32.945   3.350
27460W        W86721  41.495  24.558  13.847
27461W        W86722   0.448  14.123   3.382
27462W        W86723   5.880  29.636   3.148
27463W        W86724  25.620   0.470   3.705
27464W        W86725  14.713  19.197   3.279
27465W        W86726  32.129   0.852  11.480
27466W        W86727  35.464   1.781  12.410
27467W        W86728   3.748  43.394   4.797
27468W        W86729  40.857  12.304   0.901
27469W        W86730  27.605  39.040  13.835
27470W        W86731  41.370  30.496   2.756
27471W        W86732  36.098  13.840   2.247
27472W        W86733  40.807  22.742   1.243
27473W        W86734   7.301  21.114   2.373
27474W        W86735  12.834  19.196  14.860
27475W        W86736   5.439  33.506  13.882
27476W        W86737  37.945   8.716  10.460
27477W        W86738  23.536  19.721   5.257
27478W        W86739   4.778   4.842  10.115
27479W        W86740  34.403  21.055   3.233
27480W        W86741  30.968  20.115  14.812
27481W        W86742  12.824  34.445  13.428
27482W        W86743  28.487  16.168  11.909
27483W        W86744  38.042  39.554  12.433
27484W        W86745  13.319  35.538  12.885
27485W        W86746   0.482  35.034   4.737
27486W        W86747  44.502  33.879   3.285
27487W        W86748  32.558  13.781  11.025
27488W        W86749  33.919  36.463  10.464
27489W        W86750   3.340   5.204   1.734
27490W        W86751  16.184  33.566   2.195
27491W        W86752   9.363   6.682  12.956
27492W        W86753  25.676   5.211   4.262
27493W        W86754  12.734  20.678   1.377
27494W        W86755  37.997  15.700   5.270
27495W        W86756   0.909  36.000   5.241
27496W        W86757   3.715  36.410  10.997
27497W        W86758  33.523  39.896   2.206
27498W        W86759  38.011  22.745  13.939
27499W        W86760  11.239   9.285   1.906
27500W        W86761  23.674  38.406  14.888
27501W        W86762  25.707   1.904  14.445
27502W        W86763  18.714  34.008   3.283
27503W        W86764  39.819  21.752  12.916
27504W        W86765  38.005   4.766  13.060
27505W        W86766  38.904   4.203  13.514
27506W        W86767  38.887  38.847  12.476
27507W        W86768  24.149  42.822   3.248
27508W        W86769  30.655  20.581   2.703
27509W        W86770  31.962   1.467  13.045
27510W        W86771  43.412  41.503  10.563
27511W        W86772  32.529  20.238  14.439
27512W        W86773  30.044  15.096  14.282
27513W        W86774  37.943  42.862   1.228
27514W        W86775  39.551  27.472   1.715
27515W        W86776  23.585  21.128   2.882
27516W        W86777  26.053  25.205  12.344
27517W        W86778   5.313  42.857  11.476
27518W        W86779  10.716  25.631   0.375
27519W        W86780  17.739  27.141   2.765
27520W        W86781  13.320  24.503   3.292
27521W        W86782  19.599  39.967   2.731
27522W        W86783  12.801  28.145   3.815
27523W        W86784   2.463   7.311  12.842
27524W        W86785  44.327  33.101   3.674
27525W        W86786  33.065  24.668   2.689
27526W        W86787  31.423  20.575  12.453
27527W        W86788   7.361  35.027  10.597
27528W        W86789  34.872  22.057   2.803
27529W        W86790  43.511  40.360  13.048
27530W        W86791   9.755  41.975  13.456
27531W        W86792  15.710  27.009   3.657
27532W        W86793  10.144   6.291  11.028
27533W        W86794  39.363  37.980   2.665
27534W        W86795  44.933  16.566   4.115
27535W        W86796  19.144  24.621   4.289
27536W        W86797  26.147  27.640   1.219
27537W        W86798   8.815   7.272  14.509
27538W        W86799  35.911  11.193   4.199
27539W        W86800  17.275  41.992  10.941
27540W        W86801  27.144  43.818   1.828
27541W        W86802   8.350   5.383   3.377
27542W        W86803  12.237   5.797   3.335
27543W        W86804  43.453  39.375  12.531
27544W        W86805  11.775  38.999  12.906
27545W        W86806  29.584  37.939   3.774
27546W        W86807  22.233  31.609   1.323
27547W        W86808  38.836  22.587   1.258
27548W        W86809  28.037  34.094  11.988
27549W        W86810   5.220  15.171   0.966
27550W        W86811  27.953  35.592  10.955
27551W        W86812   3.247   6.791  10.477
27552W        W86813   4.747   2.811   9.998
27553W        W86814  32.426  40.548  12.487
27554W        W86815   3.861  14.112   3.319
27555W        W86816   6.292   2.339   0.774
27556W        W86817   4.352  18.073   0.898
27557W        W86818   0.747   0.374   1.281
27558W        W86819   6.295   0.491  11.433
27559W        W86820   2.929  36.927  13.800
27560W        W86821  33.588   3.939  14.418
27561W        W86822  30.590   4.928   2.304
27562W        W86823  17.075   0.285  12.437
27563W        W86824  27.104  11.220  14.903
27564W        W86825   4.842  38.454   4.159
27565W        W86826  27.450  16.808   1.407
27566W        W86827  17.746  42.986  12.415
27567W        W86828  21.693   0.291  11.416
27568W        W86829  16.164  22.509   4.169
27569W        W86830  16.218  24.651   0.821
27570W        W86831  10.216  18.231   0.943
27571W        W86832  16.798  16.624   0.816
27572W        W86833  10.274  38.542  14.510
27573W        W86834   9.199  38.944   5.319
27574W        W86835  38.986  24.503   4.321
27575W        W86836  28.093   7.312   5.274
27576W        W86837  18.072   5.848   1.694
27577W        W86838   3.226   8.332   9.957
27578W        W86839  27.669  29.068  14.345
27579W        W86840  28.552  32.566   0.805
27580W        W86841   0.841  11.342   1.856
27581W        W86842  23.616  36.874   1.290
27582W        W86843  40.004  16.755  12.999
27583W        W86844   2.467  26.058  13.316
27584W        W86845  10.185  39.921   4.600
27585W        W86846   3.759   4.245   0.888
27586W        W86847  40.011  37.486   5.213
27587W        W86848  18.606  29.112   5.661
27588W        W86849   1.760   5.765   0.405
27589W        W86850  15.718  32.577  11.064
27590W        W86851  43.975   1.785  11.490
27591W        W86852  34.501  19.226  12.020
27592W        W86853  21.609  38.864  12.082
27593W        W86854  27.161  33.022   1.366
27594W        W86855  34.098  36.429  13.457
27595W        W86856  39.006   9.767  13.401
27596W        W86857  35.949  12.272  14.969
27597W        W86858  36.366  43.341  12.021
27598W        W86859  19.121  13.657   3.317
27599W        W86860  18.236  43.836   3.358
27600W        W86861  29.651   5.345  10.475
27601W        W86862  17.580  40.858   1.295
27602W        W86863   5.811  35.036   3.802
27603W        W86864  11.701  42.352   3.178
27604W        W86865   9.324  20.195  13.936
27605W        W86866  20.184  18.696   1.328
27606W        W86867  27.621  37.343  10.161
27607W        W86868  16.074   1.347   4.702
27608W        W86869  12.628   7.680  11.027
27609W        W86870  34.872  22.623   1.755
27610W        W86871  14.177   9.209   3.820
27611W        W86872  16.259  41.021  11.520
27612W        W86873  39.426  27.678  14.346
27613W        W86874  16.311   6.182   9.945
27614W        W86875  26.607  11.665   2.671
27615W        W86876   4.937  10.332   1.260
27616W        W86877   8.297  27.002  12.458
27617W        W86878   3.449  42.446  13.979
27618W        W86879  32.491  11.331  11.558
27619W        W86880   1.314  13.351  13.887
27620W        W86881  17.265  10.185  10.989
27621W        W86882  11.668  17.204   0.374
27622W        W86883  44.272  24.001   2.786
27623W        W86884  13.727  16.318  11.063
27624W        W86885  22.095   1.340  12.384
27625W        W86886  37.830  13.244   4.682
27626W        W86887  30.046  23.181   3.739
27627W        W86888   5.414  27.067  14.787
27628W        W86889   8.865   1.401   0.862
27629W        W86890  37.531  17.700   4.756
27630W        W86891  38.496  34.017  14.361
27631W        W86892  29.989  15.279  14.973
27632W        W86893  44.482  40.837   2.741
27633W        W86894  42.500  34.008  13.982
27634W        W86895  35.521  26.674   3.305
27635W        W86896  10.722  11.735   4.265
27636W        W86897  42.940  20.204   4.119
27637W        W86898  12.233  34.575   3.668
27638W        W86899  42.302  21.145  13.995
27639W        W86900  37.550  38.842  13.014
27640W        W86901  43.918  24.998  10.907
27641W        W86902  39.396  12.265   0.332
27642W        W86903   2.396  43.991   2.754
27643W        W86904  26.110  33.112   2.718
27644W        W86905  10.766   1.872   2.704
27645W        W86906  20.656   2.260  11.596
27646W        W86907  42.806  29.922  11.875
27647W        W86908  15.286   5.895  10.896
27648W        W86909   2.863   7.796  13.522
27649W        W86910  31.983   9.357  11.057
27650W        W86911  36.847  23.670  10.998
27651W        W86912  19.627  25.200   3.795
27652W        W86913  14.307   7.893   2.245
27653W        W86914  33.577  27.677   2.902
27654W        W86915   2.425  14.129   4.807
27655W        W86916  24.050   2.434  13.418
27656W        W86917  37.940  10.286  11.481
27657W        W86918  17.262  39.335  11.857
27658W        W86919   2.289   6.401  12.351
27659W        W86920   1.786  12.199  14.870
27660W        W86921  42.487   0.289   1.218
27661W        W86922  33.079  15.104   3.354
27662W        W86923  38.524  34.914  11.409
27663W        W86924  30.495  31.979   3.702
27664W        W86925  17.138   8.260  11.925
27665W        W86926  33.571   9.193  10.058
27666W        W86927  27.651  10.176   4.688
27667W        W86928   0.415  18.123  11.412
27668W        W86929  25.533  22.142   3.793
27669W        W86930  11.713  32.138   5.211
27670W        W86931  25.139  33.418  14.433
27671W        W86932  20.220   2.406   3.732
27672W        W86933  40.960  28.561   4.300
27673W        W86934  13.319  40.901  14.334
27674W        W86935  17.085   3.375   1.216
27675W        W86936  42.450  22.249   3.190
27676W        W86937  29.934  29.060  11.949
27677W        W86938  12.711  25.086  11.476
27678W        W86939  36.047  22.633  11.428
27679W        W86940  23.003  19.596   0.910
27680W        W86941  28.981  39.819  14.951
27681W        W86942  10.174  39.418  11.513
27682W        W86943  12.250   1.265  11.445
27683W        W86944  17.144  13.349  10.509
27684W        W86945  42.451   7.210  10.504
27685W        W86946  34.498  44.800  11.557
27686W        W86947  31.583   2.270   3.201
27687W        W86948  12.130  28.042  11.865
27688W        W86949   2.333   9.224  11.920
27689W        W86950   2.394   3.278   0.847
27690W        W86951   5.701  24.136   0.898
27691W        W86952  12.648  25.609  10.488
27692W        W86953   3.853   8.256  13.997
27693W        W86954  11.355  29.111  12.519
27694W        W86955  21.085  19.044   1.869
27695W        W86956  30.570  34.393   0.941
27696W        W86957  31.485  43.943   3.750
27697W        W86958  32.960   2.843   4.832
27698W        W86959  17.598  23.578   4.774
27699W        W86960   8.279  38.516   0.418
27700W        W86961  27.973  24.646  14.282
27701W        W86962  11.789  39.494   4.294
27702W        W86963  18.740  33.983   1.377
27703W        W86964  19.181  28.484   3.369
27704W        W86965  17.141  35.034  13.347
27705W        W86966  30.149  19.077  11.094
27706W        W86967  23.590  39.471   4.274
27707W        W86968  18.137   3.440   4.188
27708W        W86969  35.863  20.228  10.440
27709W        W86970  28.568  33.913   5.296
27710W        W86971  34.506  29.594  14.948
27711W        W86972  30.097  22.017  11.920
27712W        W86973  38.514  37.934   4.620
27713W        W86974  43.478   1.740   4.134
27714W        W86975  11.858   1.893   1.701
27715W        W86976  25.012  14.217   1.876
27716W        W86977   7.667  22.183  14.325
27717W        W86978  12.291  33.091  11.545
27718W        W86979  22.746   5.351   2.720
27719W        W86980  44.315  39.423   0.814
27720W        W86981   6.316  39.412   0.764
27721W        W86982  22.616  41.806   1.912
27722W        W86983  34.433  13.635  11.398
27723W        W86984   6.406  34.596   0.479
27724W        W86985  40.449  22.698   9.979
27725W        W86986   3.351  43.886  11.394
27726W        W86987  21.720   6.921   3.358
27727W        W86988   1.740   9.855  14.032
27728W        W86989  11.261   2.739   4.285
27729W        W86990  16.700  23.551  12.451
27730W        W86991   4.909  44.489   4.630
27731W        W86992   5.805  38.493  11.974
27732W        W86993  33.926   6.905   1.696
27733W        W86994  17.160  32.573   4.171
27734W        W86995  35.603  44.836   0.817
27735W        W86996   1.453  17.291   1.876
27736W        W86997  21.093  26.656   5.273
27737W        W86998   3.952   5.739  11.605
27738W        W86999   6.192   4.269   4.627
27739W        W87000   5.923  21.720   3.281
27740W        W87001  38.433  31.618  12.479
27741W        W87002  14.253  26.174   4.820
27742W        W87003   5.207  44.390   3.781
27743W        W87004  33.940   0.937   1.841
27744W        W87005  35.474   3.390   4.647
27745W        W87006   8.816  39.007   3.252
27746W        W87007   1.440  17.682   0.473
27747W        W87008  10.786  31.964  14.313
27748W        W87009  34.979   9.227  12.521
27749W        W87010  31.920  32.083   2.387
27750W        W87011  43.326  20.524  14.959
27751W        W87012  29.931  18.283   2.831
27752W        W87013  28.134  41.832  13.492
27753W        W87014  43.768  30.162   1.806
27754W        W87015  18.095  22.553   2.878
27755W        W87016   6.343  42.333   4.240
27756W        W87017  28.941  18.750   2.736
27757W        W87018  42.408  11.153   1.396
27758W        W87019  19.701   5.410   0.435
27759W        W87020   7.316   4.374   3.175
27760W        W87021  11.839  34.512  14.946
27761W        W87022  41.522  14.271  12.419
27762W        W87023   0.756  40.028   1.834
27763W        W87024   3.370  20.057  12.544
27764W        W87025  24.713  22.574   4.332
27765W        W87026  16.300   9.312   3.715
27766W        W87027   5.725  34.535  12.550
27767W        W87028  21.065  17.116   2.385
27768W        W87029  34.118  26.165  14.881
27769W        W87030   0.255  43.362  13.945
27770W        W87031  43.487  13.779  12.054
27771W        W87032   5.286  37.423  14.904
27772W        W87033  30.127  44.895   4.747
27773W        W87034   6.189  42.817  10.494
27774W        W87035   5.823  43.866   4.225
27775W        W87036  41.397  16.291   0.796
27776W        W87037   7.892  13.622   4.118
27777W        W87038  40.490  43.504  11.417
27778W        W87039  17.183  30.630   5.126
27779W        W87040  10.729  28.582  12.382
27780W        W87041  32.561  13.824   5.723
27781W        W87042  42.809  30.160  10.496
27782W        W87043   3.309  36.917  14.911
27783W        W87044  44.841  38.067   2.268
27784W        W87045  24.147  24.162   4.605
27785W        W87046   3.870  14.242   3.668
27786W        W87047  11.631  22.632   0.279
27787W        W87048  39.416  28.096   0.309
27788W        W87049  19.616  30.985   0.468
27789W        W87050  10.345  27.162   1.306
27790W        W87051  41.802  35.920  12.408
27791W        W87052  38.931  29.474  10.921
27792W        W87053  42.411  34.049   3.363
27793W        W87054  28.597  17.200  10.920
27794W        W87055  39.357   3.298   4.689
27795W        W87056   4.449  10.376   2.196
27796W        W87057  35.985  11.667  14.469
27797W        W87058  31.979  26.670   0.903
27798W        W87059  36.522  13.624   2.299
27799W        W87060  32.928  13.345  14.458
27800W        W87061   5.805  37.481   4.351
27801W        W87062  37.552  42.343   4.647
27802W        W87063  20.760  21.179   2.334
27803W        W87064  33.421  25.162   1.744
27804W        W87065  11.231   6.855   1.433
27805W        W87066  35.896   4.291  11.079
27806W        W87067  38.950  41.935   4.214
27807W        W87068   0.816  21.037  11.545
27808W        W87069  32.063  27.467   3.732
27809W        W87070  12.766  36.882  10.925
27810W        W87071  25.186  16.220   3.362
27811W        W87072  22.702   4.759   2.683
27812W        W87073  18.624  44.933  13.798
27813W        W87074  26.191  31.132  13.860
27814W        W87075  21.127   5.403   3.845
27815W        W87076  44.329  14.808  12.394
27816W        W87077  21.541  37.873  12.070
27817W        W87078  37.836   1.925   0.846
27818W        W87079  37.073   2.753   0.458
27819W        W87080   7.373   4.740  10.615
27820W        W87081   4.253  27.148  12.083
27821W        W87082  28.568  30.625   4.229
27822W        W87083  39.855  36.946   4.302
27823W        W87084  28.151  15.792  11.423
27824W        W87085   3.758  11.680   0.417
27825W        W87086   5.830   8.193   0.258
27826W        W87087  22.186  27.977  12.515
27827W        W87088   1.874  28.092  14.382
27828W        W87089  19.117  25.501   0.378
27829W        W87090   2.941  27.605  11.436
27830W        W87091  44.756  19.634   1.924
27831W        W87092  20.196   3.901  13.473
27832W        W87093  29.661  16.179   0.896
27833W        W87094  30.512  25.508  12.558
27834W        W87095  26.031   7.768  12.449
27835W        W87096  24.589  17.129  14.381
27836W        W87097  33.405  40.813  14.456
27837W        W87098  37.959  18.774   2.898
27838W        W87099  42.975   3.398  12.356
27839W        W87100  10.838  42.512   1.408
27840W        W87101   7.370  30.984   4.786
27841W        W87102   2.737   3.278   1.702
27842W        W87103  21.027  24.004   3.648
27843W        W87104   8.170  30.086   2.262
27844W        W87105  17.763  41.803  12.085
27845W        W87106  41.444  20.618  11.114
27846W        W87107  41.385  39.036  12.441
27847W        W87108  30.943   3.834  13.348
27848W        W87109   4.355  23.662   3.350
27849W        W87110  32.510  22.576   1.383
27850W        W87111  27.502   7.380  11.420
27851W        W87112   3.854   7.744   2.293
27852W        W87113  34.474  38.884   5.104
27853W        W87114  30.561   2.948  11.433
27854W        W87115  42.934  41.441   3.170
27855W        W87116  31.551  32.102  12.477
27856W        W87117   1.742  42.788   4.812
27857W        W87118  10.146   7.674   5.272
27858W        W87119  33.990  36.091  14.934
27859W        W87120  24.703  21.026  14.415
27860W        W87121   1.791  31.558   4.675
27861W        W87122  34.596  13.189  14.486
27862W        W87123  44.793  44.480  10.949
27863W        W87124   6.206   4.368  12.510
27864W        W87125  20.143  40.950  11.968
27865W        W87126  42.508  42.958  10.617
27866W        W87127   5.409   5.695  14.025
27867W        W87128   9.309  43.957   3.324
27868W        W87129  44.781   7.887  14.910
27869W        W87130  37.504   2.929  12.486
27870W        W87131  40.503  13.207  12.938
27871W        W87132  25.174  15.655  12.378
27872W        W87133  29.116  27.669  14.275
27873W        W87134  24.112  32.968  12.969
27874W        W87135  28.553   1.811   2.200
27875W        W87136  17.719  16.793  10.070
27876W        W87137  44.951  25.521   3.650
27877W        W87138  16.115  23.128   2.235
27878W        W87139  39.390  16.165   2.848
27879W        W87140  18.129   2.779   4.269
27880W        W87141  18.592  10.210   4.209
27881W        W87142   0.949  38.339   0.752
27882W        W87143   4.278  44.495  14.972
27883W        W87144  31.034   7.217   0.945
27884W        W87145   7.900  29.655   2.189
27885W        W87146  30.422  17.257   2.317
27886W        W87147   3.317  32.610   0.378
27887W        W87148   1.241   4.936   3.760
27888W        W87149  17.272   2.925  13.993
27889W        W87150   6.371  24.512   0.805
27890W        W87151  21.581  37.434   4.158
27891W        W87152  10.316   5.340  13.311
27892W        W87153   7.374   7.851  13.906
27893W        W87154   7.280  33.894   3.786
27894W        W87155  44.289  23.030   2.705
27895W        W87156  38.403   4.810   1.275
27896W        W87157   3.736   8.204  11.417
27897W        W87158  13.280  17.165   0.376
27898W        W87159  28.487   2.431   0.250
27899W        W87160  24.195  12.120   1.778
27900W        W87161  25.987   8.298   0.871
27901W        W87162  43.811  44.399   2.205
27902W        W87163  35.596  17.787   0.301
27903W        W87164  44.975  36.074  11.985
27904W        W87165   7.182   9.311   0.469
27905W        W87166  24.485  44.501   3.267
27906W        W87167  31.592  39.459   0.848
27907W        W87168  34.550  28.001  11.606
27908W        W87169  25.507  25.487  13.357
27909W        W87170  38.554  22.104  13.809
27910W        W87171  12.661   6.277  10.099
27911W        W87172  34.065   9.197  14.943
27912W        W87173  21.736  28.434   3.750
27913W        W87174  20.548  38.022  10.573
27914W        W87175   1.932   0.969  11.417
27915W        W87176  42.916   1.426   1.873
27916W        W87177   7.673  22.129   4.683
27917W        W87178  31.408  18.751  14.298
27918W        W87179  24.693  41.825   3.383
27919W        W87180  27.648  37.371  11.525
27920W        W87181  39.960  25.159  10.625
27921W        W87182  37.498  26.014   1.901
27922W        W87183  43.348  40.974  10.969
27923W        W87184   9.260  22.659   0.276
27924W        W87185   7.674  38.487   3.782
27925W        W87186  14.105  42.334  14.300
27926W        W87187  30.569  20.760   0.451
27927W        W87188  26.051   1.931   3.815
27928W        W87189  26.156  18.736  12.862
27929W        W87190  36.905  34.398   1.322
27930W        W87191   6.256  27.128   0.390
27931W        W87192  33.075   0.860  11.126
27932W        W87193   0.989  17.597  11.391
27933W        W87194  40.329   5.374  11.887
27934W        W87195  13.176  10.708  12.573
27935W        W87196   3.259  20.154   3.810
27936W        W87197  36.477  23.527   3.647
27937W        W87198   0.303  12.703  11.512
27938W        W87199  19.282  38.438   2.331
27939W        W87200   8.339  14.102  14.364
27940W        W87201  35.993  18.160  14.497
27941W        W87202  28.098   0.860   4.742
27942W        W87203  20.570  17.234  13.503
27943W        W87204  33.091  35.931   0.762
27944W        W87205   1.396  20.077   1.271
27945W        W87206  44.429  35.858  13.909
27946W        W87207   3.276   5.353   4.220
27947W        W87208  24.571  22.745   3.146
27948W        W87209   8.806  15.195   4.723
27949W        W87210  29.007  42.481  13.883
27950W        W87211  11.785  38.923   2.852
27951W        W87212  36.986   9.321   1.396
27952W        W87213  16.298  33.109  14.764
27953W        W87214   8.214   0.947  13.400
27954W        W87215  13.602  38.002  14.806
27955W        W87216  27.039  37.350  13.474
27956W        W87217  10.345  18.275   1.708
27957W        W87218  26.077   3.320   2.873
27958W        W87219  35.035  20.602   4.323
27959W        W87220   1.815   9.870   2.885
27960W        W87221  26.600  32.088  10.512
27961W        W87222   6.236  12.713  12.908
27962W        W87223  27.561  20.665  11.443
27963W        W87224  10.219   1.863   1.837
27964W        W87225  25.177   9.761   1.913
27965W        W87226  31.089  43.983   0.933
27966W        W87227  37.993  20.555  10.969
27967W        W87228   3.845  29.473   5.242
27968W        W87229   8.301  12.699   2.696
27969W        W87230   3.419  32.982   2.880
27970W        W87231  36.574   5.913   0.359
27971W        W87232   0.257   5.223  12.888
27972W        W87233  25.491  40.440   4.254
27973W        W87234  16.265   3.814   4.213
27974W        W87235  17.780  44.865   4.354
27975W        W87236  39.911  41.495   1.360
27976W        W87237  38.073  16.637   1.417
27977W        W87238  19.657  12.612  13.544
27978W        W87239  39.919  41.017   0.275
27979W        W87240  36.028  11.144   2.671
27980W        W87241  11.708   6.822   2.413
27981W        W87242  12.127   1.478  13.531
27982W        W87243  23.217  19.661   1.756
27983W        W87244  21.633  40.799   0.735
27984W        W87245   9.393  18.754  11.068
27985W        W87246  31.969   8.289  13.451
27986W        W87247  29.455  41.434  13.796
27987W        W87248  22.608  21.088   2.763
27988W        W87249  29.475  22.229   2.310
27989W        W87250  20.665   0.382  13.939
27990W        W87251  34.072   5.240  13.829
27991W        W87252  26.097  25.176   3.305
27992W        W87253  38.047  31.083   1.395
27993W        W87254  35.864   2.744   2.231
27994W        W87255  24.717  34.064   1.796
27995W        W87256   7.691  21.639  13.954
27996W        W87257  40.868   1.891  13.490
27997W        W87258  21.197  40.461   3.342
27998W        W87259  42.891  32.406  13.346
27999W        W87260  33.921  32.467   2.694
28000W        W87261  44.428  30.471  13.537
28001W        W87262  13.340  28.126  11.569
28002W        W87263  34.895  39.904  12.562
28003W        W87264  30.532  40.959   0.403
28004W        W87265  12.346   6.394   4.239
28005W        W87266  24.029  17.256  14.797
28006W        W87267  25.086  38.826   3.670
28007W        W87268  43.336  19.164   0.420
28008W        W87269  19.206  28.131  10.068
28009W        W87270   4.289  12.655  13.330
28010W        W87271  44.289  31.080   2.670
28011W        W87272  31.971  12.698   3.278
28012W        W87273  18.562  34.982  14.302
28013W        W87274   2.298  28.134  12.351
28014W        W87275   6.203  23.076  13.820
28015W        W87276   1.346  36.507  10.410
28016W        W87277  29.943  43.476  14.300
28017W        W87278  18.771  14.278   1.716
28018W        W87279   6.837   4.830  13.988
28019W        W87280  39.039  39.064   1.272
28020W        W87281  18.199  17.766  14.470
28021W        W87282   4.823  24.506  13.933
28022W        W87283  38.074  10.844   4.805
28023W        W87284   4.824  28.656   4.817
28024W        W87285  37.429  31.529  11.463
28025W        W87286  27.107   5.398   3.787
28026W        W87287  12.284  37.837   0.885
28027W        W87288   0.807   2.452  11.396
28028W        W87289  23.175  37.432  10.016
28029W        W87290  12.686  40.034  10.431
28030W        W87291  18.234  38.842  12.441
28031W        W87292  16.097   3.893  13.824
28032W        W87293   6.727  11.670  12.557
28033W        W87294   3.365  43.881  14.960
28034W        W87295  29.965  43.472   3.728
28035W        W87296  23.159   8.225   3.825
28036W        W87297  21.627  31.987  14.344
28037W        W87298  10.851  20.164   0.408
28038W        W87299  26.686  29.985   2.200
28039W        W87300  38.464   5.907  11.536
28040W        W87301  35.959   2.967  11.055
28041W        W87302  23.690  31.001   1.887
28042W        W87303  18.695  23.513   3.784
28043W        W87304  24.481  21.042   1.705
28044W        W87305  34.053   4.294   4.803
28045W        W87306  15.697  16.670  13.895
28046W        W87307  17.637  28.930   0.756
28047W        W87308  20.246  14.213  12.941
28048W        W87309  23.680  31.082  14.889
28049W        W87310  14.095  11.823   2.748
28050W        W87311  15.711  43.909  13.381
28051W        W87312  26.972  33.897  13.540
28052W        W87313   8.273   6.318   2.267
28053W        W87314  23.143  32.887  12.077
28054W        W87315  10.266  10.755  13.462
28055W        W87316  16.785  39.815   1.418
28056W        W87317  44.813  26.015   1.858
28057W        W87318   5.439  18.730  14.444
28058W        W87319  44.486  19.118  14.289
28059W        W87320  34.385  26.673   1.334
28060W        W87321  43.015  43.443  11.396
28061W        W87322   6.182  12.618   4.121
28062W        W87323  22.227  16.275   2.835
28063W        W87324  21.215   8.239  13.825
28064W        W87325  11.235   7.255  13.530
28065W        W87326  33.079   8.814  14.975
28066W        W87327  37.928   2.828   1.269
28067W        W87328   0.977  33.469  11.480
28068W        W87329   1.898  40.314  12.872
28069W        W87330  20.046  42.025   3.237
28070W        W87331  42.814  13.815   1.305
28071W        W87332  20.703  22.235  11.950
28072W        W87333  25.646  18.185  10.079
28073W        W87334  20.617  34.566  11.856
28074W        W87335  30.114  37.542  11.422
28075W        W87336  37.349  26.457   0.266
28076W        W87337  29.545   3.218  10.056
28077W        W87338   2.384   8.769  14.351
28078W        W87339  28.959  35.087   2.373
28079W        W87340  12.343  43.450  12.439
28080W        W87341  16.216   2.899   5.567
28081W        W87342  11.161  44.476  10.441
28082W        W87343  39.860  38.991  13.931
28083W        W87344  35.905  39.939   2.780
28084W        W87345  11.154  23.149  10.631
28085W        W87346  44.304  41.030   1.422
28086W        W87347  33.893  30.149  14.770
28087W        W87348   7.674   9.290  11.535
28088W        W87349   2.811  13.255  11.069
28089W        W87350  17.617  20.542  14.917
28090W        W87351  36.043   8.753  10.932
28091W        W87352  11.310   6.754  10.973
28092W        W87353  43.310  14.758  13.798
28093W        W87354  22.706  43.022   3.801
28094W        W87355  21.200  39.887  11.968
28095W        W87356  23.565  38.365  12.415
28096W        W87357  30.102   6.225   3.770
28097W        W87358  37.869  28.154  13.797
28098W        W87359  38.973  40.366   5.147
28099W        W87360  24.993   1.359  14.804
28100W        W87361  21.141  14.697   2.326
28101W        W87362  21.517  38.067  12.445
28102W        W87363   6.811  23.696  14.988
28103W        W87364  10.848   0.896   1.935
28104W        W87365  11.791  25.589   4.812
28105W        W87366  41.011  16.290  14.892
28106W        W87367   7.283   4.329   0.949
28107W        W87368   6.846  24.057   2.854
28108W        W87369  34.903  28.939   0.779
28109W        W87370   4.212  20.557  11.399
28110W        W87371  29.137   4.718  12.094
28111W        W87372  29.467  27.103  14.487
28112W        W87373  23.064   9.253   0.846
28113W        W87374  44.358  42.433  13.439
28114W        W87375  17.226  39.542  13.988
28115W        W87376  20.651  14.672  14.385
28116W        W87377  35.107  44.902   2.354
28117W        W87378  26.602   1.254   4.288
28118W        W87379  36.443   1.905  13.022
28119W        W87380  41.005   7.237  14.502
28120W        W87381  23.634   9.885   1.709
28121W        W87382   5.831  20.526  11.899
28122W        W87383  10.268  12.353  10.551
28123W        W87384   6.905  40.383   4.676
28124W        W87385  27.483  10.363   2.405
28125W        W87386   0.975   0.437  14.851
28126W        W87387  17.788  14.161  13.831
28127W        W87388  20.239  21.104  13.950
28128W        W87389  30.544  44.317   2.192
28129W        W87390  41.809  10.243   1.851
28130W        W87391  19.183  30.991   0.443
28131W        W87392  10.839  28.593   1.897
28132W        W87393  19.255  19.683   0.912
28133W        W87394  40.307  24.088  14.820
28134W        W87395  40.980   5.259   1.910
28135W        W87396   6.415  30.606  11.553
28136W        W87397   5.895  10.315   4.744
28137W        W87398  32.594   5.776   4.716
28138W        W87399  30.078  30.909   0.946
28139W        W87400   9.226   1.926   0.962
28140W        W87401   4.727  14.122  11.571
28141W        W87402  17.103  23.717   3.756
28142W        W87403  37.578  17.583   2.748
28143W        W87404  26.045  18.173  12.483
28144W        W87405   1.263  31.551  11.380
28145W        W87406  31.078  15.195   3.289
28146W        W87407   4.412  27.161   0.765
28147W        W87408  24.068  19.111   0.955
28148W        W87409  27.669  26.194  14.455
28149W        W87410  27.676  22.142  13.010
28150W        W87411  33.386   1.337   1.271
28151W        W87412  27.661  19.179   1.263
28152W        W87413  20.733   6.758   4.153
28153W        W87414  40.835  38.947  14.453
28154W        W87415  36.854  39.044   4.698
28155W        W87416  12.838   6.898  13.033
28156W        W87417  19.618   3.898  10.635
28157W        W87418  41.518  34.101  12.929
28158W        W87419  33.616  43.275   4.781
28159W        W87420  10.384   2.744   2.352
28160W        W87421  28.629  42.319  13.360
28161W        W87422  39.348  27.595  11.128
28162W        W87423  28.967   1.451   1.760
28163W        W87424   0.406  25.133  10.589
28164W        W87425   9.335   9.159   3.203
28165W        W87426   8.833  19.567  13.360
28166W        W87427  34.527  43.382   4.293
28167W        W87428  44.358   0.478  14.302
28168W        W87429  30.065  35.885  14.286
28169W        W87430  15.279  26.006   1.230
28170W        W87431   6.389  36.895   1.256
28171W        W87432  34.531  31.927   1.291
28172W        W87433  44.390  44.465   1.886
28173W        W87434   5.852   8.367  12.453
28174W        W87435  17.596  23.734  10.456
28175W        W87436  16.215  27.990  12.933
28176W        W87437  25.656  33.067  14.805
28177W        W87438  43.396  29.011  14.860
28178W        W87439  15.725  10.703   3.777
28179W        W87440  30.008  31.138  10.531
28180W        W87441  41.492  38.016  14.321
28181W        W87442   6.741  37.347   4.763
28182W        W87443   1.262  41.326  13.064
28183W        W87444  31.637   8.165  12.417
28184W        W87445  24.092   4.316  14.903
28185W        W87446  39.354  39.491  11.408
28186W        W87447  31.506   0.854  13.837
28187W        W87448  20.264  37.031   2.392
28188W        W87449  31.050  37.968  14.900
28189W        W87450  39.559   8.815  11.582
28190W        W87451  43.436  35.990   1.219
28191W        W87452   6.210   2.247   2.237
28192W        W87453  44.482  19.764  11.011
28193W        W87454  15.745  35.366  10.495
28194W        W87455   4.797   3.353  14.396
28195W        W87456  31.471  41.432   0.346
28196W        W87457  19.070  22.596  10.568
28197W        W87458   0.331  42.932   0.417
28198W        W87459  12.159  34.955  12.031
28199W        W87460   1.958   4.813  12.400
28200W        W87461   9.730  18.255  14.856
28201W        W87462  37.577  25.965   2.823
28202W        W87463  12.654  33.942   1.429
28203W        W87464  40.908  31.899  12.401
28204W        W87465  38.920  42.397   3.762
28205W        W87466  28.570  38.333   2.327
28206W        W87467  17.682  12.733   2.315
28207W        W87468  19.273   8.858  14.509
28208W        W87469  20.575  37.466  13.427
28209W        W87470   3.321  25.634   4.254
28210W        W87471   1.925   3.416  10.550
28211W        W87472   1.436  32.030   4.304
28212W        W87473  23.580   4.864   3.815
28213W        W87474   9.306  34.497  12.918
28214W        W87475  15.703  43.926  11.070
28215W        W87476  34.459  21.101  14.356
28216W        W87477  33.025  30.031  13.483
28217W        W87478  31.575   1.955   3.647
28218W        W87479  20.173  31.965  11.459
28219W        W87480  19.047  29.080  14.011
28220W        W87481  22.605  29.173  14.470
28221W        W87482  33.072  16.768  11.391
28222W        W87483   9.748   0.278  10.562
28223W        W87484  20.094  31.016   9.449
28224W        W87485  40.810  42.450  11.391
28225W        W87486  32.475  14.820   0.890
28226W        W87487  17.729   5.313  12.370
28227W        W87488   6.888  32.420  11.049
28228W        W87489  14.197  38.493  14.373
28229W        W87490  43.296  34.605  12.087
28230W        W87491   0.349  12.343  12.467
28231W        W87492  42.780  23.989   0.801
28232W        W87493  36.023  31.101   1.755
28233W        W87494   1.433  19.070   3.831
28234W        W87495  34.872  14.195   1.798
28235W        W87496  24.053  28.548   1.835
28236W        W87497   1.281  28.620   3.693
28237W        W87498  32.531  34.370   4.281
28238W        W87499  15.222   4.299  14.283
28239W        W87500   1.865  13.280  13.868
28240W        W87501  31.546  35.528   0.454
28241W        W87502  18.782   2.254  12.509
28242W        W87503  18.754   2.780  10.583
28243W        W87504  28.612   0.772   3.257
28244W        W87505  22.182  10.673  12.462
28245W        W87506   6.830  44.815   0.395
28246W        W87507   2.750  44.907   0.810
28247W        W87508  23.019  10.666   4.781
28248W        W87509  34.588   1.437  12.564
28249W        W87510   2.337  33.907   4.131
28250W        W87511  37.951  14.329   1.731
28251W        W87512  40.912  42.974   2.784
28252W        W87513  38.467   4.250   3.206
28253W        W87514   1.783   1.397  12.392
28254W        W87515  27.668  33.070   2.212
28255W        W87516  43.318  22.219  12.343
28256W        W87517  31.951  28.977   2.371
28257W        W87518  27.595  26.481  10.153
28258W        W87519  17.173   1.735   0.827
28259W        W87520  28.677  42.328   1.311
28260W        W87521  28.968  32.453   2.204
28261W        W87522  13.791   2.401  11.971
28262W        W87523  21.648  36.986   2.330
28263W        W87524  13.133   7.673  11.083
28264W        W87525  25.085  12.137   3.649
28265W        W87526   3.344   9.162   1.408
28266W        W87527  20.660  37.057  14.823
28267W        W87528  32.023  38.953  10.457
28268W        W87529   2.280  15.643  12.527
28269W        W87530  38.947  36.093   4.624
28270W        W87531  13.609  18.708   1.320
28271W        W87532  26.035  22.562  13.013
28272W        W87533  41.420  16.156  14.006
28273W        W87534  44.843  10.741   1.931
28274W        W87535  13.276   4.233   1.419
28275W        W87536  35.066  31.629   0.946
28276W        W87537  35.926  11.743   5.193
28277W        W87538  31.430  30.993  10.457
28278W        W87539  18.590  27.633   9.974
28279W        W87540  43.815  14.657   2.788
28280W        W87541  12.680  23.601   4.810
28281W        W87542  38.386  12.786   4.332
28282W        W87543  41.817  18.553  12.358
28283W        W87544  41.305  14.680  10.543
28284W        W87545  43.883  17.230  14.887
28285W        W87546  41.457  29.669   4.226
28286W        W87547  33.072  24.013  13.546
28287W        W87548   2.852  29.570   2.319
28288W        W87549  10.756  44.497  10.090
28289W        W87550   4.899  15.783   4.667
28290W        W87551  32.636  15.301  14.378
28291W        W87552  30.496  21.601  14.514
28292W        W87553  23.734   0.804   1.264
28293W        W87554  43.406  16.737   0.833
28294W        W87555  19.191  16.670   0.860
28295W        W87556  42.378  38.425   3.839
28296W        W87557  21.669  37.013   1.743
28297W        W87558   2.802  20.635  12.840
28298W        W87559  37.074  17.076  12.975
28299W        W87560  30.967  28.142   2.279
28300W        W87561  29.462   5.243   1.308
28301W        W87562  41.827  22.566  14.916
28302W        W87563  18.782  24.052   1.420
28303W        W87564  40.040  31.999   9.998
28304W        W87565  11.150  42.378   4.218
28305W        W87566  40.382  26.484   3.263
28306W        W87567  44.472  18.150  10.545
28307W        W87568  29.005  24.610   4.216
28308W        W87569   4.773  31.587  10.934
28309W        W87570  29.598  31.402  14.996
28310W        W87571   6.428   1.264   3.818
28311W        W87572  22.581  33.485   0.822
28312W        W87573  32.956  39.491   5.164
28313W        W87574  40.920  11.736   0.909
28314W        W87575  12.184  39.318   1.315
28315W        W87576  28.040   6.887   2.342
28316W        W87577  28.991  11.132   2.829
28317W        W87578  33.466  35.477  10.066
28318W        W87579  33.443   1.357   1.876
28319W        W87580  11.730  19.625   2.817
28320W        W87581  37.352  13.232   2.881
28321W        W87582  22.671  25.624   2.333
28322W        W87583   0.416  19.108  10.591
28323W        W87584  23.192  44.368   0.730
28324W        W87585  23.158   0.933  13.849
28325W        W87586  32.045  21.049  11.916
28326W        W87587  27.608  13.333   0.312
28327W        W87588  35.549  33.978  12.407
28328W        W87589  16.075  10.183  12.404
28329W        W87590  26.962  44.334  12.405
28330W        W87591   4.751  33.984   2.816
28331W        W87592   7.810   9.790  14.458
28332W        W87593  12.133  18.201   1.250
28333W        W87594  15.186  23.582   2.666
28334W        W87595  44.371  10.316   4.700
28335W        W87596  30.652  10.298  14.905
28336W        W87597   1.787   0.391  12.527
28337W        W87598   5.879  41.487   4.669
28338W        W87599  43.811  40.499   0.956
28339W        W87600  19.740  30.011   3.366
28340W        W87601  32.015   0.796   2.384
28341W        W87602  36.039  36.044   9.995
28342W        W87603  44.317  24.484  11.909
28343W        W87604   5.898  38.491  10.460
28344W        W87605   7.224  37.911  13.431
28345W        W87606  27.137  17.122  11.515
28346W        W87607  37.852  37.891  10.550
28347W        W87608  37.507  24.580  11.385
28348W        W87609  17.113   8.366  14.981
28349W        W87610   9.824  42.422  14.778
28350W        W87611   1.752  13.722   2.356
28351W        W87612   3.297  18.701   0.385
28352W        W87613   8.338  41.834   2.897
28353W        W87614  30.614  40.848   1.901
28354W        W87615   5.237  32.604  11.407
28355W        W87616  29.085   3.949   3.205
28356W        W87617  11.658  15.180   4.793
28357W        W87618  34.425  36.469   2.798
28358W        W87619   6.868  27.506   4.183
28359W        W87620   8.386   7.744  11.448
28360W        W87621  37.431  25.681   3.779
28361W        W87622  16.295  17.703   3.750
28362W        W87623  15.190   4.375  12.358
28363W        W87624   1.810  14.819  12.899
28364W        W87625  16.701  29.962   5.287
28365W        W87626  18.071  33.916  13.503
28366W        W87627  36.021  26.182   4.206
28367W        W87628  25.501  43.505  11.541
28368W        W87629  34.462  12.242   9.540
28369W        W87630  28.442  18.773   4.713
28370W        W87631  28.033  23.085  14.944
28371W        W87632   7.888  28.043  11.009
28372W        W87633  42.892  13.642  14.284
28373W        W87634   4.284  37.560   4.195
28374W        W87635  18.658  40.893  13.851
28375W        W87636   1.854  29.991   3.789
28376W        W87637  15.232  10.141   1.804
28377W        W87638  12.288   7.814  14.420
28378W        W87639  13.663  27.109   0.772
28379W        W87640  36.873  21.068   4.197
28380W        W87641  43.370  43.306   3.155
28381W        W87642  39.334   4.874  11.873
28382W        W87643  18.606  11.200  13.469
28383W        W87644  37.527  42.910   3.817
28384W        W87645   6.292   6.707   0.353
28385W        W87646  14.589   3.816   0.461
28386W        W87647  32.582  14.256   3.236
28387W        W87648   3.810  31.003   0.468
28388W        W87649  24.178  43.476   0.779
28389W        W87650   5.916  20.192  11.543
28390W        W87651  37.347  22.127  11.378
28391W        W87652  30.620  30.984   3.811
28392W        W87653   6.291  44.996   0.743
28393W        W87654  17.705   4.856   2.317
28394W        W87655   9.875  31.588   2.669
28395W        W87656  37.953  30.531   2.366
28396W        W87657  42.455  17.099   1.405
28397W        W87658  34.452   0.266  10.946
28398W        W87659  38.010  32.587  12.005
28399W        W87660  14.705  22.555   2.690
28400W        W87661   4.760  26.077  11.423
28401W        W87662   2.443  16.168  10.908
28402W        W87663  32.005  29.550  14.914
28403W        W87664  16.129  19.750   0.886
28404W        W87665  29.131  30.934  13.478
28405W        W87666  34.048   6.916   4.636
28406W        W87667  43.330  42.342   1.866
28407W        W87668  25.698  40.799  11.580
28408W        W87669  33.550  25.546  13.898
28409W        W87670  20.083  22.040  13.839
28410W        W87671  18.156  25.219   0.474
28411W        W87672   3.915   9.647   3.665
28412W        W87673   8.724  17.118   1.756
28413W        W87674  13.237  34.064  10.591
28414W        W87675  43.445  14.227  10.145
28415W        W87676  38.021  43.354   5.171
28416W        W87677  22.634   8.819  11.602
28417W        W87678   7.763   5.776   5.269
28418W        W87679  10.205   3.802   9.467
28419W        W87680  24.648  23.633  14.993
28420W        W87681  27.197   8.717   0.916
28421W        W87682  11.372  36.875   3.365
28422W        W87683  11.242  27.543  13.413
28423W        W87684  16.225  26.125  13.821
28424W        W87685  41.907  30.159   0.927
28425W        W87686  42.851   6.389  13.540
28426W        W87687  17.229  19.047   5.206
28427W        W87688   4.303  33.553   2.833
28428W        W87689   2.722   3.736  12.422
28429W        W87690   1.872  16.283  12.570
28430W        W87691  19.601  31.119  12.089
28431W        W87692  30.999  43.469   0.348
28432W        W87693  10.758   0.865   3.847
28433W        W87694  25.091   9.790  12.472
28434W        W87695   9.315  19.284  13.460
28435W        W87696  21.536  30.503  13.914
28436W        W87697  40.011  44.847   0.473
28437W        W87698  18.221  20.584  13.389
28438W        W87699  24.057   2.941  12.470
28439W        W87700  18.096  28.985  13.319
28440W        W87701  16.098  24.480  14.448
28441W        W87702  42.513  27.193  13.804
28442W        W87703  13.197  25.575  10.554
28443W        W87704  12.640  22.696  13.989
28444W        W87705   0.987  16.786  10.899
28445W        W87706  24.089  18.180   2.188
28446W        W87707  13.833  10.163  13.367
28447W        W87708  33.537  15.154   3.721
28448W        W87709  35.393  43.305  13.467
28449W        W87710  27.458  35.460  14.441
28450W        W87711  43.852  28.019  13.001
28451W        W87712  13.669  22.220  10.501
28452W        W87713  20.154  42.328   3.285
28453W        W87714   3.217  21.532   4.636
28454W        W87715  41.442  30.592   2.341
28455W        W87716   0.836  31.901   1.355
28456W        W87717   6.724  19.779   2.304
28457W        W87718  12.809  22.246   2.769
28458W        W87719  10.702  34.868  11.929
28459W        W87720   6.364   1.239   1.352
28460W        W87721   2.230  29.046  10.640
28461W        W87722  14.261  41.933  11.512
28462W        W87723  21.515   2.853   4.274
28463W        W87724  41.507  35.461  11.446
28464W        W87725  19.683  23.009  13.916
28465W        W87726  25.494  24.651   1.788
28466W        W87727  29.148  21.024   0.768
28467W        W87728  29.646  44.475  10.121
28468W        W87729  11.239   8.879  14.381
28469W        W87730  33.027  11.723   1.908
28470W        W87731  28.083   6.872   2.714
28471W        W87732   1.323  19.712   1.703
28472W        W87733   3.327  36.470   5.293
28473W        W87734  17.110  18.151   3.836
28474W        W87735  15.287   6.234   3.822
28475W        W87736   5.818  31.951   3.725
28476W        W87737  40.388  21.668   2.294
28477W        W87738  41.305  36.379  11.532
28478W        W87739  36.923  41.007  10.935
28479W        W87740  22.546  33.117  10.907
28480W        W87741  29.632  11.325   1.734
28481W        W87742  21.208   8.675   0.249
28482W        W87743  32.981  16.566   3.372
28483W        W87744  43.456  42.987  12.060
28484W        W87745   9.200  25.080  11.555
28485W        W87746   9.265   6.793  13.921
28486W        W87747   0.414  39.055   0.867
28487W        W87748  35.933  29.441  13.480
28488W        W87749   8.203   8.342   3.288
28489W        W87750   6.248  28.929   2.808
28490W        W87751  25.561  36.365   0.913
28491W        W87752  44.846  44.486   2.353
28492W        W87753  14.703  20.242   2.313
28493W        W87754  35.447   8.797   4.808
28494W        W87755  41.351  40.310   4.787
28495W        W87756  31.468  32.138   1.804
28496W        W87757  17.087  42.933   5.255
28497W        W87758  19.138   3.392  12.383
28498W        W87759  15.326  17.729  13.813
28499W        W87760  18.102  39.897   1.797
28500W        W87761  16.754   9.668  14.918
28501W        W87762  13.751  42.350  12.091
28502W        W87763   4.873  37.403   4.683
28503W        W87764  17.642   7.890  11.864
28504W        W87765  40.859  23.682  13.987
28505W        W87766  24.622  28.173  13.409
28506W        W87767  29.942   4.766  11.073
28507W        W87768  40.406  24.976   4.153
28508W        W87769  38.336  27.477   1.375
28509W        W87770  32.996   5.361  11.989
28510W        W87771  43.441  43.931   4.701
28511W        W87772  11.137  27.587   0.868
28512W        W87773   3.815   9.701   2.403
28513W        W87774   5.326  44.340  12.835
28514W        W87775   5.764  17.170  12.573
28515W        W87776  16.202  32.531   3.778
28516W        W87777   7.688   3.400   4.252
28517W        W87778  18.710  36.084   0.875
28518W        W87779  31.428   8.793  13.880
28519W        W87780  16.612   9.394  14.791
28520W        W87781  20.120  33.921   1.725
28521W        W87782  18.288  39.856   2.723
28522W        W87783   8.209  18.229   2.303
28523W        W87784  13.154  37.407  11.441
28524W        W87785   3.858  32.069  14.905
28525W        W87786  19.049  13.251   3.176
28526W        W87787   2.261  24.082   0.432
28527W        W87788   4.863  20.658   4.650
28528W        W87789  28.063  33.400   0.366
28529W        W87790  35.903  31.953  14.411
28530W        W87791  43.294  36.481   4.308
28531W        W87792   2.461  14.146  12.035
28532W        W87793  32.541  30.138   3.764
28533W        W87794   9.725  31.004   1.730
28534W        W87795  31.946  39.878  12.490
28535W        W87796  36.843  32.016  10.954
28536W        W87797   8.332  24.644   3.780
28537W        W87798  43.787  32.428   1.319
28538W        W87799  33.997  24.990  13.478
28539W        W87800   6.887  40.799  10.515
28540W        W87801  26.075  12.613  11.510
28541W        W87802  41.419   6.847  13.973
28542W        W87803  16.732  36.973   4.712
28543W        W87804  30.087  27.083  11.922
28544W        W87805  12.735   5.208   3.681
28545W        W87806   8.826  35.377   4.256
28546W        W87807  32.028  37.921  12.956
28547W        W87808  10.232  32.528  10.933
28548W        W87809  34.002  18.141   2.701
28549W        W87810  21.218  44.791   0.736
28550W        W87811   9.844   2.843  12.459
28551W        W87812  13.651  28.630   5.712
28552W        W87813  14.757   4.714   1.866
28553W        W87814  31.069  19.058  10.957
28554W        W87815  14.685   5.859   4.230
28555W        W87816  10.213   9.205  11.424
28556W        W87817   9.371   3.420  12.895
28557W        W87818   0.786  31.027  10.996
28558W        W87819  44.847   6.855   0.750
28559W        W87820  21.065  38.534  12.486
28560W        W87821   9.659  11.818   2.893
28561W        W87822  34.033  21.188  12.879
28562W        W87823  13.603  28.945  11.112
28563W        W87824  28.181  40.845  13.981
28564W        W87825  21.513  25.987  14.981
28565W        W87826  12.652  27.571   1.357
28566W        W87827  25.494  29.504  13.003
28567W        W87828  37.024  32.029   0.821
28568W        W87829  23.094  43.858  13.795
28569W        W87830  27.582  41.506   0.406
28570W        W87831  12.796   6.750   3.743
28571W        W87832  43.290  30.466   3.348
28572W        W87833  14.120  26.540   4.703
28573W        W87834  34.528   7.259  13.354
28574W        W87835  31.618  15.791  10.420
28575W        W87836  43.878   4.711   1.248
28576W        W87837  14.152  29.450   5.291
28577W        W87838  18.553   6.863   3.155
28578W        W87839  17.799   7.724  12.979
28579W        W87840  38.463  11.836  13.893
28580W        W87841   6.227   0.826  14.506
28581W        W87842  37.394   4.373  11.125
28582W        W87843  36.966  22.201   2.198
28583W        W87844   1.907  44.915   4.313
28584W        W87845  15.777  25.175  13.900
28585W        W87846  10.720   9.644   3.810
28586W        W87847  31.529  27.042   1.775
28587W        W87848  19.630  16.652  11.513
28588W        W87849   7.199  22.207   4.659
28589W        W87850  13.164  43.996   1.820
28590W        W87851  23.998   1.465   2.839
28591W        W87852   6.888   9.788  12.454
28592W        W87853  35.509  14.304  13.029
28593W        W87854  17.224   6.423  10.936
28594W        W87855  28.584  43.273  11.414
28595W        W87856   7.832   2.451  14.361
28596W        W87857  10.323   0.985  12.386
28597W        W87858   9.737  42.486  12.458
28598W        W87859   1.312  36.907   1.311
28599W        W87860  34.574   4.910  10.938
28600W        W87861  44.922   9.770   3.652
28601W        W87862   6.690  33.971  10.934
28602W        W87863  34.889   6.729  13.798
28603W        W87864  22.573  27.638  11.946
28604W        W87865  24.208  35.094   2.239
28605W        W87866   6.403  28.040   5.247
28606W        W87867   6.190  10.840   5.218
28607W        W87868  31.598   0.899  12.061
28608W        W87869   0.749  42.977   3.365
28609W        W87870  16.198   2.334  13.431
28610W        W87871  44.331  18.074   4.628
28611W        W87872  33.074   1.919   3.242
28612W        W87873  14.673  41.412  13.919
28613W        W87874  16.311  44.965  12.375
28614W        W87875  34.084  34.039  14.806
28615W        W87876   2.837  12.150   0.771
28616W        W87877  40.007  16.727   4.793
28617W        W87878  28.656  30.486   2.850
28618W        W87879  25.676  22.236   4.349
28619W        W87880  37.862  27.185   1.339
28620W        W87881   1.753  11.724   3.861
28621W        W87882  25.014  33.903   2.181
28622W        W87883  37.943   6.341   0.420
28623W        W87884  27.948  13.327   4.154
28624W        W87885  38.903  15.297  14.884
28625W        W87886  23.510  20.232   3.232
28626W        W87887  18.277  14.323  14.802
28627W        W87888  34.082  44.941   0.745
28628W        W87889  40.316  28.460   4.176
28629W        W87890   4.860  32.923   1.251
28630W        W87891  18.283  37.371  12.975
28631W        W87892  11.311   5.767  12.482
28632W        W87893   9.802  33.443   2.259
28633W        W87894   3.810  34.056  13.354
28634W        W87895  14.643   4.721   0.263
28635W        W87896   1.481  43.476  14.290
28636W        W87897  31.939   0.387  11.527
28637W        W87898  42.025  40.460   0.877
28638W        W87899   7.279  32.127  12.387
28639W        W87900  27.689   6.336   4.326
28640W        W87901  20.626  30.009   3.295
28641W        W87902  21.226  25.971   0.390
28642W        W87903  31.025  20.690   0.812
28643W        W87904  32.516  10.229  10.521
28644W        W87905  32.972  14.654   3.650
28645W        W87906  21.129  26.167  13.398
28646W        W87907  30.981  17.124   3.792
28647W        W87908  33.406   8.170  14.845
28648W        W87909  16.771  35.923  14.362
28649W        W87910   5.910  25.054   3.341
28650W        W87911   1.327   7.224   3.253
28651W        W87912  18.605  24.712   3.257
28652W        W87913   3.755  19.687   1.847
28653W        W87914  15.182   7.386  10.414
28654W        W87915  18.083  35.095   3.813
28655W        W87916  15.133  36.898  12.403
28656W        W87917  30.594  18.069   4.313
28657W        W87918  26.115  44.890   3.297
28658W        W87919  23.521  40.886  13.801
28659W        W87920  25.688  26.009   5.186
28660W        W87921   7.904  30.426   5.265
28661W        W87922  27.610  12.123   4.262
28662W        W87923  33.068   5.781   2.838
28663W        W87924   6.868  42.831   0.396
28664W        W87925  37.538  17.801   1.866
28665W        W87926  28.007  35.447   1.355
28666W        W87927  32.574  28.050   1.701
28667W        W87928  34.589  15.093  10.629
28668W        W87929   7.717  37.913   3.386
28669W        W87930  28.035  18.594   2.315
28670W        W87931  44.971  27.567  11.588
28671W        W87932  14.626  14.707   2.760
28672W        W87933  26.952  40.473  11.963
28673W        W87934   0.844  28.680  10.058
28674W        W87935  27.626  20.267   2.336
28675W        W87936  12.626  30.465  10.930
28676W        W87937  35.492  19.102  13.517
28677W        W87938  27.184   7.286  10.928
28678W        W87939  38.025   9.282   4.787
28679W        W87940  23.605  20.724   4.705
28680W        W87941  12.234  14.109   5.084
28681W        W87942  24.631  21.539   4.788
28682W        W87943  25.021  11.372  14.893
28683W        W87944  19.110  41.867  10.604
28684W        W87945   9.296  19.777  12.508
28685W        W87946  35.551  13.750  14.869
28686W        W87947  44.858  43.439  11.896
28687W        W87948  15.109  38.405   0.473
28688W        W87949  10.717  15.307   0.733
28689W        W87950  37.338   8.366   2.835
28690W        W87951  32.134  36.896  13.348
28691W        W87952  11.163  24.662  14.817
28692W        W87953  32.960  24.986  13.487
28693W        W87954  32.002  38.866   2.361
28694W        W87955  27.590   7.877   2.210
28695W        W87956  22.094  30.442  14.321
28696W        W87957   6.374  15.813   2.385
28697W        W87958  34.096  12.256  13.828
28698W        W87959  30.922  41.847   5.129
28699W        W87960  42.367  30.079   2.418
28700W        W87961   1.336  13.301   2.761
28701W        W87962  19.108  10.815   2.380
28702W        W87963  31.147  12.737   3.148
28703W        W87964   8.774  22.502   4.652
28704W        W87965   6.912  12.213  10.026
28705W        W87966  44.856   7.272   1.340
28706W        W87967   1.741   6.391   2.728
28707W        W87968  34.870  26.480   1.922
28708W        W87969  23.538  38.351   3.695
28709W        W87970  42.328  42.388   3.342
28710W        W87971  21.650  18.757   2.693
28711W        W87972  25.521   4.930  14.495
28712W        W87973  34.466  19.770   3.710
28713W        W87974  10.379  31.646   2.749
28714W        W87975  35.549  44.866  12.435
28715W        W87976   1.899  29.922  12.037
28716W        W87977  17.567   2.906   4.613
28717W        W87978  15.205  35.402  10.450
28718W        W87979  43.423  33.069  11.039
28719W        W87980   5.279  21.046  10.496
28720W        W87981  37.846  22.032  11.907
28721W        W87982  30.656  37.927   3.772
28722W        W87983  12.841  24.010  14.919
28723W        W87984   4.330  24.141   0.460
28724W        W87985  18.678   9.790   4.262
28725W        W87986  11.848  22.514   1.440
28726W        W87987  10.792   6.816  11.493
28727W        W87988  37.509  11.325   1.820
28728W        W87989  31.911   1.904   3.727
28729W        W87990  30.440  32.618  13.040
28730W        W87991  13.120  28.439   2.219
28731W        W87992  38.062  27.628   0.296
28732W        W87993  31.554  11.751  14.804
28733W        W87994  12.638  42.347   1.904
28734W        W87995  16.672  31.101  12.030
28735W        W87996  14.588   1.806  13.925
28736W        W87997  14.685  33.500  11.911
28737W        W87998  30.125   3.765   2.333
28738W        W87999  24.493  33.530   2.794
28739W        W88000  15.295  14.698   4.216
28740W        W88001  31.044  24.022  10.902
28741W        W88002  40.502  16.686   3.369
28742W        W88003  41.489  22.706  10.421
28743W        W88004  19.623  16.762  12.927
28744W        W88005  44.988  10.695   4.759
28745W        W88006   4.303  26.481   3.271
28746W        W88007  24.505  22.010   2.398
28747W        W88008   5.426  33.588   3.362
28748W        W88009   9.658   4.781   4.826
28749W        W88010  13.209  24.111  13.063
28750W        W88011  37.386   6.339  13.379
28751W        W88012  31.611  42.946   1.907
28752W        W88013  16.594   2.869   0.289
28753W        W88014  36.028   6.831  10.568
28754W        W88015  26.024   0.896  13.958
28755W        W88016  24.134  33.563  10.931
28756W        W88017  31.913  40.460  11.465
28757W        W88018  37.363  29.521   5.107
28758W        W88019   1.734  29.059   4.231
28759W        W88020  18.287  11.637  10.470
28760W        W88021  43.991  36.081  14.958
28761W        W88022  41.434   7.400  12.556
28762W        W88023  13.808  21.695  11.509
28763W        W88024  23.025  21.633   2.889
28764W        W88025  40.420  44.482  12.857
28765W        W88026  15.288   6.253   3.181
28766W        W88027  15.660  18.178   4.271
28767W        W88028  38.048  15.586  11.395
28768W        W88029   1.413  16.707   2.888
28769W        W88030  41.502  17.302   2.858
28770W        W88031  42.390  12.241   0.755
28771W        W88032  27.012  35.374   4.177
28772W        W88033   8.694  10.677  14.852
28773W        W88034  20.081  31.125   1.700
28774W        W88035  42.382  15.157   1.441
28775W        W88036   1.763  32.141  13.827
28776W        W88037  14.329  26.050   1.698
28777W        W88038  13.172  35.580   0.858
28778W        W88039  43.786  33.023   1.865
28779W        W88040  15.649  23.189   4.245
28780W        W88041  23.123  18.549  14.485
28781W        W88042  23.166   9.860   3.679
28782W        W88043   8.756  14.622   4.697
28783W        W88044  40.911  43.319  14.372
28784W        W88045  29.095  37.570   2.286
28785W        W88046  39.431  14.283   0.924
28786W        W88047  39.974  31.528   4.621
28787W        W88048   3.942  30.551   3.725
28788W        W88049  25.679  14.742  14.862
28789W        W88050  14.188  27.019   4.597
28790W        W88051  29.988  14.782  13.898
28791W        W88052  21.055  12.167  13.489
28792W        W88053  26.560  12.145  12.879
28793W        W88054  20.673   0.745   4.789
28794W        W88055  21.544   0.784   0.352
28795W        W88056  20.195  23.540   9.499
28796W        W88057  30.483  12.299   2.343
28797W        W88058  29.935  26.676   3.843
28798W        W88059  29.076   3.730   2.901
28799W        W88060  28.122   5.706   2.903
28800W        W88061  19.146  29.636   0.727
28801W        W88062  31.047  42.972   4.332
28802W        W88063  28.526  32.483  12.459
28803W        W88064  31.495  23.213   3.207
28804W        W88065  24.548   6.886   1.779
28805W        W88066  27.612  25.180  13.366
28806W        W88067  22.033  23.706   2.875
28807W        W88068  44.268  38.979  13.345
28808W        W88069  41.898  30.605   2.380
28809W        W88070  32.056  33.011   3.792
28810W        W88071   0.848  29.460  14.922
28811W        W88072  18.616   3.460   2.350
28812W        W88073  16.132   2.416  10.561
28813W        W88074  10.856  31.098  12.835
28814W        W88075  30.469  22.694  11.901
28815W        W88076  14.338  28.450   1.399
28816W        W88077  19.568   6.865   1.781
28817W        W88078  29.088  16.581   0.925
28818W        W88079  30.620  17.068  14.422
28819W        W88080   6.198  13.811  13.490
28820W        W88081  11.353  42.018   4.131
28821W        W88082  30.985  39.429  12.991
28822W        W88083   5.886   8.672   1.381
28823W        W88084  28.028  33.083   1.807
28824W        W88085  19.612  25.149  13.882
28825W        W88086  42.397  11.146  13.885
28826W        W88087  28.489  10.645   2.340
28827W        W88088   4.776  18.690  10.978
28828W        W88089  12.627   5.811   2.235
28829W        W88090  14.318  15.647  12.852
28830W        W88091   0.940  38.910  11.865
28831W        W88092  35.958   3.342  14.461
28832W        W88093   9.788   6.299   1.851
28833W        W88094  29.539  21.158  11.089
28834W        W88095  24.676  13.304   3.270
28835W        W88096   4.272  34.075  14.778
28836W        W88097  16.273  10.302  11.909
28837W        W88098  16.085  13.351  13.998
28838W        W88099  19.239  32.637  12.450
28839W        W88100  34.897   8.190  11.887
28840W        W88101  33.556  34.982   5.091
28841W        W88102  31.618  22.220  14.954
28842W        W88103   3.839  31.045  12.903
28843W        W88104  31.537   2.922  11.964
28844W        W88105  15.675  40.046  10.076
28845W        W88106  38.831  29.516   0.260
28846W        W88107  42.421  11.208  13.325
28847W        W88108  28.628  26.078   0.453
28848W        W88109  25.122  18.272   4.194
28849W        W88110   8.877  38.841  13.962
28850W        W88111  40.903  31.152   2.881
28851W        W88112  31.583   8.888   4.332
28852W        W88113  16.802   8.775  14.395
28853W        W88114  36.504   4.773  13.857
28854W        W88115   2.742  12.331   2.200
28855W        W88116  15.181  15.270  14.476
28856W        W88117  41.938  26.019  14.297
28857W        W88118  11.693   8.317  13.052
28858W        W88119  23.120  21.026  11.491
28859W        W88120  21.658  27.149   4.162
28860W        W88121  44.423  13.168   3.662
28861W        W88122  32.049  34.383  14.983
28862W        W88123  30.541  27.545   4.213
28863W        W88124  33.952  26.989  13.521
28864W        W88125  36.992  24.708  13.375
28865W        W88126  23.129  21.096   0.332
28866W        W88127  17.706  26.495   3.734
28867W        W88128  32.999   8.230  10.556
28868W        W88129  11.636   7.248   4.265
28869W        W88130  21.677  29.423  13.881
28870W        W88131  23.614  17.697   2.708
28871W        W88132  30.092  16.225  12.476
28872W        W88133  35.527  22.660  10.558
28873W        W88134  28.664  24.496   1.862
28874W        W88135  40.346  28.989  14.869
28875W        W88136  26.515   8.291   1.764
28876W        W88137  44.410  10.696   3.811
28877W        W88138  26.482  29.465   0.294
28878W        W88139  14.693  26.085  13.941
28879W        W88140  25.574  41.896  10.977
28880W        W88141   2.458  10.702  14.957
28881W        W88142   5.262  28.038   0.915
28882W        W88143   9.316  11.191  11.558
28883W        W88144  10.325  38.513  13.325
28884W        W88145  10.335  44.951   0.269
28885W        W88146  26.581  34.117   0.345
28886W        W88147  36.375  27.941   9.959
28887W        W88148  12.164  11.734   4.807
28888W        W88149  43.380  22.124   3.693
28889W        W88150  32.570   3.383  10.484
28890W        W88151  15.145   7.186  13.899
28891W        W88152   9.756  21.078   2.266
28892W        W88153   5.844  23.557  13.830
28893W        W88154  42.957  17.685  13.446
28894W        W88155  12.117   9.240  14.919
28895W        W88156  20.631   7.818   2.271
28896W        W88157  34.117  22.082   1.345
28897W        W88158  15.301  25.055   4.676
28898W        W88159  21.682  43.917   2.811
28899W        W88160   6.764  22.108   3.695
28900W        W88161  10.366  40.897  14.015
28901W        W88162  14.192  31.897  14.786
28902W        W88163  40.843  40.006  13.033
28903W        W88164  38.466  27.995   0.289
28904W        W88165   8.869  44.323   0.866
28905W        W88166  17.570   3.371  13.956
28906W        W88167  16.277  26.467  11.011
28907W        W88168  31.074   3.778  14.841
28908W        W88169  11.803  13.782  13.943
28909W        W88170   9.732  23.994   2.836
28910W        W88171  25.193  43.832  14.801
28911W        W88172  41.393   0.857   1.869
28912W        W88173  25.628  29.534   1.806
28913W        W88174  16.573  16.195   2.258
28914W        W88175  14.299  35.105   2.668
28915W        W88176   2.383  42.016   2.271
28916W        W88177  44.896  35.047  11.429
28917W        W88178   4.777  16.293   2.328
28918W        W88179  42.361  35.487   3.190
28919W        W88180   9.760  32.571  11.001
28920W        W88181  39.949  42.488   0.344
28921W        W88182  41.408  18.616   4.783
28922W        W88183  33.392  35.412  14.509
28923W        W88184  35.457  42.882  11.917
28924W        W88185  10.316  19.243  10.956
28925W        W88186  38.936   2.279   3.718
28926W        W88187  22.569  43.288   0.365
28927W        W88188   6.258  14.743   3.369
28928W        W88189  29.035  22.238   4.628
28929W        W88190  25.001  42.996   1.769
28930W        W88191  42.011   6.812  13.060
28931W        W88192   5.257  22.062  11.989
28932W        W88193   6.264  22.647  14.996
28933W        W88194  17.568  14.657   2.217
28934W        W88195  20.743  36.464   1.333
28935W        W88196   8.832  16.116  13.542
28936W        W88197  17.238   6.377  10.119
28937W        W88198  28.168  27.951   5.123
28938W        W88199   8.304  32.415   0.800
28939W        W88200  42.010  23.529   4.693
28940W        W88201  23.190   1.770  12.843
28941W        W88202  32.581  37.080  13.457
28942W        W88203  18.268  36.569   0.926
28943W        W88204   5.383  22.145  14.927
28944W        W88205  11.318  39.866  14.346
28945W        W88206  43.365  28.017  10.471
28946W        W88207  12.639  16.318  12.060
28947W        W88208  32.958   3.950  13.940
28948W        W88209   3.842   8.721   0.878
28949W        W88210   9.785  19.703  12.832
28950W        W88211   3.892  16.720  10.444
28951W        W88212  32.957  13.248   0.781
28952W        W88213  12.852  32.974   3.234
28953W        W88214  36.520  14.173  11.450
28954W        W88215  43.987  31.961  12.871
28955W        W88216  28.095  10.279   3.808
28956W        W88217   5.758  19.595   5.140
28957W        W88218  39.925  25.173   4.247
28958W        W88219  39.962  42.506  14.864
28959W        W88220  33.581  34.447   1.790
28960W        W88221  40.438  14.330   1.286
28961W        W88222  10.783  36.438  10.943
28962W        W88223  12.822  17.745  14.940
28963W        W88224  35.093  43.872  14.430
28964W        W88225  20.740  43.330   3.198
28965W        W88226  34.508  34.578  10.460
28966W        W88227  26.171   9.262   4.716
28967W        W88228  32.516  17.643   0.816
28968W        W88229   4.272  28.548   1.768
28969W        W88230  14.311  28.069   3.262
28970W        W88231  13.789   5.263  14.333
28971W        W88232  24.166  15.597  10.441
28972W        W88233  40.418  18.618  12.989
28973W        W88234  42.799  10.686  14.985
28974W        W88235   4.436  41.889   3.662
28975W        W88236  26.976   7.665   0.829
28976W        W88237  18.721   2.829  13.825
28977W        W88238  27.511  44.762  13.456
28978W        W88239   9.754  44.776  14.943
28979W        W88240  37.551  37.922  10.140
28980W        W88241  21.582  40.382  11.124
28981W        W88242  23.707  40.035   4.114
28982W        W88243  43.020  14.649  12.385
28983W        W88244  30.492  33.612  12.071
28984W        W88245   9.238  38.830   4.190
28985W        W88246  12.247  25.584   4.222
28986W        W88247  20.247   5.346  13.449
28987W        W88248  37.904  12.723  12.400
28988W        W88249  18.288  37.910  13.063
28989W        W88250  16.203  28.649  11.431
28990W        W88251  43.968  26.135   3.371
28991W        W88252  23.559  44.858  10.436
28992W        W88253  29.946  23.715  10.933
28993W        W88254  16.250  36.871  11.910
28994W        W88255  35.947  41.024  13.886
28995W        W88256  26.461  25.525  11.862
28996W        W88257   6.244  38.541   2.805
28997W        W88258  36.574   2.307  11.086
28998W        W88259   9.781   3.782   5.286
28999W        W88260   7.889  26.981  11.023
29000W        W88261  10.230  21.668  11.384
29001W        W88262  16.169   4.325   4.287
29002W        W88263   3.728   3.804  12.461
29003W        W88264  12.850  35.966  14.392
29004W        W88265  36.437   4.355  12.966
29005W        W88266   3.396  10.706  10.901
29006W        W88267   0.920  42.824  13.885
29007W        W88268  31.598  20.714  12.840
29008W        W88269  33.476  11.234  14.952
29009W        W88270   1.775  10.217  13.534
29010W        W88271  44.847  12.310  11.973
29011W        W88272  37.336   7.251   3.761
29012W        W88273  34.113  21.594  10.625
29013W        W88274  44.865  24.203   3.653
29014W        W88275  10.770  36.077  14.373
29015W        W88276  15.630  13.322  10.421
29016W        W88277  38.014  44.839  14.869
29017W        W88278  38.363  27.152   4.735
29018W        W88279  16.181  18.614   4.601
29019W        W88280  24.199  20.589  11.862
29020W        W88281   9.172  41.950   0.745
29021W        W88282  24.715  32.082   4.626
29022W        W88283  42.473  26.962  10.974
29023W        W88284  39.333  18.175   3.805
29024W        W88285  41.032  32.142  11.447
29025W        W88286   4.925  40.489   3.809
29026W        W88287  13.826   2.396   0.750
29027W        W88288  33.545  12.748  13.001
29028W        W88289  25.967  18.143  13.398
29029W        W88290  38.993  41.029   2.791
29030W        W88291  34.445  42.919   0.806
29031W        W88292  37.047   1.285  13.418
29032W        W88293  39.358   7.883   2.223
29033W        W88294  16.781   9.665  13.426
29034W        W88295  24.499  13.625  13.464
29035W        W88296  23.531  35.093   2.259
29036W        W88297  20.602  13.174  10.999
29037W        W88298  17.224  18.790  14.492
29038W        W88299  41.362  35.018   0.464
29039W        W88300  17.114  42.504  13.949
29040W        W88301  33.942  21.546   4.829
29041W        W88302  27.960  28.547  11.976
29042W        W88303  12.162  11.165   2.889
29043W        W88304  40.500  22.670   0.335
29044W        W88305   6.900   6.747   3.216
29045W        W88306  26.064  12.823  13.967
29046W        W88307  10.658  14.240   9.593
29047W        W88308  15.580  37.931   2.228
29048W        W88309  15.219  34.970   4.747
29049W        W88310  20.159   0.870  13.442
29050W        W88311  11.137  25.979   2.745
29051W        W88312  22.682   7.689  13.999
29052W        W88313  14.183  43.973   4.317
29053W        W88314  25.188  17.102  14.825
29054W        W88315  37.501  38.906  13.790
29055W        W88316  17.196   9.720   4.604
29056W        W88317  23.510   6.854   2.693
29057W        W88318   2.848  29.454  13.417
29058W        W88319   0.887  30.078   1.237
29059W        W88320  30.934  10.686  13.447
29060W        W88321  35.500  10.662   2.342
29061W        W88322  18.700  28.624   2.772
29062W        W88323   0.901  36.461  13.868
29063W        W88324  34.574  24.060  12.353
29064W        W88325  32.002  24.614   4.654
29065W        W88326  15.120   0.366   2.749
29066W        W88327   5.242   8.236  10.894
29067W        W88328  27.107  19.723  11.020
29068W        W88329   8.668  10.755  13.979
29069W        W88330  27.643  36.410   3.858
29070W        W88331   3.240  42.793   0.418
29071W        W88332  29.473   8.867  13.853
29072W        W88333  34.553  39.450   0.820
29073W        W88334  15.791   8.871  10.029
29074W        W88335  31.102  13.766   3.227
29075W        W88336  32.503  33.387  13.021
29076W        W88337  20.201  26.539  12.537
29077W        W88338   5.296   6.428  10.895
29078W        W88339  27.054  22.223   2.193
29079W        W88340  33.459  43.359   2.882
29080W        W88341  15.312   8.689  13.008
29081W        W88342  23.231   8.261  13.842
29082W        W88343  18.132  36.875   4.602
29083W        W88344  12.650  19.264  13.857
29084W        W88345   8.663  30.575   1.363
29085W        W88346  20.679  15.803  12.444
29086W        W88347  21.119   4.395   3.217
29087W        W88348  38.843  27.170  14.295
29088W        W88349  24.012  16.602   3.707
29089W        W88350  42.883  30.008   3.814
29090W        W88351  25.127  13.773  11.538
29091W        W88352  29.557  11.672   1.344
29092W        W88353  38.977   8.340  11.897
29093W        W88354  31.016  37.869  10.507
29094W        W88355  25.010  40.948  11.125
29095W        W88356  32.518  27.971   4.708
29096W        W88357  19.541   9.348   0.927
29097W        W88358   2.455  35.509   4.734
29098W        W88359  22.697  26.158   5.110
29099W        W88360  23.152  35.853  10.454
29100W        W88361  24.229  16.263   4.345
29101W        W88362   7.846  14.229  10.021
29102W        W88363   5.906  39.417   0.865
29103W        W88364  17.175  31.065  14.956
29104W        W88365   8.888  23.535  14.871
29105W        W88366  24.983   3.394   2.757
29106W        W88367  33.624  42.981  12.888
29107W        W88368  40.836  22.192   2.818
29108W        W88369  29.093  21.568  13.889
29109W        W88370  29.163  40.006  13.456
29110W        W88371  39.913   9.884  11.599
29111W        W88372  32.449  38.881   3.666
29112W        W88373  36.869  16.286   3.313
29113W        W88374  20.623   9.359  11.444
29114W        W88375  38.831  17.234   4.294
29115W        W88376  32.408  40.306   2.240
29116W        W88377  34.528   1.338  14.314
29117W        W88378  41.501  17.761   4.181
29118W        W88379  28.531  17.675  13.957
29119W        W88380  30.498  39.957   1.281
29120W        W88381  14.765  12.740   3.738
29121W        W88382  28.652  17.214   0.930
29122W        W88383  36.566  34.950   1.759
29123W        W88384  25.564  27.496  11.937
29124W        W88385  17.256  24.009   3.333
29125W        W88386  29.528  15.776  12.391
29126W        W88387  33.897  33.560  10.957
29127W        W88388  36.920  44.471  10.610
29128W        W88389  26.624  26.016   4.213
29129W        W88390  31.520   3.717   2.879
29130W        W88391  14.144  17.580  10.411
29131W        W88392  14.224  32.919  10.904
29132W        W88393   2.333  40.041   0.840
29133W        W88394  10.254  40.450   2.782
29134W        W88395  36.996  39.931  11.918
29135W        W88396   9.293  26.699  14.888
29136W        W88397   2.240   4.942   3.792
29137W        W88398  39.907  11.260  11.422
29138W        W88399  41.474  15.175  13.336
29139W        W88400  15.309  15.792  13.023
29140W        W88401   2.845  32.500   3.654
29141W        W88402   4.257  26.025  12.527
29142W        W88403  15.592  31.130  13.453
29143W        W88404  28.944  39.014  13.538
29144W        W88405  18.207  38.986   1.386
29145W        W88406  44.833  42.441   0.897
29146W        W88407   2.744  31.953   2.786
29147W        W88408  14.096  34.912   3.343
29148W        W88409  38.336  35.412  11.506
29149W        W88410   6.833  10.725   5.166
29150W        W88411   6.836  37.950  14.506
29151W        W88412  32.581  17.764  13.870
29152W        W88413  21.728  17.709   1.263
29153W        W88414  26.499  44.798  14.320
29154W        W88415  33.026  15.688  14.802
29155W        W88416  32.065   3.873   0.425
29156W        W88417  38.420  29.087   4.182
29157W        W88418  41.945  22.669   2.208
29158W        W88419   0.829  44.771  13.407
29159W        W88420  27.556  23.562  13.932
29160W        W88421  28.954  36.950   2.242
29161W        W88422  21.583   2.331   4.756
29162W        W88423  32.574   0.947  12.381
29163W        W88424  19.743  28.064  11.074
29164W        W88425  44.445   5.901   3.709
29165W        W88426  22.178  36.927   0.308
29166W        W88427  38.858   1.438  11.935
29167W        W88428  31.030  41.389   2.252
29168W        W88429  40.806   4.918  10.408
29169W        W88430  30.638  30.482  11.539
29170W        W88431  31.910  42.491  13.806
29171W        W88432  19.070  21.027   0.753
29172W        W88433  17.676  12.265   1.870
29173W        W88434  42.285  20.667  12.477
29174W        W88435   8.726  16.760  11.387
29175W        W88436   5.365   2.854  11.405
29176W        W88437  41.860  43.812  12.390
29177W        W88438   1.242  15.735   1.260
29178W        W88439  17.667  38.537  13.526
29179W        W88440  15.796  15.157   9.603
29180W        W88441  17.576  42.526  12.037
29181W        W88442  44.355  12.757  11.976
29182W        W88443   0.438   0.932  11.525
29183W        W88444   7.828  39.874  14.443
29184W        W88445  42.373  42.939   4.646
29185W        W88446  33.957  17.251   4.218
29186W        W88447   5.290  31.432  10.893
29187W        W88448  38.849  20.031  10.479
29188W        W88449  44.301  21.737  13.917
29189W        W88450  10.356   3.800  13.919
29190W        W88451   5.898   1.468  13.417
29191W        W88452  31.060  25.519   1.908
29192W        W88453   8.198  11.632  12.533
29193W        W88454  44.362   9.727   0.794
29194W        W88455   4.352  39.858  13.324
29195W        W88456  27.166  42.957   2.232
29196W        W88457  39.045  16.292   4.269
29197W        W88458  23.523   3.433  12.352
29198W        W88459  12.122  42.474  10.412
29199W        W88460  15.745  34.595  14.308
29200W        W88461  24.163  42.932  12.476
29201W        W88462  16.178  11.624  13.441
29202W        W88463  31.407   8.292  13.870
29203W        W88464   1.387  16.713   0.328
29204W        W88465  36.008  41.955   2.250
29205W        W88466   9.793  27.603   1.444
29206W        W88467  15.238  36.941   2.342
29207W        W88468  22.559  30.466   2.802
29208W        W88469   4.934   8.235  14.938
29209W        W88470  44.873  37.436  14.986
29210W        W88471  23.688   8.215  11.603
29211W        W88472  19.754  38.918   2.383
29212W        W88473  30.487  31.557   2.188
29213W        W88474  40.401  41.489   0.299
29214W        W88475  29.113  11.256  10.624
29215W        W88476  43.334  25.196   0.475
29216W        W88477  18.068  31.421  11.055
29217W        W88478  26.174  31.561   0.398
29218W        W88479   0.764  43.853  14.829
29219W        W88480  33.080  40.985   3.286
29220W        W88481  11.201  38.482   1.747
29221W        W88482  35.538  13.659  11.386
29222W        W88483  44.907  42.311   3.379
29223W        W88484  20.571  27.563  10.966
29224W        W88485  44.401  22.210   4.246
29225W        W88486  39.017  24.697   4.730
29226W        W88487  13.242  15.102  14.502
29227W        W88488  43.987  13.159   1.866
29228W        W88489  16.587  28.014  13.450
29229W        W88490  18.772  19.702   2.840
29230W        W88491  34.970  17.061  11.892
29231W        W88492  21.261  18.182  12.088
29232W        W88493  38.946  22.217   4.668
29233W        W88494  11.738  25.065  12.565
29234W        W88495  23.101  14.710  12.016
29235W        W88496   7.352  32.030   4.262
29236W        W88497  34.937  44.971   2.881
29237W        W88498   6.726  10.833   1.399
29238W        W88499  13.307  23.516  14.016
29239W        W88500   2.399  36.579   2.865
29240W        W88501   9.364  34.083  14.501
29241W        W88502  31.095   3.842  12.476
29242W        W88503  19.655  43.488  12.455
29243W        W88504  26.561  39.931   1.323
29244W        W88505  22.124  14.148  14.783
29245W        W88506  32.899  21.203   4.824
29246W        W88507  27.173  21.756   1.728
29247W        W88508  12.721  30.419  10.636
29248W        W88509  24.035   6.335   0.776
29249W        W88510  21.523  37.046   1.398
29250W        W88511  16.117  12.269  12.423
29251W        W88512  42.792  20.264  14.469
29252W        W88513   0.283  23.074  10.469
29253W        W88514  26.966   0.940  11.373
29254W        W88515   8.765  36.905   0.278
29255W        W88516   3.249  29.005   0.392
29256W        W88517   0.449  27.507   1.789
29257W        W88518  12.280  31.562  13.481
29258W        W88519  43.415  37.848   4.788
29259W        W88520  24.071   0.808  14.413
29260W        W88521  33.044  21.652   4.168
29261W        W88522  37.939  27.945   2.896
29262W        W88523  36.899   4.214  11.115
29263W        W88524  12.702  27.983  14.010
29264W        W88525  10.273  29.488   0.309
29265W        W88526  12.749   1.428   0.370
29266W        W88527   3.441  23.724   3.227
29267W        W88528  20.684  15.716   0.459
29268W        W88529  35.370  13.343   0.408
29269W        W88530  27.004  25.971   1.281
29270W        W88531   8.326   1.414  11.013
29271W        W88532  37.905   0.945   1.431
29272W        W88533  36.433  20.064  14.830
29273W        W88534  14.189  40.502  13.823
29274W        W88535  21.123  18.662  12.010
29275W        W88536  21.683  32.607   2.252
29276W        W88537  18.180   4.940  11.911
29277W        W88538   1.460  26.691   1.745
29278W        W88539  30.528   5.367  10.935
29279W        W88540  20.180  44.846   1.416
29280W        W88541  33.097   4.366   4.668
29281W        W88542  31.108  10.781   4.204
29282W        W88543  41.383  22.050  11.118
29283W        W88544  22.568  17.778   4.706
29284W        W88545  10.306   1.247  14.783
29285W        W88546  25.075  23.612   3.306
29286W        W88547  17.682   8.317   1.732
29287W        W88548  15.719  35.423  13.029
29288W        W88549  18.246  19.581  14.470
29289W        W88550  27.128   0.326   1.392
29290W        W88551  30.938   1.301   0.260
29291W        W88552   9.288  26.632   3.642
29292W        W88553   5.841  24.986   1.397
29293W        W88554  23.212   5.291  11.861
29294W        W88555  21.547  18.585  12.004
29295W        W88556  38.000  16.610   2.709
29296W        W88557   3.730   6.831  11.546
29297W        W88558  27.964  44.369  10.519
29298W        W88559  43.277  17.066   2.745
29299W        W88560  28.149  23.610  13.911
29300W        W88561  38.870  16.592   9.943
29301W        W88562  33.910   7.901   3.688
29302W        W88563  20.638  32.408   1.935
29303W        W88564  10.143  35.575  14.497
29304W        W88565  41.977   8.708  13.041
29305W        W88566   9.862  32.559   4.707
29306W        W88567  12.302  35.581   1.858
29307W        W88568   2.421   8.274   2.713
29308W        W88569  21.678   5.757  14.933
29309W        W88570  40.853  23.611   0.808
29310W        W88571   5.760  34.032   2.791
29311W        W88572   5.861  16.809  14.937
29312W        W88573  39.937   9.243   0.258
29313W        W88574  40.940  23.023  14.448
29314W        W88575  29.006   0.400   3.216
29315W        W88576  31.643  29.501  13.426
29316W        W88577  23.088  22.506   2.689
29317W        W88578  29.152  17.281   1.322
29318W        W88579  40.865   8.798   2.321
29319W        W88580   8.174  15.305   5.193
29320W        W88581   2.722  42.969   0.435
29321W        W88582  13.823  21.537  12.442
29322W        W88583  19.207  41.904  12.448
29323W        W88584   1.918  35.945   3.758
29324W        W88585   4.892  37.378  14.443
29325W        W88586   4.401  38.868   2.683
29326W        W88587   9.181   8.406  10.953
29327W        W88588   2.356  18.163  14.961
29328W        W88589  30.607   0.387  13.382
29329W        W88590  42.857  41.450   4.617
29330W        W88591  41.464   4.356   3.838
29331W        W88592  19.747  38.951   0.916
29332W        W88593  17.755  10.820  14.879
29333W        W88594  12.221   5.364  12.885
29334W        W88595  29.034  15.806  13.404
29335W        W88596  10.253   2.354  14.963
29336W        W88597  21.080  39.544   3.290
29337W        W88598  41.299  25.088   2.188
29338W        W88599   8.873  20.673   0.351
29339W        W88600  32.533   1.930   5.294
29340W        W88601  14.331  25.659  11.102
29341W        W88602  29.553  15.263  14.507
29342W        W88603  18.619   2.326   3.767
29343W        W88604  15.722  12.354  14.952
29344W        W88605  13.749  42.861   1.873
29345W        W88606   7.894  36.995   4.321
29346W        W88607  18.741  31.454   1.797
29347W        W88608   5.395  24.081  14.000
29348W        W88609  16.733  30.019   5.579
29349W        W88610  20.185  38.427   3.243
29350W        W88611  10.354  41.992  12.056
29351W        W88612   4.272  19.737   3.754
29352W        W88613  10.376   4.777   0.404
29353W        W88614   4.344  22.624   4.722
29354W        W88615  34.936  34.076  12.497
29355W        W88616  21.126   6.285   0.862
29356W        W88617  14.214   5.901  12.545
29357W        W88618  44.314   1.738   5.134
29358W        W88619  18.211  33.888  12.550
29359W        W88620  19.175  40.474  12.378
29360W        W88621   8.238  13.701  10.417
29361W        W88622  12.347  38.533   1.353
29362W        W88623   4.227  38.514  13.058
29363W        W88624  44.281  29.621  14.990
29364W        W88625  14.827  42.951  10.501
29365W        W88626  39.466  36.935  13.477
29366W        W88627   2.359   6.323   0.419
29367W        W88628  39.874   7.685  11.971
29368W        W88629  20.076  41.416  11.075
29369W        W88630  44.273  42.898   2.189
29370W        W88631  14.727  16.088  13.409
29371W        W88632  26.541  30.593  12.877
29372W        W88633   9.759  32.458  12.365
29373W        W88634  35.403   2.413  12.491
29374W        W88635  21.050  19.640  13.338
29375W        W88636   9.806  25.483   1.780
29376W        W88637  29.435  13.261   0.857
29377W        W88638   9.775  37.479  12.042
29378W        W88639  21.102  37.518  12.943
29379W        W88640  10.177  42.882   1.345
29380W        W88641  28.035  27.038   2.699
29381W        W88642  21.574  28.957   4.284
29382W        W88643  35.478  33.890  14.840
29383W        W88644  43.958  28.446   3.309
29384W        W88645  30.524  14.731  13.517
29385W        W88646  15.257   5.422  13.483
29386W        W88647  12.227  25.185   4.721
29387W        W88648  15.198  16.670   3.867
29388W        W88649  43.397  38.878   0.767
29389W        W88650  16.248  37.398   1.334
29390W        W88651  27.043  39.840   2.806
29391W        W88652  24.095  25.539  10.591
29392W        W88653  30.563  32.447   3.661
29393W        W88654  12.310  19.049   4.673
29394W        W88655   0.361   9.663  10.470
29395W        W88656  25.014  38.458  10.567
29396W        W88657   6.244   0.344   3.313
29397W        W88658  42.812  14.759   3.723
29398W        W88659   3.246  22.639   2.725
29399W        W88660  17.227  41.981  11.593
29400W        W88661  44.402  40.984  11.563
29401W        W88662  34.383  17.102   4.677
29402W        W88663   1.958  21.557   3.718
29403W        W88664   9.277  40.458  12.367
29404W        W88665  42.365  12.819   2.836
29405W        W88666   4.255  25.085  11.581
29406W        W88667  36.000  26.665  13.044
29407W        W88668  31.601  27.061  14.025
29408W        W88669   8.830  19.165   0.283
29409W        W88670   4.923   1.734   2.882
29410W        W88671   9.888  29.647   2.856
29411W        W88672  25.176  34.398   4.291
29412W        W88673  30.088  42.946  14.916
29413W        W88674  43.276  24.656   1.324
29414W        W88675  24.680  41.025   1.408
29415W        W88676  25.682   1.257  12.348
29416W        W88677  20.524  36.003   1.395
29417W        W88678  32.561  14.284  10.435
29418W        W88679  25.508  38.954  11.054
29419W        W88680  29.554  17.620   4.147
29420W        W88681  43.483  12.769   2.352
29421W        W88682  42.837  17.164  14.802
29422W        W88683  37.459  28.092   1.841
29423W        W88684  33.430  42.919   3.252
29424W        W88685  39.857  25.089  11.485
29425W        W88686  11.352  34.060   4.354
29426W        W88687  36.362  25.141   3.856
29427W        W88688  10.778  26.633   1.841
29428W        W88689  14.134  29.085  12.482
29429W        W88690  12.191  14.323  11.942
29430W        W88691  21.228  42.838  10.047
29431W        W88692  23.616  30.085   1.704
29432W        W88693   7.675  27.144  14.969
29433W        W88694  15.784  15.097   3.733
29434W        W88695  33.957  25.216   5.320
29435W        W88696  21.542  22.684   4.600
29436W        W88697   9.834   9.660   5.153
29437W        W88698  19.129  20.144   3.693
29438W        W88699  23.729  44.873   4.603
29439W        W88700  35.553  35.523   4.257
29440W        W88701  17.697  21.174  13.866
29441W        W88702  36.450   5.789   2.877
29442W        W88703  40.814  12.640   1.350
29443W        W88704   5.864  33.529  13.831
29444W        W88705   2.920  10.252   0.259
29445W        W88706   2.327  32.523   3.280
29446W        W88707   6.325   7.892   1.424
29447W        W88708  26.484  28.036  12.904
29448W        W88709  29.662  39.902   3.190
29449W        W88710  22.159  41.364  12.012
29450W        W88711  15.156  14.175   3.228
29451W        W88712   7.364  22.744  12.889
29452W        W88713  21.130  10.313  13.960
29453W        W88714   6.922  31.547  11.000
29454W        W88715   1.809  42.966  14.799
29455W        W88716   1.764  28.050   2.249
29456W        W88717  31.579  39.409   2.888
29457W        W88718  31.929  10.747  11.462
29458W        W88719   0.973  32.519  11.976
29459W        W88720  26.553  14.269   1.848
29460W        W88721  27.133  44.961  14.821
29461W        W88722   8.317  11.347  12.496
29462W        W88723  21.125  39.366   1.239
29463W        W88724   9.846  36.360   3.323
29464W        W88725  15.177  22.197  10.595
29465W        W88726   2.314  38.046  13.522
29466W        W88727  42.517   0.278  11.864
29467W        W88728  12.164  27.604  13.347
29468W        W88729   3.398  37.510   3.225
29469W        W88730  17.648  18.551   4.330
29470W        W88731  30.125   8.366  10.531
29471W        W88732  21.076  15.155   4.313
29472W        W88733  21.022  34.909  11.537
29473W        W88734  17.074  33.944  10.108
29474W        W88735  42.402  32.618  14.381
29475W        W88736  39.550  12.326  10.578
29476W        W88737  37.477  15.802  14.430
29477W        W88738  10.168  16.617  10.016
29478W        W88739  33.404  36.892  13.401
29479W        W88740  37.982   8.781   4.190
29480W        W88741  32.896   0.485   3.672
29481W        W88742  44.784  17.731   4.157
29482W        W88743  16.110  37.378   4.757
29483W        W88744  24.220  14.793   1.249
29484W        W88745   3.803   9.277   0.380
29485W        W88746  37.861  14.652  13.885
29486W        W88747   2.743  37.349   1.429
29487W        W88748  25.015  13.295  12.027
29488W        W88749  34.448  44.335   3.168
29489W        W88750  18.573  40.948  11.920
29490W        W88751   1.734  29.496   1.393
29491W        W88752   9.852  15.633  10.990
29492W        W88753  23.495  12.810   1.889
29493W        W88754  35.871  30.469   2.689
29494W        W88755  28.117  20.154  13.490
29495W        W88756  21.023   4.378  14.983
29496W        W88757  11.294  11.248  11.065
29497W        W88758  31.079  19.716   1.212
29498W        W88759  23.638  42.921  10.890
29499W        W88760  24.539  10.858   2.234
29500W        W88761  24.152  14.778   2.703
29501W        W88762   5.829  15.818  11.458
29502W        W88763  16.729  43.986  12.841
29503W        W88764  44.420  31.037   2.363
29504W        W88765  38.470  34.416   0.840
29505W        W88766  43.337  26.493   4.123
29506W        W88767  39.384  29.459   1.228
29507W        W88768   6.242  38.860  12.978
29508W        W88769  32.029   9.682  11.467
29509W        W88770  16.793  26.024  13.388
29510W        W88771  28.552   3.388   2.279
29511W        W88772  17.211  24.026  12.929
29512W        W88773   6.326  25.065   2.327
29513W        W88774   7.182  41.306  11.504
29514W        W88775  32.509  25.511   4.199
29515W        W88776  35.442  41.970  14.450
29516W        W88777  24.676  37.850  14.885
29517W        W88778  32.536  19.551   0.890
29518W        W88779  11.822  38.421   4.643
29519W        W88780  10.153  20.170  11.414
29520W        W88781  18.090   0.915   0.842
29521W        W88782  32.943  27.505   4.626
29522W        W88783   5.257   6.329   1.267
29523W        W88784  39.016   7.394  10.052
29524W        W88785   0.456  18.194   1.844
29525W        W88786  28.649  32.399   3.791
29526W        W88787   1.944  30.621  11.945
29527W        W88788  27.064   4.910  13.323
29528W        W88789  19.208  16.711  11.929
29529W        W88790  29.170  32.497   2.787
29530W        W88791  18.255  28.434   3.187
29531W        W88792  39.378  15.117  11.066
29532W        W88793   6.300  27.621   4.181
29533W        W88794  31.618  44.478   4.709
29534W        W88795  12.669  34.936  12.077
29535W        W88796  13.240  23.553   0.294
29536W        W88797   4.726  20.044   3.769
29537W        W88798  20.608  44.348  14.800
29538W        W88799   9.883  24.623  13.883
29539W        W88800  10.288   9.177  14.300
29540W        W88801  20.038  26.526   3.292
29541W        W88802  43.968  17.712  14.798
29542W        W88803  33.584  16.793   2.803
29543W        W88804  40.871   7.895  10.512
29544W        W88805  20.719  16.631   2.325
29545W        W88806  11.782  18.053  14.932
29546W        W88807  13.747  20.221   4.144
29547W        W88808   0.438  15.629  12.943
29548W        W88809   6.677  32.032   2.373
29549W        W88810  18.754  29.503  14.776
29550W        W88811  43.819  12.682  14.760
29551W        W88812  26.514  44.411   2.846
29552W        W88813  24.609   6.190  10.598
29553W        W88814  38.438   7.233   1.432
29554W        W88815  38.338   4.875   2.805
29555W        W88816  44.839  23.092   3.691
29556W        W88817   7.174  12.768  11.013
29557W        W88818  17.069  37.987   3.174
29558W        W88819  17.712  12.706   3.699
29559W        W88820  15.623  37.382   1.817
29560W        W88821  10.353  25.711  12.569
29561W        W88822  33.591  28.944   3.687
29562W        W88823  23.114   5.817  10.408
29563W        W88824  20.605  32.446  12.578
29564W        W88825  27.522  40.366   1.236
29565W        W88826  22.052  31.551   2.870
29566W        W88827  40.323  24.576   1.696
29567W        W88828  12.682  22.581   4.686
29568W        W88829  35.868  12.644   9.925
29569W        W88830   0.280  27.603   0.956
29570W        W88831  44.303  20.630  13.430
29571W        W88832   5.719  40.884  10.943
29572W        W88833   1.335   3.775   2.312
29573W        W88834  15.727  39.943  14.374
29574W        W88835   2.756   2.465  13.315
29575W        W88836   2.851  12.739  10.470
29576W        W88837   9.886  18.221   4.659
29577W        W88838  15.727  25.009   5.156
29578W        W88839  27.062  27.091  11.863
29579W        W88840   3.833  12.837   1.890
29580W        W88841  35.392  29.135   3.335
29581W        W88842  28.642  23.105   4.298
29582W        W88843  44.794  12.215   0.923
29583W        W88844   6.328  11.162   4.140
29584W        W88845   9.777   8.286   3.677
29585W        W88846  35.876  33.114  13.954
29586W        W88847  12.226  13.126  11.966
29587W        W88848  31.416  32.027   0.370
29588W        W88849  11.726   3.803   1.700
29589W        W88850  41.970   3.856   1.345
29590W        W88851   7.296  35.090  14.841
29591W        W88852  21.099  30.477  11.547
29592W        W88853   5.892  27.127   2.389
29593W        W88854  34.435  17.137  11.029
29594W        W88855  15.157  36.428  11.020
29595W        W88856  27.165  39.818  12.932
29596W        W88857  35.034   5.267   2.716
29597W        W88858   7.802  29.951  14.382
29598W        W88859   5.271  42.374   0.743
29599W        W88860   9.238  13.337   1.212
29600W        W88861  41.924   0.781  14.869
29601W        W88862  17.796  14.110  12.470
29602W        W88863  32.946  34.112   9.616
29603W        W88864  11.784  44.878   0.333
29604W        W88865  37.516  20.649  14.411
29605W        W88866  21.039  44.816  14.289
29606W        W88867  19.756   5.750   2.378
29607W        W88868  40.321   8.330   1.221
29608W        W88869  13.164  10.344  10.473
29609W        W88870  36.493   6.297  11.880
29610W        W88871  25.532  15.217   3.352
29611W        W88872  44.004   9.667  14.321
29612W        W88873  33.482   3.394   2.227
29613W        W88874  34.420  19.248   3.754
29614W        W88875   8.720   9.201   3.699
29615W        W88876  19.628  29.575   4.647
29616W        W88877  17.626   1.443   4.708
29617W        W88878  10.234  22.197   3.145
29618W        W88879  39.908  43.332  14.775
29619W        W88880   2.382  21.116  11.936
29620W        W88881  41.926  39.379  11.085
29621W        W88882  17.071   3.277  11.498
29622W        W88883  21.556  39.002  10.597
29623W        W88884  37.460   3.873  14.343
29624W        W88885   3.891  20.053   3.271
29625W        W88886  41.482  41.847  12.081
29626W        W88887  38.531  17.596   4.176
29627W        W88888   6.683  39.063  13.359
29628W        W88889  43.296  30.514   2.290
29629W        W88890  28.057  38.911  10.578
29630W        W88891  44.786  17.164   3.309
29631W        W88892  17.784  31.560   2.877
29632W        W88893  20.586  38.069  13.851
29633W        W88894  36.896  33.613  11.406
29634W        W88895  20.160  12.676   2.314
29635W        W88896  26.657  26.096  12.493
29636W        W88897  44.909  41.409  14.980
29637W        W88898  25.512  35.543  10.902
29638W        W88899   6.230  44.347   4.624
29639W        W88900  14.325  41.985  12.042
29640W        W88901  43.828   8.826   4.805
29641W        W88902  19.586  17.227   0.964
29642W        W88903  43.018  20.107   3.376
29643W        W88904   5.343  44.010   0.465
29644W        W88905   2.821   9.704   2.759
29645W        W88906  35.996  22.556   1.329
29646W        W88907   7.322  17.591   3.696
29647W        W88908  16.606  42.464   0.825
29648W        W88909   4.432  20.059   2.271
29649W        W88910   6.252  20.546   4.680
29650W        W88911  36.452  13.646  14.854
29651W        W88912  34.894  11.238   4.265
29652W        W88913   4.287  25.604   0.893
29653W        W88914   4.435   1.786  12.480
29654W        W88915   7.178  41.467  14.862
29655W        W88916  34.995  26.656  10.628
29656W        W88917   2.415  36.402  11.469
29657W        W88918  28.113   0.463  12.368
29658W        W88919  17.140   0.281   1.297
29659W        W88920  20.558  33.595  12.836
29660W        W88921  23.231   5.363   0.392
29661W        W88922   5.705  34.959  14.909
29662W        W88923  10.714  39.926  14.959
29663W        W88924  31.417  39.534   2.262
29664W        W88925  12.309  39.500   0.950
29665W        W88926  16.157  14.634  14.493
29666W        W88927  12.136  26.576  11.517
29667W        W88928  37.459  15.702   2.847
29668W        W88929  40.009   5.850  11.492
29669W        W88930  34.868   9.344  14.417
29670W        W88931  33.002  13.838   1.214
29671W        W88932   6.351  21.744  11.404
29672W        W88933  37.464   9.713   4.163
29673W        W88934   5.195  26.190   1.694
29674W        W88935  40.797  42.835  11.530
29675W        W88936  23.708  33.889   3.265
29676W        W88937  19.601  10.341   5.189
29677W        W88938  14.801  39.949  13.876
29678W        W88939   3.331  41.349  13.058
29679W        W88940  32.944  35.925   4.241
29680W        W88941  27.133  41.930  11.976
29681W        W88942  19.222  41.028   4.245
29682W        W88943  43.414   4.872  14.417
29683W        W88944   2.439  28.164   4.338
29684W        W88945  38.969  18.692   2.820
29685W        W88946  24.046  34.988   0.457
29686W        W88947  32.110  11.284  13.388
29687W        W88948  40.874  44.826   0.785
29688W        W88949   7.682   8.890  14.856
29689W        W88950   2.817   5.238  14.870
29690W        W88951  21.180  33.998  13.969
29691W        W88952   4.746   2.773   4.322
29692W        W88953  16.698   5.243  11.949
29693W        W88954  37.900  23.024  12.525
29694W        W88955  42.468  29.428   2.280
29695W        W88956  37.001  14.268   1.263
29696W        W88957  22.551   6.875   2.726
29697W        W88958  20.620   1.284   1.250
29698W        W88959  19.674   4.354   3.798
29699W        W88960  29.025  14.716   4.236
29700W        W88961  17.071   7.738  13.403
29701W        W88962  23.047  36.558  11.101
29702W        W88963  11.864  12.700  13.486
29703W        W88964  10.792   2.743  13.377
29704W        W88965  41.954  42.473   2.852
29705W        W88966  34.578  25.558  13.899
29706W        W88967  12.649  15.747   4.837
29707W        W88968   9.376   4.362  11.532
29708W        W88969  18.666  18.089   9.987
29709W        W88970   3.417   6.783  13.320
29710W        W88971  12.752  32.532   4.740
29711W        W88972  35.063  42.957  11.985
29712W        W88973  10.278  12.766  13.996
29713W        W88974  12.735  21.072   1.812
29714W        W88975  18.734  18.258  11.109
29715W        W88976  40.386  19.061   2.840
29716W        W88977  28.091   7.804  12.094
29717W        W88978  42.471  24.193   1.262
29718W        W88979  23.585   8.669   3.386
29719W        W88980   6.288  42.962  14.277
29720W        W88981   3.861  11.766   5.189
29721W        W88982  25.968  43.386  10.925
29722W        W88983   4.929  38.907   4.242
29723W        W88984  32.452   0.837  11.915
29724W        W88985  20.167  28.485   4.716
29725W        W88986   1.372  27.978   4.719
29726W        W88987  21.028  10.672   1.224
29727W        W88988  36.498  14.775   0.835
29728W        W88989  25.996  24.529  14.502
29729W        W88990  29.642   8.679   4.625
29730W        W88991   0.850  26.507   0.416
29731W        W88992  25.650  26.130   3.725
29732W        W88993   2.927  43.413   3.717
29733W        W88994  35.506  44.476  14.845
29734W        W88995  16.646   6.814  11.394
29735W        W88996   3.726   7.307   3.694
29736W        W88997  17.156  23.013  11.523
29737W        W88998  26.002  34.992   0.359
29738W        W88999   2.348  32.115   4.721
29739W        W89000  40.385  37.467  12.962
29740W        W89001  38.950  11.188   2.766
29741W        W89002  25.685   9.690  13.329
29742W        W89003  25.998  13.844   3.656
29743W        W89004  16.192  20.143   5.087
29744W        W89005  20.685   6.366   0.748
29745W        W89006  24.638  24.099   9.973
29746W        W89007  23.089  40.510   3.657
29747W        W89008   0.931  26.033   3.803
29748W        W89009  19.607  26.570   2.737
29749W        W89010   6.280  24.978   0.799
29750W        W89011  31.066  12.836   9.999
29751W        W89012   5.768  26.136  14.003
29752W        W89013  23.129  21.088  13.890
29753W        W89014  33.440   9.239   2.816
29754W        W89015  44.272   8.706  10.617
29755W        W89016  11.699  24.690   3.685
29756W        W89017  20.205   0.974   0.914
29757W        W89018  37.450   0.884  13.373
29758W        W89019  37.971  14.742   1.917
29759W        W89020   3.868  42.940   2.760
29760W        W89021  42.403   8.186  11.094
29761W        W89022  13.803  26.672  14.984
29762W        W89023  44.902   3.367  14.813
29763W        W89024   9.654  30.093   4.243
29764W        W89025   5.335   3.837  14.949
29765W        W89026   6.906  22.185   2.812
29766W        W89027   3.449  35.587   1.753
29767W        W89028  32.581   2.963   4.756
29768W        W89029   7.911  37.042   0.727
29769W        W89030  29.009  39.446  14.916
29770W        W89031  29.999  31.489   3.206
29771W        W89032  32.014  41.795  14.818
29772W        W89033  35.431  41.842   3.776
29773W        W89034  28.627  43.287   3.734
29774W        W89035   7.759  17.558   4.821
29775W        W89036  36.428  19.080  11.394
29776W        W89037  11.676   9.274   0.266
29777W        W89038  13.806   4.382  10.990
29778W        W89039   7.403  41.352   2.722
29779W        W89040  23.171  41.998   4.133
29780W        W89041  34.433   3.876   0.847
29781W        W89042  11.840  23.623  14.368
29782W        W89043  10.141  25.533  10.450
29783W        W89044   8.287   3.929   0.846
29784W        W89045  35.894  14.268   3.836
29785W        W89046  11.622  23.227   3.654
29786W        W89047  37.917  31.946   4.670
29787W        W89048  32.982   2.341   3.754
29788W        W89049  28.111   3.909  14.406
29789W        W89050  30.533   4.742  13.830
29790W        W89051  35.442  44.493   3.167
29791W        W89052  22.697   1.338  11.016
29792W        W89053  39.998  17.737   3.175
29793W        W89054  28.621  36.393  13.004
29794W        W89055  14.794   2.386  14.287
29795W        W89056  20.698   1.455  10.577
29796W        W89057  28.031   1.910  12.868
29797W        W89058  17.126  41.370   4.834
29798W        W89059  22.094  35.598   1.866
29799W        W89060   1.461   1.961  11.528
29800W        W89061  30.460  16.232  12.064
29801W        W89062  18.587  21.017  12.442
29802W        W89063  22.516  28.495  11.064
29803W        W89064  13.113  29.590  12.890
29804W        W89065   0.773  21.599   3.685
29805W        W89066  26.628   9.383   0.437
29806W        W89067  22.196   2.930   0.296
29807W        W89068  37.454  29.951   4.694
29808W        W89069  30.964  20.748   3.752
29809W        W89070  39.938   9.853  14.405
29810W        W89071  44.970  38.846  11.971
29811W        W89072  15.628  23.234  13.857
29812W        W89073  36.945   7.277   3.219
29813W        W89074  41.471  26.199  10.898
29814W        W89075  40.819   1.412  13.988
29815W        W89076  29.634  15.764   0.358
29816W        W89077  33.504   4.409   0.270
29817W        W89078  31.957   9.669  14.822
29818W        W89079  21.545  36.027   2.377
29819W        W89080   3.945  14.684  14.516
29820W        W89081  32.996   1.290  11.895
29821W        W89082  28.625  26.006  13.849
29822W        W89083   3.415  23.987  14.386
29823W        W89084   5.425   4.281  12.453
29824W        W89085  13.681  32.908  12.092
29825W        W89086  18.246   5.406  11.569
29826W        W89087  29.562  16.637  14.905
29827W        W89088   4.350  44.382  11.091
29828W        W89089  18.236  15.222   0.953
29829W        W89090  19.044  39.820   0.819
29830W        W89091  42.322   1.357  10.450
29831W        W89092  27.083  27.043  11.390
29832W        W89093   4.823  28.023   4.123
29833W        W89094  15.696  39.038  11.591
29834W        W89095  31.473  24.596  13.943
29835W        W89096  13.234  29.933   0.264
29836W        W89097  16.787  41.305   2.317
29837W        W89098  24.032  20.120  11.919
29838W        W89099  30.478  42.017   1.701
29839W        W89100  39.944   2.744  14.947
29840W        W89101  11.851  44.443  14.870
29841W        W89102   0.417  20.620   1.230
29842W        W89103  31.418   5.239  11.043
29843W        W89104  43.986  38.040  11.608
29844W        W89105  33.387  24.613   0.815
29845W        W89106  11.373  12.746   0.781
29846W        W89107  26.988  41.519  10.593
29847W        W89108  28.066   7.341   2.849
29848W        W89109   0.773   6.862   4.153
29849W        W89110  28.641  17.609  11.875
29850W        W89111   2.230  41.315  10.069
29851W        W89112  22.697   2.398   1.394
29852W        W89113  16.074  23.652   4.174
29853W        W89114  21.629  12.329  11.106
29854W        W89115   1.272  30.157  13.343
29855W        W89116  32.901  13.781   4.200
29856W        W89117  19.272   9.805  11.909
29857W        W89118  31.538  41.818  11.897
29858W        W89119   3.281  17.290   3.787
29859W        W89120   4.442   9.643   4.794
29860W        W89121   6.676   1.317  11.028
29861W        W89122   8.872   5.295  11.890
29862W        W89123   4.358  26.565  13.543
29863W        W89124   8.761  22.058  11.536
29864W        W89125  14.200  43.814  13.930
29865W        W89126  18.152  25.566  10.577
29866W        W89127   0.293  34.092   1.307
29867W        W89128  14.723  29.469  12.035
29868W        W89129  23.202  17.130  13.020
29869W        W89130  19.265   5.788   1.231
29870W        W89131  21.531  16.749   0.897
29871W        W89132  37.051  32.037  13.792
29872W        W89133  30.139  11.131   0.877
29873W        W89134   3.452  25.216  12.873
29874W        W89135   9.857  16.769  13.821
29875W        W89136  26.610  15.319   2.208
29876W        W89137   0.383   9.237   0.371
29877W        W89138  24.009  31.540  13.502
29878W        W89139  17.150  13.321  12.481
29879W        W89140  43.326  21.110  11.587
29880W        W89141  29.593   9.244   0.483
29881W        W89142  34.503  12.786  14.857
29882W        W89143  21.126  36.479   4.270
29883W        W89144  36.403  25.126   2.248
29884W        W89145   8.810  27.018   3.198
29885W        W89146  39.939  20.570  10.587
29886W        W89147  30.585  29.586  11.582
29887W        W89148  32.555  25.100   3.294
29888W        W89149   5.228  32.036  11.049
29889W        W89150   9.744  39.008   0.266
29890W        W89151  21.734  40.523  12.450
29891W        W89152   2.361   8.283   5.208
29892W        W89153  27.175  17.611  10.496
29893W        W89154  36.535   3.741  14.794
29894W        W89155  17.187  26.534   4.282
29895W        W89156  44.942   8.859   4.740
29896W        W89157   6.347  37.487  14.305
29897W        W89158  41.961  11.677   1.313
29898W        W89159  43.407  16.583   3.162
29899W        W89160  11.848   4.841   1.213
29900W        W89161  17.762  36.094  10.605
29901W        W89162   0.796   4.823   1.876
29902W        W89163  22.052  37.365  13.809
29903W        W89164  24.140  26.174  11.987
29904W        W89165  36.099  28.042  11.055
29905W        W89166  36.438   9.697  14.902
29906W        W89167  19.741  28.006   2.682
29907W        W89168  33.988   0.314  13.543
29908W        W89169  29.573  43.794  10.531
29909W        W89170  20.088   5.767  13.821
29910W        W89171  40.918  18.114   3.201
29911W        W89172  24.153   5.766   0.809
29912W        W89173   1.784  44.417  14.965
29913W        W89174  14.659  27.584  13.877
29914W        W89175  22.125   9.832  14.510
29915W        W89176  43.287  35.411   4.761
29916W        W89177  38.467   7.877  10.547
29917W        W89178  21.712  40.389  11.575
29918W        W89179  22.560  40.543  12.890
29919W        W89180  32.485  17.134  12.446
29920W        W89181  43.009  29.620   5.150
29921W        W89182  44.007  34.958   0.310
29922W        W89183  38.370  34.577  14.306
29923W        W89184  13.667  38.877   4.208
29924W        W89185  24.019   4.834  12.358
29925W        W89186  20.642  21.140   3.352
29926W        W89187   8.894  34.390  10.061
29927W        W89188   8.217   7.399   2.813
29928W        W89189  13.316  27.985   3.734
29929W        W89190  32.933  25.217  14.326
29930W        W89191  32.034  36.377   4.625
29931W        W89192   3.906  17.156   0.266
29932W        W89193  15.297  34.610   1.435
29933W        W89194  10.678  21.072   0.954
29934W        W89195  41.390   3.839   2.718
29935W        W89196  14.694  27.965  14.437
29936W        W89197   5.914  44.967  12.841
29937W        W89198  36.533  25.212   4.785
29938W        W89199   2.287   8.665   0.458
29939W        W89200  11.749  32.090  10.543
29940W        W89201  41.488   9.226  13.353
29941W        W89202  39.381  39.039  10.964
29942W        W89203  12.282  34.432  10.616
29943W        W89204  31.910   7.317  12.481
29944W        W89205  43.337  25.666  14.923
29945W        W89206  17.267  22.117   5.779
29946W        W89207   0.380  32.600   2.829
29947W        W89208   6.873  39.006   3.657
29948W        W89209  22.538  43.961  14.024
29949W        W89210  11.784  25.968   2.853
29950W        W89211  29.164  18.263  14.888
29951W        W89212  22.518   0.918  10.946
29952W        W89213  33.420  19.095   3.759
29953W        W89214  38.012   0.763   0.347
29954W        W89215  44.757   4.373  14.866
29955W        W89216  27.010   5.315   1.861
29956W        W89217  17.694   2.454  11.056
29957W        W89218  43.443  20.263  14.469
29958W        W89219  18.549  42.794   0.828
29959W        W89220  37.336   4.849   5.228
29960W        W89221  13.630  15.636   3.194
29961W        W89222  12.669   0.869   2.751
29962W        W89223   2.350  44.419   2.233
29963W        W89224  38.340  13.191   4.322
29964W        W89225  33.937  36.072  11.611
29965W        W89226  41.335  32.627   4.709
29966W        W89227  29.613  17.796  12.390
29967W        W89228   3.332   5.248  10.576
29968W        W89229  21.577  34.045  11.519
29969W        W89230  24.002   3.375   1.332
29970W        W89231  43.858   9.215   3.165
29971W        W89232  27.091  41.944  12.866
29972W        W89233   2.259  25.016   4.806
29973W        W89234  11.311   8.368   1.344
29974W        W89235   4.292  44.346   3.812
29975W        W89236  36.871   2.791   0.729
29976W        W89237  20.091  29.563   3.835
29977W        W89238  11.197  32.070   4.623
29978W        W89239  32.921   5.311   2.316
29979W        W89240  15.694  16.183   3.650
29980W        W89241  40.959  20.102  14.794
29981W        W89242  11.133  22.639   2.819
29982W        W89243   5.838  22.592   0.416
29983W        W89244  23.645  26.499   2.202
29984W        W89245  12.629   5.781  11.478
29985W        W89246  23.237  21.633   3.773
29986W        W89247   2.318   2.421  13.871
29987W        W89248  32.552  25.682   1.913
29988W        W89249  24.669   7.275  13.346
29989W        W89250  20.043  20.122   1.752
29990W        W89251  16.106  39.355  14.494
29991W        W89252  38.057  26.508   0.909
29992W        W89253  25.028  35.970   4.181
29993W        W89254  18.783  19.125   9.975
29994W        W89255  11.268  31.524   3.288
29995W        W89256  39.853  29.503  12.375
29996W        W89257  25.963  24.643   4.800
29997W        W89258  10.826   2.405   4.302
29998W        W89259  13.797  40.354   2.731
29999W        W89260  24.623  15.651   2.391
30000W        W89261  19.611  17.728   4.799
30001W        W89262  11.827  34.608   0.483
30002W        W89263  32.075  44.963  11.952
30003W        W89264   4.727  43.960   3.737
30004W        W89265   3.460   1.876   4.131
30005W        W89266   0.987   9.243  13.011
30006W        W89267  40.393  32.452  14.853
30007W        W89268   2.833  12.145  12.058
30008W        W89269  44.466  26.640  11.563
30009W        W89270  41.503  30.035  12.403
30010W        W89271   4.345  38.404   3.316
30011W        W89272  32.932   2.869  10.567
30012W        W89273  22.033  13.718   2.330
30013W        W89274   7.881  20.544   1.268
30014W        W89275  13.197   3.384   3.739
30015W        W89276  25.157  44.346   4.679
30016W        W89277   4.236  29.005  14.468
30017W        W89278  11.690  11.788  10.135
30018W        W89279  25.191  34.381   1.315
30019W        W89280  25.689  27.991   2.806
30020W        W89281   6.200  44.465   0.953
30021W        W89282  37.971  32.501   2.873
30022W        W89283  10.834  36.490  13.456
30023W        W89284  17.293   8.290   0.943
30024W        W89285  34.388   3.899   2.868
30025W        W89286   6.379  25.677   2.843
30026W        W89287   3.382   8.216   0.270
30027W        W89288   1.823  25.038  13.528
30028W        W89289  32.013   3.253   3.355
30029W        W89290  21.609  14.671  11.495
30030W        W89291  20.713  22.621   0.938
30031W        W89292  42.972   6.822  14.398
30032W        W89293  37.431  40.409   3.285
30033W        W89294  18.222   5.756  13.544
30034W        W89295  19.650  41.526   1.333
30035W        W89296  15.823  10.296  14.957
30036W        W89297  12.763   4.752   0.824
30037W        W89298  20.589  18.115   0.351
30038W        W89299  38.548  14.789  12.530
30039W        W89300  42.921   5.784   0.884
30040W        W89301   2.265  30.466   0.826
30041W        W89302  38.904  44.983   3.347
30042W        W89303  23.987   5.309  10.590
30043W        W89304  10.161  30.100   3.373
30044W        W89305  12.217  31.910  10.920
30045W        W89306  18.565  17.192  11.963
30046W        W89307  14.646   2.266  10.899
30047W        W89308  40.476  17.108  10.006
30048W        W89309  10.372  13.326  11.858
30049W        W89310  11.315   4.276   1.798
30050W        W89311  15.280  15.680   4.629
30051W        W89312  36.435  11.262   2.320
30052W        W89313   9.362  40.814  13.313
30053W        W89314  21.019  34.380  10.944
30054W        W89315   2.359  44.374   2.886
30055W        W89316  26.004  11.264   0.337
30056W        W89317  15.670  38.883   0.371
30057W        W89318   7.737  25.492   3.192
30058W        W89319  14.758  16.268   1.219
30059W        W89320   8.272  26.614   1.285
30060W        W89321   5.795   6.916   0.801
30061W        W89322  23.211  23.518  12.456
30062W        W89323  44.862   8.299   1.780
30063W        W89324   5.302  43.839  14.459
30064W        W89325  42.442  30.591  12.874
30065W        W89326  13.607  16.803  11.115
30066W        W89327  41.041  14.169   3.807
30067W        W89328  31.132   5.919  10.543
30068W        W89329  19.240   1.905   0.905
30069W        W89330  24.603   4.349   2.311
30070W        W89331  11.255  41.320   3.647
30071W        W89332  32.986   1.285  14.416
30072W        W89333  29.665  20.613   0.264
30073W        W89334  43.301   4.407  13.858
30074W        W89335  10.751   5.753   0.746
30075W        W89336   5.817  16.244   1.342
30076W        W89337  35.921  16.250   3.680
30077W        W89338   9.760   4.796   4.136
30078W        W89339  39.327  38.381   0.266
30079W        W89340  30.990  19.087   3.349
30080W        W89341  40.966   3.332   2.892
30081W        W89342   1.924  26.002  11.021
30082W        W89343   2.346  41.413  14.999
30083W        W89344  14.641  30.994  13.058
30084W        W89345   4.255  31.023   2.228
30085W        W89346  19.554   0.973   2.186
30086W        W89347  33.958   8.823  12.506
30087W        W89348  35.558   6.317  11.499
30088W        W89349   7.409  22.106  12.927
30089W        W89350   2.467  42.841   1.234
30090W        W89351   3.921  15.105   0.394
30091W        W89352  34.906  19.187  13.032
30092W        W89353  27.134  27.588  11.115
30093W        W89354  23.618   1.962   4.623
30094W        W89355   4.792  33.549   4.622
30095W        W89356  34.460   3.945   1.312
30096W        W89357  22.197  14.728   0.243
30097W        W89358  20.713  10.742   4.189
30098W        W89359   7.214   8.215   1.382
30099W        W89360   1.795  22.585  12.382
30100W        W89361   3.823   0.292   4.169
30101W        W89362  38.394  32.412  12.359
30102W        W89363  36.054  42.324   3.383
30103W        W89364   9.759   8.308   0.960
30104W        W89365  18.626  32.481   3.242
30105W        W89366  44.493  37.524  10.991
30106W        W89367  36.991  12.846  10.475
30107W        W89368  23.051   0.925   0.424
30108W        W89369  34.077  29.425   2.231
30109W        W89370  25.632   8.817   0.363
30110W        W89371  36.483  17.715  13.340
30111W        W89372  12.213  24.136   0.918
30112W        W89373   7.673  28.163  13.355
30113W        W89374   4.379   1.853   4.647
30114W        W89375  32.395  22.205  11.899
30115W        W89376  37.364  44.377   2.258
30116W        W89377   9.859   3.816   0.757
30117W        W89378   1.379  19.129  10.446
30118W        W89379  13.634  30.078  10.563
30119W        W89380  27.488  36.351  10.057
30120W        W89381  33.974  29.621  14.960
30121W        W89382  31.042   1.838   2.866
30122W        W89383   3.360  35.053  13.499
30123W        W89384  23.493   3.781  12.489
30124W        W89385  24.617  20.180   3.381
30125W        W89386   3.912  30.609  11.087
30126W        W89387  14.280  12.804   2.833
30127W        W89388  29.564  40.806  11.554
30128W        W89389  21.263  24.503   4.323
30129W        W89390   9.240  38.412  12.954
30130W        W89391  32.949  30.413   1.244
30131W        W89392  23.150  38.563   1.739
30132W        W89393  33.503   6.182  12.062
30133W        W89394  23.623  11.196  14.940
30134W        W89395  16.691  38.063  14.836
30135W        W89396  24.230  12.658  12.458
30136W        W89397   2.323  12.318   3.694
30137W        W89398   9.284  16.789   1.792
30138W        W89399  40.833   3.876  10.422
30139W        W89400  23.678  39.985   1.926
30140W        W89401  26.061  14.615   2.291
30141W        W89402  19.213  36.369  12.823
30142W        W89403  13.323  41.329  14.400
30143W        W89404  43.336  30.058  12.416
30144W        W89405  41.319  40.037   0.865
30145W        W89406  26.033  42.450  13.826
30146W        W89407   3.739  11.252   4.216
30147W        W89408  38.891  36.085  11.977
30148W        W89409   3.910  28.122   3.820
30149W        W89410  35.021   2.850  10.531
30150W        W89411  13.698  37.067  11.883
30151W        W89412   4.254  43.786   3.663
30152W        W89413  31.457  40.876   4.721
30153W        W89414  20.598   9.324   2.859
30154W        W89415   6.219  33.390  14.946
30155W        W89416  21.744   1.929  10.516
30156W        W89417  10.144   7.718  12.922
30157W        W89418   6.870  16.794   0.738
30158W        W89419  25.701  18.683   0.313
30159W        W89420   8.700  14.278  14.345
30160W        W89421   2.439  17.069  13.987
30161W        W89422  17.739  17.662   2.860
30162W        W89423  17.274   5.706  11.868
30163W        W89424  20.166  23.148  11.437
30164W        W89425   8.267  32.981  12.420
30165W        W89426  35.014  17.563   1.752
30166W        W89427  22.097  24.170   3.840
30167W        W89428   8.694  25.586   0.810
30168W        W89429  26.493   9.864  10.552
30169W        W89430  34.073  19.248   2.804
30170W        W89431  26.646  22.625  11.607
30171W        W89432   7.685  11.662   0.458
30172W        W89433   8.294   9.876  10.593
30173W        W89434   7.310  28.617  12.072
30174W        W89435  43.418  33.884   2.666
30175W        W89436  33.014  16.186   4.236
30176W        W89437  12.189   6.682  12.373
30177W        W89438   1.746  40.892  11.904
30178W        W89439   6.254  16.600   2.414
30179W        W89440  19.088  40.522   2.282
30180W        W89441  36.045  17.755  11.600
30181W        W89442   1.378  42.416  11.421
30182W        W89443   4.251  29.514   4.212
30183W        W89444  22.732  16.281   2.304
30184W        W89445  21.227  25.491  14.942
30185W        W89446  18.684  19.199   1.336
30186W        W89447   9.730  35.928   0.929
30187W        W89448  33.471  27.461   4.800
30188W        W89449  25.632   8.347   1.409
30189W        W89450  22.606  12.635  13.812
30190W        W89451  31.489  35.889  12.425
30191W        W89452  44.431  11.707  14.931
30192W        W89453  22.198   2.863  10.579
30193W        W89454  39.976  32.508  12.989
30194W        W89455  44.431  24.213  12.469
30195W        W89456  36.076  27.087  11.884
30196W        W89457  23.003  19.559  14.900
30197W        W89458   3.373  10.644   0.324
30198W        W89459   1.872  38.443  13.357
30199W        W89460  21.653  42.305  13.064
30200W        W89461  15.184   1.412   9.978
30201W        W89462  10.154  22.519   4.183
30202W        W89463  35.030  32.479  11.425
30203W        W89464  37.845  19.545  10.095
30204W        W89465  10.355  39.365  14.777
30205W        W89466  40.362   6.919  10.900
30206W        W89467  13.106  39.505   3.821
30207W        W89468  14.217  31.960  13.938
30208W        W89469  16.234  21.161   0.342
30209W        W89470  18.085  12.682  13.453
30210W        W89471  15.685  10.868   3.384
30211W        W89472  30.953  33.024   2.813
30212W        W89473  21.562  14.776  14.828
30213W        W89474  21.037  13.670   1.260
30214W        W89475   1.466  23.673   3.372
30215W        W89476  40.319  34.008  11.490
30216W        W89477  34.064  24.225   4.181
30217W        W89478  39.547  32.511   9.648
30218W        W89479  29.020  31.637  10.954
30219W        W89480  37.947  17.701  13.410
30220W        W89481   7.203  17.717  13.009
30221W        W89482  32.948  20.559   1.826
30222W        W89483  24.719  34.380  13.447
30223W        W89484  30.097  44.998  12.834
30224W        W89485   7.695  39.833   3.631
30225W        W89486  12.642  34.562  13.049
30226W        W89487   8.724   5.281  14.515
30227W        W89488  37.476  20.672  12.966
30228W        W89489  12.144  22.707  10.404
30229W        W89490   3.954  27.098  12.077
30230W        W89491  21.667   1.736   4.684
30231W        W89492  31.561  32.006   0.834
30232W        W89493  11.331   2.882  13.795
30233W        W89494   8.239   5.777   0.451
30234W        W89495  20.240  43.370  14.510
30235W        W89496  32.935  17.703   4.236
30236W        W89497   6.405   1.935  12.534
30237W        W89498  17.061   1.875  11.605
30238W        W89499  26.658   9.250  12.351
30239W        W89500  15.707  33.131  10.567
30240W        W89501  32.427  31.032   3.252
30241W        W89502  28.600  36.931   1.811
30242W        W89503  12.769  29.080  12.355
30243W        W89504  21.187  18.694   1.863
30244W        W89505  11.183  22.223  11.880
30245W        W89506   6.749   3.347  10.508
30246W        W89507  38.057  30.141   3.151
30247W        W89508  17.273  41.909   4.719
30248W        W89509  23.172  37.948   0.939
30249W        W89510  27.012   5.285   2.271
30250W        W89511  28.438  36.509   4.269
30251W        W89512  12.679  31.574  14.927
30252W        W89513  30.533  26.491  12.360
30253W        W89514  29.918  26.062   2.213
30254W        W89515   6.288  25.116   5.104
30255W        W89516   8.871  11.276   4.214
30256W        W89517   7.177  41.874  11.577
30257W        W89518  30.046   3.923   0.923
30258W        W89519  41.298  38.428  14.832
30259W        W89520  12.363  35.506   2.805
30260W        W89521   7.821   6.412   3.814
30261W        W89522  29.993  15.593  14.880
30262W        W89523  23.609  18.230   3.763
30263W        W89524   6.883   1.754  11.092
30264W        W89525   7.302  33.423   0.309
30265W        W89526  12.760   8.231  14.907
30266W        W89527   1.414  35.098   2.183
30267W        W89528   4.816  13.760  10.114
30268W        W89529   8.839   5.254  13.872
30269W        W89530  27.060  15.257  12.429
30270W        W89531   4.787   3.718   4.281
30271W        W89532  26.487  31.510  13.380
30272W        W89533  13.313  34.609   0.478
30273W        W89534  38.045  32.483   5.110
30274W        W89535  39.462  35.051   3.335
30275W        W89536  37.429  13.666   1.798
30276W        W89537  29.164  40.989   1.372
30277W        W89538  35.427  37.932   3.237
30278W        W89539  17.655  26.087  13.055
30279W        W89540  40.842  16.155   4.759
30280W        W89541  33.100  32.438   3.735
30281W        W89542  23.073  24.138   4.140
30282W        W89543   8.296  12.782  12.995
30283W        W89544  20.151  14.805   4.765
30284W        W89545  19.062  28.039  14.368
30285W        W89546   2.962  19.574  12.041
30286W        W89547  37.920  37.933  11.863
30287W        W89548  15.727  35.944   4.262
30288W        W89549  39.902   5.211  12.430
30289W        W89550  19.572  31.554   3.725
30290W        W89551  12.731  38.424  11.608
30291W        W89552  15.691   1.754  14.322
30292W        W89553   0.273  44.410   0.454
30293W        W89554  27.091   5.240   0.744
30294W        W89555  36.004  44.300   4.118
30295W        W89556  26.524  40.331   2.409
30296W        W89557  17.295   5.914  14.423
30297W        W89558   0.849  15.793   2.703
30298W        W89559  29.038  37.921   3.793
30299W        W89560  31.979   5.904  14.012
30300W        W89561  16.604  17.748  11.498
30301W        W89562   0.316  30.478  13.997
30302W        W89563   8.725  24.495  10.585
30303W        W89564  42.404   7.398  12.994
30304W        W89565  44.987   9.232  14.978
30305W        W89566  13.157  14.773   2.900
30306W        W89567   2.817   8.718   2.889
30307W        W89568   5.722  34.557   0.825
30308W        W89569  27.588  36.950   1.303
30309W        W89570   2.317  22.512   5.238
30310W        W89571  26.062  27.631  12.942
30311W        W89572  20.199   3.392  12.554
30312W        W89573  33.878   5.753  10.987
30313W        W89574  26.032  33.491   0.836
30314W        W89575  11.841  26.053   4.783
30315W        W89576  35.089  22.065   3.225
30316W        W89577  12.782  34.872  11.069
30317W        W89578   6.270   4.731   5.120
30318W        W89579  22.737  22.216   2.329
30319W        W89580  38.961  36.966   1.703
30320W        W89581   6.331  16.761   0.259
30321W        W89582   5.831  38.012  13.341
30322W        W89583  39.826  29.503   2.365
30323W        W89584  32.454  12.830  10.982
30324W        W89585  32.552  27.607   4.351
30325W        W89586  27.118  22.185  12.530
30326W        W89587  41.972  35.950   2.379
30327W        W89588  16.785   3.291   1.827
30328W        W89589  15.103   7.743   3.689
30329W        W89590  33.489   3.761   3.845
30330W        W89591  44.822  22.206   0.254
30331W        W89592  12.292   6.881   1.436
30332W        W89593  24.080  19.662  14.418
30333W        W89594  18.281  36.552  13.417
30334W        W89595   1.422  31.037  13.021
30335W        W89596   0.802  11.280  10.433
30336W        W89597  41.851  39.065   1.351
30337W        W89598  31.589   6.699  10.921
30338W        W89599  12.746  34.381  12.061
30339W        W89600  17.647   3.385   4.598
30340W        W89601  24.045  23.092  14.823
30341W        W89602  15.782  26.536  13.445
30342W        W89603  14.631  39.001  11.099
30343W        W89604  22.230  35.536  14.298
30344W        W89605   7.726  13.788   0.794
30345W        W89606   2.438  28.513   4.113
30346W        W89607  32.494  17.164   0.359
30347W        W89608  28.022  10.219   4.747
30348W        W89609   0.987  18.179   3.297
30349W        W89610  10.749  16.740   0.754
30350W        W89611   8.755  40.844   3.710
30351W        W89612  41.890  40.803  10.440
30352W        W89613  13.165  10.856  10.635
30353W        W89614   0.805  28.515   1.897
30354W        W89615  43.297  39.905  10.918
30355W        W89616  40.834   4.397  11.032
30356W        W89617  15.214   9.777  12.944
30357W        W89618  38.980  38.500   3.684
30358W        W89619  11.801   3.876  13.478
30359W        W89620   0.380  38.384  13.040
30360W        W89621  15.204  31.437   5.162
30361W        W89622  15.162   4.869  13.349
30362W        W89623  20.236  34.400  11.071
30363W        W89624   5.363  30.527   1.871
30364W        W89625  17.082  34.596   3.238
30365W        W89626  37.902  36.532   2.257
30366W        W89627  35.007  14.662  12.086
30367W        W89628  31.583  25.167  13.403
30368W        W89629  19.181  22.249   9.950
30369W        W89630  22.746  33.072   3.859
30370W        W89631   5.889  40.334   2.739
30371W        W89632  41.393  24.026   0.817
30372W        W89633  20.052  16.253   0.340
30373W        W89634  28.170  33.900   0.796
30374W        W89635  18.216   2.811   2.359
30375W        W89636  16.183  18.146   5.160
30376W        W89637  30.065   8.160  14.980
30377W        W89638  38.342  22.528  12.063
30378W        W89639  37.913  24.089  11.407
30379W        W89640  41.298  18.684  11.890
30380W        W89641  41.413  25.104  11.904
30381W        W89642  44.950  32.437   0.462
30382W        W89643   4.791   6.363   5.081
30383W        W89644   0.377  34.552  11.995
30384W        W89645  43.834  11.292  11.981
30385W        W89646   6.901  35.869   2.280
30386W        W89647  34.570  10.746  14.777
30387W        W89648  15.218   6.192   4.293
30388W        W89649  35.991  18.741   0.868
30389W        W89650   9.651  14.288   1.826
30390W        W89651   7.211  37.355   1.846
30391W        W89652  14.732   8.672  11.993
30392W        W89653  11.694  32.994   4.829
30393W        W89654  19.542   2.356   5.171
30394W        W89655  28.659  10.181   0.349
30395W        W89656  37.549  13.647   3.344
30396W        W89657  24.480  12.330   0.311
30397W        W89658  29.978   9.806   9.925
30398W        W89659  26.167  16.750  12.483
30399W        W89660   8.245  18.668   4.829
30400W        W89661  37.374  14.693   3.210
30401W        W89662  33.974  27.076  14.886
30402W        W89663   0.904  19.602  12.926
30403W        W89664  33.902  13.712  14.435
30404W        W89665  32.397  28.084  13.830
30405W        W89666   1.929  19.664  11.390
30406W        W89667   7.406  41.842   3.261
30407W        W89668  43.312  32.125  11.902
30408W        W89669  11.707  16.311  12.999
30409W        W89670  37.869  15.645   3.755
30410W        W89671  23.596   1.844  14.346
30411W        W89672  20.078  24.620  11.929
30412W        W89673   9.394  19.191  14.418
30413W        W89674  10.698   1.878   1.274
30414W        W89675  37.039   6.224   2.759
30415W        W89676   1.326  25.068  12.830
30416W        W89677  31.414  30.632  11.379
30417W        W89678  43.906  29.650   2.235
30418W        W89679  19.703  10.357  12.483
30419W        W89680   5.367   7.287   1.337
30420W        W89681  29.547  19.741  13.845
30421W        W89682  34.500  35.932  10.080
30422W        W89683  30.627   9.298  14.832
30423W        W89684  40.518  38.408  13.867
30424W        W89685  19.269  32.564   2.220
30425W        W89686  31.116  12.630  12.851
30426W        W89687  42.917  14.215   1.330
30427W        W89688   6.364  16.192  12.459
30428W        W89689  22.156  28.488  10.038
30429W        W89690   1.905  43.871  10.426
30430W        W89691   2.411  41.907   2.681
30431W        W89692  29.618  20.762  11.077
30432W        W89693  25.199  42.332  11.529
30433W        W89694  35.913   3.938   3.230
30434W        W89695  21.080  11.146  10.008
30435W        W89696  38.497  44.297  12.418
30436W        W89697  43.321  33.021   1.229
30437W        W89698  26.079  35.861  14.434
30438W        W89699   9.680  41.369  11.926
30439W        W89700  18.222   7.706   0.864
30440W        W89701  23.583  35.513  13.949
30441W        W89702  33.007  32.090   2.897
30442W        W89703  42.029  44.452  11.002
30443W        W89704  42.301   4.945  14.497
30444W        W89705  35.914  21.638   2.758
30445W        W89706  14.773  33.481   5.277
30446W        W89707   8.394  29.543  14.902
30447W        W89708  27.089  44.500  13.320
30448W        W89709  13.623  27.655   1.331
30449W        W89710  43.939   8.305   2.350
30450W        W89711   3.862  22.589   0.363
30451W        W89712  37.880  23.715  14.321
30452W        W89713   5.840  11.232  13.406
30453W        W89714  22.688  42.025   4.347
30454W        W89715   5.223   4.916   1.731
30455W        W89716   9.210   2.720  12.089
30456W        W89717   0.368  24.083   4.752
30457W        W89718  36.396  31.509  11.031
30458W        W89719   4.253  38.977  12.357
30459W        W89720  22.510  31.607   0.774
30460W        W89721   6.906   4.363  10.903
30461W        W89722  26.517   1.481   3.753
30462W        W89723  26.069  37.943   3.691
30463W        W89724  13.283  10.277  11.546
30464W        W89725   9.187  38.450  10.981
30465W        W89726  30.161  12.628   4.792
30466W        W89727   1.266   2.472   3.802
30467W        W89728  42.519  35.041   3.736
30468W        W89729  15.614  25.970  14.347
30469W        W89730  34.079  43.352   5.261
30470W        W89731  38.073  30.493   0.288
30471W        W89732  22.660  43.495   1.378
30472W        W89733  30.654   1.250  13.975
30473W        W89734  35.965  33.032   0.297
30474W        W89735  43.343  22.038  12.027
30475W        W89736  42.876  35.074   0.346
30476W        W89737  12.714  14.733   2.313
30477W        W89738  22.062  16.635   0.849
30478W        W89739  40.466  14.096  11.594
30479W        W89740  38.911  38.050  14.917
30480W        W89741  12.254   8.214  11.587
30481W        W89742  35.965  20.587   1.434
30482W        W89743  41.836  31.148  14.796
30483W        W89744  28.479  14.245  11.433
30484W        W89745  31.016  15.311  11.548
30485W        W89746  41.966  22.040   4.183
30486W        W89747  16.727  22.524   5.113
30487W        W89748   9.215  42.434  14.465
30488W        W89749  42.791  41.482   0.743
30489W        W89750  18.649  35.035  13.887
30490W        W89751   0.387  39.330   0.363
30491W        W89752  26.608  26.101  10.891
30492W        W89753  27.147  37.366   4.815
30493W        W89754   8.392  27.519   3.847
30494W        W89755  30.599  20.160  13.493
30495W        W89756  16.753  16.659   3.367
30496W        W89757   9.374  10.766  12.542
30497W        W89758   2.229  27.967   2.189
30498W        W89759   4.875  37.379  13.408
30499W        W89760  34.432  43.958  11.934
30500W        W89761  24.677  30.052  14.286
30501W        W89762  41.339   3.360  14.293
30502W        W89763  10.839  25.580   2.381
30503W        W89764   0.755  31.059  12.357
30504W        W89765  10.704  26.024  14.889
30505W        W89766  44.848  26.071   0.483
30506W        W89767   2.311  39.834   4.247
30507W        W89768  19.116   7.264  11.373
30508W        W89769  10.305   8.850  14.978
30509W        W89770  32.519  11.854   2.786
30510W        W89771  30.132  31.539   5.769
30511W        W89772  20.238   6.247   1.421
30512W        W89773  32.088  15.789  14.953
30513W        W89774  31.473   4.211  12.402
30514W        W89775   4.334  25.573   4.829
30515W        W89776   2.814  17.743  12.581
30516W        W89777   7.350  40.853  12.347
30517W        W89778  28.105  43.978  12.852
30518W        W89779   4.923  15.789  11.433
30519W        W89780   9.250  22.501   1.337
30520W        W89781  31.419  26.549   3.811
30521W        W89782  16.632  32.470  14.794
30522W        W89783   5.264  10.860   0.753
30523W        W89784  34.532  39.949  14.390
30524W        W89785  10.255  42.969  14.766
30525W        W89786  37.936  14.706  13.356
30526W        W89787  41.525  24.077  13.337
30527W        W89788  12.823   6.704   1.335
30528W        W89789  42.959  23.111  14.511
30529W        W89790   0.976   2.252   1.244
30530W        W89791  12.780  25.202  12.506
30531W        W89792   9.305  36.037   5.259
30532W        W89793  14.798  16.239  10.576
30533W        W89794  27.502  15.105  11.584
30534W        W89795  12.298  19.242  10.588
30535W        W89796  25.131  21.689   1.372
30536W        W89797  11.655  25.152   2.678
30537W        W89798  22.189   5.828  14.818
30538W        W89799  41.007   4.728  13.483
30539W        W89800   1.313  38.880  13.921
30540W        W89801  39.462  31.642  14.023
30541W        W89802  30.550  18.726  11.085
30542W        W89803  31.621  32.411  13.013
30543W        W89804  15.154  39.960   4.798
30544W        W89805  28.503  36.483   2.881
30545W        W89806   6.804  20.598   3.211
30546W        W89807   9.303  11.271  10.406
30547W        W89808   8.895  40.460  14.331
30548W        W89809  33.008  16.701  14.493
30549W        W89810   3.345   6.302   4.252
30550W        W89811  11.678  34.567   4.634
30551W        W89812  31.098  11.143  10.469
30552W        W89813  40.436  20.154  14.967
30553W        W89814   9.232   3.234  10.618
30554W        W89815  13.646  13.105   3.218
30555W        W89816   3.917  44.425  11.542
30556W        W89817  30.551  11.151  12.540
30557W        W89818   5.270  41.394  10.457
30558W        W89819  44.355  21.081   0.919
30559W        W89820  30.912   5.776  14.834
30560W        W89821  24.603  42.894   1.922
30561W        W89822  23.051  16.105   3.733
30562W        W89823  41.329  34.993  14.460
30563W        W89824  25.196   1.747   0.285
30564W        W89825  22.048   1.967   4.254
30565W        W89826  44.354  41.302   3.354
30566W        W89827   5.884  33.551  13.314
30567W        W89828  25.606  43.460   3.755
30568W        W89829  40.978  14.786  12.356
30569W        W89830  33.466   1.422   2.213
30570W        W89831  30.946  21.754  14.814
30571W        W89832  23.176   7.374   2.207
30572W        W89833  22.233  10.746   0.276
30573W        W89834  39.038  26.604   2.337
30574W        W89835  14.679  31.134  14.843
30575W        W89836  32.605  30.491  14.399
30576W        W89837  29.049  20.204  11.501
30577W        W89838  34.087  29.022  11.908
30578W        W89839  24.204  34.079   0.836
30579W        W89840  41.042  26.153   4.338
30580W        W89841  12.290  14.723  13.325
30581W        W89842  39.901  28.008   0.951
30582W        W89843  21.180  28.117   4.148
30583W        W89844  13.241   0.428   1.780
30584W        W89845  37.951  32.920   3.827
30585W        W89846  36.469  12.739   5.305
30586W        W89847  20.225   1.391  13.387
30587W        W89848  22.620   5.291   9.941
30588W        W89849  35.047  19.138   1.330
30589W        W89850   7.893   5.714  12.456
30590W        W89851  44.474  40.483   4.215
30591W        W89852  27.579  17.287   0.373
30592W        W89853  12.297  20.721   3.211
30593W        W89854  14.593  37.959   3.154
30594W        W89855  29.943  27.082   2.749
30595W        W89856  28.550  19.711   3.385
30596W        W89857  25.023  28.680   4.287
30597W        W89858  38.531   2.790  11.034
30598W        W89859  11.768  17.185   1.326
30599W        W89860  17.307  19.236   1.365
30600W        W89861  19.088  25.176   2.224
30601W        W89862   0.959  27.129  12.357
30602W        W89863   7.681  26.004  13.341
30603W        W89864  24.679  12.168   0.924
30604W        W89865   1.265  35.972   4.683
30605W        W89866  42.944   5.415  13.403
30606W        W89867  44.338  36.435   1.365
30607W        W89868  18.184  27.986   1.222
30608W        W89869  33.599   8.297  11.875
30609W        W89870   2.406  41.984   5.214
30610W        W89871   1.440  33.079  10.978
30611W        W89872  42.859  15.146   2.413
30612W        W89873  30.063  31.579  10.009
30613W        W89874   1.444  11.206  14.509
30614W        W89875  44.768  26.643   3.866
30615W        W89876  32.125   3.342  10.149
30616W        W89877  27.648  19.765  12.358
30617W        W89878  17.069  44.782   1.271
30618W        W89879  17.672   9.725   1.732
30619W        W89880  23.659  17.147   3.733
30620W        W89881  27.970  10.671   2.740
30621W        W89882   3.231  30.054  11.073
30622W        W89883  15.289  13.797  10.930
30623W        W89884  18.114  11.184   1.425
30624W        W89885  36.960  21.522   4.337
30625W        W89886   8.809  41.446  14.857
30626W        W89887   7.889   7.786  12.428
30627W        W89888  22.082  17.089   3.730
30628W        W89889   3.240  38.007   3.749
30629W        W89890   9.273  30.046  14.894
30630W        W89891  12.157  27.517   3.196
30631W        W89892   0.350  24.205  13.041
30632W        W89893  24.039  36.985  13.876
30633W        W89894  24.484  31.073  13.489
30634W        W89895  42.797   9.240   1.854
30635W        W89896  18.204  30.590   3.373
30636W        W89897  43.982  15.146  13.929
30637W        W89898  37.544   1.402   4.237
30638W        W89899   3.800  27.014  11.467
30639W        W89900  39.891   4.751  11.501
30640W        W89901   4.944  41.308   4.200
30641W        W89902  11.776  20.732  12.057
30642W        W89903  29.670  40.013  13.323
30643W        W89904  19.769  22.229   1.290
30644W        W89905   4.392   5.285  10.528
30645W        W89906  43.327   0.347   3.797
30646W        W89907  38.421  31.462   2.878
30647W        W89908  18.734   6.786  10.414
30648W        W89909  17.165   1.353  14.873
30649W        W89910   7.227  16.117  11.125
30650W        W89911  41.904   3.442  14.838
30651W        W89912  31.073  40.324   2.187
30652W        W89913  26.147  43.923  12.389
30653W        W89914  26.501  36.426   0.427
30654W        W89915  18.196   7.285   0.414
30655W        W89916  25.530  21.148   0.823
30656W        W89917  28.019  17.158   2.816
30657W        W89918  35.058  35.874   2.766
30658W        W89919   0.752  23.165   2.874
30659W        W89920  23.040  21.207  14.840
30660W        W89921   6.758  14.164   2.253
30661W        W89922   4.438  21.741  13.809
30662W        W89923  11.829   6.837   4.261
30663W        W89924  35.436  18.628   1.919
30664W        W89925  32.037   9.232   0.393
30665W        W89926   5.758  10.852  12.410
30666W        W89927  12.777   8.366   0.470
30667W        W89928  10.237  37.477  11.502
30668W        W89929  34.863   3.278  12.929
30669W        W89930  44.443  28.007   3.769
30670W        W89931  13.137  16.666   2.685
30671W        W89932  13.685  32.953   2.875
30672W        W89933  26.967   1.401   2.233
30673W        W89934  38.891  22.130  11.026
30674W        W89935   8.889  40.512   3.737
30675W        W89936  24.480  14.125  11.454
30676W        W89937  33.990   3.255   3.249
30677W        W89938   5.432   6.300  14.328
30678W        W89939  25.600  40.420   0.931
30679W        W89940  41.885  25.111   3.728
30680W        W89941  34.542  44.999   2.213
30681W        W89942  44.832  14.219  13.054
30682W        W89943  32.554   2.362  12.042
30683W        W89944   5.884  33.063   2.310
30684W        W89945   8.669  10.333   2.847
30685W        W89946  31.122  29.012   4.660
30686W        W89947  20.549  20.718   0.334
30687W        W89948   0.905  23.691  14.378
30688W        W89949  40.354   1.942   1.428
30689W        W89950  11.241  30.466   0.334
30690W        W89951  42.948  37.077  11.000
30691W        W89952  27.597  32.891   0.797
30692W        W89953  39.472  40.800  13.064
30693W        W89954  39.329   5.733  14.355
30694W        W89955  40.391  13.242   4.120
30695W        W89956  40.432  36.050  14.782
30696W        W89957  30.991  18.587  13.983
30697W        W89958  10.197  27.620  14.933
30698W        W89959  31.647  13.612  12.880
30699W        W89960  11.711   0.820  10.631
30700W        W89961  15.669   0.373  14.859
30701W        W89962  15.122  39.969   4.337
30702W        W89963  36.044  30.127  10.432
30703W        W89964  11.772  19.099  14.826
30704W        W89965  14.663   4.899   4.138
30705W        W89966  11.803  33.545  12.881
30706W        W89967  43.773  32.466  11.883
30707W        W89968  22.613  12.333   1.869
30708W        W89969  31.583  19.105   4.200
30709W        W89970   7.912  30.547   4.739
30710W        W89971   9.821  37.540   0.444
30711W        W89972  12.321  18.200  10.582
30712W        W89973  32.552  28.655  11.910
30713W        W89974   8.895  36.477   0.429
30714W        W89975  12.812   1.467  13.979
30715W        W89976  27.647   5.313  13.795
30716W        W89977  44.759  34.481   1.343
30717W        W89978   8.791  40.872  11.928
30718W        W89979  39.448  13.234   1.885
30719W        W89980   7.732  21.119   4.773
30720W        W89981   0.860  44.782  14.934
30721W        W89982   8.385  44.754   0.272
30722W        W89983  18.164  18.548  12.953
30723W        W89984  25.004  39.356   3.690
30724W        W89985  21.090  39.895   4.601
30725W        W89986  14.142  10.649   4.238
30726W        W89987  34.091   4.839   3.286
30727W        W89988   3.445   9.242   4.605
30728W        W89989  15.249  33.590  14.801
30729W        W89990  11.217  15.272   2.706
30730W        W89991   5.400  38.822  10.918
30731W        W89992  35.967   2.952   2.846
30732W        W89993  23.139  11.628   0.348
30733W        W89994   6.249  11.321   4.652
30734W        W89995  29.143  41.937  12.512
30735W        W89996   7.370   3.849  11.022
30736W        W89997  32.056   2.426  13.450
30737W        W89998   1.761  32.551  14.764
30738W        W89999  17.097  29.561  12.991
30739W        W90000  24.657  35.436   2.770
30740W        W90001  37.951   3.215   2.771
30741W        W90002  41.421  15.159  13.800
30742W        W90003  41.043  35.379   0.438
30743W        W90004  18.716  37.480   4.301
30744W        W90005  43.982  11.274   0.420
30745W        W90006  36.884  29.497   3.689
30746W        W90007   1.791  11.202   1.257
30747W        W90008  35.962  31.437   3.655
30748W        W90009  30.962  41.534  14.796
30749W        W90010  33.931  20.248  14.474
30750W        W90011  19.761  37.021   3.746
30751W        W90012   1.348   9.673   4.306
30752W        W90013  31.470  24.123  13.894
30753W        W90014  27.162  39.857  13.852
30754W        W90015  19.534  19.223  13.525
30755W        W90016  35.588  42.427   9.987
30756W        W90017  32.908  13.216   4.218
30757W        W90018  44.870   4.744  11.995
30758W        W90019   2.260  25.633  12.355
30759W        W90020  10.876  34.005  11.496
30760W        W90021  17.247  25.153   0.790
30761W        W90022  27.692  10.337  14.437
30762W        W90023   2.942  18.148   4.352
30763W        W90024  17.196   3.296   4.205
30764W        W90025   5.784  24.231   1.746
30765W        W90026   8.309  22.575  12.451
30766W        W90027  27.586  42.853  11.540
30767W        W90028  14.743  40.515  11.026
30768W        W90029  34.376  17.196  13.807
30769W        W90030  25.204   1.959  14.338
30770W        W90031  44.835   1.753  12.532
30771W        W90032  32.484  43.405   1.290
30772W        W90033  26.693  32.136   0.452
30773W        W90034  38.988  19.627   2.891
30774W        W90035   0.871  12.191   2.229
30775W        W90036  12.168  42.302   4.152
30776W        W90037  30.123  38.934   2.224
30777W        W90038  20.274  17.563   4.194
30778W        W90039  38.367  13.621  11.487
30779W        W90040  22.714  18.256   4.214
30780W        W90041   5.879   8.689  13.344
30781W        W90042  37.577  40.997  13.334
30782W        W90043  22.035  40.011   1.361
30783W        W90044   9.243  20.095   3.806
30784W        W90045  34.089  15.588   5.220
30785W        W90046  35.364  32.091  14.497
30786W        W90047  21.631  12.272   1.869
30787W        W90048  44.827   2.841   4.696
30788W        W90049  16.206  10.672  10.419
30789W        W90050  42.333  38.535   4.123
30790W        W90051  42.515  17.712  14.414
30791W        W90052  29.586  31.486   1.865
30792W        W90053  26.678   5.365   3.732
30793W        W90054  25.113   3.365   4.788
30794W        W90055  15.163  43.775  11.086
30795W        W90056   9.166  41.329   3.275
30796W        W90057  24.064  17.089  12.339
30797W        W90058  16.107  32.096   0.870
30798W        W90059  11.308  43.470   0.942
30799W        W90060  10.742  34.491  11.426
30800W        W90061  20.624   1.346  13.000
30801W        W90062  26.156  41.431   4.600
30802W        W90063  12.755  32.939  14.879
30803W        W90064  17.280  42.808  11.537
30804W        W90065   6.346  40.874   1.770
30805W        W90066  32.903   0.859   2.371
30806W        W90067  11.323  21.060   0.895
30807W        W90068   1.833   3.408  13.372
30808W        W90069  25.107  30.569   1.705
30809W        W90070  41.022  19.199   2.352
30810W        W90071  34.869  30.551  10.470
30811W        W90072  40.541  31.972   1.409
30812W        W90073   2.859  27.152   4.287
30813W        W90074  37.959  18.763  12.527
30814W        W90075   1.297  26.185  13.031
30815W        W90076  23.568   5.787   1.780
30816W        W90077  12.235  32.508  12.052
30817W        W90078  36.843  42.430   3.834
30818W        W90079  31.994   4.757   2.719
30819W        W90080   9.756   0.283  12.960
30820W        W90081  25.696  38.049  14.394
30821W        W90082  37.440  33.917   5.639
30822W        W90083  24.568  10.819  12.983
30823W        W90084   3.352  18.150  10.996
30824W        W90085  35.413  12.246  14.780
30825W        W90086  23.619  42.887  10.632
30826W        W90087  43.812  40.820  13.315
30827W        W90088  19.182  17.073  13.900
30828W        W90089  18.269   8.706   0.781
30829W        W90090   7.879  31.636  12.369
30830W        W90091  12.717  38.519   0.243
30831W        W90092  39.974  27.126  10.597
30832W        W90093  23.659  25.514  13.456
30833W        W90094  36.011  35.436  14.471
30834W        W90095  35.904  17.794   1.890
30835W        W90096  12.247  29.094  14.913
30836W        W90097   2.403  29.663   3.738
30837W        W90098  36.946   4.861  10.628
30838W        W90099  36.027  43.339  14.512
30839W        W90100  13.306  22.528  14.496
30840W        W90101  12.180  25.128  12.010
30841W        W90102  13.134   1.962   5.276
30842W        W90103   4.291  24.002  13.868
30843W        W90104  39.493  39.537  14.946
30844W        W90105  40.484  35.602   3.833
30845W        W90106   0.793   1.804   2.186
30846W        W90107  19.580  40.377   2.293
30847W        W90108  18.092  17.608   0.448
30848W        W90109  15.161  13.612  12.496
30849W        W90110  44.463  36.588   0.448
30850W        W90111  10.745   6.257   1.754
30851W        W90112  31.637  10.870   4.242
30852W        W90113  41.537   3.430   0.269
30853W        W90114  17.563  12.650  11.905
30854W        W90115  14.666  28.167   1.749
30855W        W90116   7.298  30.086  12.902
30856W        W90117  40.043   6.327  12.551
30857W        W90118  23.673   3.934   2.666
30858W        W90119  20.089   8.691  10.949
30859W        W90120  19.696  15.092   4.178
30860W        W90121   7.200  16.239  14.008
30861W        W90122  16.078  11.358   3.385
30862W        W90123  22.743  36.359  11.409
30863W        W90124  27.619  11.273   0.732
30864W        W90125  11.129  25.157   1.318
30865W        W90126  41.461  27.057   4.781
30866W        W90127  32.624  31.147  11.595
30867W        W90128  34.881  36.557   5.176
30868W        W90129  37.953  10.704  14.310
30869W        W90130   5.295  38.980   3.767
30870W        W90131  25.993  25.967  14.954
30871W        W90132   7.174  35.909  14.309
30872W        W90133  31.461  24.584   2.256
30873W        W90134  19.072  37.438   1.336
30874W        W90135  27.990   4.329  12.928
30875W        W90136  33.065  31.424   0.862
30876W        W90137  13.753   6.783  10.508
30877W        W90138   3.921   5.769  14.927
30878W        W90139   7.679  40.410   2.903
30879W        W90140   4.899  28.006  14.919
30880W        W90141  25.973  22.733   3.255
30881W        W90142  18.770   2.286  11.424
30882W        W90143  33.929  22.560  10.562
30883W        W90144  30.961  34.586   3.303
30884W        W90145   0.901  23.100  14.322
30885W        W90146   3.729   4.433   2.814
30886W        W90147  31.433   4.721  11.870
30887W        W90148   1.457  25.587  14.434
30888W        W90149  36.946  41.345   0.273
30889W        W90150  37.383  30.625   3.866
30890W        W90151  24.536   2.332  13.833
30891W        W90152  33.412   6.747  10.633
30892W        W90153  12.322  30.441   1.280
30893W        W90154  30.581  40.372   2.882
30894W        W90155  28.672   8.307   4.167
30895W        W90156  11.829  15.601  14.927
30896W        W90157  24.147   7.275  10.545
30897W        W90158  41.339   1.318   1.710
30898W        W90159  23.676  33.476   4.316
30899W        W90160  23.649  19.700  11.975
30900W        W90161  42.830  42.525   2.731
30901W        W90162  24.489  10.212   4.780
30902W        W90163   6.680  23.614   1.770
30903W        W90164  17.223  19.716   1.733
30904W        W90165  14.823  40.031  14.828
30905W        W90166   8.180   5.196  13.890
30906W        W90167  21.715  32.554  12.524
30907W        W90168  35.953  22.049   1.843
30908W        W90169   7.828  20.063   4.274
30909W        W90170   2.378   0.815  12.465
30910W        W90171  42.464  40.029  13.984
30911W        W90172  33.417  18.081   4.136
30912W        W90173  16.577  32.099  13.912
30913W        W90174   6.887  31.643   4.180
30914W        W90175  38.515  35.070  14.888
30915W        W90176   0.308   8.657  14.374
30916W        W90177  37.460   9.190   0.355
30917W        W90178  22.738  39.350  12.891
30918W        W90179  44.984  37.083   4.351
30919W        W90180   9.728  31.904   4.697
30920W        W90181  42.498  36.470  11.389
30921W        W90182  29.608  22.665   3.764
30922W        W90183  43.312   7.295   3.749
30923W        W90184  27.591  33.486  11.936
30924W        W90185  44.456  20.122   4.150
30925W        W90186  42.785  29.113   3.772
30926W        W90187  41.405  20.060   2.213
30927W        W90188  24.223  37.572   1.303
30928W        W90189  39.470  17.644  11.418
30929W        W90190  39.885   0.849   3.690
30930W        W90191  28.138  18.673   4.193
30931W        W90192  31.939   3.232  12.507
30932W        W90193  38.863  20.181  10.998
30933W        W90194  18.684  11.314  12.479
30934W        W90195  13.268   3.390   1.710
30935W        W90196  23.088  37.488  13.877
30936W        W90197  10.680  42.431   0.888
30937W        W90198  24.545  34.456   0.747
30938W        W90199  23.588  22.674   1.248
30939W        W90200  21.541  24.652  10.964
30940W        W90201  11.697   9.392   3.374
30941W        W90202  23.169  14.197  10.619
30942W        W90203  14.269  39.852  11.975
30943W        W90204  11.131  24.986  10.896
30944W        W90205  11.835  13.192  13.935
30945W        W90206  42.947   5.910   2.689
30946W        W90207  44.813   2.372   0.254
30947W        W90208   4.741  38.455   0.838
30948W        W90209  10.353  39.857  12.440
30949W        W90210  13.201  33.902   3.305
30950W        W90211  26.168   8.728  14.002
30951W        W90212  28.118   2.924  10.544
30952W        W90213   0.447  33.054   1.288
30953W        W90214  35.095  34.487   5.608
30954W        W90215  33.894  10.668  10.442
30955W        W90216  33.394  30.617  10.960
30956W        W90217   7.408  38.472  14.990
30957W        W90218  36.393  34.403   9.602
30958W        W90219  29.058  26.489  13.457
30959W        W90220   9.222  34.985   2.381
30960W        W90221  40.471  10.660   4.139
30961W        W90222  32.443   1.313  14.361
30962W        W90223  21.022  42.351   3.761
30963W        W90224  40.882  27.598  14.514
30964W        W90225  36.592   6.888  13.410
30965W        W90226  34.485  38.475   3.300
30966W        W90227  41.964  17.705  11.423
30967W        W90228  18.743  14.813   1.802
30968W        W90229  31.488  38.440  12.831
30969W        W90230  21.736  13.311  13.374
30970W        W90231  12.307  15.583  10.576
30971W        W90232   7.742  31.127   2.678
30972W        W90233  20.113  37.468  13.455
30973W        W90234  10.778  30.547  12.526
30974W        W90235  14.630  44.768   2.370
30975W        W90236  20.048  29.987   0.923
30976W        W90237  16.258  42.899  11.512
30977W        W90238  39.848  15.621  13.464
30978W        W90239  44.451  42.346  12.988
30979W        W90240  40.984  36.489  11.585
30980W        W90241  16.781   0.340   1.271
30981W        W90242  19.540  17.148  13.358
30982W        W90243  15.767  21.258  10.638
30983W        W90244  38.073  35.430  14.969
30984W        W90245   5.767   9.188   0.794
30985W        W90246  15.213  24.682  10.896
30986W        W90247  25.204   7.719  11.610
30987W        W90248  26.486   1.363   1.916
30988W        W90249  25.056  18.739  13.889
30989W        W90250  30.550  37.340   4.120
30990W        W90251  21.130  39.420   0.297
30991W        W90252  14.329  41.294   3.181
30992W        W90253  22.601  20.708   4.256
30993W        W90254  36.860  39.966   1.403
30994W        W90255  36.563  23.181  12.092
30995W        W90256   8.827  13.698   1.799
30996W        W90257  29.073  39.815  11.050
30997W        W90258  24.224  12.194  13.859
30998W        W90259  37.373  37.900  14.942
30999W        W90260  20.527  32.890   2.894
31000W        W90261  40.425  32.895   0.289
31001W        W90262   6.182   8.320   0.886
31002W        W90263  11.821  32.925   1.305
31003W        W90264  35.532  42.525  14.954
31004W        W90265  32.097  18.730   0.268
31005W        W90266   8.832  11.212  10.537
31006W        W90267  38.470  37.041  10.453
31007W        W90268  13.686  29.938   4.731
31008W        W90269  24.490  38.910   0.816
31009W        W90270  15.758  27.034   1.799
31010W        W90271  21.577   4.925   2.189
31011W        W90272  44.803   0.922  13.903
31012W        W90273  16.300  41.459  10.455
31013W        W90274  34.485   3.330  13.880
31014W        W90275   1.903  17.596  13.006
31015W        W90276  38.925   8.837  13.482
31016W        W90277  39.972  29.090   0.427
31017W        W90278  39.857  37.941  10.512
31018W        W90279  41.019  26.491  11.992
31019W        W90280  19.222  40.378  13.055
31020W        W90281  27.532   9.347   4.719
31021W        W90282  43.783  22.693   3.234
31022W        W90283   2.447  12.152  10.636
31023W        W90284  24.697  34.495  14.300
31024W        W90285  31.963  19.170  10.920
31025W        W90286  19.061   0.256   3.261
31026W        W90287  23.084  14.219   2.673
31027W        W90288  21.647  14.815  10.962
31028W        W90289  36.061   8.726   2.231
31029W        W90290  36.942  28.526   2.790
31030W        W90291  40.411  20.237   1.247
31031W        W90292  37.338  35.008   0.795
31032W        W90293  16.586  14.200   4.141
31033W        W90294  30.014  38.905  14.434
31034W        W90295  43.007  24.158   5.124
31035W        W90296  40.491  15.146  13.933
31036W        W90297   9.710  42.018  11.455
31037W        W90298  31.636  39.034  14.414
31038W        W90299  25.480  25.203   0.372
31039W        W90300   5.696  38.401   2.778
31040W        W90301  23.022  22.536   0.821
31041W        W90302  28.629  41.980  13.464
31042W        W90303  27.620  23.561   0.836
31043W        W90304  22.608  22.516   4.200
31044W        W90305  40.514  12.726  14.964
31045W        W90306   6.221  32.116   4.675
31046W        W90307  30.620  40.801  12.353
31047W        W90308  40.399   6.407   3.814
31048W        W90309   0.301  19.274   3.146
31049W        W90310  25.203  28.507   1.904
31050W        W90311   2.961  30.974  10.938
31051W        W90312   9.834  37.056  12.417
31052W        W90313  44.976  36.558   4.814
31053W        W90314   2.846  17.177   3.828
31054W        W90315  40.966  28.948  12.029
31055W        W90316  41.320  42.890  14.393
31056W        W90317   9.340  33.052  11.535
31057W        W90318   2.243   3.743  14.481
31058W        W90319   6.906  11.221  13.372
31059W        W90320  40.927  17.715   3.705
31060W        W90321  40.344  16.583   4.839
31061W        W90322  31.481  25.069  10.584
31062W        W90323  11.183  25.633  13.913
31063W        W90324  41.919  23.214   0.271
31064W        W90325  25.997  44.002  14.354
31065W        W90326  31.004  32.075  12.995
31066W        W90327  34.477   3.337   1.381
31067W        W90328  25.172   2.882   3.668
31068W        W90329  21.561  15.587  12.420
31069W        W90330  16.085  31.095  13.020
31070W        W90331  23.063  31.506   4.265
31071W        W90332  16.639  19.045   1.872
31072W        W90333  18.264  17.602   0.741
31073W        W90334  39.491   4.303   2.325
31074W        W90335  17.800  40.462  14.783
31075W        W90336   3.360   2.255   2.775
31076W        W90337   6.796  38.419  12.392
31077W        W90338  22.531  28.095  12.862
31078W        W90339  38.017  12.206  14.873
31079W        W90340   3.775  43.425  13.433
31080W        W90341   6.728  13.334   3.637
31081W        W90342  43.349  36.401  14.332
31082W        W90343  14.203   2.943   1.837
31083W        W90344  16.679  14.626   3.752
31084W        W90345  17.250  35.365  11.998
31085W        W90346   7.800  37.839   2.699
31086W        W90347  14.638  15.817  11.454
31087W        W90348  40.881   9.865  11.864
31088W        W90349   8.685  22.078  10.016
31089W        W90350   0.367  35.857   3.833
31090W        W90351  29.443   0.901  14.787
31091W        W90352  41.927  37.500  14.275
31092W        W90353  20.051  15.597   2.224
31093W        W90354   7.391  42.449  11.496
31094W        W90355   3.315  28.572  13.392
31095W        W90356  29.025  13.615   4.643
31096W        W90357  19.188   3.865   2.748
31097W        W90358  43.399  15.666   3.375
31098W        W90359  44.944  22.067  13.830
31099W        W90360  27.594  19.096  14.840
31100W        W90361  27.940  39.969   3.803
31101W        W90362  12.664  12.175   2.300
31102W        W90363  23.598   9.678   2.221
31103W        W90364  29.128  40.863   1.711
31104W        W90365  30.483  26.628   2.701
31105W        W90366  42.310   1.862  12.860
31106W        W90367  35.062   7.675   4.219
31107W        W90368   6.828   3.266  13.944
31108W        W90369  36.915   4.341   4.787
31109W        W90370  16.800  24.141   3.228
31110W        W90371  25.554  19.774  12.066
31111W        W90372  43.845  41.319   2.741
31112W        W90373   6.187  27.173  14.452
31113W        W90374   0.942  25.054  13.801
31114W        W90375   9.839  39.909   2.682
31115W        W90376   9.664  33.964  12.894
31116W        W90377   9.846  20.265   3.713
31117W        W90378   5.206  25.660   2.344
31118W        W90379   9.741  27.514  12.010
31119W        W90380  39.835  18.140  11.402
31120W        W90381   1.295  29.103   1.819
31121W        W90382  26.478  31.906   1.707
31122W        W90383  23.571  21.520  11.407
31123W        W90384   9.329  38.341   0.765
31124W        W90385  40.426  38.336   0.918
31125W        W90386  34.898  33.494  11.402
31126W        W90387  42.810  17.771  11.071
31127W        W90388  11.338  23.506  13.991
31128W        W90389   5.691   9.872  13.465
31129W        W90390  12.717  27.590  12.343
31130W        W90391  28.469  11.654   3.846
31131W        W90392  17.751   2.794   4.347
31132W        W90393  23.632  35.442   1.429
31133W        W90394   9.166  36.904   4.805
31134W        W90395  27.049  38.860  13.882
31135W        W90396  40.454  43.440   0.467
31136W        W90397  28.592  32.464   2.848
31137W        W90398  18.631  10.862   3.235
31138W        W90399  24.700  16.196  13.437
31139W        W90400  39.356  24.096  11.118
31140W        W90401   8.161  13.753  11.993
31141W        W90402  14.772  32.046  10.117
31142W        W90403  23.179  22.156   4.755
31143W        W90404  29.431   4.849   2.890
31144W        W90405  43.485  32.625   1.372
31145W        W90406  30.931  28.666  11.543
31146W        W90407   3.916  26.071  12.414
31147W        W90408   5.730  12.291   4.607
31148W        W90409  10.322   2.387   2.854
31149W        W90410  44.781   1.864   4.817
31150W        W90411  33.437  17.576   1.274
31151W        W90412  21.196  25.180  12.093
31152W        W90413  29.497  16.247  11.908
31153W        W90414  43.509  24.168   0.870
31154W        W90415   5.712  17.096   3.715
31155W        W90416   6.685  12.708   4.702
31156W        W90417  12.295  36.953   2.742
31157W        W90418   4.292  31.077  13.428
31158W        W90419  25.996  27.096   4.161
31159W        W90420  19.665  36.425  14.401
31160W        W90421  12.318  42.877  11.453
31161W        W90422  30.626  30.074  10.906
31162W        W90423   7.327   8.219  14.792
31163W        W90424  42.355  33.414  12.437
31164W        W90425  16.294   1.827   2.836
31165W        W90426  36.360  18.756   2.668
31166W        W90427  14.809  38.873  10.526
31167W        W90428  20.738  44.384  13.327
31168W        W90429   4.706  16.080  13.867
31169W        W90430  25.123  17.229   4.170
31170W        W90431   0.339  34.462   1.874
31171W        W90432  21.533  12.139   0.911
31172W        W90433  19.677   8.785  11.586
31173W        W90434  29.067  40.018  11.418
31174W        W90435  14.791  38.983   1.696
31175W        W90436   6.699  12.203   5.292
31176W        W90437  10.162   2.880   1.213
31177W        W90438  10.349  37.361   1.739
31178W        W90439  38.929  10.842   0.839
31179W        W90440  12.824   5.285   1.269
31180W        W90441  41.384   6.720   4.318
31181W        W90442  33.535  32.407  11.485
31182W        W90443  28.074  15.273  10.090
31183W        W90444  24.008   1.956   2.663
31184W        W90445  12.288   1.779   2.230
31185W        W90446  41.422  37.473  11.530
31186W        W90447  33.482  31.476  13.918
31187W        W90448  26.163  34.387  10.914
31188W        W90449  15.595   5.758   0.281
31189W        W90450  43.509  31.040   4.128
31190W        W90451  31.936   2.905   2.295
31191W        W90452  29.048   4.826  14.292
31192W        W90453  39.467  28.527   3.716
31193W        W90454   6.866  12.137  13.530
31194W        W90455  43.947  36.467  14.315
31195W        W90456  33.117  11.208  12.999
31196W        W90457  30.985  21.538   2.301
31197W        W90458  19.590  12.732  11.016
31198W        W90459  13.836  16.203  14.031
31199W        W90460   2.732  29.613  11.408
31200W        W90461  22.232  28.158  13.398
31201W        W90462  23.512   5.435  12.346
31202W        W90463   5.781  43.912  12.064
31203W        W90464  26.023  15.165  13.502
31204W        W90465  31.151  34.472   0.401
31205W        W90466  24.113  36.591  14.960
31206W        W90467  37.026   3.778  14.931
31207W        W90468  41.884  25.627   3.198
31208W        W90469  23.090  39.474  12.839
31209W        W90470  13.294   4.728  13.375
31210W        W90471  26.158  16.239   2.674
31211W        W90472  30.981  14.150   4.160
31212W        W90473  29.427  35.047   0.800
31213W        W90474   3.434  13.122  10.938
31214W        W90475  32.974  43.804  11.977
31215W        W90476  11.748  25.573   2.327
31216W        W90477  44.342  38.834   1.450
31217W        W90478  27.496  18.269  12.406
31218W        W90479  30.511  40.387   2.380
31219W        W90480  30.151  13.792   4.230
31220W        W90481  10.863  38.023  11.543
31221W        W90482   9.665  15.702  12.548
31222W        W90483  19.647  42.818  11.407
31223W        W90484  21.122  44.933  11.042
31224W        W90485  35.525  16.784   1.732
31225W        W90486  38.408  38.425   5.124
31226W        W90487   7.187  27.622  14.928
31227W        W90488  27.188  10.757  14.849
31228W        W90489  38.477  26.962  14.486
31229W        W90490  39.837  33.587  11.989
31230W        W90491  12.191  39.983   0.321
31231W        W90492  16.692  19.624   3.331
31232W        W90493  19.652  17.642  10.483
31233W        W90494  38.473  43.455  12.988
31234W        W90495   6.362  23.676  13.526
31235W        W90496  10.373   0.485   3.640
31236W        W90497  25.082  19.152  13.482
31237W        W90498   4.414  39.479   3.733
31238W        W90499   1.867  36.473   0.777
31239W        W90500  13.158  40.880   4.613
31240W        W90501   5.324   5.833  11.613
31241W        W90502  38.047  22.028  10.622
31242W        W90503   2.428  23.644   0.291
31243W        W90504  33.396  36.993  14.490
31244W        W90505   1.836   2.754   0.961
31245W        W90506  28.492  23.059   1.841
31246W        W90507   1.308   3.792  11.025
31247W        W90508  37.006   4.774  12.905
31248W        W90509  37.916  43.327  13.513
31249W        W90510  37.061  24.170   4.327
31250W        W90511  26.536  32.950  11.935
31251W        W90512   0.952  20.127   1.362
31252W        W90513  25.566   3.454  13.464
31253W        W90514   7.724  30.999  10.516
31254W        W90515  21.061  28.466  11.922
31255W        W90516  27.032  12.724  12.093
31256W        W90517  40.841  17.243   3.642
31257W        W90518  44.271  24.596  14.007
31258W        W90519   1.280  26.465   4.203
31259W        W90520  15.246  12.691   4.814
31260W        W90521  33.916   0.796   3.212
31261W        W90522   6.267  41.958   4.823
31262W        W90523  10.336  21.034  12.393
31263W        W90524  44.988  32.511  13.996
31264W        W90525   3.731  32.490   0.856
31265W        W90526  20.576  21.668  14.783
31266W        W90527   0.903  17.787  14.336
31267W        W90528  28.181   9.826  12.922
31268W        W90529  30.454  36.939   1.376
31269W        W90530   0.434  31.470  13.967
31270W        W90531  27.037  20.173  12.485
31271W        W90532  15.702  38.900  14.401
31272W        W90533   8.855  44.978  11.511
31273W        W90534  16.212  12.152   2.191
31274W        W90535   9.271  21.565   0.347
31275W        W90536   9.865  12.614  13.889
31276W        W90537  19.650  38.875  13.829
31277W        W90538  16.800  16.118   1.772
31278W        W90539  21.533  29.977  13.331
31279W        W90540  36.858  14.734   3.200
31280W        W90541  30.488   7.304  14.284
31281W        W90542   1.837  40.007  14.285
31282W        W90543  31.120  35.369  11.983
31283W        W90544  38.567  30.589   0.366
31284W        W90545  33.121  20.240   4.765
31285W        W90546  36.352   1.427   1.281
31286W        W90547  13.246   4.414  12.452
31287W        W90548  29.122  19.545   0.952
31288W        W90549  29.989  31.550  10.638
31289W        W90550  37.017   8.699  12.401
31290W        W90551  31.489  13.680   2.281
31291W        W90552  34.557  22.683   0.738
31292W        W90553  38.822  18.718  11.069
31293W        W90554  12.128  21.143   3.278
31294W        W90555   0.296  13.262  13.804
31295W        W90556  25.078  40.023  13.494
31296W        W90557   7.897   3.422  13.412
31297W        W90558  23.123  34.561   2.889
31298W        W90559  34.598  25.638   4.167
31299W        W90560  19.660  37.424  13.035
31300W        W90561  13.818  43.840   0.264
31301W        W90562  30.983  35.416   0.963
31302W        W90563  12.332  34.116  13.007
31303W        W90564  13.232  21.636  10.508
31304W        W90565  28.484  39.861  12.034
31305W        W90566   9.668   9.257  11.891
31306W        W90567  43.982  21.026   0.749
31307W        W90568   0.488  42.975   4.203
31308W        W90569  14.331  16.812   1.855
31309W        W90570  37.934  33.612  14.913
31310W        W90571  43.310  39.456  13.894
31311W        W90572  14.095  16.592  11.912
31312W        W90573  29.107  41.967   3.229
31313W        W90574  17.706  37.070  13.860
31314W        W90575  23.585   0.974   0.769
31315W        W90576  17.165   6.271   3.667
31316W        W90577  16.272  17.080   3.764
31317W        W90578  33.092  34.037   5.749
31318W        W90579   0.344  35.865   2.839
31319W        W90580   0.426   9.807  13.956
31320W        W90581   9.820  34.897   0.418
31321W        W90582  23.069  24.134   5.601
31322W        W90583  42.414  24.019  14.454
31323W        W90584  39.384  23.575  10.464
31324W        W90585  18.172   0.402   3.147
31325W        W90586  18.128  27.007  14.351
31326W        W90587  33.122   8.730   1.765
31327W        W90588  14.172  28.609   3.189
31328W        W90589  38.406  14.696   0.830
31329W        W90590   8.734  35.538  10.929
31330W        W90591   2.364  43.497   2.688
31331W        W90592  35.977  33.024  14.947
31332W        W90593  29.087   4.812  14.966
31333W        W90594  20.548   6.737   1.225
31334W        W90595   3.899  40.951   0.471
31335W        W90596  31.954  27.452   2.808
31336W        W90597  25.019  24.176  14.865
31337W        W90598  44.440  15.763  14.310
31338W        W90599  41.913  38.352   1.705
31339W        W90600  22.207   6.211  14.390
31340W        W90601  11.832  42.864   0.286
31341W        W90602  14.298  31.513   2.385
31342W        W90603  10.814   3.938   5.726
31343W        W90604  42.511  27.596   1.832
31344W        W90605  17.649  30.584   3.671
31345W        W90606   2.812  27.136  13.366
31346W        W90607   1.798  11.246  12.340
31347W        W90608  32.456   7.265   2.723
31348W        W90609  26.126  21.193   2.363
31349W        W90610   8.824  24.517   3.339
31350W        W90611  32.452  37.041   1.358
31351W        W90612   8.807  18.747  14.403
31352W        W90613  19.078  31.128  10.462
31353W        W90614  17.630   1.268  11.404
31354W        W90615  43.405  20.612   2.240
31355W        W90616   3.716  34.474   5.090
31356W        W90617   2.739  29.960   0.344
31357W        W90618   8.400  14.719   0.455
31358W        W90619  44.847  39.867   2.712
31359W        W90620   5.439  22.156  10.610
31360W        W90621  26.586  21.622  10.551
31361W        W90622  21.549  28.561  11.542
31362W        W90623  17.687  40.482  13.900
31363W        W90624  23.221  22.107  12.089
31364W        W90625  44.891  18.207   4.795
31365W        W90626  30.967  22.519   2.810
31366W        W90627  26.559   0.383  11.605
31367W        W90628  23.696  30.537   2.676
31368W        W90629  43.885   5.739   4.142
31369W        W90630  36.439   2.313  10.416
31370W        W90631  24.054   2.380   1.923
31371W        W90632  32.070  26.531  11.382
31372W        W90633   8.376  26.553  13.025
31373W        W90634  39.971  21.187  13.365
31374W        W90635  35.366  17.289   0.410
31375W        W90636  44.409  26.619   3.695
31376W        W90637  16.607  39.061  12.388
31377W        W90638   4.790   6.837  10.917
31378W        W90639  20.539  14.289  14.957
31379W        W90640  43.015  22.707  11.045
31380W        W90641  11.223  22.243   3.251
31381W        W90642  21.647   9.770   4.268
31382W        W90643  16.223  18.771  11.416
31383W        W90644  30.446  26.006   3.163
31384W        W90645  40.363  41.819   4.745
31385W        W90646  28.647  30.491   1.342
31386W        W90647   4.825  27.594  11.546
31387W        W90648  12.178   3.312   1.400
31388W        W90649  42.804  40.871  14.976
31389W        W90650  16.265  25.617   0.288
31390W        W90651  18.703  39.988   1.694
31391W        W90652   3.238  25.556   1.869
31392W        W90653  11.266  19.216  11.469
31393W        W90654  35.999  27.984   3.281
31394W        W90655  19.680  38.829   1.861
31395W        W90656  20.586  37.023  11.881
31396W        W90657  20.193  15.261  13.385
31397W        W90658  36.037   3.948  14.452
31398W        W90659  27.119  36.974  10.979
31399W        W90660  41.423   9.279  14.452
31400W        W90661  22.126  44.759  12.364
31401W        W90662  31.631  33.438  14.500
31402W        W90663  22.626  12.186   4.352
31403W        W90664  25.646  24.615  13.407
31404W        W90665  11.853  19.235   1.780
31405W        W90666  42.473   3.751   1.227
31406W        W90667   3.796  18.284  11.528
31407W        W90668  40.818   6.868   1.738
31408W        W90669  15.308  20.241   1.312
31409W        W90670   7.202   6.223  11.927
31410W        W90671  41.994  41.297  10.914
31411W        W90672  27.059   5.861  12.036
31412W        W90673  26.576   3.835   3.245
31413W        W90674  13.283   9.767  12.011
31414W        W90675  37.558  43.945  14.275
31415W        W90676  14.160  23.188   3.384
31416W        W90677   5.732   7.756   1.233
31417W        W90678   8.824  33.884   0.931
31418W        W90679  17.654  35.968  12.881
31419W        W90680  10.778  41.481  12.872
31420W        W90681   9.343  31.087   0.273
31421W        W90682  24.190   6.289  11.372
31422W        W90683  41.926  25.469   4.818
31423W        W90684   7.780  20.147  14.374
31424W        W90685  25.488   3.753   3.194
31425W        W90686  37.035  15.241  11.583
31426W        W90687  27.450   5.333   4.351
31427W        W90688  19.261  37.380   4.121
31428W        W90689  42.968  25.078   3.866
31429W        W90690  11.289  31.944  13.916
31430W        W90691  34.999  28.062  14.304
31431W        W90692   2.243  11.194   1.874
31432W        W90693  37.919  31.904  10.029
31433W        W90694   8.257  11.797   5.131
31434W        W90695   2.762  25.082   2.400
31435W        W90696  18.209  18.266  13.792
31436W        W90697   7.363  38.061   0.298
31437W        W90698  30.975   0.753   0.958
31438W        W90699  19.255  35.916   1.437
31439W        W90700  38.474  15.182   4.753
31440W        W90701  23.204  41.901  13.854
31441W        W90702  13.754  25.072   1.716
31442W        W90703  26.157  39.872   1.813
31443W        W90704  25.177  40.891  12.876
31444W        W90705  38.552  26.983  10.456
31445W        W90706   8.289  18.268   0.793
31446W        W90707  14.289  21.145   3.223
31447W        W90708  29.511  26.613   5.172
31448W        W90709  14.173  25.176   3.845
31449W        W90710  14.714  42.861   1.387
31450W        W90711   9.174  37.338  10.069
31451W        W90712  14.154  39.968  14.027
31452W        W90713  35.940   6.268   2.196
31453W        W90714  27.032  18.595  13.369
31454W        W90715  29.507   5.214  11.071
31455W        W90716   7.311  21.059  12.356
31456W        W90717   3.236  16.150  12.056
31457W        W90718  30.951   7.413  14.320
31458W        W90719  44.500  20.034  13.973
31459W        W90720  23.668  32.451   4.322
31460W        W90721  17.130   2.861   3.276
31461W        W90722  26.480  16.629   1.230
31462W        W90723  43.981  13.837  14.305
31463W        W90724  19.039  14.144  14.333
31464W        W90725  34.029  36.505   1.818
31465W        W90726  13.153  40.872  11.581
31466W        W90727  40.363   3.286   1.853
31467W        W90728   3.447  27.448   1.809
31468W        W90729  33.013  35.392   0.282
31469W        W90730   7.777   7.820  11.955
31470W        W90731  12.655   6.238  13.814
31471W        W90732  30.965  35.852   5.322
31472W        W90733  43.372   3.812   3.839
31473W        W90734  42.853  42.433   1.361
31474W        W90735  20.244  21.667   1.846
31475W        W90736  38.841   6.766   3.360
31476W        W90737   8.362  15.672   2.393
31477W        W90738  11.803   1.370  10.567
31478W        W90739  37.870   9.692  14.365
31479W        W90740  34.533  43.440  13.380
31480W        W90741  30.913  26.504   4.680
31481W        W90742  18.679  17.167  14.974
31482W        W90743  23.234  44.874  12.089
31483W        W90744  28.562  21.224   4.599
31484W        W90745  13.709  40.310  11.964
31485W        W90746   9.779  21.677   3.688
31486W        W90747   3.265  33.389   1.231
31487W        W90748  31.904  29.594   4.725
31488W        W90749  19.650  17.209  14.472
31489W        W90750  21.061  25.566  12.859
31490W        W90751   3.277  37.064   1.425
31491W        W90752  19.048  16.141   4.327
31492W        W90753   8.311  37.855  10.622
31493W        W90754  38.983  24.096   1.776
31494W        W90755   3.784  13.342  12.985
31495W        W90756  20.089  23.652   0.831
31496W        W90757  33.464  33.534   4.207
31497W        W90758  17.085  12.339   0.759
31498W        W90759   9.340  31.555   4.165
31499W        W90760  32.560  11.284   0.352
31500W        W90761  40.813   4.844  10.110
31501W        W90762   6.233  36.490   2.790
31502W        W90763  21.182  14.711  12.480
31503W        W90764  16.134  25.583  12.863
31504W        W90765   0.406  37.847  13.958
31505W        W90766   1.904   4.710  14.433
31506W        W90767  41.968  28.447   3.784
31507W        W90768  29.638  36.004  12.050
31508W        W90769  44.814  13.282  11.072
31509W        W90770   2.267   2.355   4.120
31510W        W90771   4.720  12.657   4.741
31511W        W90772  17.175  12.804   1.878
31512W        W90773  41.507   1.891  13.965
31513W        W90774  12.284  16.257   2.186
31514W        W90775   8.714  19.191   3.246
31515W        W90776  43.967  19.100   3.260
31516W        W90777  22.703  36.996   1.405
31517W        W90778  17.655  38.424  11.857
31518W        W90779  29.153  34.506   2.825
31519W        W90780  38.444  42.509  11.896
31520W        W90781  37.423  11.723   1.439
31521W        W90782  13.248   5.802   4.708
31522W        W90783  28.444  28.513   1.754
31523W        W90784   2.315   1.322   4.191
31524W        W90785  29.441  10.678   4.771
31525W        W90786  13.771   9.827   2.311
31526W        W90787   8.765  13.211   0.806
31527W        W90788  19.232  11.317  13.840
31528W        W90789  33.397  10.158   3.232
31529W        W90790  36.538  26.144   2.803
31530W        W90791  35.973   4.369   0.335
31531W        W90792  19.243  11.173   0.729
31532W        W90793   3.359   3.291   9.963
31533W        W90794  23.184  41.844   0.404
31534W        W90795  32.110  26.585   5.109
31535W        W90796  41.926  15.206   3.800
31536W        W90797   9.184  42.852   0.889
31537W        W90798  44.449  30.992  13.051
31538W        W90799  20.204  37.434  14.443
31539W        W90800  36.394  42.961  13.936
31540W        W90801  31.086  40.360  13.800
31541W        W90802   6.369  22.231  14.324
31542W        W90803  27.111  43.865  11.035
31543W        W90804  38.432   5.296   3.376
31544W        W90805  16.729  38.838  11.081
31545W        W90806  31.573  43.316  13.858
31546W        W90807  42.347  21.579  11.493
31547W        W90808   0.343   2.946  10.929
31548W        W90809  14.272  39.929   0.936
31549W        W90810   1.397  11.220  11.990
31550W        W90811   8.298  36.587   1.745
31551W        W90812  40.853  38.403  11.416
31552W        W90813  14.797   9.644   3.174
31553W        W90814  26.954  18.174  12.981
31554W        W90815  22.624  40.302   4.744
31555W        W90816   8.337  16.168   4.202
31556W        W90817  17.288   5.197  13.455
31557W        W90818  22.528  22.996   2.681
31558W        W90819  43.428  28.014  14.917
31559W        W90820  37.582  12.190   0.963
31560W        W90821  44.960  32.957   4.254
31561W        W90822  29.642  25.216   4.158
31562W        W90823   3.949  32.055   1.293
31563W        W90824   0.376  12.320  12.093
31564W        W90825   7.242   1.945  11.017
31565W        W90826  31.076  26.529  11.079
31566W        W90827   7.669  32.531   2.340
31567W        W90828   2.458  42.903   0.801
31568W        W90829  36.530  41.861   2.771
31569W        W90830  13.652  23.508  13.540
31570W        W90831  26.651  17.292   3.287
31571W        W90832   4.897  27.477  10.522
31572W        W90833  22.226  35.100  14.352
31573W        W90834  33.540  11.844   1.323
31574W        W90835  26.595  17.559  10.416
31575W        W90836  20.077  10.338  14.364
31576W        W90837  39.518  38.461   4.791
31577W        W90838  20.067  26.052  14.392
31578W        W90839  23.156  17.619  12.343
31579W        W90840  44.323  42.440  12.484
31580W        W90841   6.366  24.061   1.371
31581W        W90842  32.588  21.606   1.808
31582W        W90843  18.616  11.156  14.443
31583W        W90844  33.557  26.678   1.233
31584W        W90845   4.432  31.082  11.540
31585W        W90846  27.993  14.676  13.307
31586W        W90847  20.760  40.447   0.299
31587W        W90848  39.336  40.931   3.188
31588W        W90849   9.870  44.335   3.736
31589W        W90850   0.795  29.466   5.201
31590W        W90851  40.921  10.349  12.051
31591W        W90852  30.091  24.986   3.859
31592W        W90853   4.718  28.973  11.899
31593W        W90854  41.856  33.116  12.045
31594W        W90855  34.114  22.087   0.338
31595W        W90856  40.802   1.382  10.632
31596W        W90857  42.941   5.346  14.445
31597W        W90858   7.764  34.085  13.399
31598W        W90859  22.662  35.551  10.529
31599W        W90860  34.965   4.799  12.997
31600W        W90861  12.640  10.332  14.958
31601W        W90862  10.349  27.027   2.288
31602W        W90863   2.343  32.490  14.357
31603W        W90864  19.600   3.899  13.506
31604W        W90865  15.672  39.864   4.606
31605W        W90866  32.003  20.565   3.703
31606W        W90867  43.275   4.825   2.211
31607W        W90868   5.743  25.978   3.828
31608W        W90869  26.194   4.901  13.870
31609W        W90870   3.806   9.271   1.257
31610W        W90871  26.511  10.840  12.435
31611W        W90872  13.192   0.836   2.185
31612W        W90873  44.757  41.852   2.663
31613W        W90874  10.237  26.490  10.133
31614W        W90875   3.349   6.311  14.383
31615W        W90876  27.455  23.177  13.349
31616W        W90877   8.369  11.739  14.779
31617W        W90878  23.149  40.031  10.460
31618W        W90879  11.624  38.428   4.220
31619W        W90880   9.807   8.844  11.907
31620W        W90881  27.527   2.780   4.814
31621W        W90882  22.239  19.183   4.116
31622W        W90883  27.657  11.284  11.127
31623W        W90884  40.501  25.634  14.838
31624W        W90885  34.075  42.780  11.002
31625W        W90886  38.361  37.014   9.955
31626W        W90887  17.142  33.458  11.532
31627W        W90888  43.336  41.788   3.312
31628W        W90889  31.994  13.338  11.429
31629W        W90890  15.221  18.588  12.912
31630W        W90891   6.882  13.295   2.782
31631W        W90892  10.878  37.337   3.689
31632W        W90893   0.395  16.227  11.487
31633W        W90894  20.701  35.998  11.074
31634W        W90895  20.597  10.784   0.845
31635W        W90896  11.681  40.379  13.903
31636W        W90897   1.878  24.715  12.982
31637W        W90898  25.178  40.852   0.935
31638W        W90899  28.650   0.924   1.827
31639W        W90900  23.531   2.959   1.222
31640W        W90901  36.930  34.551   5.798
31641W        W90902  32.615  36.378  14.763
31642W        W90903  25.207  14.191   0.397
31643W        W90904  40.316  44.849   2.367
31644W        W90905  44.949  34.044  11.401
31645W        W90906  20.633  39.449   0.453
31646W        W90907  20.248  35.576   1.892
31647W        W90908   8.331   6.276  11.566
31648W        W90909  16.246   4.387  13.358
31649W        W90910  36.590  44.920   3.630
31650W        W90911  20.717   7.848  14.898
31651W        W90912  28.017  42.917  12.982
31652W        W90913  40.515  28.975   1.916
31653W        W90914  13.787  11.725  13.462
31654W        W90915  11.155  16.296   2.418
31655W        W90916  39.909   4.414  11.946
31656W        W90917  15.313   2.927   5.712
31657W        W90918  34.939  24.210   4.743
31658W        W90919   4.724   8.816   3.827
31659W        W90920   8.882  11.623   4.829
31660W        W90921  41.425  33.049  13.814
31661W        W90922   2.825   2.303   1.754
31662W        W90923  11.341  32.081  11.425
31663W        W90924  39.535   8.290  11.426
31664W        W90925  14.772  33.396   2.871
31665W        W90926  14.247  25.000  10.473
31666W        W90927  13.299   8.679   1.907
31667W        W90928  31.493  36.959  14.760
31668W        W90929   2.850  12.231   3.821
31669W        W90930  14.720  28.974  13.036
31670W        W90931   3.282  27.496   0.260
31671W        W90932  20.181  22.173  11.863
31672W        W90933  44.376  36.980  13.838
31673W        W90934  18.277  31.402  13.507
31674W        W90935  36.995  16.605   3.294
31675W        W90936  27.490  29.569  12.469
31676W        W90937   2.469  31.067   2.713
31677W        W90938  41.407  42.998   2.188
31678W        W90939   1.442   0.366   4.259
31679W        W90940  30.532  18.657   1.435
31680W        W90941  32.067  30.119  14.893
31681W        W90942   0.489   6.916  14.894
31682W        W90943  28.656  37.437   0.907
31683W        W90944  19.593   4.930   3.860
31684W        W90945  17.702  22.733   1.235
31685W        W90946  36.851   9.339  12.083
31686W        W90947  38.373  19.092  13.024
31687W        W90948  27.170   8.705  11.902
31688W        W90949  20.262  18.074  11.091
31689W        W90950   4.295   3.326   2.248
31690W        W90951  28.075   9.180  13.977
31691W        W90952  39.381  39.466   2.830
31692W        W90953  11.691  19.081   1.366
31693W        W90954  43.951  21.702  12.396
31694W        W90955  16.766   3.337  12.423
31695W        W90956  44.452  32.562   0.369
31696W        W90957  26.511  17.068   0.343
31697W        W90958  33.010   0.859   3.196
31698W        W90959  13.226  18.554   1.903
31699W        W90960  10.746  31.624  12.436
31700W        W90961   7.278  22.733   3.221
31701W        W90962  17.120   3.456   2.333
31702W        W90963  33.106   6.372  11.441
31703W        W90964   7.382  29.436   1.406
31704W        W90965   3.409   5.781  11.588
31705W        W90966  20.057  40.314   1.831
31706W        W90967  38.999  10.815  12.513
31707W        W90968  40.323  29.642  14.453
31708W        W90969   0.264   2.276   4.258
31709W        W90970  35.543   6.388   0.808
31710W        W90971  34.874  33.555   3.286
31711W        W90972  44.874  32.032  12.957
31712W        W90973  42.494   8.759  14.845
31713W        W90974  14.172  41.992   2.694
31714W        W90975   2.409  42.395   3.272
31715W        W90976  11.283  41.810   2.798
31716W        W90977  35.416  10.200   4.270
31717W        W90978  12.212  27.452   2.192
31718W        W90979  17.255  21.050   0.482
31719W        W90980  33.880  37.983  12.345
31720W        W90981  28.529  35.506  11.960
31721W        W90982   7.866  13.833  12.023
31722W        W90983  16.267  31.643   1.743
31723W        W90984  12.639  21.560   0.957
31724W        W90985  18.097  22.151   0.345
31725W        W90986  20.088  31.091  13.936
31726W        W90987  17.290   1.473  12.001
31727W        W90988  19.541  38.549  12.847
31728W        W90989  34.460  25.174   3.764
31729W        W90990   4.772  29.560   0.916
31730W        W90991   0.446   2.898   0.306
31731W        W90992   6.423  38.477   1.266
31732W        W90993  26.537  41.855  11.541
31733W        W90994  26.466  33.904   5.194
31734W        W90995  35.872  29.482   5.253
31735W        W90996  40.023  44.345  12.023
31736W        W90997  33.049   5.198  10.554
31737W        W90998  21.176  27.154   0.833
31738W        W90999  19.651  25.084   4.720
31739W        W91000  33.426  40.472   2.730
31740W        W91001  38.512  30.109   0.930
31741W        W91002  25.622  37.386   1.709
31742W        W91003  11.184  43.513   3.863
31743W        W91004  14.310  25.010  14.971
31744W        W91005  36.535   1.369   1.804
31745W        W91006  26.664  21.089   3.691
31746W        W91007  22.530  24.128  10.609
31747W        W91008  37.934  33.006  14.796
31748W        W91009  29.442  34.003  13.907
31749W        W91010   0.284  18.641   0.357
31750W        W91011  25.168  21.136   0.428
31751W        W91012  39.962   2.965   3.808
31752W        W91013  12.294  14.132  13.905
31753W        W91014  36.438  12.318   0.424
31754W        W91015  40.810   1.312   1.262
31755W        W91016  14.196  32.453  11.936
31756W        W91017   6.259  13.188   2.780
31757W        W91018  34.474   7.337  11.605
31758W        W91019  33.101  21.073   2.884
31759W        W91020  15.771  21.060  11.923
31760W        W91021  44.422  36.948   2.719
31761W        W91022  15.160  33.588   4.242
31762W        W91023   6.894  44.346   1.430
31763W        W91024   0.326  11.728   0.877
31764W        W91025  18.662  30.431  12.477
31765W        W91026  39.929  17.067  13.485
31766W        W91027  23.652  41.966   2.396
31767W        W91028  31.618  11.156   3.253
31768W        W91029  29.095  21.064   3.342
31769W        W91030   8.199  23.600  11.129
31770W        W91031  37.397  22.638   4.151
31771W        W91032  38.005  44.327  13.036
31772W        W91033  31.487  36.526   1.315
31773W        W91034  23.649  19.560   4.276
31774W        W91035  41.846  36.061  10.935
31775W        W91036  38.548  12.715  14.852
31776W        W91037  44.448   4.261  10.456
31777W        W91038  43.810   1.850  13.497
31778W        W91039  41.821  32.026  12.507
31779W        W91040  40.368  44.810  10.609
31780W        W91041  27.105  44.805   2.196
31781W        W91042  24.682  21.629   2.828
31782W        W91043  38.871  31.478  13.801
31783W        W91044  30.028  21.145   1.874
31784W        W91045  22.535  21.566  14.905
31785W        W91046   0.936  38.000  12.342
31786W        W91047   6.373  29.928  14.000
31787W        W91048  38.339  23.990  12.900
31788W        W91049  26.457  31.529  14.775
31789W        W91050  37.358  43.907   3.802
31790W        W91051  30.500  25.576  12.843
31791W        W91052   4.920  17.240   1.316
31792W        W91053  31.153   5.805  12.359
31793W        W91054  16.754  28.497   0.913
31794W        W91055  43.321  25.062   1.933
31795W        W91056   0.319  19.565   0.429
31796W        W91057  14.604  28.645  12.824
31797W        W91058  23.041  20.195   1.791
31798W        W91059  13.139   8.900  14.298
31799W        W91060  11.648  19.731  11.916
31800W        W91061  19.573  27.626  12.896
31801W        W91062  41.928   1.947  10.985
31802W        W91063  22.513   3.874  14.849
31803W        W91064  28.087   7.322   9.966
31804W        W91065  31.463   7.864   0.381
31805W        W91066  25.522   8.750  13.852
31806W        W91067  35.887  27.126   0.914
31807W        W91068  20.746  14.747   4.305
31808W        W91069  12.353   7.842   3.631
31809W        W91070  18.069   7.171   4.611
31810W        W91071   4.902  25.974  13.977
31811W        W91072  19.154  40.398  14.934
31812W        W91073  38.909  11.868  14.284
31813W        W91074  22.679   3.416   3.758
31814W        W91075   5.693  10.309   0.903
31815W        W91076  11.249   4.232  13.529
31816W        W91077  21.551  43.878  12.429
31817W        W91078  33.540  31.600  12.379
31818W        W91079  30.153  19.230   3.172
31819W        W91080   8.803  36.071   0.748
31820W        W91081  36.956  37.062  12.398
31821W        W91082  40.888  15.668  11.054
31822W        W91083  25.134  34.615  13.880
31823W        W91084  24.537  34.884  11.040
31824W        W91085  29.158  15.223  10.634
31825W        W91086  22.013  41.306  14.793
31826W        W91087  39.897  18.160   4.229
31827W        W91088  11.866  40.832  13.063
31828W        W91089  13.701   1.264   3.639
31829W        W91090  14.117   0.283   2.233
31830W        W91091  41.829  22.110  11.054
31831W        W91092  41.900  10.214   2.814
31832W        W91093  40.022  12.670   0.786
31833W        W91094  20.578   3.829   3.685
31834W        W91095  31.085  41.507   9.498
31835W        W91096   5.307   3.221   0.738
31836W        W91097   2.726   6.777  14.296
31837W        W91098   7.280  15.268   3.742
31838W        W91099  38.514   2.274  14.415
31839W        W91100  17.107  31.412  14.438
31840W        W91101  21.618  38.485   1.726
31841W        W91102   4.274  25.078  13.524
31842W        W91103   4.383  26.558   4.799
31843W        W91104  22.707  17.788   1.213
31844W        W91105  10.662  14.096  13.881
31845W        W91106  14.642  16.288  11.913
31846W        W91107  14.176  10.769   4.815
31847W        W91108  30.487  10.701  12.526
31848W        W91109   9.673  27.996  14.760
31849W        W91110  42.282  40.316  13.844
31850W        W91111  10.268  10.352  13.827
31851W        W91112  37.358  43.838   0.957
31852W        W91113   0.861  23.656   0.428
31853W        W91114  14.662  26.027  14.337
31854W        W91115  43.873   7.230  11.450
31855W        W91116  27.184  21.552   0.838
31856W        W91117  36.857  34.411   2.296
31857W        W91118  34.473  33.992  10.080
31858W        W91119  35.559  15.097  11.010
31859W        W91120  34.939  22.092   1.812
31860W        W91121  18.206  16.650   4.737
31861W        W91122  31.575  12.213  12.845
31862W        W91123  30.570   3.931   0.939
31863W        W91124  42.969  14.158  12.436
31864W        W91125   8.256  35.388  12.990
31865W        W91126  23.030   4.884  10.514
31866W        W91127  33.120  17.734  12.546
31867W        W91128  25.139  44.783  12.495
31868W        W91129   0.808  19.612   3.851
31869W        W91130  16.721  15.092   0.922
31870W        W91131  34.472  38.491   0.464
31871W        W91132  40.909  25.469  10.444
31872W        W91133  20.176  35.900   2.697
31873W        W91134  26.688   8.279   0.738
31874W        W91135  24.981  29.633   1.320
31875W        W91136  21.201  18.657  10.894
31876W        W91137   2.308  27.075   1.402
31877W        W91138   6.366  21.106  13.329
31878W        W91139  15.197  43.771   3.760
31879W        W91140  18.139  40.385   0.380
31880W        W91141  17.619  13.798   0.934
31881W        W91142  24.976  39.034   3.320
31882W        W91143  44.803  42.972   4.719
31883W        W91144  22.505  20.548   0.951
31884W        W91145  18.159  37.453   0.941
31885W        W91146  11.716  42.494   1.888
31886W        W91147  25.071  39.377   2.349
31887W        W91148   3.859   2.800  13.946
31888W        W91149  11.307  23.659   1.371
31889W        W91150  24.523  42.291  13.800
31890W        W91151  14.148  23.698   4.687
31891W        W91152  33.477  27.661   0.292
31892W        W91153  13.280  10.179  12.081
31893W        W91154  40.480  19.260   1.743
31894W        W91155  31.910  28.109  14.405
31895W        W91156  27.604  44.759   3.667
31896W        W91157  22.655  44.430  10.973
31897W        W91158  29.637   5.276   2.767
31898W        W91159  38.929  39.844   2.330
31899W        W91160  26.017  40.983  12.383
31900W        W91161  23.168  32.475   2.181
31901W        W91162  33.957  44.376   0.292
31902W        W91163  19.666  32.623   4.157
31903W        W91164  32.527  41.007   3.692
31904W        W91165   5.768  23.516   2.783
31905W        W91166  29.440   7.338   5.237
31906W        W91167  42.915  23.176  13.338
31907W        W91168  12.734  11.289   1.873
31908W        W91169  39.858  39.376  12.949
31909W        W91170  17.217  33.120  14.861
31910W        W91171  39.054  33.076   5.113
31911W        W91172  18.215  34.506  11.028
31912W        W91173  26.970   3.935  10.895
31913W        W91174  33.104  25.208   3.775
31914W        W91175  44.323   0.424   3.350
31915W        W91176  21.617  23.608  12.061
31916W        W91177  43.852  22.211   1.241
31917W        W91178  27.996  22.183   2.270
31918W        W91179   8.790  10.353   4.687
31919W        W91180  36.482  13.134   0.332
31920W        W91181   2.289  12.653  12.371
31921W        W91182  29.998   9.344  11.528
31922W        W91183   1.801  22.134   0.764
31923W        W91184  35.360  36.012   4.285
31924W        W91185  16.674  18.231  11.941
31925W        W91186  21.742  19.097  12.920
31926W        W91187  38.333  23.069   4.686
31927W        W91188   2.939  27.563   1.224
31928W        W91189  44.378  36.450   3.209
31929W        W91190  16.079  28.476  12.433
31930W        W91191  27.455   1.392  11.516
31931W        W91192   3.854   0.278  11.427
31932W        W91193   2.889  19.270  12.021
31933W        W91194   6.264   9.322   0.256
31934W        W91195  10.665  34.587  14.324
31935W        W91196  33.893  40.493   0.376
31936W        W91197  27.135   3.821   1.809
31937W        W91198   5.371  44.833   0.831
31938W        W91199  35.051   3.267   4.634
31939W        W91200  21.634  37.420  12.919
31940W        W91201  26.456  42.824  12.437
31941W        W91202  31.479  22.736  12.996
31942W        W91203   0.892  40.922   0.802
31943W        W91204  19.051  29.030   0.960
31944W        W91205   3.925  22.058   4.309
31945W        W91206   9.262  29.080   3.654
31946W        W91207   4.861  13.813   3.720
31947W        W91208  32.504  33.601   0.940
31948W        W91209  35.029  28.649   1.797
31949W        W91210   1.767  16.636  11.421
31950W        W91211   9.666  15.142  13.474
31951W        W91212  34.101  14.130   1.276
31952W        W91213  40.015   0.384   2.395
31953W        W91214  31.987   5.355   1.763
31954W        W91215   9.215  21.587   0.878
31955W        W91216  39.426  19.642   5.293
31956W        W91217   1.937  37.336   2.413
31957W        W91218   8.302  29.602   3.686
31958W        W91219   0.274  10.379   4.701
31959W        W91220   9.209  38.849   4.649
31960W        W91221  44.858  34.049   1.268
31961W        W91222  26.107  16.259   0.815
31962W        W91223   5.275   9.311   1.814
31963W        W91224  10.224   4.704  11.076
31964W        W91225  34.583  27.649  14.405
31965W        W91226  35.553  29.557  12.542
31966W        W91227  27.139  21.153   2.880
31967W        W91228  17.689   7.868   3.769
31968W        W91229  17.633  13.254   3.222
31969W        W91230  33.894  11.313   3.156
31970W        W91231  26.016  32.976   3.360
31971W        W91232  27.065  38.528   2.856
31972W        W91233   5.386  12.704   5.691
31973W        W91234  23.549  30.449   0.463
31974W        W91235   7.905  35.593   3.710
31975W        W91236  29.030  26.687  10.517
31976W        W91237  38.842   6.377  10.428
31977W        W91238  32.910   7.350   3.660
31978W        W91239  17.733  32.003   3.290
31979W        W91240  40.014  19.251   2.733
31980W        W91241  29.444  26.554  10.546
31981W        W91242  41.424  23.682   3.214
31982W        W91243  16.596  17.234  14.422
31983W        W91244  34.476  20.660  14.845
31984W        W91245  43.810  10.859   4.726
31985W        W91246  41.889  36.510   0.388
31986W        W91247  10.739  28.022  12.517
31987W        W91248  24.709  20.575   0.389
31988W        W91249   2.890  23.067   3.163
31989W        W91250  27.083  25.713   1.785
31990W        W91251  35.031   7.281   0.785
31991W        W91252  23.629  19.259  12.512
31992W        W91253  26.164   3.228  14.505
31993W        W91254  12.738  33.066   2.305
31994W        W91255  27.956  16.219  13.534
31995W        W91256  41.905  26.529   1.226
31996W        W91257  38.542  26.608   2.363
31997W        W91258   7.221  44.982   2.710
31998W        W91259  32.470  23.633  10.926
31999W        W91260   4.719   1.282   3.162
32000W        W91261  26.684  28.123   0.437
32001W        W91262  12.295  11.803  13.957
32002W        W91263  19.630  20.643   2.779
32003W        W91264  11.212  30.599  13.461
32004W        W91265  34.408  44.394   2.288
32005W        W91266  23.075  41.020  13.371
32006W        W91267  17.101   8.331  12.356
32007W        W91268   1.793  26.147  12.410
32008W        W91269  14.145  39.493  11.964
32009W        W91270  13.279  41.915  14.291
32010W        W91271  24.108   3.251  14.468
32011W        W91272  30.990  18.622  13.460
32012W        W91273  19.626  22.524   1.849
32013W        W91274  27.984  31.518  14.990
32014W        W91275  32.907  43.298   2.409
32015W        W91276  14.130  42.898   4.801
32016W        W91277  33.397  21.752   4.133
32017W        W91278  44.317  19.197   3.231
32018W        W91279  34.493  30.630   0.321
32019W        W91280  36.037  26.113   0.931
32020W        W91281  30.633  24.190   4.181
32021W        W91282   4.239  37.924   3.157
32022W        W91283  22.732  44.327   1.325
32023W        W91284  44.856  28.654  10.602
32024W        W91285  25.118  41.338   2.872
32025W        W91286  30.576  41.836  13.348
32026W        W91287   4.298  21.091  14.819
32027W        W91288  14.770   0.833   2.244
32028W        W91289  22.606  17.241   1.364
32029W        W91290  15.652  15.709   1.245
32030W        W91291  27.457  29.936  11.982
32031W        W91292   4.371  22.689  10.499
32032W        W91293  30.422   3.941   1.738
32033W        W91294  12.656  44.880   3.740
32034W        W91295  41.429   4.734   4.340
32035W        W91296  41.910  15.631   3.273
32036W        W91297  13.622   1.791   3.759
32037W        W91298   5.746   3.215  11.502
32038W        W91299  22.724  10.734  14.777
32039W        W91300  29.428  23.186   4.641
32040W        W91301   3.930  25.153  14.286
32041W        W91302  35.056  13.135  13.978
32042W        W91303  28.565  25.712   4.760
32043W        W91304   6.258  14.340  13.835
32044W        W91305  33.616  43.773   1.926
32045W        W91306   6.330  41.494  13.020
32046W        W91307  13.272  40.343   3.306
32047W        W91308  11.818  18.257   4.636
32048W        W91309  12.293  28.035   0.286
32049W        W91310   3.384  20.135   0.448
32050W        W91311  27.953  11.651  13.532
32051W        W91312  11.217  19.284  12.343
32052W        W91313  21.231  25.554   4.335
32053W        W91314   7.304  40.941   2.408
32054W        W91315  21.520  18.282   3.266
32055W        W91316  21.092  27.647   9.514
32056W        W91317  17.648  22.647   4.228
32057W        W91318   7.678   0.443  13.984
32058W        W91319  18.565  33.505  10.494
32059W        W91320  10.844  38.054  14.283
32060W        W91321  37.832  13.351  11.116
32061W        W91322  21.161  31.539   1.424
32062W        W91323  44.976   2.369  12.873
32063W        W91324  29.037  21.643  14.895
32064W        W91325  16.593  37.350  10.945
32065W        W91326  12.838  14.188   2.284
32066W        W91327   9.670  36.914   2.776
32067W        W91328  10.733  40.048  12.557
32068W        W91329  12.708  26.984  10.076
32069W        W91330  11.667  39.880   3.742
32070W        W91331   0.482  19.779   2.325
32071W        W91332  28.651  16.720  13.919
32072W        W91333   3.847  32.137  11.505
32073W        W91334  40.957  24.170  10.550
32074W        W91335   5.221  39.466   2.753
32075W        W91336   3.917  25.630   4.227
32076W        W91337  38.830  20.269   2.784
32077W        W91338  28.944  40.884  11.592
32078W        W91339  36.072   0.387   1.746
32079W        W91340  26.491  30.922   1.862
32080W        W91341   1.966   1.852   2.234
32081W        W91342  17.151  18.664  13.029
32082W        W91343  32.934   5.796   2.369
32083W        W91344  16.739  10.812  14.822
32084W        W91345  31.012  20.139   1.907
32085W        W91346   0.461   2.249   1.930
32086W        W91347  13.128  30.959  14.896
32087W        W91348  43.775   6.183   4.743
32088W        W91349  37.990   7.205   0.818
32089W        W91350   8.711   3.273   4.141
32090W        W91351   8.196  40.516   2.844
32091W        W91352  29.561  19.614  10.950
32092W        W91353  28.128  38.835   4.785
32093W        W91354  15.089  21.514  14.417
32094W        W91355  11.732  36.975   3.653
32095W        W91356  43.377  29.036   3.779
32096W        W91357  38.074   6.861  12.064
32097W        W91358  43.999  32.979  12.340
32098W        W91359  26.528  38.467  12.956
32099W        W91360   6.273  39.981  13.454
32100W        W91361  31.561  23.619  10.440
32101W        W91362  30.442  12.624   2.247
32102W        W91363   6.232  36.465  12.962
32103W        W91364   1.266  17.594  11.404
32104W        W91365  12.290   9.763   3.162
32105W        W91366  27.589  35.375   0.800
32106W        W91367  42.301   2.375  14.303
32107W        W91368  26.063  42.845   5.222
32108W        W91369  41.323  37.952  10.634
32109W        W91370   9.261   1.263  10.939
32110W        W91371  26.484  25.070   2.305
32111W        W91372  25.705  14.324  10.952
32112W        W91373  24.089  42.789  10.907
32113W        W91374  39.954  33.040   3.285
32114W        W91375   3.436  24.512   0.263
32115W        W91376  34.068  10.845  14.353
32116W        W91377  28.144  19.577  14.373
32117W        W91378  14.145  20.222  14.400
32118W        W91379  14.701  38.988   2.860
32119W        W91380  43.856  32.453  14.312
32120W        W91381  22.193   1.852  10.556
32121W        W91382   2.237  11.712  12.443
32122W        W91383  21.096   6.380   5.167
32123W        W91384  25.974  39.062   4.731
32124W        W91385   5.726  19.634   3.860
32125W        W91386  27.651  10.320   1.820
32126W        W91387  12.724  30.605   1.389
32127W        W91388   2.290  38.829  10.470
32128W        W91389  30.414  20.258  11.985
32129W        W91390  17.116  16.122  14.477
32130W        W91391  29.931  32.475  11.600
32131W        W91392   4.273  32.991   4.333
32132W        W91393  42.478  42.344   4.242
32133W        W91394  26.458  44.483  10.447
32134W        W91395  37.905  34.490  13.816
32135W        W91396  18.156  14.786  13.815
32136W        W91397   7.186   2.269   0.342
32137W        W91398  27.947   8.878  10.978
32138W        W91399  18.670  18.115   3.678
32139W        W91400  42.312   2.377  13.518
32140W        W91401  40.943   8.223   1.335
32141W        W91402  20.699  37.565   3.377
32142W        W91403  25.999  20.590   0.795
32143W        W91404  32.031   2.404  13.878
32144W        W91405  28.657  42.331  11.508
32145W        W91406  12.751  33.884  12.892
32146W        W91407   7.362  24.577  11.891
32147W        W91408  33.889  40.403   2.894
32148W        W91409  22.154  44.986  12.035
32149W        W91410   2.729  18.601  11.042
32150W        W91411   6.871   6.896   3.842
32151W        W91412  19.057   0.399  14.465
32152W        W91413   7.822   6.412  13.053
32153W        W91414  28.448  39.499  13.830
32154W        W91415   3.839  31.573  12.931
32155W        W91416  26.202  43.414   3.153
32156W        W91417  40.817  19.706  11.577
32157W        W91418  32.438  42.482  10.571
32158W        W91419  29.523   1.405   1.233
32159W        W91420  11.156  11.321   5.259
32160W        W91421   8.367   9.372   5.196
32161W        W91422  37.849  39.954   3.687
32162W        W91423  33.538  34.048  12.571
32163W        W91424  38.052   4.244  10.603
32164W        W91425  42.350   1.287  10.923
32165W        W91426   1.757   0.331   2.695
32166W        W91427   4.345  26.072   1.216
32167W        W91428  40.497  24.539   2.351
32168W        W91429  16.684   7.862  10.621
32169W        W91430  25.507  23.592   3.746
32170W        W91431  13.822   9.676  13.542
32171W        W91432  13.237  22.224  12.486
32172W        W91433  13.285   6.328   4.265
32173W        W91434  33.574  12.855   2.194
32174W        W91435  37.409  27.668   1.805
32175W        W91436  15.634   4.432  11.450
32176W        W91437  37.408  12.151   3.188
32177W        W91438   6.376  30.981  12.452
32178W        W91439   0.457  12.226  14.885
32179W        W91440  41.459   0.921  13.872
32180W        W91441   4.939  41.533  14.377
32181W        W91442   5.765  28.651  14.909
32182W        W91443  41.348  39.822  11.394
32183W        W91444   0.989  30.517  14.993
32184W        W91445  20.722   6.184  14.320
32185W        W91446  25.976  44.283  11.007
32186W        W91447   3.220  20.108   3.330
32187W        W91448  12.693   6.281  10.921
32188W        W91449  28.130  29.651  11.489
32189W        W91450  18.689  25.122   1.864
32190W        W91451  42.837  15.322   0.848
32191W        W91452  32.096  29.461   2.317
32192W        W91453   1.367  15.685  11.592
32193W        W91454  37.037  30.112  12.355
32194W        W91455  40.366  26.185   0.467
32195W        W91456  42.362  21.704  12.826
32196W        W91457  12.732  44.806  13.024
32197W        W91458  27.151  31.013  11.869
32198W        W91459  41.802  34.068  11.032
32199W        W91460  18.649  40.374   2.664
32200W        W91461   5.273  30.995  11.484
32201W        W91462   4.717   9.336   5.787
32202W        W91463  33.940   6.676  10.643
32203W        W91464  14.666   1.890  14.881
32204W        W91465  24.493   9.879   1.277
32205W        W91466   8.742  33.428  13.334
32206W        W91467  11.165   0.272  13.914
32207W        W91468   4.341  38.979   4.155
32208W        W91469  13.183   7.875   1.378
32209W        W91470  27.620  42.006   0.736
32210W        W91471  36.959  31.062  11.103
32211W        W91472   0.432  38.939  11.935
32212W        W91473  20.761   7.354  10.637
32213W        W91474   0.835   7.840  11.103
32214W        W91475  36.035  24.655   4.598
32215W        W91476  35.102  28.637   3.375
32216W        W91477   2.367  30.508  10.576
32217W        W91478  14.313  20.153  11.609
32218W        W91479  27.685  36.478  12.025
32219W        W91480  31.612  10.693   1.356
32220W        W91481  39.911  31.907   3.708
32221W        W91482  37.414  30.992  10.929
32222W        W91483  39.386  32.092   1.857
32223W        W91484  34.907  24.118   1.749
32224W        W91485  17.635   1.296  12.962
32225W        W91486  31.910  26.027   4.834
32226W        W91487   8.894   6.856  10.630
32227W        W91488  32.595  30.559   3.233
32228W        W91489  36.495  17.727   1.729
32229W        W91490  18.699  39.328   1.249
32230W        W91491  17.149  37.513   0.450
32231W        W91492  26.677  16.127   0.827
32232W        W91493  36.989  32.073   4.822
32233W        W91494  38.964  13.704   4.275
32234W        W91495   4.906   1.252  14.456
32235W        W91496  19.079  17.226   0.952
32236W        W91497   7.773  42.778  11.436
32237W        W91498   8.180  12.185   3.270
32238W        W91499   3.256   3.444   2.330
32239W        W91500  36.556  33.986  10.937
32240W        W91501  21.061  12.213   4.731
32241W        W91502  35.964  10.737   0.882
32242W        W91503  39.536  19.737   0.305
32243W        W91504  14.118   5.365   4.819
32244W        W91505  41.984  39.875  13.804
32245W        W91506  33.594  22.220   4.784
32246W        W91507  13.151  24.700  13.905
32247W        W91508  41.999   1.901  14.924
32248W        W91509  19.229  22.619   3.255
32249W        W91510  43.428  27.059   0.885
32250W        W91511   6.294   7.821   2.375
32251W        W91512  37.000   7.312   1.369
32252W        W91513   9.312   3.918  12.070
32253W        W91514  37.072  18.732   2.379
32254W        W91515   4.761  32.413  12.948
32255W        W91516  35.457  14.786   3.279
32256W        W91517  13.222  28.584   0.251
32257W        W91518   4.817  38.414   3.721
32258W        W91519   4.436   9.354  10.014
32259W        W91520  14.208  17.166  13.888
32260W        W91521   4.243   0.903   2.764
32261W        W91522  29.480  11.669   3.315
32262W        W91523  27.618   1.927  12.546
32263W        W91524   1.267  28.677  13.953
32264W        W91525  12.668  26.147  14.776
32265W        W91526  16.575  32.433   4.676
32266W        W91527  21.150  25.195   2.889
32267W        W91528  44.773  11.354   0.815
32268W        W91529  34.964  26.131  13.856
32269W        W91530   5.290  20.210  11.063
32270W        W91531  27.114  26.128   1.737
32271W        W91532  13.221  43.929  13.941
32272W        W91533  26.581   9.784   0.318
32273W        W91534  44.972  30.596  11.424
32274W        W91535  34.928   4.825   2.859
32275W        W91536  16.725  19.236   0.783
32276W        W91537  31.901  11.841  11.504
32277W        W91538  33.981  26.986  12.843
32278W        W91539   9.816  12.139  11.900
32279W        W91540  27.129   2.411   0.898
32280W        W91541  10.298  27.940   3.818
32281W        W91542   8.239   7.823  12.009
32282W        W91543  23.011  13.214  13.794
32283W        W91544  26.617  27.516  10.405
32284W        W91545   5.894   1.361   4.143
32285W        W91546  38.546   8.901   1.852
32286W        W91547   6.367  26.073  10.150
32287W        W91548  37.453  35.554   5.095
32288W        W91549  16.129  14.256   2.781
32289W        W91550   2.864  35.538   3.851
32290W        W91551   1.906  28.607  12.418
32291W        W91552   1.947  31.624   1.284
32292W        W91553   9.703  43.445   4.189
32293W        W91554   3.330  20.088  13.998
32294W        W91555  14.616   8.779   0.286
32295W        W91556  13.730  25.552   2.317
32296W        W91557  35.395  32.983   0.948
32297W        W91558  23.111  25.468  13.489
32298W        W91559  30.556  18.684   2.710
32299W        W91560  22.549   3.310  10.923
32300W        W91561  40.886  23.541   0.298
32301W        W91562  37.964  12.744   5.260
32302W        W91563  35.012  16.726   3.261
32303W        W91564  18.155  25.007  13.916
32304W        W91565  19.693   4.430  11.954
32305W        W91566  20.182  16.215  12.459
32306W        W91567   1.791   2.860  10.530
32307W        W91568  41.868  33.482  12.874
32308W        W91569   4.835  34.430  11.116
32309W        W91570  41.313  29.954  10.917
32310W        W91571  14.225   1.303  11.392
32311W        W91572  34.393   3.320   1.799
32312W        W91573  19.122  42.863  10.414
32313W        W91574  39.936  39.410   4.800
32314W        W91575  44.795  33.075   1.387
32315W        W91576  34.066  33.575  12.895
32316W        W91577  11.348   0.955  14.952
32317W        W91578   3.749  32.444   0.380
32318W        W91579  18.680  31.969   0.862
32319W        W91580  41.475  23.197  11.405
32320W        W91581   0.888  41.465  10.056
32321W        W91582  37.985  34.526  11.965
32322W        W91583   6.290   9.689   5.575
32323W        W91584   7.769  13.300  11.101
32324W        W91585   8.302  18.755  14.799
32325W        W91586   0.444  31.500   4.637
32326W        W91587   7.734   6.869  11.010
32327W        W91588   1.322  11.622  12.459
32328W        W91589  33.578  19.686   4.214
32329W        W91590  39.421  43.994   3.271
32330W        W91591  40.806  36.357  13.829
32331W        W91592  28.119  25.042   5.261
32332W        W91593  24.023   1.906  10.411
32333W        W91594  41.804  39.949   0.783
32334W        W91595  39.844  41.530   0.741
32335W        W91596  37.000  18.178  10.468
32336W        W91597   3.929  14.306  14.412
32337W        W91598   0.437  41.351  13.456
32338W        W91599  30.039  43.271  13.313
32339W        W91600  32.127  16.235   2.700
32340W        W91601  40.913  44.349  10.052
32341W        W91602  18.718  41.022   3.149
32342W        W91603  15.186   7.809  11.029
32343W        W91604   0.821  43.358   3.751
32344W        W91605  40.336   9.246  11.430
32345W        W91606  39.927   9.356   2.833
32346W        W91607  31.430  13.157   2.355
32347W        W91608   6.336  20.091  10.953
32348W        W91609  36.396  30.160  12.053
32349W        W91610   2.402  13.727  14.367
32350W        W91611   3.310  17.237   0.253
32351W        W91612  25.545  28.646   1.769
32352W        W91613  25.199  34.099  11.073
32353W        W91614  24.218   8.397  13.429
32354W        W91615  18.791  28.007   1.754
32355W        W91616  44.262  22.145  11.941
32356W        W91617  26.479  29.474   2.668
32357W        W91618  28.180  22.248   0.269
32358W        W91619  41.423   6.714  11.891
32359W        W91620  26.144  41.431  14.513
32360W        W91621   7.738  32.594  11.407
32361W        W91622  25.492  43.307   3.234
32362W        W91623   6.860  28.573   2.305
32363W        W91624  21.671  13.614   4.147
32364W        W91625  44.374  44.980   1.367
32365W        W91626  26.574  41.304  13.423
32366W        W91627  12.253  43.282  12.829
32367W        W91628  18.561  17.636  14.800
32368W        W91629  44.429   4.863   2.351
32369W        W91630  39.065   9.889   5.286
32370W        W91631   3.820  10.283  14.437
32371W        W91632  42.938  15.693   2.388
32372W        W91633  26.508  44.801   0.836
32373W        W91634  25.544   5.904  14.315
32374W        W91635  11.137  12.325   9.963
32375W        W91636  25.519   6.369  13.314
32376W        W91637  10.341  27.129  14.481
32377W        W91638   4.292  39.856  12.921
32378W        W91639   3.373  14.247  12.463
32379W        W91640   1.448  23.699   1.326
32380W        W91641  32.909  43.989  14.307
32381W        W91642  15.820  27.148   1.377
32382W        W91643  32.044  36.567  12.517
32383W        W91644  26.540  27.549   3.638
32384W        W91645  44.459  29.081  14.368
32385W        W91646  41.909   8.318   3.175
32386W        W91647   6.876  16.763   4.644
32387W        W91648  35.908   5.195   0.902
32388W        W91649  44.474   7.893  12.924
32389W        W91650  21.736  44.805  14.395
32390W        W91651  30.925  18.086   3.742
32391W        W91652  36.526   4.879   1.800
32392W        W91653  15.256  14.751  12.521
32393W        W91654  19.062  12.811   1.372
32394W        W91655  29.556  14.245  11.383
32395W        W91656   8.202   6.401  10.094
32396W        W91657  35.054  26.095   2.684
32397W        W91658  44.312  16.203  10.455
32398W        W91659  32.083  38.930  13.431
32399W        W91660   1.337   0.439   3.851
32400W        W91661  21.108   1.855  10.423
32401W        W91662   6.843  22.065   1.865
32402W        W91663   6.327   6.909   4.254
32403W        W91664  12.769  28.665   5.188
32404W        W91665  35.039  39.919  10.541
32405W        W91666  32.991  16.165  10.564
32406W        W91667  28.498  17.722  10.473
32407W        W91668   4.336  11.713   3.386
32408W        W91669   7.896  11.160  14.025
32409W        W91670  31.442  25.204   2.705
32410W        W91671  23.539  11.250  12.527
32411W        W91672  16.299   2.827  13.032
32412W        W91673   3.438  35.056  14.277
32413W        W91674  15.102   2.428  14.877
32414W        W91675  32.114  28.975  14.912
32415W        W91676  44.321  10.817  10.529
32416W        W91677  28.055  11.773  12.430
32417W        W91678  35.561  12.274   2.380
32418W        W91679  14.792  13.120   5.243
32419W        W91680   5.268   5.718  14.824
32420W        W91681   9.353   9.327   1.372
32421W        W91682  42.906  15.666   3.253
32422W        W91683  29.059  22.038  10.484
32423W        W91684  36.925   8.875  13.024
32424W        W91685  32.527   1.771  11.403
32425W        W91686   9.374  39.491   0.394
32426W        W91687  11.844  11.799   3.852
32427W        W91688  27.649  16.677  14.832
32428W        W91689  32.949  34.998  13.815
32429W        W91690  30.498  34.075   1.792
32430W        W91691  13.703  25.218  11.513
32431W        W91692  27.679  22.616   4.250
32432W        W91693  26.564   6.266  11.086
32433W        W91694  36.844  17.681   2.721
32434W        W91695  30.086   6.337  12.841
32435W        W91696   8.880  32.088   2.299
32436W        W91697  20.037  33.959   0.931
32437W        W91698   3.855  20.051   0.460
32438W        W91699  19.605   5.375  13.958
32439W        W91700  15.643  34.872  11.965
32440W        W91701  17.248  13.244   2.837
32441W        W91702  35.419   7.313   3.836
32442W        W91703   9.693   8.896   1.736
32443W        W91704  40.399  18.583  11.876
32444W        W91705  18.687  37.543   1.720
32445W        W91706  35.447  30.004   2.785
32446W        W91707  13.185  12.157   1.767
32447W        W91708  37.010  20.184   3.210
32448W        W91709  16.218  33.459  13.807
32449W        W91710  24.530  36.001   3.819
32450W        W91711  20.032  27.059  12.548
32451W        W91712  23.702   7.766  12.422
32452W        W91713  19.277  26.622   2.333
32453W        W91714  41.522   3.369  13.837
32454W        W91715  38.508  43.445  13.461
32455W        W91716  15.737  25.712  12.445
32456W        W91717  17.786  16.628  12.347
32457W        W91718  24.097  44.360  13.896
32458W        W91719   9.314  10.168   3.757
32459W        W91720   8.760  13.266  13.311
32460W        W91721  28.553  39.929   2.291
32461W        W91722   5.236  42.812   0.456
32462W        W91723  11.699  31.117  11.914
32463W        W91724  16.073  10.776  14.463
32464W        W91725  29.432   4.260  13.848
32465W        W91726  15.109   9.264   0.826
32466W        W91727  11.651  34.542   0.826
32467W        W91728  33.947   5.237  11.385
32468W        W91729  27.631  26.128   0.816
32469W        W91730  20.629   6.832  11.888
32470W        W91731  11.730   4.347   1.930
32471W        W91732   3.275  44.494   5.153
32472W        W91733   5.852  18.702   3.177
32473W        W91734  11.771  44.378  12.871
32474W        W91735   3.770  14.614   4.800
32475W        W91736  42.310  43.013   3.812
32476W        W91737  43.446  27.645  14.899
32477W        W91738   0.269  42.405  14.928
32478W        W91739   6.354   3.930  12.858
32479W        W91740  28.075  42.287  12.913
32480W        W91741  27.136   6.705  12.941
32481W        W91742   9.361  16.618   0.953
32482W        W91743  36.027   5.902  12.986
32483W        W91744  39.992  19.184   3.346
32484W        W91745  16.201  17.300  12.036
32485W        W91746  35.858  35.903   0.255
32486W        W91747  41.380   7.755   2.396
32487W        W91748  10.706  16.697   5.260
32488W        W91749  32.542  24.573   0.252
32489W        W91750  24.106  24.682   1.384
32490W        W91751  24.081   7.401   4.320
32491W        W91752  13.704  39.467   1.698
32492W        W91753  39.946   7.251  12.026
32493W        W91754  21.034  35.975   2.740
32494W        W91755   5.909  40.985   3.296
32495W        W91756   4.877   8.842  12.837
32496W        W91757  28.011   3.948   3.697
32497W        W91758   2.734  44.384  12.521
32498W        W91759   1.336  39.890   4.614
32499W        W91760  38.971  28.144  10.512
32500W        W91761  19.214  36.895  10.988
32501W        W91762  21.739  14.214   2.783
32502W        W91763  28.147  13.254   1.817
32503W        W91764  25.028  27.977  13.405
32504W        W91765   0.460   8.702   2.327
32505W        W91766  20.256   6.204  12.891
32506W        W91767  40.304  21.032  10.500
32507W        W91768  35.942  24.183   5.202
32508W        W91769   1.440   5.856  12.386
32509W        W91770   5.915  20.747   3.255
32510W        W91771  22.118  22.662   4.743
32511W        W91772  20.767   3.382  13.434
32512W        W91773  24.200   3.727   3.360
32513W        W91774  30.089  37.435  14.305
32514W        W91775   5.808  17.649   1.805
32515W        W91776   9.198  16.707   4.327
32516W        W91777  18.216  27.445   2.299
32517W        W91778   1.872  14.236  11.394
32518W        W91779   3.403  36.013  11.011
32519W        W91780  22.669  21.222  14.826
32520W        W91781   1.313  36.000  11.091
32521W        W91782  13.664  23.161  14.030
32522W        W91783  14.812  23.005  13.361
32523W        W91784  23.705  12.209   2.412
32524W        W91785  14.102  37.428  10.486
32525W        W91786  12.856  43.894   3.825
32526W        W91787   7.775   4.317  14.788
32527W        W91788  20.678  44.300   4.835
32528W        W91789  12.612  39.024  11.588
32529W        W91790  33.610  32.083  12.932
32530W        W91791  14.673   7.884   4.764
32531W        W91792  44.929  22.627  14.411
32532W        W91793  33.921  27.956  10.140
32533W        W91794  40.957  35.993   4.123
32534W        W91795  20.164  15.799  13.941
32535W        W91796   6.185  37.875   4.605
32536W        W91797  33.396  18.746  12.904
32537W        W91798   9.804  10.714   4.676
32538W        W91799  12.205   2.317   5.200
32539W        W91800   6.845  15.181  13.371
32540W        W91801  24.019  12.667  14.972
32541W        W91802  36.376  36.010  14.345
32542W        W91803  38.502  18.142  13.855
32543W        W91804  26.059  42.908   0.258
32544W        W91805  44.406  26.493  10.639
32545W        W91806   1.766  12.305   3.739
32546W        W91807  12.146  31.068   4.189
32547W        W91808  11.741  40.799  14.932
32548W        W91809  41.301  37.367   4.274
32549W        W91810  13.773  14.618  10.541
32550W        W91811   1.442  11.224  13.494
32551W        W91812  15.111  33.102   0.444
32552W        W91813   7.349  44.847   3.776
32553W        W91814  39.560  28.617  10.996
32554W        W91815  15.084  16.591   4.767
32555W        W91816  32.467  39.989  14.325
32556W        W91817  38.959   5.800   4.290
32557W        W91818  16.101  30.568  11.477
32558W        W91819  37.366  34.959   1.817
32559W        W91820   7.860  18.709  12.990
32560W        W91821  34.020  42.327  14.810
32561W        W91822  34.889  19.229   3.768
32562W        W91823  14.594  29.625   3.157
32563W        W91824   8.312  44.336   1.855
32564W        W91825  31.623  24.167  11.373
32565W        W91826  30.158  21.694  11.919
32566W        W91827  41.903  34.021  11.985
32567W        W91828  38.978  34.120   9.446
32568W        W91829  15.743  27.019  14.299
32569W        W91830  13.178  24.600   0.778
32570W        W91831  23.027  28.659  11.576
32571W        W91832  15.280  17.603   4.250
32572W        W91833   1.313  17.568   4.325
32573W        W91834  41.439  22.015   0.748
32574W        W91835  22.727  43.286  12.029
32575W        W91836  11.241  11.733  11.941
32576W        W91837  40.882  31.961   4.240
32577W        W91838   9.793  19.274  13.482
32578W        W91839  14.110  26.164  11.119
32579W        W91840   9.239  18.739  11.498
32580W        W91841   8.305  11.640   0.760
32581W        W91842  40.878  37.504   1.735
32582W        W91843  21.145  43.874   2.819
32583W        W91844  25.470  33.414  11.906
32584W        W91845  34.889   4.417  11.586
32585W        W91846  32.456  35.433   2.844
32586W        W91847  34.933  24.121   3.668
32587W        W91848  17.225  19.066  13.926
32588W        W91849  43.883   5.384   2.190
32589W        W91850  43.916  16.136   4.784
32590W        W91851  15.623  19.652   2.268
32591W        W91852  11.625  28.029   4.764
32592W        W91853  35.030  43.908  13.407
32593W        W91854  16.803  25.591   3.746
32594W        W91855   3.441  19.161  10.589
32595W        W91856  25.676  32.939   0.428
32596W        W91857  41.926  12.705  12.550
32597W        W91858   1.968   4.285  11.917
32598W        W91859  10.754  23.186  14.795
32599W        W91860  23.655   0.754  14.896
32600W        W91861   8.339  10.664  10.564
32601W        W91862  27.507  23.015  11.119
32602W        W91863   6.919  31.119   0.364
32603W        W91864  35.511  31.408  11.457
32604W        W91865  21.169  31.528  10.636
32605W        W91866   6.428   3.887   4.224
32606W        W91867   2.420  32.945   2.380
32607W        W91868  25.216  40.346   0.282
32608W        W91869  26.480  32.478   4.134
32609W        W91870   7.710  34.972  14.443
32610W        W91871  42.885  43.771  14.015
32611W        W91872  24.069  23.550  12.087
32612W        W91873  39.991  28.996   2.680
32613W        W91874  44.974  26.511  13.345
32614W        W91875  31.486   0.381  14.834
32615W        W91876  40.446   4.386   4.292
32616W        W91877  16.157  21.534  13.403
32617W        W91878  12.708  39.030   1.919
32618W        W91879  32.958  17.583  11.029
32619W        W91880  35.601   2.338   4.815
32620W        W91881  30.995  37.857   1.866
32621W        W91882  11.641  40.321  11.416
32622W        W91883  24.498   5.887  10.971
32623W        W91884  37.992  32.982   2.393
32624W        W91885  10.875  44.816  11.539
32625W        W91886  31.020  43.477   1.914
32626W        W91887  11.838  42.284  10.043
32627W        W91888  30.442  37.499  12.854
32628W        W91889  26.112  38.406   1.901
32629W        W91890  37.382   8.265  11.536
32630W        W91891   3.318  36.994   1.764
32631W        W91892   5.228  22.023   1.262
32632W        W91893  34.615  11.713   1.732
32633W        W91894  19.078   7.886   2.702
32634W        W91895  13.183  44.895  12.058
32635W        W91896   0.832  36.448   0.800
32636W        W91897  44.921  11.294  11.493
32637W        W91898  12.785   2.850   3.834
32638W        W91899  43.800  12.331   1.808
32639W        W91900   1.761  35.866   0.956
32640W        W91901  35.474  27.968   3.172
32641W        W91902  33.562  18.737  13.839
32642W        W91903  34.600  24.087  13.974
32643W        W91904  22.164  18.057   0.319
32644W        W91905  36.929  37.345   4.115
32645W        W91906  42.366  27.555  14.019
32646W        W91907  34.947   7.789  11.000
32647W        W91908  34.509   7.670   3.235
32648W        W91909  19.729  23.695  10.952
32649W        W91910  41.825  29.163   1.886
32650W        W91911  25.162  21.524  14.970
32651W        W91912  29.986  15.652   1.287
32652W        W91913  14.319  37.521   2.801
32653W        W91914  22.152  30.113   0.843
32654W        W91915  44.933  36.473   2.255
32655W        W91916  27.028   5.832  10.427
32656W        W91917  27.621   9.251   0.346
32657W        W91918  24.715  31.640   3.146
32658W        W91919  34.599  18.239   0.300
32659W        W91920   1.372  39.889   4.266
32660W        W91921  40.386  24.217  10.595
32661W        W91922  15.110  21.613   9.558
32662W        W91923  16.289  35.369  12.526
32663W        W91924  43.766  17.607   2.843
32664W        W91925  19.172  23.997   4.333
32665W        W91926   6.864  29.961   2.268
32666W        W91927   1.876  20.703  12.483
32667W        W91928  14.725  10.718  13.489
32668W        W91929  31.616  21.042  12.030
32669W        W91930  29.457  28.487  12.826
32670W        W91931  22.626  23.129  11.071
32671W        W91932  13.668   2.949  12.354
32672W        W91933   3.858   4.381  11.055
32673W        W91934  35.048   9.204   0.842
32674W        W91935  42.335   4.423   1.292
32675W        W91936  22.125   8.298  12.913
32676W        W91937  15.658  43.459  13.954
32677W        W91938   3.794  38.533   2.364
32678W        W91939  22.709   1.951   2.663
32679W        W91940  34.450  20.529   0.374
32680W        W91941   0.333  39.320  12.343
32681W        W91942  16.144  24.685  14.876
32682W        W91943  29.092  15.215  11.049
32683W        W91944  20.646   7.820   0.914
32684W        W91945  42.844   8.208  13.940
32685W        W91946  26.115  25.165   0.306
32686W        W91947  16.711   3.363   1.222
32687W        W91948  15.625  21.037  14.431
32688W        W91949  10.710  41.852   3.353
32689W        W91950  14.313  34.428   3.269
32690W        W91951  26.030  14.187  14.807
32691W        W91952   6.806  25.146  14.789
32692W        W91953  33.974  23.675   3.847
32693W        W91954   0.431   0.830  11.989
32694W        W91955   2.866  39.987   0.769
32695W        W91956  31.005  33.102   2.349
32696W        W91957  41.845  14.135   4.680
32697W        W91958  25.014   2.882   0.339
32698W        W91959  22.246  17.274  11.421
32699W        W91960  17.204  26.150   2.863
32700W        W91961  17.735  35.081  14.349
32701W        W91962  38.850  13.647  10.052
32702W        W91963  28.668   1.934   5.105
32703W        W91964  16.778  12.629   3.684
32704W        W91965   3.942  14.602  11.952
32705W        W91966  33.415  40.827   0.369
32706W        W91967  10.168  39.477  11.094
32707W        W91968  38.961  43.011  13.960
32708W        W91969  43.295  18.135   5.184
32709W        W91970  10.705  35.033   0.447
32710W        W91971  30.496  14.780  11.905
32711W        W91972  33.898   1.418  14.513
32712W        W91973  43.971   2.466  11.464
32713W        W91974   6.202  21.194   0.930
32714W        W91975  41.950  17.724   4.803
32715W        W91976  14.629  16.752   0.268
32716W        W91977   7.179  31.642  13.929
32717W        W91978  29.096  10.384  11.610
32718W        W91979   3.266  16.221  12.921
32719W        W91980  40.000   4.703  13.511
32720W        W91981  31.572   3.375   3.735
32721W        W91982  20.566  20.593   3.259
32722W        W91983  14.137   6.357  14.366
32723W        W91984  14.160  43.890   0.838
32724W        W91985  26.670  30.650  10.017
32725W        W91986  42.509   1.918   0.815
32726W        W91987  42.506  38.067  14.008
32727W        W91988  17.085  44.493  14.765
32728W        W91989  30.516  22.099   2.232
32729W        W91990   3.452  28.643  14.864
32730W        W91991  33.534  35.965  10.442
32731W        W91992  36.423  37.566   3.287
32732W        W91993  12.669   8.310   2.374
32733W        W91994   2.954   5.704  11.387
32734W        W91995   6.707   8.771   1.712
32735W        W91996   4.761  28.512  10.989
32736W        W91997  20.080  31.523   0.918
32737W        W91998   5.756  24.107   4.600
32738W        W91999  43.412  34.537  14.767
32739W        W92000   4.882  42.282  10.980
32740W        W92001  28.937   1.413  11.936
32741W        W92002  31.080   3.934   3.221
32742W        W92003  39.029  42.779  14.423
32743W        W92004  13.245  16.196  12.570
32744W        W92005  19.704  13.186  14.984
32745W        W92006   7.187   5.344  12.455
32746W        W92007   3.948  26.973   1.282
32747W        W92008  26.488  35.923  14.808
32748W        W92009  34.933  20.767  13.806
32749W        W92010   5.829  18.779   2.333
32750W        W92011  37.459  24.592  12.039
32751W        W92012  11.238  24.170  13.998
32752W        W92013  21.597  15.578  13.054
32753W        W92014  19.554  27.540  10.489
32754W        W92015  27.950  36.437  13.880
32755W        W92016  23.190   5.206  11.526
32756W        W92017   3.332  35.990   0.244
32757W        W92018  15.158  11.236  13.342
32758W        W92019  23.581  15.314   2.267
32759W        W92020  15.264  33.599  12.482
32760W        W92021  30.465  25.188  14.897
32761W        W92022  15.215  15.303   0.811
32762W        W92023  26.026  36.989   0.733
32763W        W92024  35.007  20.266   0.764
32764W        W92025   5.230  38.048  10.461
32765W        W92026  34.116   2.351   2.715
32766W        W92027   6.904   0.394  10.460
32767W        W92028  22.569   9.649  12.093
32768W        W92029  29.010  24.708   3.829
32769W        W92030  11.640   2.316   0.807
32770W        W92031  43.846   4.267   0.965
32771W        W92032  11.713  20.250  13.312
32772W        W92033  27.515  29.448   0.773
32773W        W92034  44.758  14.789  10.609
32774W        W92035  35.585  30.604   1.327
32775W        W92036   7.189  27.560  11.397
32776W        W92037  30.431   2.925  14.950
32777W        W92038   1.304  11.328   0.734
32778W        W92039  31.614  18.157   4.118
32779W        W92040  37.859  41.842   2.694
32780W        W92041  34.934  39.063  11.483
32781W        W92042  11.794  22.078   4.339
32782W        W92043  28.555  25.126  12.829
32783W        W92044   9.193  12.136  13.506
32784W        W92045  40.324  34.564  11.517
32785W        W92046  41.485   8.684   3.785
32786W        W92047  30.107  26.042   0.261
32787W        W92048  30.098  14.679  13.505
32788W        W92049  41.040  14.279   2.791
32789W        W92050  30.134  10.169   2.890
32790W        W92051  16.741  25.207   4.791
32791W        W92052  25.143  27.191  14.983
32792W        W92053  41.382  12.611  13.430
32793W        W92054  23.063   4.436  14.412
32794W        W92055  17.614   0.289  10.632
32795W        W92056  29.028  16.605   0.468
32796W        W92057  40.360  36.584  10.543
32797W        W92058   8.343  37.535   2.274
32798W        W92059   8.302  32.079   1.851
32799W        W92060   9.717  20.746   2.883
32800W        W92061  33.494  21.758  12.090
32801W        W92062  23.060  16.647  11.373
32802W        W92063  26.038  40.529  12.434
32803W        W92064  30.413  33.931   0.317
32804W        W92065  30.614  22.630   1.435
32805W        W92066   6.809  44.985  12.390
32806W        W92067  16.782  27.483   0.788
32807W        W92068  25.613  35.384  12.437
32808W        W92069  13.245   0.307  12.476
32809W        W92070  28.080  26.187  12.843
32810W        W92071  31.507  20.182   3.813
32811W        W92072   2.418  43.786  11.371
32812W        W92073   0.447  22.634   3.342
32813W        W92074  13.746  35.855  13.442
32814W        W92075  43.510   3.261   5.189
32815W        W92076  21.244   0.769   0.311
32816W        W92077  13.645   9.289  13.462
32817W        W92078  31.910   2.248   1.296
32818W        W92079  38.948  31.500  12.366
32819W        W92080  15.697   6.832  14.364
32820W        W92081  28.956   7.250  12.072
32821W        W92082  38.329   6.776   1.896
32822W        W92083  29.956  27.639  11.108
32823W        W92084  28.943  12.230   3.804
32824W        W92085  43.853  43.482  10.913
32825W        W92086   6.699  15.145  12.086
32826W        W92087  43.882   3.870   3.762
32827W        W92088  13.688  15.202  12.913
32828W        W92089  12.757  43.479  11.530
32829W        W92090   7.799  40.015   1.273
32830W        W92091  41.797   4.734   1.751
32831W        W92092   6.820  44.280  13.370
32832W        W92093  12.639  12.279  13.494
32833W        W92094  22.030  22.104   2.236
32834W        W92095  15.146  23.121  11.394
32835W        W92096   9.709  20.221   0.416
32836W        W92097   2.281  30.079  10.972
32837W        W92098  29.065  22.681  11.076
32838W        W92099  14.244  22.120   3.300
32839W        W92100   2.799  21.056  12.061
32840W        W92101  35.568  44.791   1.881
32841W        W92102   1.949  22.508  14.845
32842W        W92103  13.734  26.095   1.795
32843W        W92104  28.993   4.724  10.894
32844W        W92105  25.969  26.483  13.926
32845W        W92106  10.282  18.072  10.889
32846W        W92107  26.025  22.647   3.768
32847W        W92108  22.736   5.278  12.527
32848W        W92109  39.493  15.713  13.547
32849W        W92110  28.064  19.183  13.864
32850W        W92111  20.168   8.742   2.225
32851W        W92112  30.567  26.591  11.926
32852W        W92113  37.072   4.935   0.924
32853W        W92114   0.801  12.770  13.841
32854W        W92115  35.395  25.708   1.731
32855W        W92116   1.293   4.792  11.029
32856W        W92117  33.545  22.061   3.823
32857W        W92118  20.617  17.242   1.227
32858W        W92119  26.586  33.412   5.316
32859W        W92120  21.023   8.857   3.834
32860W        W92121  28.625  34.586   5.603
32861W        W92122   0.862  32.957   4.120
32862W        W92123  37.529   2.870  12.878
32863W        W92124  28.971  38.032   2.288
32864W        W92125  22.535   6.292   3.652
32865W        W92126   0.369  16.308   3.818
32866W        W92127  15.688  14.280   3.796
32867W        W92128  33.539  20.565   4.281
32868W        W92129  22.583  40.818  11.611
32869W        W92130  32.520   7.327  14.806
32870W        W92131   0.861   0.901   1.699
32871W        W92132   5.334  12.791   3.671
32872W        W92133  33.971  17.634  12.469
32873W        W92134  20.523  23.997  11.127
32874W        W92135   8.728  13.337   2.898
32875W        W92136   2.825  12.729   2.878
32876W        W92137  10.656  25.644   1.359
32877W        W92138  44.876  37.346  10.924
32878W        W92139  38.441  25.966   0.871
32879W        W92140  12.677   5.269   4.639
32880W        W92141  44.436   7.407   0.850
32881W        W92142  42.929  20.586  11.411
32882W        W92143  19.728   1.856   1.717
32883W        W92144   7.261   0.382   3.207
32884W        W92145   5.731  26.116   2.855
32885W        W92146   3.924  40.898  14.342
32886W        W92147  35.893  31.405   0.445
32887W        W92148  39.319  40.430  14.976
32888W        W92149  27.678  44.307   1.757
32889W        W92150  15.698  11.857  14.787
32890W        W92151  16.238  19.098   3.717
32891W        W92152  42.371  17.157   0.457
32892W        W92153  16.109  17.179  13.379
32893W        W92154   9.255  17.069  13.851
32894W        W92155  23.554   4.872  11.406
32895W        W92156  10.325  35.921  14.926
32896W        W92157  44.789   9.678  14.818
32897W        W92158   7.701   5.781   3.656
32898W        W92159  27.635   5.891  14.960
32899W        W92160  27.604  32.416  12.891
32900W        W92161  10.143  16.125   2.414
32901W        W92162  20.069  38.013  12.881
32902W        W92163  21.694  33.554  14.032
32903W        W92164  16.182  37.851  14.337
32904W        W92165  33.890  43.973  13.340
32905W        W92166   6.811  16.234  14.503
32906W        W92167   3.455   6.260   2.858
32907W        W92168   4.210  40.941  12.439
32908W        W92169  41.011  36.859  14.481
32909W        W92170   0.350  32.413  11.058
32910W        W92171   3.220  43.353   4.609
32911W        W92172  13.707  32.446   3.861
32912W        W92173  10.707  44.293   0.817
32913W        W92174  34.020  15.163   4.341
32914W        W92175  37.450  10.870   1.885
32915W        W92176   7.203  23.072   4.682
32916W        W92177  24.603   2.297  14.946
32917W        W92178  38.844   2.775   2.874
32918W        W92179  39.332  11.251   1.758
32919W        W92180   9.206   2.756  12.504
32920W        W92181  11.672  28.009  14.352
32921W        W92182  22.126  23.149  12.404
32922W        W92183   2.942  28.522   3.326
32923W        W92184  40.976   1.303  14.451
32924W        W92185  35.451  22.680   3.314
32925W        W92186   7.278  17.641   4.716
32926W        W92187  13.645  24.134  13.981
32927W        W92188  25.496  22.581   0.761
32928W        W92189   4.270  42.435  14.898
32929W        W92190  30.518  22.067  12.947
32930W        W92191  24.210   3.759   4.794
32931W        W92192  18.665  25.118   4.689
32932W        W92193   2.415  16.230  14.847
32933W        W92194  13.310  27.631   2.769
32934W        W92195  10.225  33.003   4.757
32935W        W92196  17.763   8.404  12.914
32936W        W92197   5.758  24.720  12.579
32937W        W92198   9.181   1.750   1.294
32938W        W92199  25.708  12.181  13.518
32939W        W92200  37.465  39.403   4.260
32940W        W92201  18.646  29.503   0.769
32941W        W92202  44.298  23.494   1.374
32942W        W92203  26.576  13.187  12.375
32943W        W92204  24.504  11.719  14.329
32944W        W92205  13.691  22.032  12.056
32945W        W92206  39.404   5.925   3.359
32946W        W92207  31.521  37.044  10.416
32947W        W92208  43.410  19.662   5.272
32948W        W92209  39.441  42.013  14.794
32949W        W92210  44.757  38.505  11.441
32950W        W92211  41.489  43.483  10.979
32951W        W92212  24.098  24.093  10.135
32952W        W92213  27.491   9.836  11.019
32953W        W92214  23.558  19.113  12.913
32954W        W92215  12.817  39.031   4.207
32955W        W92216  35.955  22.535   4.292
32956W        W92217  43.292   1.360  12.353
32957W        W92218  18.572   6.347   2.265
32958W        W92219  19.645  28.110   5.162
32959W        W92220  38.015  37.551   3.769
32960W        W92221  22.552  42.426  14.386
32961W        W92222  29.132  31.055  10.620
32962W        W92223  29.463  26.178   3.364
32963W        W92224  32.888  35.915  10.635
32964W        W92225  27.569   1.879  12.087
32965W        W92226  30.109  39.466  14.513
32966W        W92227   4.216  14.284   3.814
32967W        W92228  43.491  41.340  13.372
32968W        W92229  12.670  44.452  14.814
32969W        W92230  28.114  42.493  14.021
32970W        W92231  34.991  31.138  10.566
32971W        W92232  12.168  36.378  11.094
32972W        W92233  43.989  30.586   3.209
32973W        W92234  16.643  20.232  14.813
32974W        W92235   4.289  44.488   4.751
32975W        W92236  23.716   3.841  14.768
32976W        W92237  29.092  25.530   0.842
32977W        W92238  18.678   1.895   3.318
32978W        W92239  24.685  27.103   1.842
32979W        W92240   8.346   5.256  14.287
32980W        W92241  11.256  28.970  14.278
32981W        W92242  27.647  35.404   1.823
32982W        W92243  23.659  33.940   4.160
32983W        W92244  23.678   6.812   0.351
32984W        W92245  25.661   4.313   1.348
32985W        W92246  34.457  16.663   1.854
32986W        W92247  37.007  16.086  11.416
32987W        W92248  13.734  17.185   1.933
32988W        W92249  24.556  17.742   4.246
32989W        W92250   5.785  10.819  10.544
32990W        W92251  34.011  14.217   4.333
32991W        W92252  19.079  40.412   4.277
32992W        W92253   2.767   7.725  10.619
32993W        W92254  18.764   9.346   3.776
32994W        W92255  23.176   0.338  13.940
32995W        W92256   6.363  17.181  11.103
32996W        W92257  22.522  19.579   3.169
32997W        W92258   9.170   7.886  13.911
32998W        W92259  29.442  13.140  14.463
32999W        W92260  26.020  12.334   0.359
33000W        W92261  34.045  22.517  10.902
33001W        W92262   0.808  20.695   0.264
33002W        W92263  36.027  21.583  14.961
33003W        W92264  36.410   0.369   0.400
33004W        W92265  19.080  41.526   1.228
33005W        W92266  26.133  36.912  12.971
33006W        W92267  14.641  25.598   3.357
33007W        W92268   4.938  16.280   1.257
33008W        W92269  12.816  16.237  14.302
33009W        W92270  27.515  10.168  11.460
33010W        W92271  32.605  26.594  12.512
33011W        W92272  16.586  16.680  13.008
33012W        W92273   1.342  22.581   2.235
33013W        W92274  21.651  44.305   2.822
33014W        W92275  18.647  12.617  11.879
33015W        W92276  35.934  17.217   2.753
33016W        W92277   5.364   0.802   0.836
33017W        W92278  17.068  41.408   1.230
33018W        W92279   3.382   0.775   4.148
33019W        W92280   7.810  28.650   3.704
33020W        W92281  21.560   6.196  13.904
33021W        W92282  14.137  37.495   4.790
33022W        W92283   5.354  30.147   2.690
33023W        W92284  29.999   4.356   1.807
33024W        W92285  20.569  29.968  14.392
33025W        W92286  14.176  26.035  13.877
33026W        W92287  31.593  11.283  14.857
33027W        W92288  26.191   4.759   2.770
33028W        W92289  30.154  30.472   3.669
33029W        W92290  17.722  20.255   2.352
33030W        W92291   2.807  21.634   4.147
33031W        W92292  15.313  28.491  14.461
33032W        W92293  31.536  37.502  12.439
33033W        W92294  32.595  29.089  11.424
33034W        W92295  15.227  39.018  14.923
33035W        W92296   8.699  44.412   2.295
33036W        W92297  44.762  33.112   2.368
33037W        W92298  11.761  29.583  14.463
33038W        W92299  38.980  23.665  10.959
33039W        W92300   8.400  18.573   1.356
33040W        W92301  34.478  10.728  12.841
33041W        W92302  41.913   3.343  12.010
33042W        W92303   4.790  14.788  12.390
33043W        W92304  31.566   7.699   3.382
33044W        W92305  18.141  18.683  14.998
33045W        W92306  38.012  18.220   0.382
33046W        W92307  31.510  28.147   4.230
33047W        W92308  21.755  22.187  11.065
33048W        W92309  41.887  20.740  11.455
33049W        W92310  31.116  11.315   1.346
33050W        W92311  25.480  19.746   4.191
33051W        W92312   3.387   8.258  13.362
33052W        W92313   7.725  43.778   3.195
33053W        W92314  28.034  33.432  12.867
33054W        W92315  22.115  24.019  10.909
33055W        W92316  18.094  44.386   4.765
33056W        W92317   5.768  37.491   1.770
33057W        W92318   0.407   3.458   1.302
33058W        W92319  19.076   9.155  12.989
33059W        W92320  12.774  37.346   3.289
33060W        W92321  29.609  41.948  10.618
33061W        W92322   5.249  29.943  14.015
33062W        W92323  28.014  13.164   3.779
33063W        W92324   8.172  16.297   4.614
33064W        W92325  15.237   1.793  14.506
33065W        W92326   1.445  26.598  11.433
33066W        W92327  39.531   1.910  13.893
33067W        W92328  16.252   8.326  14.507
33068W        W92329  32.591  25.053   0.826
33069W        W92330  38.889   3.778   2.215
33070W        W92331  42.958  40.942   2.751
33071W        W92332  43.801  39.878   3.774
33072W        W92333   6.210  15.148   4.707
33073W        W92334   2.738  41.948  11.590
33074W        W92335   4.786   2.880  12.987
33075W        W92336  42.855   1.465  11.996
33076W        W92337  23.498  14.212  14.012
33077W        W92338  22.031   5.287   2.748
33078W        W92339   8.358  41.355  10.896
33079W        W92340  36.069   7.869  14.398
33080W        W92341  40.843  11.330   2.311
33081W        W92342  40.343  31.144   0.370
33082W        W92343  15.755   6.881  14.870
33083W        W92344  29.431  22.070   2.744
33084W        W92345  26.473  27.081  13.396
33085W        W92346   2.349   4.728   2.711
33086W        W92347  44.377   4.796   2.745
33087W        W92348  20.194   1.928   1.825
33088W        W92349   6.191  12.142  14.284
33089W        W92350  36.867  38.367  11.498
33090W        W92351  44.407  40.442  12.579
33091W        W92352   1.313  44.770  11.527
33092W        W92353  24.563  43.483  14.377
33093W        W92354   5.224   8.312  12.872
33094W        W92355   8.387  36.876   1.715
33095W        W92356  24.506  11.175  11.445
33096W        W92357   3.912  16.642   2.210
33097W        W92358   6.828  42.314  12.042
33098W        W92359  11.865  32.024  12.090
33099W        W92360  31.410  25.547  12.351
33100W        W92361   2.827  32.512   4.598
33101W        W92362  14.145   3.354   0.375
33102W        W92363  12.350   0.326   1.899
33103W        W92364  15.721   7.737   4.743
33104W        W92365  21.081  22.163  11.577
33105W        W92366   4.700  25.637   1.811
33106W        W92367  12.644   2.460   2.834
33107W        W92368  10.814  36.859  10.513
33108W        W92369  19.271   7.301  14.491
33109W        W92370  30.138  27.013  10.525
33110W        W92371  18.776  36.498   0.318
33111W        W92372  13.622  32.137   3.384
33112W        W92373  25.485  12.322  14.448
33113W        W92374  19.271  12.685  13.435
33114W        W92375  36.863  24.032   3.310
33115W        W92376  24.650   7.367  12.052
33116W        W92377  39.545  18.267  12.066
33117W        W92378  25.495   0.260  10.421
33118W        W92379  22.711  39.957   2.249
33119W        W92380  10.849  13.348  12.025
33120W        W92381  10.200  38.562  14.924
33121W        W92382  43.506  17.159  12.485
33122W        W92383  31.008  41.418  11.077
33123W        W92384  39.050  38.515   1.356
33124W        W92385  20.547  13.623   3.632
33125W        W92386  18.263   5.371  12.834
33126W        W92387  39.054  29.477   3.682
33127W        W92388  38.449  16.118   2.402
33128W        W92389  13.319  42.307   0.842
33129W        W92390  39.545  33.486  14.028
33130W        W92391  31.066   1.897  13.538
33131W        W92392  34.104  33.558   3.704
33132W        W92393   7.270  29.944   0.807
33133W        W92394  11.312  30.046  13.479
33134W        W92395  26.459   9.716  14.824
33135W        W92396   5.901  24.689  10.454
33136W        W92397   2.380   8.165   2.186
33137W        W92398  27.099  11.820   1.829
33138W        W92399   4.888  22.052  11.435
33139W        W92400  13.693  35.500   3.793
33140W        W92401  25.166  32.568   2.388
33141W        W92402   7.194  21.717   3.739
33142W        W92403  23.672  21.137   4.138
33143W        W92404  27.605  39.469   2.753
33144W        W92405  41.787  13.172   4.196
33145W        W92406  16.137  18.196  13.512
33146W        W92407  22.684  11.299  10.525
33147W        W92408  35.946  42.456  12.957
33148W        W92409  22.070  31.122  10.929
33149W        W92410  27.179  23.112   4.765
33150W        W92411  29.470   3.316   2.701
33151W        W92412  30.148  41.013  14.949
33152W        W92413  42.978  27.483   2.320
33153W        W92414  42.960   9.394   1.277
33154W        W92415   6.331   5.408   3.222
33155W        W92416  13.775  37.876   4.720
33156W        W92417  13.806  43.911   3.366
33157W        W92418   4.296  19.206   2.413
33158W        W92419  36.892  28.621   1.786
33159W        W92420  36.470  30.113   4.652
33160W        W92421   2.458  10.238   1.328
33161W        W92422   6.738  44.362   0.328
33162W        W92423  16.099  28.575  14.475
33163W        W92424   6.305  18.762   1.387
33164W        W92425  11.732  14.278   2.703
33165W        W92426  18.148   2.786   1.751
33166W        W92427  28.609  42.510  13.826
33167W        W92428  11.253  12.174   4.144
33168W        W92429   1.735  22.532   0.935
33169W        W92430   5.696   2.964   1.451
33170W        W92431   2.384  36.091  11.899
33171W        W92432  27.194  43.996   3.800
33172W        W92433  24.576  22.190   5.288
33173W        W92434  32.423  33.576  10.645
33174W        W92435  22.207  10.265  13.945
33175W        W92436  31.106  34.050   2.322
33176W        W92437  41.358  44.467  11.562
33177W        W92438  31.511   5.260   4.687
33178W        W92439  43.956   8.742  12.849
33179W        W92440  31.079  42.788   3.323
33180W        W92441  22.583  32.013   1.338
33181W        W92442  19.051  35.597   3.658
33182W        W92443   8.712  30.004  11.897
33183W        W92444  32.936  27.479   0.825
33184W        W92445  35.038  19.628   0.346
33185W        W92446   1.448  40.535  12.957
33186W        W92447  44.875  21.245   1.330
33187W        W92448  27.601  10.150   3.801
33188W        W92449  15.188  24.210  10.459
33189W        W92450  30.939  38.365  12.831
33190W        W92451  35.531  23.013  15.000
33191W        W92452  10.830  18.610  14.359
33192W        W92453  43.392   8.715   3.211
33193W        W92454  13.811  35.421  13.997
33194W        W92455  39.522   7.413  12.046
33195W        W92456   0.915  24.708   0.451
33196W        W92457  34.985  30.133  12.526
33197W        W92458   5.383  35.899   0.349
33198W        W92459  39.462   4.902  14.286
33199W        W92460  17.167  33.112  10.546
33200W        W92461  19.178  39.386   3.788
33201W        W92462  24.583   2.331  10.962
33202W        W92463  17.087  39.936  12.380
33203W        W92464   5.197  16.143   2.890
33204W        W92465   7.884  19.177   3.656
33205W        W92466  38.928  15.115  10.942
33206W        W92467  31.076   0.403  11.905
33207W        W92468  27.660   9.229   0.941
33208W        W92469   9.268  16.285   1.871
33209W        W92470  31.420  20.588  12.096
33210W        W92471   4.406  40.392  10.506
33211W        W92472  14.739  23.668  11.455
33212W        W92473  36.405  44.281   2.692
33213W        W92474   1.346  24.007  14.886
33214W        W92475  32.569  28.484  11.424
33215W        W92476  44.498  28.939   4.312
33216W        W92477  28.496  39.888   4.647
33217W        W92478  11.195   2.797  11.428
33218W        W92479   8.795  17.744  13.880
33219W        W92480  22.052  20.683  13.419
33220W        W92481  38.356   6.901   4.228
33221W        W92482  26.556   0.424  14.822
33222W        W92483  35.510  27.070  10.417
33223W        W92484  35.475  15.621   4.669
33224W        W92485  25.612  11.348  12.346
33225W        W92486  29.555   8.720  14.967
33226W        W92487   5.243  42.428  10.934
33227W        W92488  20.259   2.814  11.041
33228W        W92489  20.651   1.286   0.818
33229W        W92490  29.477  28.681   4.809
33230W        W92491  29.445  14.811  14.487
33231W        W92492  38.399  16.168  13.988
33232W        W92493  32.963   5.333   1.376
33233W        W92494  43.892  33.070   3.849
33234W        W92495   7.218  12.615   0.891
33235W        W92496  11.859   7.670   4.221
33236W        W92497  23.131  22.087  14.786
33237W        W92498   5.704  17.141   1.297
33238W        W92499  29.964   1.969   0.423
33239W        W92500  37.376  18.592   4.809
33240W        W92501  31.633  25.112   0.768
33241W        W92502  43.407  11.859   9.942
33242W        W92503   4.703  19.732  13.527
33243W        W92504  23.212  41.327   3.157
33244W        W92505  33.989  19.043  10.405
33245W        W92506  11.632  28.990   1.863
33246W        W92507  11.630   7.780   5.104
33247W        W92508   5.819  36.066  13.893
33248W        W92509  36.502  26.562   2.348
33249W        W92510   0.835  33.422   3.737
33250W        W92511  18.594  30.001   1.386
33251W        W92512  44.970  35.854   1.926
33252W        W92513  17.213  34.089   4.254
33253W        W92514  38.062   3.896   2.281
33254W        W92515  21.090  17.634  11.436
33255W        W92516  13.676  44.401  14.000
33256W        W92517  31.929  17.671  11.051
33257W        W92518  26.618  32.015   4.802
33258W        W92519  41.829  25.070   4.132
33259W        W92520  26.113   8.185  10.994
33260W        W92521   4.749  42.791  14.000
33261W        W92522  29.603  34.422   1.348
33262W        W92523   8.279  19.771  14.299
33263W        W92524  38.956  26.956   1.709
33264W        W92525  30.497   9.707   3.686
33265W        W92526  26.969  13.114  14.375
33266W        W92527  35.081  27.949   4.730
33267W        W92528   4.763   4.448   3.197
33268W        W92529   8.654  41.348  14.285
33269W        W92530  31.581   0.793   4.164
33270W        W92531  38.857  27.686  12.904
33271W        W92532   6.276  36.415   1.709
33272W        W92533  30.142   2.265  13.043
33273W        W92534  17.670  23.518   0.874
33274W        W92535  39.934  30.543   1.852
33275W        W92536  31.978  21.152   0.416
33276W        W92537   3.856   3.306   4.215
33277W        W92538  34.102  20.264   2.902
33278W        W92539  10.671   0.915  10.895
33279W        W92540  44.450  32.533   1.778
33280W        W92541  11.819  41.862  11.101
33281W        W92542  33.453   7.402   0.844
33282W        W92543  43.947  43.894  13.354
33283W        W92544  17.655  17.565  12.905
33284W        W92545   4.398  34.909   4.780
33285W        W92546  34.401  38.950   4.681
33286W        W92547  37.904  37.947  14.382
33287W        W92548  13.835  25.659   4.830
33288W        W92549  39.353  25.515  13.456
33289W        W92550  36.865  14.232  12.076
33290W        W92551  28.642  28.050  14.959
33291W        W92552   8.356   9.781  12.441
33292W        W92553  15.205   7.291  11.067
33293W        W92554  36.562  41.920   3.630
33294W        W92555  13.321  11.686   3.189
33295W        W92556  30.653   2.819   0.726
33296W        W92557   6.680  39.828   1.760
33297W        W92558  19.727  28.575   3.676
33298W        W92559   3.949   6.258  13.475
33299W        W92560   4.898  22.154   3.738
33300W        W92561   7.267  38.417   3.852
33301W        W92562  28.648   7.312  13.543
33302W        W92563  35.602  19.110   1.869
33303W        W92564   3.339  32.517  10.538
33304W        W92565  26.639  30.494   5.141
33305W        W92566  26.168  34.483  14.323
33306W        W92567   6.895  34.552   2.384
33307W        W92568  29.939  35.042   2.383
33308W        W92569  37.016   6.690  11.430
33309W        W92570  31.440  29.595  11.958
33310W        W92571  41.439  34.490   1.823
33311W        W92572  32.613  42.866   2.328
33312W        W92573  13.739  43.351  14.341
33313W        W92574   1.943   2.903   1.809
33314W        W92575  14.605   8.398  11.493
33315W        W92576   5.373  40.514   3.379
33316W        W92577  21.524  32.110   1.932
33317W        W92578   3.421   5.337   0.744
33318W        W92579  39.892  10.674  12.865
33319W        W92580   2.435   5.280   0.267
33320W        W92581  28.042   4.206   2.694
33321W        W92582   4.358  30.644   3.241
33322W        W92583  21.645  34.095   0.345
33323W        W92584  13.248  25.118  13.525
33324W        W92585   0.893  40.989  11.585
33325W        W92586  43.903   8.865   2.797
33326W        W92587  19.744  36.870  13.307
33327W        W92588  11.148   8.779  12.089
33328W        W92589  22.566   5.750  13.821
33329W        W92590  30.598  42.903  14.934
33330W        W92591  16.097  12.226  11.537
33331W        W92592   4.423  27.597  12.564
33332W        W92593  30.099   9.303   0.373
33333W        W92594  29.958  41.822  11.471
33334W        W92595  37.567   1.290   0.245
33335W        W92596  24.052  27.660  14.958
33336W        W92597  21.758  11.180   1.303
33337W        W92598  28.590  25.561   0.322
33338W        W92599  23.560   0.802  13.919
33339W        W92600  25.539  24.537  14.361
33340W        W92601  10.338  22.038   0.897
33341W        W92602  35.362  23.544   4.774
33342W        W92603  31.064  42.497  14.275
33343W        W92604  13.164  21.119  12.580
33344W        W92605   4.791  39.926   1.383
33345W        W92606  20.758   9.371   4.802
33346W        W92607  17.126   6.372   2.882
33347W        W92608  26.970  37.541   0.821
33348W        W92609   4.791  11.672  14.786
33349W        W92610  43.317   0.343   3.186
33350W        W92611  40.318   9.210   2.717
33351W        W92612  26.613  36.057   2.900
33352W        W92613  26.199  28.068   0.923
33353W        W92614  13.682  39.941  12.351
33354W        W92615  10.791  10.245  10.992
33355W        W92616  42.938  39.377   3.370
33356W        W92617   7.754  28.452  11.108
33357W        W92618  23.203  14.105   0.459
33358W        W92619  18.621  36.072  12.501
33359W        W92620  15.254  30.425   5.586
33360W        W92621  30.587  34.887   2.410
33361W        W92622   8.804  38.038  14.424
33362W        W92623  32.515   3.364  11.408
33363W        W92624  12.825  19.535   3.647
33364W        W92625  12.853  23.021  10.428
33365W        W92626   9.691  32.612   1.755
33366W        W92627  36.016   0.464  11.903
33367W        W92628  43.437  14.595   2.681
33368W        W92629  21.530   2.450   2.272
33369W        W92630  22.178  39.551   3.805
33370W        W92631   5.844  27.593   2.899
33371W        W92632  18.726   2.932  12.906
33372W        W92633  15.327  24.186   2.890
33373W        W92634  20.753  10.379  14.304
33374W        W92635   6.919  18.086   0.462
33375W        W92636   3.334   4.376   2.312
33376W        W92637  18.636  19.562   5.093
33377W        W92638  12.203  35.397  12.052
33378W        W92639  34.882  35.927   4.716
33379W        W92640  31.439  29.046  10.569
33380W        W92641  23.120  22.504  13.501
33381W        W92642  39.368  38.867   4.604
33382W        W92643  44.399   0.253   0.403
33383W        W92644   4.446  26.136   4.117
33384W        W92645  21.125  14.165   4.160
33385W        W92646  28.655  37.914   3.722
33386W        W92647  26.676  20.758  13.913
33387W        W92648  33.122  32.407   1.235
33388W        W92649  38.001  13.678   0.779
33389W        W92650  39.970  24.047  10.999
33390W        W92651  25.660  40.032   4.165
33391W        W92652  24.543  40.493   2.680
33392W        W92653  15.133   6.790  11.024
33393W        W92654  33.903  43.501   0.426
33394W        W92655  20.632  34.905   4.211
33395W        W92656  40.838  31.450  14.973
33396W        W92657  14.224  38.937   3.221
33397W        W92658   7.838  22.153   1.829
33398W        W92659  19.683  11.363   4.731
33399W        W92660  16.188   2.858   4.295
33400W        W92661  21.523  27.460   3.216
33401W        W92662  21.097  21.209   3.277
33402W        W92663  33.477   8.302  12.364
33403W        W92664  27.053  44.338  11.587
33404W        W92665  33.923   0.825   4.641
33405W        W92666  33.026  12.180   3.265
33406W        W92667  33.980  12.698  10.544
33407W        W92668   2.889  35.498   3.269
33408W        W92669  18.573  19.233  14.935
33409W        W92670  19.773  19.712   2.265
33410W        W92671  26.552  40.376  12.453
33411W        W92672  21.017  43.358   4.757
33412W        W92673  25.555  13.643  13.488
33413W        W92674  32.038  27.680  14.771
33414W        W92675   2.227  13.250   1.242
33415W        W92676  27.077  27.159  13.400
33416W        W92677   6.376  14.677  10.442
33417W        W92678  27.638  38.475   4.794
33418W        W92679  30.043  15.648  10.056
33419W        W92680  10.733   0.883  11.391
33420W        W92681   9.172  12.743  13.469
33421W        W92682  42.387   3.283   2.325
33422W        W92683  32.444  29.486   4.685
33423W        W92684  12.217  30.498  12.073
33424W        W92685   0.824   3.367   3.692
33425W        W92686  12.634  36.449   0.730
33426W        W92687  30.001  41.506   0.908
33427W        W92688  14.762  37.944   1.769
33428W        W92689   0.438  36.970   2.362
33429W        W92690   7.718  36.504  12.365
33430W        W92691  17.139  16.643  12.926
33431W        W92692  12.351  22.070  12.035
33432W        W92693  23.561  13.685  11.993
33433W        W92694  25.137  31.899   1.312
33434W        W92695  35.495  30.452   0.966
33435W        W92696  35.937  37.400   0.837
33436W        W92697  16.706  11.723   1.274
33437W        W92698  38.508  32.090  14.915
33438W        W92699  14.230  16.233  10.972
33439W        W92700  26.960  27.942  12.459
33440W        W92701   4.811   8.345   1.411
33441W        W92702  26.079   1.450  12.846
33442W        W92703   0.480  26.460   1.246
33443W        W92704  26.097  42.910   1.748
33444W        W92705   8.348  14.695  11.574
33445W        W92706   8.728  35.065   3.228
33446W        W92707  25.620  30.527  10.052
33447W        W92708  35.986  26.700   3.152
33448W        W92709  43.495  29.523  13.509
33449W        W92710  31.648  14.627   4.257
33450W        W92711   1.432   5.826  11.560
33451W        W92712  40.950  22.528  14.893
33452W        W92713  28.553  19.193   4.631
33453W        W92714   7.227  25.107  14.911
33454W        W92715   5.225  30.135   2.291
33455W        W92716  27.684  16.723   0.914
33456W        W92717  13.210   2.434   5.083
33457W        W92718   8.230  20.256  10.980
33458W        W92719  20.154  31.047  11.126
33459W        W92720  35.858  44.912  14.384
33460W        W92721  22.549  42.324  11.401
33461W        W92722  44.437   3.881   4.138
33462W        W92723  44.008   1.473  13.453
33463W        W92724   6.347  27.157  13.987
33464W        W92725   4.779  32.044  13.482
33465W        W92726   8.304  23.203  14.878
33466W        W92727  30.573  27.505   2.664
33467W        W92728  12.211  30.523   1.796
33468W        W92729   1.464  15.148   4.273
33469W        W92730  27.607   8.867  12.026
33470W        W92731   6.705   6.825  14.020
33471W        W92732  12.683  23.713  11.010
33472W        W92733  12.349  33.407   0.929
33473W        W92734  39.905   6.838   0.365
33474W        W92735  19.565  28.999  14.492
33475W        W92736   3.867  17.226  11.862
33476W        W92737  35.040  36.916   0.312
33477W        W92738  12.300  38.914  10.610
33478W        W92739   5.260   4.909  13.435
33479W        W92740  29.146  11.190  11.085
33480W        W92741   9.211  17.066  11.478
33481W        W92742  15.690  16.648   1.791
33482W        W92743  25.965  35.433   3.825
33483W        W92744  14.282  20.631   1.701
33484W        W92745  32.107   6.232   3.311
33485W        W92746  23.152  42.949  11.558
33486W        W92747  12.754   0.468  13.936
33487W        W92748   4.272  15.627   4.191
33488W        W92749  17.714  16.727   0.855
33489W        W92750  44.770  27.998   2.255
33490W        W92751  12.171  26.640   4.353
33491W        W92752  10.343   3.309   1.798
33492W        W92753  16.720  39.019  11.400
33493W        W92754  13.198  37.569  11.867
33494W        W92755  39.901  41.857   4.629
33495W        W92756  39.412  15.152   0.923
33496W        W92757   2.253  29.547  11.467
33497W        W92758  36.993  32.483   0.774
33498W        W92759   3.925  30.639   1.314
33499W        W92760  37.375  15.213   4.249
33500W        W92761  27.117   4.794  12.352
33501W        W92762   1.433  37.423  12.376
33502W        W92763  42.846   1.424   2.270
33503W        W92764   6.389  41.867  13.052
33504W        W92765  28.969  28.156   1.929
33505W        W92766   5.363   6.314   1.816
33506W        W92767  33.437  29.472   3.276
33507W        W92768  44.899  12.833   4.739
33508W        W92769  30.910   5.387  13.888
33509W        W92770  12.730  31.110  13.959
33510W        W92771   8.734  32.919   4.810
33511W        W92772  12.854  37.444   0.781
33512W        W92773  18.250  32.982  12.487
33513W        W92774   6.301  25.472   2.341
33514W        W92775  17.115  12.696  12.018
33515W        W92776  25.089  10.197  14.942
33516W        W92777  15.257  19.217   2.849
33517W        W92778  36.038  38.052  10.153
33518W        W92779  44.408  21.175   1.750
33519W        W92780  44.848  33.993   0.746
33520W        W92781  38.571  20.130  14.821
33521W        W92782  25.053   4.270   3.715
33522W        W92783  36.524   8.695  10.471
33523W        W92784  32.141  30.617   3.261
33524W        W92785  25.156  29.017   4.605
33525W        W92786  35.066  20.735  14.370
33526W        W92787  17.124  16.619  14.973
33527W        W92788  11.790  39.559   0.907
33528W        W92789  39.314  27.039   3.863
33529W        W92790  15.712  41.953  14.023
33530W        W92791  28.639  17.168  13.947
33531W        W92792   5.285  12.777   2.806
33532W        W92793  27.160  32.972  14.913
33533W        W92794  34.080  35.448   4.753
33534W        W92795  16.088  12.815  14.407
33535W        W92796   5.325  38.070   3.227
33536W        W92797  20.193   3.268  13.429
33537W        W92798  18.052  42.871   1.379
33538W        W92799  22.245  21.746  11.877
33539W        W92800  39.394   4.223  11.965
33540W        W92801  44.956  17.569   1.852
33541W        W92802  25.217   9.854  13.537
33542W        W92803  40.423  26.978  13.362
33543W        W92804   9.738  20.132   4.333
33544W        W92805   6.801  15.255  13.056
33545W        W92806  26.976  25.650  13.839
33546W        W92807  11.630   8.869   1.407
33547W        W92808  25.469   2.349   3.206
33548W        W92809  21.144  34.894  14.341
33549W        W92810  19.182  43.000  12.464
33550W        W92811  19.585   8.277   1.377
33551W        W92812  37.971  42.483   0.770
33552W        W92813  24.164  44.757  10.611
33553W        W92814  36.413  22.121  13.352
33554W        W92815  18.068  37.564  11.599
33555W        W92816  34.099  15.303   5.106
33556W        W92817   3.460  28.610  12.829
33557W        W92818  15.266  19.193   2.270
33558W        W92819  16.577  19.702   3.823
33559W        W92820   1.779  31.629  11.881
33560W        W92821  12.773   1.831   3.695
33561W        W92822  39.048  14.113   4.833
33562W        W92823  21.575  14.315   3.791
33563W        W92824  43.280  17.623  13.503
33564W        W92825   5.256  36.492   4.353
33565W        W92826  39.813  26.458  12.533
33566W        W92827  24.080  25.682  11.586
33567W        W92828  39.877  37.015  11.999
33568W        W92829  14.794  11.700  10.543
33569W        W92830  33.987  38.446   1.923
33570W        W92831  28.607   1.404  11.012
33571W        W92832  31.899  32.001  14.929
33572W        W92833   7.755  26.698   5.160
33573W        W92834  37.403  25.087  13.832
33574W        W92835  32.542   4.848  10.954
33575W        W92836   1.855  41.832  11.518
33576W        W92837  42.373  37.341   0.277
33577W        W92838  33.956   9.194   4.722
33578W        W92839  22.173  25.062  13.521
33579W        W92840  23.064   1.748   1.318
33580W        W92841  38.368   5.298   0.381
33581W        W92842  23.544  34.510   2.798
33582W        W92843   0.399  34.009  11.918
33583W        W92844  30.965  17.627  10.925
33584W        W92845  23.617  22.033  11.394
33585W        W92846   8.796  30.995  14.880
33586W        W92847  40.004  12.800   2.252
33587W        W92848  44.818   1.446  10.935
33588W        W92849  34.555   0.779   0.729
33589W        W92850  21.150   4.891   0.911
33590W        W92851   7.290  43.346  13.426
33591W        W92852  16.775  40.846   2.336
33592W        W92853  39.917   7.712   0.474
33593W        W92854   5.210  22.163  14.398
33594W        W92855  38.884  33.626   2.834
33595W        W92856   4.920  29.116   3.254
33596W        W92857  21.027  33.077   4.269
33597W        W92858  11.372   0.768  10.622
33598W        W92859  21.643  14.103  14.954
33599W        W92860  27.941   5.377   0.402
33600W        W92861  38.029  10.234  10.084
33601W        W92862   5.233  14.796   2.321
33602W        W92863  30.087   8.897  12.419
33603W        W92864  19.648  27.555   3.759
33604W        W92865  33.941  39.540   4.318
33605W        W92866  27.687  40.049  12.850
33606W        W92867   1.782  26.154  14.405
33607W        W92868  40.349  15.754  11.999
33608W        W92869  15.273  29.969  13.915
33609W        W92870  24.977  27.453  11.482
33610W        W92871   3.734  25.162  12.921
33611W        W92872  18.231  23.625  14.868
33612W        W92873  25.602  17.789  13.025
33613W        W92874  28.137   3.811   1.325
33614W        W92875  22.612   2.814  13.903
33615W        W92876  40.453   1.387   0.808
33616W        W92877  27.481  41.305   4.209
33617W        W92878  12.735  30.455  13.340
33618W        W92879  32.441  35.990   2.893
33619W        W92880  11.652  14.234  13.499
33620W        W92881  24.048  28.624   1.387
33621W        W92882   6.227  12.260   1.874
33622W        W92883  16.210  16.162   4.611
33623W        W92884  24.188  13.302   1.791
33624W        W92885  27.999  11.215   4.614
33625W        W92886   7.732  30.117  14.930
33626W        W92887  39.351  14.617  14.934
33627W        W92888   3.445  22.707  13.957
33628W        W92889   9.745  36.494   0.299
33629W        W92890   6.323  20.195   2.398
33630W        W92891  13.782  40.926   3.837
33631W        W92892  14.664  32.121  11.116
33632W        W92893  41.891  22.022   2.766
33633W        W92894  38.378  25.673   0.316
33634W        W92895  18.151  34.995  11.000
33635W        W92896  33.950  12.229  13.308
33636W        W92897  32.611  35.522  12.871
33637W        W92898  28.466  12.314  14.392
33638W        W92899  43.884  29.976  10.604
33639W        W92900  31.561   2.394   3.824
33640W        W92901   2.761  13.158  13.879
33641W        W92902  21.735  30.023  10.611
33642W        W92903  41.528   6.218  13.860
33643W        W92904   4.359  44.983   0.256
33644W        W92905   1.438  39.507  12.962
33645W        W92906  29.459  34.009   0.848
33646W        W92907  31.987  44.495   0.455
33647W        W92908  21.183  40.421  10.946
33648W        W92909  33.063  36.350   4.133
33649W        W92910  29.445   3.797   0.276
33650W        W92911  35.407  34.440  10.035
33651W        W92912  15.205  26.995  11.587
33652W        W92913   7.279   4.374   1.701
33653W        W92914  26.957  10.710  11.595
33654W        W92915  24.526  16.693   0.392
33655W        W92916  42.489  34.373  14.896
33656W        W92917  14.148  40.544   2.316
33657W        W92918   1.318  15.287   3.772
33658W        W92919  42.361  12.736  14.312
33659W        W92920  12.760  44.274   1.791
33660W        W92921  11.225  20.534   0.460
33661W        W92922  34.911  17.143   0.909
33662W        W92923  36.392  13.800   0.341
33663W        W92924  35.904  35.400   2.715
33664W        W92925  21.262   7.872  12.953
33665W        W92926  40.014  36.493   3.358
33666W        W92927   0.472  13.334   4.323
33667W        W92928  32.415  33.925   3.682
33668W        W92929  40.872  38.376  13.988
33669W        W92930  25.090  27.090   2.199
33670W        W92931  36.890  44.885   3.280
33671W        W92932   8.208   6.239   1.271
33672W        W92933   5.726   4.857   4.137
33673W        W92934   4.867  13.846   2.309
33674W        W92935  17.240  43.907  12.090
33675W        W92936  20.618   3.737   0.435
33676W        W92937  39.467  36.085  14.964
33677W        W92938  14.704  35.019   9.931
33678W        W92939  30.573  29.957   1.791
33679W        W92940  42.328   4.840  12.944
33680W        W92941  44.984  13.759  10.955
33681W        W92942  28.024  29.575   3.701
33682W        W92943  12.855   9.386   0.790
33683W        W92944  10.282  24.646  14.362
33684W        W92945  33.959  12.845   2.677
33685W        W92946   2.257   1.452   3.785
33686W        W92947  23.992  44.832   0.849
33687W        W92948  10.228   6.773   3.298
33688W        W92949  33.909  38.070   2.366
33689W        W92950  35.944   5.850   1.750
33690W        W92951  32.085  29.618   1.789
33691W        W92952  14.269  10.354   4.798
33692W        W92953  42.424  36.426   5.303
33693W        W92954  43.844  34.609  14.340
33694W        W92955  38.409  10.835  13.497
33695W        W92956  10.147  14.296  12.986
33696W        W92957   1.444  21.040   2.783
33697W        W92958  31.094  19.207   0.923
33698W        W92959   7.417  28.504   3.316
33699W        W92960  29.175  10.212   3.234
33700W        W92961   8.280  12.680  14.304
33701W        W92962   7.228  10.711   3.788
33702W        W92963  18.612  14.798  14.288
33703W        W92964   4.332  33.420  12.092
33704W        W92965  32.423  35.000   2.762
33705W        W92966  12.847  15.669   3.218
33706W        W92967   3.461  33.552   4.287
33707W        W92968  36.938   4.361  12.835
33708W        W92969  43.437  20.607   1.749
33709W        W92970  23.013  10.714  13.061
33710W        W92971  39.874  15.265   3.848
33711W        W92972  20.197  23.711  12.910
33712W        W92973  12.833  14.662   5.634
33713W        W92974   8.756  28.542   4.600
33714W        W92975  16.178  22.555   0.257
33715W        W92976  25.146  40.305   3.270
33716W        W92977  27.579  39.993  14.782
33717W        W92978  35.371  14.673  13.900
33718W        W92979  18.145  42.892  12.982
33719W        W92980  39.888   2.855   2.788
33720W        W92981   8.718  27.170  11.986
33721W        W92982  38.514  27.044  11.000
33722W        W92983  27.159  29.642   1.258
33723W        W92984  24.531  36.872   2.242
33724W        W92985  27.636  22.213   4.713
33725W        W92986  14.173   4.828  14.947
33726W        W92987  33.519   3.235  11.455
33727W        W92988  29.436  16.752   2.346
33728W        W92989   9.166   4.275  12.033
33729W        W92990  13.629  44.866   0.837
33730W        W92991  12.852  22.582   4.323
33731W        W92992  16.635   6.395  14.351
33732W        W92993  34.415  32.058   4.295
33733W        W92994  43.764  20.161   4.604
33734W        W92995  11.248  41.842   3.309
33735W        W92996  43.805  34.999  11.566
33736W        W92997  19.138   1.467  11.394
33737W        W92998  41.323   0.399   1.360
33738W        W92999  14.760   9.854   0.358
33739W        W93000  14.197  30.131  11.080
33740W        W93001  38.496  38.359  12.511
33741W        W93002  35.933  24.176   2.412
33742W        W93003  35.950  21.177  11.484
33743W        W93004  22.504  42.822  10.559
33744W        W93005   4.264  31.041   4.172
33745W        W93006  20.033  34.581  12.864
33746W        W93007  38.557  30.654   2.788
33747W        W93008  18.297   1.401  14.766
33748W        W93009  12.826  18.553  13.434
33749W        W93010  13.142  40.548   2.286
33750W        W93011  24.086   1.357   0.259
33751W        W93012  14.264  11.305  13.019
33752W        W93013  17.112  37.523  10.913
33753W        W93014  13.212   8.266  10.930
33754W        W93015  17.256  44.445   4.808
33755W        W93016  43.965   7.352   1.378
33756W        W93017  12.311  42.342   0.459
33757W        W93018  16.180   7.791   3.167
33758W        W93019  17.752  12.716   0.437
33759W        W93020  20.711  14.197   0.332
33760W        W93021  28.181  25.569   3.677
33761W        W93022   0.324   7.834   2.292
33762W        W93023  31.633  42.391  13.950
33763W        W93024  30.023   5.367   3.770
33764W        W93025  26.626  30.535   1.754
33765W        W93026  15.694   7.745  11.522
33766W        W93027   0.274   8.872  13.543
33767W        W93028  31.115  27.045   1.866
33768W        W93029  38.544  34.080  13.400
33769W        W93030  40.358  42.405   0.443
33770W        W93031  44.753   9.394  13.315
33771W        W93032   1.410  30.157  10.625
33772W        W93033  34.380  28.058   2.751
33773W        W93034  37.486  13.688  13.896
33774W        W93035  18.716  27.536   2.876
33775W        W93036   3.250  37.443   2.323
33776W        W93037  17.658  25.111   0.902
33777W        W93038   5.394   9.769   2.206
33778W        W93039   6.865  17.563  13.468
33779W        W93040  25.558  38.524  11.035
33780W        W93041   9.705  37.547  13.050
33781W        W93042  11.326   2.458  13.906
33782W        W93043  24.653  33.423  13.016
33783W        W93044  14.721  41.787   3.223
33784W        W93045  15.577  18.073   2.230
33785W        W93046  25.128  38.414  11.014
33786W        W93047   1.417  22.670  11.862
33787W        W93048  12.129   5.353   2.799
33788W        W93049  24.125   1.455  13.868
33789W        W93050  11.734  23.601   0.910
33790W        W93051   2.827  28.553  14.513
33791W        W93052  42.523  10.741   0.856
33792W        W93053  20.139   8.679  11.415
33793W        W93054   8.400  29.611  10.577
33794W        W93055   5.773   4.703  14.796
33795W        W93056  12.296  19.277   0.867
33796W        W93057   9.837   5.898  12.947
33797W        W93058  31.456   5.728   0.855
33798W        W93059  38.964  21.095  13.408
33799W        W93060  23.547  44.823  14.336
33800W        W93061  42.853  29.444  13.517
33801W        W93062  12.796  36.495   1.761
33802W        W93063  16.203  40.049   1.831
33803W        W93064  20.600  15.172  13.547
33804W        W93065  34.058  28.061   1.817
33805W        W93066  16.578  32.915   1.859
33806W        W93067  41.438  33.097   3.242
33807W        W93068  42.010  11.293   1.399
33808W        W93069  34.556   4.436   1.310
33809W        W93070  44.491  26.023   2.306
33810W        W93071  12.712  28.502   4.176
33811W        W93072  42.883  38.570   3.355
33812W        W93073  21.570  28.057  14.301
33813W        W93074   8.731   2.291   0.921
33814W        W93075  36.907   5.251  13.951
33815W        W93076  39.945  38.974   5.308
33816W        W93077  43.002  38.881  11.569
33817W        W93078  42.376  34.380  11.596
33818W        W93079  15.224  32.544   2.675
33819W        W93080  38.486  24.119   0.840
33820W        W93081   7.183  26.682   4.120
33821W        W93082  12.119  29.041   0.803
33822W        W93083   3.786   4.829   3.307
33823W        W93084  38.983  32.559  12.048
33824W        W93085  37.972  34.456   3.340
33825W        W93086  28.177  31.421   1.300
33826W        W93087  30.157  21.599   3.202
33827W        W93088   3.802  41.961   0.286
33828W        W93089  19.140  25.481   4.248
33829W        W93090  24.167  19.277  10.625
33830W        W93091  27.043  18.295   5.232
33831W        W93092  20.581  39.014   1.440
33832W        W93093  32.536   0.476   3.779
33833W        W93094   8.275  31.996  14.988
33834W        W93095   7.319  44.317   1.402
33835W        W93096  19.113  18.677   1.424
33836W        W93097   2.909  30.421   0.371
33837W        W93098  14.135  25.210   1.703
33838W        W93099  32.107  25.035   2.267
33839W        W93100  28.989  12.190  14.402
33840W        W93101  42.972  35.035  14.018
33841W        W93102   3.348   0.314   3.860
33842W        W93103  23.099  28.467  12.879
33843W        W93104   6.880  21.562  10.502
33844W        W93105  39.552  12.261  12.979
33845W        W93106  40.413  36.426  11.903
33846W        W93107  16.646  34.548  13.426
33847W        W93108  44.007  32.113   1.336
33848W        W93109  25.008  13.829  14.316
33849W        W93110   0.799   1.808   3.696
33850W        W93111  42.451   8.244  10.469
33851W        W93112   1.427   5.310   0.748
33852W        W93113  13.801   9.205   1.804
33853W        W93114   9.261  23.076   3.719
33854W        W93115   2.748  13.658  11.492
33855W        W93116  15.723   6.774  13.835
33856W        W93117  29.001  32.926   3.371
33857W        W93118   7.702   2.260  10.514
33858W        W93119  27.102  28.560  11.109
33859W        W93120   0.289   3.426   3.312
33860W        W93121  39.912  35.885   0.340
33861W        W93122  41.397   2.924  11.987
33862W        W93123  17.193   5.878  12.918
33863W        W93124  39.495  43.847  13.956
33864W        W93125  12.263  32.610   3.637
33865W        W93126  26.069  21.605   1.871
33866W        W93127  26.092  27.977  12.481
33867W        W93128   3.359  25.089   0.348
33868W        W93129  29.121  16.266  12.995
33869W        W93130  26.992   0.251   2.736
33870W        W93131  15.776  10.228   1.382
33871W        W93132  16.780  39.890  14.022
33872W        W93133   5.722  40.849   3.765
33873W        W93134  41.436  37.558   2.691
33874W        W93135  22.603  40.438   4.131
33875W        W93136  10.736  25.037  13.996
33876W        W93137  16.676   7.715  12.463
33877W        W93138  12.169  17.224   1.756
33878W        W93139  13.622  41.375   0.791
33879W        W93140   1.794   9.845  14.397
33880W        W93141  11.332  37.461  13.035
33881W        W93142   3.360  27.500  10.146
33882W        W93143  35.361  24.540  12.428
33883W        W93144  25.048  16.152   3.839
33884W        W93145  29.549  37.935  11.423
33885W        W93146  43.906  36.494   0.779
33886W        W93147  26.113  12.767  13.444
33887W        W93148  14.282  33.547   1.336
33888W        W93149  19.259  29.090  10.154
33889W        W93150  40.990  33.915  11.527
33890W        W93151   4.322  33.069   2.857
33891W        W93152  42.328  20.218   0.886
33892W        W93153   2.933  27.466  14.911
33893W        W93154   2.293   1.428   1.391
33894W        W93155  39.999  13.190  11.481
33895W        W93156  37.005  12.657   1.825
33896W        W93157   0.878  29.090  11.965
33897W        W93158   2.430  44.321  13.513
33898W        W93159  25.605  28.151   0.271
33899W        W93160  40.417  28.528  13.345
33900W        W93161  40.339   0.881   1.436
33901W        W93162  23.662   9.770  14.418
33902W        W93163   9.158   4.414  10.511
33903W        W93164  29.923  40.386   3.377
33904W        W93165  43.870  29.601   3.265
33905W        W93166  42.506   6.909  13.360
33906W        W93167  33.992   0.284  12.092
33907W        W93168  11.163   4.845   2.408
33908W        W93169   9.389   6.866   4.192
33909W        W93170  40.484   3.869   2.806
33910W        W93171   8.281   9.884  11.553
33911W        W93172  38.992  37.845   2.670
33912W        W93173  23.534   2.328   3.800
33913W        W93174   6.364  40.913  11.513
33914W        W93175  17.138  12.120  12.529
33915W        W93176  15.715  10.328   4.144
33916W        W93177  40.401  30.919  11.083
33917W        W93178   1.340  40.890   1.326
33918W        W93179  40.844  34.543   4.317
33919W        W93180  13.715  38.036   3.860
33920W        W93181  10.808  17.693   3.382
33921W        W93182  40.831   9.163  13.864
33922W        W93183  26.108  32.595   1.240
33923W        W93184  34.863  25.546  14.822
33924W        W93185  19.095  25.171  14.861
33925W        W93186  22.529  14.633   4.191
33926W        W93187  32.118   6.329  10.512
33927W        W93188   0.967  31.902   4.329
33928W        W93189   7.227   5.836   5.129
33929W        W93190  13.617  43.915  14.874
33930W        W93191  33.069  21.139  11.884
33931W        W93192  24.025  26.656  11.465
33932W        W93193  30.639   2.889  10.495
33933W        W93194   8.300  24.981  12.491
33934W        W93195  40.401  21.580  11.088
33935W        W93196  16.634  27.606  12.417
33936W        W93197  28.505   9.736  11.513
33937W        W93198  25.497  33.553  14.467
33938W        W93199  18.197  21.175   3.375
33939W        W93200  28.681  19.191   1.758
33940W        W93201   2.418   8.744   3.845
33941W        W93202  22.024  20.731  10.955
33942W        W93203  27.158  36.095   3.302
33943W        W93204   7.665  25.638   1.409
33944W        W93205  31.924  22.133  14.878
33945W        W93206  31.118  17.139  13.440
33946W        W93207  16.210  32.569   4.114
33947W        W93208   3.229  29.605   0.441
33948W        W93209   9.803  20.270  14.786
33949W        W93210  43.950  32.994  10.480
33950W        W93211  27.950  30.642   5.206
33951W        W93212  35.898  36.494   0.734
33952W        W93213  35.593  11.151   0.962
33953W        W93214  19.106  16.182  12.845
33954W        W93215  12.660  31.455  14.472
33955W        W93216  17.162  13.271   4.672
33956W        W93217  10.198   3.816   4.156
33957W        W93218  19.039  25.211  11.511
33958W        W93219  20.177  16.620  12.491
33959W        W93220  26.170  34.101   4.672
33960W        W93221  20.145  26.537  14.299
33961W        W93222   4.298  30.975  10.423
33962W        W93223  14.759  30.648  10.471
33963W        W93224  12.303  41.342   1.263
33964W        W93225  31.969   1.404   3.231
33965W        W93226  18.193  36.398   2.241
33966W        W93227  39.023  12.304   4.680
33967W        W93228   9.312   7.901   2.392
33968W        W93229  13.121  38.558  12.454
33969W        W93230   5.204  34.994  13.428
33970W        W93231  31.582   8.725  14.454
33971W        W93232  40.409   9.733  12.867
33972W        W93233  40.542  34.455   3.214
33973W        W93234  13.831   8.694   1.382
33974W        W93235  23.137  35.045   0.922
33975W        W93236  32.975   2.379  10.958
33976W        W93237   0.438   6.896   2.713
33977W        W93238   4.764  37.504   1.895
33978W        W93239   0.773  32.595  10.100
33979W        W93240   3.838  22.090  10.902
33980W        W93241   4.916   2.859   2.215
33981W        W93242  11.297  24.986   0.955
33982W        W93243  42.281  19.762   2.230
33983W        W93244   6.214  25.561   4.631
33984W        W93245   7.865  12.754   1.776
33985W        W93246  37.904  36.956  12.861
33986W        W93247  42.428  28.468   3.199
33987W        W93248  19.657  44.799  11.937
33988W        W93249  18.638  20.235   2.731
33989W        W93250  29.946  10.260   4.829
33990W        W93251  24.201  43.330   1.743
33991W        W93252  27.960  42.413   2.838
33992W        W93253  14.646  18.163  13.548
33993W        W93254   1.457  18.112   4.257
33994W        W93255  33.098  17.197  12.402
33995W        W93256  28.048  27.630   4.707
33996W        W93257  11.691  20.665   0.935
33997W        W93258  17.692  23.557  11.091
33998W        W93259  13.815  15.803   2.357
33999W        W93260  10.384   4.828  12.460
34000W        W93261  16.791  28.621  14.995
34001W        W93262  21.742  24.578   0.747
34002W        W93263   5.811  20.228  14.372
34003W        W93264  13.186  30.517  10.439
34004W        W93265  13.339  16.710  12.491
34005W        W93266   2.336   9.295   3.306
34006W        W93267  40.958  18.610   4.245
34007W        W93268  42.778  28.487   2.814
34008W        W93269   4.276  42.299  11.518
34009W        W93270  28.572  42.975  14.509
34010W        W93271  29.455  33.503   2.722
34011W        W93272  33.904   2.235  11.387
34012W        W93273  18.224  29.143  14.370
34013W        W93274  28.622   6.843   2.239
34014W        W93275  12.350  26.039   4.801
34015W        W93276   9.213  27.523  10.559
34016W        W93277  10.253  36.422   1.283
34017W        W93278   0.931  22.226   3.811
34018W        W93279   8.398  19.776   1.263
34019W        W93280  19.698  33.969  11.920
34020W        W93281  25.603   4.364   2.283
34021W        W93282   6.880  35.583  10.434
34022W        W93283  44.819   7.795   1.886
34023W        W93284  42.351   5.739  14.314
34024W        W93285  30.530  44.470   4.812
34025W        W93286  25.052  32.005   2.261
34026W        W93287  42.980  17.074  14.334
34027W        W93288  32.567  17.771   0.263
34028W        W93289  26.599  29.521   3.836
34029W        W93290   0.931   6.865  12.890
34030W        W93291  21.109  32.044   2.359
34031W        W93292   4.319  10.293   1.447
34032W        W93293  43.502  14.812   4.690
34033W        W93294   3.762   9.301   1.719
34034W        W93295  41.536  10.251   3.342
34035W        W93296   4.234  37.000  14.846
34036W        W93297  34.495  21.256   3.734
34037W        W93298   4.822  34.944   0.891
34038W        W93299  17.580  32.567   0.885
34039W        W93300  10.799   5.319   1.853
34040W        W93301  32.114  14.621  10.902
34041W        W93302  24.680  23.209  14.961
34042W        W93303  18.642  27.463  10.988
34043W        W93304   3.895  20.738   2.868
34044W        W93305  34.582  36.000  14.428
34045W        W93306  18.622   7.362   2.753
34046W        W93307   1.767  44.387  12.963
34047W        W93308  28.045  38.948  12.528
34048W        W93309   4.771   3.827  13.915
34049W        W93310  44.352   0.253  10.562
34050W        W93311   2.759  35.907   1.771
34051W        W93312  39.368  43.838  11.981
34052W        W93313  14.686  30.000   1.889
34053W        W93314   2.467  25.101  10.031
34054W        W93315  23.032  44.359   4.224
34055W        W93316  14.804   5.420  14.483
34056W        W93317  22.675  21.584  11.088
34057W        W93318  44.822  37.914  10.566
34058W        W93319  15.727  12.820  11.391
34059W        W93320  29.624  30.426   0.435
34060W        W93321  44.326   7.842   0.786
34061W        W93322  14.589  15.748  13.922
34062W        W93323  43.838  31.462   4.346
34063W        W93324  37.978  43.400   5.660
34064W        W93325  43.299  35.081  10.587
34065W        W93326  44.397  12.296   2.392
34066W        W93327  23.583  10.261  12.082
34067W        W93328  22.673   8.831   1.722
34068W        W93329   0.801  22.683   1.917
34069W        W93330  31.623  39.424  10.434
34070W        W93331  17.211   1.311  10.637
34071W        W93332  17.307   7.790   1.374
34072W        W93333  29.133  26.598   0.898
34073W        W93334  38.948  18.675  11.890
34074W        W93335  32.002  28.562  11.028
34075W        W93336  10.861  17.732  12.054
34076W        W93337  35.033   0.956   0.255
34077W        W93338  28.522  37.370  11.493
34078W        W93339  32.967  18.544   2.701
34079W        W93340   6.701  25.154   1.906
34080W        W93341   0.797  13.263   0.848
34081W        W93342  39.041  41.537   4.284
34082W        W93343   3.400  34.018   4.679
34083W        W93344   1.869   2.262  13.853
34084W        W93345  19.556  30.956  12.988
34085W        W93346   1.937  35.987  13.928
34086W        W93347  39.429  21.167  14.281
34087W        W93348  39.485  17.583  13.845
34088W        W93349  23.544  24.127  14.030
34089W        W93350   2.226  23.711   4.686
34090W        W93351  11.244  19.669  14.443
34091W        W93352  17.662  19.230   3.786
34092W        W93353   0.923  15.097  13.975
34093W        W93354  20.760  35.970   4.820
34094W        W93355  40.520  17.581   3.762
34095W        W93356  40.974  30.907   1.380
34096W        W93357  43.860  38.557  13.518
34097W        W93358  27.527  39.985  14.425
34098W        W93359  43.494  41.411  11.936
34099W        W93360  18.166  29.485  10.027
34100W        W93361  21.577   0.745  14.515
34101W        W93362  42.417  26.041   0.938
34102W        W93363   2.917  23.608  11.563
34103W        W93364   2.406  31.597   2.817
34104W        W93365  18.673  16.735  13.547
34105W        W93366  14.257  11.280  12.048
34106W        W93367  28.062  41.858   2.348
34107W        W93368  28.537  25.692  13.949
34108W        W93369   1.276  25.142   0.314
34109W        W93370  17.630  32.512   2.403
34110W        W93371  18.174  11.792   1.729
34111W        W93372  42.924   5.400  10.430
34112W        W93373  21.590  22.014  14.006
34113W        W93374   7.839  27.167   1.231
34114W        W93375   2.815  11.257  11.006
34115W        W93376  26.528  22.640  14.975
34116W        W93377   0.784   3.428   1.422
34117W        W93378  29.121  43.951   3.381
34118W        W93379  32.141  10.176   4.278
34119W        W93380  20.240   2.427  11.960
34120W        W93381  41.859  33.956   4.805
34121W        W93382   7.305  24.505   2.404
34122W        W93383  40.329  41.325   1.341
34123W        W93384  21.652   0.800  13.451
34124W        W93385  44.341  38.383  11.015
34125W        W93386   9.876  44.845   2.259
34126W        W93387  20.711   1.844   0.807
34127W        W93388  24.677  44.918   2.346
34128W        W93389  16.774  38.439   3.296
34129W        W93390  14.275  15.760  12.391
34130W        W93391  15.087  16.582   1.224
34131W        W93392  14.224  39.833  14.806
34132W        W93393  39.404  15.283   3.802
34133W        W93394  25.101  43.377   3.683
34134W        W93395   5.312   8.784  12.965
34135W        W93396  19.696   5.892  14.838
34136W        W93397  35.061  28.518   0.841
34137W        W93398  41.369  31.053   1.895
34138W        W93399  25.126   1.907   1.376
34139W        W93400   9.153   2.357   1.340
34140W        W93401  27.981  39.852   1.723
34141W        W93402  39.376  40.394  13.826
34142W        W93403  13.331  15.246   0.266
34143W        W93404   9.195  31.966  12.070
34144W        W93405   0.339  33.581  13.350
34145W        W93406  13.272  28.107   3.246
34146W        W93407  44.465  12.674  11.450
34147W        W93408  44.776   5.827   4.602
34148W        W93409  39.322  35.057  12.029
34149W        W93410   1.370   8.212  11.516
34150W        W93411  26.030  40.816   0.882
34151W        W93412  34.586  39.053   0.401
34152W        W93413  13.135  19.551   1.438
34153W        W93414   7.803  25.080  10.149
34154W        W93415  27.546  13.115   2.300
34155W        W93416   3.421  42.473   0.758
34156W        W93417  31.022  30.132   3.241
34157W        W93418  43.402  30.468  12.869
34158W        W93419  34.373   5.789   0.851
34159W        W93420   3.845  28.169  14.887
34160W        W93421  39.983   0.889   4.151
34161W        W93422  14.741  14.137  11.380
34162W        W93423  31.422  31.570   3.811
34163W        W93424  20.578  40.935  14.458
34164W        W93425  33.412  35.394  12.905
34165W        W93426   0.431  16.176  11.093
34166W        W93427   3.807   8.258   1.804
34167W        W93428  35.571   2.233  11.052
34168W        W93429   3.349  18.628   4.177
34169W        W93430  44.409  18.275  12.491
34170W        W93431  39.431  38.416   3.279
34171W        W93432  21.157   2.303  10.619
34172W        W93433  17.690  35.383   4.685
34173W        W93434  26.584  23.637  13.871
34174W        W93435  11.686  38.457  11.994
34175W        W93436  35.907  32.548  10.911
34176W        W93437  44.852  31.557   2.292
34177W        W93438  26.468  27.184   1.884
34178W        W93439  37.374   5.397   2.665
34179W        W93440  38.342  15.084   1.707
34180W        W93441  25.597  29.013  14.948
34181W        W93442  33.436  32.514   3.837
34182W        W93443  17.190  41.971   1.929
34183W        W93444  19.699   7.375   1.394
34184W        W93445   1.446  35.963  14.953
34185W        W93446  42.487  38.066   2.825
34186W        W93447  15.685  43.378  14.884
34187W        W93448  30.430  19.776   3.797
34188W        W93449  14.591  16.627  10.447
34189W        W93450  25.167  41.352   0.358
34190W        W93451  15.693  34.510   3.634
34191W        W93452  11.242   3.338  13.445
34192W        W93453  44.309  30.085   1.411
34193W        W93454  28.438  28.118  14.344
34194W        W93455  26.551  37.513  13.345
34195W        W93456  23.610  34.083  11.059
34196W        W93457  29.661  15.134   2.729
34197W        W93458  10.827  31.098  10.454
34198W        W93459  20.201  22.169   1.746
34199W        W93460  21.573  18.254   4.256
34200W        W93461  15.776  30.054  13.946
34201W        W93462   6.328  29.463  14.933
34202W        W93463   4.903  10.721   1.250
34203W        W93464  35.031  24.019  13.818
34204W        W93465   5.837  14.646   0.315
34205W        W93466  44.758   8.846  13.417
34206W        W93467   4.319  20.202  14.766
34207W        W93468  30.151  12.158   9.442
34208W        W93469  18.562   2.380   4.607
34209W        W93470  39.402  20.651  11.015
34210W        W93471   7.860  17.562  14.377
34211W        W93472  34.111  44.319   4.184
34212W        W93473  43.402  23.733  10.094
34213W        W93474  12.660  13.743  13.444
34214W        W93475  25.588  18.649   1.441
34215W        W93476  16.674  26.054  12.970
34216W        W93477  35.547  18.578   2.782
34217W        W93478  10.275  16.572   5.118
34218W        W93479   5.825  11.770  14.945
34219W        W93480   1.909   6.842   4.706
34220W        W93481  14.112  23.036  13.015
34221W        W93482   5.322  18.667   3.771
34222W        W93483  12.316  41.411   3.810
34223W        W93484  20.685  25.032   1.413
34224W        W93485   8.858  21.234   4.283
34225W        W93486   8.705  22.579   5.280
34226W        W93487  43.475  43.349   2.816
34227W        W93488  34.602   9.855   1.233
34228W        W93489  11.372  23.623  12.866
34229W        W93490   5.854  42.327  12.836
34230W        W93491  39.390   8.194  10.938
34231W        W93492  38.998   7.179  13.983
34232W        W93493  23.675  26.144  12.935
34233W        W93494  35.372  15.645  12.071
34234W        W93495  24.554  33.094   0.729
34235W        W93496  18.156   8.774  10.430
34236W        W93497  12.744  42.022   3.180
34237W        W93498  21.652  22.036  10.623
34238W        W93499  22.616  16.783   3.754
34239W        W93500  42.406  36.487   4.704
34240W        W93501  17.764  16.609   1.933
34241W        W93502  42.369  40.990   4.721
34242W        W93503  26.185  19.218  13.364
34243W        W93504  11.852  31.562   2.893
34244W        W93505  29.077   8.664  10.477
34245W        W93506  27.614   9.868  14.470
34246W        W93507  43.491   5.834   2.790
34247W        W93508  44.976   1.776  10.982
34248W        W93509  28.667   6.863  13.812
34249W        W93510  10.683  20.063   1.243
34250W        W93511  17.307  30.516  10.992
34251W        W93512  44.260   2.956  12.946
34252W        W93513  38.980  27.482   1.698
34253W        W93514  17.151   1.434  12.831
34254W        W93515  23.988  44.864   1.285
34255W        W93516  19.585  33.564  13.359
34256W        W93517  33.447  30.561   3.214
34257W        W93518  29.617  30.912  11.050
34258W        W93519   5.796  26.111  14.467
34259W        W93520   6.343  14.327  13.041
34260W        W93521  26.594  33.988   1.707
34261W        W93522   2.799  21.196  13.999
34262W        W93523  22.702  24.156   4.134
34263W        W93524  38.934  21.544   3.226
34264W        W93525  28.445  35.946   4.231
34265W        W93526  20.185  11.850   3.217
34266W        W93527  13.834  38.039  13.494
34267W        W93528  24.491  36.918   4.345
34268W        W93529  34.045  32.118   0.747
34269W        W93530  35.107  20.135   3.362
34270W        W93531  22.599  42.024  14.900
34271W        W93532  42.028   5.287  11.422
34272W        W93533  40.470  35.002  11.567
34273W        W93534   7.310  37.009  11.035
34274W        W93535  33.408  26.510   0.357
34275W        W93536  38.944  36.582   3.643
34276W        W93537  20.253  15.779  13.528
34277W        W93538  39.940   9.691   1.765
34278W        W93539  16.713  40.014   2.677
34279W        W93540  38.489  11.276  12.500
34280W        W93541   5.404   4.216   0.736
34281W        W93542   2.874  33.995  10.951
34282W        W93543  20.628  41.526  12.493
34283W        W93544  40.423   2.312   1.894
34284W        W93545  18.221  29.463  11.922
34285W        W93546   2.264   9.802   0.954
34286W        W93547  31.931  19.718   0.293
34287W        W93548  11.682  37.085   1.285
34288W        W93549  44.367  12.806  13.967
34289W        W93550   1.908  11.828  11.114
34290W        W93551  26.090  36.393   0.729
34291W        W93552  30.135  22.739  12.834
34292W        W93553  12.611  23.128  12.889
34293W        W93554  27.187   0.751  11.004
34294W        W93555   2.913  19.711   4.628
34295W        W93556  12.145  10.838  10.958
34296W        W93557  41.402   4.255   0.409
34297W        W93558   9.316  41.296   4.627
34298W        W93559  16.311  21.205   2.865
34299W        W93560  37.899  37.893   0.469
34300W        W93561  23.687  10.635   1.237
34301W        W93562  32.493  27.492  13.407
34302W        W93563  33.588  33.076   4.733
34303W        W93564   6.267  29.040   1.744
34304W        W93565  34.374  10.667  11.503
34305W        W93566  39.896  26.663   1.722
34306W        W93567  31.456  10.658  14.855
34307W        W93568  30.428  13.725   2.895
34308W        W93569   7.799  15.150  10.477
34309W        W93570  43.333  12.613  13.506
34310W        W93571   5.242  25.101   5.148
34311W        W93572  19.266  42.392   4.235
34312W        W93573  44.845  42.807  13.393
34313W        W93574  29.669  22.547   4.630
34314W        W93575  12.731  22.069  13.846
34315W        W93576   9.262  18.270  10.016
34316W        W93577  12.658  24.008  10.527
34317W        W93578  43.924  35.853  11.430
34318W        W93579  24.618  40.839  12.566
34319W        W93580   7.289  44.383   2.819
34320W        W93581  43.012  37.920  11.893
34321W        W93582  30.598  15.224   2.711
34322W        W93583   0.989   7.335   1.893
34323W        W93584  29.521  15.144   2.274
34324W        W93585  12.747   9.280   3.162
34325W        W93586  38.520   7.769   0.320
34326W        W93587   5.435   7.770  11.950
34327W        W93588   5.839   5.782  11.454
34328W        W93589  29.174  20.708   4.616
34329W        W93590  37.340  29.591  12.462
34330W        W93591   2.418   2.730  13.326
34331W        W93592  31.092  37.576  14.804
34332W        W93593  15.146  16.598   0.396
34333W        W93594  26.188  39.895  12.875
34334W        W93595   5.289  34.571  11.072
34335W        W93596  36.057  38.941   4.204
34336W        W93597   0.742  41.862  10.583
34337W        W93598  33.121  18.244  13.845
34338W        W93599  39.913  32.436   0.396
34339W        W93600   7.876  35.072  10.415
34340W        W93601   6.890  14.813   1.222
34341W        W93602  34.410  17.562  14.012
34342W        W93603  18.243  29.155  12.377
34343W        W93604  15.319  42.914   1.792
34344W        W93605  22.502  38.529  10.524
34345W        W93606  13.781  43.456  12.022
34346W        W93607  30.965  35.104  12.967
34347W        W93608  39.526  35.871  12.066
34348W        W93609  43.880   5.794  14.311
34349W        W93610  31.131  30.438   3.768
34350W        W93611  10.695  33.397   4.776
34351W        W93612  35.467  42.794   0.329
34352W        W93613   8.673  15.760   9.569
34353W        W93614  37.068  44.505  10.137
34354W        W93615  37.838  29.121   0.748
34355W        W93616   5.923  10.785  14.373
34356W        W93617  12.802  17.263  12.035
34357W        W93618   5.370   5.225   4.239
34358W        W93619  16.649  24.024  13.374
34359W        W93620  11.192  41.318   0.806
34360W        W93621  39.873  31.997   1.253
34361W        W93622  13.184   2.878   2.328
34362W        W93623   8.168  15.300  14.843
34363W        W93624  31.038  39.505   0.399
34364W        W93625  25.052  44.797  14.962
34365W        W93626  16.745  36.017  10.994
34366W        W93627  40.489  10.360   4.171
34367W        W93628  35.442  38.977  14.764
34368W        W93629  18.223  29.441  12.426
34369W        W93630  14.210   0.817  12.511
34370W        W93631  27.956  14.730   3.839
34371W        W93632  22.640   4.829   0.466
34372W        W93633  23.596  16.308   0.371
34373W        W93634  22.727   7.745  11.872
34374W        W93635  10.792  18.579   2.865
34375W        W93636   0.790  39.966   0.949
34376W        W93637  20.067  40.799  11.003
34377W        W93638  30.529  39.816  14.778
34378W        W93639   3.763  18.094  13.423
34379W        W93640  25.091  19.654  13.490
34380W        W93641  35.547  12.710  11.115
34381W        W93642  37.505   2.296   2.285
34382W        W93643  40.316  32.142  11.064
34383W        W93644  14.208  44.398  11.384
34384W        W93645  15.603  21.618   0.311
34385W        W93646  27.680   6.833   4.181
34386W        W93647  33.016  33.430  10.534
34387W        W93648  25.217  30.452  12.969
34388W        W93649   2.854   7.801   1.720
34389W        W93650  24.629  32.999   3.319
34390W        W93651   6.887  21.238  13.900
34391W        W93652  23.534  18.060  12.512
34392W        W93653  38.055  43.269   3.219
34393W        W93654  40.424  27.102  10.989
34394W        W93655  19.536  43.274  10.505
34395W        W93656   8.378  15.630  12.827
34396W        W93657  24.720  37.508  14.335
34397W        W93658  26.592  11.235   2.765
34398W        W93659  20.597   1.247  11.413
34399W        W93660  33.009  19.694  12.565
34400W        W93661  18.693  41.521   0.380
34401W        W93662  31.049  35.984  13.526
34402W        W93663  32.114   1.475   0.791
34403W        W93664   8.711   4.312  12.001
34404W        W93665  41.885  35.471   5.754
34405W        W93666  24.642  26.128   1.298
34406W        W93667  37.403  23.655   1.311
34407W        W93668  37.898   0.883  10.498
34408W        W93669  38.484  29.017  11.070
34409W        W93670  22.243  31.100  13.473
34410W        W93671  32.026  23.548  14.861
34411W        W93672   9.847  40.934   4.751
34412W        W93673   4.939  18.059  12.954
34413W        W93674  26.984  10.801  13.819
34414W        W93675  15.660   7.669   1.696
34415W        W93676   9.374   6.208  11.968
34416W        W93677  21.693  10.689  13.349
34417W        W93678   7.906  25.153   3.385
34418W        W93679   7.838  19.219   1.271
34419W        W93680  30.527  38.565   4.287
34420W        W93681   0.360  26.164  13.876
34421W        W93682   6.689  26.025  12.453
34422W        W93683  16.599  36.980   2.703
34423W        W93684  33.444  32.944  13.915
34424W        W93685  38.446   3.732  12.448
34425W        W93686   8.661  40.012  14.977
34426W        W93687  37.471   1.807   4.600
34427W        W93688  29.658  14.122  11.942
34428W        W93689  38.334  13.278  10.592
34429W        W93690   2.387   8.787  11.997
34430W        W93691  33.510   9.717   0.251
34431W        W93692  22.744  14.669  11.594
34432W        W93693  25.589  19.597   4.702
34433W        W93694  25.708  27.639  13.862
34434W        W93695   5.323  11.233   2.188
34435W        W93696  37.565   5.337   3.380
34436W        W93697  37.540  44.350  12.850
34437W        W93698  19.138   8.888  14.885
34438W        W93699  39.317  30.053  11.927
34439W        W93700  29.933   3.235  13.547
34440W        W93701  35.437  44.477  11.453
34441W        W93702  16.676  42.823   0.267
34442W        W93703   9.172  11.633   0.943
34443W        W93704  34.599  32.919  10.625
34444W        W93705  35.033  10.309   0.280
34445W        W93706  44.797   1.344   4.632
34446W        W93707  41.880  24.024   4.679
34447W        W93708  31.524  25.593   2.279
34448W        W93709  17.776  34.570   3.688
34449W        W93710  42.432  16.735   3.852
34450W        W93711  21.705  42.478  14.467
34451W        W93712  11.309   3.410  12.491
34452W        W93713  21.127  43.794  12.889
34453W        W93714  37.412  15.205  10.562
34454W        W93715   9.252  24.560   3.273
34455W        W93716  14.828   9.834   4.697
34456W        W93717   6.205  16.198   0.967
34457W        W93718   2.279  11.826  10.555
34458W        W93719  42.389  13.751   2.338
34459W        W93720   4.203   6.688   3.773
34460W        W93721  35.418  26.150  14.473
34461W        W93722   1.358  30.163   1.269
34462W        W93723   7.208  22.721   0.481
34463W        W93724  30.443  13.129  13.541
34464W        W93725  25.480   6.354  12.847
34465W        W93726  30.582  16.737  11.859
34466W        W93727   5.205  41.420   1.783
34467W        W93728  11.206   9.859   1.763
34468W        W93729  21.515  21.676   1.792
34469W        W93730  31.034  44.967  13.474
34470W        W93731  15.586  34.997   1.804
34471W        W93732   9.345  39.979   4.304
34472W        W93733  25.585   3.387   4.670
34473W        W93734  34.437  20.200  13.940
34474W        W93735  31.467  41.329   5.102
34475W        W93736  10.759  42.973   3.722
34476W        W93737  14.107  24.583   2.325
34477W        W93738  23.694  21.062   3.259
34478W        W93739  24.048  23.533   5.295
34479W        W93740  36.509   2.805   3.822
34480W        W93741   4.271   7.815  13.925
34481W        W93742  25.547  42.384   3.826
34482W        W93743  32.528  26.563  11.950
34483W        W93744  36.426  30.115  13.541
34484W        W93745  42.296  18.260   0.394
34485W        W93746  29.999  43.892   0.941
34486W        W93747  40.890  18.271   4.270
34487W        W93748   7.872  36.390   0.780
34488W        W93749  31.577  15.633   0.825
34489W        W93750  16.237   7.312   2.301
34490W        W93751  40.989  43.474   0.312
34491W        W93752  24.639  21.708   3.269
34492W        W93753  26.012   2.832   2.680
34493W        W93754  35.455  12.286  13.926
34494W        W93755   3.796   9.881   0.415
34495W        W93756  28.123  20.651   1.296
34496W        W93757  20.175  44.952  14.835
34497W        W93758  31.510  26.511   2.740
34498W        W93759  38.944  39.339  12.365
34499W        W93760  34.107  27.497   3.754
34500W        W93761  38.023  34.988   0.775
34501W        W93762  38.839  24.492   2.310
34502W        W93763  40.316   6.827  11.532
34503W        W93764  25.086  43.301  12.516
34504W        W93765   3.265   9.200  14.374
34505W        W93766  32.067  16.766  12.097
34506W        W93767  28.542  42.015   2.704
34507W        W93768   9.665  29.530   0.244
34508W        W93769   1.855  30.975  14.831
34509W        W93770   4.830  43.290   3.679
34510W        W93771  33.074   0.984   0.405
34511W        W93772  22.743   6.336   3.368
34512W        W93773  10.751  18.129  14.423
34513W        W93774  31.545  38.924  10.428
34514W        W93775   2.445  34.593  13.843
34515W        W93776  14.720   0.456   4.628
34516W        W93777  43.932  25.200  14.481
34517W        W93778  27.978  27.571   2.262
34518W        W93779  43.388  40.935  14.398
34519W        W93780  20.559   9.807   3.757
34520W        W93781   5.298  23.574  11.553
34521W        W93782  13.140  18.140   2.678
34522W        W93783  42.938  44.818   1.281
34523W        W93784   9.224  38.073  12.559
34524W        W93785  25.489  13.178  14.770
34525W        W93786  22.734  41.018   0.918
34526W        W93787   9.741  24.516  14.884
34527W        W93788  27.040  19.225  11.075
34528W        W93789  31.468  15.585   3.186
34529W        W93790  11.309   6.302   1.313
34530W        W93791  26.182  39.366  10.928
34531W        W93792  33.916  35.450   1.805
34532W        W93793  11.821   2.340  12.893
34533W        W93794   6.754  40.393  11.455
34534W        W93795  26.165  12.612   2.713
34535W        W93796  38.415  30.434  10.961
34536W        W93797  34.611  26.953  12.969
34537W        W93798   6.216   7.813   0.354
34538W        W93799  13.125  34.886  13.415
34539W        W93800  23.504  38.491   0.288
34540W        W93801  30.472  37.417  11.118
34541W        W93802  29.427  13.819  10.564
34542W        W93803  27.486  13.278  14.303
34543W        W93804   5.216  27.061   3.644
34544W        W93805  13.747  38.952  13.938
34545W        W93806  14.134  38.532   1.810
34546W        W93807  33.028  16.191   3.630
34547W        W93808  29.584  32.392  11.001
34548W        W93809   2.408   1.949   3.807
34549W        W93810  19.715   0.410  13.536
34550W        W93811  11.147  34.992  11.069
34551W        W93812   5.814  18.072  14.790
34552W        W93813  34.614  22.090  13.545
34553W        W93814  22.524  31.499  12.907
34554W        W93815   0.341  32.058  12.474
34555W        W93816  19.668  18.121   4.258
34556W        W93817   2.911  22.996   4.604
34557W        W93818  19.210   1.971  10.513
34558W        W93819  14.596  26.072   0.968
34559W        W93820  16.793  43.313   2.236
34560W        W93821  30.998   9.395   1.278
34561W        W93822  44.455  39.914   4.761
34562W        W93823  14.183  37.895  10.931
34563W        W93824   8.255  11.777  12.086
34564W        W93825  29.144   4.869   3.741
34565W        W93826   3.753  32.949  11.068
34566W        W93827  19.720  25.965   0.483
34567W        W93828  26.606  15.699  12.391
34568W        W93829  15.609  38.426   4.640
34569W        W93830  40.454  29.047  11.926
34570W        W93831   3.709  26.661   4.710
34571W        W93832  29.003  27.487  14.859
34572W        W93833  35.021  17.102   1.281
34573W        W93834  19.605  26.175  10.599
34574W        W93835  15.689   6.362  10.016
34575W        W93836   1.828  39.894  13.937
34576W        W93837  39.328   6.731   0.455
34577W        W93838  24.979  44.846   4.123
34578W        W93839  34.912   2.321   2.684
34579W        W93840  11.144   2.868   1.826
34580W        W93841  16.156  11.711  10.422
34581W        W93842  18.280   4.898  11.484
34582W        W93843  38.914  20.227  14.336
34583W        W93844  40.317   7.327   1.736
34584W        W93845  21.517   7.186   2.697
34585W        W93846  16.669  22.553   2.244
34586W        W93847   9.205  28.652   2.230
34587W        W93848  37.987  24.114   0.331
34588W        W93849  25.182  22.710  13.854
34589W        W93850   5.271  35.519   3.806
34590W        W93851  19.765   3.365  13.896
34591W        W93852  25.094  26.002  10.045
34592W        W93853  17.624  29.593  14.499
34593W        W93854  25.598  25.967  10.996
34594W        W93855  31.014  16.198  12.567
34595W        W93856   7.748  35.500  14.948
34596W        W93857  16.649  33.089   4.818
34597W        W93858   7.859  36.423   2.742
34598W        W93859  21.068  18.202   2.671
34599W        W93860   4.769  35.100   2.294
34600W        W93861  32.010   1.444  13.829
34601W        W93862  28.622  41.973   1.395
34602W        W93863  31.579  13.752   3.869
34603W        W93864  44.938  34.902  13.960
34604W        W93865  38.381  33.958   5.132
34605W        W93866  30.090  20.043  12.483
34606W        W93867   7.382  25.184   0.480
34607W        W93868  14.656  17.146   4.350
34608W        W93869  23.222  34.601   3.812
34609W        W93870  32.937   8.673   3.756
34610W        W93871  11.823   0.265   0.277
34611W        W93872  15.791  31.902   0.384
34612W        W93873  29.095  24.227  13.435
34613W        W93874  23.698  42.933   1.310
34614W        W93875  37.975  10.712   0.887
34615W        W93876  10.196   2.900  10.445
34616W        W93877   6.678  30.494   2.688
34617W        W93878   0.424  43.891  12.078
34618W        W93879  29.424  40.986  12.564
34619W        W93880  13.223  36.412   3.739
34620W        W93881  28.097  33.931   0.350
34621W        W93882  37.019  31.097   3.656
34622W        W93883   9.680  10.350  12.026
34623W        W93884  36.843  38.337  10.432
34624W        W93885   5.730   5.265   0.763
34625W        W93886  19.707  27.188   2.416
34626W        W93887  28.653   5.212  13.981
34627W        W93888   9.204  22.657  12.567
34628W        W93889  37.866  39.982   1.734
34629W        W93890  10.330  23.110  10.507
34630W        W93891  26.590  41.533  10.457
34631W        W93892  20.566  29.167  12.476
34632W        W93893  13.784  41.327  12.349
34633W        W93894   2.936  16.228   0.731
34634W        W93895  30.068  19.553  13.413
34635W        W93896  25.176  21.722   4.333
34636W        W93897  13.287   5.918   0.314
34637W        W93898  14.602  17.265   5.235
34638W        W93899  30.970  37.840   0.889
34639W        W93900  13.218  31.606  11.408
34640W        W93901  42.334  37.541   3.191
34641W        W93902  14.340  25.491   5.132
34642W        W93903  22.707  42.928   1.865
34643W        W93904  24.724  44.848  11.929
34644W        W93905   6.741  19.559   0.957
34645W        W93906  20.670  29.002  11.611
34646W        W93907   2.786   3.883   2.185
34647W        W93908  41.442  11.750   3.685
34648W        W93909  29.597  13.822  12.380
34649W        W93910  13.619  10.661  10.981
34650W        W93911  31.107  21.555   3.826
34651W        W93912  29.423  30.108   0.770
34652W        W93913   3.384  29.147  11.386
34653W        W93914  19.685  40.423  12.390
34654W        W93915  42.369  41.527   3.774
34655W        W93916  22.023   7.729   0.378
34656W        W93917  17.097  32.962   0.265
34657W        W93918  23.734  28.564   0.839
34658W        W93919  42.933  43.416   2.721
34659W        W93920   3.787  19.650   0.448
34660W        W93921  21.129   4.337   5.164
34661W        W93922   8.893  44.849   2.723
34662W        W93923  32.441  29.152  10.597
34663W        W93924  16.664   7.867   2.682
34664W        W93925  19.621  16.159  13.805
34665W        W93926   3.261   8.232  12.985
34666W        W93927  11.852  30.089  14.483
34667W        W93928  23.491  14.278   1.790
34668W        W93929  39.340   1.406   4.182
34669W        W93930  22.227  32.569   0.328
34670W        W93931   4.711  20.682   3.338
34671W        W93932  32.056  15.170  12.510
34672W        W93933  25.653  13.782   1.398
34673W        W93934  33.914  35.032  10.425
34674W        W93935  40.500  21.596  11.428
34675W        W93936  11.649  42.463  13.853
34676W        W93937  35.995  36.530  10.464
34677W        W93938  38.386  42.876  14.474
34678W        W93939  18.157  17.234  11.065
34679W        W93940   9.743   8.163  12.953
34680W        W93941   6.267  35.892   0.399
34681W        W93942  36.477  26.133   0.811
34682W        W93943   5.249  24.043   0.813
34683W        W93944   5.838  33.899   1.382
34684W        W93945  37.929   8.817  11.479
34685W        W93946  25.105  21.640   0.243
34686W        W93947   5.288  40.525   1.281
34687W        W93948   4.921   4.320  10.097
34688W        W93949  30.587  15.647  11.459
34689W        W93950  18.784  22.501  10.056
34690W        W93951   1.733  41.513   4.131
34691W        W93952  38.994   2.326   4.214
34692W        W93953  41.324  16.215  13.425
34693W        W93954  31.449  44.002  11.945
34694W        W93955  12.772  11.806   0.333
34695W        W93956  23.686  28.086  12.995
34696W        W93957  24.064  34.442  12.444
34697W        W93958   1.897   6.419   1.426
34698W        W93959  41.037  43.318  13.475
34699W        W93960  13.142  40.027  14.884
34700W        W93961  12.776  31.138   0.480
34701W        W93962  31.519  15.197   3.224
34702W        W93963  15.759  43.971   2.721
34703W        W93964   1.354   3.709  11.886
34704W        W93965  40.880   3.804   4.835
34705W        W93966  38.485  38.333  10.439
34706W        W93967   4.351  24.569  12.913
34707W        W93968   5.225  20.589  11.579
34708W        W93969  44.282  35.066  11.442
34709W        W93970  42.944  13.601   3.354
34710W        W93971  34.978  44.862  11.890
34711W        W93972   6.850  42.419   1.319
34712W        W93973  38.465  41.847  13.516
34713W        W93974  23.565  40.448   4.349
34714W        W93975  40.967  14.827   4.687
34715W        W93976  13.712  17.127  12.925
34716W        W93977  17.613  22.060   4.181
34717W        W93978  34.063  26.194  13.023
34718W        W93979   4.816  43.893  13.439
34719W        W93980   9.249   6.848   9.478
34720W        W93981  24.141  27.677   2.849
34721W        W93982  11.775  17.760   5.223
34722W        W93983  40.519   5.907   4.772
34723W        W93984   9.327   2.239   0.365
34724W        W93985  43.293  18.615  14.960
34725W        W93986   9.858  24.226  14.440
34726W        W93987  31.525  43.282  12.911
34727W        W93988  31.524  43.337   1.362
34728W        W93989  33.122  14.175  11.101
34729W        W93990  17.789   1.944   0.445
34730W        W93991  36.572  31.583  14.292
34731W        W93992  31.502  23.159  14.816
34732W        W93993  10.265  22.560  13.045
34733W        W93994  14.233   7.730   5.209
34734W        W93995  36.354  42.504   0.735
34735W        W93996   8.670  40.306  10.629
34736W        W93997   2.379  16.620   2.347
34737W        W93998   0.366  25.056   0.733
34738W        W93999  11.323   3.357   0.274
34739W        W94000   7.213  40.020   2.210
34740W        W94001  11.722   2.261  10.116
34741W        W94002  39.328  32.519   2.840
34742W        W94003  23.001  25.560   0.905
34743W        W94004  15.110  32.452   3.793
34744W        W94005  38.523  17.646  10.458
34745W        W94006   3.435  35.451   3.652
34746W        W94007  37.384  39.875   3.370
34747W        W94008  29.011  39.335  14.314
34748W        W94009  32.421  36.942   0.361
34749W        W94010  23.103  39.940  11.984
34750W        W94011  25.020  25.638  12.956
34751W        W94012  39.482  22.019  11.076
34752W        W94013  24.561  19.744  14.474
34753W        W94014  41.522   0.435  11.888
34754W        W94015  16.099  34.416   1.441
34755W        W94016   2.762  42.492  13.902
34756W        W94017  36.473   7.807   1.860
34757W        W94018  35.370   9.164   1.934
34758W        W94019  23.997  16.232  14.468
34759W        W94020  19.191  32.924  14.286
34760W        W94021  22.122  31.503  14.411
34761W        W94022  25.480  27.008  14.012
34762W        W94023  13.164  40.320  13.924
34763W        W94024  14.305  10.762  12.378
34764W        W94025   2.738  20.096  11.946
34765W        W94026  20.542  39.528   2.723
34766W        W94027  18.559  38.425   3.176
34767W        W94028  35.593  19.600   3.836
34768W        W94029  31.925  14.240   4.220
34769W        W94030   3.308  18.663  11.400
34770W        W94031  39.389   5.411   1.835
34771W        W94032   8.756  16.765  11.112
34772W        W94033   1.839   8.683   0.932
34773W        W94034  30.611  13.139   0.811
34774W        W94035  31.908   6.747  13.044
34775W        W94036   6.396  42.501   1.929
34776W        W94037   4.423  16.217  13.803
34777W        W94038  27.060  40.468  12.837
34778W        W94039  27.045  31.555  11.531
34779W        W94040   8.886  41.363  10.955
34780W        W94041  43.291  44.390  12.837
34781W        W94042  24.659  12.819   3.336
34782W        W94043  38.484  44.266   4.270
34783W        W94044  41.406  29.501  11.121
34784W        W94045  32.483   8.170  10.965
34785W        W94046   1.293  19.141   0.381
34786W        W94047   8.198  19.728  11.099
34787W        W94048  27.983  14.338   3.701
34788W        W94049  10.829  34.037  14.782
34789W        W94050  21.134  22.103  13.542
34790W        W94051  34.973  15.808  13.925
34791W        W94052  29.531  29.630   0.794
34792W        W94053   8.306  13.269   0.735
34793W        W94054   9.384  33.582  13.359
34794W        W94055  16.630  34.598   2.796
34795W        W94056  35.528  38.474   2.248
34796W        W94057  20.194  28.057  12.965
34797W        W94058   0.273  41.434  14.781
34798W        W94059  39.522  32.566  12.382
34799W        W94060   7.310  40.799  12.026
34800W        W94061  22.185  35.972  14.827
34801W        W94062  16.590  42.787  13.354
34802W        W94063   7.876  24.072   4.651
34803W        W94064  18.596  32.941  13.393
34804W        W94065  31.100  17.634  13.532
34805W        W94066  24.640   5.882   4.276
34806W        W94067  28.071   8.406  12.341
34807W        W94068   4.801  33.576   5.153
34808W        W94069  23.583  37.473  11.052
34809W        W94070  36.963  27.050  12.412
34810W        W94071  17.783  35.407  11.125
34811W        W94072  30.039  36.964  13.037
34812W        W94073   2.935  42.364   3.694
34813W        W94074  12.783  44.899   2.758
34814W        W94075   6.340  34.480  10.506
34815W        W94076  13.726   1.863  13.375
34816W        W94077  25.026   0.412  13.991
34817W        W94078  30.125  27.603  12.569
34818W        W94079   2.302  31.589  14.306
34819W        W94080  38.037  36.478   4.614
34820W        W94081  41.905  37.871   5.164
34821W        W94082  44.400  44.310  12.526
34822W        W94083  37.346   8.364   4.804
34823W        W94084  41.455  33.885   1.769
34824W        W94085   5.921  15.307   1.753
34825W        W94086  30.971   8.740   2.734
34826W        W94087  42.474  22.135   4.630
34827W        W94088  17.242  43.978   1.811
34828W        W94089  22.723   5.733  13.486
34829W        W94090  11.645  13.629   3.764
34830W        W94091   8.175  36.460  12.493
34831W        W94092   5.732  15.663  14.824
34832W        W94093  34.869  10.691  12.005
34833W        W94094   6.726  15.207   2.781
34834W        W94095  16.635  34.119  14.341
34835W        W94096  39.439  18.107   0.940
34836W        W94097  17.113  23.527   1.896
34837W        W94098   4.818  27.131   2.265
34838W        W94099  35.450  38.968  11.557
34839W        W94100  18.614  31.488  11.569
34840W        W94101  14.237  13.214  13.798
34841W        W94102  30.472  42.931   2.809
34842W        W94103  20.598  35.584   3.741
34843W        W94104  36.077  43.504   0.437
34844W        W94105   5.917  22.154   2.214
34845W        W94106  19.701   9.827   4.273
34846W        W94107   9.205  43.509   4.730
34847W        W94108  36.389  20.264  10.431
34848W        W94109  20.729  44.838   4.344
34849W        W94110   3.956   0.980  13.398
34850W        W94111  12.850  35.093   1.324
34851W        W94112  19.182  23.036  12.854
34852W        W94113  29.540   8.329  13.964
34853W        W94114  40.438   3.387   3.779
34854W        W94115  35.470  12.247  13.324
34855W        W94116  29.970  12.308  10.480
34856W        W94117  36.474  33.037   3.687
34857W        W94118  20.258  27.568  14.417
34858W        W94119  31.578  43.334  11.469
34859W        W94120  39.417  26.495   1.725
34860W        W94121  25.474   7.253   5.180
34861W        W94122   3.400  11.299   0.285
34862W        W94123   6.256  14.330   2.875
34863W        W94124  14.242  33.393  14.011
34864W        W94125  32.081   5.796   2.313
34865W        W94126  21.140  23.112  10.975
34866W        W94127  37.411  31.083   1.391
34867W        W94128   4.725  18.291   1.422
34868W        W94129  19.140  30.503   4.600
34869W        W94130  38.855   1.893   0.877
34870W        W94131  24.683  35.485  10.999
34871W        W94132  32.015  25.039   3.740
34872W        W94133   3.267  31.538  12.833
34873W        W94134  14.613  20.085   3.830
34874W        W94135   5.358  26.565  10.989
34875W        W94136   2.822  31.625   3.766
34876W        W94137  24.225  29.968   1.422
34877W        W94138  20.736  10.873   3.675
34878W        W94139  29.432   7.807  14.516
34879W        W94140  31.099   0.766   1.295
34880W        W94141  29.576  33.609   4.156
34881W        W94142  44.856   1.877  10.517
34882W        W94143  24.669  17.622   0.275
34883W        W94144  32.565   5.368  12.353
34884W        W94145  24.986  43.906  10.506
34885W        W94146  44.308  27.132  14.323
34886W        W94147  34.495  29.113   3.229
34887W        W94148  28.006  37.056   1.816
34888W        W94149   1.732   8.250   5.162
34889W        W94150   7.755  36.960  11.879
34890W        W94151  30.064  43.286  12.844
34891W        W94152  30.628  24.677  11.888
34892W        W94153   5.350  13.771  10.469
34893W        W94154  37.012  33.563   0.373
34894W        W94155   1.790  31.119  11.980
34895W        W94156  29.074   5.400   2.291
34896W        W94157  15.158  16.679  11.385
34897W        W94158  11.840  31.619  13.044
34898W        W94159   3.917  15.775  11.932
34899W        W94160  23.040   9.851  10.906
34900W        W94161  20.058   9.286  11.009
34901W        W94162  18.202  44.914  10.573
34902W        W94163   3.286   1.761  10.897
34903W        W94164  30.161  18.231   0.323
34904W        W94165  35.058   7.197   3.199
34905W        W94166  34.591  18.599  11.889
34906W        W94167  43.456  21.541  12.955
34907W        W94168  34.542   5.359  10.486
34908W        W94169   7.721   7.262  14.847
34909W        W94170   1.279  11.853  11.942
34910W        W94171  44.822  12.299  14.350
34911W        W94172  28.440   5.848   0.352
34912W        W94173  43.437  20.202   4.118
34913W        W94174  27.461  21.520  12.552
34914W        W94175  33.536   6.236   1.388
34915W        W94176  29.451  35.498  13.895
34916W        W94177  15.648  38.939   5.209
34917W        W94178  18.290   2.760   3.827
34918W        W94179   8.676  18.247   4.658
34919W        W94180  11.737   6.354  12.854
34920W        W94181   2.244  33.395   2.877
34921W        W94182   9.691  13.171   1.854
34922W        W94183   7.204  20.660  12.558
34923W        W94184  24.665  19.763   3.698
34924W        W94185  38.003  37.459  13.916
34925W        W94186   8.781  31.607  10.918
34926W        W94187  10.824   7.196  11.527
34927W        W94188  34.011   0.764  10.593
34928W        W94189  24.508  11.272  11.015
34929W        W94190  23.080   3.742   3.221
34930W        W94191  44.478  20.238   1.376
34931W        W94192   5.345  29.973  10.612
34932W        W94193  42.870  26.072   2.884
34933W        W94194  25.670  10.156   1.330
34934W        W94195   7.209   7.250   3.727
34935W        W94196   7.880  29.058   1.248
34936W        W94197   2.229  37.526   9.936
34937W        W94198  32.407   2.255  12.432
34938W        W94199  22.166  17.111   1.716
34939W        W94200  11.639   8.851   5.109
34940W        W94201   3.454  17.701   1.749
34941W        W94202  40.986  13.658  10.993
34942W        W94203  37.403  19.691   4.647
34943W        W94204   5.912  17.637  12.826
34944W        W94205  41.501  28.669   4.346
34945W        W94206  20.258  36.915   1.758
34946W        W94207  25.153  35.597   3.330
34947W        W94208   3.253  14.200   9.944
34948W        W94209  34.440  13.259  10.029
34949W        W94210  33.068  43.945  12.373
34950W        W94211  28.520  18.557   3.672
34951W        W94212  13.634  23.240   0.407
34952W        W94213  14.743   9.297   0.928
34953W        W94214  14.774  30.976   1.783
34954W        W94215  42.508  38.994   0.880
34955W        W94216  39.902  24.144   0.814
34956W        W94217  22.095  33.023  13.383
34957W        W94218  39.960   8.745  13.818
34958W        W94219   4.269   2.352   3.202
34959W        W94220  11.265  32.431   4.649
34960W        W94221   5.874  43.272  11.450
34961W        W94222  25.190  29.068  11.993
34962W        W94223  15.150  40.434   0.246
34963W        W94224  21.139  21.612  13.486
34964W        W94225   7.173   5.238   1.816
34965W        W94226  18.688   9.226   1.838
34966W        W94227  34.470  20.174   4.315
34967W        W94228   9.325  37.422  11.920
34968W        W94229   7.349   6.687  13.032
34969W        W94230  18.569  29.934  13.414
34970W        W94231  38.914  23.224  14.870
34971W        W94232  18.269  21.651  11.565
34972W        W94233  10.191   4.757  14.470
34973W        W94234  31.914  17.113  13.804
34974W        W94235  25.014  20.560   0.330
34975W        W94236  20.269  26.533  10.979
34976W        W94237   2.459  39.495  13.832
34977W        W94238  42.520   6.236   4.215
34978W        W94239  12.619   8.796   1.922
34979W        W94240   5.727  30.458  11.423
34980W        W94241  15.177  42.809  11.567
34981W        W94242  30.600  14.710   1.775
34982W        W94243  40.353  34.086   0.265
34983W        W94244  21.750  14.324   4.730
34984W        W94245  39.064  30.130  14.471
34985W        W94246  15.669  15.320  14.516
34986W        W94247  22.228  36.361   0.869
34987W        W94248  22.522   8.668  14.473
34988W        W94249  35.977  11.856  12.547
34989W        W94250  25.532   6.395   0.843
34990W        W94251   5.700  12.200   4.282
34991W        W94252  40.841  30.650   4.129
34992W        W94253   6.388  30.448   0.836
34993W        W94254  22.675  37.869  11.879
34994W        W94255  38.047   0.924   3.168
34995W        W94256   0.425  26.500   3.233
34996W        W94257   5.393  13.242   2.729
34997W        W94258  16.748   6.266   0.254
34998W        W94259  19.190  43.879   2.317
34999W        W94260  13.282  34.081  13.860
35000W        W94261  44.979  19.141  13.845
35001W        W94262  25.039   8.179  11.479
35002W        W94263  32.462  31.148  14.488
35003W        W94264  29.161  15.142   2.292
35004W        W94265  32.450  13.707  11.539
35005W        W94266  26.476  41.972  11.073
35006W        W94267  17.622  42.405  14.354
35007W        W94268  24.609   7.407   1.219
35008W        W94269  44.896  37.888   0.394
35009W        W94270   2.752  26.635   3.283
35010W        W94271  34.486   1.299  10.609
35011W        W94272  32.536  38.069  14.453
35012W        W94273  17.142  17.630   0.299
35013W        W94274  12.828  32.011   3.860
35014W        W94275   6.686  20.252   1.298
35015W        W94276   1.356  21.172  11.536
35016W        W94277  14.244  33.066  13.999
35017W        W94278  16.773   6.811  10.446
35018W        W94279  44.269  13.286  14.943
35019W        W94280  10.349  38.940  11.882
35020W        W94281   4.239  44.925  14.862
35021W        W94282   2.938  21.127   0.357
35022W        W94283  24.625  12.667   1.448
35023W        W94284  11.661  25.971  14.874
35024W        W94285  27.491  42.400  13.416
35025W        W94286  31.035  42.445   3.147
35026W        W94287  32.984  12.246  13.464
35027W        W94288  34.078  24.161  12.863
35028W        W94289  37.557  19.629  12.577
35029W        W94290   0.840  29.963   4.776
35030W        W94291  19.746  39.048  12.888
35031W        W94292  13.122  14.773  12.824
35032W        W94293   8.337  33.379  14.384
35033W        W94294  29.050  20.767   0.935
35034W        W94295  37.913   4.374   4.290
35035W        W94296  20.201  27.447  11.881
35036W        W94297  18.087  42.869  14.357
35037W        W94298  35.548  10.255   4.800
35038W        W94299   8.814  11.174   4.637
35039W        W94300  14.637  11.345   4.742
35040W        W94301  19.040  18.254  14.285
35041W        W94302  24.077  18.126  13.024
35042W        W94303   0.880  40.405  12.369
35043W        W94304  41.396  19.699  14.996
35044W        W94305  44.375  27.608  12.960
35045W        W94306  15.624  34.595  11.016
35046W        W94307   1.437   3.910  13.343
35047W        W94308  36.504   3.321  10.625
35048W        W94309  32.449  21.517   3.352
35049W        W94310   2.245  31.431  11.523
35050W        W94311  37.042  20.749  14.856
35051W        W94312   4.918  31.946  10.992
35052W        W94313  36.429   1.832   2.832
35053W        W94314  29.087  39.331  10.913
35054W        W94315  42.811  12.741  10.901
35055W        W94316   0.921  11.368   4.176
35056W        W94317   2.817  21.062   2.414
35057W        W94318  27.617  38.862   0.421
35058W        W94319  30.579   7.700  11.390
35059W        W94320   8.831  15.661   9.988
35060W        W94321  15.764  28.028  14.776
35061W        W94322   1.463  38.836   2.801
35062W        W94323  43.896  22.521  12.075
35063W        W94324   0.979  19.250   0.774
35064W        W94325  43.846  29.483  14.836
35065W        W94326  12.315  13.328   4.685
35066W        W94327   2.289  17.223   3.332
35067W        W94328  28.015   4.917  11.426
35068W        W94329  25.006  30.631   1.305
35069W        W94330  35.552  33.475   0.319
35070W        W94331   3.248   8.353   1.930
35071W        W94332  33.017  18.756  14.897
35072W        W94333  14.282  29.086   3.326
35073W        W94334  11.678  27.521   4.174
35074W        W94335   0.799  36.403  11.929
35075W        W94336  42.025  30.139   1.413
35076W        W94337  18.235  32.047  14.399
35077W        W94338  25.156  12.816   3.809
35078W        W94339   0.419  44.340   2.347
35079W        W94340   5.841  33.122  10.589
35080W        W94341   4.332  17.678   4.256
35081W        W94342   6.890  21.147   3.310
35082W        W94343  26.104  28.524   1.749
35083W        W94344  10.723  34.554   1.395
35084W        W94345  29.434  33.603  14.903
35085W        W94346  30.151  20.272  11.530
35086W        W94347  31.529   2.340   2.207
35087W        W94348  15.765  18.146  13.396
35088W        W94349   5.317  11.703   0.964
35089W        W94350  42.399  11.330  10.541
35090W        W94351  40.509  22.586  10.900
35091W        W94352  22.694  40.363  11.896
35092W        W94353   3.304  13.245   1.772
35093W        W94354   3.772  34.891   3.730
35094W        W94355  44.908  10.361   2.839
35095W        W94356  43.765   7.828   2.728
35096W        W94357   5.339   1.745  12.897
35097W        W94358  24.141  12.259  14.427
35098W        W94359  23.719  30.962   2.680
35099W        W94360   9.828  38.498   0.866
35100W        W94361   1.377  27.607   1.266
35101W        W94362  37.474  18.109  12.027
35102W        W94363  22.215  29.544   0.967
35103W        W94364  23.027  32.561   4.333
35104W        W94365  38.465  31.126   1.830
35105W        W94366  24.223  19.658  11.019
35106W        W94367   4.214  32.602  13.952
35107W        W94368  30.950  36.050   3.311
35108W        W94369  24.174   7.310  10.934
35109W        W94370  12.181  30.973  13.399
35110W        W94371  21.676  10.644   1.416
35111W        W94372  39.980   0.337   1.239
35112W        W94373  36.493   0.282   1.218
35113W        W94374  34.479   7.283   1.358
35114W        W94375  20.669  13.620  11.377
35115W        W94376  26.498  23.011  11.385
35116W        W94377  30.635  13.741   3.146
35117W        W94378  19.140  17.588   3.269
35118W        W94379  35.901  11.254   3.686
35119W        W94380   1.435  17.224  13.432
35120W        W94381  41.938  21.030  13.847
35121W        W94382  15.680  13.720   2.353
35122W        W94383  16.614  27.971   2.788
35123W        W94384  19.119  24.579   3.769
35124W        W94385  21.631  38.916   4.344
35125W        W94386  39.823  19.597  14.296
35126W        W94387  20.260  38.327  10.404
35127W        W94388   3.438  39.922   1.811
35128W        W94389  13.269  30.501   1.278
35129W        W94390  33.959  43.373   1.422
35130W        W94391  24.569  27.686  14.300
35131W        W94392  14.128   8.774  14.277
35132W        W94393   5.820  38.009   3.355
35133W        W94394  16.275   5.880  10.939
35134W        W94395  39.445  23.719  13.839
35135W        W94396   5.302  41.420  13.519
35136W        W94397  23.598   3.442  13.346
35137W        W94398  40.987  26.117   2.753
35138W        W94399  13.649   0.484  10.506
35139W        W94400  35.012  30.419   0.867
35140W        W94401  41.939  12.133  14.843
35141W        W94402  41.862  29.031   0.273
35142W        W94403  15.642  18.761   3.815
35143W        W94404  39.046  19.725   1.425
35144W        W94405   2.860  35.002   1.879
35145W        W94406  10.324  39.003  14.932
35146W        W94407  39.390  35.377   0.459
35147W        W94408  13.283   8.358   4.118
35148W        W94409  10.845  33.618   3.346
35149W        W94410  33.567  37.910   2.900
35150W        W94411   7.849  14.197  11.115
35151W        W94412  15.161  19.237  12.991
35152W        W94413  20.679  17.659  11.598
35153W        W94414  20.084  43.498  11.128
35154W        W94415  33.491  15.151  10.409
35155W        W94416  25.475  33.472   1.356
35156W        W94417   1.832  15.785  11.493
35157W        W94418  27.524  42.855  13.452
35158W        W94419   2.852   0.987   4.742
35159W        W94420  25.602  43.839   3.694
35160W        W94421  40.970  33.600  11.965
35161W        W94422   6.325  39.420  11.049
35162W        W94423  43.420  22.657  12.959
35163W        W94424   9.825  19.640   3.747
35164W        W94425   5.841   4.212  12.461
35165W        W94426  36.512  36.363   2.760
35166W        W94427   1.732  10.638  14.969
35167W        W94428  14.159  27.655  13.536
35168W        W94429  16.207  29.501   2.252
35169W        W94430  23.496  43.485  12.500
35170W        W94431  34.450   5.798  14.443
35171W        W94432  37.468  29.424   3.201
35172W        W94433   0.344  25.013   3.371
35173W        W94434  12.134   7.760   1.373
35174W        W94435  40.537   6.265  11.105
35175W        W94436   7.350  22.710  13.328
35176W        W94437   6.264   6.304  14.425
35177W        W94438   9.153   5.693   2.209
35178W        W94439  29.058  37.365   0.301
35179W        W94440  36.912   4.386  10.551
35180W        W94441   8.823  13.637   3.209
35181W        W94442  26.952  22.659   2.859
35182W        W94443  18.714  10.311   3.293
35183W        W94444   8.827  18.164  12.827
35184W        W94445  32.028   0.810  14.023
35185W        W94446   6.850  10.163   2.309
35186W        W94447  29.460  24.065   0.950
35187W        W94448   0.438   7.735   1.244
35188W        W94449   3.345  17.145  13.795
35189W        W94450   2.947  24.523  11.407
35190W        W94451  30.019   5.298   1.258
35191W        W94452   0.404   5.769   3.247
35192W        W94453  26.157  35.518  14.987
35193W        W94454   8.756  12.198   3.642
35194W        W94455   7.311  24.183  13.029
35195W        W94456  33.568  24.718   4.726
35196W        W94457  18.732  18.756  14.359
35197W        W94458  29.547  34.548  13.827
35198W        W94459  26.063  43.916  12.086
35199W        W94460   1.929   8.392  13.813
35200W        W94461  31.984  14.826   2.185
35201W        W94462  23.504  27.663  10.963
35202W        W94463   5.400  10.181   4.190
35203W        W94464  29.611  31.962   3.384
35204W        W94465   7.314  29.998   1.389
35205W        W94466  14.732  21.557  14.460
35206W        W94467   9.852  16.214  12.551
35207W        W94468   6.247  40.004  11.050
35208W        W94469  27.564  21.550  10.924
35209W        W94470  25.002   5.227  14.383
35210W        W94471  14.799  27.614  14.977
35211W        W94472  34.427  32.418   2.866
35212W        W94473  14.228   0.757  11.431
35213W        W94474  10.656  43.438   1.739
35214W        W94475   4.713   3.902  11.388
35215W        W94476  42.884  36.920  10.482
35216W        W94477  23.994  34.376  11.087
35217W        W94478  11.663  34.386  11.951
35218W        W94479  27.662  34.536  10.498
35219W        W94480  40.024  43.002   2.687
35220W        W94481   3.712  10.297  10.607
35221W        W94482  16.158  43.808  10.602
35222W        W94483   6.816   9.395   0.426
35223W        W94484   7.311  22.146  11.595
35224W        W94485  40.869  28.179  12.017
35225W        W94486  36.079  25.132   4.759
35226W        W94487  24.186  23.525   2.881
35227W        W94488  28.658  32.051  13.485
35228W        W94489   9.755   5.695   9.594
35229W        W94490  44.350  33.427  13.542
35230W        W94491  15.322  35.601   1.752
35231W        W94492   2.269  43.948  13.410
35232W        W94493  20.600  33.983   1.404
35233W        W94494  24.224  36.942   2.272
35234W        W94495   9.720  13.711  14.289
35235W        W94496   5.930   3.231   3.741
35236W        W94497  19.142  32.404  14.516
35237W        W94498  39.418  17.570   1.710
35238W        W94499  17.624  18.231   1.430
35239W        W94500   1.826   8.717   2.234
35240W        W94501  44.849  39.874  11.055
35241W        W94502  20.185  13.842   2.240
35242W        W94503   4.424  14.834  11.097
35243W        W94504  16.285  27.674   1.813
35244W        W94505  24.564  36.942  10.478
35245W        W94506  31.495  17.577   3.320
35246W        W94507  11.302  29.480   0.952
35247W        W94508  14.169  44.800   4.266
35248W        W94509  20.087   9.328   3.385
35249W        W94510   4.328  14.697  11.993
35250W        W94511  42.009  32.489   3.382
35251W        W94512   0.965   8.348   2.258
35252W        W94513  39.505  16.737   1.441
35253W        W94514  19.536   5.791  12.884
35254W        W94515  22.721  20.530  12.902
35255W        W94516  21.728  41.818  13.800
35256W        W94517  22.134  26.641   4.658
35257W        W94518  31.908  14.822  13.823
35258W        W94519  18.230  18.232   5.262
35259W        W94520  27.190  20.115  14.839
35260W        W94521   4.350  33.942  11.021
35261W        W94522  21.183  19.567  10.081
35262W        W94523  30.641  14.745  11.496
35263W        W94524   6.218  27.076  11.564
35264W        W94525   3.424  43.787   4.163
35265W        W94526   9.266  25.636   1.798
35266W        W94527  26.168  27.007   1.419
35267W        W94528   3.450   7.765  14.407
35268W        W94529  40.957  20.641  12.992
35269W        W94530  18.750  38.960  12.864
35270W        W94531  40.458  36.571   1.829
35271W        W94532  32.134  32.134  12.937
35272W        W94533  33.956  34.555  13.927
35273W        W94534  32.520  13.265   0.287
35274W        W94535  32.626  42.399  13.459
35275W        W94536  14.217   4.743  13.978
35276W        W94537  28.452  41.042  12.359
35277W        W94538  41.869  28.455  14.477
35278W        W94539  19.560  31.545  11.957
35279W        W94540  26.133  17.635  11.502
35280W        W94541  16.747  25.059  10.025
35281W        W94542  13.842  27.109  11.548
35282W        W94543  36.433  11.850   2.888
35283W        W94544   2.472  15.779   2.386
35284W        W94545  30.011   0.843   3.721
35285W        W94546  26.681  15.630  14.302
35286W        W94547  16.080   8.173   2.402
35287W        W94548  27.525  37.043   1.716
35288W        W94549  28.511  12.726   3.362
35289W        W94550  17.800   5.930   4.258
35290W        W94551   1.267  37.024  11.973
35291W        W94552   4.310   6.785  12.952
35292W        W94553  35.534  22.676  12.413
35293W        W94554  25.635  31.450  11.121
35294W        W94555  10.329  16.778   0.348
35295W        W94556  28.950   0.283  13.511
35296W        W94557  19.178  26.486  11.069
35297W        W94558  29.606  34.927  12.049
35298W        W94559  25.988  33.056   3.698
35299W        W94560   9.174  16.750   2.300
35300W        W94561  26.558  40.868  12.505
35301W        W94562   4.812  24.628   2.672
35302W        W94563   6.720   5.748   4.640
35303W        W94564  44.923  30.609   4.263
35304W        W94565  26.054   0.886  14.819
35305W        W94566  16.599  38.862  10.431
35306W        W94567  18.734  34.468   0.242
35307W        W94568  19.748   7.783   0.842
35308W        W94569   0.389   1.242   4.806
35309W        W94570  14.714   3.384   1.695
35310W        W94571  22.147  36.922   4.178
35311W        W94572  39.987  10.816   2.186
35312W        W94573  35.377   5.226   4.125
35313W        W94574  30.601  34.948  13.924
35314W        W94575  18.149  40.859   4.610
35315W        W94576  39.532  33.558  12.413
35316W        W94577   8.284  13.165   3.786
35317W        W94578  41.905  12.702   0.841
35318W        W94579  22.564  16.583  10.530
35319W        W94580  19.071  29.962  10.975
35320W        W94581  19.656  30.527   4.685
35321W        W94582  13.693   3.868  14.777
35322W        W94583   4.240   1.977  10.569
35323W        W94584   4.269  18.694   1.772
35324W        W94585  43.898  29.594   0.881
35325W        W94586  37.026   8.791   3.672
35326W        W94587  30.428  40.303   4.299
35327W        W94588  27.511  37.389   1.764
35328W        W94589   4.394  11.244  13.898
35329W        W94590   0.350   1.847  12.530
35330W        W94591  24.068   0.266   2.223
35331W        W94592  29.149  28.541  14.836
35332W        W94593  44.319  25.495   2.298
35333W        W94594  33.089  33.891  11.034
35334W        W94595  43.303  37.525   0.344
35335W        W94596  43.019  13.175  13.427
35336W        W94597   5.902  32.115  11.967
35337W        W94598   9.873  11.255   3.349
35338W        W94599   2.454  31.916  13.352
35339W        W94600  12.205  16.643   2.780
35340W        W94601   4.367  11.743  10.914
35341W        W94602   2.915  22.746  11.856
35342W        W94603  16.636   6.374   1.416
35343W        W94604   4.245  42.334   3.707
35344W        W94605  40.908  12.635   4.836
35345W        W94606  38.570  18.182  12.413
35346W        W94607  16.116  36.449   0.804
35347W        W94608  17.201  22.211  12.462
35348W        W94609  24.499  19.612  13.546
35349W        W94610  27.657  38.350   2.286
35350W        W94611  44.901  21.225   4.807
35351W        W94612   5.369  10.329   3.230
35352W        W94613  22.073  10.770   2.755
35353W        W94614   5.786  24.687   4.193
35354W        W94615  27.141  31.933   4.326
35355W        W94616  23.551  44.816  10.947
35356W        W94617  16.085  13.348  12.535
35357W        W94618  26.990  35.459   1.432
35358W        W94619  19.730  21.132  12.402
35359W        W94620   3.419  22.734  11.972
35360W        W94621   9.167  39.463  13.036
35361W        W94622  28.649  13.108  10.895
35362W        W94623  11.160  12.200  12.066
35363W        W94624   7.387  24.036   1.450
35364W        W94625  25.470  34.471   2.695
35365W        W94626   9.862  39.359   4.144
35366W        W94627   6.706  10.713  14.934
35367W        W94628  28.035   0.457  12.937
35368W        W94629  27.654   1.936  10.642
35369W        W94630  33.463  21.586   3.764
35370W        W94631  19.777   6.213   1.450
35371W        W94632  11.806  18.052   2.824
35372W        W94633  41.474  12.151   3.791
35373W        W94634  25.676   2.956   2.902
35374W        W94635  20.748  10.298  10.579
35375W        W94636  43.349   6.828   2.343
35376W        W94637  36.434  42.852   1.829
35377W        W94638  12.119  29.654   4.826
35378W        W94639  11.849  31.613  11.395
35379W        W94640   4.310  30.652   4.156
35380W        W94641  27.113  30.045  11.411
35381W        W94642   8.314  37.483   4.673
35382W        W94643  37.511  17.765   2.202
35383W        W94644  36.441  14.783  13.860
35384W        W94645   6.373  29.473   1.915
35385W        W94646  22.091  42.304  11.444
35386W        W94647   7.203  19.703  12.095
35387W        W94648  11.252  44.261   4.125
35388W        W94649  44.767  34.903  10.909
35389W        W94650  33.441  22.590   0.925
35390W        W94651  32.500  15.145   3.196
35391W        W94652  43.918  40.405   1.372
35392W        W94653  26.074  40.041   0.330
35393W        W94654  16.298  22.103  11.886
35394W        W94655  38.906  35.499  11.988
35395W        W94656  44.933  16.175   4.284
35396W        W94657  19.552  10.144  13.352
35397W        W94658  10.147  22.503   0.729
35398W        W94659   9.248   0.391  13.892
35399W        W94660  43.280  30.421  12.560
35400W        W94661  24.500  12.683   4.641
35401W        W94662   0.349   5.420  12.021
35402W        W94663  32.489  14.768   2.853
35403W        W94664  37.037  33.432  12.442
35404W        W94665   7.822  15.773   4.195
35405W        W94666  37.513  40.985   9.921
35406W        W94667  37.502  12.655   2.384
35407W        W94668   9.316  16.248   2.787
35408W        W94669  43.306   1.469   2.290
35409W        W94670  37.006  42.882  11.382
35410W        W94671  34.549  38.390   5.673
35411W        W94672   1.435   5.823  13.459
35412W        W94673  16.811  35.560   0.910
35413W        W94674  21.263  35.378   4.661
35414W        W94675   3.257   0.305  11.545
35415W        W94676  40.979  25.069   2.752
35416W        W94677  37.497  44.865  13.397
35417W        W94678  33.602  16.175  14.424
35418W        W94679   3.439  28.666   3.275
35419W        W94680  34.007  39.315  12.370
35420W        W94681  11.312  32.456  10.425
35421W        W94682  31.529  39.876   1.317
35422W        W94683  17.114  41.870   3.839
35423W        W94684  10.342  18.625   3.284
35424W        W94685   0.975  11.237  11.546
35425W        W94686  28.077  38.820   0.304
35426W        W94687  32.042  31.472   2.725
35427W        W94688  36.388  12.274  10.965
35428W        W94689  10.651  26.093   0.374
35429W        W94690   5.386  44.335   4.114
35430W        W94691   6.318  26.045  10.935
35431W        W94692   3.412  39.958  11.867
35432W        W94693  27.449  12.247  12.984
35433W        W94694  44.996  37.043   3.778
35434W        W94695  14.755  24.104  14.861
35435W        W94696  23.107  33.093   4.660
35436W        W94697  11.304  25.554   2.414
35437W        W94698  30.019  28.932   0.354
35438W        W94699  27.533  30.626   3.334
35439W        W94700  12.264   8.230  10.929
35440W        W94701  33.531  36.352   2.847
35441W        W94702   3.719  41.033   3.344
35442W        W94703   1.740  31.454   2.414
35443W        W94704  42.376  13.232   0.802
35444W        W94705  27.142  40.003  11.894
35445W        W94706  21.646  16.079  14.986
35446W        W94707  15.631  31.433  11.375
35447W        W94708  27.579  41.440  10.418
35448W        W94709   4.243  35.395  13.511
35449W        W94710  23.676  25.966   3.366
35450W        W94711  37.851  41.913  14.297
35451W        W94712  18.216  28.610   0.424
35452W        W94713  12.695  38.907   4.759
35453W        W94714  44.994   9.304   1.292
35454W        W94715  14.627  16.777  13.310
35455W        W94716  44.985  19.127  11.466
35456W        W94717  32.058  30.497   4.193
35457W        W94718  11.827   5.329   0.734
35458W        W94719   6.839  29.094   4.777
35459W        W94720   4.896  27.587  11.918
35460W        W94721  42.359  18.743  11.544
35461W        W94722  16.240  35.088  11.398
35462W        W94723  10.269  25.623  13.338
35463W        W94724  36.391  21.200   1.309
35464W        W94725  16.232  38.015   0.268
35465W        W94726  30.985  12.311   3.716
35466W        W94727  17.591  22.706  12.496
35467W        W94728   6.821  42.808   4.317
35468W        W94729  26.667  23.726   2.247
35469W        W94730   0.817  35.040   0.919
35470W        W94731  37.012   0.314   0.403
35471W        W94732  26.066  18.206   2.871
35472W        W94733   5.784   0.947   3.673
35473W        W94734   8.874  18.743  12.072
35474W        W94735   6.234  42.937  11.394
35475W        W94736  24.098  27.058   3.294
35476W        W94737  30.919   8.871   3.193
35477W        W94738  11.315  19.257  13.513
35478W        W94739  32.016  20.263  13.448
35479W        W94740  18.675   4.818   1.426
35480W        W94741  15.158  24.181  12.927
35481W        W94742   1.873  18.593   0.877
35482W        W94743  44.001   1.913   1.916
35483W        W94744  18.621  10.204  10.011
35484W        W94745  44.415  14.620   1.399
35485W        W94746  18.656  26.623  11.443
35486W        W94747  42.475  44.989  13.507
35487W        W94748  18.667  34.569   0.799
35488W        W94749  33.541  16.807   1.754
35489W        W94750   2.863  25.644   1.705
35490W        W94751  16.150  37.011   3.251
35491W        W94752  28.938   9.706   0.894
35492W        W94753  43.454  21.724  14.934
35493W        W94754  41.478  34.005  13.467
35494W        W94755  24.046  32.433  14.975
35495W        W94756  26.639  35.481  11.020
35496W        W94757  41.454  39.348  13.404
35497W        W94758   7.341  15.797   3.740
35498W        W94759  12.840  41.041  12.526
35499W        W94760  30.019  18.722   4.771
35500W        W94761   4.899   8.870  14.018
35501W        W94762   0.985  29.027   4.695
35502W        W94763  15.221   4.875   2.261
35503W        W94764  12.791  31.525  10.907
35504W        W94765  28.558  38.063  12.845
35505W        W94766  17.730   5.747   2.398
35506W        W94767  30.485  22.561   1.834
35507W        W94768  10.140   7.359   2.700
35508W        W94769  23.224  29.091  14.494
35509W        W94770  22.715   8.844  12.387
35510W        W94771  42.964  32.039  11.012
35511W        W94772  26.664  27.178  11.035
35512W        W94773  40.890  30.981  12.873
35513W        W94774  10.844  13.764  11.561
35514W        W94775  42.815  21.700  13.829
35515W        W94776  23.197   0.977  12.072
35516W        W94777  16.629  30.045  10.505
35517W        W94778  37.055   0.937  14.406
35518W        W94779  15.309  38.947   0.295
35519W        W94780  10.795  26.975  12.433
35520W        W94781  34.417  40.961   1.877
35521W        W94782   0.366  25.203  13.374
35522W        W94783  24.671   5.352   2.861
35523W        W94784   8.863  28.968  11.068
35524W        W94785  35.386   1.800   0.447
35525W        W94786   5.262   2.305   0.835
35526W        W94787  24.711  19.718  13.798
35527W        W94788  38.336  18.211  11.392
35528W        W94789   4.751  43.802  11.573
35529W        W94790  33.533  41.924   3.747
35530W        W94791  13.283  33.084   2.896
35531W        W94792   7.760  37.924   1.831
35532W        W94793   5.325  18.075   4.164
35533W        W94794  13.639   0.923  10.896
35534W        W94795  20.743  21.568  14.313
35535W        W94796  37.931  43.389  14.377
35536W        W94797  41.825  41.412  10.108
35537W        W94798  17.713  16.259   4.658
35538W        W94799  40.320   6.678   2.790
35539W        W94800  38.401  34.432   3.731
35540W        W94801  39.384  20.755   3.280
35541W        W94802  33.973   3.452  13.331
35542W        W94803  13.705  39.461  13.367
35543W        W94804   0.948   5.770  12.035
35544W        W94805  21.716  22.197   4.701
35545W        W94806  29.497  15.171  12.347
35546W        W94807  34.424  28.549   2.349
35547W        W94808  16.811   9.825   3.655
35548W        W94809  35.920  17.758  14.973
35549W        W94810  38.882   7.260  11.568
35550W        W94811  22.110   1.341  10.623
35551W        W94812  25.141   4.844   3.706
35552W        W94813  37.959  41.021  12.980
35553W        W94814  33.057  37.061   4.180
35554W        W94815   9.733  42.505  12.847
35555W        W94816  33.413  31.990  11.989
35556W        W94817  26.955  32.908  13.941
35557W        W94818  23.687  27.146   1.248
35558W        W94819  27.020  26.596  14.366
35559W        W94820  44.277  15.181  10.050
35560W        W94821  37.336   6.776  12.361
35561W        W94822  24.048   1.751   1.370
35562W        W94823   3.741  14.244   1.850
35563W        W94824  31.044  15.133  12.934
35564W        W94825  44.441  33.538  13.926
35565W        W94826  34.867  24.666   4.258
35566W        W94827   5.356   3.900   2.859
35567W        W94828  42.436   5.413   2.393
35568W        W94829   2.962  18.118   2.238
35569W        W94830  27.167  12.774  14.822
35570W        W94831  43.929  11.751   4.736
35571W        W94832  39.362  17.307   0.414
35572W        W94833   6.705   5.715  11.407
35573W        W94834  15.615  15.187  11.598
35574W        W94835  12.822   4.321   4.231
35575W        W94836  28.008  32.070  11.473
35576W        W94837  27.464  17.291  11.886
35577W        W94838   4.703  14.281  13.408
35578W        W94839   7.813  43.496   3.764
35579W        W94840  13.724  25.635   0.316
35580W        W94841  23.709   9.692   0.312
35581W        W94842  32.104  41.018   4.612
35582W        W94843  13.264  14.161   9.925
35583W        W94844  35.544  16.301   1.330
35584W        W94845   2.946  34.909  13.326
35585W        W94846  43.310  36.489  14.861
35586W        W94847  16.266  34.900   4.649
35587W        W94848   1.259  30.482   2.310
35588W        W94849   2.831  20.767   4.174
35589W        W94850  12.213  34.541   0.273
35590W        W94851  22.583  40.804   3.840
35591W        W94852   0.304  44.866   0.749
35592W        W94853  25.524   6.877  12.064
35593W        W94854   2.392  14.687  12.848
35594W        W94855  31.961  10.804  11.041
35595W        W94856   5.252  28.085  12.473
35596W        W94857  17.072   4.888   4.280
35597W        W94858  34.530  31.631   4.284
35598W        W94859  39.033  40.841   1.708
35599W        W94860   4.405  34.097   0.392
35600W        W94861  10.864   8.667   1.927
35601W        W94862  23.205  22.718  14.325
35602W        W94863   6.691  41.976  11.059
35603W        W94864  30.014   8.390   3.803
35604W        W94865   0.336  29.057   3.740
35605W        W94866  32.607   1.862  10.458
35606W        W94867   6.292  19.692  14.502
35607W        W94868  14.709   9.671  14.342
35608W        W94869   5.222  36.943  11.898
35609W        W94870   4.870  27.174   4.821
35610W        W94871   9.730  19.663   4.206
35611W        W94872  21.714  24.156  11.498
35612W        W94873  32.948  19.750  11.981
35613W        W94874  38.488  21.576   2.339
35614W        W94875   4.261   9.797   3.209
35615W        W94876  32.415  40.371   4.246
35616W        W94877  16.649  32.533  14.496
35617W        W94878  18.280  13.189   1.785
35618W        W94879  13.632  36.445  12.547
35619W        W94880  33.517  23.537   0.757
35620W        W94881  43.859  20.545  11.437
35621W        W94882   6.869   2.900   4.638
35622W        W94883  26.648  16.234  14.783
35623W        W94884  30.562  18.569  13.317
35624W        W94885   9.849  39.919  14.936
35625W        W94886  33.070  18.634   0.876
35626W        W94887  33.909  10.867   4.113
35627W        W94888  39.930   6.359   4.172
35628W        W94889  38.944  43.786  10.000
35629W        W94890  33.125  11.854  12.404
35630W        W94891  33.987  16.317  13.528
35631W        W94892  31.412  37.375  12.944
35632W        W94893  44.423  31.517   0.458
35633W        W94894  30.918  13.670  11.062
35634W        W94895   0.794  30.493   3.674
35635W        W94896  21.695  29.476  14.405
35636W        W94897  14.322  42.781  14.818
35637W        W94898  17.129  37.351  11.960
35638W        W94899  36.404  27.452   2.884
35639W        W94900  17.776   0.311   0.895
35640W        W94901   6.288  39.418   3.768
35641W        W94902  13.709  39.065  12.052
35642W        W94903  10.370  21.049  14.910
35643W        W94904  41.890  18.762  14.823
35644W        W94905  34.959  26.644  14.327
35645W        W94906  41.023  33.576   3.760
35646W        W94907  33.552   5.799  12.359
35647W        W94908  26.005  16.647   2.865
35648W        W94909  27.978  13.646   4.214
35649W        W94910  37.473  26.020   0.774
35650W        W94911  30.647  38.068  10.499
35651W        W94912  23.626  20.167   4.651
35652W        W94913  24.721  41.489   1.401
35653W        W94914  19.540  19.100   3.295
35654W        W94915  18.217  19.100   1.709
35655W        W94916  20.736   3.772   3.315
35656W        W94917  15.324  44.793  13.909
35657W        W94918   3.897  33.108   2.252
35658W        W94919  39.824  33.552   3.782
35659W        W94920  24.049   2.792   3.328
35660W        W94921   6.259  27.117  13.354
35661W        W94922  43.879  26.989   1.260
35662W        W94923  25.537  34.958   0.396
35663W        W94924  38.995  28.054  13.039
35664W        W94925  29.985   0.360  11.412
35665W        W94926   1.853  16.247   2.357
35666W        W94927  13.658   8.356   3.383
35667W        W94928  38.992  10.348  11.505
35668W        W94929  43.283  17.101   3.725
35669W        W94930   2.312  22.229  14.921
35670W        W94931  30.618   8.849  10.970
35671W        W94932  12.265   5.362  11.985
35672W        W94933  19.768  44.392  12.838
35673W        W94934  30.419   3.294   2.225
35674W        W94935  37.491  37.395   1.829
35675W        W94936  16.111  29.059  13.818
35676W        W94937   2.943   9.358  13.977
35677W        W94938  19.195   2.432   4.315
35678W        W94939  28.528  33.989   2.760
35679W        W94940   3.336  18.693   1.336
35680W        W94941   2.306   3.221   2.293
35681W        W94942  10.834  19.040  11.018
35682W        W94943  20.179  38.545   4.282
35683W        W94944  42.330  12.741   0.297
35684W        W94945  15.769   8.300   4.289
35685W        W94946  16.318   5.737  12.563
35686W        W94947   5.199   8.784  14.936
35687W        W94948  11.725  31.528  12.563
35688W        W94949  23.206  10.746  10.450
35689W        W94950  34.404   3.829   0.425
35690W        W94951  17.711   6.750  11.433
35691W        W94952  18.698  16.672   2.853
35692W        W94953  12.292  31.557  14.307
35693W        W94954  18.158   7.198  11.533
35694W        W94955  18.117  15.136   2.789
35695W        W94956  15.808  11.293   2.217
35696W        W94957  43.780  43.942  10.533
35697W        W94958  44.876  30.961   0.920
35698W        W94959  23.057  40.961  11.567
35699W        W94960  41.809  14.285  14.862
35700W        W94961   2.431   1.802  12.469
35701W        W94962  33.589   1.931  10.536
35702W        W94963  27.562  10.315   0.834
35703W        W94964  27.132  36.012   1.745
35704W        W94965  38.922  22.671   1.728
35705W        W94966  20.534  31.435   4.184
35706W        W94967  20.142  29.604  10.963
35707W        W94968  35.965  42.834   3.739
35708W        W94969  38.979  18.206  13.888
35709W        W94970  43.835  28.140  14.945
35710W        W94971  36.551  31.534   2.236
35711W        W94972  38.550  27.160  11.886
35712W        W94973  39.359   4.832  13.936
35713W        W94974  38.539  25.634   4.616
35714W        W94975  38.414  25.650   1.333
35715W        W94976  10.709   1.827   1.769
35716W        W94977  25.104  21.191   2.791
35717W        W94978   1.915  26.020   2.674
35718W        W94979  12.688  30.115  11.486
35719W        W94980  38.569   4.382   2.341
35720W        W94981  25.693  12.753  12.082
35721W        W94982  28.489  22.728   3.695
35722W        W94983  33.979  44.479  10.019
35723W        W94984  13.734   2.459   4.205
35724W        W94985   3.276  36.940  11.456
35725W        W94986  29.948  24.015   0.797
35726W        W94987  11.806  34.001   2.300
35727W        W94988  38.351  44.927  10.532
35728W        W94989   3.739  21.017  12.402
35729W        W94990  16.791   1.332  12.415
35730W        W94991  35.073  22.719  11.469
35731W        W94992  25.981   6.232   2.391
35732W        W94993  28.485  20.046  13.935
35733W        W94994  30.930  18.657   2.392
35734W        W94995   1.444   3.215  14.777
35735W        W94996  32.528  39.469   0.923
35736W        W94997  15.639  38.837  13.970
35737W        W94998  39.393  17.662   3.243
35738W        W94999  29.538  25.079   4.722
35739W        W95000   0.338  15.314  11.379
35740W        W95001   0.873  10.197  10.439
35741W        W95002  38.880   5.217  11.117
35742W        W95003  32.915  23.219   2.303
35743W        W95004  39.375  20.567   2.281
35744W        W95005  40.362  40.000  13.809
35745W        W95006  31.091  14.195   0.281
35746W        W95007  26.994  10.810   4.679
35747W        W95008  18.637  34.545   1.345
35748W        W95009  20.593   3.328   5.131
35749W        W95010  20.144  42.873   4.661
35750W        W95011  42.468  11.142   3.227
35751W        W95012  23.225  15.085   4.669
35752W        W95013  42.960  19.732   0.765
35753W        W95014  22.226  24.565  13.822
35754W        W95015  40.946  30.911   2.319
35755W        W95016  28.132  33.076  10.480
35756W        W95017   1.851  22.706  11.129
35757W        W95018   4.774  38.014   3.351
35758W        W95019  24.594  31.972   5.181
35759W        W95020  40.368  29.011  12.541
35760W        W95021  26.189  25.113  11.611
35761W        W95022  28.585   5.841   4.236
35762W        W95023   3.912   1.378   1.424
35763W        W95024   0.492  24.621  12.517
35764W        W95025  29.975  11.128  12.397
35765W        W95026  21.258   5.896   2.218
35766W        W95027  15.141  13.298  13.432
35767W        W95028  18.688  38.372  11.978
35768W        W95029  42.515  11.784  14.887
35769W        W95030  17.603  16.769  12.938
35770W        W95031   6.354  31.519   4.238
35771W        W95032  18.247   5.868  12.005
35772W        W95033  28.492   1.350   0.834
35773W        W95034  25.035  23.693  11.546
35774W        W95035  19.152  13.211   0.927
35775W        W95036  14.189  35.460   4.692
35776W        W95037  32.104  14.178   3.195
35777W        W95038  12.255  44.805  12.558
35778W        W95039  27.012  32.516  14.965
35779W        W95040   6.730  21.197  10.486
35780W        W95041  19.225  16.227  14.456
35781W        W95042  17.626  27.518   5.800
35782W        W95043  28.540   9.197   3.680
35783W        W95044  12.617  14.126  14.794
35784W        W95045   9.778  28.053   0.832
35785W        W95046   4.325  36.994   2.238
35786W        W95047  17.207   2.896   0.941
35787W        W95048  44.387  21.599  11.552
35788W        W95049  43.462  14.739  14.288
35789W        W95050  38.406  41.532  14.422
35790W        W95051  33.517  10.729  11.401
35791W        W95052  22.131  34.419  13.963
35792W        W95053  19.041  17.068  12.421
35793W        W95054  36.897  23.586  14.393
35794W        W95055  19.056  18.253  10.628
35795W        W95056  18.238  22.031   0.823
35796W        W95057  37.973  11.261   1.211
35797W        W95058  29.531  28.104   3.254
35798W        W95059  34.548  38.977  13.027
35799W        W95060  18.741  33.616  12.947
35800W        W95061  11.859  38.029   3.701
35801W        W95062  23.112   9.881   4.279
35802W        W95063  12.226  39.322   4.729
35803W        W95064  33.507  40.885  11.461
35804W        W95065  21.118  35.483  10.619
35805W        W95066  26.026   8.183  11.879
35806W        W95067  35.090   9.356  10.533
35807W        W95068  31.607   1.339   3.305
35808W        W95069  15.656  23.099  11.071
35809W        W95070  30.013  12.300   9.974
35810W        W95071  11.170   7.795  13.490
35811W        W95072  28.670  22.646   3.158
35812W        W95073  17.092  20.687  13.061
35813W        W95074  12.149  32.986  13.987
35814W        W95075  10.846   4.318   2.717
35815W        W95076  12.615  30.649  12.360
35816W        W95077  38.353  25.197   3.372
35817W        W95078  27.954  13.741  13.861
35818W        W95079  13.646  15.695   1.932
35819W        W95080  37.347  28.518  12.934
35820W        W95081  38.022   0.465   4.832
35821W        W95082  15.227  12.336  10.539
35822W        W95083  35.586   7.846  13.053
35823W        W95084  28.528  21.072  11.999
35824W        W95085  27.653  28.004  10.462
35825W        W95086  28.024   3.791   0.295
35826W        W95087  17.276   3.379   2.700
35827W        W95088  29.610  24.672  10.972
35828W        W95089  41.502  21.713   1.850
35829W        W95090  34.024  22.017   2.295
35830W        W95091  11.215  44.471  11.935
35831W        W95092   4.295  24.705  13.465
35832W        W95093  18.240  29.658   5.240
35833W        W95094  35.552  24.543   2.817
35834W        W95095  11.638  31.531   4.763
35835W        W95096  26.985  23.031   1.926
35836W        W95097  41.500  10.871   3.163
35837W        W95098  27.153   9.704  12.403
35838W        W95099  11.711  28.992   1.419
35839W        W95100  12.773  43.952  10.462
35840W        W95101  36.052  32.579   0.404
35841W        W95102  22.232   9.769  11.959
35842W        W95103  44.445   7.398   0.368
35843W        W95104  22.996   3.895  12.044
35844W        W95105  44.325  22.066  10.081
35845W        W95106   1.855  25.523  10.470
35846W        W95107  11.771   7.186  12.020
35847W        W95108  38.464  38.405   4.796
35848W        W95109  40.375   3.925  13.535
35849W        W95110   7.763  35.467  11.538
35850W        W95111  13.129  14.154   0.390
35851W        W95112  37.572  28.544  13.867
35852W        W95113   3.840  29.528   2.853
35853W        W95114  24.105  33.957   1.226
35854W        W95115  11.837   2.360   5.120
35855W        W95116   0.332  32.623   4.692
35856W        W95117  11.333   5.721  14.896
35857W        W95118   4.822  15.629  13.444
35858W        W95119  10.739  30.582  14.937
35859W        W95120  22.194  27.656  13.011
35860W        W95121  32.636  39.500   4.276
35861W        W95122  33.040   5.864   1.364
35862W        W95123  27.665   7.828   1.349
35863W        W95124   6.827  34.464   3.185
35864W        W95125  41.357   6.184   3.747
35865W        W95126  15.792  42.443  10.419
35866W        W95127  22.072  22.591  10.500
35867W        W95128  31.456   4.870   3.192
35868W        W95129  12.682  37.978  14.286
35869W        W95130   1.279  37.055   4.764
35870W        W95131  26.972  24.479   1.363
35871W        W95132  12.238  30.440   2.360
35872W        W95133   7.294  10.261  12.496
35873W        W95134  34.571   0.877   4.806
35874W        W95135   9.751  31.581  12.391
35875W        W95136  37.043  34.393   0.887
35876W        W95137  38.000  32.566  14.908
35877W        W95138  40.304  39.410   0.962
35878W        W95139  34.444  14.684  11.454
35879W        W95140  36.371  10.846   4.659
35880W        W95141  19.128  19.117   3.802
35881W        W95142   9.683   3.877  10.945
35882W        W95143  29.670   3.316  12.078
35883W        W95144  39.442  41.032   4.194
35884W        W95145  38.834  35.501  10.086
35885W        W95146  14.263   7.369   9.929
35886W        W95147  40.526   4.860  10.509
35887W        W95148  40.046  31.625  10.514
35888W        W95149  19.181  29.082  14.438
35889W        W95150   1.887  23.557  14.470
35890W        W95151  31.076   5.920  11.932
35891W        W95152  33.075   8.836  13.496
35892W        W95153  25.624  44.011  13.480
35893W        W95154  14.632  19.261   1.333
35894W        W95155  44.960  26.993  12.872
35895W        W95156  39.809  33.485   2.377
35896W        W95157  27.584  33.906  12.384
35897W        W95158  18.665  23.623  11.392
35898W        W95159  12.702  27.515   0.898
35899W        W95160  25.667  11.674   4.147
35900W        W95161   1.333  43.344   2.354
35901W        W95162  21.598  42.884   1.434
35902W        W95163  34.595   1.731  13.987
35903W        W95164  41.418  23.609   1.403
35904W        W95165  36.880  35.507  12.958
35905W        W95166  10.834   0.258  14.324
35906W        W95167  27.115  31.109  10.901
35907W        W95168  17.652   0.744  10.907
35908W        W95169  35.061  44.478  11.952
35909W        W95170   6.760  35.020   0.912
35910W        W95171  16.763   0.760  12.987
35911W        W95172  27.017   1.392  10.623
35912W        W95173   9.789   9.765   2.732
35913W        W95174   6.922   7.323   3.312
35914W        W95175  11.143   4.781   1.909
35915W        W95176  35.569  37.491   3.295
35916W        W95177  22.207  44.340   1.893
35917W        W95178  14.136  19.196   2.760
35918W        W95179  12.850  38.445  10.970
35919W        W95180   2.446  33.485  11.450
35920W        W95181   4.246  39.412   4.802
35921W        W95182  39.039  37.446   1.317
35922W        W95183  32.021  24.541   1.842
35923W        W95184  23.701  38.978  13.469
35924W        W95185  38.830  22.179  14.369
35925W        W95186  34.494  44.375   0.350
35926W        W95187  10.253  24.719  11.926
35927W        W95188   7.396   4.933   1.257
35928W        W95189  27.977  10.710   0.868
35929W        W95190   2.954  33.518  12.914
35930W        W95191   6.230  19.112   4.829
35931W        W95192  12.619   7.694   4.127
35932W        W95193  25.131  34.404   0.329
35933W        W95194  18.688  25.473  14.903
35934W        W95195  27.614  27.596  10.452
35935W        W95196  28.169  38.851   5.267
35936W        W95197  27.456   5.797  12.892
35937W        W95198  27.167  15.803  10.490
35938W        W95199  44.347   9.691   4.621
35939W        W95200  25.688  18.559  13.897
35940W        W95201  22.649  17.170  12.933
35941W        W95202  14.307   1.250   3.735
35942W        W95203  24.041  15.746  11.065
35943W        W95204  30.597  26.020  11.502
35944W        W95205  26.623  44.973   0.457
35945W        W95206  43.977   7.837   0.298
35946W        W95207  17.610   4.767   4.284
35947W        W95208   9.817  10.324  14.001
35948W        W95209  38.969  14.264  11.124
35949W        W95210  34.881  19.044   2.742
35950W        W95211  25.013  23.238   4.173
35951W        W95212   6.739  34.105   4.271
35952W        W95213  38.008  17.566  11.875
35953W        W95214   7.753   4.739  12.062
35954W        W95215   1.746  30.442   0.848
35955W        W95216  13.633  42.313  14.015
35956W        W95217  11.852  11.209   5.083
35957W        W95218  25.147  38.885  13.548
35958W        W95219  36.565   7.253  10.633
35959W        W95220   1.825  19.245  12.560
35960W        W95221  38.844  20.251  13.422
35961W        W95222   4.445   8.807  10.915
35962W        W95223  36.902  27.498  10.923
35963W        W95224  23.217   2.344   1.744
35964W        W95225  22.533  41.806  12.405
35965W        W95226  31.414   1.345   2.665
35966W        W95227   3.394   5.799   2.285
35967W        W95228  18.588  28.613   0.259
35968W        W95229  13.620  34.436  14.790
35969W        W95230  12.349  38.557   2.304
35970W        W95231   4.428  29.462   1.851
35971W        W95232   5.766  33.577   1.785
35972W        W95233  18.112  41.927   4.313
35973W        W95234  23.725  20.149   2.680
35974W        W95235  22.686  24.501   2.259
35975W        W95236  42.940  33.976   1.878
35976W        W95237  31.006  22.103  11.472
35977W        W95238  22.179  21.181  14.880
35978W        W95239  24.636   4.356   1.344
35979W        W95240  41.796  33.484  10.999
35980W        W95241  43.390  30.620   9.942
35981W        W95242  12.704  42.006  14.843
35982W        W95243  19.569  26.519  13.042
35983W        W95244  11.827  33.385  13.419
35984W        W95245  16.631  24.629  11.927
35985W        W95246  20.759  16.608   4.690
35986W        W95247  19.050   4.871   4.667
35987W        W95248  15.152  41.017   2.228
35988W        W95249  15.630  32.938  14.898
35989W        W95250  42.026  37.032  10.900
35990W        W95251  30.575  18.726   3.824
35991W        W95252  35.390  23.578  10.610
35992W        W95253  40.013  23.145   1.215
35993W        W95254  33.380  44.931  12.415
35994W        W95255  15.647   5.911  11.438
35995W        W95256   1.470   2.441  11.461
35996W        W95257  31.487   6.864  12.021
35997W        W95258  44.997  11.242  14.764
35998W        W95259  30.597  12.658   0.298
35999W        W95260  13.763  44.845  13.536
36000W        W95261  12.695  39.850   2.800
36001W        W95262  24.570   7.752   0.814
36002W        W95263  12.201  43.966  11.491
36003W        W95264  43.830  39.917   4.240
36004W        W95265  34.436   8.339  11.885
36005W        W95266  33.893   8.675   4.760
36006W        W95267  40.020  33.409   2.757
36007W        W95268   7.368  37.574  11.504
36008W        W95269  27.510  28.554  11.589
36009W        W95270  19.149  16.784   4.197
36010W        W95271  13.333  20.687   3.275
36011W        W95272   2.766  30.956   4.253
36012W        W95273  15.682  20.126   5.142
36013W        W95274  22.091  25.493  13.031
36014W        W95275  44.391   8.808  14.009
36015W        W95276  31.418  21.686   1.711
36016W        W95277  36.572  22.590   2.368
36017W        W95278  17.264  31.034  10.140
36018W        W95279   4.807  20.699   2.191
36019W        W95280  11.176   3.434   3.757
36020W        W95281  31.599  18.251  14.332
36021W        W95282   4.215  25.668  12.413
36022W        W95283  43.845  44.884   0.923
36023W        W95284  32.090  20.112  10.988
36024W        W95285  40.320  27.660  14.900
36025W        W95286   8.270   3.271   1.782
36026W        W95287  14.640  35.879   2.745
36027W        W95288  11.756  27.011  11.973
36028W        W95289  10.221  22.079  14.382
36029W        W95290  23.171  42.015  10.543
36030W        W95291  13.151  27.073   0.279
36031W        W95292  35.015  18.196  14.842
36032W        W95293  37.832  44.439   1.353
36033W        W95294  13.648  41.297  11.532
36034W        W95295   3.317   6.299  13.821
36035W        W95296  12.820   6.279  13.508
36036W        W95297  13.628   7.678  13.004
36037W        W95298  15.622   9.808   2.768
36038W        W95299  14.300  18.114  10.617
36039W        W95300  37.419  35.046  14.883
36040W        W95301  27.689  32.571  13.417
36041W        W95302  42.414  28.969  12.458
36042W        W95303   3.844  41.978  11.096
36043W        W95304  24.210  35.482  12.921
36044W        W95305  22.226  38.009   0.919
36045W        W95306  13.289   6.700   4.344
36046W        W95307  34.987   7.752  14.802
36047W        W95308   0.415   0.896   1.214
36048W        W95309   0.932  25.535   2.689
36049W        W95310   7.758  25.114  12.014
36050W        W95311  20.148  43.350  13.907
36051W        W95312  35.491  26.556  13.464
36052W        W95313  44.264  22.530   1.708
36053W        W95314  21.160  12.158   1.367
36054W        W95315  22.502  19.065  13.341
36055W        W95316  32.886  22.220  13.475
36056W        W95317  34.542  27.573  11.007
36057W        W95318  26.635  22.178  12.492
36058W        W95319   3.931  38.463   4.647
36059W        W95320   7.207  38.910   2.668
36060W        W95321  28.959  20.126   4.241
36061W        W95322   2.339  15.285   0.773
36062W        W95323   1.364  43.450  12.901
36063W        W95324   9.825   2.869  10.009
36064W        W95325  15.614  43.353   1.437
36065W        W95326  44.910  23.628   1.376
36066W        W95327   0.434  42.497   3.240
36067W        W95328   6.210   5.335  11.465
36068W        W95329  39.869  18.642  13.411
36069W        W95330  30.100  41.932   2.827
36070W        W95331   2.852  36.514   2.300
36071W        W95332  23.557  13.347   3.153
36072W        W95333  10.801   0.271   1.212
36073W        W95334  18.196   0.777  11.861
36074W        W95335  35.572   2.344  11.929
36075W        W95336  11.362  17.747  10.034
36076W        W95337  37.452   6.242  14.811
36077W        W95338   1.357  34.007  11.103
36078W        W95339   8.281  11.309   1.739
36079W        W95340  24.023  29.151  10.895
36080W        W95341  38.551  36.459   4.598
36081W        W95342  42.341  25.625   1.753
36082W        W95343   5.211   7.246   0.738
36083W        W95344  28.067  26.029   0.470
36084W        W95345  44.814  29.036   3.207
36085W        W95346  14.204  32.049   1.760
36086W        W95347   9.393  21.753  14.773
36087W        W95348  20.104  23.686   3.694
36088W        W95349  10.206  30.019  11.092
36089W        W95350  10.697  18.692  11.060
36090W        W95351  32.900  34.099  13.459
36091W        W95352  25.630  20.768   1.864
36092W        W95353  17.597  43.934   0.446
36093W        W95354  17.144  18.650  13.387
36094W        W95355   1.239  18.649  12.545
36095W        W95356  17.666  41.362  10.906
36096W        W95357  15.103  37.518  14.816
36097W        W95358  38.388  41.470   2.201
36098W        W95359  36.085   5.318  11.036
36099W        W95360  31.020  39.320   1.406
36100W        W95361  15.215  14.216  10.911
36101W        W95362  41.994  23.058  14.300
36102W        W95363   8.746  22.524  14.001
36103W        W95364  41.405  16.187   0.446
36104W        W95365   8.692  37.357   4.207
36105W        W95366  37.352  24.226   2.266
36106W        W95367  24.217  43.469  11.861
36107W        W95368  33.521  10.853  10.077
36108W        W95369  32.926  26.034  10.520
36109W        W95370  13.184  25.499   4.700
36110W        W95371  40.012  33.921   0.303
36111W        W95372  11.134  23.610   4.654
36112W        W95373  11.747  35.875   2.366
36113W        W95374  10.337  34.991  12.944
36114W        W95375  33.125   6.218  13.373
36115W        W95376  15.119  36.497   4.671
36116W        W95377  33.616  43.931   2.687
36117W        W95378  16.625  32.615   2.315
36118W        W95379  20.112  22.651  11.053
36119W        W95380  15.777  35.546   0.378
36120W        W95381  25.155  18.663  14.948
36121W        W95382   2.896  37.538   4.265
36122W        W95383  35.993  24.064  14.866
36123W        W95384  44.940  23.515  13.380
36124W        W95385   2.421  12.270  12.406
36125W        W95386  35.025  13.253   0.878
36126W        W95387  37.363  40.968  12.517
36127W        W95388  15.723  33.482  11.461
36128W        W95389  31.566  20.271  12.888
36129W        W95390  33.424   2.900  12.400
36130W        W95391  17.596   9.765   4.211
36131W        W95392   6.287  28.136  12.368
36132W        W95393  26.004  39.380  14.838
36133W        W95394  15.259  44.816  11.014
36134W        W95395   0.329   6.807  13.415
36135W        W95396   3.771  24.157  13.835
36136W        W95397  24.176  13.163   4.648
36137W        W95398  21.633  42.316   1.886
36138W        W95399  38.494  29.094   2.804
36139W        W95400  12.254  34.518  13.965
36140W        W95401  41.029  34.110  13.310
36141W        W95402  23.127   6.252  13.417
36142W        W95403  12.347  36.503   0.345
36143W        W95404  27.687  44.436   0.289
36144W        W95405  18.759  32.453  12.995
36145W        W95406  36.501  19.586  12.836
36146W        W95407   1.416  40.388  10.599
36147W        W95408   7.349  17.756   2.671
36148W        W95409  42.779   2.946   4.331
36149W        W95410   0.779  13.129   3.781
36150W        W95411  19.203  27.989   2.822
36151W        W95412  37.944  29.973  12.006
36152W        W95413   8.271   1.904   2.196
36153W        W95414  12.122  31.973  12.998
36154W        W95415  26.601  36.404  14.374
36155W        W95416  34.015   5.242  10.519
36156W        W95417   2.339   9.844  12.908
36157W        W95418   2.322  22.057  10.550
36158W        W95419  32.435  20.581   4.139
36159W        W95420  39.957  40.400  12.947
36160W        W95421  12.128  24.054   4.328
36161W        W95422  30.555  28.067   3.254
36162W        W95423  17.284  25.589  13.337
36163W        W95424  26.623  16.118  13.448
36164W        W95425  14.280   1.735   3.631
36165W        W95426  35.358  27.668   0.436
36166W        W95427  38.936  35.522   2.396
36167W        W95428  36.410  23.203   4.824
36168W        W95429  42.399  40.538   4.808
36169W        W95430   5.866  41.457  13.542
36170W        W95431  31.067  29.570  11.439
36171W        W95432  33.064  28.630   2.810
36172W        W95433  43.364  16.247  14.821
36173W        W95434  36.892  29.013   3.630
36174W        W95435   4.901  18.290  13.391
36175W        W95436  11.170  12.693   3.384
36176W        W95437  10.768  39.476  14.948
36177W        W95438  19.648  24.723   3.841
36178W        W95439  27.134  38.003  11.381
36179W        W95440  27.140  32.015   0.826
36180W        W95441   6.401  15.784  10.605
36181W        W95442  15.733  41.921  13.310
36182W        W95443  21.093  34.058   4.288
36183W        W95444  16.304  44.503  10.566
36184W        W95445   0.253  35.000   2.732
36185W        W95446  15.790  34.011   4.177
36186W        W95447  29.465  24.089   3.775
36187W        W95448  42.779  30.523   2.408
36188W        W95449  35.928   0.333  13.971
36189W        W95450   1.350  22.675  11.571
36190W        W95451  26.535  19.226   0.448
36191W        W95452   7.288  37.368   3.748
36192W        W95453  28.526  28.105   1.212
36193W        W95454  39.921   0.253  13.429
36194W        W95455  37.571  30.429   2.689
36195W        W95456  15.791  34.597   2.835
36196W        W95457  28.122   5.699   4.247
36197W        W95458  24.487  43.509   4.753
36198W        W95459  18.576  36.887  14.413
36199W        W95460  44.407   6.731  12.869
36200W        W95461  14.800  10.790  14.445
36201W        W95462  43.484  26.116  12.941
36202W        W95463  11.337  12.189   5.207
36203W        W95464   5.734   5.908   3.158
36204W        W95465  33.062  26.504   3.713
36205W        W95466  24.181  26.674   1.918
36206W        W95467   4.227  28.575  14.350
36207W        W95468  43.285  17.563   3.282
36208W        W95469  18.609   5.866  13.925
36209W        W95470   3.374   8.900  14.961
36210W        W95471  34.568  26.991   3.147
36211W        W95472  43.994  23.512  11.903
36212W        W95473  26.161  41.361   3.149
36213W        W95474  41.324  28.952   3.243
36214W        W95475  27.027  34.003  14.807
36215W        W95476  26.168  17.800   4.193
36216W        W95477  25.130  33.090   1.832
36217W        W95478   8.185   8.814  12.955
36218W        W95479  40.030  14.736  13.969
36219W        W95480   9.356  16.251  14.899
36220W        W95481  41.325   4.878  10.531
36221W        W95482  29.632  30.419   4.665
36222W        W95483  40.471   4.213  10.903
36223W        W95484  43.867  20.557  13.312
36224W        W95485   3.440  39.524   4.266
36225W        W95486  18.573  12.742   0.791
36226W        W95487  40.369  35.473   0.377
36227W        W95488  43.842  20.089  13.515
36228W        W95489  24.167  13.328   2.209
36229W        W95490  28.010   6.825   1.438
36230W        W95491  27.689  32.026   1.327
36231W        W95492  32.405   9.837   2.354
36232W        W95493  26.170  29.146  14.432
36233W        W95494   3.304  27.514   2.792
36234W        W95495  20.679  31.061  10.572
36235W        W95496  32.936  32.983   4.782
36236W        W95497  19.608  20.656  14.401
36237W        W95498  19.695  37.074  10.478
36238W        W95499  17.604  32.142  10.038
36239W        W95500  42.976  16.117  13.863
36240W        W95501  20.742  10.151  10.939
36241W        W95502  10.334  13.755  12.396
36242W        W95503  20.596   8.207  13.337
36243W        W95504  40.932  27.066  12.468
36244W        W95505  24.112  39.827   0.395
36245W        W95506  42.801   7.337   3.349
36246W        W95507  33.892  31.031  14.821
36247W        W95508  44.922  44.409   0.285
36248W        W95509  18.731   2.884   4.801
36249W        W95510  28.492  31.123   4.271
36250W        W95511  38.847  12.134  11.945
36251W        W95512  12.662  18.097  11.024
36252W        W95513  14.339  18.161   3.175
36253W        W95514   4.391  21.657   1.736
36254W        W95515  23.650  24.013  12.341
36255W        W95516   2.373  25.119  10.925
36256W        W95517  39.835   7.907   1.879
36257W        W95518  13.258  20.599   4.179
36258W        W95519  26.588  21.746  12.366
36259W        W95520  26.150  16.648   0.445
36260W        W95521  28.149   1.312  11.032
36261W        W95522   6.768  26.989   1.284
36262W        W95523  23.557   7.253   3.675
36263W        W95524  29.015  17.094  11.093
36264W        W95525   0.471  15.621  11.127
36265W        W95526  12.122  27.001   2.778
36266W        W95527   1.331  33.060   4.214
36267W        W95528   1.297  12.670  13.964
36268W        W95529  24.067   0.986   0.416
36269W        W95530   4.403  38.837   2.330
36270W        W95531  21.539  32.598   1.725
36271W        W95532  37.915  22.549  14.346
36272W        W95533  37.840  43.390   0.804
36273W        W95534   1.459  42.827  10.597
36274W        W95535  17.118  24.095   0.852
36275W        W95536  35.529  13.835  10.640
36276W        W95537  22.732  32.136  14.411
36277W        W95538   8.725  42.404   1.806
36278W        W95539   6.864  18.550  10.527
36279W        W95540  43.339   0.898   3.832
36280W        W95541  40.846  14.120  12.046
36281W        W95542  28.064  17.698   1.933
36282W        W95543  25.611   9.793  14.380
36283W        W95544  34.069   1.427   4.190
36284W        W95545  43.961  18.611   1.344
36285W        W95546  30.596  32.540  10.458
36286W        W95547  39.540  17.145   1.833
36287W        W95548  11.341  31.991  14.394
36288W        W95549  34.927  12.117   4.756
36289W        W95550   0.983   9.152   2.761
36290W        W95551  27.138  42.828  12.859
36291W        W95552  23.008   4.204   1.251
36292W        W95553  34.506  39.549  13.882
36293W        W95554  41.025   0.773   2.812
36294W        W95555   8.756  31.016  11.075
36295W        W95556  11.639  25.692   2.685
36296W        W95557   0.414  12.675   3.717
36297W        W95558   7.330  43.843   2.853
36298W        W95559  11.218  14.696   1.278
36299W        W95560  23.241  27.001  12.043
36300W        W95561  20.570  29.050  14.318
36301W        W95562  43.840  37.917  13.864
36302W        W95563  43.434  24.583   0.759
36303W        W95564  25.173  10.179   1.276
36304W        W95565  22.725  37.534   2.365
36305W        W95566  38.891  28.482  14.865
36306W        W95567  22.148  13.122   1.793
36307W        W95568  36.936  22.047  10.574
36308W        W95569  22.067  22.205   4.642
36309W        W95570  36.851  23.628   2.816
36310W        W95571  23.684  13.143  10.928
36311W        W95572  27.044  22.160   1.777
36312W        W95573  22.509  38.877   3.271
36313W        W95574  28.013   2.796  13.408
36314W        W95575   1.443  14.312  12.360
36315W        W95576  33.091  18.064  14.370
36316W        W95577  20.549  25.110  10.465
36317W        W95578  37.369  28.009  13.009
36318W        W95579  15.262   2.896   4.142
36319W        W95580  27.013  37.051  13.877
36320W        W95581  32.910  29.642  10.579
36321W        W95582  14.611  21.023  12.354
36322W        W95583  36.480   8.163  13.943
36323W        W95584  18.762  32.486   1.799
36324W        W95585  24.513  37.855  13.928
36325W        W95586  26.118  30.149  14.387
36326W        W95587   4.364  23.127   2.895
36327W        W95588   7.797   5.922   2.233
36328W        W95589  11.766   2.906   1.740
36329W        W95590  31.085  13.627   2.726
36330W        W95591  23.620  33.589  10.575
36331W        W95592  10.218  28.948  14.021
36332W        W95593  20.545  28.135  11.047
36333W        W95594  35.098  43.417   2.888
36334W        W95595  38.433   1.862   2.674
36335W        W95596  27.162  19.560   2.718
36336W        W95597  44.993  24.640  13.509
36337W        W95598  37.051   6.244   0.906
36338W        W95599  31.153  17.766   4.146
36339W        W95600   8.757   7.756   0.961
36340W        W95601  11.637   6.911   3.246
36341W        W95602  35.109  33.115   0.901
36342W        W95603  22.661   9.173   3.674
36343W        W95604  27.048  26.664  10.580
36344W        W95605   6.726  23.599   2.196
36345W        W95606  10.344  12.720   5.771
36346W        W95607  39.514  15.160   3.156
36347W        W95608  11.163   7.691   2.727
36348W        W95609  40.887  23.722   2.791
36349W        W95610   0.856   4.703  10.418
36350W        W95611  28.975  31.579   2.268
36351W        W95612  31.058  13.609   0.821
36352W        W95613  36.418   8.316   4.123
36353W        W95614  23.703  15.651  11.565
36354W        W95615  32.452  36.464  11.947
36355W        W95616  34.502  35.988   4.117
36356W        W95617  23.193  26.016   1.894
36357W        W95618   2.858   2.392  14.773
36358W        W95619  44.444  37.831   2.386
36359W        W95620  15.161  40.514   1.375
36360W        W95621  32.137  14.338  12.086
36361W        W95622  15.093  18.609  14.779
36362W        W95623  12.140   1.447  14.328
36363W        W95624  27.066  27.067  12.987
36364W        W95625  18.550  39.346  12.358
36365W        W95626  44.338  30.601   4.243
36366W        W95627  42.846  44.356   3.356
36367W        W95628  14.275  40.544  14.821
36368W        W95629  24.589  35.569  12.548
36369W        W95630  41.409  40.444  12.493
36370W        W95631  15.603  21.649   1.446
36371W        W95632  37.926  38.522  12.053
36372W        W95633  40.055  18.610   3.193
36373W        W95634   3.889  26.608  13.409
36374W        W95635  25.014  43.487  12.993
36375W        W95636   0.763  37.072   1.731
36376W        W95637   9.755  43.515  11.914
36377W        W95638  23.727   9.756  13.371
36378W        W95639   8.856  28.580   0.819
36379W        W95640  17.115  16.298  10.620
36380W        W95641  24.061  16.580  12.014
36381W        W95642  44.914   9.657  12.864
36382W        W95643   4.902  14.258   4.294
36383W        W95644  33.434  25.477   3.847
36384W        W95645   9.728  17.580  13.049
36385W        W95646  37.886  15.708  13.465
36386W        W95647  26.995   6.341  11.470
36387W        W95648  21.734   9.235   4.185
36388W        W95649  24.520   4.367  13.938
36389W        W95650  13.674  42.872   1.309
36390W        W95651   3.335  33.009   0.383
36391W        W95652  24.522   6.716   0.257
36392W        W95653   3.443  11.191   3.253
36393W        W95654  40.511  19.743  13.527
36394W        W95655   6.223   4.374   0.358
36395W        W95656   8.745   4.255  11.378
36396W        W95657  17.185  19.057   4.218
36397W        W95658  11.286   9.233   4.820
36398W        W95659   8.841  12.318   5.087
36399W        W95660   3.731  27.103  10.620
36400W        W95661  29.075  24.084  11.572
36401W        W95662  42.506  13.648   2.703
36402W        W95663  23.705  32.574  13.050
36403W        W95664  28.635  35.525  13.893
36404W        W95665  28.102  41.516   2.256
36405W        W95666  24.218  38.506  13.994
36406W        W95667  42.877  13.620  14.893
36407W        W95668  37.018  22.237   0.290
36408W        W95669   6.209  43.786   2.830
36409W        W95670  37.370  31.423  12.529
36410W        W95671   7.775  28.067   4.769
36411W        W95672  21.067   3.365  13.928
36412W        W95673   4.423  10.717  14.763
36413W        W95674  32.523  19.098   2.677
36414W        W95675  18.134   2.806   0.430
36415W        W95676  29.527  30.907  10.482
36416W        W95677   8.806  34.018  12.083
36417W        W95678  16.680  32.940  10.421
36418W        W95679   9.371  36.387   1.277
36419W        W95680   3.288  13.661   2.793
36420W        W95681  25.115  30.956   1.222
36421W        W95682   6.255   7.721  13.413
36422W        W95683  17.767  10.686   3.743
36423W        W95684  40.405   2.455  10.600
36424W        W95685  28.650  41.375  12.888
36425W        W95686  38.007  39.940  12.558
36426W        W95687  15.805  24.595  12.046
36427W        W95688   5.923  17.164  14.773
36428W        W95689  25.090  23.571  11.855
36429W        W95690   2.382   9.737  11.998
36430W        W95691  28.575  37.346   4.640
36431W        W95692  21.260  19.082  11.606
36432W        W95693  37.557  19.575   4.172
36433W        W95694   3.425   4.239  11.388
36434W        W95695  39.853  12.631  13.881
36435W        W95696  15.801  11.143  11.987
36436W        W95697  22.247  28.160  13.062
36437W        W95698  13.616  14.224  13.379
36438W        W95699  29.128  37.478   0.801
36439W        W95700  17.244  44.455   0.780
36440W        W95701  32.910  41.384  12.472
36441W        W95702  34.039  15.100  11.029
36442W        W95703  17.674  28.069  11.937
36443W        W95704  18.086  23.167  12.517
36444W        W95705  39.415  26.173   3.261
36445W        W95706  43.836  23.696   0.899
36446W        W95707  32.900  13.258   3.785
36447W        W95708  28.092  19.564  10.622
36448W        W95709  27.135  23.989  13.962
36449W        W95710  41.520  13.695  14.929
36450W        W95711  25.163  38.552  12.957
36451W        W95712  22.060  10.222   1.824
36452W        W95713  39.886  15.195  11.539
36453W        W95714  40.054  44.863   1.916
36454W        W95715  14.169   5.747  13.817
36455W        W95716  25.486  42.399   4.698
36456W        W95717  31.518  31.492  12.907
36457W        W95718   5.858  30.651   0.908
36458W        W95719  27.034  40.490   4.753
36459W        W95720  42.982  22.075  12.544
36460W        W95721  10.232   6.404  14.427
36461W        W95722  20.113  37.873  12.418
36462W        W95723  10.768  19.099  13.849
36463W        W95724  29.060  29.669  12.033
36464W        W95725   3.901   4.784  10.533
36465W        W95726  12.829  32.134   4.746
36466W        W95727  21.146  32.507  11.098
36467W        W95728   5.197   6.378   0.860
36468W        W95729   1.928  20.235  12.536
36469W        W95730  28.183  17.669  11.010
36470W        W95731  44.839  14.601  14.496
36471W        W95732   5.281  27.692  14.841
36472W        W95733  44.444  21.078   2.782
36473W        W95734  44.984  25.087  14.947
36474W        W95735  26.541  24.722  10.496
36475W        W95736  36.095   9.663  12.421
36476W        W95737  35.920  34.397  13.995
36477W        W95738  26.961  10.157  12.880
36478W        W95739  24.659  32.425  14.959
36479W        W95740  18.645  28.972  14.908
36480W        W95741  26.093   2.938   0.443
36481W        W95742  21.586  13.277   0.301
36482W        W95743   2.373  42.922   2.685
36483W        W95744  15.724  20.652  10.575
36484W        W95745  24.168   3.450   3.358
36485W        W95746  16.219  10.715   4.635
36486W        W95747  26.957  41.873   1.295
36487W        W95748  16.748  36.863   1.331
36488W        W95749  26.489  36.078  14.276
36489W        W95750   0.349  27.452   3.242
36490W        W95751  31.546  20.112   1.908
36491W        W95752  10.675  34.421   2.296
36492W        W95753  36.849  29.579  12.482
36493W        W95754  29.006  42.441  10.420
36494W        W95755  44.361  44.778   3.730
36495W        W95756  13.160   8.330  11.938
36496W        W95757  11.334  28.960  13.972
36497W        W95758  16.154  37.425   1.779
36498W        W95759  39.998  40.497  13.886
36499W        W95760   4.837   3.933   3.848
36500W        W95761  11.253  19.755   1.332
36501W        W95762  20.614   0.286  12.418
36502W        W95763  11.655  35.435  13.956
36503W        W95764  29.478  35.588  12.437
36504W        W95765   7.375  22.630  12.024
36505W        W95766  38.326  14.200  10.543
36506W        W95767  29.465   2.253  12.437
36507W        W95768  33.985   0.394   4.340
36508W        W95769  15.611  19.097  10.968
36509W        W95770  24.000  10.790   2.250
36510W        W95771   9.721  32.009  14.417
36511W        W95772  37.023  25.053   4.316
36512W        W95773  27.671  42.849   1.423
36513W        W95774  42.798  32.991   1.929
36514W        W95775  42.851  40.047  14.439
36515W        W95776  24.974   3.951  13.311
36516W        W95777  26.656  30.115  11.996
36517W        W95778   3.884   8.675  13.426
36518W        W95779  15.744  20.737  12.964
36519W        W95780  27.479  28.648  11.090
36520W        W95781  43.905  34.986  12.997
36521W        W95782  18.052  39.006  14.814
36522W        W95783  27.954  34.893   3.702
36523W        W95784  20.085   8.233  13.936
36524W        W95785  35.365  36.368  14.418
36525W        W95786  14.692  27.126  14.907
36526W        W95787  10.227  21.558   1.293
36527W        W95788  30.091  32.967   3.635
36528W        W95789  34.040  20.242   3.199
36529W        W95790  16.667   5.239  14.292
36530W        W95791  39.389   9.845  11.559
36531W        W95792  18.697  44.344   1.859
36532W        W95793  38.541  39.875  12.969
36533W        W95794  24.583  38.026  12.917
36534W        W95795  33.928  29.108  11.563
36535W        W95796   9.192  36.891   3.189
36536W        W95797  21.635  29.461  12.424
36537W        W95798  27.042  43.330   3.772
36538W        W95799  38.507  19.577  11.463
36539W        W95800  38.866   5.785  12.407
36540W        W95801  40.901  28.602  14.489
36541W        W95802   1.788   6.692   1.899
36542W        W95803  24.566  19.229   0.758
36543W        W95804  41.482  26.168   3.303
36544W        W95805  19.777  23.160   0.931
36545W        W95806   1.883  33.086   3.808
36546W        W95807  44.933  17.231   0.284
36547W        W95808  43.006  14.591   3.225
36548W        W95809   0.762   7.301  13.795
36549W        W95810  31.636  31.143   0.862
36550W        W95811  14.163  28.618   0.432
36551W        W95812   4.898  24.629  14.315
36552W        W95813  24.165  13.192   3.804
36553W        W95814  24.014  21.134   4.736
36554W        W95815  23.494  34.395  14.422
36555W        W95816   9.219  10.284  14.899
36556W        W95817   8.223   3.731  13.520
36557W        W95818  31.645  36.578   5.215
36558W        W95819  44.294  43.848  11.114
36559W        W95820  27.528  11.772  11.110
36560W        W95821  44.846   9.741   0.840
36561W        W95822  33.464  30.532   0.323
36562W        W95823  22.743  16.618   2.218
36563W        W95824  23.578  22.612  13.437
36564W        W95825   2.799  35.928   0.905
36565W        W95826  11.171  36.357  13.392
36566W        W95827   6.266  15.688  14.342
36567W        W95828   5.407  20.131   2.803
36568W        W95829  39.870  29.596   1.360
36569W        W95830  38.920   2.281  10.939
36570W        W95831   7.356   4.892  13.793
36571W        W95832  29.998  28.941  12.971
36572W        W95833  16.305  23.204  14.465
36573W        W95834  36.061  15.320  11.534
36574W        W95835  15.760  37.342  13.510
36575W        W95836  26.594   6.228   0.736
36576W        W95837   1.328  30.946  12.565
36577W        W95838  28.490  22.062  11.967
36578W        W95839  31.020  38.040  12.021
36579W        W95840  15.641  27.192   2.880
36580W        W95841  44.801  29.549  13.841
36581W        W95842  12.826  17.289  14.343
36582W        W95843  13.210   6.224  11.110
36583W        W95844  37.503   5.278  13.824
36584W        W95845  17.198  38.017  14.435
36585W        W95846  19.238  35.912  14.277
36586W        W95847  29.652   0.916   4.164
36587W        W95848  38.387  39.379   5.595
36588W        W95849  33.483   6.709  12.915
36589W        W95850  41.989  22.652  11.446
36590W        W95851  30.080  19.638  11.011
36591W        W95852  13.665   0.761   1.927
36592W        W95853   5.235  17.697   3.205
36593W        W95854  32.965  24.603   4.649
36594W        W95855  25.187   1.751   2.815
36595W        W95856  24.015  24.071  11.125
36596W        W95857   6.364  15.809   1.386
36597W        W95858  33.595  31.641   3.705
36598W        W95859  22.502   8.217   2.220
36599W        W95860   1.803  18.252   4.276
36600W        W95861   6.896  29.925  14.954
36601W        W95862   3.823  36.971   2.802
36602W        W95863  15.178  24.152  12.559
36603W        W95864   0.342  13.606  11.071
36604W        W95865   3.761  18.754   4.648
36605W        W95866  33.039  20.704  13.945
36606W        W95867  37.386  40.960   1.249
36607W        W95868  31.558  41.969   0.946
36608W        W95869  15.236  15.618  13.923
36609W        W95870  23.606  37.909  11.918
36610W        W95871  10.230  23.693   2.217
36611W        W95872  39.425  41.837  13.449
36612W        W95873  16.799  19.201   2.682
36613W        W95874  44.980  41.840  13.825
36614W        W95875  29.584  19.101   2.888
36615W        W95876  13.236  26.986   9.462
36616W        W95877  41.043  33.496  12.442
36617W        W95878  33.078   5.876   4.209
36618W        W95879  31.468  42.318   1.407
36619W        W95880  31.994  33.435   2.869
36620W        W95881  22.043  18.739  13.308
36621W        W95882   6.210  31.991   2.692
36622W        W95883   3.790   2.947   3.176
36623W        W95884  14.324  41.026   4.620
36624W        W95885  22.693  35.423   0.375
36625W        W95886  17.732  39.870   0.871
36626W        W95887   2.903  32.563  14.361
36627W        W95888  34.916  13.136  10.627
36628W        W95889   2.439  16.254   4.184
36629W        W95890  44.494   2.392   2.696
36630W        W95891   0.249   7.379  11.453
36631W        W95892  30.425  36.505   0.371
36632W        W95893   7.759   7.327   0.860
36633W        W95894  44.968  27.965   3.194
36634W        W95895  10.699  10.187  10.421
36635W        W95896  25.507   3.437  12.858
36636W        W95897  28.130  35.882   2.278
36637W        W95898  24.558   9.367  12.345
36638W        W95899  16.731  12.133   4.817
36639W        W95900  10.346  34.929  13.834
36640W        W95901  36.893  11.830  14.934
36641W        W95902  12.642  16.228   4.140
36642W        W95903  31.126  20.153  11.938
36643W        W95904   1.793   5.710  10.485
36644W        W95905   5.768  25.104   4.824
36645W        W95906  15.160  37.356   3.259
36646W        W95907  34.428   3.944  13.435
36647W        W95908  21.704  22.062   1.362
36648W        W95909  34.599  44.297  13.018
36649W        W95910   7.887  15.231   3.815
36650W        W95911   1.463  15.242   0.254
36651W        W95912   6.211   5.727   2.353
36652W        W95913   9.212  26.994   0.392
36653W        W95914  29.044  31.580   1.763
36654W        W95915  24.143  12.319  11.112
36655W        W95916   0.894   6.720   1.763
36656W        W95917  43.468  37.837   4.174
36657W        W95918   3.871  27.672   1.770
36658W        W95919  20.103   3.757   0.418
36659W        W95920  17.689  38.518  14.507
36660W        W95921  41.517  37.874   4.647
36661W        W95922   1.749   2.302  14.299
36662W        W95923   2.307   3.840  10.472
36663W        W95924  44.462  18.055  13.430
36664W        W95925  25.048  28.568  13.052
36665W        W95926  37.980  10.711   2.779
36666W        W95927  11.859   5.325   1.910
36667W        W95928  31.064  22.594   2.406
36668W        W95929  21.656  34.071  10.434
36669W        W95930  20.674  44.293   1.315
36670W        W95931  14.664  14.234   3.715
36671W        W95932   5.297  18.783  10.605
36672W        W95933  28.437   4.706  12.975
36673W        W95934  37.452   3.241   1.366
36674W        W95935  26.976   3.896  13.350
36675W        W95936   2.339  41.355  10.417
36676W        W95937  24.007  40.862  10.483
36677W        W95938  21.636  36.915  14.411
36678W        W95939   5.845  42.981   4.295
36679W        W95940  36.448  26.498   5.230
36680W        W95941   5.894  12.141  10.479
36681W        W95942  26.490  32.130   5.273
36682W        W95943  44.932  30.012   4.722
36683W        W95944   5.824   0.952  11.938
36684W        W95945  25.663  34.995  14.948
36685W        W95946   0.930  36.058  10.112
36686W        W95947  43.492  25.469  11.966
36687W        W95948  25.578  27.489   1.914
36688W        W95949  13.615  18.185   0.482
36689W        W95950  35.578  17.756  12.022
36690W        W95951  14.165   4.904   3.167
36691W        W95952   5.273  24.665  10.597
36692W        W95953  11.798  27.195   1.794
36693W        W95954  13.211  24.532  14.281
36694W        W95955  15.309   8.331   4.632
36695W        W95956  39.928  32.043  11.963
36696W        W95957  33.393   2.752  12.899
36697W        W95958  28.580  37.053  13.807
36698W        W95959  37.923  28.493  14.947
36699W        W95960  27.126  25.682  11.377
36700W        W95961  27.562   8.826   0.326
36701W        W95962   8.314   4.281  12.896
36702W        W95963  14.125  31.490   5.225
36703W        W95964   6.913  31.973   1.764
36704W        W95965  31.442  26.109  14.377
36705W        W95966  44.832  43.448  14.018
36706W        W95967  17.683  30.966  14.445
36707W        W95968  20.107  21.516   0.292
36708W        W95969  23.241  15.678   0.262
36709W        W95970  25.526  43.451  10.955
36710W        W95971  15.623  33.031   2.699
36711W        W95972  21.233   3.879   4.305
36712W        W95973   0.932  38.453  10.412
36713W        W95974  28.566  21.559   0.442
36714W        W95975   9.151  42.515  13.792
36715W        W95976   0.807  32.479  14.495
36716W        W95977  21.549  23.228  13.871
36717W        W95978  43.371  32.043  12.868
36718W        W95979  37.939  11.161   0.952
36719W        W95980  27.169  15.689   1.254
36720W        W95981  23.565  30.057   1.293
36721W        W95982  28.553  24.694  10.445
36722W        W95983  19.168  21.671   1.378
36723W        W95984  31.623  17.697   3.680
36724W        W95985  25.086   9.169  10.642
36725W        W95986   2.898  38.525  13.884
36726W        W95987  27.120  41.310  11.878
36727W        W95988   4.752  31.584  12.041
36728W        W95989  44.895  33.419  11.985
36729W        W95990  30.498  19.732   4.287
36730W        W95991  24.134  15.322   4.750
36731W        W95992  20.059  43.869  10.426
36732W        W95993  34.507  37.554  11.084
36733W        W95994  11.686  25.112   2.383
36734W        W95995   6.869   8.206  14.322
36735W        W95996   5.306  42.446  13.333
36736W        W95997  42.888   0.332  13.032
36737W        W95998  33.532  15.589  12.535
36738W        W95999  12.850   9.668   4.177
36739W        W96000   0.345  38.971   4.228
36740W        W96001   1.767  43.354  14.896
36741W        W96002  40.472  28.016   2.332
36742W        W96003  34.885  21.703  11.871
36743W        W96004  20.166  11.152  14.799
36744W        W96005  15.641   0.299  13.977
36745W        W96006  26.485  16.706   4.237
36746W        W96007  12.742  36.488  11.879
36747W        W96008  18.115  42.950  13.952
36748W        W96009  34.569   8.744   4.140
36749W        W96010  15.820  37.344  12.924
36750W        W96011   7.779  40.978  14.308
36751W        W96012  40.489  40.338   3.639
36752W        W96013  41.391  16.755   0.480
36753W        W96014  32.971  34.501  14.908
36754W        W96015  14.174  19.721   3.356
36755W        W96016   1.482  38.475   1.429
36756W        W96017  13.756  25.555  13.912
36757W        W96018  17.214  16.278   2.862
36758W        W96019  20.644  21.740   0.390
36759W        W96020  28.120  21.701  11.388
36760W        W96021  35.071  23.198   0.804
36761W        W96022  20.735  42.478   2.771
36762W        W96023  24.549   1.321   3.814
36763W        W96024   7.762  28.667   2.688
36764W        W96025   8.688   5.848   3.735
36765W        W96026  43.353   7.250   4.176
36766W        W96027  44.474   6.878   4.712
36767W        W96028  11.811   1.328  12.064
36768W        W96029  17.099  37.064  10.515
36769W        W96030  20.052  20.671  14.889
36770W        W96031   9.767   7.696   2.683
36771W        W96032  36.592  44.997  13.035
36772W        W96033   3.881  35.381  14.969
36773W        W96034   5.919  19.607  10.426
36774W        W96035  40.492  27.447   2.235
36775W        W96036  11.776   6.310   0.470
36776W        W96037  13.832  10.172  11.411
36777W        W96038  21.533  36.089  12.555
36778W        W96039  41.396  28.463  14.474
36779W        W96040  32.141  27.125  14.901
36780W        W96041  16.597   0.386  14.430
36781W        W96042  12.335   1.315   5.764
36782W        W96043  24.152  32.062   0.846
36783W        W96044  36.935  25.118   2.388
36784W        W96045   5.795  25.139  14.802
36785W        W96046  21.623  27.033  12.927
36786W        W96047  18.216  12.824   0.795
36787W        W96048  13.652  21.041  14.762
36788W        W96049  30.117  30.028   0.380
36789W        W96050  31.539   6.785  13.872
36790W        W96051  22.582   7.861   2.667
36791W        W96052  32.497  36.370  10.415
36792W        W96053  13.320  24.055   5.160
36793W        W96054   1.333   1.920  10.636
36794W        W96055   6.882  20.046  12.454
36795W        W96056  11.147   4.764   0.909
36796W        W96057   6.349  16.611  14.886
36797W        W96058  10.671  24.505  10.952
36798W        W96059  32.076  33.892  13.341
36799W        W96060  29.029   7.770   2.369
36800W        W96061  29.660  29.630  12.464
36801W        W96062  11.766  41.494  14.441
36802W        W96063  37.390  42.386   3.702
36803W        W96064  18.631  31.429   4.248
36804W        W96065  27.121  40.857  13.017
36805W        W96066  24.692  42.780   2.306
36806W        W96067  33.108   3.773   1.386
36807W        W96068  36.060  38.840   1.330
36808W        W96069  25.518  40.409  14.393
36809W        W96070  43.289  16.131  10.581
36810W        W96071  30.990  27.961  13.874
36811W        W96072  30.995   3.289  14.845
36812W        W96073  21.023  30.908  12.896
36813W        W96074  26.026  39.824  13.445
36814W        W96075  21.251   6.283  14.299
36815W        W96076   2.262  29.468  13.465
36816W        W96077  44.439  39.017   3.326
36817W        W96078  31.619  20.192   2.264
36818W        W96079  25.058  21.737  11.869
36819W        W96080  37.058  14.661   0.478
36820W        W96081   2.743  12.355   2.767
36821W        W96082  38.989  33.424  14.803
36822W        W96083  24.631   5.925  13.836
36823W        W96084  19.258  17.641   2.328
36824W        W96085  29.963  23.014   2.689
36825W        W96086   8.328  38.898  11.971
36826W        W96087  23.535   5.696  11.445
36827W        W96088  17.250  38.964   1.919
36828W        W96089  37.405  26.601   1.748
36829W        W96090  31.920  28.995  11.049
36830W        W96091  37.865  31.122  10.931
36831W        W96092   7.195  11.807  14.286
36832W        W96093  36.373  34.552   1.933
36833W        W96094  22.124   0.780   4.283
36834W        W96095  39.364  13.659  10.591
36835W        W96096  32.076   8.706   2.254
36836W        W96097  16.146  26.462   0.447
36837W        W96098  39.407  24.497   0.370
36838W        W96099  27.963  18.719  14.431
36839W        W96100  41.324  26.490  10.951
36840W        W96101  20.126  27.537  10.111
36841W        W96102  30.107   7.792   2.853
36842W        W96103  30.039  16.671   2.881
36843W        W96104  14.709   4.736   0.932
36844W        W96105   3.798  16.236  10.431
36845W        W96106  40.318  31.494   1.830
36846W        W96107  14.817  31.093  14.281
36847W        W96108  19.188  44.416   2.185
36848W        W96109  40.365  40.339  10.498
36849W        W96110  37.019  37.030  12.906
36850W        W96111   4.892  26.145  12.368
36851W        W96112  15.616   4.341   3.800
36852W        W96113  20.240  17.160  10.473
36853W        W96114  21.628  14.278   5.245
36854W        W96115  41.886  25.559  14.416
36855W        W96116  43.407  19.141   3.254
36856W        W96117  44.381  40.989   3.358
36857W        W96118   2.747   1.355  13.459
36858W        W96119  12.356  17.211  13.999
36859W        W96120  20.075   9.870  12.480
36860W        W96121  22.215  40.831  11.039
36861W        W96122  35.090  25.142  12.825
36862W        W96123  38.884  36.392  14.791
36863W        W96124  19.234   6.847  11.530
36864W        W96125  42.935  12.752   1.855
36865W        W96126  34.519  19.200   1.928
36866W        W96127  21.720  25.584   5.701
36867W        W96128  39.941  40.036   4.721
36868W        W96129  25.029  29.537  12.920
36869W        W96130  15.295   0.893   2.251
36870W        W96131  14.682  32.115  12.339
36871W        W96132  20.545  15.229  11.012
36872W        W96133   7.873  44.338  14.881
36873W        W96134  15.253   5.803   4.252
36874W        W96135  32.471  20.261   3.756
36875W        W96136  30.029   4.828  14.385
36876W        W96137   1.432   4.222  14.939
36877W        W96138  44.783  35.868   0.797
36878W        W96139  39.327  12.782  11.098
36879W        W96140  39.354  43.813   3.825
36880W        W96141   2.350  27.677  11.573
36881W        W96142  44.772   4.357   1.873
36882W        W96143   5.735  28.986  12.962
36883W        W96144  25.126  30.419  11.080
36884W        W96145   5.361  32.116  11.993
36885W        W96146  26.474  40.334  10.562
36886W        W96147  13.192  26.496   1.916
36887W        W96148   4.862  37.383  14.921
36888W        W96149  25.475   2.722   2.342
36889W        W96150  13.659  11.338  11.497
36890W        W96151  22.588  19.248   3.717
36891W        W96152   4.305  11.689   1.439
36892W        W96153  21.181  10.736   3.634
36893W        W96154  16.209   7.735   1.847
36894W        W96155   3.261  12.269   2.672
36895W        W96156  22.047   4.894  14.310
36896W        W96157  13.172  13.230   1.447
36897W        W96158  26.553  40.987   1.412
36898W        W96159   5.753  17.232   0.754
36899W        W96160   0.922  23.037  12.961
36900W        W96161  32.067  17.798  13.059
36901W        W96162  21.599  31.043   2.685
36902W        W96163  16.218  36.849  12.536
36903W        W96164   7.255  39.320   0.765
36904W        W96165  34.565  29.588  11.008
36905W        W96166  42.382  16.236   4.617
36906W        W96167  29.486  33.533  13.885
36907W        W96168  20.093  16.718  11.975
36908W        W96169  17.610  30.553   4.624
36909W        W96170  37.428  44.791   2.723
36910W        W96171  22.181  41.504   1.827
36911W        W96172  11.319  27.056  13.535
36912W        W96173  19.280   9.320  14.802
36913W        W96174   7.406  43.821   4.616
36914W        W96175  33.916  44.934  13.489
36915W        W96176  12.682  14.296   1.390
36916W        W96177   3.860  44.783   2.879
36917W        W96178   2.748   2.725   4.126
36918W        W96179   3.357  11.672  12.962
36919W        W96180  31.058  29.557  12.837
36920W        W96181  11.141  25.216  10.444
36921W        W96182  44.888  42.358  14.794
36922W        W96183   3.850  16.298   0.918
36923W        W96184  25.019  17.120   3.753
36924W        W96185   9.691  18.144   3.172
36925W        W96186  13.214  36.364   4.792
36926W        W96187   0.363  29.129   2.326
36927W        W96188   2.826   7.869  14.365
36928W        W96189  23.513  32.029   4.247
36929W        W96190  27.041  26.204  12.903
36930W        W96191  26.180  34.974  10.954
36931W        W96192  44.948  35.392   0.433
36932W        W96193  11.336  16.719  10.508
36933W        W96194  23.030  26.028  14.468
36934W        W96195  23.146   1.455  12.577
36935W        W96196  11.269  20.057   2.754
36936W        W96197  32.403   9.220  10.037
36937W        W96198   6.190  37.441  14.981
36938W        W96199   6.799  17.253   3.784
36939W        W96200  41.354  35.489   0.964
36940W        W96201  34.975   3.429   0.308
36941W        W96202  40.513   0.259  11.910
36942W        W96203  24.108  16.203  13.060
36943W        W96204   6.272  29.599  11.589
36944W        W96205  25.516  40.853  12.527
36945W        W96206  21.740  44.396  14.397
36946W        W96207  41.295  11.309  12.531
36947W        W96208  42.460  23.538   1.378
36948W        W96209  24.531  14.832  12.492
36949W        W96210   0.983  29.119   4.338
36950W        W96211  29.460  28.595   4.129
36951W        W96212   1.389   8.692   2.200
36952W        W96213  40.459  44.774   3.676
36953W        W96214  13.151   9.224  10.556
36954W        W96215  25.627  19.213  13.489
36955W        W96216  26.955  38.376   2.318
36956W        W96217  22.543  29.458  10.453
36957W        W96218   1.905  35.000  12.883
36958W        W96219  32.927  36.926  11.581
36959W        W96220  34.047  33.530  14.881
36960W        W96221  43.929   2.769   4.652
36961W        W96222  17.116  38.345  12.001
36962W        W96223  18.107  12.703  12.423
36963W        W96224   1.943  26.977   2.270
36964W        W96225   5.757  32.416  10.512
36965W        W96226  37.539  17.727  12.579
36966W        W96227  21.139  36.986  13.825
36967W        W96228  39.419   2.277   0.264
36968W        W96229  30.074  19.715   0.925
36969W        W96230  41.813  13.717   3.747
36970W        W96231  28.619  13.130  14.280
36971W        W96232  23.052  11.350   1.896
36972W        W96233  38.344  44.823   1.294
36973W        W96234   8.345  38.549   3.768
36974W        W96235  33.382  34.542  10.983
36975W        W96236  33.439   2.440  12.882
36976W        W96237   6.760  16.187  14.917
36977W        W96238  18.640  19.628   4.804
36978W        W96239  40.460  34.032   3.784
36979W        W96240  35.050  36.479  11.866
36980W        W96241   4.749  29.149   0.465
36981W        W96242  32.894   9.213  13.492
36982W        W96243  12.181   7.274   3.224
36983W        W96244  15.164  19.262   3.645
36984W        W96245   4.258   9.382  13.312
36985W        W96246  44.493  26.013   1.409
36986W        W96247   2.443  27.467  13.473
36987W        W96248  33.551  30.919  12.000
36988W        W96249  41.493  38.886   1.293
36989W        W96250   5.834  13.826   3.642
36990W        W96251  29.505   7.750  11.569
36991W        W96252  26.589  22.081  11.379
36992W        W96253  43.975  23.520  14.316
36993W        W96254  37.983  17.563  11.499
36994W        W96255  32.941  11.682   0.258
36995W        W96256  15.244  20.668  10.547
36996W        W96257   1.442  37.404  14.786
36997W        W96258  29.106  20.578   3.372
36998W        W96259  21.583  44.259   2.246
36999W        W96260  20.103  18.209   3.286
37000W        W96261  44.845   7.193  14.366
37001W        W96262  17.738  33.074   0.805
37002W        W96263  26.457  24.598  12.849
37003W        W96264  23.603  42.517   3.770
37004W        W96265  36.423   1.759   0.357
37005W        W96266   0.477  42.929  11.099
37006W        W96267  43.794  18.646  11.075
37007W        W96268  31.484   5.259  11.403
37008W        W96269  28.037  18.163   1.314
37009W        W96270  25.122   9.695  14.774
37010W        W96271  20.166   2.236  13.882
37011W        W96272  12.302  29.628  13.966
37012W        W96273   1.871   4.449  13.055
37013W        W96274  13.831  32.021  10.600
37014W        W96275   2.258  10.831   1.844
37015W        W96276  27.107  12.626   1.217
37016W        W96277   8.780  28.041   0.402
37017W        W96278  31.407  44.480  10.535
37018W        W96279   0.442  14.278   4.833
37019W        W96280  18.655  26.469  14.802
37020W        W96281  36.071   0.745  11.566
37021W        W96282  36.385  44.881  14.834
37022W        W96283  43.899  21.038   0.259
37023W        W96284  32.933  20.252   2.779
37024W        W96285  13.283  39.042   1.761
37025W        W96286   0.376  21.663  13.847
37026W        W96287  15.603  40.420   2.778
37027W        W96288  40.542  13.714   4.161
37028W        W96289  13.736  13.128  11.028
37029W        W96290  17.151  23.670  11.111
37030W        W96291  19.540   4.761  11.452
37031W        W96292   5.224   7.317   4.267
37032W        W96293  16.805  34.991   2.722
37033W        W96294  34.504  15.631   0.448
37034W        W96295   1.399   6.250   1.890
37035W        W96296   7.858  41.958   4.334
37036W        W96297  25.154  30.931  13.320
37037W        W96298  11.705  40.342   0.965
37038W        W96299  28.143  38.941   1.216
37039W        W96300   4.735  41.499   0.282
37040W        W96301  24.625  11.259   2.767
37041W        W96302   2.288   4.383   1.212
37042W        W96303  17.147   4.938  12.919
37043W        W96304   5.280  33.087  13.352
37044W        W96305   1.266   0.854  12.504
37045W        W96306  27.970  11.859   4.290
37046W        W96307  17.209  24.128  12.492
37047W        W96308  22.742  15.653  13.342
37048W        W96309  44.868  22.159  11.107
37049W        W96310   5.691  11.250   5.279
37050W        W96311   7.697  44.981  13.381
37051W        W96312  28.061  27.571   2.690
37052W        W96313  19.773   1.293   4.263
37053W        W96314  27.487  42.423  14.294
37054W        W96315  25.477  29.936   3.732
37055W        W96316  25.047  34.470  13.021
37056W        W96317  32.600  28.008  10.027
37057W        W96318  30.937  18.626  14.280
37058W        W96319   7.794  14.752   4.320
37059W        W96320  37.370  19.246   0.418
37060W        W96321  19.681  27.615  10.978
37061W        W96322  36.586  41.345   2.733
37062W        W96323  20.614  34.116   4.712
37063W        W96324  44.799  17.217  11.914
37064W        W96325  44.449   1.331   5.117
37065W        W96326  21.729  30.112   4.645
37066W        W96327  43.986  35.435  13.420
37067W        W96328  36.014   4.321   4.128
37068W        W96329  42.889  10.727   0.464
37069W        W96330  38.525  43.315  11.518
37070W        W96331  43.848  40.928  10.941
37071W        W96332   3.364  40.476  11.056
37072W        W96333  39.332  10.778   3.734
37073W        W96334  12.681  44.990  11.557
37074W        W96335   2.326   8.894   4.771
37075W        W96336  34.910   8.187  11.063
37076W        W96337  26.580  12.289   3.174
37077W        W96338  42.804  37.491   1.306
37078W        W96339  29.954  14.282  10.970
37079W        W96340  16.279   7.787  11.006
37080W        W96341  35.594  28.142   2.343
37081W        W96342  43.302  36.906  13.885
37082W        W96343  37.057  32.428  13.528
37083W        W96344   3.876   2.380   0.391
37084W        W96345   6.715  29.145  14.778
37085W        W96346   7.841  20.161  12.400
37086W        W96347  14.188   4.854  14.369
37087W        W96348  35.404  42.483   1.768
37088W        W96349  12.290  28.602  14.824
37089W        W96350  31.555  18.735  11.532
37090W        W96351  24.680  19.674   2.672
37091W        W96352  18.600   7.184   0.297
37092W        W96353   2.291  22.182  11.542
37093W        W96354  14.243  13.275  12.497
37094W        W96355   2.334  12.670  13.011
37095W        W96356   5.845   9.658   5.633
37096W        W96357  34.417  28.951   1.837
37097W        W96358  35.359  28.137   4.120
37098W        W96359  10.192   8.289  12.928
37099W        W96360  36.851   1.962   2.259
37100W        W96361  12.295   9.168   2.741
37101W        W96362  16.738   4.215   0.812
37102W        W96363   4.714   7.826  14.461
37103W        W96364   1.360  42.366  14.405
37104W        W96365  38.495  25.499   1.874
37105W        W96366  25.176   6.334   0.792
37106W        W96367  38.884  31.438   3.826
37107W        W96368  30.117  29.457   4.237
37108W        W96369  40.898  12.299  13.054
37109W        W96370   4.901  39.918  13.021
37110W        W96371  18.097   3.273  10.110
37111W        W96372   9.184  19.550  10.976
37112W        W96373  43.017  17.668   2.707
37113W        W96374  11.134   9.783   2.891
37114W        W96375   3.774  44.342   0.734
37115W        W96376   7.348   0.813  11.117
37116W        W96377  38.327   4.253  10.987
37117W        W96378  36.412  25.709  11.932
37118W        W96379  39.365  36.933   4.213
37119W        W96380   7.406  28.034  12.579
37120W        W96381  21.550  16.153   4.201
37121W        W96382  34.506   0.920  12.525
37122W        W96383  27.017  15.260   0.404
37123W        W96384  22.682  12.154  14.299
37124W        W96385  27.196  42.484   2.348
37125W        W96386  29.487   9.172  11.874
37126W        W96387  30.961  25.000  13.987
37127W        W96388  40.892  29.442   3.378
37128W        W96389  18.188   7.235  13.892
37129W        W96390   0.426  36.522  11.578
37130W        W96391  31.472  11.832   0.868
37131W        W96392  17.171   5.398  10.922
37132W        W96393  26.121   4.426  12.483
37133W        W96394  14.640  40.957  14.799
37134W        W96395  43.393  29.660  10.430
37135W        W96396   6.366  39.351  10.552
37136W        W96397   1.390  12.196   0.741
37137W        W96398  44.828   3.356   4.173
37138W        W96399   9.738  16.148   4.829
37139W        W96400  43.873   1.745   2.820
37140W        W96401  37.406   3.743   4.664
37141W        W96402  33.974  36.089   2.740
37142W        W96403  34.895  12.730   0.291
37143W        W96404  33.918  26.980   0.831
37144W        W96405  15.728  26.009   0.292
37145W        W96406   8.746  27.013  14.463
37146W        W96407  42.472   2.888   3.191
37147W        W96408  26.592   3.228   3.829
37148W        W96409  44.828  32.400   3.306
37149W        W96410   6.199   6.278   2.763
37150W        W96411  24.708  39.351  11.988
37151W        W96412  25.213   2.838   4.764
37152W        W96413  42.861  23.524   1.266
37153W        W96414  25.594  10.837   1.449
37154W        W96415   8.869   0.306  13.328
37155W        W96416  18.176  13.737  14.928
37156W        W96417  34.940  18.105   4.688
37157W        W96418  29.124  19.651   4.738
37158W        W96419  28.674  11.734  13.341
37159W        W96420  20.589  22.671   3.675
37160W        W96421  20.028   3.888   3.750
37161W        W96422   7.317  16.613  14.393
37162W        W96423  44.370  30.016  14.458
37163W        W96424  31.966   5.293   2.731
37164W        W96425  11.232  12.127   2.324
37165W        W96426  25.494   7.845  13.816
37166W        W96427  14.146  33.525   0.458
37167W        W96428   4.342  14.606  14.766
37168W        W96429  32.473  15.637  12.501
37169W        W96430  19.236   2.857   1.233
37170W        W96431  20.532  41.886  13.448
37171W        W96432   4.906  17.790   2.374
37172W        W96433  10.143  11.285  11.528
37173W        W96434  22.518  17.078  12.514
37174W        W96435  24.690  23.561   3.290
37175W        W96436  36.408  29.001  14.504
37176W        W96437  33.533  40.013  11.060
37177W        W96438  20.643  29.592   3.348
37178W        W96439  14.129   1.333   4.123
37179W        W96440  27.492  14.197  13.508
37180W        W96441  10.772  18.152  13.489
37181W        W96442  27.143   7.199   3.854
37182W        W96443  11.867  19.566  13.997
37183W        W96444   2.760  22.029   0.313
37184W        W96445  32.527  25.517  12.828
37185W        W96446  15.163  42.351  13.814
37186W        W96447  31.929  13.173  14.465
37187W        W96448  21.148  40.311  10.624
37188W        W96449  21.671  42.884  11.999
37189W        W96450   8.772  19.547   2.730
37190W        W96451  10.811  41.990  14.982
37191W        W96452   3.292  23.063   0.957
37192W        W96453  39.506   0.367  13.985
37193W        W96454  30.548   9.816   1.427
37194W        W96455  24.045   9.782   3.762
37195W        W96456   4.368  10.197  10.993
37196W        W96457  37.019  19.620  10.419
37197W        W96458  44.823  34.516   4.174
37198W        W96459  25.066  24.062  11.578
37199W        W96460  27.142   6.903   0.790
37200W        W96461  22.103  27.503   4.344
37201W        W96462  35.070   7.242   1.291
37202W        W96463   0.815  18.742   0.353
37203W        W96464  32.047  15.815   1.335
37204W        W96465   8.323   7.205   0.919
37205W        W96466   3.436  25.479   2.884
37206W        W96467  29.583   6.919  13.028
37207W        W96468  37.015  37.546  13.381
37208W        W96469  44.903  35.016   3.274
37209W        W96470  35.096   1.303   2.378
37210W        W96471  19.258   0.485  13.045
37211W        W96472   1.756  10.204  13.056
37212W        W96473  11.300  11.797  10.133
37213W        W96474  14.188   6.361  11.425
37214W        W96475  14.649  24.192  11.008
37215W        W96476  12.705   5.266  14.970
37216W        W96477  34.372  30.088  12.494
37217W        W96478  10.208  41.930  12.467
37218W        W96479  38.542  31.536  14.403
37219W        W96480  22.174  28.480  14.847
37220W        W96481  38.970  16.702  11.489
37221W        W96482  37.978   1.790  10.538
37222W        W96483  15.722  27.012  14.982
37223W        W96484  28.544  20.161   1.733
37224W        W96485  38.059  30.033  13.959
37225W        W96486   8.301  25.133  10.453
37226W        W96487  16.206  12.260  14.512
37227W        W96488  17.200   7.790   1.765
37228W        W96489  23.017  43.365  10.642
37229W        W96490  14.276   1.752   0.784
37230W        W96491  44.964   7.723  10.584
37231W        W96492  29.544  22.581   4.298
37232W        W96493  34.435  27.660   0.385
37233W        W96494  18.748  34.527  14.890
37234W        W96495  29.063   0.403  13.961
37235W        W96496  33.962  43.506  11.427
37236W        W96497  21.534   1.913   4.297
37237W        W96498  24.089  28.160  10.128
37238W        W96499  32.050  19.125  10.612
37239W        W96500  28.123  27.060  14.488
37240W        W96501  10.709  44.812   1.434
37241W        W96502  26.499  25.684   4.202
37242W        W96503  30.536  22.532   0.884
37243W        W96504  37.941  13.333  14.319
37244W        W96505  39.025   9.193   0.928
37245W        W96506  19.616  16.640   2.854
37246W        W96507  32.582   8.406   0.739
37247W        W96508  15.312  14.673  14.784
37248W        W96509  32.443  10.337   3.331
37249W        W96510   9.785  41.310  11.056
37250W        W96511  19.154  11.321  10.632
37251W        W96512   5.207  27.944   0.318
37252W        W96513   1.944   9.179  14.428
37253W        W96514  17.262  33.431   4.137
37254W        W96515  13.260  36.459   3.269
37255W        W96516  36.493   9.804  11.871
37256W        W96517   7.847  24.544   4.635
37257W        W96518  38.327  19.585   3.695
37258W        W96519  38.051   9.873  11.876
37259W        W96520  35.486  43.420   0.260
37260W        W96521  24.696  36.915   1.432
37261W        W96522  41.035  36.588   3.690
37262W        W96523   0.487   0.746  13.481
37263W        W96524  18.786   3.842   0.427
37264W        W96525  13.207  18.093   4.737
37265W        W96526  24.707  12.700   3.781
37266W        W96527  31.028  25.479   3.660
37267W        W96528   1.923  42.518  11.125
37268W        W96529   2.870  26.023  12.508
37269W        W96530   6.783  41.830  10.584
37270W        W96531  36.465  24.692  12.430
37271W        W96532  19.730  33.890   0.890
37272W        W96533  37.975   1.432   1.722
37273W        W96534  12.695  31.641   1.884
37274W        W96535  10.267  41.820  11.406
37275W        W96536  14.161  28.104  11.476
37276W        W96537  12.236  12.291  11.386
37277W        W96538   6.359   2.346  10.616
37278W        W96539  17.168  21.649   0.471
37279W        W96540  37.574   5.929  14.412
37280W        W96541  33.430  16.667  12.079
37281W        W96542  13.602  35.083   4.298
37282W        W96543  28.992  25.102  13.531
37283W        W96544   1.372  21.251  13.526
37284W        W96545  25.176  32.597   0.286
37285W        W96546  41.333  22.156  14.815
37286W        W96547  15.710   2.880  11.427
37287W        W96548  31.966  18.580   2.328
37288W        W96549  14.696  36.057  14.323
37289W        W96550  14.236  22.203  11.983
37290W        W96551   0.363  28.048   3.839
37291W        W96552   4.889  28.170  14.315
37292W        W96553  44.837   8.302   4.781
37293W        W96554  32.896   5.386  12.487
37294W        W96555  34.009   4.396   3.786
37295W        W96556   1.899  17.738   2.299
37296W        W96557  25.661  12.198   2.851
37297W        W96558  32.599  24.078  14.508
37298W        W96559  37.341  10.659  11.981
37299W        W96560   9.378  31.994  10.434
37300W        W96561   2.258  42.334  12.025
37301W        W96562   2.836  30.953   0.916
37302W        W96563  14.616  22.646  11.999
37303W        W96564   9.885   3.336   1.366
37304W        W96565  28.607  21.680  11.878
37305W        W96566  30.155  37.340   4.774
37306W        W96567  36.435  13.136   4.710
37307W        W96568  17.594  42.961  13.333
37308W        W96569  31.522   4.382  14.763
37309W        W96570   7.309  39.331  14.815
37310W        W96571  21.183   8.677   1.374
37311W        W96572  33.531   5.712   3.645
37312W        W96573   0.351  28.631   3.731
37313W        W96574  25.540  25.539  14.832
37314W        W96575   2.370   5.917  12.891
37315W        W96576  30.040   8.713   2.718
37316W        W96577  20.685  43.971   3.786
37317W        W96578  29.521   6.896  12.042
37318W        W96579  10.159  19.584   4.189
37319W        W96580   3.231  42.362   3.358
37320W        W96581   2.870  27.958   1.895
37321W        W96582  37.346  42.953   1.722
37322W        W96583  28.046   4.305  11.895
37323W        W96584  23.153  41.799  12.841
37324W        W96585  39.845  30.977   1.889
37325W        W96586  18.128  40.917   3.304
37326W        W96587  25.551  13.817   2.760
37327W        W96588  31.583  10.241  10.079
37328W        W96589  14.781   4.417  11.886
37329W        W96590   1.306  31.969   0.766
37330W        W96591  37.978  14.289   1.317
37331W        W96592  23.503   9.828   3.203
37332W        W96593   2.862  23.632   3.666
37333W        W96594  25.011  41.331  13.484
37334W        W96595  39.381  17.579  14.889
37335W        W96596   1.861  11.625   3.163
37336W        W96597  36.433  42.869   0.257
37337W        W96598   4.818  34.514   3.633
37338W        W96599  12.356  10.813  12.929
37339W        W96600  28.582   5.741  13.804
37340W        W96601  27.571  41.386  11.607
37341W        W96602  24.207  12.285   4.616
37342W        W96603   2.732  35.578  12.071
37343W        W96604   1.480  32.543   1.924
37344W        W96605  13.147  24.069   1.403
37345W        W96606  21.536   7.352   4.218
37346W        W96607  18.220  33.964   3.774
37347W        W96608  20.230  17.187  11.600
37348W        W96609  12.657   7.200  14.973
37349W        W96610  15.706  32.633   4.726
37350W        W96611  30.546  38.864  11.005
37351W        W96612  22.718   5.390   1.775
37352W        W96613  10.654  36.451   1.765
37353W        W96614  38.357  41.019   4.257
37354W        W96615   1.259   6.802   2.854
37355W        W96616  14.103  41.400   1.272
37356W        W96617  33.439  22.673   0.338
37357W        W96618  14.330  43.443   3.764
37358W        W96619  18.636  39.386  13.917
37359W        W96620  34.461  38.837  14.803
37360W        W96621  29.595  38.474  11.536
37361W        W96622  34.889  23.984   0.276
37362W        W96623  22.741  20.061  10.501
37363W        W96624   1.247  10.281   0.280
37364W        W96625  39.337  19.050   3.158
37365W        W96626  17.269  11.835   3.218
37366W        W96627   0.926  26.115   1.927
37367W        W96628  29.125  41.408  13.492
37368W        W96629  24.227   5.933  13.520
37369W        W96630   3.729  15.158  13.513
37370W        W96631  33.896   2.847  10.504
37371W        W96632  18.683   7.886   4.602
37372W        W96633  28.548  33.891  10.625
37373W        W96634  19.722  43.488   1.767
37374W        W96635  41.791  17.639  14.993
37375W        W96636  29.972   8.216   1.776
37376W        W96637   1.374   6.201  14.002
37377W        W96638  21.535  11.689  14.868
37378W        W96639   9.657  19.213   3.352
37379W        W96640  43.932   5.738  13.516
37380W        W96641  40.989  40.971   1.726
37381W        W96642  25.135  43.966   3.167
37382W        W96643   0.894  29.472  12.481
37383W        W96644   3.392  29.037  13.465
37384W        W96645  29.987   6.247   2.283
37385W        W96646  34.521   8.325  12.565
37386W        W96647  36.899  16.175  13.952
37387W        W96648   3.445  29.039  14.371
37388W        W96649  33.055  38.397   2.747
37389W        W96650   1.779   4.825   4.116
37390W        W96651  13.841  27.096   0.361
37391W        W96652  33.055  25.552  10.581
37392W        W96653  12.767   9.712  11.912
37393W        W96654  26.700  23.537  12.990
37394W        W96655  30.062  22.541  12.451
37395W        W96656  31.954  28.014   0.331
37396W        W96657   4.270   4.368   1.864
37397W        W96658  24.170  16.084  14.017
37398W        W96659  19.156   1.833  11.012
37399W        W96660  38.515  43.381   0.279
37400W        W96661  26.087  34.985  10.572
37401W        W96662  29.441  20.164  12.084
37402W        W96663  34.610  15.161  14.315
37403W        W96664  21.180  16.200  11.489
37404W        W96665  28.134  14.215  10.055
37405W        W96666   6.396  14.191  12.505
37406W        W96667  15.095  34.965  12.060
37407W        W96668  29.969  17.567   3.801
37408W        W96669  26.461  44.304   2.391
37409W        W96670   3.834   6.825   2.747
37410W        W96671   3.417  35.467  14.985
37411W        W96672   6.255  39.432   3.161
37412W        W96673  25.016  17.305  13.446
37413W        W96674  24.595   5.809   1.770
37414W        W96675  28.517  17.090   3.645
37415W        W96676  41.949  12.265   3.788
37416W        W96677  40.861   0.846  12.439
37417W        W96678  30.541  34.928  10.981
37418W        W96679  20.137   6.184   0.890
37419W        W96680  24.561   0.423  13.060
37420W        W96681  11.149  11.833   5.109
37421W        W96682  17.590   5.361  10.942
37422W        W96683   7.804  18.146   4.247
37423W        W96684  38.956  20.649  13.383
37424W        W96685  28.186  42.372  11.498
37425W        W96686  21.725   6.371  12.086
37426W        W96687  15.114   8.867  12.085
37427W        W96688   3.948  28.513   0.252
37428W        W96689  19.090  16.647  13.056
37429W        W96690  37.956  35.524   2.183
37430W        W96691  10.866  32.435  12.045
37431W        W96692  32.571  41.981   0.778
37432W        W96693  41.956   0.283   4.138
37433W        W96694  40.444  11.240   1.874
37434W        W96695  31.044   6.758   2.794
37435W        W96696  33.480   8.338   3.297
37436W        W96697  15.641  29.012  12.388
37437W        W96698  29.128  23.554   1.710
37438W        W96699  29.649  18.576   0.290
37439W        W96700   9.355  18.112   2.362
37440W        W96701  40.520  20.685   4.234
37441W        W96702  34.899  14.220   0.296
37442W        W96703  39.831   4.913  12.961
37443W        W96704  39.493  20.251  11.000
37444W        W96705   3.910   3.271   0.811
37445W        W96706  20.273  24.185   0.424
37446W        W96707  20.715  24.556  12.824
37447W        W96708  29.009  31.532   4.639
37448W        W96709  18.766  13.797  14.476
37449W        W96710   0.288  16.145  14.466
37450W        W96711  42.011  31.605   0.819
37451W        W96712  26.069  36.544   1.817
37452W        W96713  41.328  31.111  11.974
37453W        W96714  10.642   0.974   0.465
37454W        W96715  17.689   5.794  10.962
37455W        W96716  23.005  27.010   3.652
37456W        W96717  26.503  18.551   3.294
37457W        W96718  43.930   2.781  10.513
37458W        W96719  34.540  44.270   4.198
37459W        W96720  36.506  27.101   3.326
37460W        W96721  30.594   1.777  11.000
37461W        W96722   4.421  42.407  13.940
37462W        W96723   9.213   1.916   4.776
37463W        W96724  43.299  12.269   4.673
37464W        W96725  37.404  20.575   3.735
37465W        W96726  27.571  43.308   1.785
37466W        W96727  22.250   0.486  12.530
37467W        W96728  30.057  22.550   3.197
37468W        W96729   5.265  17.087  12.856
37469W        W96730  40.000  19.265  12.033
37470W        W96731  24.674  30.105  11.465
37471W        W96732  43.404  25.607   0.472
37472W        W96733  34.002  22.121   1.701
37473W        W96734   0.378   6.305  13.454
37474W        W96735   2.369  39.507   3.865
37475W        W96736  29.026  23.570   4.665
37476W        W96737  14.306   7.781   1.895
37477W        W96738  40.853  41.037   4.303
37478W        W96739  26.190   2.336  12.834
37479W        W96740  27.191   8.237  11.878
37480W        W96741   4.319  21.705   2.269
37481W        W96742   8.316  35.086   4.833
37482W        W96743   2.282  32.094   1.232
37483W        W96744  35.894  40.812  12.941
37484W        W96745   1.264  28.182   0.821
37485W        W96746  23.150  18.768   3.376
37486W        W96747  14.745  34.980  14.323
37487W        W96748  30.985  33.569   0.362
37488W        W96749  32.942  24.540  12.482
37489W        W96750  34.602  42.433   2.186
37490W        W96751   6.306  12.120  13.539
37491W        W96752  18.263  39.999   2.292
37492W        W96753  23.515  12.643   0.950
37493W        W96754  24.570  27.608   4.702
37494W        W96755  25.607  10.358   4.598
37495W        W96756  14.322  27.500  12.373
37496W        W96757  43.926  17.562   1.824
37497W        W96758  28.041  40.963   2.389
37498W        W96759   6.726   2.897  14.999
37499W        W96760  19.186  17.066   5.105
37500W        W96761  29.573  38.540  11.029
37501W        W96762  14.329  40.380   3.243
37502W        W96763  29.994  24.204  10.992
37503W        W96764  12.339  12.625  14.386
37504W        W96765  19.733  35.446   2.278
37505W        W96766  36.444   4.756   0.851
37506W        W96767   7.302  26.122   2.672
37507W        W96768  40.842   9.188   1.921
37508W        W96769  28.170  34.924  10.596
37509W        W96770   4.347  10.376  13.944
37510W        W96771  19.232  19.079   0.262
37511W        W96772  24.203   5.900  10.431
37512W        W96773  16.614  21.260  13.333
37513W        W96774  38.965   7.335   1.214
37514W        W96775   4.377  40.459   2.405
37515W        W96776  25.538   6.317  12.383
37516W        W96777  44.809   6.193  11.871
37517W        W96778  38.328   6.694  14.868
37518W        W96779   6.890   5.240  12.985
37519W        W96780   0.797   4.848   5.126
37520W        W96781  17.168  32.636   3.317
37521W        W96782  37.532   8.257  10.534
37522W        W96783  29.125  44.465   1.429
37523W        W96784  10.342  17.677   1.780
37524W        W96785  14.185   7.329  10.419
37525W        W96786  37.385  42.006  12.501
37526W        W96787  13.177  23.598   1.765
37527W        W96788  38.431  10.820   1.325
37528W        W96789   7.796   2.780   2.409
37529W        W96790  21.736  31.901  10.990
37530W        W96791  21.560  14.257  14.326
37531W        W96792  41.515  17.277  14.360
37532W        W96793  34.922  19.151   4.220
37533W        W96794  13.675   9.843   4.213
37534W        W96795  37.930   5.436  12.852
37535W        W96796  16.305  39.872   1.387
37536W        W96797  22.209  40.969   2.222
37537W        W96798   6.403  15.734  13.366
37538W        W96799   5.307  26.202   3.715
37539W        W96800  19.061   6.193  12.901
37540W        W96801  23.220  10.679  12.366
37541W        W96802   7.182  11.680   2.703
37542W        W96803  43.351   5.239   3.267
37543W        W96804  26.624  17.113   0.777
37544W        W96805  21.053   6.798   3.788
37545W        W96806  11.249  40.530   1.750
37546W        W96807  15.594  11.256  14.321
37547W        W96808  15.823  34.565  13.002
37548W        W96809  33.522  26.525  10.553
37549W        W96810  18.602  23.632  12.572
37550W        W96811  30.449  20.539  12.384
37551W        W96812  39.554  44.322  12.880
37552W        W96813   1.937  22.217  13.945
37553W        W96814  24.094  30.092  12.444
37554W        W96815   8.280  31.104  14.821
37555W        W96816  10.678  34.941  10.428
37556W        W96817   8.230  44.954   4.163
37557W        W96818  36.355  36.431   4.807
37558W        W96819  18.785  32.906   0.281
37559W        W96820   0.835  41.464  10.597
37560W        W96821  18.271  44.980  13.824
37561W        W96822  35.918  21.256  13.994
37562W        W96823  29.652  17.185   2.407
37563W        W96824  13.256  36.887  11.921
37564W        W96825  30.941   1.387  13.986
37565W        W96826  26.602  20.271   0.443
37566W        W96827  44.993  34.609  10.536
37567W        W96828  23.596   5.322  11.076
37568W        W96829  21.258  33.883  14.807
37569W        W96830   2.427  25.076   3.682
37570W        W96831  40.895  14.251  14.366
37571W        W96832   2.234   5.732   3.714
37572W        W96833  20.051  27.561   2.853
37573W        W96834  33.106   3.259   1.761
37574W        W96835  31.597  14.278   3.736
37575W        W96836  11.206  39.495   3.272
37576W        W96837  27.943  34.496  13.886
37577W        W96838   0.749  25.170  13.346
37578W        W96839  26.697  30.043  13.880
37579W        W96840  17.586  35.901  11.968
37580W        W96841   9.345  17.747  12.532
37581W        W96842  21.152  36.017  10.910
37582W        W96843  40.925  30.530  11.488
37583W        W96844  10.367   0.298  12.997
37584W        W96845  30.549  36.470   0.815
37585W        W96846  10.382  14.606  12.569
37586W        W96847   3.414  34.459   1.255
37587W        W96848  22.241  32.896  13.012
37588W        W96849  30.626  28.961  10.452
37589W        W96850   6.846  26.486  11.012
37590W        W96851  39.870   2.748   1.852
37591W        W96852  42.480   0.927   4.246
37592W        W96853  43.944  29.027   0.400
37593W        W96854  21.180   9.258  13.339
37594W        W96855  28.555  41.313   2.731
37595W        W96856  20.050   9.725  11.980
37596W        W96857  15.774  36.514  11.888
37597W        W96858   6.756  36.037   3.331
37598W        W96859  15.104  19.729  12.446
37599W        W96860  31.989   4.785  11.507
37600W        W96861   5.916  11.751  12.888
37601W        W96862  16.746  28.613   1.715
37602W        W96863  31.622  39.013   4.623
37603W        W96864  19.243  43.960   0.827
37604W        W96865  44.821  11.622  13.847
37605W        W96866  18.150  28.974  12.040
37606W        W96867  22.570  31.469  10.988
37607W        W96868   1.272  44.885  11.954
37608W        W96869  44.839  18.738   1.717
37609W        W96870  27.596  21.100  10.942
37610W        W96871  17.073  15.293   4.352
37611W        W96872  25.201  25.119  14.804
37612W        W96873  34.464  35.091   4.286
37613W        W96874  40.403  24.709  11.070
37614W        W96875   7.836  17.745  13.416
37615W        W96876  37.937  39.014   9.994
37616W        W96877  31.021  38.979   1.213
37617W        W96878  14.788  30.999  12.504
37618W        W96879   0.393  11.255  13.901
37619W        W96880  30.957  12.659   1.850
37620W        W96881  19.718  40.900   3.162
37621W        W96882   0.281  21.050  14.900
37622W        W96883  26.654  37.550  11.096
37623W        W96884  18.773  36.407   0.743
37624W        W96885  34.028   8.225   0.440
37625W        W96886  14.601  10.138   2.254
37626W        W96887  16.198  34.564   0.954
37627W        W96888  40.468  15.279   3.644
37628W        W96889  18.719  37.571   3.656
37629W        W96890  29.482   0.967   0.761
37630W        W96891  35.430   4.903  12.535
37631W        W96892  16.705  41.298  10.594
37632W        W96893  29.023   2.868   4.275
37633W        W96894  21.718  35.593   3.365
37634W        W96895   3.347  16.202   1.759
37635W        W96896  33.545   6.342  12.522
37636W        W96897  17.785  41.360  11.856
37637W        W96898  12.154  23.556  11.551
37638W        W96899  13.620  25.963  12.526
37639W        W96900  23.554   6.197  11.478
37640W        W96901  44.837  38.456   3.871
37641W        W96902   0.849  14.816  14.912
37642W        W96903  44.922   8.298  10.509
37643W        W96904  32.052   8.721  10.981
37644W        W96905  26.658   0.831   2.271
37645W        W96906   9.295  21.059  13.829
37646W        W96907  22.012  26.198   1.745
37647W        W96908  30.614   8.736   4.228
37648W        W96909  22.007  33.404   4.755
37649W        W96910   2.365  41.409   3.707
37650W        W96911  31.017  37.545   2.337
37651W        W96912  13.335  29.435  11.569
37652W        W96913   7.234   3.879   0.923
37653W        W96914   0.983  28.548  13.477
37654W        W96915   0.885  41.474   1.930
37655W        W96916  12.139  11.238  11.963
37656W        W96917  31.455  26.560  12.930
37657W        W96918  41.371  12.713   4.687
37658W        W96919   1.924  32.127   1.212
37659W        W96920  13.246  36.889  12.493
37660W        W96921  40.898   1.373  14.979
37661W        W96922  39.379   9.809   3.207
37662W        W96923  14.314  13.800   0.879
37663W        W96924  24.720  18.204   3.217
37664W        W96925   7.676  38.368   2.391
37665W        W96926  20.729  19.693   1.394
37666W        W96927   6.787  38.478   4.617
37667W        W96928   8.794  23.216  10.957
37668W        W96929  33.521   0.376   1.843
37669W        W96930  37.919  31.902   1.303
37670W        W96931  39.047  26.702   0.964
37671W        W96932  27.524  34.942  13.400
37672W        W96933  27.690  33.503   2.292
37673W        W96934  19.617  17.076  11.058
37674W        W96935  11.211  27.544  14.485
37675W        W96936  28.178  40.372  10.451
37676W        W96937  35.033  13.290   2.374
37677W        W96938  27.971  29.101  12.992
37678W        W96939  44.861  12.289   2.819
37679W        W96940  41.837  23.173  10.549
37680W        W96941  28.003  40.809   2.833
37681W        W96942  30.138  27.634   0.957
37682W        W96943  14.313  26.518   2.709
37683W        W96944  29.020   4.419   0.843
37684W        W96945  40.865  25.575   4.223
37685W        W96946  24.537  44.361   3.722
37686W        W96947   4.315   7.201  11.408
37687W        W96948  20.669  40.369   1.365
37688W        W96949  33.408   1.892   1.442
37689W        W96950  14.152  15.783   2.746
37690W        W96951   9.373  31.067   2.381
37691W        W96952  28.451  32.002  11.879
37692W        W96953   8.383   0.349  12.939
37693W        W96954  16.190  41.383  13.366
37694W        W96955  21.598   2.734  10.635
37695W        W96956  38.369  24.564   2.254
37696W        W96957  36.924  34.591  12.429
37697W        W96958   0.857  34.093  13.393
37698W        W96959   3.401  13.226  13.854
37699W        W96960   0.484  17.704   1.211
37700W        W96961   7.245  35.095   4.275
37701W        W96962  43.999   1.871   4.813
37702W        W96963  34.378   7.838  12.994
37703W        W96964   6.280  28.939  11.013
37704W        W96965   4.912  36.566   0.819
37705W        W96966   9.366  35.914   2.220
37706W        W96967   2.852  28.443   1.752
37707W        W96968  36.464  18.268   0.759
37708W        W96969  25.045  36.588  14.473
37709W        W96970  18.585  27.995   3.309
37710W        W96971  39.525   2.776   4.616
37711W        W96972   7.350  25.059   1.210
37712W        W96973  23.526  34.976   2.664
37713W        W96974  29.003   6.783  12.086
37714W        W96975  27.055  16.589   3.849
37715W        W96976  40.457  17.289   3.713
37716W        W96977  26.542  15.296   3.322
37717W        W96978   0.454  25.695  12.510
37718W        W96979  23.065  20.735  11.979
37719W        W96980   4.767  11.216   3.272
37720W        W96981  40.349  21.233  13.897
37721W        W96982  38.035  25.116  13.878
37722W        W96983  37.523  12.327   1.221
37723W        W96984  26.672  10.244   4.297
37724W        W96985  17.087   0.745  12.546
37725W        W96986  14.622   4.755  11.044
37726W        W96987  20.701   3.318   0.843
37727W        W96988   8.865  24.079  10.898
37728W        W96989  18.697   7.327  12.466
37729W        W96990  24.691  36.842   3.226
37730W        W96991  21.172  36.574   1.721
37731W        W96992  42.030  19.249  14.315
37732W        W96993  42.305  16.079  14.838
37733W        W96994  23.527  36.090   3.702
37734W        W96995  25.048   9.652  10.968
37735W        W96996   0.409  30.425  14.377
37736W        W96997  26.053   8.668  10.952
37737W        W96998  20.545  19.238  14.839
37738W        W96999  43.434  11.308   4.277
37739W        W97000  24.220  22.640   0.377
37740W        W97001  39.981  37.951  11.502
37741W        W97002  23.637  43.788  12.372
37742W        W97003  27.554  22.626   3.164
37743W        W97004   0.841  19.181  13.352
37744W        W97005  19.569   5.690  14.437
37745W        W97006  38.945   5.811   2.738
37746W        W97007  20.646  26.522   1.791
37747W        W97008  31.508   0.303  10.426
37748W        W97009  19.682  36.055   2.240
37749W        W97010   2.469   1.262   0.855
37750W        W97011  35.469  44.303   1.420
37751W        W97012  41.390  40.367  14.284
37752W        W97013  33.433   1.365   0.320
37753W        W97014  35.021  40.458   3.786
37754W        W97015  10.312  40.017  11.463
37755W        W97016  11.712  41.931  12.995
37756W        W97017  28.105  21.073   4.722
37757W        W97018  10.185  26.604  12.903
37758W        W97019   1.799  36.889   3.243
37759W        W97020  15.629  42.290   2.724
37760W        W97021  35.876  36.969   2.381
37761W        W97022   5.817  44.821  11.589
37762W        W97023  25.513  11.240   2.221
37763W        W97024  16.596   4.729   3.827
37764W        W97025  35.549   7.381   0.956
37765W        W97026   1.965  14.303   1.211
37766W        W97027   3.829  19.124   2.408
37767W        W97028   7.721  15.267   0.343
37768W        W97029  36.565   4.798  10.604
37769W        W97030  25.038  40.539   4.675
37770W        W97031  32.550  27.064   1.303
37771W        W97032   8.713   2.892  10.537
37772W        W97033  32.893  36.582   2.882
37773W        W97034   5.213   2.817  14.410
37774W        W97035  43.946  28.680  12.565
37775W        W97036  35.416   6.411   1.779
37776W        W97037  25.031  17.145   3.296
37777W        W97038  32.079  18.221   4.635
37778W        W97039   7.239  34.004   2.804
37779W        W97040  37.432   1.891   4.199
37780W        W97041  42.851  31.412  12.095
37781W        W97042  39.909  32.120   0.336
37782W        W97043   0.916  30.912  12.963
37783W        W97044   1.732  20.528   3.772
37784W        W97045  17.615  15.592   3.346
37785W        W97046  42.296  18.573   4.618
37786W        W97047  21.757  42.022   1.863
37787W        W97048  11.326   4.394   0.383
37788W        W97049   5.430  42.474   0.347
37789W        W97050  18.673  27.082  10.988
37790W        W97051  27.534  12.182  11.922
37791W        W97052  42.432   7.695   3.716
37792W        W97053  34.525   4.821  10.603
37793W        W97054  20.769  37.528  12.079
37794W        W97055  27.497  38.335   2.793
37795W        W97056  17.768   3.748   1.797
37796W        W97057  31.407  44.817   2.700
37797W        W97058  43.433  20.741   2.858
37798W        W97059  14.100  14.193   5.309
37799W        W97060  28.460  24.584   4.115
37800W        W97061   7.715  11.820  10.596
37801W        W97062  41.322   9.673   0.325
37802W        W97063  13.196   7.303   1.238
37803W        W97064  34.579  10.676   1.696
37804W        W97065  18.635  32.079   1.398
37805W        W97066   9.866  25.101  11.541
37806W        W97067  37.831  34.022   0.942
37807W        W97068  44.772  15.623  10.941
37808W        W97069  28.995  33.007   0.750
37809W        W97070  23.509  41.486  11.569
37810W        W97071   8.262  38.931  10.448
37811W        W97072  41.945  26.517  14.319
37812W        W97073  32.615   8.698   0.840
37813W        W97074  17.250  38.518  12.480
37814W        W97075   0.973  12.165   4.345
37815W        W97076  29.579  17.142  13.419
37816W        W97077   3.750  42.019  11.534
37817W        W97078  21.741  41.839  12.926
37818W        W97079  19.573  16.762  11.034
37819W        W97080  43.829  25.018  13.498
37820W        W97081  11.266  31.937  13.523
37821W        W97082  20.526  36.849  12.490
37822W        W97083  10.703  31.923   4.765
37823W        W97084  11.276  27.456   2.199
37824W        W97085  18.112  33.109   3.710
37825W        W97086  17.210  34.085   3.811
37826W        W97087  17.142   4.257   2.743
37827W        W97088  35.598  27.455   0.747
37828W        W97089   0.384  14.591   0.313
37829W        W97090  42.781   3.370   2.893
37830W        W97091  17.720  30.605   3.169
37831W        W97092  11.638  13.333  12.846
37832W        W97093  18.589   1.266  13.041
37833W        W97094   6.768  37.380   2.305
37834W        W97095  19.689  32.015   2.818
37835W        W97096  32.119  32.458  12.829
37836W        W97097  23.689   7.723   3.183
37837W        W97098  19.061  10.777  10.933
37838W        W97099   9.294   4.445   2.898
37839W        W97100   0.277  17.655  14.991
37840W        W97101  34.514  40.806   1.281
37841W        W97102  21.082   9.737   3.284
37842W        W97103   6.853  39.366   1.331
37843W        W97104  17.185  31.975   3.295
37844W        W97105  37.941  29.512  10.579
37845W        W97106   7.896  40.517  13.877
37846W        W97107  20.191  26.995  11.030
37847W        W97108   8.768   5.338  12.353
37848W        W97109  42.364   9.793  10.433
37849W        W97110  19.607  36.378   4.640
37850W        W97111  18.257  32.624   2.181
37851W        W97112  25.122   9.333  12.065
37852W        W97113   9.283   7.219  14.872
37853W        W97114  20.585  42.448   4.207
37854W        W97115   8.709  44.325  11.375
37855W        W97116  37.529  27.566  14.971
37856W        W97117  26.951  43.506  11.997
37857W        W97118   1.273  20.188  13.883
37858W        W97119   4.212   0.915  14.392
37859W        W97120  33.512  43.879  14.794
37860W        W97121  22.196  40.851  12.913
37861W        W97122  21.147  21.262  13.948
37862W        W97123  15.161  26.190   3.807
37863W        W97124  27.077  15.583  10.072
37864W        W97125  13.277  17.096   2.723
37865W        W97126  15.715  28.007  14.435
37866W        W97127  13.194  32.999  11.877
37867W        W97128  34.041  42.477   3.797
37868W        W97129   2.760  12.793  10.989
37869W        W97130   8.385  22.110  14.870
37870W        W97131   5.813   0.921  10.956
37871W        W97132  37.832  26.481   0.339
37872W        W97133  27.180  43.450   1.300
37873W        W97134   2.807  27.525  12.476
37874W        W97135  13.663   4.869   5.123
37875W        W97136  28.151  25.166   4.790
37876W        W97137  16.720  28.652  12.882
37877W        W97138   4.430  14.218   3.233
37878W        W97139   6.240  15.222  14.797
37879W        W97140  11.343  23.668   3.752
37880W        W97141  39.477  25.679   4.318
37881W        W97142  43.401  32.508   0.765
37882W        W97143  43.845   7.705   4.771
37883W        W97144  41.967  24.162  13.546
37884W        W97145  31.541   7.344   1.373
37885W        W97146  21.535  21.041  11.955
37886W        W97147  21.747  36.908  13.337
37887W        W97148  15.216   0.377  14.939
37888W        W97149  14.307  15.144  11.029
37889W        W97150  41.461  42.895  11.611
37890W        W97151  16.597  34.585  11.435
37891W        W97152  19.195   5.793  14.807
37892W        W97153  39.463  13.326   2.896
37893W        W97154  44.829  15.261  11.016
37894W        W97155  10.643   2.269   1.374
37895W        W97156  42.899   0.814  11.408
37896W        W97157  35.377  36.859  13.952
37897W        W97158  21.127  33.435   1.416
37898W        W97159  43.302   6.296   1.261
37899W        W97160  36.381  14.312  11.119
37900W        W97161  19.120   3.936  11.861
37901W        W97162  13.260  28.011   2.787
37902W        W97163  14.097  26.128   1.396
37903W        W97164  11.702  44.374   4.599
37904W        W97165  35.035  30.464  11.435
37905W        W97166   7.185  16.789  11.074
37906W        W97167  33.976  30.549  11.457
37907W        W97168   8.321   8.212  13.531
37908W        W97169  25.147   5.360   2.665
37909W        W97170  38.453  39.818   2.886
37910W        W97171  43.402  42.484   4.835
37911W        W97172  25.558  44.438   2.715
37912W        W97173   5.268  33.415  13.052
37913W        W97174  43.794  42.891  11.467
37914W        W97175  32.447   7.294  12.888
37915W        W97176  23.232  31.565   2.227
37916W        W97177  21.123   0.877   4.246
37917W        W97178  34.467  43.985  11.107
37918W        W97179  42.920   6.897  11.518
37919W        W97180  38.064  21.635   0.429
37920W        W97181  40.473  24.132  14.297
37921W        W97182  16.319  21.600   0.726
37922W        W97183  26.530  18.664  12.356
37923W        W97184   1.891  22.532   1.294
37924W        W97185  30.610  32.967  14.450
37925W        W97186  43.432  22.615  11.561
37926W        W97187  16.108  42.366  13.356
37927W        W97188  33.609  22.733   3.374
37928W        W97189   2.901  14.826   1.924
37929W        W97190  28.129  14.664   2.813
37930W        W97191  33.040   4.771  11.387
37931W        W97192   2.939  33.961   2.305
37932W        W97193  20.685  19.715   4.201
37933W        W97194  34.893   8.673  13.036
37934W        W97195  24.703  28.965  14.454
37935W        W97196  13.789  37.960   1.724
37936W        W97197  39.437  14.288   1.791
37937W        W97198  14.128  38.977  10.436
37938W        W97199   1.247  10.650   2.396
37939W        W97200  44.791  10.187   2.233
37940W        W97201  25.524  21.624   2.304
37941W        W97202  31.082  26.992   2.246
37942W        W97203  37.549  18.210  13.307
37943W        W97204  36.439   2.419  11.598
37944W        W97205   6.871  12.621   5.678
37945W        W97206  36.397  25.083  11.892
37946W        W97207  29.437   7.339  12.571
37947W        W97208  32.886   1.830   3.668
37948W        W97209   9.331  36.872   3.795
37949W        W97210   3.262   1.368   4.713
37950W        W97211  18.191  17.208   0.954
37951W        W97212   5.894  21.235  11.988
37952W        W97213  31.410   6.914  12.929
37953W        W97214   3.287  10.785  13.050
37954W        W97215  39.559   4.914  13.534
37955W        W97216  25.112   3.234   4.306
37956W        W97217  10.249  22.236  14.985
37957W        W97218  42.858  25.135   4.324
37958W        W97219  10.864  13.247  12.525
37959W        W97220   3.854   7.667  12.468
37960W        W97221   6.226   7.872  14.003
37961W        W97222  26.533  36.490   0.907
37962W        W97223  13.346  41.834  12.482
37963W        W97224  28.115   2.458   1.252
37964W        W97225  35.091  16.226  11.581
37965W        W97226  36.447  10.877   1.222
37966W        W97227   1.472  14.254   3.815
37967W        W97228  19.201  15.182   2.199
37968W        W97229  23.557  10.237   4.342
37969W        W97230  26.112   2.755  13.416
37970W        W97231  21.222  18.234  13.847
37971W        W97232  40.935  44.782  12.984
37972W        W97233  12.238  29.511   1.373
37973W        W97234   7.812  17.160   2.806
37974W        W97235   2.724  37.842   0.913
37975W        W97236  41.989   4.423  10.511
37976W        W97237   4.925  18.715  14.986
37977W        W97238  29.021  42.864   2.737
37978W        W97239  34.465   1.395  11.944
37979W        W97240  10.804   4.220  11.508
37980W        W97241  30.978  34.078   3.833
37981W        W97242  42.776  20.048  12.529
37982W        W97243  37.345  30.648  11.864
37983W        W97244  38.396  15.119   3.818
37984W        W97245   6.877  37.518   9.994
37985W        W97246   1.859   6.296   5.246
37986W        W97247  35.436   9.676   2.333
37987W        W97248  40.964   8.255   2.295
37988W        W97249  40.858  38.497   2.717
37989W        W97250  13.184  15.731   2.395
37990W        W97251   8.355  39.888   1.882
37991W        W97252  16.163  10.273  14.913
37992W        W97253   1.416  44.320   0.464
37993W        W97254  41.802  16.132   3.178
37994W        W97255  33.026   9.267   9.500
37995W        W97256  32.932  22.686   3.865
37996W        W97257  26.077  34.050   2.779
37997W        W97258  38.072  37.468   0.887
37998W        W97259  27.057  39.893  10.572
37999W        W97260  34.920  29.455   1.929
38000W        W97261   3.845  11.288  14.397
38001W        W97262   9.754  22.169  13.945
38002W        W97263  19.690  27.175   0.472
38003W        W97264  30.948  11.848  14.928
38004W        W97265   6.416  42.000  13.470
38005W        W97266   5.908  17.155   1.747
38006W        W97267   1.420   9.662   2.841
38007W        W97268  36.014  36.451   1.806
38008W        W97269   5.322  10.712  11.010
38009W        W97270   5.425  25.966   4.814
38010W        W97271   8.372  31.621  11.888
38011W        W97272  24.695   0.963   4.273
38012W        W97273   9.662   6.403  14.990
38013W        W97274  10.319   0.250   4.213
38014W        W97275  28.110  42.030   2.888
38015W        W97276  10.684  36.023   2.201
38016W        W97277  26.152  12.848   1.906
38017W        W97278  40.055   4.822   3.840
38018W        W97279  13.637  42.423   3.204
38019W        W97280  24.695  17.128  11.545
38020W        W97281  23.233  20.034  11.969
38021W        W97282   5.394  38.529   4.613
38022W        W97283   9.248  12.226  10.457
38023W        W97284   3.359   9.348  13.933
38024W        W97285  41.802  33.014  10.987
38025W        W97286  35.546  12.295   3.221
38026W        W97287  28.062  24.058  11.881
38027W        W97288  33.123  39.323  10.022
38028W        W97289  37.338  14.118   0.935
38029W        W97290  37.864  20.596   0.412
38030W        W97291   7.863  21.640  14.803
38031W        W97292  32.598  36.584   1.927
38032W        W97293   1.352  10.287  11.484
38033W        W97294  21.693   0.458   0.905
38034W        W97295   4.941  16.617   3.199
38035W        W97296  37.404   0.822  12.922
38036W        W97297  39.840   6.882  14.278
38037W        W97298  44.414  25.968  11.011
38038W        W97299  32.518  16.717   3.169
38039W        W97300  19.557  16.113   0.779
38040W        W97301   3.832  39.012  13.434
38041W        W97302  28.508  26.081   3.214
38042W        W97303  40.858   2.303   1.428
38043W        W97304  17.198  39.424  14.888
38044W        W97305   0.827  15.654   1.763
38045W        W97306   6.327  10.194   3.186
38046W        W97307  30.624   7.172   4.199
38047W        W97308  34.018  42.381  13.847
38048W        W97309   1.807  17.251   0.342
38049W        W97310  24.002  44.952   3.230
38050W        W97311  36.568  33.501  10.639
38051W        W97312  19.620   0.484  10.941
38052W        W97313   8.761  31.626  12.518
38053W        W97314   2.908  25.606  12.537
38054W        W97315  44.800  32.583   1.789
38055W        W97316  17.139  37.513   4.302
38056W        W97317   6.422  38.843  10.980
38057W        W97318  29.563   4.787  10.625
38058W        W97319  21.165  38.028  13.791
38059W        W97320   0.749   4.809   0.790
38060W        W97321  30.966  30.960   0.398
38061W        W97322  26.566   4.805   2.186
38062W        W97323  44.981  44.830  11.371
38063W        W97324  13.708  23.533   4.325
38064W        W97325  30.611   6.717  14.509
38065W        W97326  36.450  41.807  14.812
38066W        W97327  40.894  24.540  12.886
38067W        W97328  30.960  16.782  14.989
38068W        W97329  23.575  22.717   3.709
38069W        W97330  34.455  13.320  10.434
38070W        W97331  19.552  33.001   0.823
38071W        W97332  29.020  22.537   3.226
38072W        W97333   6.425  23.718   3.745
38073W        W97334   2.259  11.219   4.736
38074W        W97335  40.496   6.276  13.865
38075W        W97336  41.440  15.089  12.061
38076W        W97337  26.085  15.178  12.965
38077W        W97338  27.637  40.925  12.088
38078W        W97339   1.736  33.009  11.552
38079W        W97340  31.459   6.420  13.355
38080W        W97341  21.567   3.418   4.786
38081W        W97342  16.244  19.660   2.769
38082W        W97343   2.311  19.577   1.748
38083W        W97344  18.674   3.461   1.384
38084W        W97345  17.174  21.563  13.810
38085W        W97346  19.712  37.404   4.231
38086W        W97347  36.907  39.444   2.406
38087W        W97348  23.096  28.961  11.920
38088W        W97349  39.937  10.675  14.279
38089W        W97350  28.062  35.549   2.865
38090W        W97351   3.912   0.835   3.169
38091W        W97352  33.409   4.356   2.763
38092W        W97353  25.591   0.255   3.197
38093W        W97354   1.422  41.375   3.224
38094W        W97355   9.860  27.172  13.870
38095W        W97356  16.197  28.509  12.993
38096W        W97357   7.410  16.589   0.878
38097W        W97358  38.498  40.326   0.359
38098W        W97359   3.753  31.610  12.538
38099W        W97360  28.185  32.630   1.738
38100W        W97361   2.433  32.886  13.471
38101W        W97362  21.112  21.723   3.253
38102W        W97363  41.400  21.609  14.884
38103W        W97364  15.154   7.853  12.949
38104W        W97365  35.873   4.290  14.339
38105W        W97366  29.434  20.271  12.421
38106W        W97367  36.445  42.288  11.950
38107W        W97368   0.371  21.069   4.193
38108W        W97369   5.317  20.232   0.440
38109W        W97370  41.962   8.732   3.784
38110W        W97371  11.180  42.864   2.218
38111W        W97372   0.983   3.882  12.431
38112W        W97373   2.442  15.812  13.334
38113W        W97374  39.006  37.567  12.533
38114W        W97375  36.451  42.406   2.197
38115W        W97376  13.665  12.332   2.231
38116W        W97377  20.766   7.312  11.437
38117W        W97378  39.914  11.851   4.227
38118W        W97379  43.008  36.389  10.961
38119W        W97380  14.231  15.286   4.190
38120W        W97381  25.679  42.334  14.332
38121W        W97382  30.477  32.586   0.830
38122W        W97383  22.026  39.858  13.491
38123W        W97384   2.256  24.720   1.758
38124W        W97385  18.562  19.113  13.819
38125W        W97386  18.576  19.671   1.794
38126W        W97387  14.213  26.059   3.246
38127W        W97388  21.246  32.993   4.680
38128W        W97389  25.546  42.859  13.513
38129W        W97390  33.010  12.734   2.738
38130W        W97391   3.941  18.668   3.311
38131W        W97392  26.000  23.999  10.587
38132W        W97393  21.194  41.404  12.014
38133W        W97394  42.441  15.677   4.738
38134W        W97395  17.675  31.487   1.855
38135W        W97396  19.197  23.082   0.412
38136W        W97397  39.362  38.338   2.349
38137W        W97398  11.662  10.185   4.124
38138W        W97399  28.608   9.788  12.353
38139W        W97400  41.809  41.901  12.986
38140W        W97401   8.328  11.232   9.977
38141W        W97402  41.477  12.218  12.986
38142W        W97403  37.059  33.423   0.859
38143W        W97404  38.052  24.071   2.874
38144W        W97405  24.979  10.724   2.811
38145W        W97406  29.145   8.762   1.260
38146W        W97407   9.275  19.616   5.166
38147W        W97408  34.063  12.677  14.929
38148W        W97409  30.433  26.196   0.782
38149W        W97410  25.063  42.389   0.482
38150W        W97411  25.194  12.634   2.235
38151W        W97412  40.942  33.477   2.405
38152W        W97413  18.083  26.156  14.951
38153W        W97414  11.234  29.951   0.887
38154W        W97415  33.432   4.928   5.236
38155W        W97416  44.881  15.164  10.626
38156W        W97417   2.264  13.769  13.324
38157W        W97418  15.204  26.660   3.147
38158W        W97419  19.124  28.534   0.345
38159W        W97420  22.249   8.189   0.336
38160W        W97421   7.665   1.286  14.329
38161W        W97422  18.698  33.515  11.441
38162W        W97423   5.863  44.301   4.639
38163W        W97424   4.789  30.956   4.345
38164W        W97425  25.038  11.163  10.996
38165W        W97426  12.704  29.932   5.173
38166W        W97427  15.241  28.567  13.029
38167W        W97428  14.701   9.375   1.344
38168W        W97429  32.037   2.425   3.756
38169W        W97430  11.748  21.165  10.915
38170W        W97431  32.566   9.711  11.095
38171W        W97432  29.549  15.690   5.130
38172W        W97433  19.253  30.544   2.398
38173W        W97434  17.128  15.659  14.978
38174W        W97435  33.008  25.587  10.989
38175W        W97436   0.449   8.268   3.327
38176W        W97437   9.670  32.101   2.811
38177W        W97438  15.784  38.429  12.978
38178W        W97439  43.497  30.031  10.899
38179W        W97440  43.958  25.104  12.913
38180W        W97441  23.190  28.473  10.528
38181W        W97442   0.273  32.620  13.514
38182W        W97443  31.456  35.449  13.057
38183W        W97444  33.001  13.610   0.274
38184W        W97445   7.389  32.906   1.401
38185W        W97446   0.474  33.129  11.435
38186W        W97447  38.844   2.357  12.434
38187W        W97448  12.128   5.842  14.974
38188W        W97449  38.052   3.892  13.413
38189W        W97450   6.281   5.376   5.090
38190W        W97451  33.545  22.013   2.301
38191W        W97452  39.515  36.452   2.232
38192W        W97453  16.743   9.156  13.012
38193W        W97454  19.129  32.088  10.526
38194W        W97455  44.415   0.903   3.348
38195W        W97456  21.704  43.461   4.684
38196W        W97457  28.601  33.419  11.934
38197W        W97458  35.479   9.698  12.050
38198W        W97459  29.574   3.255   1.342
38199W        W97460  11.814  43.490  10.595
38200W        W97461  17.639   9.166   3.780
38201W        W97462  40.803   7.337  12.942
38202W        W97463  42.291  38.890   4.809
38203W        W97464  11.689   4.437   0.376
38204W        W97465   0.868   8.813  10.406
38205W        W97466   4.879  23.047   0.454
38206W        W97467  37.483   0.253   3.681
38207W        W97468  24.588  23.691   1.407
38208W        W97469  10.361   9.689  14.901
38209W        W97470   9.218  17.632   1.312
38210W        W97471  22.149   6.198   2.184
38211W        W97472  36.439  19.261  13.834
38212W        W97473   6.749  42.468  14.467
38213W        W97474   5.922  40.473   1.723
38214W        W97475   9.214  11.149   3.327
38215W        W97476   1.440  29.980   4.323
38216W        W97477   3.736  29.112   3.261
38217W        W97478   8.717  32.902  11.544
38218W        W97479  27.620  16.108  12.018
38219W        W97480  25.007  29.578   4.219
38220W        W97481  11.778  37.515  13.538
38221W        W97482  14.610  10.166   5.135
38222W        W97483  40.522  22.173  11.113
38223W        W97484   9.258   0.941   0.310
38224W        W97485  29.175  24.149   3.775
38225W        W97486  10.875   1.389   1.397
38226W        W97487  42.812   5.788  10.935
38227W        W97488  12.655  22.246   3.267
38228W        W97489   4.295  41.406  10.471
38229W        W97490  21.118  44.386  11.521
38230W        W97491  41.447  21.554   0.739
38231W        W97492  10.635  26.684  10.076
38232W        W97493  16.094  32.457  11.461
38233W        W97494  33.958   7.756   1.401
38234W        W97495  25.035  39.529  11.056
38235W        W97496  23.014  41.366  10.954
38236W        W97497  22.599  44.882  10.406
38237W        W97498  15.654  13.177   5.592
38238W        W97499  29.115   5.751  11.987
38239W        W97500  36.576   7.234  10.922
38240W        W97501   0.288   1.810   2.186
38241W        W97502  17.227  20.068  13.328
38242W        W97503  35.985  31.055  13.501
38243W        W97504  40.371  25.651  10.420
38244W        W97505  39.517  13.149  13.055
38245W        W97506  25.997   9.868   2.326
38246W        W97507  20.594  32.391   0.863
38247W        W97508  40.894  39.341   0.756
38248W        W97509  22.512  30.922  13.880
38249W        W97510  30.150  22.007  14.407
38250W        W97511  17.776  16.652   5.633
38251W        W97512  39.055  18.553   4.810
38252W        W97513  24.989  35.022  14.877
38253W        W97514  29.613  40.867   0.958
38254W        W97515  11.687  38.531  12.866
38255W        W97516  20.171   5.252   2.310
38256W        W97517  43.950  12.165  11.105
38257W        W97518  17.724  39.059  12.512
38258W        W97519  13.201  31.466  14.881
38259W        W97520   0.970  17.679   4.216
38260W        W97521  37.419  30.526  13.328
38261W        W97522  40.464   0.918   3.825
38262W        W97523  20.692  28.093  10.428
38263W        W97524  30.937  30.134   2.347
38264W        W97525   2.741  34.479  11.032
38265W        W97526  34.518  29.924   3.798
38266W        W97527  26.479  36.513  13.530
38267W        W97528   4.782  27.534  10.972
38268W        W97529   4.847  39.355  12.037
38269W        W97530  25.665  23.208   0.813
38270W        W97531  15.264  32.958  14.370
38271W        W97532  27.485  44.829   4.287
38272W        W97533  35.588  20.575   4.114
38273W        W97534  43.953  19.570  12.015
38274W        W97535  14.231  42.964  10.980
38275W        W97536   0.352  40.972  12.044
38276W        W97537   8.221  42.896  11.041
38277W        W97538  35.473  21.659  11.495
38278W        W97539  34.046  31.611  11.482
38279W        W97540  26.463  11.722   1.778
38280W        W97541   1.881  14.830  11.938
38281W        W97542   9.761  17.130  12.425
38282W        W97543   7.349  33.380   2.698
38283W        W97544  40.993  35.096   2.260
38284W        W97545   4.435  24.144  12.997
38285W        W97546  38.838   5.382  14.494
38286W        W97547  36.372   2.343   1.769
38287W        W97548   9.736  13.296   2.710
38288W        W97549  16.182  43.300   3.772
38289W        W97550  36.438  18.050  10.108
38290W        W97551  39.536   3.740   0.923
38291W        W97552   0.844  32.636  11.003
38292W        W97553  23.108  11.366  10.537
38293W        W97554  35.858  38.461  12.458
38294W        W97555  32.134  43.418  14.453
38295W        W97556   6.399  31.918   1.739
38296W        W97557   1.470  34.993   1.335
38297W        W97558  32.530   2.953  14.926
38298W        W97559  35.871  16.214   4.332
38299W        W97560  24.054  41.472   3.664
38300W        W97561  39.472  27.147  11.863
38301W        W97562  32.043  21.145  11.519
38302W        W97563  20.050   8.322   3.703
38303W        W97564  22.153  22.582  12.442
38304W        W97565  31.951  21.254  10.611
38305W        W97566  13.189  44.959  14.969
38306W        W97567  36.458  32.901  13.377
38307W        W97568  17.718  26.159  10.566
38308W        W97569  20.732  16.132   1.408
38309W        W97570  15.252  39.320   1.241
38310W        W97571  43.004   9.196   2.880
38311W        W97572  34.446  42.439  12.977
38312W        W97573  34.931  31.945   4.623
38313W        W97574  35.893  18.058  14.956
38314W        W97575   2.458  26.054   4.246
38315W        W97576  38.911  44.944  12.887
38316W        W97577   2.838  27.062  14.902
38317W        W97578   2.247  42.837  13.013
38318W        W97579  23.111  32.636  10.463
38319W        W97580  17.193  26.692   0.785
38320W        W97581  31.018  24.153  11.958
38321W        W97582  36.052  33.620  12.439
38322W        W97583  31.646  39.469   3.709
38323W        W97584  41.316  20.124  13.403
38324W        W97585  33.955  23.202  11.428
38325W        W97586  34.091  35.532  12.825
38326W        W97587  44.920  17.618  13.411
38327W        W97588  12.654  32.560  11.527
38328W        W97589   7.360  43.341   3.664
38329W        W97590  14.159  11.315   2.774
38330W        W97591  16.234   6.697  13.964
38331W        W97592  21.553  10.373   4.613
38332W        W97593  21.045   4.217   0.751
38333W        W97594  10.770  28.652  14.920
38334W        W97595   6.246  13.158   0.748
38335W        W97596  16.692  41.806   1.747
38336W        W97597  44.264  20.608  12.922
38337W        W97598  43.443  37.958  11.466
38338W        W97599  41.020  19.150   2.722
38339W        W97600  17.093  24.691  10.423
38340W        W97601  37.504  14.158   3.825
38341W        W97602  40.388  24.978   3.725
38342W        W97603  38.544  24.639   4.813
38343W        W97604   3.252  18.106  10.064
38344W        W97605  17.090   7.676   4.735
38345W        W97606   5.390   4.906  13.949
38346W        W97607  26.624  37.514   0.299
38347W        W97608  16.124   9.759  10.560
38348W        W97609  40.361   2.904   4.774
38349W        W97610  13.737  26.494   4.672
38350W        W97611  12.821  15.326  14.977
38351W        W97612  14.202  44.938   1.907
38352W        W97613   4.389   2.806  12.380
38353W        W97614  44.346  21.642   0.454
38354W        W97615   1.445  24.673   1.411
38355W        W97616  12.213  31.558  13.892
38356W        W97617  39.031  19.053  13.007
38357W        W97618   7.409  15.798   0.335
38358W        W97619  19.121  10.740  13.859
38359W        W97620   0.457  32.110  14.815
38360W        W97621  12.842  14.231   2.872
38361W        W97622  34.615  41.444  11.538
38362W        W97623   0.463  21.196  14.510
38363W        W97624  22.207   3.868  11.109
38364W        W97625   9.780  19.124  11.993
38365W        W97626  36.586  40.900  10.946
38366W        W97627  37.861  41.528  12.905
38367W        W97628   3.270  19.709  10.632
38368W        W97629   3.300   3.895   0.451
38369W        W97630  38.826  23.230  12.886
38370W        W97631  33.931   4.839   1.736
38371W        W97632   0.809  25.710  12.996
38372W        W97633   5.769  11.363   1.433
38373W        W97634  36.590  42.858  13.006
38374W        W97635  32.109  28.123  14.798
38375W        W97636  39.494  36.902  14.894
38376W        W97637  29.489   3.410  13.314
38377W        W97638   9.360  18.238  10.914
38378W        W97639   2.246  44.821   1.734
38379W        W97640   4.782   1.384   4.326
38380W        W97641  42.803  18.118   4.628
38381W        W97642  38.849   2.389  14.933
38382W        W97643  40.501  21.667   1.268
38383W        W97644  34.080   7.328   4.220
38384W        W97645   5.230  25.219   1.257
38385W        W97646  23.507   2.376   2.387
38386W        W97647  11.276   4.868  10.896
38387W        W97648  20.589  34.517   4.628
38388W        W97649  19.142  23.985   3.324
38389W        W97650  29.166  22.603   2.734
38390W        W97651   3.231  36.929   3.792
38391W        W97652  18.667   5.777   1.811
38392W        W97653  34.063  43.826   3.172
38393W        W97654  11.138  25.034  12.519
38394W        W97655  14.113  28.084   1.884
38395W        W97656  15.580  12.676   0.876
38396W        W97657  31.539  18.275  12.042
38397W        W97658  22.562  26.068  13.955
38398W        W97659  24.601  22.740  10.468
38399W        W97660  30.424  22.555  12.459
38400W        W97661  26.505  22.719   2.396
38401W        W97662  14.803  44.479  12.882
38402W        W97663  29.051  24.037   2.861
38403W        W97664  38.488  27.959  11.068
38404W        W97665   1.277   4.344   2.826
38405W        W97666  16.251  11.196  14.915
38406W        W97667  33.558   8.339  14.469
38407W        W97668   6.802   0.765  13.050
38408W        W97669  41.011  27.509   3.648
38409W        W97670  34.908  44.977   1.251
38410W        W97671  30.930  29.968  10.424
38411W        W97672  44.903  26.542  10.468
38412W        W97673  27.069   0.404  13.862
38413W        W97674   6.261  31.512   2.745
38414W        W97675   5.746  24.086  14.873
38415W        W97676  35.906  35.541  10.549
38416W        W97677  22.073  42.972  13.360
38417W        W97678  13.216  30.926  13.043
38418W        W97679  10.298  18.191   4.715
38419W        W97680  39.051  24.003   1.211
38420W        W97681   6.249  30.015   0.734
38421W        W97682  18.712  42.524   0.425
38422W        W97683   5.889  27.677  14.440
38423W        W97684  11.192  36.998   3.776
38424W        W97685  38.838  43.021   0.783
38425W        W97686  35.419   3.433  13.328
38426W        W97687  37.948  14.602   2.196
38427W        W97688  16.092  35.407   0.411
38428W        W97689  17.726  10.674   4.270
38429W        W97690   9.198  16.173   3.193
38430W        W97691  41.405   2.859   3.839
38431W        W97692  32.033  24.615  14.772
38432W        W97693  23.503  36.886   1.781
38433W        W97694   8.292  22.034   1.354
38434W        W97695  44.392  26.590   4.828
38435W        W97696  19.759  25.085  10.409
38436W        W97697  31.918  29.976  11.953
38437W        W97698  16.690  34.477   1.830
38438W        W97699  16.271  35.438   4.604
38439W        W97700  32.614  10.159   0.732
38440W        W97701  16.250  21.692   1.271
38441W        W97702  17.622  33.510  13.394
38442W        W97703  40.824   7.888  12.539
38443W        W97704   0.967  41.437  11.023
38444W        W97705  31.019  19.535  10.042
38445W        W97706  43.288  21.578   1.774
38446W        W97707  16.156  31.582   2.763
38447W        W97708  42.335  36.876   4.245
38448W        W97709   2.917  19.617   0.405
38449W        W97710   1.319   1.882  14.313
38450W        W97711  12.709   5.698   0.245
38451W        W97712  24.217  42.405  11.118
38452W        W97713  11.192  13.682  12.360
38453W        W97714  15.207  44.282  13.492
38454W        W97715  20.187  12.679  13.843
38455W        W97716  26.155  11.201  14.918
38456W        W97717  35.863  15.630  14.401
38457W        W97718  43.015  30.594   3.369
38458W        W97719  26.037  32.053  14.989
38459W        W97720  12.852   0.860  14.313
38460W        W97721  34.435  14.269   1.707
38461W        W97722   7.218  20.733  14.931
38462W        W97723  44.483   7.893   4.783
38463W        W97724   0.260  41.932   1.242
38464W        W97725  26.108  44.469  13.338
38465W        W97726  41.919   1.417   4.180
38466W        W97727  41.514  13.146  12.000
38467W        W97728   6.735  41.875  11.564
38468W        W97729   8.368  18.238  13.981
38469W        W97730  26.960  40.938  10.436
38470W        W97731  39.980  28.565   1.780
38471W        W97732  16.088  36.525  10.418
38472W        W97733   1.454  40.358   1.875
38473W        W97734  22.714  10.748  12.935
38474W        W97735  42.440  26.646   3.316
38475W        W97736  40.542  40.331   5.198
38476W        W97737  36.461   5.425  14.968
38477W        W97738   3.916  18.244   3.205
38478W        W97739  41.475  19.141   1.785
38479W        W97740  25.129   9.686   2.240
38480W        W97741  31.137  22.216   3.310
38481W        W97742  34.420  25.674  14.469
38482W        W97743  26.534   5.197   0.428
38483W        W97744  25.111  38.925   2.408
38484W        W97745  38.498  22.716   1.903
38485W        W97746  11.228  35.875   0.792
38486W        W97747  17.584   6.881  13.355
38487W        W97748  27.474  24.491   0.943
38488W        W97749   6.428  11.369  10.443
38489W        W97750  38.427  12.245  10.619
38490W        W97751   8.255  44.282   4.311
38491W        W97752  29.102  43.884   1.911
38492W        W97753  12.158  43.811  11.042
38493W        W97754   0.894  38.953   2.260
38494W        W97755  36.555  38.465   3.180
38495W        W97756  42.915  27.024   0.353
38496W        W97757  38.502  41.401   0.960
38497W        W97758  37.860  11.238   3.710
38498W        W97759   8.820   2.915  14.958
38499W        W97760  34.903   7.404   2.867
38500W        W97761  35.449  14.742  11.501
38501W        W97762  13.184  12.142   4.235
38502W        W97763  37.058  14.671  11.518
38503W        W97764  42.415  35.056   2.308
38504W        W97765   6.328   6.209  10.616
38505W        W97766   0.430   0.410  13.916
38506W        W97767   3.712  12.845  12.395
38507W        W97768  26.625  12.613  14.411
38508W        W97769  19.710  37.570   2.233
38509W        W97770  39.375  15.662   1.225
38510W        W97771  44.375   9.172   4.214
38511W        W97772   0.382  34.033  11.582
38512W        W97773  32.418  20.607  11.589
38513W        W97774  23.032  10.241   0.817
38514W        W97775   2.418   5.857   4.134
38515W        W97776  25.687  34.031  12.928
38516W        W97777   0.280  19.698   1.288
38517W        W97778   1.273  38.070  14.307
38518W        W97779  43.346  42.333  11.388
38519W        W97780  39.442  19.110   2.246
38520W        W97781  32.089  28.081   2.181
38521W        W97782  44.325  31.598   4.334
38522W        W97783  44.986  26.041   2.744
38523W        W97784   0.791  31.557  12.561
38524W        W97785  24.213  16.203   0.866
38525W        W97786  35.360  39.355  10.913
38526W        W97787  22.047   0.257   3.260
38527W        W97788  34.103  20.180  13.937
38528W        W97789  37.522  17.564   3.176
38529W        W97790  26.005  41.902   4.261
38530W        W97791   5.279  11.743  10.044
38531W        W97792  22.569  26.196   1.302
38532W        W97793   1.801  10.831  11.867
38533W        W97794   8.395  28.599  14.015
38534W        W97795  40.430  21.556  14.374
38535W        W97796   0.888  21.616  12.963
38536W        W97797  41.841  41.912   4.262
38537W        W97798   1.466   1.242   2.798
38538W        W97799  16.116  27.545  12.834
38539W        W97800   6.390   4.419  11.604
38540W        W97801  19.257  22.021   1.278
38541W        W97802  20.729  27.191   9.927
38542W        W97803  19.772  36.353  10.950
38543W        W97804  33.032  14.623  14.023
38544W        W97805  23.511   9.364  10.635
38545W        W97806  19.230   7.413   0.384
38546W        W97807   1.859  30.462   2.274
38547W        W97808  24.693  36.995   4.809
38548W        W97809  23.701  28.611   4.239
38549W        W97810  33.926  28.030   3.148
38550W        W97811  17.273   8.665  10.479
38551W        W97812  20.532  36.448  12.074
38552W        W97813  10.150   9.174  13.387
38553W        W97814   7.722  16.103  13.467
38554W        W97815  26.020  11.134  12.983
38555W        W97816  35.359  31.615   4.258
38556W        W97817  17.290  36.979  14.367
38557W        W97818  29.568  12.627  14.873
38558W        W97819  14.714  36.967  12.378
38559W        W97820   0.959   6.369  11.417
38560W        W97821  37.040  25.044  12.444
38561W        W97822  44.492   3.449   1.269
38562W        W97823  13.685  38.390  14.822
38563W        W97824   2.275   0.393  12.965
38564W        W97825  28.118  27.447   0.891
38565W        W97826  40.891  20.270   2.723
38566W        W97827  20.630  29.465  12.481
38567W        W97828  17.745  15.248  12.471
38568W        W97829   0.351  15.592   0.803
38569W        W97830   3.721  31.577   1.440
38570W        W97831  24.717  20.194   4.164
38571W        W97832  41.473   4.301   0.765
38572W        W97833  37.846  20.707  13.950
38573W        W97834  18.599  16.789   4.682
38574W        W97835  42.856  38.344  14.417
38575W        W97836  34.940  15.754  11.442
38576W        W97837  28.936  37.860   2.839
38577W        W97838   5.703  28.478  11.530
38578W        W97839  34.397  24.635  13.367
38579W        W97840  37.510  29.494   0.372
38580W        W97841   5.800  14.154  11.528
38581W        W97842   3.244  28.604  11.535
38582W        W97843   3.711  26.534   5.156
38583W        W97844  10.778  30.002   2.771
38584W        W97845  12.127  29.462   3.668
38585W        W97846  21.619  14.589  12.866
38586W        W97847  38.858  35.432   5.177
38587W        W97848  10.844   9.269   0.782
38588W        W97849  11.778  21.058  12.366
38589W        W97850   7.250  26.647   3.220
38590W        W97851   3.772  29.589  11.442
38591W        W97852  10.183  26.960   0.360
38592W        W97853  44.302   5.711  12.350
38593W        W97854   3.897  13.620  10.938
38594W        W97855   0.904   2.374  13.370
38595W        W97856   5.232  35.382  12.533
38596W        W97857  43.446  29.078   4.263
38597W        W97858  20.170  22.092  10.912
38598W        W97859  34.067  39.919  11.071
38599W        W97860  36.019  38.982  12.444
38600W        W97861   0.758   5.918   4.133
38601W        W97862   9.834   4.859   2.711
38602W        W97863  13.832  21.119  14.287
38603W        W97864  17.594   2.464  12.032
38604W        W97865  20.080  30.591  10.974
38605W        W97866   4.714  35.548   0.917
38606W        W97867  30.994   4.298   0.904
38607W        W97868  24.131   1.842   4.186
38608W        W97869  14.739  28.979  13.995
38609W        W97870  42.306  42.972   0.345
38610W        W97871  35.513  27.070  14.460
38611W        W97872  40.030  19.657  11.517
38612W        W97873  14.296  12.311   2.324
38613W        W97874   0.986  39.996   4.289
38614W        W97875   2.235  41.857  14.006
38615W        W97876  20.194  30.520   1.317
38616W        W97877   1.945  25.103   4.655
38617W        W97878  41.303  30.043   2.860
38618W        W97879  27.463  37.522  13.905
38619W        W97880   8.838  32.599  13.516
38620W        W97881   4.902  13.202   1.706
38621W        W97882  32.065  40.323   0.805
38622W        W97883  22.696   7.377   1.842
38623W        W97884   6.774  44.261  13.995
38624W        W97885  23.234  37.867   3.631
38625W        W97886   3.753  23.664  14.472
38626W        W97887  42.411  18.277  11.960
38627W        W97888  33.445  36.080   1.755
38628W        W97889  28.181  44.380  11.861
38629W        W97890   5.815  15.629  10.533
38630W        W97891  33.594  10.169   3.644
38631W        W97892  13.130  22.533  12.340
38632W        W97893   0.383  11.232  11.484
38633W        W97894  27.448  11.194  14.792
38634W        W97895  18.196  25.160   1.445
38635W        W97896  25.996  32.130   3.643
38636W        W97897  24.141  37.065   3.152
38637W        W97898  39.926  15.590  14.372
38638W        W97899  14.740  23.225  10.892
38639W        W97900  17.719   5.375  14.877
38640W        W97901  16.231  34.963   4.239
38641W        W97902  27.083  28.045  12.080
38642W        W97903  27.158   7.357  14.468
38643W        W97904  44.840  19.214  12.505
38644W        W97905  13.689  39.944   1.273
38645W        W97906  11.254  29.121   2.256
38646W        W97907  28.016  25.027  14.909
38647W        W97908   8.883  43.908   1.771
38648W        W97909  42.858  10.814   3.723
38649W        W97910  10.154  13.117   1.791
38650W        W97911   1.446  11.352  11.540
38651W        W97912  35.591   3.349   5.128
38652W        W97913  32.897  14.656   4.254
38653W        W97914   8.400  29.509   1.736
38654W        W97915  30.469   5.705  11.514
38655W        W97916  14.133   7.405   0.732
38656W        W97917  30.036  25.694   3.317
38657W        W97918   1.341   0.886   2.251
38658W        W97919  27.563   1.458   4.762
38659W        W97920  17.748  23.663  14.787
38660W        W97921  12.197   7.706  13.393
38661W        W97922  41.793  23.677   1.291
38662W        W97923   3.709  37.013  13.457
38663W        W97924  31.632  27.599   0.467
38664W        W97925  38.456  17.659  11.970
38665W        W97926  42.918   6.750   2.791
38666W        W97927  16.756  31.629   2.834
38667W        W97928  25.970  12.145  14.387
38668W        W97929  23.569  10.861  11.016
38669W        W97930  32.522  12.161   0.859
38670W        W97931  27.639  25.476  14.299
38671W        W97932  44.897  30.035  11.058
38672W        W97933  41.023  31.535  11.441
38673W        W97934  30.021  19.571   2.257
38674W        W97935  15.220  43.983   2.809
38675W        W97936  43.855  17.214  14.021
38676W        W97937  33.506  25.074  14.422
38677W        W97938   0.837  33.467   2.684
38678W        W97939  13.696  23.151   3.867
38679W        W97940  32.940  32.490   2.699
38680W        W97941  22.575  10.234  14.462
38681W        W97942  20.185   4.898   1.824
38682W        W97943  32.494  35.899  14.877
38683W        W97944  40.454  17.287  10.517
38684W        W97945  11.849   1.249   3.152
38685W        W97946  43.908  19.683   3.370
38686W        W97947   9.389  14.606   0.770
38687W        W97948  15.129   0.810  12.050
38688W        W97949  31.413  39.350   3.252
38689W        W97950  41.986  35.061   3.741
38690W        W97951   5.897   1.237   4.611
38691W        W97952  35.490  18.267   1.449
38692W        W97953  35.537  40.040  13.798
38693W        W97954   2.801  32.901   2.383
38694W        W97955  13.780  29.957   3.743
38695W        W97956   6.299  43.483   2.810
38696W        W97957  14.646   2.741  14.759
38697W        W97958   5.394  41.906  10.543
38698W        W97959  13.246  19.109   3.758
38699W        W97960   6.425   0.476   4.195
38700W        W97961  18.106  25.644   0.403
38701W        W97962  31.524   0.894   1.213
38702W        W97963   2.463   5.280  13.942
38703W        W97964  17.184   3.901  10.601
38704W        W97965  13.261  38.035   1.787
38705W        W97966  29.095  39.840  14.509
38706W        W97967  28.531  17.767  14.416
38707W        W97968   3.278  43.949   3.161
38708W        W97969   3.406  12.137  14.969
38709W        W97970  40.825  20.726  13.831
38710W        W97971   3.333  29.663  12.361
38711W        W97972  16.169   0.753   2.408
38712W        W97973  34.058  27.595  11.478
38713W        W97974  25.079  26.549  14.337
38714W        W97975   5.774   2.449  10.907
38715W        W97976   3.747  30.148  13.847
38716W        W97977   9.871  25.141  12.488
38717W        W97978   9.176  40.906  14.427
38718W        W97979  11.674   7.911   3.207
38719W        W97980  19.051  37.866  13.517
38720W        W97981  41.821   1.455  10.448
38721W        W97982  16.708   9.773  14.401
38722W        W97983  31.152  17.190  10.142
38723W        W97984  44.884   2.910   0.250
38724W        W97985   1.842  30.090  12.563
38725W        W97986  40.336  20.242  11.860
38726W        W97987  11.131  14.747   3.194
38727W        W97988  32.511  23.619   4.251
38728W        W97989  10.232  39.557  13.548
38729W        W97990  19.610  35.521  14.514
38730W        W97991  26.487   2.395  14.882
38731W        W97992  11.358  35.598  13.797
38732W        W97993  12.241  24.987   4.221
38733W        W97994  10.349  37.567   3.708
38734W        W97995   9.323  26.624  14.440
38735W        W97996  40.815  14.136  14.909
38736W        W97997   5.727  16.273   2.742
38737W        W97998  36.432  31.998   2.787
38738W        W97999   1.738  32.964  13.440
38739W        W98000  39.911   4.289   1.225
38740W        W98001  29.607  43.905  12.042
38741W        W98002  39.535   5.244  14.962
38742W        W98003  30.440  37.876   0.919
38743W        W98004  11.779  24.638  14.289
38744W        W98005  19.039  31.406  10.414
38745W        W98006  20.541  31.012  12.034
38746W        W98007  36.486  10.833  10.914
38747W        W98008  14.254  38.956  13.440
38748W        W98009  29.133  34.051  13.952
38749W        W98010  41.476  27.621   2.356
38750W        W98011   9.842  33.386   3.371
38751W        W98012  38.890  34.029  13.487
38752W        W98013  33.892   9.883   2.721
38753W        W98014   0.313  20.712  13.840
38754W        W98015  25.674  35.986   0.292
38755W        W98016  17.616  15.210   0.814
38756W        W98017  30.518   9.782   0.960
38757W        W98018  11.801  20.752   0.377
38758W        W98019  19.165  32.531   1.808
38759W        W98020  27.457  20.170   0.308
38760W        W98021  26.686  13.793   3.828
38761W        W98022  11.748  39.531   4.615
38762W        W98023  32.609  12.238  13.485
38763W        W98024  31.122  30.044  13.456
38764W        W98025  27.563  26.671  14.942
38765W        W98026  10.308   7.795  11.455
38766W        W98027  15.309  35.897   4.148
38767W        W98028  16.684   3.882   2.795
38768W        W98029   9.340   2.331  14.877
38769W        W98030  14.747  38.451   2.317
38770W        W98031  28.121   8.699   4.242
38771W        W98032  36.965  38.562  10.967
38772W        W98033  35.588   3.851  14.403
38773W        W98034  26.541  34.962   3.716
38774W        W98035   8.882  42.394   0.882
38775W        W98036  24.615   2.269   0.351
38776W        W98037   6.194  40.400   2.278
38777W        W98038  33.980   7.757   0.316
38778W        W98039  42.859  20.619  13.000
38779W        W98040  23.725   4.256  13.441
38780W        W98041  31.448   5.375  12.944
38781W        W98042  11.757  26.676  11.541
38782W        W98043  17.276   5.312  11.485
38783W        W98044  21.623  10.223  12.930
38784W        W98045  10.852  21.741  12.420
38785W        W98046  22.646  24.554  12.011
38786W        W98047  38.384  11.171   0.759
38787W        W98048  44.326  17.770   3.759
38788W        W98049  34.568  36.455  10.452
38789W        W98050  42.802  30.988  14.938
38790W        W98051  18.762  33.553   0.265
38791W        W98052  25.193  19.691  14.924
38792W        W98053   3.947  12.134  12.515
38793W        W98054   0.765  17.144   1.311
38794W        W98055  34.975   2.742   2.303
38795W        W98056  14.215  22.250   2.380
38796W        W98057  40.849  16.620  12.363
38797W        W98058  19.665  10.809  10.523
38798W        W98059   8.204  25.090  13.918
38799W        W98060  30.049  37.402   0.364
38800W        W98061  41.006  19.212   3.706
38801W        W98062  25.527  23.493  14.830
38802W        W98063  39.883  12.622   3.233
38803W        W98064   9.747  25.549   0.869
38804W        W98065  31.458  12.192   2.193
38805W        W98066  29.976  24.617  12.892
38806W        W98067  22.030  24.645  13.317
38807W        W98068   6.680  29.665  12.001
38808W        W98069  12.253  42.410  11.909
38809W        W98070  25.143  10.802  10.473
38810W        W98071   6.714  13.797  12.967
38811W        W98072   3.395  10.641  13.448
38812W        W98073  33.880   1.338  11.493
38813W        W98074  32.484  21.717   0.854
38814W        W98075   1.872   6.827  13.890
38815W        W98076  17.073  12.130  10.455
38816W        W98077  35.397  20.765   0.872
38817W        W98078  10.231  25.582   0.726
38818W        W98079  33.520  39.017   1.725
38819W        W98080  30.141  32.953  10.546
38820W        W98081  33.001  33.011   0.317
38821W        W98082  30.470  11.725  13.472
38822W        W98083  14.609  36.053   3.782
38823W        W98084  35.593   4.876   0.332
38824W        W98085   7.278  34.588  11.985
38825W        W98086  14.204   5.826   4.194
38826W        W98087  40.834   5.860   1.286
38827W        W98088  25.182  30.611  14.948
38828W        W98089  44.938  17.578  13.867
38829W        W98090  37.032  17.099   0.884
38830W        W98091  10.743  27.455  13.465
38831W        W98092  43.968  44.915   0.347
38832W        W98093  39.978  32.539  14.032
38833W        W98094  25.045   5.307  13.918
38834W        W98095  34.933  40.491   0.260
38835W        W98096  36.953  31.594   4.837
38836W        W98097   4.720  12.697  14.473
38837W        W98098  23.563   6.246  14.792
38838W        W98099  11.360  23.525   1.736
38839W        W98100  19.199  28.612   0.891
38840W        W98101  36.937   0.338   2.204
38841W        W98102  30.644  29.633  13.546
38842W        W98103  35.382  14.094  13.384
38843W        W98104  19.167   0.882  12.893
38844W        W98105  27.480  23.537  10.522
38845W        W98106  32.391  26.121  11.124
38846W        W98107  39.062  12.667  13.839
38847W        W98108   5.249  22.575   2.669
38848W        W98109  11.652  28.590   1.237
38849W        W98110  43.003  40.457   5.302
38850W        W98111  44.867  36.914   1.777
38851W        W98112  43.471  17.197  13.473
38852W        W98113   0.791  39.506   3.739
38853W        W98114  44.460  32.598  13.321
38854W        W98115   5.393  11.788  11.101
38855W        W98116  43.815  44.324  11.390
38856W        W98117   6.318  19.136   3.368
38857W        W98118  27.470  14.765   3.160
38858W        W98119  34.094  38.868  13.814
38859W        W98120  23.175  40.328  13.445
38860W        W98121  44.470   4.316   3.385
38861W        W98122  35.594   2.966  11.588
38862W        W98123  12.820  28.957   2.396
38863W        W98124   3.836  11.174   1.388
38864W        W98125  41.400   0.834  14.466
38865W        W98126  27.644   5.879   1.741
38866W        W98127  29.168  42.781  13.468
38867W        W98128  34.086  16.194   4.760
38868W        W98129  19.567  39.355   1.925
38869W        W98130  11.782  10.364  12.358
38870W        W98131  40.473  43.446   3.160
38871W        W98132  35.429  43.939   2.707
38872W        W98133  36.047   3.823   4.635
38873W        W98134  11.803  38.077  11.464
38874W        W98135  23.178  18.710  13.355
38875W        W98136  26.572  39.820   1.933
38876W        W98137   2.861  31.970  11.887
38877W        W98138  31.943  33.619   3.790
38878W        W98139  26.510  12.795   0.417
38879W        W98140  29.637  20.758   2.317
38880W        W98141  42.462  21.704  11.931
38881W        W98142  39.854  32.995  11.463
38882W        W98143  16.725  12.810   4.721
38883W        W98144  24.017   7.702  11.392
38884W        W98145   2.741  38.341   1.211
38885W        W98146  33.939  25.115  12.931
38886W        W98147   2.867  22.084  10.432
38887W        W98148  32.024  17.187   1.390
38888W        W98149  40.429  14.245   0.302
38889W        W98150  22.686  41.791  13.388
38890W        W98151   2.840  13.177   2.808
38891W        W98152   4.935  30.077   0.407
38892W        W98153  37.504  37.845  13.433
38893W        W98154  43.288  41.849   4.694
38894W        W98155  37.052  31.152   3.216
38895W        W98156  21.076  10.164   1.445
38896W        W98157  11.321  31.090  13.347
38897W        W98158  36.534  23.716  11.456
38898W        W98159  18.180  41.002  11.009
38899W        W98160   4.413   9.674  10.613
38900W        W98161  27.463  40.455  12.483
38901W        W98162  16.706  33.938  10.919
38902W        W98163  10.731  24.640   0.799
38903W        W98164  26.666   8.265  13.386
38904W        W98165  12.623   9.791   1.798
38905W        W98166  10.154  10.210  11.413
38906W        W98167  43.910  37.545  12.835
38907W        W98168   1.903  31.117   2.345
38908W        W98169  39.322   2.329   3.292
38909W        W98170  12.256  16.799   4.703
38910W        W98171  38.417  40.902   3.721
38911W        W98172  23.235  35.528   4.291
38912W        W98173  14.808  27.113   3.797
38913W        W98174  35.991   3.241  13.858
38914W        W98175  33.113  16.652  12.503
38915W        W98176  31.904  39.838   4.243
38916W        W98177  38.343   0.440  12.423
38917W        W98178  20.231  13.235  12.487
38918W        W98179  19.193  23.510  13.845
38919W        W98180  11.668  40.819   2.797
38920W        W98181  10.743  22.211   2.683
38921W        W98182  40.828  43.839   2.903
38922W        W98183   9.207  14.716  12.038
38923W        W98184  19.169  38.041  14.812
38924W        W98185   4.448  34.483   3.831
38925W        W98186  44.930   3.404   1.424
38926W        W98187   2.736  22.135  12.086
38927W        W98188  27.051  32.002   2.832
38928W        W98189  29.669   9.861  14.027
38929W        W98190  43.361   9.781  11.558
38930W        W98191  23.986   3.229   4.696
38931W        W98192  22.582  13.169  12.458
38932W        W98193  23.705   6.210   4.230
38933W        W98194   5.925  40.940  11.939
38934W        W98195   7.217  17.632   2.279
38935W        W98196  21.051  23.539  13.461
38936W        W98197   6.233  11.259   9.957
38937W        W98198  14.722  30.079   2.848
38938W        W98199  35.001  23.005  10.604
38939W        W98200  21.156  25.075  13.509
38940W        W98201  39.060  31.152  13.018
38941W        W98202  32.523   5.365  14.312
38942W        W98203  40.894  14.814   2.385
38943W        W98204  28.165   6.756  12.356
38944W        W98205   6.362  32.013   3.771
38945W        W98206  20.613  37.469  14.790
38946W        W98207  25.505  20.727   4.347
38947W        W98208  31.617  32.915   2.848
38948W        W98209  26.671  43.861  14.003
38949W        W98210  33.906  18.721   4.138
38950W        W98211   9.683  30.142   4.703
38951W        W98212   8.332   0.412   0.841
38952W        W98213  11.180  15.325  14.855
38953W        W98214   3.433  24.058  13.063
38954W        W98215   0.341   0.475   0.433
38955W        W98216  34.990  13.106  12.084
38956W        W98217  20.647  36.853  11.545
38957W        W98218   5.257   2.347  10.502
38958W        W98219   8.212  19.186   0.823
38959W        W98220  11.362  40.443  11.579
38960W        W98221  29.517   7.190  13.513
38961W        W98222  23.587   3.280  10.551
38962W        W98223  43.424  12.784  13.926
38963W        W98224  44.995  43.282  13.495
38964W        W98225  15.703  10.209   4.836
38965W        W98226   0.391  19.185   1.902
38966W        W98227  27.587  12.136   4.750
38967W        W98228  40.039  27.079  14.373
38968W        W98229   9.161  28.031   4.621
38969W        W98230   1.774  38.008   3.170
38970W        W98231  43.428  27.958   0.962
38971W        W98232  26.689  43.008  10.418
38972W        W98233  29.054  30.607  12.838
38973W        W98234   3.334  21.127   4.281
38974W        W98235  21.618  11.705  11.908
38975W        W98236  15.127  44.806  14.467
38976W        W98237   3.287   6.256  14.828
38977W        W98238  42.926   8.788   1.792
38978W        W98239   2.469  24.102   1.268
38979W        W98240  14.834  43.455   0.745
38980W        W98241   2.766   1.483   3.691
38981W        W98242  12.321  41.794   0.450
38982W        W98243  20.080   1.245   2.331
38983W        W98244  34.917  10.241   0.952
38984W        W98245  37.420  40.887   2.221
38985W        W98246  30.474  21.632  12.391
38986W        W98247   9.666  43.280  11.498
38987W        W98248  43.874  13.667  10.436
38988W        W98249  31.109  12.675  13.825
38989W        W98250  17.164   2.782   4.791
38990W        W98251  39.849  19.560  12.989
38991W        W98252  32.578  42.345  14.386
38992W        W98253   9.343  24.033  13.981
38993W        W98254  24.231  17.163   1.309
38994W        W98255  22.564  33.989  14.982
38995W        W98256  10.160   8.227  11.520
38996W        W98257  13.803   3.855  14.498
38997W        W98258  22.667  31.137  12.470
38998W        W98259  35.526  26.077  12.028
38999W        W98260  30.543   7.344  11.060
39000W        W98261  31.099  20.128   0.385
39001W        W98262   1.307   0.927   0.901
39002W        W98263  19.580  15.184   1.409
39003W        W98264  11.369  37.864   3.165
39004W        W98265  21.741   8.858  14.473
39005W        W98266  43.509  44.848   0.760
39006W        W98267  15.755  29.630  10.023
39007W        W98268  12.672  42.305   1.364
39008W        W98269  10.790  42.326   4.273
39009W        W98270  17.077   0.770  11.070
39010W        W98271  41.297  24.154  10.442
39011W        W98272  42.783  29.471   0.318
39012W        W98273   6.860  29.005   2.812
39013W        W98274   6.208  39.427   2.794
39014W        W98275  31.075   1.922   0.467
39015W        W98276  29.494  35.891   3.171
39016W        W98277  40.529  37.860   2.779
39017W        W98278   9.268  18.625   3.384
39018W        W98279  42.502  34.524   2.370
39019W        W98280   2.848  23.715  12.846
39020W        W98281  37.853  10.873  11.431
39021W        W98282   2.937  19.612  10.937
39022W        W98283  35.367  17.142  11.541
39023W        W98284  35.070  25.527   1.869
39024W        W98285   6.305  16.140  10.890
39025W        W98286  29.509   7.395  11.081
39026W        W98287  26.694   4.768   2.865
39027W        W98288  22.136   6.759   0.434
39028W        W98289  21.582  41.995  12.519
39029W        W98290   4.939  31.533   4.123
39030W        W98291  30.592  10.150   1.847
39031W        W98292  36.971  40.874  14.516
39032W        W98293   7.286   2.292  10.644
39033W        W98294  43.851  37.998  13.437
39034W        W98295   0.873   5.194   0.340
39035W        W98296  21.239  37.529  11.028
39036W        W98297   9.151  37.352  12.371
39037W        W98298   2.942  19.533  13.547
39038W        W98299  12.626   6.882   5.151
39039W        W98300  36.098  25.986   4.645
39040W        W98301   2.841   6.186   4.676
39041W        W98302  11.282   9.873   4.266
39042W        W98303  24.029  40.396   3.359
39043W        W98304  33.593  30.543  12.450
39044W        W98305   6.278   7.827   3.296
39045W        W98306   7.829  15.695  12.070
39046W        W98307  44.763  40.965   1.265
39047W        W98308   9.749  34.494  14.504
39048W        W98309  14.174  44.768  13.396
39049W        W98310  27.511  19.281  10.911
39050W        W98311  36.433  26.479  12.839
39051W        W98312   0.858  15.328  11.417
39052W        W98313   9.817  10.245   5.157
39053W        W98314   2.306  38.489  12.095
39054W        W98315  31.919  40.017   0.836
39055W        W98316  30.462  44.349  10.893
39056W        W98317  10.374  39.336   4.124
39057W        W98318  34.074  14.677  11.543
39058W        W98319   2.369  32.905  14.771
39059W        W98320   7.712  15.161  11.444
39060W        W98321  15.229  24.558   4.194
39061W        W98322  43.778  42.846   1.765
39062W        W98323  26.699  29.122   2.240
39063W        W98324  11.281  13.322  12.423
39064W        W98325  44.859  15.625  14.396
39065W        W98326   5.268  41.805   2.802
39066W        W98327  36.928  32.935  12.836
39067W        W98328   9.217  33.985  12.863
39068W        W98329   8.810   0.782  12.026
39069W        W98330  33.501  35.020  12.341
39070W        W98331  35.917   6.912   2.337
39071W        W98332  33.582  13.833   5.190
39072W        W98333  43.383   5.396   0.857
39073W        W98334   6.294  39.859  13.968
39074W        W98335  28.979  26.702  12.870
39075W        W98336  40.395  34.998   2.177
39076W        W98337   0.494   1.256  10.566
39077W        W98338  15.095  12.150   0.928
39078W        W98339  39.484   6.814   4.136
39079W        W98340  32.455   1.272   0.838
39080W        W98341   0.340  33.882  11.054
39081W        W98342  24.644  29.463   0.913
39082W        W98343  38.484  19.106  10.458
39083W        W98344  41.894  44.357   4.821
39084W        W98345  44.453  38.046   1.809
39085W        W98346  25.109  13.201   2.320
39086W        W98347  17.586  10.671   4.656
39087W        W98348  32.957  36.053   1.870
39088W        W98349  36.402  28.622   0.849
39089W        W98350  41.894  13.349  10.010
39090W        W98351  39.455  23.708   2.819
39091W        W98352  44.305  34.963  12.482
39092W        W98353  33.897  43.945  14.319
39093W        W98354  35.511  18.075  12.482
39094W        W98355   3.284   1.281  13.308
39095W        W98356  35.372  41.485  13.420
39096W        W98357   8.779  36.442  10.907
39097W        W98358  23.707  30.421   1.309
39098W        W98359  13.632   2.271   1.213
39099W        W98360  36.369  34.583  11.454
39100W        W98361  42.961  15.101   3.747
39101W        W98362  14.161  44.504   4.353
39102W        W98363  26.630  37.424  12.973
39103W        W98364  21.529  25.619   9.574
39104W        W98365  40.047  35.459  13.979
39105W        W98366  15.097  44.958   4.775
39106W        W98367  33.998  34.923   4.697
39107W        W98368  43.911  37.882   3.312
39108W        W98369  25.471   0.979   4.211
39109W        W98370  32.457  10.228  13.029
39110W        W98371  22.677   9.884  14.771
39111W        W98372  33.029   0.930  10.570
39112W        W98373  41.345  38.929  13.894
39113W        W98374  40.955   2.355   0.331
39114W        W98375  32.031  14.192   4.598
39115W        W98376  41.439  32.929   0.405
39116W        W98377  23.554  24.640  13.482
39117W        W98378  19.049  22.667   4.789
39118W        W98379  18.653  28.457  12.002
39119W        W98380   1.338  44.461   2.837
39120W        W98381  42.021  34.914   1.217
39121W        W98382  33.969  39.024   0.742
39122W        W98383  25.594  19.714  13.887
39123W        W98384   6.871   3.221   4.748
39124W        W98385  25.000  13.184   1.881
39125W        W98386  22.549  24.230   2.350
39126W        W98387  33.881  23.499  12.410
39127W        W98388  35.543  27.656  11.989
39128W        W98389  40.540  16.296   4.659
39129W        W98390  28.564  11.139  10.561
39130W        W98391  25.028   0.945  11.502
39131W        W98392  39.851  35.870   1.314
39132W        W98393  13.310  21.134  10.894
39133W        W98394  26.983  26.604   2.387
39134W        W98395  42.004   9.837  10.936
39135W        W98396   7.193  23.684   3.316
39136W        W98397  27.127  23.238   0.373
39137W        W98398   6.242  14.723   0.422
39138W        W98399  23.165  28.989   2.679
39139W        W98400  20.123  33.563  11.427
39140W        W98401   1.348  31.152  10.644
39141W        W98402  22.703   4.825   1.417
39142W        W98403  17.633  29.480   0.250
39143W        W98404  13.191   5.199  14.934
39144W        W98405  18.605  14.234   2.895
39145W        W98406   1.811  44.799  14.446
39146W        W98407  38.443   1.735   4.310
39147W        W98408  28.673  29.607   1.709
39148W        W98409  17.299  35.897  14.488
39149W        W98410  12.758  12.703  13.063
39150W        W98411   5.852   4.752  12.442
39151W        W98412  16.659   1.376  14.991
39152W        W98413   3.411   0.804  10.943
39153W        W98414  13.817  28.981  11.563
39154W        W98415  35.495  34.901   4.689
39155W        W98416  40.526  23.567  14.933
39156W        W98417  34.527  20.632  10.450
39157W        W98418   3.454  15.102  12.083
39158W        W98419  33.118  41.794  13.439
39159W        W98420  11.191  38.389  10.985
39160W        W98421  28.065  14.294  10.510
39161W        W98422  29.628  26.544  13.453
39162W        W98423   9.776  43.848  11.932
39163W        W98424  30.465  30.036  13.354
39164W        W98425   0.348  24.153   2.336
39165W        W98426   2.922  17.219  14.917
39166W        W98427  28.996   5.788   1.726
39167W        W98428  16.595  25.975  12.542
39168W        W98429  22.517  41.379   3.263
39169W        W98430  22.634  34.451  11.958
39170W        W98431  29.947  32.016   2.246
39171W        W98432   3.787  35.467  12.879
39172W        W98433   8.738  15.701   3.833
39173W        W98434  34.115  30.595   4.814
39174W        W98435  36.863  16.800   4.638
39175W        W98436   4.848  22.736  13.418
39176W        W98437   9.347  35.480  11.988
39177W        W98438  33.381   1.375   2.771
39178W        W98439  17.118  15.706   4.177
39179W        W98440  18.749  15.211  14.002
39180W        W98441   3.794  33.416  11.583
39181W        W98442   1.435  28.116   3.721
39182W        W98443  39.865   8.161   1.790
39183W        W98444  12.307   4.816   2.285
39184W        W98445  31.140  32.412  10.636
39185W        W98446  37.850  16.167  12.828
39186W        W98447  31.431   3.878  11.982
39187W        W98448   5.405   1.253   2.805
39188W        W98449  20.036  13.167   1.706
39189W        W98450  36.510  44.901   1.706
39190W        W98451   0.840  40.806  11.071
39191W        W98452  41.527   9.234  11.457
39192W        W98453  21.595  33.067  14.833
39193W        W98454  24.107  28.586  14.873
39194W        W98455   6.185  43.907  12.382
39195W        W98456  15.084  24.111  14.848
39196W        W98457  26.460  33.966   2.301
39197W        W98458   3.910  43.981  10.959
39198W        W98459   2.935  42.406  14.470
39199W        W98460   1.833  27.465   0.778
39200W        W98461  33.437   7.279   0.387
39201W        W98462   3.859  42.300  12.479
39202W        W98463  31.493   1.768   0.797
39203W        W98464  37.858   7.889  10.584
39204W        W98465  30.486  20.052  12.444
39205W        W98466   0.809  40.312  11.600
39206W        W98467   5.691  38.957   3.722
39207W        W98468  17.299  44.477   5.316
39208W        W98469  43.365  26.075  14.844
39209W        W98470  37.516  39.453   0.346
39210W        W98471  27.158  13.261  13.947
39211W        W98472  44.399   2.814  14.275
39212W        W98473  33.961   4.330  12.443
39213W        W98474  27.970   9.752   5.191
39214W        W98475  29.968  39.488   2.730
39215W        W98476  37.838  18.746   3.169
39216W        W98477  42.964   6.205  14.879
39217W        W98478  20.638   7.298   2.900
39218W        W98479  37.411  20.551  11.507
39219W        W98480   6.838  35.593   4.121
39220W        W98481  14.327   2.776   5.284
39221W        W98482  32.457   6.263  13.874
39222W        W98483  31.538  41.398   4.296
39223W        W98484  17.097  23.612  13.463
39224W        W98485  27.056  13.162   1.830
39225W        W98486   1.954  34.528   0.418
39226W        W98487   2.408  36.014   9.994
39227W        W98488  35.004  24.073   1.402
39228W        W98489  16.129  18.139   1.710
39229W        W98490  16.293  29.641   2.710
39230W        W98491  31.937  43.304   1.820
39231W        W98492  22.627  31.527  13.923
39232W        W98493   4.414  42.971   5.306
39233W        W98494  27.015  24.490   5.115
39234W        W98495  41.439   2.759   2.882
39235W        W98496  42.816  37.885   4.608
39236W        W98497  15.205   4.868  11.069
39237W        W98498  34.472  22.727   3.736
39238W        W98499  36.365  28.534  11.076
39239W        W98500   8.354  36.024  12.547
39240W        W98501  32.947  15.149  11.500
39241W        W98502   3.718  18.151  12.829
39242W        W98503  13.703  16.666   3.715
39243W        W98504  20.720  42.427   1.719
39244W        W98505  36.509  11.690  10.551
39245W        W98506  18.230  24.499   3.653
39246W        W98507  32.043  42.392   1.401
39247W        W98508  35.060  32.935   2.810
39248W        W98509  22.538   5.421  11.574
39249W        W98510  43.846  37.485  14.482
39250W        W98511   4.791  34.096   0.428
39251W        W98512   2.436  16.776   0.408
39252W        W98513  24.078  16.267   2.415
39253W        W98514   0.300  14.599   3.354
39254W        W98515  27.609  38.011   0.451
39255W        W98516  39.872  29.991   3.268
39256W        W98517   5.810  26.648   2.829
39257W        W98518  14.718  18.174  10.601
39258W        W98519   3.325   9.369  13.373
39259W        W98520  30.641  20.715  11.058
39260W        W98521  21.631  25.038  14.891
39261W        W98522   1.857  11.864  13.339
39262W        W98523  40.848  19.588  13.500
39263W        W98524  16.578  10.835   3.237
39264W        W98525  11.774   4.421   1.237
39265W        W98526   7.364  24.661  12.935
39266W        W98527  28.613  25.688  12.489
39267W        W98528   6.353  23.154  13.368
39268W        W98529  44.282   9.395  13.940
39269W        W98530  28.628   8.252   0.420
39270W        W98531  19.075  16.263  13.464
39271W        W98532  21.529   9.829  12.044
39272W        W98533  41.371   1.823   0.820
39273W        W98534  32.097   2.777  14.801
39274W        W98535   9.235  20.746   3.852
39275W        W98536  44.999  43.897  11.976
39276W        W98537  10.271  35.042  10.996
39277W        W98538  21.018  30.010  12.870
39278W        W98539  40.492  26.484  10.914
39279W        W98540  27.463   9.883  11.500
39280W        W98541  18.205  32.121  12.094
39281W        W98542  21.199  15.674  13.372
39282W        W98543  14.178  21.254  12.063
39283W        W98544  15.744  24.013   5.164
39284W        W98545   9.647  10.223   4.151
39285W        W98546  31.123  11.815   3.375
39286W        W98547  12.358  24.516  11.571
39287W        W98548  20.536   3.310   1.808
39288W        W98549  32.581  44.322  14.448
39289W        W98550  34.429  43.962   2.802
39290W        W98551  38.893  40.909   1.228
39291W        W98552   7.745  25.523  13.546
39292W        W98553  21.588  34.085  12.824
39293W        W98554  18.630  13.770   4.246
39294W        W98555   4.396  23.708   4.709
39295W        W98556  29.578  37.875   3.218
39296W        W98557  41.321   5.855   1.871
39297W        W98558   7.682  12.119   3.711
39298W        W98559   1.270  15.784  13.804
39299W        W98560  17.184  17.602  11.583
39300W        W98561  41.893  10.783  14.387
39301W        W98562  41.852  24.214   1.396
39302W        W98563  18.274  43.285   1.384
39303W        W98564  31.973  29.012   4.598
39304W        W98565  38.835  28.589   2.238
39305W        W98566  40.003  10.783  11.902
39306W        W98567  19.248   7.244  13.334
39307W        W98568  25.568  26.049   2.704
39308W        W98569   8.847  38.533   1.406
39309W        W98570  36.062  28.132  13.366
39310W        W98571   6.775   7.773  11.986
39311W        W98572   7.248  21.079   0.332
39312W        W98573  30.636  30.499  14.483
39313W        W98574  39.442  34.386   1.245
39314W        W98575   0.479  11.134   1.732
39315W        W98576  22.585  31.597   3.299
39316W        W98577  23.696  11.352   2.711
39317W        W98578  40.316  16.083   1.210
39318W        W98579  13.333  41.379  14.863
39319W        W98580  31.584  16.289   0.277
39320W        W98581   4.923  31.114  14.861
39321W        W98582  16.761  39.473  14.444
39322W        W98583  17.739  28.156   2.197
39323W        W98584  40.311  20.688   2.895
39324W        W98585   5.295  18.613  10.979
39325W        W98586  13.161  14.186   9.657
39326W        W98587   2.865   0.961   1.736
39327W        W98588  12.784  30.128   4.655
39328W        W98589  28.100   1.836  10.104
39329W        W98590  11.334  43.823   1.275
39330W        W98591  14.671   4.337  10.627
39331W        W98592   9.382   7.795  14.481
39332W        W98593  43.003  43.820  13.402
39333W        W98594  33.945  29.500   3.200
39334W        W98595  31.081  13.348   3.654
39335W        W98596  20.064  20.081   3.305
39336W        W98597  21.163   8.880  11.510
39337W        W98598   7.767  11.225  12.996
39338W        W98599  44.496  28.532   1.695
39339W        W98600  39.809  21.678  10.941
39340W        W98601  23.678  42.410  11.074
39341W        W98602  42.021  30.083  11.081
39342W        W98603   4.830  30.468  11.570
39343W        W98604  36.539  32.088  10.092
39344W        W98605   9.743  31.497  14.513
39345W        W98606  37.862  14.194   4.258
39346W        W98607  17.611  23.638   1.323
39347W        W98608  41.856  24.493   0.773
39348W        W98609  36.843  30.561  13.064
39349W        W98610   1.786  20.260   3.826
39350W        W98611  16.576  36.082   2.717
39351W        W98612  10.274   6.332   5.189
39352W        W98613  18.547  21.554  12.361
39353W        W98614  26.644  15.132  14.786
39354W        W98615  34.915   6.224   4.696
39355W        W98616  44.373  31.621   3.811
39356W        W98617   5.720   5.790   0.404
39357W        W98618  30.632  27.184   1.772
39358W        W98619  18.115  11.813  11.565
39359W        W98620  12.305  32.978   0.817
39360W        W98621  17.648  26.561   4.118
39361W        W98622  25.692  32.010   4.832
39362W        W98623   8.237  11.719  10.580
39363W        W98624  30.435   5.289  14.301
39364W        W98625  12.175  40.307  11.922
39365W        W98626   0.468  23.235  12.504
39366W        W98627  23.218  10.249   2.720
39367W        W98628  40.421  19.159  12.524
39368W        W98629  16.567  15.241  13.851
39369W        W98630  41.796  34.020   9.947
39370W        W98631  42.783  10.743   1.848
39371W        W98632   4.792  31.439  12.881
39372W        W98633   4.702  13.217   0.804
39373W        W98634  26.068  29.462  12.877
39374W        W98635  19.564  40.987   0.959
39375W        W98636  40.900  39.403   1.797
39376W        W98637  15.602  11.624   2.300
39377W        W98638   9.258   9.245  12.466
39378W        W98639  13.817  19.656   2.781
39379W        W98640   2.271   9.688  14.403
39380W        W98641  43.289   9.290   4.241
39381W        W98642  13.108  40.874   3.729
39382W        W98643  23.229  28.513  14.296
39383W        W98644  43.361  20.608   1.340
39384W        W98645  41.924  32.115   0.905
39385W        W98646  37.022  23.491   0.305
39386W        W98647   9.723  25.032  10.557
39387W        W98648  40.850   0.754  11.427
39388W        W98649  17.120  14.112   0.861
39389W        W98650  41.829  44.926   0.269
39390W        W98651  25.663  35.501   4.800
39391W        W98652  29.984  32.532  11.997
39392W        W98653  32.514  12.232   4.834
39393W        W98654   0.367  21.144  11.391
39394W        W98655  12.764  30.427   3.801
39395W        W98656  38.063  42.853   4.707
39396W        W98657   8.719   6.345   3.791
39397W        W98658  26.094  31.426   0.829
39398W        W98659  16.096   7.776  14.410
39399W        W98660  35.905  13.679  13.323
39400W        W98661   1.961  38.465   0.404
39401W        W98662  39.438  13.600  11.886
39402W        W98663  34.052   1.822  14.343
39403W        W98664   7.256  33.616  14.859
39404W        W98665   4.351  22.014   4.278
39405W        W98666   1.780  31.407  14.802
39406W        W98667  30.075  25.542  14.822
39407W        W98668   5.897  27.455   3.376
39408W        W98669  37.968   0.905  10.912
39409W        W98670  42.967   9.804  11.925
39410W        W98671   9.338   7.195  12.914
39411W        W98672  31.519   0.939   0.934
39412W        W98673  29.062  39.473  12.008
39413W        W98674  33.530   7.293  14.015
39414W        W98675  14.686  19.196  13.961
39415W        W98676  27.086   2.884   3.814
39416W        W98677  15.615  42.867  14.437
39417W        W98678  27.047  35.048   4.304
39418W        W98679  21.205  28.504   4.196
39419W        W98680  16.252  10.810  11.573
39420W        W98681   2.418   3.269   4.793
39421W        W98682  36.584  41.881  12.036
39422W        W98683  28.449  41.948   0.368
39423W        W98684  15.286  32.060  11.915
39424W        W98685  13.759  38.458   4.157
39425W        W98686  16.624  20.671   0.960
39426W        W98687  43.839  27.572  12.485
39427W        W98688  29.076   4.408   1.713
39428W        W98689  27.966  28.029   2.340
39429W        W98690  31.579  42.337   4.705
39430W        W98691  33.094  43.926   2.748
39431W        W98692  39.473   6.843   1.350
39432W        W98693   8.250   4.879   3.217
39433W        W98694   2.875  34.004   3.227
39434W        W98695  25.009  17.074   0.249
39435W        W98696  44.273  25.049   0.349
39436W        W98697   8.168   7.266   1.784
39437W        W98698  24.140   0.300   1.835
39438W        W98699  43.883  40.826  12.851
39439W        W98700  31.431  38.405   2.793
39440W        W98701  24.717  22.111   1.822
39441W        W98702  19.212  22.065   2.304
39442W        W98703  42.469  10.175   3.856
39443W        W98704  14.732  10.710  10.508
39444W        W98705  34.404  43.428  14.791
39445W        W98706   8.315  29.556  13.500
39446W        W98707  26.558  37.478  11.974
39447W        W98708  11.275  10.286  13.435
39448W        W98709  39.991  11.640   3.266
39449W        W98710  27.100  25.534   0.483
39450W        W98711  44.441  18.584  10.630
39451W        W98712  14.258  44.829  11.894
39452W        W98713  18.708  39.844  12.984
39453W        W98714   4.305   8.726   2.412
39454W        W98715  30.016   7.852  13.876
39455W        W98716  24.535  12.671   2.179
39456W        W98717   9.805  21.758   1.814
39457W        W98718   6.782   9.849  12.825
39458W        W98719  39.430  37.926   1.695
39459W        W98720  41.399  14.297  14.919
39460W        W98721  44.776  13.782   3.767
39461W        W98722   4.247  41.431  14.384
39462W        W98723  14.609   8.669  11.113
39463W        W98724  36.378  10.638   4.206
39464W        W98725  39.351  41.982   2.804
39465W        W98726  11.179  36.861  10.431
39466W        W98727  42.025  43.499  13.006
39467W        W98728  27.525   0.271   2.782
39468W        W98729  28.529   3.908  13.877
39469W        W98730  34.896  14.661   0.946
39470W        W98731  36.452  19.053   4.690
39471W        W98732  43.933  30.936   0.275
39472W        W98733  34.053   0.796  14.480
39473W        W98734   0.461  40.938  12.877
39474W        W98735  34.081  23.714   2.307
39475W        W98736  39.369   6.895  14.900
39476W        W98737  41.911   0.397  13.024
39477W        W98738  13.306  13.185  11.984
39478W        W98739  20.767  40.038  12.897
39479W        W98740  13.793  22.070   2.327
39480W        W98741  10.661   0.946  14.011
39481W        W98742   3.302  20.756   4.340
39482W        W98743  14.592  10.684  13.062
39483W        W98744  10.300  33.017   0.398
39484W        W98745  38.418  42.298  11.030
39485W        W98746   5.369  19.208   1.297
39486W        W98747  12.796  32.528   0.778
39487W        W98748   7.191  30.569   4.686
39488W        W98749   3.392  31.463   1.806
39489W        W98750  36.929  13.245   4.699
39490W        W98751  21.636   5.236  13.480
39491W        W98752  35.913  41.466   0.397
39492W        W98753  33.577  22.246  14.759
39493W        W98754  38.505  24.095  14.020
39494W        W98755  21.682  39.424  11.458
39495W        W98756  39.872  28.446   2.664
39496W        W98757  32.972  38.067  13.528
39497W        W98758  19.280  34.893   3.385
39498W        W98759  28.498   0.465  14.876
39499W        W98760   2.359  14.653   4.812
39500W        W98761  27.538  17.188  13.858
39501W        W98762  34.952  37.494  11.903
39502W        W98763   5.415  39.538   2.361
39503W        W98764  20.702  35.454  11.874
39504W        W98765  34.076  35.383   3.764
39505W        W98766  30.538  34.057  12.435
39506W        W98767  23.997  16.170  10.953
39507W        W98768  36.583  30.980  11.092
39508W        W98769  36.064  21.601   0.818
39509W        W98770  34.547  12.775   3.713
39510W        W98771  22.531  25.602  14.771
39511W        W98772  36.485  30.973  12.510
39512W        W98773   6.364  21.587   3.336
39513W        W98774  16.737  27.501   3.734
39514W        W98775  44.473   8.240  11.394
39515W        W98776  14.185  17.194   2.321
39516W        W98777  29.094  23.989  12.873
39517W        W98778  17.067   1.910  14.888
39518W        W98779  23.521  22.639   4.300
39519W        W98780  33.511   7.771   2.321
39520W        W98781   9.155  13.198  14.295
39521W        W98782  38.854   0.964  14.388
39522W        W98783  10.326   5.823  11.912
39523W        W98784  25.127  16.750   4.159
39524W        W98785  44.287  21.019  14.300
39525W        W98786   7.685  14.327  12.096
39526W        W98787   4.879  15.718   1.279
39527W        W98788   4.836   4.337  14.871
39528W        W98789   6.910  12.732  13.338
39529W        W98790  37.394  26.607  10.499
39530W        W98791  17.619  13.631   4.636
39531W        W98792   0.779  32.581   0.746
39532W        W98793  34.926  39.019   2.279
39533W        W98794  15.092  16.133  11.408
39534W        W98795   4.709  24.624  10.568
39535W        W98796   2.249  26.563   2.716
39536W        W98797  30.051   0.820  10.968
39537W        W98798  24.031   8.841   1.821
39538W        W98799  29.500  18.590  10.928
39539W        W98800  13.684  21.068   2.283
39540W        W98801  11.709  19.221  14.021
39541W        W98802  40.044   7.233  13.346
39542W        W98803  23.005   2.393   2.379
39543W        W98804  22.532  10.278   2.404
39544W        W98805  32.503  12.298   2.678
39545W        W98806   7.866  36.565  10.417
39546W        W98807   8.762  25.564   5.267
39547W        W98808  28.154   7.779   4.817
39548W        W98809   2.804  23.094  12.542
39549W        W98810  17.647  28.151   1.397
39550W        W98811  42.905  17.744   0.467
39551W        W98812  38.435  35.091   3.303
39552W        W98813   4.719  31.020  11.510
39553W        W98814  39.861  21.101   2.317
39554W        W98815   7.714  40.874   0.867
39555W        W98816   5.397  10.725   3.679
39556W        W98817  14.130  33.072   1.726
39557W        W98818   2.408  19.556   4.288
39558W        W98819  38.379  18.264   4.835
39559W        W98820  35.541  32.093   3.639
39560W        W98821  24.006  22.131  10.469
39561W        W98822  33.424  11.821   2.862
39562W        W98823  33.944   5.928   0.818
39563W        W98824  22.100  10.876  11.028
39564W        W98825  32.143   2.802   3.233
39565W        W98826  20.117  27.478   9.459
39566W        W98827  15.743   1.949  11.567
39567W        W98828   7.747   1.803   0.938
39568W        W98829   4.325  16.172  12.956
39569W        W98830  41.997   8.750   2.324
39570W        W98831  26.184  14.103   4.287
39571W        W98832  35.909  10.205   1.255
39572W        W98833  21.553  13.150   1.815
39573W        W98834  38.426  21.067   4.765
39574W        W98835  35.427  15.578  11.033
39575W        W98836  13.153  22.067   1.359
39576W        W98837   4.395  17.208  12.529
39577W        W98838   3.888  26.040  13.797
39578W        W98839   7.892  10.148   1.916
39579W        W98840  39.892  32.889  11.971
39580W        W98841   4.342  12.133   2.300
39581W        W98842  20.696  10.681  11.589
39582W        W98843   4.699  37.357   0.738
39583W        W98844  25.087  34.604   1.869
39584W        W98845   4.823  33.436  13.353
39585W        W98846   2.336  18.168   1.425
39586W        W98847  34.396  33.467  12.353
39587W        W98848  12.282  22.668   0.864
39588W        W98849  37.958  31.052   4.204
39589W        W98850  25.000   8.672  11.977
39590W        W98851  30.004  37.346   1.230
39591W        W98852  26.094  18.545   3.630
39592W        W98853  13.718  20.586  13.821
39593W        W98854  20.028   7.304  12.010
39594W        W98855  11.785  30.990  14.450
39595W        W98856   1.459  19.116  14.485
39596W        W98857   8.167  36.922   3.207
39597W        W98858  35.511  29.543   0.869
39598W        W98859  35.372  31.538  14.855
39599W        W98860  15.247  44.266   4.182
39600W        W98861  24.606  27.465  14.973
39601W        W98862  15.088  33.878   1.327
39602W        W98863  39.492  29.565   4.740
39603W        W98864  36.423  23.018   4.167
39604W        W98865  13.347  36.456   2.866
39605W        W98866  36.482  25.615   4.209
39606W        W98867  27.064  36.978   3.358
39607W        W98868   8.840   8.393   4.733
39608W        W98869  42.426   6.692  11.872
39609W        W98870  28.938   4.736   4.137
39610W        W98871   7.370   0.320   0.879
39611W        W98872  43.403  32.912   3.179
39612W        W98873  36.421  32.594  12.439
39613W        W98874   8.696  26.124   1.809
39614W        W98875  22.697  34.476  13.467
39615W        W98876  33.132  40.448   2.759
39616W        W98877   3.418  38.551  10.530
39617W        W98878  25.167  30.569   0.743
39618W        W98879  34.502  35.057  11.471
39619W        W98880   8.227  38.373   2.703
39620W        W98881  19.103  27.533  11.989
39621W        W98882  36.433  23.568   5.316
39622W        W98883  18.656  41.926  14.307
39623W        W98884  29.934   5.421   3.307
39624W        W98885   3.399   6.199  12.385
39625W        W98886  26.636  34.982   3.366
39626W        W98887  14.120  14.140   0.277
39627W        W98888  17.163   5.881   1.902
39628W        W98889   8.668  16.233  10.038
39629W        W98890  10.378  14.610  11.055
39630W        W98891  14.147  30.480  10.987
39631W        W98892  30.622  12.652   5.164
39632W        W98893  26.097  41.831   2.715
39633W        W98894  25.137  28.586  13.485
39634W        W98895  40.813   7.372   1.774
39635W        W98896  25.009  30.163  13.988
39636W        W98897  34.536  43.855  10.520
39637W        W98898  24.176  16.153   3.364
39638W        W98899   6.235  36.997  14.785
39639W        W98900  27.966  24.973  12.008
39640W        W98901  13.715  37.481  12.377
39641W        W98902  32.426   4.317   1.716
39642W        W98903   8.306   8.722   1.231
39643W        W98904   6.863   2.233  10.502
39644W        W98905  35.573   1.824  12.942
39645W        W98906  11.217  20.094  12.550
39646W        W98907  27.629  17.123  13.011
39647W        W98908  19.081  16.311   3.798
39648W        W98909  24.486  10.222  11.601
39649W        W98910  15.742  41.510  11.579
39650W        W98911  26.650  34.029  14.924
39651W        W98912  43.443  32.516  10.933
39652W        W98913  43.449  14.811  10.595
39653W        W98914  27.497   8.237   4.603
39654W        W98915   8.713  11.807   1.832
39655W        W98916  10.281  31.621   4.245
39656W        W98917  29.481  18.636  14.453
39657W        W98918   4.889  29.098   2.204
39658W        W98919   0.470   2.928   4.120
39659W        W98920  19.246   7.673   3.304
39660W        W98921   2.308  41.364  12.349
39661W        W98922  35.417  14.250  10.589
39662W        W98923   8.177   8.353   2.811
39663W        W98924  42.292  15.761  13.429
39664W        W98925   3.814   6.877  10.900
39665W        W98926   3.380   9.202   3.829
39666W        W98927  27.131   4.828   0.806
39667W        W98928  42.885  44.442  12.354
39668W        W98929  36.027  25.210  12.472
39669W        W98930  11.236   8.384   2.691
39670W        W98931  40.047  13.106   4.598
39671W        W98932  43.454  39.868  12.507
39672W        W98933   4.406  44.951   3.650
39673W        W98934  12.718  35.416  11.509
39674W        W98935  44.289   1.800  14.772
39675W        W98936  17.211  38.913  13.994
39676W        W98937  21.095  33.035  12.021
39677W        W98938  22.211  29.510  14.918
39678W        W98939  31.076   4.271  14.883
39679W        W98940  20.650  15.255   0.298
39680W        W98941  27.549  23.175   4.670
39681W        W98942  28.617  29.943   1.248
39682W        W98943  27.941   8.703  11.495
39683W        W98944  40.959  24.676  12.438
39684W        W98945  14.777   5.205   3.339
39685W        W98946  22.137  12.219   3.255
39686W        W98947  39.964   7.896   0.816
39687W        W98948   9.276  28.073  13.899
39688W        W98949  23.514  20.528   3.840
39689W        W98950  15.698  15.669   1.925
39690W        W98951   9.291  30.127  14.310
39691W        W98952  26.665  32.587  11.463
39692W        W98953  30.048  27.089   4.330
39693W        W98954   6.375  41.910   2.375
39694W        W98955  29.502  23.567  10.446
39695W        W98956   5.824   0.742   1.228
39696W        W98957  22.603  39.543  11.418
39697W        W98958  22.238  21.647  10.039
39698W        W98959  41.365  19.114   2.270
39699W        W98960  25.661  13.715  10.637
39700W        W98961  35.869  30.127  13.818
39701W        W98962  43.456  22.042   2.786
39702W        W98963  31.587   7.856  11.129
39703W        W98964   9.270  42.488  11.378
39704W        W98965  26.694  13.156  13.852
39705W        W98966   3.233  31.580   0.329
39706W        W98967  26.161   3.366  13.329
39707W        W98968  24.016  43.483   3.685
39708W        W98969  39.353   3.904  14.504
39709W        W98970  12.153  14.748  12.405
39710W        W98971  25.034   8.724  12.479
39711W        W98972   7.889   0.449   2.212
39712W        W98973  21.211  23.204  12.861
39713W        W98974   4.759  16.727   1.380
39714W        W98975  35.586  39.558  14.436
39715W        W98976  11.701  22.215  11.004
39716W        W98977  26.142  12.703   3.686
39717W        W98978  17.800  14.208  14.278
39718W        W98979   6.829  34.479  12.925
39719W        W98980   8.897  19.263   1.423
39720W        W98981  20.083   0.273   2.820
39721W        W98982   4.208  34.940  12.939
39722W        W98983  42.301  13.217  12.005
39723W        W98984  31.946  25.064   2.709
39724W        W98985  44.303  12.221  10.589
39725W        W98986  26.138   7.871   0.399
39726W        W98987  14.192  13.125   0.818
39727W        W98988  24.668   3.891  11.466
39728W        W98989   6.726  10.650   3.718
39729W        W98990   5.761  10.842   9.976
39730W        W98991  43.962  11.267  10.459
39731W        W98992  36.992  42.372   0.937
39732W        W98993  26.090  35.450  11.907
39733W        W98994  41.024  33.970  12.421
39734W        W98995  38.944  35.578   1.345
39735W        W98996   4.332  33.893  13.948
39736W        W98997  14.608   1.463   3.194
39737W        W98998  25.013   9.182   3.289
39738W        W98999   4.414  19.076  11.492
39739W        W99000  38.385  27.075  13.059
39740W        W99001   9.317  15.326   3.798
39741W        W99002  14.621  35.900  13.397
39742W        W99003  29.657  44.372   1.398
39743W        W99004  13.672   6.678  13.341
39744W        W99005  43.475  14.795   0.749
39745W        W99006  29.608   2.327   1.819
39746W        W99007  28.478  10.678   0.394
39747W        W99008  28.441  40.367   1.361
39748W        W99009   0.365  43.330   2.371
39749W        W99010  15.324  21.252   3.698
39750W        W99011  15.795  10.639   2.329
39751W        W99012  14.791  24.059  12.573
39752W        W99013   6.696  26.048   3.670
39753W        W99014  15.261  21.239   4.701
39754W        W99015   9.720  27.003  11.961
39755W        W99016  11.344  38.066  14.768
39756W        W99017  23.082  36.506   1.311
39757W        W99018  17.725  35.036  13.871
39758W        W99019  32.035  26.591  11.114
39759W        W99020  12.313  11.783   0.294
39760W        W99021  15.661  12.789   3.355
39761W        W99022  40.981  18.241   1.776
39762W        W99023  19.614  22.730   1.438
39763W        W99024  40.809  37.576  13.004
39764W        W99025  28.183   7.258  14.948
39765W        W99026  10.868  24.216   2.186
39766W        W99027  38.959  31.898  12.531
39767W        W99028  23.573  26.477   0.960
39768W        W99029  41.940  23.058   4.342
39769W        W99030  30.538   2.229  10.577
39770W        W99031  44.953  25.217   0.449
39771W        W99032  29.580  13.172  10.436
39772W        W99033  29.600  27.692  10.414
39773W        W99034  27.488  28.527  13.325
39774W        W99035  26.181  36.413   2.722
39775W        W99036   1.925   0.950  14.385
39776W        W99037  38.998  37.053   2.200
39777W        W99038  37.547  12.671   0.410
39778W        W99039   2.934  44.374  14.364
39779W        W99040  24.604  36.379  13.942
39780W        W99041  13.109   2.284   3.178
39781W        W99042  17.736  30.638   0.817
39782W        W99043  32.902  34.543  11.483
39783W        W99044  34.869  43.893   3.187
39784W        W99045  19.733  36.025  13.359
39785W        W99046  16.607  20.604  13.373
39786W        W99047  24.041  29.066   2.706
39787W        W99048  19.081  13.771  11.125
39788W        W99049   4.424   2.400   0.316
39789W        W99050  32.133  21.667  14.926
39790W        W99051   4.287  42.779  12.058
39791W        W99052  39.017  31.914  13.796
39792W        W99053  25.624  44.297   1.868
39793W        W99054  18.130   3.832   3.213
39794W        W99055  22.199  17.764  14.483
39795W        W99056  23.607  27.952   3.661
39796W        W99057  42.291  19.249   4.764
39797W        W99058  14.147   2.867   0.789
39798W        W99059   3.797  40.487  14.479
39799W        W99060  21.113  20.751   9.989
39800W        W99061   1.393  32.924  13.447
39801W        W99062  39.507  37.893   1.417
39802W        W99063  31.468  33.528   2.313
39803W        W99064   6.328  32.616  13.891
39804W        W99065  27.083  27.547  12.401
39805W        W99066   7.675  36.007   1.843
39806W        W99067  37.426  13.320  12.019
39807W        W99068  18.742  29.436   5.174
39808W        W99069  39.370  27.542  14.885
39809W        W99070  24.647  20.533  12.341
39810W        W99071  13.635  21.596   0.246
39811W        W99072  38.437  13.812   0.467
39812W        W99073  38.052  28.580  11.977
39813W        W99074   5.273  33.450  13.494
39814W        W99075   5.917  30.614   1.750
39815W        W99076   4.786  16.246  10.994
39816W        W99077  24.569  42.905   4.341
39817W        W99078  28.047  29.574  11.938
39818W        W99079  43.406  36.347  11.498
39819W        W99080  42.395   9.747  14.378
39820W        W99081  34.520  39.817   2.389
39821W        W99082  38.414  19.066  13.525
39822W        W99083   0.911  33.557   1.432
39823W        W99084  40.896   6.361  11.599
39824W        W99085  34.922  40.819  14.458
39825W        W99086  25.163  25.471   1.871
39826W        W99087  17.705  31.106  13.854
39827W        W99088  43.432   1.771   0.845
39828W        W99089  35.897   0.959   3.711
39829W        W99090   7.372  17.736  12.523
39830W        W99091  44.266  17.600  11.518
39831W        W99092  23.539  22.638   2.380
39832W        W99093  10.821  17.648   4.728
39833W        W99094   3.249  14.246  14.442
39834W        W99095  34.916  31.443  14.933
39835W        W99096  12.790  12.144  12.096
39836W        W99097  19.128  36.529   1.809
39837W        W99098  31.437   2.794  14.796
39838W        W99099  40.854  30.082   4.627
39839W        W99100  16.734  10.245  10.461
39840W        W99101  35.580   6.300  14.471
39841W        W99102  39.861  43.771   1.833
39842W        W99103  41.518  16.317   4.162
39843W        W99104  18.277  26.673   2.847
39844W        W99105  30.155  34.063   2.889
39845W        W99106  21.075  37.990   3.719
39846W        W99107   4.902  25.048   3.332
39847W        W99108  27.037  42.384   3.216
39848W        W99109  20.100  28.092   3.820
39849W        W99110  36.052  24.222  11.064
39850W        W99111  24.574  29.151  13.500
39851W        W99112  21.576  14.304  11.603
39852W        W99113  26.142   5.262   1.719
39853W        W99114  12.760  33.557   2.886
39854W        W99115  39.453  21.566  14.015
39855W        W99116  36.496   7.774   2.695
39856W        W99117  11.292  39.824  12.096
39857W        W99118  18.575  40.843  14.377
39858W        W99119  16.623  25.151  14.945
39859W        W99120  36.523   9.855  12.509
39860W        W99121  19.130  33.396   0.919
39861W        W99122  37.394  12.196  12.823
39862W        W99123  18.178  15.726  10.905
39863W        W99124   7.741   6.883  10.451
39864W        W99125  23.226   4.769   9.946
39865W        W99126  29.620  29.979  12.976
39866W        W99127  19.236  18.694  13.442
39867W        W99128   0.923  21.123   0.778
39868W        W99129  31.050  14.807  14.966
39869W        W99130  35.073   6.428  10.081
39870W        W99131  13.756  42.820  13.953
39871W        W99132  16.238   3.409   4.673
39872W        W99133  11.231  18.255   4.738
39873W        W99134  23.645  31.094   4.302
39874W        W99135  31.896  14.770  10.136
39875W        W99136  21.519  30.537  12.990
39876W        W99137  42.877  23.022   4.275
39877W        W99138  10.695  19.767   1.365
39878W        W99139  26.533  42.806  14.761
39879W        W99140   7.909  13.286  13.049
39880W        W99141  19.558  36.941  11.889
39881W        W99142   8.232  35.881   2.773
39882W        W99143  28.948  16.670  13.916
39883W        W99144  43.774  42.878  11.056
39884W        W99145  10.293   5.901  13.960
39885W        W99146  28.933  38.930   1.843
39886W        W99147   4.423  28.110  13.335
39887W        W99148   2.895  15.296  14.879
39888W        W99149  18.179  21.553  11.121
39889W        W99150  39.453  11.644   0.419
39890W        W99151   8.343  32.955   1.217
39891W        W99152   9.315  41.997  12.443
39892W        W99153  43.458  41.982  14.503
39893W        W99154   0.271  43.271   3.162
39894W        W99155  25.509  42.922   3.343
39895W        W99156  33.087   1.899  11.398
39896W        W99157  19.742  39.007   3.780
39897W        W99158  18.136  21.680   2.195
39898W        W99159  11.371  30.491  12.435
39899W        W99160  19.237   2.733   4.187
39900W        W99161   8.775  11.675  11.990
39901W        W99162  42.930  26.117  12.878
39902W        W99163  35.550   1.740   4.703
39903W        W99164  27.642  27.195   1.315
39904W        W99165  16.266  44.442   1.782
39905W        W99166  13.328   1.238  13.816
39906W        W99167   2.762  10.311   3.704
39907W        W99168  42.373  21.527   1.723
39908W        W99169  28.647  36.447  10.974
39909W        W99170   3.253  29.104   2.885
39910W        W99171  10.644  10.155   0.282
39911W        W99172  23.101   7.697  13.983
39912W        W99173  40.866   4.728   1.333
39913W        W99174  43.407  31.593  12.945
39914W        W99175  43.869  27.092  14.297
39915W        W99176  32.538  16.193  12.942
39916W        W99177  19.720   7.367  11.046
39917W        W99178  41.384  17.096  10.458
39918W        W99179  12.695  10.840   3.865
39919W        W99180   7.210   9.347   4.759
39920W        W99181  27.682  38.559   0.967
39921W        W99182  15.583  18.283   3.801
39922W        W99183  22.730   3.381  11.581
39923W        W99184  43.868  29.619  12.471
39924W        W99185  31.153  29.958   1.764
39925W        W99186  27.193   2.898  11.970
39926W        W99187  20.749   2.233   3.190
39927W        W99188  10.824  26.460  11.063
39928W        W99189  33.582  18.695  13.378
39929W        W99190  41.929  20.581  13.939
39930W        W99191  11.770  34.069  13.049
39931W        W99192   5.698  10.294  12.344
39932W        W99193  12.254  32.032   3.328
39933W        W99194  17.578  12.646  13.328
39934W        W99195  10.640  35.924  14.007
39935W        W99196  40.996  30.939  10.439
39936W        W99197  43.333  33.919  13.874
39937W        W99198   1.443  31.580   3.682
39938W        W99199  32.962  40.414   1.242
39939W        W99200   0.471   5.901   1.250
39940W        W99201  15.269   3.951  12.349
39941W        W99202   0.933  26.152  12.912
39942W        W99203  24.566  21.084  12.035
39943W        W99204  29.052  25.125   4.223
39944W        W99205  38.023  39.502   1.935
39945W        W99206   0.425  29.453   2.212
39946W        W99207  10.149  43.398  13.447
39947W        W99208  14.606  16.205  14.840
39948W        W99209  19.085   6.844   2.267
39949W        W99210  13.711  41.350   2.323
39950W        W99211  21.541  24.688   2.719
39951W        W99212  34.006  31.148  12.063
39952W        W99213  15.748  41.470   1.912
39953W        W99214  14.309  14.318  13.997
39954W        W99215   4.229  18.656   2.727
39955W        W99216   9.185   6.406   1.794
39956W        W99217   8.658  16.587  10.505
39957W        W99218  30.609  40.311   4.762
39958W        W99219  41.457  31.077   3.630
39959W        W99220  13.295  21.175   2.221
39960W        W99221   1.859  44.831   2.347
39961W        W99222   5.863   2.444   1.776
39962W        W99223   4.862  20.628  10.523
39963W        W99224  27.091  44.938   1.738
39964W        W99225  43.796  29.944  12.086
39965W        W99226  38.390  19.284   4.311
39966W        W99227  27.645  44.785  11.122
39967W        W99228  14.749  37.523  11.925
39968W        W99229  43.801  15.639   0.932
39969W        W99230  32.967   4.901  10.060
39970W        W99231   8.813  20.222  10.945
39971W        W99232  11.787  37.450   4.805
39972W        W99233   6.306  14.783   1.418
39973W        W99234  15.329  15.583  13.341
39974W        W99235  13.653  43.966  10.484
39975W        W99236   4.877  13.797   4.721
39976W        W99237  11.315  39.321   4.250
39977W        W99238  41.818  40.837  11.378
39978W        W99239  11.349  38.559   4.829
39979W        W99240  22.180  41.509   0.282
39980W        W99241  12.131  38.063   2.837
39981W        W99242  13.107  33.528  10.966
39982W        W99243  37.543  21.739   1.914
39983W        W99244  37.518  34.428  14.408
39984W        W99245  41.932  29.113   3.174
39985W        W99246  39.961  27.941  14.358
39986W        W99247  40.427  17.114   4.697
39987W        W99248  18.098   4.328   0.732
39988W        W99249  15.795  12.123  12.379
39989W        W99250  36.566  33.966  14.458
39990W        W99251   9.277   0.821  14.826
39991W        W99252  38.830  15.811  14.909
39992W        W99253  20.032   5.241  12.477
39993W        W99254   3.398  24.174   3.274
39994W        W99255   0.434  12.681   3.348
39995W        W99256   6.893  31.569  12.548
39996W        W99257  28.626   8.365  11.592
39997W        W99258  40.825   1.844   0.378
39998W        W99259  42.014  22.611  14.353
39999W        W99260   9.228  12.177  13.907
40000W        W99261  13.329  23.233  13.420
40001W        W99262   4.724   4.236   2.842
40002W        W99263  35.945  17.135  10.631
40003W        W99264  39.848   3.378  10.411
40004W        W99265  24.991  30.077   4.264
40005W        W99266  13.618  31.977  14.861
40006W        W99267  13.195   2.885  12.491
40007W        W99268   2.840  15.173   3.708
40008W        W99269  34.510  10.303   2.404
40009W        W99270  24.226   8.837  13.365
40010W        W99271  42.010  25.193   4.686
40011W        W99272  24.679  32.480   4.124
40012W        W99273  28.566  29.655  11.378
40013W        W99274  22.680  13.748   3.164
40014W        W99275  33.130  31.645  13.516
40015W        W99276  44.411  29.100  11.513
40016W        W99277  20.221  23.189   3.362
40017W        W99278  43.769  21.606   4.302
40018W        W99279   0.910   6.783  10.599
40019W        W99280  43.505  11.628  12.964
40020W        W99281  28.037   1.262   0.964
40021W        W99282  20.587   6.781  10.426
40022W        W99283   9.807  23.579   0.456
40023W        W99284  22.139  27.058  11.583
40024W        W99285  36.400  40.321   0.736
40025W        W99286   9.874  16.261   0.935
40026W        W99287  43.465  14.240  11.494
40027W        W99288   8.173  20.117  13.410
40028W        W99289  17.223  23.702  14.492
40029W        W99290  24.996  37.875  13.827
40030W        W99291  33.934  34.447   1.327
40031W        W99292  15.719  17.290   2.884
40032W        W99293  16.233  14.097  13.903
40033W        W99294  11.634  29.922   2.226
40034W        W99295  20.578  31.970   2.399
40035W        W99296  26.578  26.677   0.243
40036W        W99297  12.684  37.836  13.864
40037W        W99298  34.376  34.096  11.097
40038W        W99299  40.970  19.694   3.818
40039W        W99300  29.977  38.961   1.747
40040W        W99301  16.169  41.418   1.797
40041W        W99302  19.675   1.741   3.358
40042W        W99303  42.012  33.561  14.359
40043W        W99304   1.731  39.953   0.342
40044W        W99305  37.427  23.546   4.805
40045W        W99306  25.501   4.894  10.433
40046W        W99307  17.635   0.772  14.490
40047W        W99308   7.184  39.962   1.269
40048W        W99309  42.383   0.818   3.767
40049W        W99310  32.995   3.268   0.339
40050W        W99311   4.819  36.565   1.339
40051W        W99312  39.898  23.550  12.027
40052W        W99313   0.824  11.821  12.881
40053W        W99314  13.314  31.143  14.009
40054W        W99315  23.675  34.002  10.583
40055W        W99316  27.465  21.065  11.965
40056W        W99317  29.479  36.494  11.103
40057W        W99318   9.356  40.887  14.869
40058W        W99319  23.202  17.124   0.377
40059W        W99320  34.378   4.769  11.889
40060W        W99321   7.905   6.276   0.331
40061W        W99322   9.727  36.975  14.018
40062W        W99323  36.022  44.276   0.460
40063W        W99324   8.355  20.074  14.786
40064W        W99325  19.266  12.763  14.484
40065W        W99326   3.307   0.274  13.883
40066W        W99327  15.606  12.770  11.963
40067W        W99328  28.534  15.670  14.398
40068W        W99329  24.169  37.438   9.978
40069W        W99330   3.943  17.693  14.428
40070W        W99331   6.233   2.417  13.815
40071W        W99332   6.380  24.032  12.002
40072W        W99333   8.760  29.582   0.268
40073W        W99334   5.310  29.105  14.874
40074W        W99335  11.644  44.493   1.299
40075W        W99336  37.446  23.173   0.760
40076W        W99337  25.072  42.287  13.950
40077W        W99338  37.944   7.907   0.763
40078W        W99339  39.057  35.081  11.059
40079W        W99340   9.739  43.961  14.937
40080W        W99341  24.508  34.005  14.305
40081W        W99342  39.896  26.108   1.280
40082W        W99343  44.925  40.872   2.278
40083W        W99344   7.795   5.334  10.608
40084W        W99345  37.505  32.039  12.865
40085W        W99346  41.925  22.616   5.269
40086W        W99347  42.880  23.063   0.776
40087W        W99348  13.180  39.022   0.961
40088W        W99349  20.115   0.475   1.879
40089W        W99350  27.683   0.295  13.928
40090W        W99351   8.379  19.705   1.796
40091W        W99352  22.550  30.020  14.934
40092W        W99353   3.807   2.343  13.866
40093W        W99354  32.013  30.447   0.900
40094W        W99355   4.311  43.909   3.262
40095W        W99356  31.949  14.691  13.429
40096W        W99357  27.520  13.135  13.345
40097W        W99358  37.880  10.658  14.812
40098W        W99359  17.758  19.712  14.849
40099W        W99360  34.963  11.287   2.349
40100W        W99361  38.897   4.795  13.957
40101W        W99362   6.901  14.721  12.918
40102W        W99363   8.288  43.300   0.273
40103W        W99364  20.714   1.357   3.810
40104W        W99365  38.900  11.166  11.466
40105W        W99366  19.179  42.377  11.467
40106W        W99367  24.494  19.118  11.022
40107W        W99368  38.858   3.421   4.227
40108W        W99369  30.110  27.978  10.473
40109W        W99370  15.162  23.984   1.443
40110W        W99371  17.301  33.488  10.933
40111W        W99372  34.922   0.946  12.576
40112W        W99373   1.899  14.796   1.413
40113W        W99374  14.660  35.526   2.747
40114W        W99375  23.034  21.724  12.345
40115W        W99376  30.553  40.308  10.566
40116W        W99377   5.207  13.644   4.658
40117W        W99378  20.607  44.484  10.984
40118W        W99379  37.013  23.556   0.759
40119W        W99380   0.816  42.455   3.783
40120W        W99381  26.969  23.159  14.972
40121W        W99382  11.786   2.326   2.847
40122W        W99383  37.467  35.873   2.358
40123W        W99384   1.317  18.597  13.336
40124W        W99385   7.236  41.933   2.210
40125W        W99386  39.002  39.540   4.263
40126W        W99387  16.211  21.202  13.830
40127W        W99388  41.937  30.933   2.219
40128W        W99389  10.648  16.588  14.992
40129W        W99390  16.656  26.702  10.610
40130W        W99391  18.587   0.323   0.863
40131W        W99392  10.247  36.593   0.767
40132W        W99393  34.986  43.872   2.877
40133W        W99394  38.849  37.408  14.785
40134W        W99395  31.517   9.287  11.986
40135W        W99396   6.409  34.576  11.992
40136W        W99397   4.321  38.925  12.008
40137W        W99398  43.798   8.678  13.456
40138W        W99399   4.396  13.260   2.251
40139W        W99400  43.456  27.064  10.907
40140W        W99401  18.238  39.857  10.545
40141W        W99402  25.974  12.743   1.380
40142W        W99403  26.040   5.896   0.908
40143W        W99404  14.803  20.091  10.986
40144W        W99405  40.465  33.599   5.261
40145W        W99406  31.004   2.798  13.540
40146W        W99407  31.554  26.547  12.019
40147W        W99408  15.616  19.584  13.904
40148W        W99409   8.267  31.611  14.870
40149W        W99410  27.023  44.766  13.421
40150W        W99411   0.329   7.394  11.939
40151W        W99412   2.283   7.371  11.961
40152W        W99413  38.568  30.032  10.955
40153W        W99414  17.203  35.519   4.347
40154W        W99415  36.071  34.413  13.375
40155W        W99416  40.342  40.542   0.731
40156W        W99417  18.077   9.645   1.725
40157W        W99418  23.525  15.108  13.981
40158W        W99419  30.565   1.451  11.439
40159W        W99420  15.580  34.114   0.836
40160W        W99421  18.662   3.254  13.343
40161W        W99422  16.708   8.899  10.918
40162W        W99423  22.657   2.918   4.167
40163W        W99424   3.814  18.779   0.730
40164W        W99425  19.072  26.505  13.851
40165W        W99426  18.713  44.336   0.266
40166W        W99427  34.945  35.999  12.963
40167W        W99428  40.313  41.894  14.430
40168W        W99429  32.923  15.096  13.855
40169W        W99430  20.228   8.729  14.005
40170W        W99431   8.803  25.547  11.128
40171W        W99432  22.567   1.914   3.801
40172W        W99433   0.395  11.170  13.349
40173W        W99434  38.863  30.639  13.499
40174W        W99435  31.896   4.769  12.570
40175W        W99436   7.881  29.108   0.474
40176W        W99437  43.371  10.333   1.858
40177W        W99438  29.946  30.488  11.883
40178W        W99439  16.738  27.624   2.379
40179W        W99440  38.391  17.599   0.424
40180W        W99441   0.801  42.478  11.940
40181W        W99442  15.710  17.667  11.929
40182W        W99443  34.610   7.353   1.843
40183W        W99444  11.303  41.497  12.991
40184W        W99445  39.412  43.782   2.390
40185W        W99446   1.810  15.604  13.427
40186W        W99447   1.421   4.747  12.847
40187W        W99448  40.549   0.452   2.879
40188W        W99449  38.922  44.935   2.351
40189W        W99450  25.687  23.040   4.350
40190W        W99451  30.570  35.512   0.872
40191W        W99452   7.819  31.033  12.476
40192W        W99453  14.106  28.673   5.796
40193W        W99454  17.610  27.128  13.024
40194W        W99455  11.784  31.961   4.732
40195W        W99456  15.211  18.589  12.096
40196W        W99457  44.948  21.551   1.776
40197W        W99458  35.941  26.070  13.421
40198W        W99459   8.762  12.249  12.352
40199W        W99460  14.160  42.506   0.320
40200W        W99461  16.658  32.927  12.550
40201W        W99462  22.529  27.136  14.836
40202W        W99463  40.939  15.150   1.279
40203W        W99464  38.501   9.733  13.927
40204W        W99465  40.930  44.450  11.938
40205W        W99466   5.718   6.358   1.247
40206W        W99467  20.033  36.887  11.881
40207W        W99468  34.606  14.194  14.390
40208W        W99469  25.084  39.409  13.413
40209W        W99470  44.765  15.740   5.147
40210W        W99471   8.315  30.543  12.947
40211W        W99472   4.917   0.854   3.161
40212W        W99473  43.861  35.916   1.332
40213W        W99474  13.276  17.220   5.216
40214W        W99475   2.869  40.503  12.403
40215W        W99476  33.097  42.509  11.928
40216W        W99477  14.097   1.824  14.853
40217W        W99478  14.267  25.521   4.343
40218W        W99479  19.580  11.185  10.912
40219W        W99480  42.870  21.053   1.327
40220W        W99481  43.369  37.450  14.395
40221W        W99482  27.975  21.220   1.235
40222W        W99483  21.140   6.316  12.498
40223W        W99484   6.796  20.135  11.413
40224W        W99485  21.112  17.129  11.944
40225W        W99486  20.197   6.742  11.950
40226W        W99487  25.108   8.754  14.906
40227W        W99488  18.626  32.600  14.436
40228W        W99489  41.417  23.158  12.989
40229W        W99490  34.036  10.643   3.640
40230W        W99491   4.396  36.877   3.797
40231W        W99492  18.672  29.429   3.686
40232W        W99493  33.520  20.556  13.963
40233W        W99494  29.476   9.818  13.051
40234W        W99495   8.862  20.730   4.301
40235W        W99496  27.957  21.217   2.333
40236W        W99497  19.653  44.939  13.910
40237W        W99498  34.475   0.420   4.191
40238W        W99499  21.747   6.688   2.731
40239W        W99500  17.685  20.751   2.699
40240W        W99501  26.597  30.419  11.950
40241W        W99502   0.327   3.947  13.996
40242W        W99503  37.968  33.063  11.525
40243W        W99504   5.831  37.431  14.415
40244W        W99505  41.924   2.796   0.251
40245W        W99506   8.397  17.789   3.215
40246W        W99507  24.163  15.820  12.557
40247W        W99508  29.973  11.656   4.775
40248W        W99509   5.759  27.995   3.355
40249W        W99510   0.974  26.177  12.492
40250W        W99511  17.658  36.006   0.844
40251W        W99512  44.861  16.207   0.367
40252W        W99513  12.159  11.711   5.272
40253W        W99514  11.699  26.511   5.179
40254W        W99515   3.367   3.827  13.502
40255W        W99516   3.396  32.053  10.136
40256W        W99517   7.676  23.529  14.857
40257W        W99518   0.381  22.013   4.790
40258W        W99519  43.501  38.417  11.121
40259W        W99520  37.970  16.576  14.477
40260W        W99521  44.480  41.324  12.559
40261W        W99522  34.515   5.284  12.931
40262W        W99523  36.868  12.691   0.294
40263W        W99524  39.017  23.636   4.175
40264W        W99525   5.861  24.100  11.068
40265W        W99526  38.556  43.974   0.456
40266W        W99527  32.104  19.582   1.403
40267W        W99528  22.093  39.434   2.663
40268W        W99529  32.559   2.918  10.931
40269W        W99530   2.380  10.266  11.074
40270W        W99531  20.644  27.134   0.800
40271W        W99532   2.851  40.035  13.807
40272W        W99533   9.231  28.044  14.356
40273W        W99534  12.191  26.623  13.415
40274W        W99535  39.981  26.657  14.821
40275W        W99536  11.749  33.541  14.458
40276W        W99537  21.593   9.242   0.916
40277W        W99538  28.967  43.493   1.336
40278W        W99539  15.289  36.422  13.501
40279W        W99540  26.694  15.717   3.162
40280W        W99541  37.417  27.195  12.873
40281W        W99542  33.980  32.037  11.069
40282W        W99543  29.005   5.892   4.351
40283W        W99544   5.910  21.144   3.192
40284W        W99545  27.162  28.597  14.982
40285W        W99546  42.882   0.978  13.511
40286W        W99547  23.052  17.760   1.748
40287W        W99548  36.487  21.742   3.196
40288W        W99549  38.497   7.853  14.443
40289W        W99550  39.556   2.758   0.733
40290W        W99551   5.377  31.049   0.881
40291W        W99552  16.194  30.011  12.007
40292W        W99553  37.044   0.814   2.336
40293W        W99554   1.320  42.336  14.021
40294W        W99555  43.445  43.376  14.858
40295W        W99556  30.554   7.763  11.879
40296W        W99557  29.475   9.234  10.499
40297W        W99558  34.935  29.152   2.850
40298W        W99559  14.138  33.571  11.452
40299W        W99560  24.653  38.892   3.353
40300W        W99561   7.819  17.675  11.965
40301W        W99562  10.747  23.025  13.950
40302W        W99563  39.017   3.954  14.823
40303W        W99564  17.220   3.450   1.867
40304W        W99565  31.496  18.767  12.878
40305W        W99566  25.032  42.989  13.522
40306W        W99567  24.572  39.363  12.996
40307W        W99568  40.342  43.418  13.959
40308W        W99569  44.804   0.840   0.393
40309W        W99570   6.396  21.607  14.380
40310W        W99571  25.637  35.974   1.335
40311W        W99572  17.102   3.721   1.392
40312W        W99573  34.897  28.166   1.788
40313W        W99574   3.795  31.101  13.913
40314W        W99575  25.987   2.295   1.735
40315W        W99576  40.845  16.192   2.725
40316W        W99577  44.426   0.334  12.831
40317W        W99578  12.329  12.126   5.227
40318W        W99579  39.006  31.065  12.439
40319W        W99580  36.841  19.692   4.651
40320W        W99581  25.045  12.122   4.772
40321W        W99582  20.768  39.935   3.237
40322W        W99583  17.282  35.957  13.849
40323W        W99584  28.565  27.503   3.288
40324W        W99585  44.474  13.721   4.341
40325W        W99586   2.886  44.999  11.104
40326W        W99587   5.369  38.976   0.375
40327W        W99588   8.667   0.791   1.400
40328W        W99589   1.945  37.019   2.879
40329W        W99590  13.809  43.459  13.856
40330W        W99591  37.961  42.030  13.513
40331W        W99592  25.553   4.780  13.863
40332W        W99593   9.723   5.778  12.473
40333W        W99594  39.517  33.001   0.881
40334W        W99595   6.782   6.402   0.434
40335W        W99596  22.244   5.813  13.921
40336W        W99597   5.288  12.801  12.345
40337W        W99598   8.193  21.563  11.947
40338W        W99599  31.911  21.129   2.831
40339W        W99600   8.852  29.004   9.924
40340W        W99601  33.416  39.946   3.833
40341W        W99602  11.127  34.540  11.014
40342W        W99603  38.396  10.245  13.455
40343W        W99604  33.616  16.650  12.371
40344W        W99605  37.437  15.699   5.290
40345W        W99606  11.828   1.732   3.202
40346W        W99607  34.062  26.202  11.877
40347W        W99608   3.259  11.811  14.315
40348W        W99609   7.867   1.415  15.000
40349W        W99610   8.862  26.051   1.231
40350W        W99611  42.944  27.570   4.261
40351W        W99612  23.535  40.411   1.293
40352W        W99613  44.281  25.507  14.903
40353W        W99614  14.127  13.205   3.215
40354W        W99615  16.185  19.238   4.330
40355W        W99616  37.043  39.519  13.350
40356W        W99617  41.904  26.972   4.794
40357W        W99618  31.562  38.023   0.959
40358W        W99619  24.604   5.423  13.953
40359W        W99620  10.872   7.273  10.928
40360W        W99621   9.842  32.950   4.815
40361W        W99622  28.117   0.355  14.373
40362W        W99623  36.926  35.494  14.865
40363W        W99624   4.809  15.326  13.975
40364W        W99625   9.195   4.272   1.907
40365W        W99626  30.021   7.193   1.378
40366W        W99627  38.562  23.002   2.237
40367W        W99628  34.558  38.373   3.635
40368W        W99629   4.926  28.557   2.703
40369W        W99630  18.756   4.739  11.487
40370W        W99631  34.984  11.784   0.877
40371W        W99632  22.708  24.702   0.789
40372W        W99633  11.298  16.679   4.216
40373W        W99634  33.580  24.667  12.427
40374W        W99635  18.261   0.477  14.787
40375W        W99636  23.613   0.980  10.465
40376W        W99637  25.543   5.812  10.954
40377W        W99638  29.579  27.954  14.452
40378W        W99639  41.470   6.189   2.243
40379W        W99640  23.161  14.591   4.341
40380W        W99641  17.693  22.705  14.769
40381W        W99642  43.323   5.765  12.398
40382W        W99643  18.741  34.902   2.878
40383W        W99644  38.474  43.862   1.806
40384W        W99645   5.727  28.981  12.064
40385W        W99646  17.682   8.700  13.973
40386W        W99647  23.066  21.580  12.887
40387W        W99648   3.887   8.708  14.427
40388W        W99649  20.149  30.516   5.202
40389W        W99650   8.372  30.005  14.451
40390W        W99651  34.582   4.889   4.246
40391W        W99652  18.745  40.027   2.324
40392W        W99653  43.392   4.213   2.285
40393W        W99654  39.897  24.668  14.938
40394W        W99655  30.645  42.379  12.839
40395W        W99656   3.424  21.242  13.017
40396W        W99657  18.130  10.672  13.966
40397W        W99658  15.124  38.983  13.476
40398W        W99659  18.710   9.348  13.803
40399W        W99660  18.146  44.788   1.425
40400W        W99661  42.425   9.296  13.965
40401W        W99662  21.080  24.053   2.755
40402W        W99663  32.079  24.120   4.279
40403W        W99664   9.849  14.118  12.907
40404W        W99665  11.672  32.478   0.409
40405W        W99666  39.426  32.102  13.881
40406W        W99667  43.372  39.048  12.881
40407W        W99668   1.808   7.406   0.799
40408W        W99669  10.837  41.998   4.782
40409W        W99670  14.722  32.459   4.662
40410W        W99671  33.560  32.142  10.486
40411W        W99672  17.602  11.638  12.345
40412W        W99673  31.496  15.817  14.482
40413W        W99674  37.886  11.152   2.275
40414W        W99675   4.824  34.065  10.904
40415W        W99676  39.985  37.448  12.370
40416W        W99677   5.244  37.980   3.826
40417W        W99678  27.135  19.071   0.811
40418W        W99679  11.684  44.487   2.731
40419W        W99680   5.412  25.705  10.481
40420W        W99681   8.299  11.233   3.763
40421W        W99682  14.720  23.663   0.407
40422W        W99683  22.244  25.674   3.209
40423W        W99684  34.963   1.447  10.635
40424W        W99685  35.569  31.101   1.414
40425W        W99686  20.165  16.743  14.289
40426W        W99687  21.019  14.292   1.252
40427W        W99688   8.326  25.646  10.929
40428W        W99689   7.321  37.943  14.771
40429W        W99690  30.450  35.479  12.917
40430W        W99691  19.208  20.232   0.733
40431W        W99692  10.167  36.893   4.604
40432W        W99693   2.838   3.360  11.407
40433W        W99694   1.453  21.237  11.977
40434W        W99695   9.313  11.283  13.040
40435W        W99696  17.251  14.825   2.862
40436W        W99697  25.685  25.692  11.435
40437W        W99698  42.364  27.180  11.397
40438W        W99699  32.423  15.249  11.389
40439W        W99700  16.130  37.990   2.867
40440W        W99701   6.719   1.442  12.439
40441W        W99702  27.168  32.542   0.889
40442W        W99703  44.828  37.076   3.366
40443W        W99704  27.994   1.252  13.480
40444W        W99705  17.295  34.993  14.980
40445W        W99706  18.283  33.602  11.395
40446W        W99707  32.008   6.696   0.396
40447W        W99708  13.305   0.291   5.101
40448W        W99709  28.182  29.951   3.245
40449W        W99710  11.757  33.020   2.785
40450W        W99711  31.110  36.543  14.031
40451W        W99712  20.609  30.567   2.806
40452W        W99713  32.410  42.962  10.479
40453W        W99714  26.983   8.873   2.407
40454W        W99715  27.454  29.995  11.036
40455W        W99716  25.702   5.925   0.431
40456W        W99717  27.519  19.570   4.694
40457W        W99718  32.603  41.852  14.948
40458W        W99719  38.959  15.182   3.860
40459W        W99720  25.606  26.193  11.869
40460W        W99721  17.796  30.524  10.446
40461W        W99722  35.525   6.275   1.450
40462W        W99723  43.916  15.272  11.971
40463W        W99724  31.905  37.957   2.365
40464W        W99725   9.246  26.188   2.826
40465W        W99726  18.786  14.199   0.299
40466W        W99727  13.794  40.477   0.327
40467W        W99728  24.542  41.885  13.308
40468W        W99729  37.438   1.307   2.788
40469W        W99730   4.821  30.087   1.258
40470W        W99731  40.942   1.399   3.830
40471W        W99732  22.675  25.073   2.353
40472W        W99733  42.316  15.253   1.836
40473W        W99734   0.813  36.573  11.009
40474W        W99735  39.902  21.563   1.911
40475W        W99736   1.917  33.072   0.348
40476W        W99737  20.690  19.161  11.905
40477W        W99738  15.234  31.645   0.443
40478W        W99739  36.375   8.852   1.409
40479W        W99740  34.492  37.417  11.913
40480W        W99741  27.070  42.315   2.781
40481W        W99742  39.373  32.462   0.795
40482W        W99743  33.475  36.391  14.768
40483W        W99744  11.262   5.769  14.017
40484W        W99745  17.650  29.624   1.378
40485W        W99746  31.571  15.776  13.974
40486W        W99747  36.054  19.239   2.719
40487W        W99748  30.490  38.330  13.314
40488W        W99749  26.686   9.269   1.430
40489W        W99750  30.420   2.911   1.766
40490W        W99751  18.778  37.459   5.141
40491W        W99752  34.904   5.227  11.874
40492W        W99753  38.557  11.358   2.801
40493W        W99754  14.731  18.574   2.361
40494W        W99755  26.077   7.377   3.720
40495W        W99756   2.953  37.414   2.827
40496W        W99757  25.134  17.261  10.579
40497W        W99758  14.773   6.780  12.392
40498W        W99759  10.700   5.764  13.871
40499W        W99760  40.414  13.620  13.378
40500W        W99761  25.544   9.879  14.973
40501W        W99762   1.959  10.836   0.845
40502W        W99763  16.163  32.913  10.106
40503W        W99764  39.389  22.176  11.606
40504W        W99765  24.558  37.391  13.063
40505W        W99766  34.598  26.156   0.865
40506W        W99767  31.979  19.266  12.051
40507W        W99768  15.252   4.254  10.418
40508W        W99769  20.175  28.119   0.905
40509W        W99770   7.199  40.530   1.221
40510W        W99771  35.063  18.620  14.032
40511W        W99772  23.152  24.526   2.900
40512W        W99773  39.352  18.162  11.534
40513W        W99774  39.393   7.393   0.389
40514W        W99775  11.745  24.500   1.752
40515W        W99776  11.244  42.861  14.303
40516W        W99777   5.301   9.664  11.045
40517W        W99778  33.020  38.540   5.137
40518W        W99779  26.491  18.155   0.315
40519W        W99780   1.768  13.733   3.634
40520W        W99781  42.391  32.554  14.862
40521W        W99782   2.468  14.676   0.827
40522W        W99783  40.989  12.722  12.504
40523W        W99784  38.548  14.163   0.343
40524W        W99785  22.704   0.973   0.249
40525W        W99786  26.114  12.855   0.339
40526W        W99787  25.607   8.725  14.421
40527W        W99788  12.354  33.530   2.385
40528W        W99789  19.655  18.678  11.084
40529W        W99790   1.750   5.839   0.755
40530W        W99791  17.166  37.922  12.889
40531W        W99792  39.029  40.331   4.169
40532W        W99793  42.284  17.237   3.330
40533W        W99794  25.611  25.189   2.719
40534W        W99795  35.077  16.737   2.241
40535W        W99796  24.057  38.457   2.859
40536W        W99797  27.571  24.060   1.901
40537W        W99798  40.998  35.409  12.921
40538W        W99799  10.663  30.534   2.760
40539W        W99800  27.162  16.181  11.601
40540W        W99801   8.343  23.612  13.920
40541W        W99802  35.987  10.762  14.827
40542W        W99803  22.629  21.708  11.599
40543W        W99804  22.607  21.626  11.940
40544W        W99805  27.518  20.170   1.340
40545W        W99806  12.642  31.433   1.302
40546W        W99807  36.050  27.980   4.257
40547W        W99808   3.879  15.691   1.243
40548W        W99809  15.588   4.912   1.898
40549W        W99810  41.524  35.898  13.969
40550W        W99811  38.367  26.197  14.839
40551W        W99812  20.250  29.072  10.929
40552W        W99813   0.792  14.106   1.438
40553W        W99814  31.899  31.139  11.430
40554W        W99815   9.650  19.217  10.485
40555W        W99816  20.570   5.395  14.915
40556W        W99817  40.491  40.022   1.827
40557W        W99818  34.581  27.533   3.766
40558W        W99819  29.032  26.574   2.895
40559W        W99820  22.538  35.931  11.421
40560W        W99821   5.229  26.635  14.880
40561W        W99822  19.769  30.144  12.538
40562W        W99823  29.651  11.322  14.900
40563W        W99824  32.488  34.590   1.428
40564W        W99825  28.495   3.725   1.909
40565W        W99826   7.743   4.213   0.908
40566W        W99827  11.334  13.810  13.545
40567W        W99828  40.921   3.789   0.883
40568W        W99829  29.647  13.307   0.392
40569W        W99830  39.437  18.095   2.203
40570W        W99831  18.129  33.029  14.884
40571W        W99832   9.648  33.600   1.725
40572W        W99833   7.850  32.102  12.538
40573W        W99834   5.745  13.196   3.654
40574W        W99835  33.032  23.614   0.928
40575W        W99836  36.075  18.138  10.489
40576W        W99837  16.150   6.335   2.682
40577W        W99838   0.950  23.568   3.216
40578W        W99839  13.638   5.800   1.759
40579W        W99840  44.457  21.183   5.147
40580W        W99841  40.355  17.167   0.266
40581W        W99842  13.765  21.575  14.516
40582W        W99843  44.490  16.694  13.792
40583W        W99844  16.109  35.016  12.868
40584W        W99845  35.473  34.508   5.092
40585W        W99846  38.424  32.031   3.693
40586W        W99847  32.561  26.661  13.953
40587W        W99848  42.883  11.809  14.914
40588W        W99849  25.586  29.006  10.925
40589W        W99850  41.419  23.611  12.533
40590W        W99851  20.133  15.726   0.839
40591W        W99852  19.751  40.855  13.309
40592W        W99853   7.241  41.448   3.758
40593W        W99854  39.830  18.291  12.935
40594W        W99855   3.762   9.344   4.728
40595W        W99856   1.324   4.754  14.397
40596W        W99857  22.154  16.124   1.250
40597W        W99858   3.450  35.462   3.185
40598W        W99859  13.267  43.490  11.099
40599W        W99860  39.543  42.409   1.376
40600W        W99861  12.184  34.473  11.112
40601W        W99862  19.100  43.328  13.873
40602W        W99863  41.008  12.185  14.413
40603W        W99864  39.414  24.214   4.666
40604W        W99865  36.870  33.604   1.384
40605W        W99866  19.191  26.629   1.294
40606W        W99867  38.551  13.324  11.074
40607W        W99868   9.731   0.911   3.801
40608W        W99869  15.741  10.368  12.882
40609W        W99870   5.779  41.515   2.831
40610W        W99871  12.334  23.592   0.338
40611W        W99872  18.083  34.937  14.850
40612W        W99873  34.011  18.662   0.318
40613W        W99874   2.235  33.066  12.442
40614W        W99875  26.529  13.240   3.259
40615W        W99876  15.317  29.093  14.393
40616W        W99877  40.539  38.482   2.745
40617W        W99878  28.969  32.529   1.407
40618W        W99879  10.169  39.486   0.769
40619W        W99880  13.825   5.829   4.221
40620W        W99881  44.480  25.596   1.935
40621W        W99882  37.982  13.305  12.953
40622W        W99883   9.153  17.140   1.714
40623W        W99884  34.925  20.137   1.353
40624W        W99885  42.891  25.206  10.409
40625W        W99886  43.944  44.992   4.622
40626W        W99887   8.847  22.008  13.869
40627W        W99888   3.852  31.003  11.572
40628W        W99889  44.770  22.581   3.801
40629W        W99890  31.576  44.472  13.802
40630W        W99891   1.396  28.988   3.651
40631W        W99892  34.611  27.489   4.726
40632W        W99893  35.920  11.364   4.799
40633W        W99894  18.664   7.776   3.240
40634W        W99895  13.168  35.983   1.778
40635W        W99896  13.147  32.462  12.393
40636W        W99897  12.738  30.608   3.304
40637W        W99898  15.181   6.854   2.364
40638W        W99899  35.363   6.806  13.382
40639W        W99900  31.971   0.971   1.919
40640W        W99901  19.047  32.523  11.984
40641W        W99902   6.708  14.726  12.468
40642W        W99903  35.456  18.674   1.222
40643W        W99904  17.641  19.070  14.280
40644W        W99905  23.517   0.270  13.808
40645W        W99906  14.134   6.251  12.902
40646W        W99907  14.598  29.512   0.760
40647W        W99908  21.112  22.243   0.261
40648W        W99909  34.398  16.244   0.748
40649W        W99910  23.225  20.594  13.313
40650W        W99911   1.776   1.383  12.923
40651W        W99912  40.315   4.808  13.055
40652W        W99913  23.701  19.738   0.365
40653W        W99914  23.635  35.948  11.983
40654W        W99915   5.832  31.966   0.363
40655W        W99916  44.413  33.020  13.934
40656W        W99917  23.093  36.357  14.489
40657W        W99918  43.891  20.035  11.933
40658W        W99919   2.918   3.453   4.783
40659W        W99920  26.035  40.916  14.505
40660W        W99921   9.197  29.094   0.475
40661W        W99922   4.862  10.862  10.928
40662W        W99923  19.202  21.742   0.378
40663W        W99924  35.399  38.479  14.928
40664W        W99925  22.061  26.635  11.025
40665W        W99926   5.389  20.649   0.302
40666W        W99927  30.942   2.414   1.222
40667W        W99928  37.547  33.950  11.044
40668W        W99929  27.035  42.909   4.217
40669W        W99930  30.995   8.670  12.913
40670W        W99931  35.430   3.365   2.325
40671W        W99932   7.357  27.691   4.303
40672W        W99933  36.493  24.201  11.579
40673W        W99934  38.942  16.764   4.787
40674W        W99935   4.701  38.332   4.724
40675W        W99936  34.890   4.309   3.297
40676W        W99937  26.990  16.594  10.631
40677W        W99938  16.176  25.201  10.545
40678W        W99939  11.807  30.931   1.231
40679W        W99940  18.665   9.831   0.839
40680W        W99941  18.237  36.080   0.755
40681W        W99942   0.293  22.032   0.890
40682W        W99943  14.594  22.623   3.353
40683W        W99944  22.614  27.657   0.368
40684W        W99945   0.372  18.742  14.993
40685W        W99946  15.249   5.264  11.969
40686W        W99947  28.021  40.484   0.455
40687W        W99948  40.308  40.362   0.364
40688W        W99949  11.828   7.845  13.452
40689W        W99950  41.838  34.606  14.499
40690W        W99951  16.587  43.801  14.428
40691W        W99952  22.149   1.272   3.233
40692W        W99953  20.537  25.516  12.403
40693W        W99954   8.231  30.561  13.366
40694W        W99955  31.578   3.710  13.803
40695W        W99956   2.320  38.923   0.318
40696W        W99957  30.140   2.267  14.811
40697W        W99958   2.360  21.067   5.286
40698W        W99959   9.815   4.257  14.842
40699W        W99960  24.037   4.235  10.643
40700W        W99961  33.088   0.443   0.807
40701W        W99962  12.343   0.980   4.829
40702W        W99963  17.771  12.170   0.771
40703W        W99964  14.589  18.700   0.783
40704W        W99965  17.083  15.171  14.857
40705W        W99966   5.828   7.745   4.737
40706W        W99967  29.172  26.995   0.857
40707W        W99968  19.550   2.943   3.763
40708W        W99969   0.751  14.263   4.196
40709W        W99970   2.743   1.741   3.674
40710W        W99971  26.986  13.813  13.535
40711W        W99972  19.636  30.584   4.136
40712W        W99973  17.674  13.795   1.275
40713W        W99974  20.628  28.085   2.342
40714W        W99975  29.518  42.455  10.517
40715W        W99976  22.229  41.016   4.224
40716W        W99977   6.345  17.250  12.394
40717W        W99978  29.456  23.707  12.094
40718W        W99979  27.073  23.999   5.601
40719W        W99980  11.866  36.983  13.047
40720W        W99981  14.151  28.102  13.905
40721W        W99982  33.903  13.170   0.922
40722W        W99983  27.463  16.252   4.204
40723W        W99984  14.154  37.961   4.276
40724W        W99985  34.451  22.090   2.220
40725W        W99986  31.468  37.044  10.951
40726W        W99987  28.581  38.982   0.934
40727W        W99988  34.569  23.010   0.910
40728W        W99989  35.473  16.271  13.408
40729W        W99990  14.607  34.417  10.519
40730W        W99991  39.370  44.872   3.847
40731W        W99992  31.406  31.897   4.255
40732W        W99993  26.189  39.994  10.980
40733W        W99994  30.143  39.061   0.260
40734W        W99995  38.827  10.151   2.717
40735W        W99996  18.128  27.501   4.296
40736W        W99997   3.829  11.771   3.327
40737W        W99998  11.666  21.680  13.330
40738W        W99999   1.389   0.479  13.963
40739W        W    0  11.179  20.690   4.216
40740W        W    1  44.278   5.748   2.811
40741W        W    2  11.759  30.459  14.794
40742W        W    3  18.755   2.442  11.945
40743W        W    4  36.086  28.582  13.890
40744W        W    5  18.075  40.855  13.373
40745W        W    6  16.175  29.988  12.528
40746W        W    7   2.394  18.569   2.258
40747W        W    8  23.028  23.141   2.370
40748W        W    9  35.891  15.190   3.278
40749W        W   10   3.451   9.772   1.914
40750W        W   11  42.522  23.033   1.412
40751W        W   12  35.597  36.968  14.830
40752W        W   13  25.004  15.280   2.892
40753W        W   14  22.644  11.155  14.930
40754W        W   15  28.972   9.735   4.340
40755W        W   16  34.371   7.682  12.561
40756W        W   17  29.100   2.299   3.206
40757W        W   18  22.729  44.391  13.447
40758W        W   19  42.311  36.876   1.313
40759W        W   20  16.141  28.654   0.354
40760W        W   21  33.015  37.347  12.083
40761W        W   22  39.360  12.265   4.322
40762W        W   23  30.549  26.631   4.824
40763W        W   24  31.470   4.236   4.695
40764W        W   25  35.525  22.544  11.963
40765W        W   26  20.591   1.438   4.685
40766W        W   27  31.519  30.032   1.257
40767W        W   28  42.476  17.603   4.602
40768W        W   29  30.925   5.399  13.497
40769W        W   30   6.839   0.922   2.295
40770W        W   31  19.755  12.332   2.818
40771W        W   32  25.076  22.559   2.779
40772W        W   33  35.388   9.713   1.751
40773W        W   34  20.193  29.533  13.357
40774W        W   35  20.255  24.005   1.298
40775W        W   36  30.927   7.794   0.864
40776W        W   37  16.300  33.070   0.265
40777W        W   38   5.234   1.912   1.928
40778W        W   39  40.543  16.251   3.672
40779W        W   40  41.812  35.856  13.052
40780W        W   41  13.708   1.340  10.913
40781W        W   42  30.649   5.374  13.391
40782W        W   43  33.910   4.891   4.288
40783W        W   44  34.413  37.069   3.227
40784W        W   45  18.718   4.409   4.607
40785W        W   46  33.450  35.913   0.898
40786W        W   47  14.123  14.283  14.862
40787W        W   48  32.011  12.221   1.808
40788W        W   49   6.272  10.375  14.882
40789W        W   50  36.560  30.921   3.188
40790W        W   51  41.338  42.284  11.016
40791W        W   52  36.368   4.865   0.294
40792W        W   53  31.486  10.853  12.834
40793W        W   54  21.089  13.640   4.727
40794W        W   55  17.183  43.394  12.947
40795W        W   56   1.263  36.562   2.219
40796W        W   57   2.341  27.157  10.563
40797W        W   58  10.308  35.466   2.243
40798W        W   59  20.258  36.979   3.685
40799W        W   60  29.525  27.969  12.044
40800W        W   61   4.231   8.166   1.800
40801W        W   62  31.420  42.413   3.200
40802W        W   63   6.709  22.198   0.804
40803W        W   64  36.373  17.117   4.337
40804W        W   65  17.276  28.154  14.848
40805W        W   66   7.386  23.051   0.933
40806W        W   67   9.300  28.125  10.106
40807W        W   68   8.820   8.243   2.728
40808W        W   69  11.717  39.055  12.448
40809W        W   70  19.646  15.215   2.362
40810W        W   71  16.286  34.021  14.428
40811W        W   72  27.186  22.631  14.905
40812W        W   73  26.496  36.573  14.944
40813W        W   74  41.819  41.363   1.297
40814W        W   75  13.619   0.479  14.415
40815W        W   76  22.744  37.046  12.037
40816W        W   77  32.406  33.963   0.244
40817W        W   78   8.872   1.397  14.797
40818W        W   79   8.337  42.421   4.790
40819W        W   80  37.530   6.269   1.696
40820W        W   81  28.437  41.894   4.638
40821W        W   82  23.582   3.835   0.749
40822W        W   83  30.512  37.534  12.545
40823W        W   84  29.533  11.848  10.100
40824W        W   85  12.721  24.071   3.192
40825W        W   86  38.461  22.172  10.477
40826W        W   87  14.758  35.372  14.778
40827W        W   88  23.585  19.138   1.815
40828W        W   89  26.116  22.625   2.762
40829W        W   90   3.796  11.693  12.957
40830W        W   91  13.824  16.653   2.768
40831W        W   92  25.637  42.868  10.965
40832W        W   93  36.498   5.349   1.699
40833W        W   94  43.329  40.527  10.527
40834W        W   95  19.226  27.196   1.881
40835W        W   96  33.514  40.030   0.942
40836W        W   97   4.383  28.140   3.361
40837W        W   98  27.145   2.366  12.478
40838W        W   99  15.631  28.159  13.478
40839W        W  100  21.620  11.849   2.199
40840W        W  101  38.554  37.049   4.284
40841W        W  102  23.504  33.038   2.824
40842W        W  103  13.339  39.502   1.268
40843W        W  104  14.685  27.489   0.762
40844W        W  105  31.476  17.587   1.843
40845W        W  106  19.657  19.131   5.281
40846W        W  107  19.693  18.163   0.778
40847W        W  108   4.939  10.353   3.809
40848W        W  109  38.986  13.824  14.308
40849W        W  110  11.737  23.070  10.914
40850W        W  111  43.278  40.485  13.351
40851W        W  112  36.420  23.684  13.801
40852W        W  113  39.493  35.899  14.427
40853W        W  114  20.155  40.036   2.665
40854W        W  115  30.433  18.763  12.579
40855W        W  116  21.118   0.285  10.089
40856W        W  117  22.141   8.750  10.996
40857W        W  118   9.815   8.398   4.834
40858W        W  119   0.969  30.154   3.718
40859W        W  120   9.720  21.518  10.959
40860W        W  121  42.002  30.080   4.199
40861W        W  122   5.297   9.756  12.024
40862W        W  123  34.596   4.242   1.843
40863W        W  124  29.025  28.442   0.459
40864W        W  125  35.470  13.687   2.178
40865W        W  126   3.766  41.867   2.877
40866W        W  127  33.927  37.406  13.407
40867W        W  128  12.325   7.191   0.872
40868W        W  129  27.508  10.315  13.895
40869W        W  130  17.118  13.185   1.821
40870W        W  131  32.989  41.519  13.432
40871W        W  132  17.143  17.659   3.151
40872W        W  133  10.291  41.040  12.374
40873W        W  134  26.188  30.003   0.915
40874W        W  135  43.835  44.374  11.095
40875W        W  136   1.471  39.988  12.534
40876W        W  137  38.325   5.290  14.965
40877W        W  138  42.354  11.682  12.935
40878W        W  139   0.395  34.972   3.261
40879W        W  140   3.435   1.282   2.841
40880W        W  141  14.289  21.697   3.212
40881W        W  142  33.130  42.912   2.782
40882W        W  143  16.233  17.784   2.754
40883W        W  144   1.248  42.423   2.308
40884W        W  145   0.836   0.383   4.122
40885W        W  146  41.292  11.214  11.473
40886W        W  147  39.515  43.276  11.891
40887W        W  148  22.581  11.196   1.826
40888W        W  149   5.381   8.726  13.308
40889W        W  150  38.017  20.108  14.487
40890W        W  151   5.846  13.332  14.783
40891W        W  152  33.431  29.458  11.607
40892W        W  153  42.820  39.038  10.457
40893W        W  154  32.101  16.262  10.919
40894W        W  155  44.463  35.360   1.249
40895W        W  156  18.594  34.958  10.075
40896W        W  157  13.318  28.052  13.505
40897W        W  158  31.463   9.735   1.746
40898W        W  159   5.346  40.479  11.952
40899W        W  160  13.799  32.471   4.758
40900W        W  161  17.124  38.977  10.432
40901W        W  162  13.167  21.541   2.744
40902W        W  163  44.806  39.534   2.874
40903W        W  164  28.186  22.212  13.312
40904W        W  165   5.367  37.573  13.418
40905W        W  166  32.054  18.232   3.250
40906W        W  167   7.223   4.229  14.411
40907W        W  168  39.533   2.911   4.168
40908W        W  169  25.528  42.308   2.740
40909W        W  170  35.490  10.256   2.723
40910W        W  171   6.851  26.511  13.889
40911W        W  172  10.680  27.976  13.058
40912W        W  173  38.345  26.161   2.825
40913W        W  174  39.387  19.653  12.550
40914W        W  175  38.046  44.994   1.845
40915W        W  176  18.710   1.411  10.581
40916W        W  177  32.933  29.042   2.315
40917W        W  178  20.108  23.999   0.960
40918W        W  179  30.988  37.884   3.261
40919W        W  180  13.187   3.801  12.937
40920W        W  181  14.739  23.684  14.774
40921W        W  182   0.382  13.832   2.891
40922W        W  183  38.390   3.274   1.240
40923W        W  184  25.668   0.918  11.995
40924W        W  185  38.534  35.474   3.787
40925W        W  186  15.105   4.861  14.994
40926W        W  187  24.551  23.022   1.386
40927W        W  188  37.931  26.022   4.769
40928W        W  189  37.428  23.585   0.837
40929W        W  190  29.604  23.021   4.293
40930W        W  191   9.834  16.108  12.906
40931W        W  192  15.710  24.107   1.796
40932W        W  193  12.798  17.222   3.207
40933W        W  194  18.112  23.030   4.689
40934W        W  195   7.224  20.230  10.506
40935W        W  196  41.491   6.240   4.825
40936W        W  197  13.778  13.835  12.511
40937W        W  198  12.687   2.263  14.956
40938W        W  199  35.879  24.636   3.251
40939W        W  200  19.058  31.031   3.292
40940W        W  201  33.966  37.036   1.873
40941W        W  202   0.316  13.750  12.871
40942W        W  203   2.754  27.143   0.832
40943W        W  204  41.859   8.256  11.419
40944W        W  205   8.213  38.991   2.828
40945W        W  206  36.054  42.481   1.859
40946W        W  207  22.714  34.434  10.604
40947W        W  208  29.535  21.164  12.548
40948W        W  209  10.702  44.889  13.346
40949W        W  210  36.009  24.649   1.428
40950W        W  211   9.172  30.044   4.624
40951W        W  212  18.680   7.895   1.351
40952W        W  213  37.539  14.158  11.497
40953W        W  214  15.098  44.909   3.805
40954W        W  215   0.879   8.738   1.309
40955W        W  216  29.495  13.208   1.441
40956W        W  217  17.242   0.941  13.390
40957W        W  218  28.064  14.121   4.246
40958W        W  219  21.586  35.378  12.948
40959W        W  220  13.203  20.245  10.447
40960W        W  221  10.251  41.526   0.245
40961W        W  222  35.006  16.092   4.119
40962W        W  223  17.120  32.093  14.836
40963W        W  224  24.624  32.976   1.701
40964W        W  225  29.665   7.761  12.531
40965W        W  226  31.917  25.578  14.319
40966W        W  227  16.282  31.022   2.717
40967W        W  228   8.380  17.260   2.203
40968W        W  229  30.065  35.601  14.774
40969W        W  230  38.825   5.763   3.704
40970W        W  231   3.406  37.488   4.670
40971W        W  232  33.903  31.594   4.830
40972W        W  233  41.960   8.883   0.299
40973W        W  234   3.868  37.484  11.108
40974W        W  235  21.718  34.871  13.969
40975W        W  236  39.895  16.132  14.458
40976W        W  237  23.154  31.076  12.572
40977W        W  238   6.279  14.730   4.605
40978W        W  239  32.496  31.447  13.413
40979W        W  240  28.530  13.118   0.313
40980W        W  241   8.215  27.193   2.230
40981W        W  242  24.050  43.014  13.962
40982W        W  243  44.847   0.942   1.238
40983W        W  244  15.146  38.921  11.884
40984W        W  245  28.522   8.189  11.123
40985W        W  246  42.832  35.022   1.923
40986W        W  247  40.960  24.047   3.653
40987W        W  248  10.648  15.292  13.855
40988W        W  249  30.503  18.731   3.272
40989W        W  250   7.716   7.685   2.693
40990W        W  251  26.680  23.693   4.690
40991W        W  252  38.409  30.008   3.697
40992W        W  253  22.172  32.473   4.300
40993W        W  254  11.263  11.704   3.668
40994W        W  255  38.005  15.291  12.910
40995W        W  256  35.997   7.251   2.785
40996W        W  257  30.515  42.930   3.306
40997W        W  258  36.920  35.514   1.420
40998W        W  259  16.130  11.193   0.937
40999W        W  260  20.554  15.634  12.871
41000W        W  261  25.476  11.667   2.890
41001W        W  262  22.111  14.714   3.810
41002W        W  263  41.925  16.611  14.457
41003W        W  264  44.993  39.052  12.961
41004W        W  265  14.807   8.322  12.457
41005W        W  266  22.606  29.499  14.398
41006W        W  267  32.046  12.776   1.356
41007W        W  268  30.538  22.623   2.350
41008W        W  269  37.555  21.518   3.254
41009W        W  270  41.977   2.268   2.263
41010W        W  271  31.506  29.657   1.812
41011W        W  272  15.238  12.235   2.686
41012W        W  273  17.588  34.957   4.330
41013W        W  274   8.774   0.464  14.947
41014W        W  275   9.646   4.703   0.393
41015W        W  276  32.569  12.350   4.180
41016W        W  277  37.427   5.785  13.421
41017W        W  278  42.799   8.712  10.419
41018W        W  279  13.313  31.447   4.659
41019W        W  280  16.075  16.282  14.828
41020W        W  281  23.100  24.713  14.514
41021W        W  282  35.461  18.700  11.906
41022W        W  283   2.874  12.181   4.823
41023W        W  284  30.084  11.307  13.959
41024W        W  285  41.821   2.411   0.941
41025W        W  286  28.063  11.230  14.357
41026W        W  287  32.619   9.834  10.555
41027W        W  288  19.275  21.170   5.625
41028W        W  289  11.701   0.474   4.155
41029W        W  290  17.070  16.288  10.915
41030W        W  291  26.061  29.101   0.309
41031W        W  292  21.249   7.905   3.641
41032W        W  293   6.908  42.001   2.289
41033W        W  294  35.415   7.198  10.463
41034W        W  295  23.130  36.391   0.773
41035W        W  296  31.521   8.187  14.822
41036W        W  297   3.816  17.567  12.433
41037W        W  298  16.642  30.421   0.757
41038W        W  299  24.500  16.213   2.345
41039W        W  300  34.389  38.340   0.804
41040W        W  301  37.500  13.690  10.421
41041W        W  302  38.922   7.238   4.142
41042W        W  303  13.175   3.264  11.891
41043W        W  304  29.112  40.906   4.711
41044W        W  305  10.773   5.419   3.681
41045W        W  306  31.923  37.942  10.571
41046W        W  307  19.647  16.785   3.745
41047W        W  308  41.305  14.731  14.421
41048W        W  309  26.599  40.526   3.261
41049W        W  310   8.262   4.724  13.945
41050W        W  311  23.036  27.163  13.010
41051W        W  312  25.981  29.562  13.452
41052W        W  313   2.869  21.203   0.781
41053W        W  314  25.123  23.064  14.876
41054W        W  315  22.219  16.083   3.668
41055W        W  316  18.760  33.880   4.145
41056W        W  317   7.759  10.863  14.938
41057W        W  318  17.796  25.120  11.028
41058W        W  319   6.350   1.335  10.515
41059W        W  320  44.952   1.948   1.230
41060W        W  321  13.635  42.777   4.745
41061W        W  322  12.736   0.461   1.835
41062W        W  323  19.728   5.373  10.896
41063W        W  324  36.896  27.493  12.379
41064W        W  325   4.293   6.342  14.451
41065W        W  326  31.452  41.984  14.963
41066W        W  327  37.416  12.784  13.338
41067W        W  328   8.710   6.381   2.375
41068W        W  329  26.567  38.428  11.601
41069W        W  330  22.101  41.338  10.531
41070W        W  331  23.706  20.712  11.380
41071W        W  332  13.241   0.299   4.254
41072W        W  333  35.980   9.658  11.509
41073W        W  334  35.918  17.203  14.336
41074W        W  335   0.487  21.592  11.974
41075W        W  336  29.660  42.918   3.172
41076W        W  337  20.034  35.417  12.048
41077W        W  338  11.298  43.361   4.296
41078W        W  339  23.680   6.307   0.904
41079W        W  340  24.535   3.790   1.427
41080W        W  341  17.676   6.193   0.425
41081W        W  342  35.534  34.103  11.112
41082W        W  343  25.711  37.559   1.405
41083W        W  344   4.776  42.929  10.455
41084W        W  345  37.508  27.997  11.913
41085W        W  346  19.595  21.205  10.054
41086W        W  347  39.029  20.655   3.200
41087W        W  348  36.095  28.970  12.997
41088W        W  349  24.703   8.392  13.513
41089W        W  350  13.180  35.402   4.260
41090W        W  351   8.310  27.002  11.499
41091W        W  352  21.605  17.760  12.573
41092W        W  353   4.733  31.142  14.351
41093W        W  354  29.473  39.389   3.195
41094W        W  355  18.176   2.244   1.794
41095W        W  356   9.264  21.542  13.417
41096W        W  357  26.538  42.789   3.708
41097W        W  358  24.157  31.606   1.839
41098W        W  359  37.837  22.099   1.390
41099W        W  360   3.880  23.093  11.471
41100W        W  361  18.090  17.166  11.528
41101W        W  362  37.011  27.181  14.324
41102W        W  363  31.999  37.854  14.358
41103W        W  364  44.341   5.871  11.492
41104W        W  365   0.476  16.174   1.244
41105W        W  366  44.451  35.999  10.112
41106W        W  367   6.735   7.381  11.038
41107W        W  368  44.355   8.681  11.451
41108W        W  369   8.656  29.935  14.839
41109W        W  370  23.662  37.026   4.799
41110W        W  371  11.865   7.387   3.799
41111W        W  372  10.740  31.966   4.170
41112W        W  373   5.239  31.622   3.163
41113W        W  374  20.239  34.948   0.835
41114W        W  375  26.543  44.478   0.446
41115W        W  376  34.981  36.546  10.497
41116W        W  377   2.875  40.987  11.567
41117W        W  378  17.575  30.970   9.477
41118W        W  379  30.154  24.985  14.973
41119W        W  380  44.340  29.105  12.964
41120W        W  381  16.610  33.508   4.776
41121W        W  382  21.088  20.698  14.872
41122W        W  383  29.470  11.282   1.237
41123W        W  384  41.031  12.623   0.803
41124W        W  385  38.825   4.795   2.820
41125W        W  386  19.745  27.652  13.420
41126W        W  387  34.600   8.336  14.965
41127W        W  388  31.945  24.666   3.865
41128W        W  389  38.018   2.960   3.295
41129W        W  390  34.030  41.484  13.390
41130W        W  391  43.313   6.747  14.279
41131W        W  392  36.893   2.376  14.778
41132W        W  393  32.043   8.162   4.828
41133W        W  394  37.897  16.181   1.770
41134W        W  395  18.203  32.467   0.786
41135W        W  396  32.542  14.618  13.373
41136W        W  397  31.431  25.635  11.599
41137W        W  398   1.896   3.434   4.186
41138W        W  399  23.508   8.387   4.129
41139W        W  400  30.040   1.846  14.973
41140W        W  401   4.913  36.977  15.000
41141W        W  402  10.723  17.782  14.836
41142W        W  403  19.724  35.528   1.401
41143W        W  404  44.389  29.624  10.415
41144W        W  405  13.152  38.524  11.857
41145W        W  406  32.002  29.148   2.686
41146W        W  407  24.107  15.649   2.699
41147W        W  408  23.609  39.392  12.878
41148W        W  409  10.235   6.906   4.162
41149W        W  410  28.494  15.686   4.638
41150W        W  411  29.490  44.468  11.467
41151W        W  412  13.612  26.514   4.137
41152W        W  413  37.940  36.505   0.853
41153W        W  414  27.052  15.803   1.835
41154W        W  415  20.191  34.875  14.326
41155W        W  416   2.301  19.235  14.009
41156W        W  417  42.372  20.522   2.663
41157W        W  418   3.308  19.721  14.369
41158W        W  419  30.969   5.928   1.711
41159W        W  420   6.819   1.748   1.826
41160W        W  421  18.758  28.457  12.454
41161W        W  422  32.493  42.944  11.933
41162W        W  423  10.343   7.379   4.241
41163W        W  424  25.665  26.494  13.980
41164W        W  425   0.341  22.040  11.997
41165W        W  426  32.574  28.488  14.445
41166W        W  427  36.845  31.600  14.436
41167W        W  428  22.174   6.234  13.358
41168W        W  429  17.755  28.944  13.920
41169W        W  430  21.596  16.796  12.471
41170W        W  431  36.582  38.400  10.580
41171W        W  432  22.705  11.172   4.748
41172W        W  433  25.590   9.866   3.299
41173W        W  434  18.121  36.353   2.886
41174W        W  435  19.648  31.006  13.328
41175W        W  436  25.045  15.168  12.036
41176W        W  437  40.408   5.371   2.682
41177W        W  438   4.825  16.583  13.004
41178W        W  439  41.473  35.029   1.805
41179W        W  440  36.060   6.832  12.514
41180W        W  441   5.240   2.237   4.688
41181W        W  442  16.291  32.116  10.475
41182W        W  443  40.411  21.181   1.375
41183W        W  444  31.520  26.625  13.530
41184W        W  445   5.778  16.727   4.191
41185W        W  446   8.819  38.034   4.245
41186W        W  447  15.270  37.500  12.377
41187W        W  448  21.086  20.261  14.393
41188W        W  449  23.628  24.568  14.031
41189W        W  450  13.287  42.846   1.877
41190W        W  451   7.831   0.416   0.825
41191W        W  452  23.544  29.971  10.907
41192W        W  453  12.727   3.386   9.930
41193W        W  454  28.578  42.862  13.547
41194W        W  455  35.540   0.837  14.898
41195W        W  456  14.110  30.573  12.548
41196W        W  457  35.020  35.007   1.266
41197W        W  458   8.845  28.970   1.804
41198W        W  459  22.512  10.303   1.705
41199W        W  460  38.023  26.990  14.936
41200W        W  461  28.477  43.479   2.821
41201W        W  462  19.107  29.048   5.670
41202W        W  463  43.319  44.005  11.455
41203W        W  464  26.086   5.856   4.234
41204W        W  465   7.751  43.974   2.415
41205W        W  466   0.407   1.934  13.813
41206W        W  467  26.659  25.203  13.974
41207W        W  468  28.566  27.074  12.936
41208W        W  469  36.442  10.749   3.748
41209W        W  470  21.142  11.717  10.432
41210W        W  471  36.042  33.624  10.942
41211W        W  472  18.085  24.521  10.422
41212W        W  473  11.143  19.211  13.032
41213W        W  474  42.958  12.152   0.836
41214W        W  475  39.538  30.599   4.142
41215W        W  476   3.426   1.245   3.175
41216W        W  477  19.188  12.832   2.273
41217W        W  478  31.550  42.309  12.046
41218W        W  479  17.208  43.509  13.954
41219W        W  480  32.886  32.604  12.980
41220W        W  481   7.334  22.600   4.802
41221W        W  482  23.732   6.314   2.351
41222W        W  483  20.656  21.192  11.561
41223W        W  484   6.383  23.189   4.283
41224W        W  485   1.470  10.340   2.686
41225W        W  486  11.209  17.236   1.243
41226W        W  487   9.375   7.692   4.158
41227W        W  488  27.480  34.552   1.451
41228W        W  489  31.074  12.773   5.154
41229W        W  490  24.722  11.227  14.283
41230W        W  491   0.899  44.906  13.861
41231W        W  492  29.444  17.302   4.783
41232W        W  493  17.263   0.316  14.967
41233W        W  494   5.778   6.750  11.549
41234W        W  495  10.351  29.077  12.564
41235W        W  496  38.340   3.832  11.009
41236W        W  497  33.396  22.144  12.481
41237W        W  498  30.956  13.672  12.450
41238W        W  499  14.156  12.213   4.291
41239W        W  500  41.446   2.438   4.819
41240W        W  501   2.414  33.534  10.125
41241W        W  502   0.828  16.771  12.020
41242W        W  503  39.874  21.562  13.416
41243W        W  504   0.797  34.444   4.750
41244W        W  505  22.747   2.867   3.236
41245W        W  506  24.575  38.532  14.853
41246W        W  507  20.713  17.595   2.743
41247W        W  508  10.734  14.677   1.841
41248W        W  509   4.925  19.595   0.307
41249W        W  510  14.100  14.593   2.308
41250W        W  511  25.213   5.690  14.306
41251W        W  512  44.802   6.326  11.050
41252W        W  513   2.225   9.270  12.526
41253W        W  514   6.789  10.682  12.988
41254W        W  515  17.611  33.023  12.916
41255W        W  516  40.987   6.189   2.343
41256W        W  517  34.891  33.432  13.025
41257W        W  518  44.776  13.729  13.823
41258W        W  519  28.057  37.475   3.209
41259W        W  520  34.058   9.311   4.303
41260W        W  521   6.768  14.097   1.879
41261W        W  522   1.362  28.598   0.304
41262W        W  523  40.354  16.082  14.445
41263W        W  524  24.577   4.238   3.804
41264W        W  525  15.279  38.015   4.158
41265W        W  526  15.204  30.560  11.396
41266W        W  527  39.456   1.435  12.017
41267W        W  528   5.842  19.115  14.443
41268W        W  529  29.564  15.610  14.381
41269W        W  530  35.028  34.971  12.884
41270W        W  531   0.452  18.610  12.893
41271W        W  532  26.982   5.862  11.529
41272W        W  533  35.464  21.554   0.363
41273W        W  534  15.784   9.335  11.064
41274W        W  535  28.445  17.724   1.923
41275W        W  536  29.567   3.285  14.474
41276W        W  537  20.736  12.298  11.885
41277W        W  538  10.737  37.428   0.943
41278W        W  539   6.860  43.456   0.756
41279W        W  540  17.185  30.067   3.284
41280W        W  541  39.911  42.365  11.966
41281W        W  542  43.386  32.541   3.290
41282W        W  543   3.782  12.750   5.182
41283W        W  544  12.241  24.643   1.717
41284W        W  545  38.044   6.202  11.524
41285W        W  546  10.801  22.039  13.818
41286W        W  547  20.658  24.624   0.306
41287W        W  548   5.862  22.997  14.891
41288W        W  549   3.749  20.746  11.449
41289W        W  550  40.029  36.446   2.306
41290W        W  551   4.822  22.230   2.786
41291W        W  552   9.306  12.840  12.036
41292W        W  553  40.484  26.955   4.804
41293W        W  554   2.251  43.372  13.922
41294W        W  555   0.775   1.945   1.838
41295W        W  556   9.646   0.970  13.813
41296W        W  557  20.091   8.197  12.537
41297W        W  558  24.191  23.200  12.950
41298W        W  559   4.400  10.864  10.999
41299W        W  560  31.033  23.567  14.384
41300W        W  561  20.150  36.971   2.713
41301W        W  562  29.953  31.453  11.900
41302W        W  563  14.603   5.405   3.669
41303W        W  564   8.867  17.220   0.907
41304W        W  565   3.850  22.015   1.863
41305W        W  566  33.530  14.165   2.227
41306W        W  567   9.166  44.470   9.981
41307W        W  568  19.720  41.978  12.471
41308W        W  569  38.068   8.252   1.905
41309W        W  570  41.904   6.699   3.179
41310W        W  571  23.580  23.623   1.780
41311W        W  572  34.504  15.202  10.123
41312W        W  573   4.326  42.827  14.936
41313W        W  574  17.091  27.689  12.542
41314W        W  575  24.058  16.746   0.802
41315W        W  576  18.747  18.634   2.703
41316W        W  577  12.712  33.075  10.517
41317W        W  578  32.885  13.255  13.897
41318W        W  579   2.282  25.571  13.324
41319W        W  580  41.822  28.951  10.963
41320W        W  581  40.310  13.172  13.429
41321W        W  582  36.458  42.317  13.991
41322W        W  583  12.231  34.545  12.350
41323W        W  584   1.932  12.140  13.877
41324W        W  585  17.276  32.454  11.584
41325W        W  586  16.175  15.237   3.205
41326W        W  587  17.182  19.587  13.890
41327W        W  588  35.872  43.842   0.392
41328W        W  589  11.222  32.973  10.477
41329W        W  590  26.482   9.311   0.857
41330W        W  591   9.335  34.881  10.537
41331W        W  592  12.186  20.188  11.456
41332W        W  593  25.117   4.407  11.442
41333W        W  594  43.939  29.055  12.053
41334W        W  595  14.334  29.029  13.548
41335W        W  596   9.171  36.398   1.726
41336W        W  597  21.050  42.345   0.909
41337W        W  598   0.788  14.773   3.695
41338W        W  599  25.003  18.133   0.261
41339W        W  600  18.553  32.512   4.163
41340W        W  601  12.224  36.080  10.569
41341W        W  602  20.117  29.919  14.349
41342W        W  603   8.860  39.929  12.823
41343W        W  604  38.359   9.657   4.184
41344W        W  605  21.121  26.561   1.772
41345W        W  606  29.648  20.267   0.809
41346W        W  607  10.252   7.688   3.278
41347W        W  608  34.397   3.858   4.699
41348W        W  609  34.463  42.015  14.796
41349W        W  610  14.209  34.983  11.496
41350W        W  611  26.034  32.432   3.371
41351W        W  612  22.116   5.252  11.986
41352W        W  613   2.448  14.317   0.867
41353W        W  614   6.797   2.254   3.166
41354W        W  615   7.241  42.957  12.567
41355W        W  616  34.565  42.853   1.747
41356W        W  617  38.490  31.424  13.376
41357W        W  618  15.086  31.458   1.242
41358W        W  619  35.384  31.575   2.778
41359W        W  620  26.510   7.845   2.896
41360W        W  621  24.674  22.156   3.845
41361W        W  622  37.078  44.758   4.835
41362W        W  623  30.422   8.699  14.845
41363W        W  624  40.340  37.446   5.613
41364W        W  625  43.804   0.804   0.421
41365W        W  626  10.141  36.575  10.441
41366W        W  627  30.484  13.297   2.676
41367W        W  628  11.206  44.294   0.395
41368W        W  629   8.257  10.695   1.908
41369W        W  630  39.378  39.533   1.369
41370W        W  631  30.552  27.006   3.377
41371W        W  632  22.231  18.655   1.724
41372W        W  633  16.780  38.953   1.918
41373W        W  634  32.584  12.625  12.473
41374W        W  635  43.364   0.820   1.212
41375W        W  636  16.592  14.716  14.329
41376W        W  637  13.130  27.669   3.176
41377W        W  638   6.841  16.234   3.198
41378W        W  639  30.093  19.209  10.454
41379W        W  640  43.340  29.551  11.898
41380W        W  641   7.691  41.535   9.972
41381W        W  642  25.176  29.567   2.324
41382W        W  643  15.700   0.319   4.136
41383W        W  644  24.533  29.500  12.546
41384W        W  645  37.950   0.929   1.834
41385W        W  646  25.702  38.510  11.586
41386W        W  647  39.882  12.207   3.347
41387W        W  648  16.143  42.293  12.485
41388W        W  649  31.576   0.956  13.359
41389W        W  650  41.878   0.285  10.067
41390W        W  651  26.553  35.029   4.725
41391W        W  652  40.962   8.238   0.453
41392W        W  653  42.398  34.419   4.303
41393W        W  654   9.252  10.357   2.707
41394W        W  655  37.343  25.161  12.841
41395W        W  656  21.163  34.427   3.188
41396W        W  657  26.632  11.299   1.370
41397W        W  658  39.362  19.062   3.688
41398W        W  659  39.438   1.359   2.238
41399W        W  660  33.455  12.226   3.152
41400W        W  661  12.318  33.532   1.814
41401W        W  662  13.224  41.835  13.423
41402W        W  663  17.759  40.505  13.497
41403W        W  664   5.425  44.834  14.914
41404W        W  665  24.563  27.035  13.489
41405W        W  666  24.490  19.725   1.805
41406W        W  667  37.565  44.772   3.236
41407W        W  668  18.079  40.534  12.502
41408W        W  669   0.299  28.507  11.099
41409W        W  670  22.170  19.223   1.772
41410W        W  671  21.029  31.038  10.513
41411W        W  672   3.347  13.796   2.240
41412W        W  673  37.407  27.971  11.008
41413W        W  674  33.391  19.140   4.236
41414W        W  675  43.475  32.392   2.348
41415W        W  676  14.227  13.658   1.251
41416W        W  677  11.283  31.084   1.269
41417W        W  678   0.379   4.792   2.339
41418W        W  679  27.097  27.561   4.117
41419W        W  680  24.481  14.148   4.255
41420W        W  681  21.113  42.314  11.036
41421W        W  682   9.368  21.749   3.758
41422W        W  683  40.488  42.465  12.554
41423W        W  684  31.522   4.902   0.955
41424W        W  685   4.699  15.595   3.774
41425W        W  686  36.005   2.795   4.793
41426W        W  687  42.933   6.348  11.994
41427W        W  688  22.675  30.913   0.769
41428W        W  689   8.745  31.933   1.244
41429W        W  690   8.247  20.692  14.453
41430W        W  691  42.837  14.794   2.384
41431W        W  692   5.249  21.521   3.853
41432W        W  693  16.216  25.632   0.897
41433W        W  694  22.694   6.292   5.085
41434W        W  695  43.771  41.948   3.256
41435W        W  696   5.837  38.034   0.335
41436W        W  697  21.688  26.207   0.423
41437W        W  698   6.311  27.549   3.734
41438W        W  699   3.838  37.412   1.745
41439W        W  700  38.049  19.205   1.706
41440W        W  701   3.794  15.121  14.344
41441W        W  702  27.484  22.586  11.908
41442W        W  703  43.856  15.678   3.661
41443W        W  704   7.787  40.855  12.827
41444W        W  705  27.137  23.237   4.125
41445W        W  706  17.092   6.772  12.891
41446W        W  707  17.752  24.576  12.569
41447W        W  708  10.824   2.452  11.101
41448W        W  709  13.714  12.168  12.558
41449W        W  710  15.666  12.191   2.771
41450W        W  711   3.788  13.736  13.434
41451W        W  712   1.440   7.841   1.293
41452W        W  713  19.276  31.912  11.378
41453W        W  714  38.342  14.734   4.245
41454W        W  715  20.541   4.896   4.705
41455W        W  716  27.190   8.291   4.733
41456W        W  717   0.343  29.117   4.235
41457W        W  718  31.416  20.157   2.819
41458W        W  719  14.707  40.817   0.310
41459W        W  720   0.340  20.207   4.692
41460W        W  721   6.690  13.333   1.274
41461W        W  722  25.983  24.692  11.536
41462W        W  723  23.179  34.436  13.354
41463W        W  724   3.829   9.738   0.948
41464W        W  725  44.423  33.530   5.321
41465W        W  726  40.512  28.532  12.463
41466W        W  727  41.899   5.280  11.927
41467W        W  728  26.191   8.307  10.598
41468W        W  729   6.217  37.572   4.221
41469W        W  730  27.175  40.842  13.848
41470W        W  731  28.536   5.219   2.390
41471W        W  732  18.084  16.153  11.568
41472W        W  733  37.441  20.196  11.482
41473W        W  734  28.522  22.577  14.877
41474W        W  735  22.543  13.826  11.964
41475W        W  736   1.844   0.784  12.413
41476W        W  737  27.092   3.775   4.598
41477W        W  738  40.430  32.139  14.370
41478W        W  739  14.728  29.540   2.667
41479W        W  740  36.895   8.204   1.379
41480W        W  741  24.162  16.778  14.345
41481W        W  742  28.444   5.745   1.244
41482W        W  743   3.338  26.140  11.919
41483W        W  744   3.847   0.403  13.857
41484W        W  745  36.846  41.963   4.305
41485W        W  746  39.845  35.425  11.476
41486W        W  747  18.767  40.947   4.772
41487W        W  748  39.051  19.599  13.993
41488W        W  749   8.845  20.684  14.420
41489W        W  750  11.254  14.713  12.383
41490W        W  751  12.777  20.687  13.926
41491W        W  752  36.528  29.146   3.803
41492W        W  753  18.729  21.594   4.655
41493W        W  754   4.817  43.408   3.315
41494W        W  755  10.356  35.413  13.378
41495W        W  756  44.760  29.137   0.940
41496W        W  757  14.769  37.375  10.986
41497W        W  758  40.418  38.041   1.859
41498W        W  759   1.885  13.299   1.308
41499W        W  760  43.772  37.968   2.290
41500W        W  761  41.517  42.855  13.330
41501W        W  762  31.405  38.890  13.326
41502W        W  763  28.588  22.735  10.979
41503W        W  764  31.960  40.937  12.394
41504W        W  765   5.405   3.822  11.544
41505W        W  766  22.728  42.407   2.406
41506W        W  767  43.472  44.407   0.252
41507W        W  768  38.474   2.448  14.946
41508W        W  769  27.060  31.608   2.702
41509W        W  770   0.779  22.743   4.754
41510W        W  771  41.317  35.918  12.476
41511W        W  772  42.381  20.110   3.682
41512W        W  773  20.703  44.268   0.744
41513W        W  774  32.594  39.413  13.462
41514W        W  775  11.340   6.287   3.828
41515W        W  776  13.802  41.347  13.040
41516W        W  777  25.531  28.059  12.421
41517W        W  778  36.582  29.998  12.840
41518W        W  779  15.707  12.295  10.542
41519W        W  780  38.993  12.725  11.427
41520W        W  781   1.264   9.371   4.749
41521W        W  782  42.445   6.217  10.981
41522W        W  783   3.767   5.876   0.884
41523W        W  784   2.333  14.650   3.717
41524W        W  785  20.618  36.939   3.678
41525W        W  786  11.280  38.333   2.396
41526W        W  787  20.262  18.282  12.477
41527W        W  788  38.826   1.460   5.135
41528W        W  789  37.993   8.218  14.341
41529W        W  790   6.859  44.330  12.429
41530W        W  791  21.110   7.301  10.051
41531W        W  792  30.520  24.532   3.239
41532W        W  793  35.575  26.202  11.537
41533W        W  794  24.210  42.358   1.419
41534W        W  795  12.753  31.635   0.950
41535W        W  796   4.440  10.661  12.446
41536W        W  797  41.984  13.658   4.147
41537W        W  798  10.342  23.998   1.396
41538W        W  799  12.759  24.046  11.019
41539W        W  800  36.479  39.023  10.442
41540W        W  801  29.015   8.756  13.937
41541W        W  802   4.433  19.210  12.428
41542W        W  803  19.630  14.258   2.811
41543W        W  804  22.599  31.947  13.512
41544W        W  805  37.010  42.931  13.848
41545W        W  806  43.312  41.821  10.470
41546W        W  807   6.856  22.162  12.852
41547W        W  808  41.895  17.190  10.478
41548W        W  809   1.737  26.106  14.794
41549W        W  810  37.355  19.092  14.968
41550W        W  811  12.685   5.258  10.463
41551W        W  812   8.741  25.709  13.031
41552W        W  813  23.524  32.891  13.464
41553W        W  814  20.079  25.974  13.447
41554W        W  815   5.746  27.646   3.700
41555W        W  816  44.316  29.435   2.316
41556W        W  817  29.641  28.987  10.136
41557W        W  818   8.298  14.160  12.013
41558W        W  819   8.332  40.939   4.185
41559W        W  820  43.329  40.455   2.889
41560W        W  821  41.498   9.751  13.541
41561W        W  822   3.454   6.700   0.242
41562W        W  823   1.328   8.177   3.827
41563W        W  824   9.360  32.106   0.958
41564W        W  825   6.230  22.117  11.496
41565W        W  826   4.297  28.565  13.426
41566W        W  827  44.960  17.158  14.772
41567W        W  828   9.841  26.595  12.464
41568W        W  829  39.345  13.223  14.326
41569W        W  830  23.092  25.122  14.790
41570W        W  831  31.614  43.942  12.855
41571W        W  832  26.107   2.853  13.932
41572W        W  833  10.750  43.328  14.481
41573W        W  834  18.772  22.716   1.874
41574W        W  835  12.677  29.039   1.695
41575W        W  836  20.627  24.120  11.965
41576W        W  837  41.997   8.203   2.296
41577W        W  838  36.403  33.584  14.870
41578W        W  839  28.549  11.762   1.843
41579W        W  840  15.183  22.007  10.926
41580W        W  841  25.003  32.518   3.271
41581W        W  842  30.529  40.809  10.092
41582W        W  843  24.627  27.542   4.148
41583W        W  844  23.707  15.139  12.340
41584W        W  845  12.640  14.127   0.365
41585W        W  846  24.480  24.142   0.740
41586W        W  847  27.975  11.693   5.288
41587W        W  848  19.661   9.878  13.437
41588W        W  849   4.317  32.921   0.741
41589W        W  850  33.984   0.486   3.810
41590W        W  851  23.119  44.326  14.926
41591W        W  852  30.912   5.771   1.399
41592W        W  853  30.560  23.099  14.470
41593W        W  854   4.818  40.522   1.855
41594W        W  855  17.092   9.251   4.274
41595W        W  856  11.330  35.890  14.980
41596W        W  857  40.944  10.879   1.375
41597W        W  858  16.316   5.350   3.844
41598W        W  859   3.884  44.011   0.860
41599W        W  860  13.316  43.948   0.897
41600W        W  861   0.815  11.867   4.727
41601W        W  862  18.547  33.989   0.366
41602W        W  863   8.243  31.439   0.254
41603W        W  864  37.535  22.526  13.438
41604W        W  865  13.127  36.088   0.274
41605W        W  866  14.812  23.985   0.960
41606W        W  867  26.577  14.594   1.283
41607W        W  868  23.608  38.343  13.321
41608W        W  869  38.425   3.945  14.402
41609W        W  870   0.494   5.768  12.078
41610W        W  871  29.143  40.350  11.387
41611W        W  872   1.873  14.735   0.320
41612W        W  873  37.437  33.530   0.773
41613W        W  874   9.356  36.379   3.348
41614W        W  875  31.064  35.951  13.907
41615W        W  876  12.179  39.039  14.284
41616W        W  877  42.475  24.173  13.469
41617W        W  878   8.383  40.002  12.450
41618W        W  879  14.659  17.160   3.839
41619W        W  880  34.440  31.064   3.861
41620W        W  881  30.499  44.910  11.570
41621W        W  882  26.480   2.454   2.670
41622W        W  883   0.748  29.664   1.818
41623W        W  884   1.929  43.303   3.385
41624W        W  885  18.206  12.704  14.336
41625W        W  886  13.236   0.387   3.275
41626W        W  887   6.228  20.266   2.896
41627W        W  888  36.430  27.152   1.258
41628W        W  889  20.083  37.054   3.200
41629W        W  890  39.048  21.668  11.870
41630W        W  891  11.360  43.849   4.204
41631W        W  892  16.709  24.699   3.814
41632W        W  893  37.970  41.361   2.415
41633W        W  894  17.183  31.048  13.428
41634W        W  895  12.723  36.060  13.470
41635W        W  896  43.835  10.286   0.765
41636W        W  897   2.755  16.605  13.016
41637W        W  898  38.040  31.042   4.610
41638W        W  899  24.176   1.966   3.318
41639W        W  900  20.555  34.578   4.176
41640W        W  901  19.678   8.725   1.262
41641W        W  902  35.096  37.552   0.914
41642W        W  903  32.040  44.916  12.549
41643W        W  904   8.828  26.007   0.323
41644W        W  905  27.605  22.999   0.474
41645W        W  906   9.229  37.578   3.299
41646W        W  907  15.801   5.382   4.663
41647W        W  908  43.294  10.138  12.082
41648W        W  909   5.730  10.280   2.697
41649W        W  910  15.604   9.315   1.381
41650W        W  911  17.625  16.214   0.901
41651W        W  912   3.855   2.348   1.377
41652W        W  913  25.973  11.210   2.359
41653W        W  914  25.991  33.492   4.804
41654W        W  915  40.391  25.518   1.240
41655W        W  916  14.112  23.586   1.404
41656W        W  917   5.309   9.263  12.540
41657W        W  918  24.171  14.119  13.460
41658W        W  919  24.122  29.524   1.919
41659W        W  920   1.310  43.511  11.413
41660W        W  921  20.652  44.857  11.063
41661W        W  922   2.340  30.579   3.771
41662W        W  923  28.982  38.900  11.457
41663W        W  924   8.310  43.430   1.329
41664W        W  925  44.426   4.844   4.123
41665W        W  926   2.818  40.469  14.868
41666W        W  927  31.430   8.754   2.299
41667W        W  928  22.653  40.487   2.410
41668W        W  929  38.995  38.359   2.243
41669W        W  930  10.371  23.004   4.691
41670W        W  931  40.430  37.084  12.082
41671W        W  932  41.446  35.104   0.800
41672W        W  933   6.363   9.852   1.881
41673W        W  934  24.065  30.647  12.909
41674W        W  935   9.791   2.302   4.265
41675W        W  936  17.253  23.231   1.216
41676W        W  937  15.300  10.274  11.042
41677W        W  938  25.542   3.741   2.374
41678W        W  939   2.762  37.018   1.327
41679W        W  940  12.198  19.215  12.379
41680W        W  941  17.268  37.353   1.369
41681W        W  942  13.138  31.966   1.832
41682W        W  943   6.861  33.449   1.362
41683W        W  944  41.954  41.442   5.274
41684W        W  945  24.492   8.390  11.450
41685W        W  946  33.921  22.569  13.885
41686W        W  947  43.934  23.647   4.255
41687W        W  948  44.972  21.202   2.268
41688W        W  949  15.581   7.192   4.158
41689W        W  950  30.027  15.293   2.214
41690W        W  951   5.774  33.494   0.777
41691W        W  952   5.378   0.318   0.297
41692W        W  953   5.730  43.844  14.449
41693W        W  954   9.274  40.382  12.915
41694W        W  955  21.595   3.274   2.391
41695W        W  956  23.676  32.615  12.438
41696W        W  957  44.982  16.774   0.940
41697W        W  958  29.448  20.734   2.880
41698W        W  959  38.831  33.991   2.851
41699W        W  960   8.846   8.271  10.614
41700W        W  961  43.833  17.237  12.489
41701W        W  962   8.712  21.178  10.437
41702W        W  963  26.157  42.857  11.492
41703W        W  964  10.760  41.532   3.370
41704W        W  965  42.521  29.088  13.317
41705W        W  966  26.600   1.948   1.828
41706W        W  967  28.176  20.672  11.575
41707W        W  968  27.094  19.194  11.482
41708W        W  969  16.206  27.476  10.432
41709W        W  970  17.601   0.851   4.221
41710W        W  971  43.503  30.518  11.911
41711W        W  972  10.769   0.872  10.481
41712W        W  973  38.863  22.550   2.732
41713W        W  974  42.378  44.907  10.496
41714W        W  975   4.716  43.374   0.440
41715W        W  976  43.352  22.156   1.285
41716W        W  977  17.114  19.176  12.349
41717W        W  978   2.236   4.851   4.602
41718W        W  979  31.448  37.834  10.075
41719W        W  980   7.854  33.618  12.414
41720W        W  981  22.150  13.681  13.992
41721W        W  982  29.469  33.038  12.884
41722W        W  983  23.064  31.416  13.513
41723W        W  984  33.393  24.990  13.873
41724W        W  985  36.414   8.844  13.954
41725W        W  986  35.420  26.629  14.017
41726W        W  987   2.409   4.764   1.884
41727W        W  988  21.213  41.992  13.537
41728W        W  989  21.226  42.823   5.203
41729W        W  990   6.913   8.722   2.833
41730W        W  991  36.404  33.465   3.704
41731W        W  992   5.813  12.611   2.899
41732W        W  993   9.725  33.897   0.465
41733W        W  994   1.796  32.008  12.847
41734W        W  995   0.487   5.739   1.811
41735W        W  996  18.074  34.475   2.397
41736W        W  997  31.581  33.924  13.403
41737W        W  998  35.363   1.304   0.363
41738W        W  999  40.345  14.669   2.270
41739W        W 1000  38.421  44.771  12.920
41740W        W 1001   2.310  41.793   1.314
41741W        W 1002  24.686   6.314  14.896
41742W        W 1003  16.282  28.125  13.375
41743W        W 1004  30.044  18.280   1.348
41744W        W 1005   1.859   4.743   1.414
41745W        W 1006   9.828   7.411  11.472
41746W        W 1007  37.509  10.182  14.819
41747W        W 1008  39.528   3.736   3.761
41748W        W 1009  27.040  44.393   0.925
41749W        W 1010  37.411  23.685   2.744
41750W        W 1011   7.765  39.963  13.973
41751W        W 1012  14.114   6.330   1.761
41752W        W 1013   3.280  12.756  12.052
41753W        W 1014  43.486   7.368   0.960
41754W        W 1015  41.466  32.525  14.493
41755W        W 1016  29.922  41.033  10.481
41756W        W 1017  29.526   6.817   3.324
41757W        W 1018  42.355  29.919  10.535
41758W        W 1019  34.533  23.241  13.487
41759W        W 1020  28.143  40.405  13.978
41760W        W 1021  30.069  37.836   3.666
41761W        W 1022   4.212  27.017   3.185
41762W        W 1023   0.819  32.041   3.738
41763W        W 1024  11.682  40.540  12.504
41764W        W 1025  18.126  18.570  10.934
41765W        W 1026  35.990  13.702   1.228
41766W        W 1027  17.674   1.369   3.335
41767W        W 1028  14.283  15.730   0.778
41768W        W 1029  41.333  19.706  14.316
41769W        W 1030  13.663  29.169   2.241
41770W        W 1031  24.674  43.500  12.389
41771W        W 1032  18.559   7.908  12.019
41772W        W 1033  13.266  36.915  14.391
41773W        W 1034  18.094  38.827   0.862
41774W        W 1035  11.275  24.056   0.438
41775W        W 1036  19.067  19.605  14.786
41776W        W 1037  15.217  41.465  14.277
41777W        W 1038  22.247   6.232  12.462
41778W        W 1039  38.477   4.240   0.884
41779W        W 1040   9.701   7.185   3.261
41780W        W 1041  17.211  28.017   1.910
41781W        W 1042   9.256  28.057   3.279
41782W        W 1043  29.583  26.522   0.426
41783W        W 1044  38.961  11.806  11.007
41784W        W 1045   3.872  43.887  14.297
41785W        W 1046  14.665  29.156   3.696
41786W        W 1047  10.653  13.242  13.052
41787W        W 1048  27.986   5.807  14.373
41788W        W 1049  14.161  23.584   0.806
41789W        W 1050  43.302  22.573  14.405
41790W        W 1051  34.986  41.501  13.509
41791W        W 1052  39.947  16.202   2.710
41792W        W 1053  22.052  23.146  13.502
41793W        W 1054  32.413  26.695   4.770
41794W        W 1055   3.851  39.471   0.457
41795W        W 1056   0.406  13.635   1.864
41796W        W 1057  21.642  36.968   4.828
41797W        W 1058   8.234   8.668   5.126
41798W        W 1059  10.164  39.918  13.525
41799W        W 1060  30.567  27.627   3.702
41800W        W 1061  41.935   6.895  12.340
41801W        W 1062  39.948  31.562  14.799
41802W        W 1063   4.296  23.202  12.485
41803W        W 1064  14.626  28.028  11.054
41804W        W 1065  34.105  39.846  14.442
41805W        W 1066  40.437  21.234   4.181
41806W        W 1067  17.661  11.661  12.861
41807W        W 1068  25.629   2.807   4.663
41808W        W 1069  14.711  26.102  12.923
41809W        W 1070  30.951   2.343  13.883
41810W        W 1071   9.876   0.397   2.319
41811W        W 1072  13.744  17.729   3.308
41812W        W 1073   3.305  41.000  11.442
41813W        W 1074  34.488  33.063  12.351
41814W        W 1075  39.558  25.016  12.468
41815W        W 1076  33.067  21.214  13.029
41816W        W 1077   2.385   1.920   9.999
41817W        W 1078   6.371  28.617  14.433
41818W        W 1079  30.967   2.352   2.716
41819W        W 1080  19.255  13.637   2.800
41820W        W 1081   4.923   7.325  13.347
41821W        W 1082  19.192   2.940  12.401
41822W        W 1083  13.644  34.103  11.081
41823W        W 1084  18.149   3.331   1.402
41824W        W 1085  40.806  28.963  13.038
41825W        W 1086  35.050  42.008  11.066
41826W        W 1087  16.126  36.470   2.770
41827W        W 1088   9.855   7.903  12.040
41828W        W 1089  16.706  10.267   4.612
41829W        W 1090   2.944  28.155  14.980
41830W        W 1091  35.078  26.686   4.273
41831W        W 1092  20.169  29.170   0.744
41832W        W 1093  34.109  14.814  14.434
41833W        W 1094  30.630  23.136   3.175
41834W        W 1095  11.691  16.312   4.761
41835W        W 1096  39.885  32.520  10.998
41836W        W 1097   5.378  12.794  11.087
41837W        W 1098  22.009   3.275   5.159
41838W        W 1099  10.774  19.234  13.359
41839W        W 1100  27.968  23.545  12.501
41840W        W 1101  43.405   9.873   2.200
41841W        W 1102  27.458  22.611  12.953
41842W        W 1103  12.678  37.429  11.958
41843W        W 1104  15.109  16.688   2.872
41844W        W 1105  43.891  36.481  11.428
41845W        W 1106   6.692  42.332   1.911
41846W        W 1107  35.058   4.400  13.928
41847W        W 1108  28.449  27.531   4.126
41848W        W 1109  38.017  18.091  12.934
41849W        W 1110  30.439  23.703   2.865
41850W        W 1111   7.909  14.161   3.758
41851W        W 1112  29.970  17.103  11.063
41852W        W 1113  41.932  27.618   1.306
41853W        W 1114  15.638  22.039  11.442
41854W        W 1115  35.407  40.410   2.199
41855W        W 1116  13.750  33.906   2.788
41856W        W 1117  38.831   9.264   2.329
41857W        W 1118   3.336  30.535   4.633
41858W        W 1119  33.057  42.461  12.354
41859W        W 1120  24.550   0.968   1.753
41860W        W 1121  34.372  15.158   0.925
41861W        W 1122  35.456  19.259  11.080
41862W        W 1123   7.367  40.857  10.424
41863W        W 1124  35.460  14.237   1.834
41864W        W 1125  18.270   7.877   2.381
41865W        W 1126  21.708  34.553   0.904
41866W        W 1127  37.929  23.711   4.608
41867W        W 1128  36.975   3.883  13.986
41868W        W 1129  29.430   0.255  11.379
41869W        W 1130   9.838   6.853   0.433
41870W        W 1131  10.789  34.592  10.445
41871W        W 1132  19.084  27.151   3.364
41872W        W 1133   0.882  40.893   1.320
41873W        W 1134  41.926  26.123   4.272
41874W        W 1135  27.963   9.817  11.058
41875W        W 1136   0.775   8.171  13.533
41876W        W 1137  36.431  22.160  11.088
41877W        W 1138   9.285   8.332   3.298
41878W        W 1139  42.388  23.080   4.619
41879W        W 1140  14.764   0.751   0.289
41880W        W 1141  41.976  31.007   3.834
41881W        W 1142  26.090   9.869   0.316
41882W        W 1143   7.323  13.305  10.919
41883W        W 1144  13.621  32.398  12.932
41884W        W 1145  16.697   2.775   3.302
41885W        W 1146  12.167  23.075  10.563
41886W        W 1147  40.841  31.440  13.522
41887W        W 1148  12.630  13.665   3.783
41888W        W 1149  21.099  41.037  11.386
41889W        W 1150  31.006  33.439   4.292
41890W        W 1151  10.702   4.317   3.354
41891W        W 1152   1.807  34.588   0.893
41892W        W 1153  44.497  15.782   1.702
41893W        W 1154  10.875   5.705   9.567
41894W        W 1155  27.467  32.613  14.507
41895W        W 1156   9.266  23.142  11.123
41896W        W 1157  32.045  31.402   0.941
41897W        W 1158  10.219  39.423   1.894
41898W        W 1159  39.454  27.548   1.271
41899W        W 1160   8.308   9.716   0.273
41900W        W 1161  18.062  35.861   2.248
41901W        W 1162  13.346  12.839   0.271
41902W        W 1163   1.476  10.722  10.599
41903W        W 1164  21.072   1.946   3.834
41904W        W 1165  10.636   3.241   1.731
41905W        W 1166  26.079  19.756   1.334
41906W        W 1167  20.528  25.630   0.360
41907W        W 1168  11.278  10.278   0.453
41908W        W 1169  41.846  44.961   2.823
41909W        W 1170  33.589  14.812   2.678
41910W        W 1171   2.386   5.317   2.820
41911W        W 1172   4.942  42.935   3.219
41912W        W 1173  25.030  29.627   2.834
41913W        W 1174   8.328  34.437   4.249
41914W        W 1175  38.967   2.315  10.604
41915W        W 1176  37.448  34.563   2.191
41916W        W 1177   2.353  27.519   0.302
41917W        W 1178  22.598  14.190   0.857
41918W        W 1179   8.693  43.361   2.831
41919W        W 1180  27.005  17.072   4.341
41920W        W 1181  24.598   7.314  11.421
41921W        W 1182  18.245  19.594  12.092
41922W        W 1183  41.292   0.280   3.763
41923W        W 1184  38.401   0.301  10.616
41924W        W 1185  43.298   6.416   0.393
41925W        W 1186  21.238  33.388   3.264
41926W        W 1187  25.989   2.401  11.574
41927W        W 1188  15.325   7.247   0.411
41928W        W 1189  28.629  31.403   0.951
41929W        W 1190  10.863  14.614  14.481
41930W        W 1191  12.729  24.120   0.879
41931W        W 1192  41.881  34.056  12.467
41932W        W 1193  22.731   2.226  10.897
41933W        W 1194   8.295  20.525   0.748
41934W        W 1195  28.114  13.774  10.992
41935W        W 1196  38.896   9.755  10.469
41936W        W 1197   3.902  38.548   3.811
41937W        W 1198  13.225  33.024   0.384
41938W        W 1199  27.087  12.625   2.409
41939W        W 1200   1.461   5.204  13.484
41940W        W 1201   3.788  27.508  11.469
41941W        W 1202  33.514   8.273   0.412
41942W        W 1203  25.199  38.981   0.395
41943W        W 1204  33.478  27.629   1.235
41944W        W 1205  13.796  29.157   0.438
41945W        W 1206  17.632  40.481   2.302
41946W        W 1207  28.991  19.703   3.207
41947W        W 1208  14.168  31.023   9.460
41948W        W 1209  17.694  25.220   3.279
41949W        W 1210  25.673  40.917   2.662
41950W        W 1211  36.552  19.624   1.742
41951W        W 1212  28.626   2.329   3.643
41952W        W 1213  13.727  33.426   4.710
41953W        W 1214   7.889  16.236   0.341
41954W        W 1215   2.331  20.179  13.490
41955W        W 1216  35.592  12.161   4.707
41956W        W 1217  35.579  25.651   1.332
41957W        W 1218  42.788  41.328   3.708
41958W        W 1219  28.552  20.749   3.361
41959W        W 1220  28.611  31.119   0.355
41960W        W 1221  11.826   9.699   2.740
41961W        W 1222   5.224  29.576   0.734
41962W        W 1223  20.602  31.134  11.452
41963W        W 1224  23.106  30.493  11.394
41964W        W 1225  20.530  37.874   2.263
41965W        W 1226  17.168  18.741   2.883
41966W        W 1227  13.839  16.136  11.475
41967W        W 1228  35.572  31.476   1.388
41968W        W 1229  30.972  11.275  12.420
41969W        W 1230  20.703  24.597  12.528
41970W        W 1231  37.934   6.767  10.618
41971W        W 1232  10.729   0.269   2.832
41972W        W 1233   5.903  42.478  12.395
41973W        W 1234  27.555  37.963   4.664
41974W        W 1235  36.922  24.480  11.554
41975W        W 1236  44.354  15.759  13.433
41976W        W 1237  29.042  44.910   0.931
41977W        W 1238   0.316  28.145   2.198
41978W        W 1239  39.852   6.795   1.253
41979W        W 1240  19.247   8.387  12.028
41980W        W 1241  22.054  16.668  14.773
41981W        W 1242  42.949  15.610   0.736
41982W        W 1243  33.582  24.521   1.762
41983W        W 1244  22.061  28.512  11.506
41984W        W 1245  13.293  27.088  12.354
41985W        W 1246  20.077  39.044  13.809
41986W        W 1247   1.476   6.791  12.846
41987W        W 1248  11.748  34.957  14.513
41988W        W 1249  38.524  10.746  10.571
41989W        W 1250  41.798  13.105  10.418
41990W        W 1251  19.106  25.026  12.090
41991W        W 1252  33.621   4.723   3.331
41992W        W 1253  25.498  40.034  14.818
41993W        W 1254  22.191  16.127   2.363
41994W        W 1255  15.296  23.011   4.692
41995W        W 1256  26.694  44.328  13.941
41996W        W 1257   8.397  15.137  11.980
41997W        W 1258  32.518   8.706   2.262
41998W        W 1259  42.906   8.270  14.509
41999W        W 1260  42.936  18.699   3.168
42000W        W 1261   0.435   1.277  14.399
42001W        W 1262   3.379  26.569   2.219
42002W        W 1263  39.903  23.530   3.795
42003W        W 1264   5.906   5.212   0.303
42004W        W 1265  31.970   0.943   4.697
42005W        W 1266  34.904   8.792   0.352
42006W        W 1267   4.438  37.444   4.829
42007W        W 1268   5.763  23.038  12.440
42008W        W 1269  17.125   9.661   3.240
42009W        W 1270  22.644  31.052  14.862
42010W        W 1271  21.028  34.460  10.466
42011W        W 1272   8.303  39.495  11.904
42012W        W 1273  14.734  32.136  12.828
42013W        W 1274  26.558  21.558   3.287
42014W        W 1275  42.367  25.168  11.396
42015W        W 1276  36.357  19.701  11.542
42016W        W 1277  21.676  33.545   2.711
42017W        W 1278  31.646  31.516   2.345
42018W        W 1279  13.289  27.544  10.448
42019W        W 1280  24.499   7.712   4.235
42020W        W 1281  25.495  37.020  14.812
42021W        W 1282  11.310  16.592  13.957
42022W        W 1283  44.338  18.684   3.258
42023W        W 1284  36.091   0.818   2.838
42024W        W 1285  23.166  35.549   2.404
42025W        W 1286  38.486  21.579   4.604
42026W        W 1287  33.508   2.410   3.854
42027W        W 1288  17.253  30.100   4.220
42028W        W 1289  24.654  10.166   1.728
42029W        W 1290  34.947   9.665   1.353
42030W        W 1291  39.324  19.657  11.514
42031W        W 1292  34.521   6.758   2.303
42032W        W 1293  37.937  26.624   3.753
42033W        W 1294   3.283  19.627  13.808
42034W        W 1295   2.878  30.535   2.349
42035W        W 1296  17.154   9.759  10.892
42036W        W 1297   7.697  43.386  13.980
42037W        W 1298  35.072  12.769  11.442
42038W        W 1299  40.330   2.467  13.484
42039W        W 1300   2.736  17.145  11.102
42040W        W 1301  39.032  32.480  14.433
42041W        W 1302  22.738  40.532   0.957
42042W        W 1303  11.371  25.071   2.405
42043W        W 1304  22.142   6.234  13.896
42044W        W 1305   0.250  30.056   2.201
42045W        W 1306   2.447  26.038   3.260
42046W        W 1307  34.461   5.352  12.418
42047W        W 1308   9.215  17.574   0.484
42048W        W 1309  31.612  19.719  14.333
42049W        W 1310  12.685  36.963  13.853
42050W        W 1311  43.292  18.777  12.840
42051W        W 1312  38.350   6.330  13.845
42052W        W 1313  15.269  17.069  14.946
42053W        W 1314  19.632   8.287   0.334
42054W        W 1315  30.935  29.941   2.798
42055W        W 1316  33.116  29.140  12.421
42056W        W 1317  13.667   8.668   2.324
42057W        W 1318  13.301   7.276  11.009
42058W        W 1319   7.904  44.770   1.253
42059W        W 1320  30.432  43.490   9.960
42060W        W 1321  19.278  15.602   4.351
42061W        W 1322  42.351   5.412  12.575
42062W        W 1323   5.279   9.210  14.814
42063W        W 1324  14.296   4.294   0.385
42064W        W 1325  20.197   1.453  12.845
42065W        W 1326   6.746  11.632  11.918
42066W        W 1327  16.239   8.711  13.362
42067W        W 1328  34.077  12.233   2.237
42068W        W 1329  28.170   6.208  14.504
42069W        W 1330  29.509   6.411  12.455
42070W        W 1331  23.598  28.995   2.790
42071W        W 1332  35.869  44.816   1.387
42072W        W 1333  44.406  24.596  10.028
42073W        W 1334  30.444  39.012   4.783
42074W        W 1335  15.700  20.054   9.513
42075W        W 1336  41.798  41.974  13.426
42076W        W 1337  11.209  17.135   2.204
42077W        W 1338   4.865  38.431  13.828
42078W        W 1339  25.143   7.182   4.822
42079W        W 1340  36.446  29.938  12.491
42080W        W 1341  30.934  44.456   4.168
42081W        W 1342  18.093  37.963   0.416
42082W        W 1343  30.109   5.901   4.704
42083W        W 1344  31.055  20.607   4.719
42084W        W 1345  32.904  27.122  12.940
42085W        W 1346  10.156  26.201   0.780
42086W        W 1347  33.881  31.983  11.902
42087W        W 1348  33.444  38.509  14.472
42088W        W 1349  16.149  22.062   2.810
42089W        W 1350  36.048  10.239  12.513
42090W        W 1351   3.795  30.031   4.198
42091W        W 1352  41.340  30.148  14.400
42092W        W 1353  29.171  31.150   4.611
42093W        W 1354  27.131  37.962   4.801
42094W        W 1355  40.521   7.762   2.188
42095W        W 1356  33.545  38.007  10.938
42096W        W 1357  34.399   7.314   3.849
42097W        W 1358   2.890  26.502  14.936
42098W        W 1359   2.871  18.227  11.494
42099W        W 1360  19.252  28.548   3.736
42100W        W 1361  38.447  31.934   4.351
42101W        W 1362   6.779   4.346   0.295
42102W        W 1363   4.210  34.415  12.022
42103W        W 1364  28.022  38.946  10.981
42104W        W 1365  33.556  37.383   5.163
42105W        W 1366  24.683  13.283  12.096
42106W        W 1367   4.831  40.402   1.370
42107W        W 1368  15.658  37.580  12.523
42108W        W 1369   0.405  26.625   3.840
42109W        W 1370   2.848  31.002  12.493
42110W        W 1371  37.001   3.934   2.838
42111W        W 1372   4.843  42.782   2.847
42112W        W 1373   4.306  22.037  11.033
42113W        W 1374  44.971  15.245  12.438
42114W        W 1375   8.695  25.149   0.292
42115W        W 1376   6.345   2.317  14.779
42116W        W 1377  39.058   4.768   0.894
42117W        W 1378  34.610  32.943  10.998
42118W        W 1379   8.401  40.525  11.897
42119W        W 1380  42.027  24.706  10.949
42120W        W 1381  17.258  25.019  13.057
42121W        W 1382  36.490   1.871  10.991
42122W        W 1383  17.235   2.837   2.783
42123W        W 1384  30.440   4.842   1.730
42124W        W 1385   1.747   7.170  12.343
42125W        W 1386   2.462   4.221   4.728
42126W        W 1387  31.471  28.168  14.844
42127W        W 1388   7.352  21.101  10.117
42128W        W 1389  44.773  27.555   1.885
42129W        W 1390   4.703  27.084   1.380
42130W        W 1391   1.734  10.873   2.825
42131W        W 1392  23.519  17.308   4.198
42132W        W 1393   5.368   4.863   0.475
42133W        W 1394  29.478  22.047  11.431
42134W        W 1395  34.484  31.540   3.266
42135W        W 1396  43.349   2.855  11.007
42136W        W 1397   8.291  15.621   2.774
42137W        W 1398   4.879  37.489   0.276
42138W        W 1399  32.122  37.482   1.724
42139W        W 1400  10.735  31.065   3.276
42140W        W 1401  35.441  34.510   2.297
42141W        W 1402  19.281  16.742  11.408
42142W        W 1403  44.006   4.294   1.325
42143W        W 1404  30.003   9.327  12.027
42144W        W 1405  32.072  39.398   4.332
42145W        W 1406  29.538  28.942   3.201
42146W        W 1407   7.180  36.922  14.360
42147W        W 1408   3.348  28.135  13.484
42148W        W 1409  44.408  31.461  11.008
42149W        W 1410  23.659   8.395  13.012
42150W        W 1411  39.325  26.174   0.268
42151W        W 1412  37.937  44.856  10.567
42152W        W 1413  30.056   3.859   1.324
42153W        W 1414  37.497  29.570  14.858
42154W        W 1415  44.913  39.325  13.367
42155W        W 1416   6.313  18.687  14.819
42156W        W 1417   4.709   3.265   1.218
42157W        W 1418   2.425  15.763   4.190
42158W        W 1419  31.998  33.073   1.769
42159W        W 1420  29.948   9.656  14.900
42160W        W 1421  27.087  39.360  11.964
42161W        W 1422  34.487  26.567  11.613
42162W        W 1423  22.228  24.029  12.494
42163W        W 1424  25.603  37.502   4.805
42164W        W 1425   5.297  41.032   4.200
42165W        W 1426  10.359  25.201   2.295
42166W        W 1427  23.129  30.618   1.345
42167W        W 1428  39.322  37.373  11.553
42168W        W 1429   0.815  14.695   4.665
42169W        W 1430  10.371  29.963   0.391
42170W        W 1431  20.531  44.422  14.334
42171W        W 1432  39.331  28.137   2.406
42172W        W 1433   4.738   7.838  12.021
42173W        W 1434  24.602  41.306   1.880
42174W        W 1435  28.572  21.042   0.899
42175W        W 1436   6.422  43.320  11.507
42176W        W 1437   4.400  43.398  13.844
42177W        W 1438  37.387  42.795  10.630
42178W        W 1439   5.879   0.925   0.810
42179W        W 1440  44.984  33.032  13.438
42180W        W 1441   2.445  39.501  13.460
42181W        W 1442  20.582  31.622   0.732
42182W        W 1443  38.053  32.997   0.363
42183W        W 1444  10.777   2.958   0.906
42184W        W 1445  35.081  15.685   0.781
42185W        W 1446  12.254  41.812  13.984
42186W        W 1447  11.855   1.867  14.026
42187W        W 1448  19.238  10.638   4.799
42188W        W 1449  16.236  20.169  14.773
42189W        W 1450  36.082   1.903  11.914
42190W        W 1451  23.063  44.856  10.957
42191W        W 1452  26.195  27.086   2.903
42192W        W 1453  14.129  43.289  11.877
42193W        W 1454  23.537  32.011   2.342
42194W        W 1455  28.625  39.402  14.400
42195W        W 1456  24.104   0.298  12.373
42196W        W 1457  15.121  23.133   0.443
42197W        W 1458   8.254   3.711  13.796
42198W        W 1459  36.028  17.651   4.679
42199W        W 1460   7.287  38.051   3.731
42200W        W 1461  44.825   7.683   3.163
42201W        W 1462  20.183   7.271  13.470
42202W        W 1463   8.396   4.830  11.101
42203W        W 1464  35.502   0.908   3.802
42204W        W 1465  35.969  20.614  10.618
42205W        W 1466  41.894  13.727   1.266
42206W        W 1467  11.186  34.076  10.457
42207W        W 1468  38.854  29.076   1.696
42208W        W 1469  21.629  33.015  13.043
42209W        W 1470  32.535  32.566   2.411
42210W        W 1471   4.809  15.193   0.249
42211W        W 1472   3.281  23.206  12.422
42212W        W 1473   1.313   2.863  11.561
42213W        W 1474  12.850  37.335  10.455
42214W        W 1475  21.216  38.478   4.831
42215W        W 1476  10.361  40.393   4.804
42216W        W 1477   0.746   8.775   3.375
42217W        W 1478  27.610  39.849   4.129
42218W        W 1479  15.721  39.911   1.923
42219W        W 1480  15.266  15.173   3.646
42220W        W 1481  14.216  36.007  13.823
42221W        W 1482  26.052  39.536   0.891
42222W        W 1483  31.601   8.776   0.263
42223W        W 1484   1.976  32.438   4.202
42224W        W 1485  22.197  26.618  11.482
42225W        W 1486  10.381  15.654  12.495
42226W        W 1487  27.999  18.616   1.268
42227W        W 1488  33.062  32.447  11.911
42228W        W 1489  27.146  24.707  13.487
42229W        W 1490   0.859  26.074  10.434
42230W        W 1491  34.942   7.396   5.097
42231W        W 1492  14.187  38.032   3.799
42232W        W 1493  36.994  41.438   3.366
42233W        W 1494  32.030   1.772  13.950
42234W        W 1495  10.646   1.949  14.004
42235W        W 1496  17.238  22.070   2.381
42236W        W 1497  26.486  28.139  10.490
42237W        W 1498  44.767  30.949   3.151
42238W        W 1499   3.838  39.392  13.473
42239W        W 1500   6.280   2.805  13.850
42240W        W 1501  28.660  19.776  14.836
42241W        W 1502  38.893   3.721  12.080
42242W        W 1503  38.565  27.667   4.214
42243W        W 1504  38.354  32.463  12.062
42244W        W 1505   3.334   4.758  13.941
42245W        W 1506  31.438  20.079   4.813
42246W        W 1507  25.685  37.365   0.473
42247W        W 1508  11.722  26.992   2.893
42248W        W 1509  29.519  39.474  13.543
42249W        W 1510  21.207  41.457  12.979
42250W        W 1511  10.334  35.533   0.903
42251W        W 1512   7.691  27.173   3.366
42252W        W 1513  16.227  35.399  14.842
42253W        W 1514  42.507   8.733  14.004
42254W        W 1515  25.033  13.746  13.355
42255W        W 1516  41.480   4.751  14.932
42256W        W 1517  41.039  11.693   1.301
42257W        W 1518  29.008   0.299   4.782
42258W        W 1519   6.745   5.358  14.809
42259W        W 1520  33.102  16.643   3.699
42260W        W 1521  43.787  24.479  13.512
42261W        W 1522   2.858  10.292  14.978
42262W        W 1523  29.473  40.004  14.839
42263W        W 1524  22.590   0.825   5.119
42264W        W 1525   7.894  32.967  11.578
42265W        W 1526  29.092   7.215  14.766
42266W        W 1527  22.077  22.563  12.892
42267W        W 1528  32.943  16.645  12.834
42268W        W 1529  22.148  15.165   3.267
42269W        W 1530   3.379  18.579  10.904
42270W        W 1531  32.077  10.271   5.633
42271W        W 1532  39.903  25.985   4.253
42272W        W 1533  28.018  29.005   3.336
42273W        W 1534  17.152   3.896  13.936
42274W        W 1535   3.906   0.877  13.049
42275W        W 1536  31.965  31.541   4.777
42276W        W 1537  27.679  24.654   5.752
42277W        W 1538   1.742  35.973   3.380
42278W        W 1539  31.436  39.348  14.446
42279W        W 1540  30.135  31.622   1.898
42280W        W 1541   5.727   8.170   4.311
42281W        W 1542  19.262  33.407   4.698
42282W        W 1543  24.133  33.480  13.931
42283W        W 1544  12.806  20.049   2.197
42284W        W 1545   0.746  16.156   0.939
42285W        W 1546   0.945   7.900   4.643
42286W        W 1547  15.656   2.850   4.261
42287W        W 1548  10.877  34.403   3.285
42288W        W 1549  25.706   7.719   4.678
42289W        W 1550  13.696  24.538  12.850
42290W        W 1551  10.732   8.683  12.971
42291W        W 1552  21.660   5.310  11.950
42292W        W 1553   2.341  37.380   0.836
42293W        W 1554   9.866   6.279   2.310
42294W        W 1555   3.900  37.982  13.863
42295W        W 1556  29.666   0.408   5.188
42296W        W 1557  35.043  39.891  14.321
42297W        W 1558  18.712  23.073   3.153
42298W        W 1559  36.511  17.228  10.532
42299W        W 1560  36.925  18.577   3.788
42300W        W 1561  14.652   6.883   1.912
42301W        W 1562  22.115  20.261  13.339
42302W        W 1563  27.688  35.864   1.392
42303W        W 1564  28.550   5.797  12.043
42304W        W 1565  14.683   6.839  14.944
42305W        W 1566  23.174  39.372  14.778
42306W        W 1567  30.451  22.533   3.232
42307W        W 1568  18.717  34.375  10.944
42308W        W 1569  31.945  16.200  14.930
42309W        W 1570  18.728  15.585  10.636
42310W        W 1571  28.646  39.030   3.690
42311W        W 1572   2.741  15.757   3.832
42312W        W 1573   1.315  33.916  14.017
42313W        W 1574  14.632  26.082  12.057
42314W        W 1575  36.989  28.157  13.436
42315W        W 1576  33.608  34.016  10.932
42316W        W 1577  44.398  44.277   5.101
42317W        W 1578  23.587  41.032   4.314
42318W        W 1579  25.518  40.823   2.287
42319W        W 1580  36.945  38.419  13.369
42320W        W 1581  23.990  23.085   4.296
42321W        W 1582  19.103  34.885   0.808
42322W        W 1583  29.129  21.170   1.924
42323W        W 1584  33.125   6.422   4.335
42324W        W 1585  29.472  21.258   3.766
42325W        W 1586  13.179  12.712  14.016
42326W        W 1587  25.512  23.175   1.353
42327W        W 1588  20.655  25.180   5.798
42328W        W 1589   7.177   0.313  11.071
42329W        W 1590  31.095  24.576  12.873
42330W        W 1591  29.037  33.988  13.498
42331W        W 1592   4.769  21.587  12.457
42332W        W 1593  28.016  34.050   3.270
42333W        W 1594  42.314  20.659  11.559
42334W        W 1595  44.462  26.555  13.307
42335W        W 1596  40.392  30.435  13.377
42336W        W 1597  17.285  11.756   0.269
42337W        W 1598  42.978  32.927  14.818
42338W        W 1599  19.141  37.451  12.473
42339W        W 1600  17.200   2.955   1.833
42340W        W 1601  36.016  10.195  12.961
42341W        W 1602   8.719  21.717  14.421
42342W        W 1603  21.639   2.354   1.933
42343W        W 1604   2.445  14.215   0.461
42344W        W 1605  40.054   2.400   3.295
42345W        W 1606  24.488  30.611   3.774
42346W        W 1607   9.736  44.459  12.476
42347W        W 1608  22.660  19.568   4.688
42348W        W 1609  11.700  41.359  13.827
42349W        W 1610   6.746  16.807   2.777
42350W        W 1611  15.711  21.246   2.324
42351W        W 1612  11.658  32.529  12.968
42352W        W 1613  31.444  12.252  11.866
42353W        W 1614  40.314  35.047  12.931
42354W        W 1615  33.586   4.396  10.411
42355W        W 1616  29.930  40.952   1.384
42356W        W 1617  20.161  19.743   0.939
42357W        W 1618  39.857   6.816  13.437
42358W        W 1619  31.403  44.947  11.486
42359W        W 1620  21.166  42.378  12.427
42360W        W 1621  26.971  41.526  12.940
42361W        W 1622   2.410  12.797   2.196
42362W        W 1623  28.167   8.714  13.946
42363W        W 1624  34.514  15.782  12.553
42364W        W 1625  40.994  44.756   1.807
42365W        W 1626  32.418   7.901  12.044
42366W        W 1627  11.174  15.083   4.760
42367W        W 1628  29.586  40.544  12.555
42368W        W 1629  42.943  23.655  11.487
42369W        W 1630  40.399  27.111   3.323
42370W        W 1631  14.681  39.340   4.666
42371W        W 1632  14.709  33.579  14.284
42372W        W 1633   5.756  19.217   0.410
42373W        W 1634  43.001   8.854   2.201
42374W        W 1635   7.789   2.899   1.374
42375W        W 1636  40.358  19.262   0.896
42376W        W 1637  23.718  14.592   4.180
42377W        W 1638  27.142   4.263  10.431
42378W        W 1639  11.644  35.968  13.836
42379W        W 1640   3.748  20.177  14.952
42380W        W 1641   0.358  24.569  13.863
42381W        W 1642   1.955   7.310   4.702
42382W        W 1643  32.511  25.689  13.458
42383W        W 1644  13.782  36.359  13.793
42384W        W 1645  12.205  18.707   0.787
42385W        W 1646  28.996  37.533   3.712
42386W        W 1647  39.910  19.115  14.971
42387W        W 1648  31.647  43.824   3.344
42388W        W 1649  38.532  15.699   1.411
42389W        W 1650   1.804  36.966  11.934
42390W        W 1651  42.899  42.974  10.070
42391W        W 1652  38.980  32.562   1.794
42392W        W 1653  41.501  11.171  13.934
42393W        W 1654  27.675  20.128  10.960
42394W        W 1655  28.509  29.500  11.995
42395W        W 1656  18.552  36.038  12.021
42396W        W 1657  37.532  43.411   5.640
42397W        W 1658  34.899  42.950   2.804
42398W        W 1659  16.128   5.340   0.747
42399W        W 1660   8.285  15.188  10.946
42400W        W 1661  37.967  28.458   0.276
42401W        W 1662  40.364  34.982  13.508
42402W        W 1663  18.074   8.670   2.193
42403W        W 1664   7.199  30.104  13.976
42404W        W 1665   3.379  12.256  14.387
42405W        W 1666  18.771  16.165  11.526
42406W        W 1667   2.366  22.578  12.871
42407W        W 1668  11.204  40.996  13.038
42408W        W 1669  28.477   8.767  10.561
42409W        W 1670  38.910  26.976   4.171
42410W        W 1671   0.861  12.785   0.403
42411W        W 1672   8.360   6.787  12.847
42412W        W 1673  34.980  43.872  11.866
42413W        W 1674  33.383   2.299   4.296
42414W        W 1675   2.340  27.159   2.359
42415W        W 1676   5.338   6.917   9.443
42416W        W 1677  17.785  10.743   0.259
42417W        W 1678  17.592  33.083  10.420
42418W        W 1679  17.575  21.203   2.736
42419W        W 1680   6.289   8.394   2.823
42420W        W 1681  26.097  39.879   2.199
42421W        W 1682  13.194  13.733  14.394
42422W        W 1683  27.055  36.955   2.743
42423W        W 1684   5.337   0.349  11.560
42424W        W 1685  14.285  35.574  11.409
42425W        W 1686  12.345  42.982   2.227
42426W        W 1687  17.154  10.776   2.388
42427W        W 1688  19.688   8.722  12.024
42428W        W 1689  42.457  29.110  12.995
42429W        W 1690  26.191  11.737   1.782
42430W        W 1691  22.634   7.689  10.521
42431W        W 1692  42.864  32.982  11.129
42432W        W 1693  16.619  34.563   1.220
42433W        W 1694  28.540  21.108  14.797
42434W        W 1695  40.880   8.745   4.319
42435W        W 1696   3.431  40.896   4.662
42436W        W 1697  13.786   1.414   4.710
42437W        W 1698  21.514  15.772   2.325
42438W        W 1699  11.168   9.214   0.461
42439W        W 1700  32.138  10.784  10.629
42440W        W 1701  40.382  33.922   1.935
42441W        W 1702   1.390  32.079   1.397
42442W        W 1703   8.271  38.458  11.887
42443W        W 1704   5.898  43.464  14.411
42444W        W 1705  43.868  29.491  10.618
42445W        W 1706   8.822  11.237  14.331
42446W        W 1707  13.681  28.584   2.688
42447W        W 1708  14.710  16.144   0.824
42448W        W 1709   3.269  35.572  12.913
42449W        W 1710  38.886   2.383   0.462
42450W        W 1711  16.200  27.551   0.966
42451W        W 1712  29.581  38.931  11.479
42452W        W 1713  21.217  42.486   4.199
42453W        W 1714  36.571   9.321  13.953
42454W        W 1715  44.950  31.923  14.941
42455W        W 1716   9.205  37.372  10.900
42456W        W 1717   0.393  29.168   1.779
42457W        W 1718  37.895  23.730  11.115
42458W        W 1719  18.572  16.135   0.477
42459W        W 1720  13.183   4.265   0.282
42460W        W 1721  11.647  43.395  10.960
42461W        W 1722  37.401  28.176  12.550
42462W        W 1723   1.462  37.400  10.970
42463W        W 1724  33.413  36.357   3.783
42464W        W 1725  35.890  43.835   1.325
42465W        W 1726  24.544  30.455  12.389
42466W        W 1727  38.013  30.477  14.935
42467W        W 1728  42.957   8.394  12.516
42468W        W 1729   6.418  28.164   2.771
42469W        W 1730  32.502  43.792  10.980
42470W        W 1731  37.869  40.316  10.089
42471W        W 1732  29.440  19.779  13.365
42472W        W 1733  17.704  26.175   2.211
42473W        W 1734  20.616  38.511   4.305
42474W        W 1735  14.757  30.139  14.023
42475W        W 1736  19.738   9.298   1.713
42476W        W 1737   7.687  18.240  14.358
42477W        W 1738   7.282  44.407   2.189
42478W        W 1739  36.952  11.648   3.774
42479W        W 1740   6.798   3.290  14.930
42480W        W 1741  34.547   4.307   0.890
42481W        W 1742  12.658  41.945   2.879
42482W        W 1743  18.123  34.474   0.912
42483W        W 1744  43.812  18.624   3.204
42484W        W 1745  36.005  31.547   1.247
42485W        W 1746  32.622  14.660   9.923
42486W        W 1747  34.457  32.467   0.426
42487W        W 1748  42.291   3.721   3.719
42488W        W 1749  26.975  20.228   3.155
42489W        W 1750  28.941   4.886   0.891
42490W        W 1751  13.238  22.048   3.662
42491W        W 1752   9.847  37.909  14.286
42492W        W 1753  42.400  39.881  11.436
42493W        W 1754  36.403  19.105  11.879
42494W        W 1755  10.636  39.440   1.438
42495W        W 1756  41.973  23.129  14.948
42496W        W 1757   2.291   8.402   0.768
42497W        W 1758  43.337  43.390  10.905
42498W        W 1759  17.597  41.295   2.806
42499W        W 1760  13.828  41.837   4.308
42500W        W 1761  23.986  14.171   5.096
42501W        W 1762  12.794  31.599   4.156
42502W        W 1763  23.626   2.373  12.962
42503W        W 1764  34.477  28.001   0.758
42504W        W 1765  20.713   7.903  10.903
42505W        W 1766  10.767  14.111  10.122
42506W        W 1767   8.330  12.791   2.240
42507W        W 1768  40.464  38.971  13.473
42508W        W 1769  36.987  16.634  11.424
42509W        W 1770  10.149  44.494  11.107
42510W        W 1771  18.787  34.469   4.716
42511W        W 1772  37.037  30.590   1.727
42512W        W 1773  14.134  35.501   3.767
42513W        W 1774  43.850  39.509  13.507
42514W        W 1775  23.202  33.600  13.325
42515W        W 1776   9.807   8.385   2.781
42516W        W 1777  14.654  15.724  14.363
42517W        W 1778  27.156   1.417   2.795
42518W        W 1779  23.506  13.169  13.019
42519W        W 1780   1.967  35.518  11.997
42520W        W 1781   7.246  21.751  10.942
42521W        W 1782  10.695  10.158  13.519
42522W        W 1783  41.040  10.226  10.060
42523W        W 1784   7.210   4.375  13.966
42524W        W 1785  14.325  25.072  14.025
42525W        W 1786  31.046   4.334  12.923
42526W        W 1787  34.602   1.331  11.376
42527W        W 1788  18.219  22.052  13.445
42528W        W 1789  33.482  38.992   2.683
42529W        W 1790  17.800  38.369   4.268
42530W        W 1791   9.678  37.948  12.059
42531W        W 1792   3.373  32.512   3.767
42532W        W 1793  37.838  38.380  13.374
42533W        W 1794  34.930   6.912  11.972
42534W        W 1795  12.133  24.582   3.835
42535W        W 1796  21.689   2.463   2.892
42536W        W 1797  12.347  42.388   3.641
42537W        W 1798  32.027  35.008   1.749
42538W        W 1799  20.273   1.909  12.951
42539W        W 1800  42.018  40.548   4.227
42540W        W 1801  31.434  11.162   2.758
42541W        W 1802  25.612   4.718  11.077
42542W        W 1803   0.947  29.145   1.312
42543W        W 1804   3.730  24.515   2.326
42544W        W 1805   7.834  40.417  12.925
42545W        W 1806  13.601  20.056   2.206
42546W        W 1807  21.659   9.295  11.467
42547W        W 1808  19.271   4.806   3.158
42548W        W 1809  15.596  14.292  10.996
42549W        W 1810  42.441  19.699   4.667
42550W        W 1811  12.681   1.370   3.241
42551W        W 1812  10.826  42.923   2.406
42552W        W 1813  15.760  37.956   4.216
42553W        W 1814  20.116   4.422   4.239
42554W        W 1815   4.798  34.522   0.772
42555W        W 1816   0.799  43.981  13.993
42556W        W 1817   8.295  24.579  14.323
42557W        W 1818  34.514   7.766   2.692
42558W        W 1819   5.423  23.730  12.391
42559W        W 1820  15.326  24.577   3.631
42560W        W 1821  38.968  10.195  12.040
42561W        W 1822  27.192   8.710   4.819
42562W        W 1823   0.764  16.566  13.044
42563W        W 1824  22.745  11.224  12.418
42564W        W 1825   4.924   4.920  11.427
42565W        W 1826   8.884  21.134   2.314
42566W        W 1827  28.514  39.404  14.880
42567W        W 1828  35.360   2.298   4.194
42568W        W 1829  27.515  20.529   4.338
42569W        W 1830  43.953  30.920  12.568
42570W        W 1831  25.517  35.458   0.402
42571W        W 1832  38.020  36.977  11.905
42572W        W 1833  21.060   9.340   4.763
42573W        W 1834  24.110  31.989   1.417
42574W        W 1835  33.457  17.627   4.794
42575W        W 1836   9.371  31.413  12.901
42576W        W 1837  19.173  28.512  10.458
42577W        W 1838  22.626   3.223  14.843
42578W        W 1839   1.386   7.189   1.325
42579W        W 1840  18.090  18.667   0.816
42580W        W 1841   9.351  28.496   1.265
42581W        W 1842  42.032  14.101  13.949
42582W        W 1843  18.789  28.016  13.522
42583W        W 1844  19.093  25.655   3.189
42584W        W 1845  41.383  18.060   0.800
42585W        W 1846  40.361  43.487  14.909
42586W        W 1847  32.463  15.681   0.726
42587W        W 1848  41.996   5.722   1.224
42588W        W 1849  43.910  31.424  14.013
42589W        W 1850  33.899  37.919   4.185
42590W        W 1851  28.186   3.889   4.311
42591W        W 1852  12.197  19.570  13.455
42592W        W 1853  21.655  17.732   3.631
42593W        W 1854  39.903  10.156   4.263
42594W        W 1855  20.034  22.551  12.010
42595W        W 1856  10.683  38.356  14.460
42596W        W 1857  36.934  28.616   3.227
42597W        W 1858   6.732  36.500   2.283
42598W        W 1859  12.671  13.265   0.820
42599W        W 1860  14.196  30.162   2.775
42600W        W 1861  15.328  28.967   2.760
42601W        W 1862   3.301  27.595  12.355
42602W        W 1863   6.369  20.069  10.521
42603W        W 1864  15.785  29.986  11.463
42604W        W 1865  44.942   8.794   1.404
42605W        W 1866  44.863  13.731   3.233
42606W        W 1867  39.876  21.139  12.508
42607W        W 1868  28.641  18.214   4.665
42608W        W 1869   5.260  38.341   0.345
42609W        W 1870   9.844  34.527  11.919
42610W        W 1871  33.978  35.433  11.946
42611W        W 1872  30.922   0.845  13.446
42612W        W 1873  25.585  23.635  13.319
42613W        W 1874  26.955   0.445   3.220
42614W        W 1875  42.518  42.303  10.514
42615W        W 1876  21.101  13.319   2.190
42616W        W 1877  15.303  13.679  14.309
42617W        W 1878  39.831  20.170  10.427
42618W        W 1879  10.209  41.352   1.362
42619W        W 1880  15.673  22.188  13.830
42620W        W 1881  24.717  43.971  12.417
42621W        W 1882  37.033   4.874   2.348
42622W        W 1883  31.935  36.973  11.016
42623W        W 1884  41.420  21.102   3.194
42624W        W 1885  11.280  29.526  14.444
42625W        W 1886   7.280  23.187   3.709
42626W        W 1887   6.814  27.989  14.816
42627W        W 1888   2.281  43.879   4.227
42628W        W 1889  34.030   7.255  12.518
42629W        W 1890  11.184  22.545  14.936
42630W        W 1891  41.883  10.237  10.517
42631W        W 1892  32.584  11.621   5.164
42632W        W 1893  24.074  30.072   0.404
42633W        W 1894  30.422  23.141   4.818
42634W        W 1895  19.231   6.222   3.150
42635W        W 1896  39.900   1.867   4.255
42636W        W 1897  19.630   1.858  14.501
42637W        W 1898  43.491   2.243   0.438
42638W        W 1899   8.859  18.240  11.066
42639W        W 1900   2.462  13.737   2.298
42640W        W 1901   6.770  22.094   2.295
42641W        W 1902  16.807  28.036  10.534
42642W        W 1903   3.931  18.612  14.468
42643W        W 1904   0.458   1.252  11.107
42644W        W 1905  13.764  31.107   2.237
42645W        W 1906  38.390  14.195  13.975
42646W        W 1907  13.289   1.951  11.518
42647W        W 1908  40.005  13.229   3.697
42648W        W 1909  34.606  16.642  14.761
42649W        W 1910  16.206  11.364  11.602
42650W        W 1911  12.758  41.796   3.642
42651W        W 1912  18.196   7.391  14.908
42652W        W 1913  32.110  17.663   3.255
42653W        W 1914   4.752  30.550  10.090
42654W        W 1915   8.279  16.243   1.704
42655W        W 1916   5.822  31.564   2.356
42656W        W 1917   0.817  31.599   4.796
42657W        W 1918   4.418  30.100  12.944
42658W        W 1919  12.179  33.117   2.375
42659W        W 1920  35.457  18.698  11.592
42660W        W 1921   4.878   7.416  10.547
42661W        W 1922  39.954  21.674   1.368
42662W        W 1923  35.914  22.596   0.798
42663W        W 1924  38.350  36.971   1.374
42664W        W 1925  36.351  12.827   2.730
42665W        W 1926  36.946  27.592  14.951
42666W        W 1927  24.702  14.321   1.735
42667W        W 1928  32.063  21.132  13.799
42668W        W 1929   2.307  43.481  10.593
42669W        W 1930  20.678  36.060  13.989
42670W        W 1931  37.974  20.614   4.294
42671W        W 1932  39.457  25.073   3.317
42672W        W 1933  15.103  11.847   4.203
42673W        W 1934   7.226   6.872  13.543
42674W        W 1935   1.847  14.273   0.936
42675W        W 1936  16.150  13.693  14.847
42676W        W 1937  44.813  39.817   0.858
42677W        W 1938  26.610   7.266  11.984
42678W        W 1939  26.144  10.846  14.277
42679W        W 1940  30.988   0.312   2.415
42680W        W 1941  28.638   9.723   1.812
42681W        W 1942  10.822  10.144  14.360
42682W        W 1943  41.796   1.927   3.207
42683W        W 1944  24.616   9.664   4.297
42684W        W 1945  17.297  31.534  13.846
42685W        W 1946  40.887  32.546  10.640
42686W        W 1947   7.341   1.787   1.926
42687W        W 1948  21.745  25.071   0.902
42688W        W 1949  42.353  36.931   1.725
42689W        W 1950  19.221  41.320  11.959
42690W        W 1951  34.107  26.643  11.051
42691W        W 1952  37.364  25.536  10.501
42692W        W 1953  27.595   6.229  12.970
42693W        W 1954  40.489  32.039   2.376
42694W        W 1955  37.470  44.916  12.489
42695W        W 1956  13.710  27.036  10.939
42696W        W 1957  27.098   4.352   2.366
42697W        W 1958  42.940   5.791  13.006
42698W        W 1959  29.543  38.924  13.023
42699W        W 1960  12.827  10.864   2.879
42700W        W 1961  34.516  10.840   0.362
42701W        W 1962  31.458  40.429   3.822
42702W        W 1963  37.870   4.219  13.883
42703W        W 1964  35.379  36.355  10.597
42704W        W 1965  30.982  33.535   9.930
42705W        W 1966  15.595   4.414   0.324
42706W        W 1967  29.531  25.052   2.190
42707W        W 1968  11.769  32.627  10.901
42708W        W 1969   5.223  24.709   1.398
42709W        W 1970   6.905  12.748   2.270
42710W        W 1971  24.668  12.683  10.532
42711W        W 1972  10.824   2.466   4.677
42712W        W 1973  38.850  12.712   0.874
42713W        W 1974  19.558  25.183   3.308
42714W        W 1975  37.387  11.635   0.258
42715W        W 1976   3.931  35.024   4.275
42716W        W 1977  30.414  10.223   4.146
42717W        W 1978  34.902  24.611  13.459
42718W        W 1979   2.258  30.567   1.721
42719W        W 1980   9.840  39.540   0.747
42720W        W 1981  10.350  41.518  12.882
42721W        W 1982  19.053  35.444   2.409
42722W        W 1983  31.133   8.287   3.825
42723W        W 1984  44.979  27.979   2.681
42724W        W 1985  35.901  10.748  10.556
42725W        W 1986  44.345   6.256  10.594
42726W        W 1987  17.644  36.001  13.806
42727W        W 1988   3.425   1.919   4.799
42728W        W 1989  12.800  11.172   2.898
42729W        W 1990  25.500  15.631   1.392
42730W        W 1991   1.305  27.568   2.702
42731W        W 1992  19.068  30.497  13.441
42732W        W 1993   0.391  10.354  11.535
42733W        W 1994  39.375  15.580  13.830
42734W        W 1995  26.124   0.811   0.738
42735W        W 1996  41.028  23.030   1.434
42736W        W 1997  40.386  42.866  12.490
42737W        W 1998  35.086  23.089   4.234
42738W        W 1999  34.411  29.975   3.261
42739W        W 2000  12.219  40.876  14.760
42740W        W 2001  33.925  43.858  14.830
42741W        W 2002  15.283  20.524   4.695
42742W        W 2003  22.123  38.949  12.869
42743W        W 2004   0.814   2.755  13.512
42744W        W 2005  17.688  18.563  10.031
42745W        W 2006  43.341   3.798   2.413
42746W        W 2007  14.782  29.580   4.829
42747W        W 2008  42.807  22.535   0.420
42748W        W 2009  28.136   1.280  12.347
42749W        W 2010  34.452  23.008   4.335
42750W        W 2011  11.160  16.178  13.421
42751W        W 2012   2.932  28.499   0.253
42752W        W 2013  29.588  29.156   4.703
42753W        W 2014  43.015  10.726  10.604
42754W        W 2015   1.338  28.143  10.604
42755W        W 2016  10.808  22.706  11.456
42756W        W 2017  42.889   5.199   3.246
42757W        W 2018  18.123  21.621   0.347
42758W        W 2019  26.613   5.862  13.869
42759W        W 2020  42.786  16.663  12.362
42760W        W 2021  32.078  16.214   0.800
42761W        W 2022   3.304   3.277   1.858
42762W        W 2023   3.932  27.179   3.252
42763W        W 2024   7.239  30.115   1.932
42764W        W 2025   5.891  35.475   4.662
42765W        W 2026  11.852  17.591  12.834
42766W        W 2027  33.526   4.851   0.457
42767W        W 2028  29.662  25.500  13.055
42768W        W 2029  34.513  19.199  12.829
42769W        W 2030   2.804  23.068  12.980
42770W        W 2031  22.559  42.938  13.341
42771W        W 2032  29.080  34.008   0.761
42772W        W 2033  25.621  38.915  11.871
42773W        W 2034  25.983  13.815   1.779
42774W        W 2035  33.588  28.492   3.864
42775W        W 2036  41.810   4.444  11.103
42776W        W 2037  39.398  43.367  14.997
42777W        W 2038  15.317  38.004   3.770
42778W        W 2039  24.106  22.137  11.518
42779W        W 2040  34.451  37.352   4.706
42780W        W 2041  38.427  14.780   0.304
42781W        W 2042  44.479  20.080  11.079
42782W        W 2043   8.268   3.431   3.644
42783W        W 2044  11.215  43.869  14.983
42784W        W 2045  35.950  35.516  14.769
42785W        W 2046  38.944  40.877   2.381
42786W        W 2047  43.006  15.282  11.918
42787W        W 2048   4.759  15.809  12.887
42788W        W 2049  40.431   6.762  13.012
42789W        W 2050  15.735  27.519  13.832
42790W        W 2051  12.649   9.242   2.742
42791W        W 2052   8.281  39.957  13.976
42792W        W 2053  21.686  23.527  12.547
42793W        W 2054  44.292   1.851   0.957
42794W        W 2055  25.185   5.377   2.218
42795W        W 2056  13.232  44.759  14.306
42796W        W 2057  22.725  10.161   3.688
42797W        W 2058  15.810   8.761   3.303
42798W        W 2059   2.434  12.736   0.850
42799W        W 2060  14.227   5.395  13.791
42800W        W 2061  20.145  33.987  14.961
42801W        W 2062  35.894  15.651  12.945
42802W        W 2063   1.797  32.610  14.446
42803W        W 2064  41.957  39.871   3.163
42804W        W 2065  33.106  18.296   4.266
42805W        W 2066  16.205  42.511  14.443
42806W        W 2067  14.652  30.453   2.415
42807W        W 2068   1.794  24.164   1.416
42808W        W 2069   6.195  30.630  14.887
42809W        W 2070  38.527  35.370  14.839
42810W        W 2071  25.669  11.295   0.964
42811W        W 2072   2.235  34.963  10.642
42812W        W 2073  34.484  44.942   4.826
42813W        W 2074   3.916  11.810  14.874
42814W        W 2075  31.039  33.082   1.363
42815W        W 2076   8.854  38.828   9.983
42816W        W 2077  17.771  25.573  13.864
42817W        W 2078   2.934  16.139   1.922
42818W        W 2079  19.606  29.957   3.824
42819W        W 2080  18.289  30.488   0.909
42820W        W 2081  16.622  24.657   2.219
42821W        W 2082  23.573  23.190  14.857
42822W        W 2083  31.440  19.222   3.701
42823W        W 2084  36.476   4.288  10.444
42824W        W 2085  22.132   7.209   0.263
42825W        W 2086  41.925   3.838  12.943
42826W        W 2087  44.310  31.136  13.508
42827W        W 2088  17.763  18.216   0.946
42828W        W 2089  20.144   2.769  13.324
42829W        W 2090  36.383   3.369   0.845
42830W        W 2091   8.896  25.054  11.884
42831W        W 2092  44.356  35.465   3.709
42832W        W 2093  10.200  27.974   1.285
42833W        W 2094  31.572   3.279   1.706
42834W        W 2095  22.528  31.948   0.374
42835W        W 2096  19.207  38.940   1.843
42836W        W 2097  32.553  26.562   3.238
42837W        W 2098  12.277  18.138  14.416
42838W        W 2099  20.052  34.480  13.467
42839W        W 2100  18.106   6.801   3.631
42840W        W 2101   7.313  29.092   1.840
42841W        W 2102   1.955  26.111   4.203
42842W        W 2103  26.051  22.028   0.864
42843W        W 2104  34.546  17.259   4.163
42844W        W 2105  23.504  27.154   2.266
42845W        W 2106   0.392  25.633  10.448
42846W        W 2107  34.577  21.676  11.585
42847W        W 2108  27.647   5.920   1.336
42848W        W 2109  17.665  24.002  11.021
42849W        W 2110   9.229  21.060   5.085
42850W        W 2111  28.525   7.798  13.037
42851W        W 2112  19.081  32.092   0.858
42852W        W 2113  19.753   6.695   3.172
42853W        W 2114  44.758  37.897  14.777
42854W        W 2115  15.274  34.986   0.767
42855W        W 2116  12.283  44.318  12.973
42856W        W 2117  31.025   4.417  12.363
42857W        W 2118  32.556  38.915  13.994
42858W        W 2119  44.323  23.636   2.293
42859W        W 2120   8.310  26.999   3.801
42860W        W 2121  42.398  31.634   2.282
42861W        W 2122  26.196   5.788  14.372
42862W        W 2123  36.892   9.330   0.382
42863W        W 2124  23.489  26.970   4.240
42864W        W 2125  41.817   5.706   4.691
42865W        W 2126  41.347   0.352  13.418
42866W        W 2127  29.983  17.650   1.395
42867W        W 2128   3.796   5.730  12.518
42868W        W 2129  15.092   6.742  10.574
42869W        W 2130   1.380  29.072  13.357
42870W        W 2131   6.691  40.915   2.211
42871W        W 2132  13.214   0.982   3.318
42872W        W 2133   8.210  13.646   2.673
42873W        W 2134   5.744   7.207  13.323
42874W        W 2135  40.507   4.300   3.283
42875W        W 2136   9.183  22.607   2.341
42876W        W 2137   2.758  36.872  14.346
42877W        W 2138  32.094   1.371   3.662
42878W        W 2139  39.468  15.599   1.707
42879W        W 2140  12.831  43.005  13.920
42880W        W 2141   0.302  15.659   3.640
42881W        W 2142  32.093  10.736   0.782
42882W        W 2143   3.922  10.718   2.366
42883W        W 2144  37.983  44.908   0.812
42884W        W 2145  24.582  17.245  13.044
42885W        W 2146  43.352  18.162  11.387
42886W        W 2147   9.226   4.442   4.309
42887W        W 2148  37.867  16.113   4.701
42888W        W 2149  26.027   8.224  11.453
42889W        W 2150  28.521  38.073  11.588
42890W        W 2151  36.871   1.967   3.339
42891W        W 2152  19.098  30.552  11.089
42892W        W 2153  13.221   9.687   4.340
42893W        W 2154  43.429  42.799  12.507
42894W        W 2155  13.816  18.208   3.674
42895W        W 2156  11.717  10.257   5.261
42896W        W 2157  35.443  36.099   2.707
42897W        W 2158   5.691  17.632   2.898
42898W        W 2159  44.919  42.309   0.421
42899W        W 2160  44.395  13.670   2.276
42900W        W 2161  38.376  33.579   5.117
42901W        W 2162   0.347   9.836  11.516
42902W        W 2163   3.252   9.215   4.161
42903W        W 2164  30.590  16.254   1.450
42904W        W 2165  21.026  40.944  11.922
42905W        W 2166   3.451   8.193   1.304
42906W        W 2167  37.413  38.901  14.857
42907W        W 2168  24.027  44.824   4.163
42908W        W 2169  38.419  40.833  13.804
42909W        W 2170  43.767  22.129  13.830
42910W        W 2171   0.943  13.840  14.489
42911W        W 2172  34.938  36.535   1.319
42912W        W 2173  33.536  31.018   5.233
42913W        W 2174  18.224  15.104  11.924
42914W        W 2175  12.787  14.244  11.014
42915W        W 2176   4.756  33.914  12.036
42916W        W 2177  41.927   0.902   1.238
42917W        W 2178  37.436   2.880  12.053
42918W        W 2179  20.599  11.152  14.812
42919W        W 2180  29.654  24.607   1.825
42920W        W 2181  22.503  21.026  10.440
42921W        W 2182  31.920  40.501   3.239
42922W        W 2183  31.032   1.826  12.549
42923W        W 2184  38.558   5.734  14.895
42924W        W 2185  26.572   7.410   4.224
42925W        W 2186   2.365   1.913   1.259
42926W        W 2187  37.569  32.582   1.839
42927W        W 2188  22.151  19.062   4.770
42928W        W 2189   2.280  26.053   1.920
42929W        W 2190  38.365  28.621  14.984
42930W        W 2191  42.471  28.160  14.834
42931W        W 2192  10.826  13.298  14.990
42932W        W 2193  34.003  35.883  11.973
42933W        W 2194  38.431  30.441   4.690
42934W        W 2195  21.719  38.830   4.672
42935W        W 2196   7.393  35.459   4.133
42936W        W 2197  33.471  11.686   3.333
42937W        W 2198  33.414  17.621   0.843
42938W        W 2199  42.878  37.385   2.243
42939W        W 2200   3.274  27.024   1.445
42940W        W 2201  20.241  22.232   1.360
42941W        W 2202  26.562   3.423  11.093
42942W        W 2203  26.171  41.801  10.974
42943W        W 2204  36.413   8.704  11.407
42944W        W 2205  30.587   9.257   2.863
42945W        W 2206  35.578  13.317   3.830
42946W        W 2207  34.959  12.615   1.326
42947W        W 2208  27.591  39.518   0.880
42948W        W 2209  30.642  20.624   4.274
42949W        W 2210  42.487  16.182   3.212
42950W        W 2211  20.100   8.175  14.825
42951W        W 2212  26.507  18.103  10.976
42952W        W 2213  34.408  33.517  11.560
42953W        W 2214  18.136  39.406  10.541
42954W        W 2215  28.545  33.917  11.559
42955W        W 2216  30.630  31.544   0.897
42956W        W 2217  38.068  21.067   3.245
42957W        W 2218  11.864  28.156   0.440
42958W        W 2219  25.640   8.365   0.790
42959W        W 2220   8.809  39.845   1.423
42960W        W 2221  41.393   0.332  12.435
42961W        W 2222  18.146   9.389  14.464
42962W        W 2223  14.668  36.060  11.880
42963W        W 2224  41.495  12.834   3.183
42964W        W 2225  35.391   2.757  12.873
42965W        W 2226  27.604  29.983   1.868
42966W        W 2227  16.150  41.813   4.225
42967W        W 2228  33.430  14.100  11.488
42968W        W 2229   9.369  44.932   2.223
42969W        W 2230  18.250   2.335   1.376
42970W        W 2231   0.410  39.971   1.403
42971W        W 2232  30.106  28.593   4.181
42972W        W 2233  18.565  20.104   3.309
42973W        W 2234  27.676  21.611   4.168
42974W        W 2235  11.306  40.053   4.680
42975W        W 2236  26.990  25.532  14.873
42976W        W 2237  39.524  11.842  13.481
42977W        W 2238   7.338  39.326  12.483
42978W        W 2239  22.233   0.915   2.799
42979W        W 2240  12.654  35.506   1.393
42980W        W 2241  39.394   0.314   2.413
42981W        W 2242  25.055  31.557   4.210
42982W        W 2243  35.481   6.794   4.242
42983W        W 2244  37.054  34.899   1.286
42984W        W 2245   3.416  38.826   5.224
42985W        W 2246  18.236   7.250   1.735
42986W        W 2247  38.834  33.461  13.046
42987W        W 2248   9.164   7.172   0.366
42988W        W 2249  41.313   4.283  10.908
42989W        W 2250  22.178  12.279  10.559
42990W        W 2251   4.901  43.793  13.940
42991W        W 2252   9.784  34.870  13.397
42992W        W 2253  37.371  38.553   3.742
42993W        W 2254   6.325  34.054  10.446
42994W        W 2255   2.797  18.187  12.378
42995W        W 2256  22.548  37.924   0.756
42996W        W 2257   7.734  13.715  12.989
42997W        W 2258  11.304  20.611  14.892
42998W        W 2259  14.623  18.638   3.282
42999W        W 2260  39.029  33.886   3.673
43000W        W 2261  32.469   1.451   1.913
43001W        W 2262  11.312  38.452  13.947
43002W        W 2263   6.279  32.120  11.934
43003W        W 2264   1.373  17.250  13.998
43004W        W 2265  18.181  41.025  14.971
43005W        W 2266   6.297  42.817   5.294
43006W        W 2267  44.985  32.408  14.980
43007W        W 2268   8.366  17.153  11.550
43008W        W 2269  19.145  43.494  10.902
43009W        W 2270  14.290  32.059  11.460
43010W        W 2271   8.291  23.554   3.219
43011W        W 2272  43.835  10.292   3.638
43012W        W 2273   6.337  13.195   2.300
43013W        W 2274  19.064   9.167   2.852
43014W        W 2275  44.388  40.824  11.963
43015W        W 2276  14.331  21.544  10.927
43016W        W 2277   0.828  13.319   3.282
43017W        W 2278   1.453  39.322  11.526
43018W        W 2279  17.237  31.579   4.302
43019W        W 2280  10.313  38.411   4.790
43020W        W 2281   6.184   6.319   0.280
43021W        W 2282  25.591  13.732  14.924
43022W        W 2283  24.603  38.445   0.276
43023W        W 2284   7.267  18.266   1.393
43024W        W 2285   5.379  20.078  11.401
43025W        W 2286  42.008  44.431   0.899
43026W        W 2287   2.240  44.337  14.851
43027W        W 2288  24.049   5.378  11.913
43028W        W 2289  36.387  44.424   3.335
43029W        W 2290  31.630  19.581  13.532
43030W        W 2291  27.082  18.734  11.104
43031W        W 2292  40.503   5.216  11.490
43032W        W 2293   9.742  23.162   1.336
43033W        W 2294   3.796  42.481   2.311
43034W        W 2295  35.943  32.472  14.906
43035W        W 2296   4.416   4.437  14.347
43036W        W 2297   6.839  26.675   1.773
43037W        W 2298  43.888   5.221   3.767
43038W        W 2299  41.016   3.284   0.247
43039W        W 2300  23.577   5.855  10.489
43040W        W 2301  40.482  38.837   4.616
43041W        W 2302   9.768   9.178  13.060
43042W        W 2303   7.387  23.702  14.472
43043W        W 2304   4.882   3.259  12.854
43044W        W 2305  15.734   7.752   3.835
43045W        W 2306  37.457  28.142   1.370
43046W        W 2307   5.700   4.220   0.839
43047W        W 2308  20.139  24.660   3.755
43048W        W 2309   6.414   3.748  11.127
43049W        W 2310  22.161  40.385   0.474
43050W        W 2311  39.404  42.959   3.197
43051W        W 2312   1.877  40.369  14.923
43052W        W 2313  41.822  34.911  10.442
43053W        W 2314  15.601   6.283  12.006
43054W        W 2315  23.168  19.563   3.657
43055W        W 2316  12.209  33.916   2.854
43056W        W 2317  26.100   3.302  14.835
43057W        W 2318  11.756  27.625   1.247
43058W        W 2319  37.400   8.805   4.340
43059W        W 2320   3.841  23.034  12.028
43060W        W 2321  32.446  44.483   2.217
43061W        W 2322  33.505  36.425  13.540
43062W        W 2323  21.661   8.185   0.730
43063W        W 2324   1.286   4.783  14.765
43064W        W 2325  11.253  33.955   3.723
43065W        W 2326  32.464  14.757  11.045
43066W        W 2327  10.369  43.462   2.727
43067W        W 2328  33.086   1.881  10.609
43068W        W 2329  15.582   9.263  11.928
43069W        W 2330  40.500   0.460   4.695
43070W        W 2331   3.318  15.230  10.586
43071W        W 2332  39.886  21.137  13.044
43072W        W 2333  22.114  12.289  14.419
43073W        W 2334   3.431   4.450   1.230
43074W        W 2335  34.544  24.511  10.433
43075W        W 2336  27.562  10.775  14.439
43076W        W 2337  27.606  40.888   4.182
43077W        W 2338   4.236  31.537   4.223
43078W        W 2339   4.410  30.652   3.764
43079W        W 2340  15.739  10.769  11.930
43080W        W 2341  43.017  19.677  12.973
43081W        W 2342  20.625  31.990   1.743
43082W        W 2343  38.520  44.791   4.166
43083W        W 2344  11.315  43.421   1.840
43084W        W 2345  39.015  36.034   0.425
43085W        W 2346  36.391  16.583  12.450
43086W        W 2347  36.089  29.037  11.460
43087W        W 2348   9.784  37.082  12.886
43088W        W 2349  20.644  17.721  12.413
43089W        W 2350  42.310  24.053  12.520
43090W        W 2351  36.348  11.210   3.236
43091W        W 2352  40.987  16.606  10.540
43092W        W 2353  42.488   8.860   0.789
43093W        W 2354   4.209   1.824  12.029
43094W        W 2355  11.861  20.097  14.474
43095W        W 2356  32.956  36.996  12.010
43096W        W 2357  30.100  16.658  13.402
43097W        W 2358  41.437   6.777  10.947
43098W        W 2359  11.249  10.661   5.304
43099W        W 2360  34.073  43.805  11.915
43100W        W 2361  15.099  12.295  12.477
43101W        W 2362   4.410  27.548   3.278
43102W        W 2363  44.362  38.444  13.968
43103W        W 2364  44.449  36.500   5.106
43104W        W 2365  21.578  19.579  13.911
43105W        W 2366  36.883  25.487  12.373
43106W        W 2367  13.141   9.776   2.380
43107W        W 2368  27.478  28.617   3.215
43108W        W 2369  39.827   0.469  11.587
43109W        W 2370  37.087  18.293  11.121
43110W        W 2371   7.223  42.777   2.188
43111W        W 2372  35.938  42.858   5.271
43112W        W 2373   1.317   3.751   0.479
43113W        W 2374  21.163  32.078   4.745
43114W        W 2375  41.353  36.892  12.977
43115W        W 2376  13.120  21.168   0.474
43116W        W 2377  37.389  38.835   1.339
43117W        W 2378  24.192  12.767   3.380
43118W        W 2379   7.718  22.212  10.491
43119W        W 2380  31.974  25.046  12.003
43120W        W 2381  32.576   3.737  12.577
43121W        W 2382  27.089  12.354  14.391
43122W        W 2383  15.658  43.361  11.877
43123W        W 2384  33.511  29.061  13.863
43124W        W 2385  10.368   1.423   4.657
43125W        W 2386  14.259  38.861   0.277
43126W        W 2387   1.978  23.239   4.309
43127W        W 2388  19.129  27.140   4.312
43128W        W 2389  25.690  43.953  12.424
43129W        W 2390  26.062  15.296  14.912
43130W        W 2391  36.582  34.930   1.387
43131W        W 2392  23.727  15.123   0.325
43132W        W 2393  24.062   0.920   1.766
43133W        W 2394  29.648  33.393  10.579
43134W        W 2395   7.686  18.285   2.720
43135W        W 2396  26.688  21.730   4.318
43136W        W 2397  44.941  40.318   4.300
43137W        W 2398  41.006   4.282   0.801
43138W        W 2399  13.630  26.492   0.257
43139W        W 2400   3.449  24.612   3.186
43140W        W 2401  43.796  30.952  11.521
43141W        W 2402   5.427   7.316   2.873
43142W        W 2403  42.976  14.321  14.974
43143W        W 2404  29.569   4.319  10.970
43144W        W 2405   2.945  38.425  14.796
43145W        W 2406  28.460  24.708  13.952
43146W        W 2407  30.470   4.851  14.851
43147W        W 2408  25.035  23.238   2.383
43148W        W 2409  39.432  32.050  11.518
43149W        W 2410   9.682  22.143  12.577
43150W        W 2411  41.992  15.158   2.792
43151W        W 2412  38.995  37.418   1.860
43152W        W 2413  39.348   9.345  13.876
43153W        W 2414   6.740  10.859   4.117
43154W        W 2415  36.549  17.761  11.970
43155W        W 2416  10.352  18.296  11.525
43156W        W 2417  36.859  27.069  11.904
43157W        W 2418   0.945  21.158  13.061
43158W        W 2419   4.787  21.701   1.830
43159W        W 2420  33.602  32.080   2.745
43160W        W 2421   2.955   5.847  12.478
43161W        W 2422  32.461  34.038  14.389
43162W        W 2423  16.150  26.002   0.797
43163W        W 2424   1.847  43.888  13.348
43164W        W 2425  33.551  21.100  14.286
43165W        W 2426  25.977  21.220   4.199
43166W        W 2427  35.564   5.229  12.824
43167W        W 2428   8.310  33.103   0.342
43168W        W 2429  19.726   9.665  12.394
43169W        W 2430  28.540  29.518   3.845
43170W        W 2431  36.850  13.245  12.019
43171W        W 2432  24.696  35.896  12.026
43172W        W 2433  15.723  32.419  14.983
43173W        W 2434  42.028  16.805  13.322
43174W        W 2435  12.312  24.198   3.313
43175W        W 2436  27.964  15.687   4.198
43176W        W 2437  20.695  20.068   2.219
43177W        W 2438  39.402  31.948   2.787
43178W        W 2439  30.143  20.548   2.761
43179W        W 2440  14.804  24.001  13.018
43180W        W 2441  29.015  17.249  10.522
43181W        W 2442   2.431   3.767   4.665
43182W        W 2443  35.399  25.711  12.932
43183W        W 2444  21.623  38.441   4.730
43184W        W 2445  29.975   0.311   0.270
43185W        W 2446  11.341  18.559  13.052
43186W        W 2447  43.326   5.893  11.378
43187W        W 2448  23.502  14.233  12.033
43188W        W 2449  12.155  39.007  13.927
43189W        W 2450  38.329  19.264  11.419
43190W        W 2451  44.294   8.738   2.352
43191W        W 2452  38.352   3.328  13.984
43192W        W 2453   9.299  41.296  12.422
43193W        W 2454  35.477  21.101  13.338
43194W        W 2455  18.130  21.184  14.777
43195W        W 2456   6.236  44.943  13.890
43196W        W 2457  21.262  36.422  12.039
43197W        W 2458  37.974  30.460   1.396
43198W        W 2459  27.633  31.461  14.408
43199W        W 2460   0.409  16.598  12.452
43200W        W 2461  29.116  31.469  11.568
43201W        W 2462   8.358  34.978  14.007
43202W        W 2463   6.185  17.590   1.840
43203W        W 2464   3.240  13.772  13.390
43204W        W 2465  11.716  22.561  11.055
43205W        W 2466  12.736  28.674  12.008
43206W        W 2467  37.475  21.236   4.204
43207W        W 2468  16.096  31.021   5.185
43208W        W 2469  15.669  24.528  14.342
43209W        W 2470  17.090  26.967   3.851
43210W        W 2471  36.411  14.340  10.023
43211W        W 2472  29.118  41.483   4.769
43212W        W 2473  42.286   3.341  11.398
43213W        W 2474   1.320  41.506  10.484
43214W        W 2475  38.470  42.818  11.128
43215W        W 2476  19.554  23.995   9.656
43216W        W 2477  17.655  31.405  14.328
43217W        W 2478  19.134  39.475  13.886
43218W        W 2479  34.471   5.286   3.862
43219W        W 2480  35.390  29.921   4.322
43220W        W 2481  37.908  23.093   2.205
43221W        W 2482  36.063  36.961  11.104
43222W        W 2483  43.351  43.780  12.089
43223W        W 2484  17.648  13.292   4.691
43224W        W 2485  44.275  43.504   4.144
43225W        W 2486  11.797  29.156  11.124
43226W        W 2487  27.544  37.412  10.569
43227W        W 2488   7.356   3.862   0.293
43228W        W 2489  43.348  36.076  11.452
43229W        W 2490  26.014   7.260   4.755
43230W        W 2491  43.792   5.801  14.926
43231W        W 2492  39.924  39.512  10.537
43232W        W 2493  22.623  41.452  12.359
43233W        W 2494   6.763   2.752  12.857
43234W        W 2495   0.350   2.457  11.495
43235W        W 2496  28.484  19.210   2.713
43236W        W 2497  31.041  26.526   1.768
43237W        W 2498  44.491  16.165  14.461
43238W        W 2499  23.013  24.182   9.935
43239W        W 2500  44.903  32.515   2.276
43240W        W 2501  40.430  24.497   4.353
43241W        W 2502  30.537  42.783   4.153
43242W        W 2503  37.087  13.790   2.304
43243W        W 2504   7.774  20.613   4.708
43244W        W 2505   3.358  15.226   3.868
43245W        W 2506  43.870  27.540   4.827
43246W        W 2507  44.319  15.706  10.561
43247W        W 2508   4.385  43.930   2.398
43248W        W 2509  21.576  19.279  12.534
43249W        W 2510  24.142  38.445   3.205
43250W        W 2511   1.379   1.928   0.439
43251W        W 2512  16.269   3.838  12.094
43252W        W 2513   4.286  15.298   2.712
43253W        W 2514  12.628  21.262  13.938
43254W        W 2515   6.848  43.358  10.900
43255W        W 2516  27.513  32.523  12.011
43256W        W 2517  22.090  33.118  14.990
43257W        W 2518   1.331   2.423   0.283
43258W        W 2519  11.273  35.554  12.575
43259W        W 2520  21.584  11.763   4.598
43260W        W 2521   0.759  11.699  12.069
43261W        W 2522  12.159  13.775   3.732
43262W        W 2523  23.189  37.934   4.762
43263W        W 2524  16.148  36.893  13.511
43264W        W 2525  27.472  23.694  13.497
43265W        W 2526  14.164  30.557   4.281
43266W        W 2527  19.703  35.093   0.332
43267W        W 2528   7.311  29.653   0.474
43268W        W 2529  44.790  17.261   4.217
43269W        W 2530   6.857  36.396  11.397
43270W        W 2531   8.703   4.850  14.508
43271W        W 2532   7.859  36.389   1.346
43272W        W 2533  21.232  12.273  14.837
43273W        W 2534   8.694  20.161   3.863
43274W        W 2535  16.137  10.312   2.293
43275W        W 2536  14.658   2.367  10.611
43276W        W 2537   2.830  36.438   3.766
43277W        W 2538   4.423  34.097   1.253
43278W        W 2539  38.883  40.447  10.416
43279W        W 2540  40.526  32.394   1.797
43280W        W 2541   5.433  14.312   0.843
43281W        W 2542  23.631   6.889   1.702
43282W        W 2543   9.162  30.503   0.329
43283W        W 2544  34.469  43.813  14.986
43284W        W 2545  31.063  15.809  11.088
43285W        W 2546  28.481  20.112  14.822
43286W        W 2547  34.957  24.045   2.774
43287W        W 2548  39.405   6.765  14.387
43288W        W 2549  30.547  27.611  10.443
43289W        W 2550  26.658  40.811   1.699
43290W        W 2551  17.690   6.355   4.837
43291W        W 2552  35.428  33.615   4.232
43292W        W 2553   5.253  12.219   2.734
43293W        W 2554  29.484   7.385  12.999
43294W        W 2555   1.367  11.626  13.960
43295W        W 2556  11.626  11.771   2.889
43296W        W 2557  18.191   6.325   3.151
43297W        W 2558  23.108  24.216   5.312
43298W        W 2559   2.365  33.008   2.796
43299W        W 2560  42.894  39.399  12.508
43300W        W 2561  43.466   3.298  14.346
43301W        W 2562  23.639   8.654   1.263
43302W        W 2563  22.529  36.013  14.804
43303W        W 2564  13.243   0.403   0.304
43304W        W 2565  14.271   6.198  12.074
43305W        W 2566  43.348  39.994   3.867
43306W        W 2567  10.286  25.142  14.783
43307W        W 2568  25.684  26.086  14.427
43308W        W 2569  21.711  43.349   1.775
43309W        W 2570  12.635  20.039  12.947
43310W        W 2571  21.167  25.203  10.073
43311W        W 2572  30.920  41.813  10.054
43312W        W 2573  27.007  32.480   4.313
43313W        W 2574  38.377  32.007  13.426
43314W        W 2575  37.353  39.962   1.738
43315W        W 2576  43.509  44.945  13.863
43316W        W 2577  43.869  22.164  14.908
43317W        W 2578  26.590  27.638  11.899
43318W        W 2579  43.987  13.108   2.772
43319W        W 2580  41.483  38.477  13.936
43320W        W 2581   4.837  29.447   1.439
43321W        W 2582  39.471  19.675  14.449
43322W        W 2583   5.337   6.400  10.089
43323W        W 2584  12.699  35.000  12.571
43324W        W 2585  37.994   5.830  11.996
43325W        W 2586   5.768  43.428   3.665
43326W        W 2587   4.878  18.281   2.226
43327W        W 2588  36.899  34.892   0.841
43328W        W 2589  10.176  31.067   2.767
43329W        W 2590  39.006  44.394   3.346
43330W        W 2591  37.987  24.574  12.019
43331W        W 2592  13.128  36.841   1.248
43332W        W 2593  42.781  40.533   1.710
43333W        W 2594  33.918  41.860  11.092
43334W        W 2595  12.191  26.073   1.220
43335W        W 2596  37.031   8.269   2.760
43336W        W 2597  24.981  14.174  11.105
43337W        W 2598  30.626  44.393   2.832
43338W        W 2599  10.153   7.218   2.211
43339W        W 2600  17.272  11.845  12.930
43340W        W 2601  34.023   1.950  11.025
43341W        W 2602  40.371   1.243   1.814
43342W        W 2603   9.214  29.065   3.239
43343W        W 2604  14.635  29.176  14.404
43344W        W 2605  29.634  30.021  12.505
43345W        W 2606  21.634  11.174  10.896
43346W        W 2607   7.394  16.703  12.043
43347W        W 2608  20.041   5.745   1.796
43348W        W 2609  18.219  35.464   3.300
43349W        W 2610   8.385  12.324   3.694
43350W        W 2611  34.453  11.806   9.513
43351W        W 2612  35.932   5.925  12.529
43352W        W 2613  42.520   0.978   3.301
43353W        W 2614  10.361   4.276  12.970
43354W        W 2615  41.420   0.894  10.499
43355W        W 2616   3.880  14.173   2.762
43356W        W 2617  30.082   9.243   3.758
43357W        W 2618  43.382  43.974  12.458
43358W        W 2619   5.730  32.478  13.386
43359W        W 2620   9.168  32.422   1.288
43360W        W 2621  26.507  42.483   3.700
43361W        W 2622  23.226  33.479  14.278
43362W        W 2623  31.132  22.249  13.798
43363W        W 2624  25.044  42.453   2.227
43364W        W 2625  40.482  34.879  12.519
43365W        W 2626   7.376  11.773  13.023
43366W        W 2627  28.972  24.175   0.727
43367W        W 2628  35.906  11.203   3.311
43368W        W 2629  39.334   0.846  11.982
43369W        W 2630  14.208  37.979   2.841
43370W        W 2631  14.686  10.361  10.113
43371W        W 2632  14.833   5.837  13.804
43372W        W 2633  25.118   6.736   1.397
43373W        W 2634  23.084  24.537   0.463
43374W        W 2635  36.848   3.427  11.397
43375W        W 2636  18.742  25.052   3.803
43376W        W 2637   4.891  24.195   0.325
43377W        W 2638  31.042  15.242   2.205
43378W        W 2639  11.826  34.989   3.266
43379W        W 2640  39.557  22.642  14.936
43380W        W 2641  40.307  12.771   1.819
43381W        W 2642  24.205  20.738   4.135
43382W        W 2643  31.589  44.789  14.930
43383W        W 2644  32.075  21.082  13.425
43384W        W 2645  41.394  44.475  14.900
43385W        W 2646  23.172  13.322   2.308
43386W        W 2647  13.616   0.876  12.378
43387W        W 2648  36.982   7.303   4.137
43388W        W 2649  14.104  43.886   1.430
43389W        W 2650  21.061  22.999   2.182
43390W        W 2651  17.755  15.105   1.897
43391W        W 2652  17.784  38.426  14.978
43392W        W 2653  40.529  22.201   0.281
43393W        W 2654  41.999  28.525  13.890
43394W        W 2655  30.491  14.661   3.229
43395W        W 2656  14.674  23.107  11.911
43396W        W 2657  28.469  44.383   0.253
43397W        W 2658  28.482   1.815  12.411
43398W        W 2659  23.096  29.036   3.858
43399W        W 2660   6.749  14.106   4.147
43400W        W 2661  42.990  41.991   1.397
43401W        W 2662  13.627  14.651  11.894
43402W        W 2663  41.028   0.883  14.506
43403W        W 2664  15.658  14.787   4.287
43404W        W 2665  28.440  36.451  14.762
43405W        W 2666  22.637  25.122   1.852
43406W        W 2667  35.444  17.655   4.124
43407W        W 2668  27.065  10.371  14.318
43408W        W 2669  19.721  15.730  14.986
43409W        W 2670  27.947  11.245   1.757
43410W        W 2671   8.792   8.813  13.843
43411W        W 2672   3.340  17.287   5.119
43412W        W 2673  17.072   9.247   3.202
43413W        W 2674   6.750  44.828   3.242
43414W        W 2675  16.263   2.367  12.449
43415W        W 2676  20.212   1.944   3.645
43416W        W 2677  18.240  35.938  10.440
43417W        W 2678  18.197  13.736   2.676
43418W        W 2679  37.520  17.648  12.938
43419W        W 2680  17.062  16.189   0.833
43420W        W 2681  30.966  13.146  14.897
43421W        W 2682  10.828   8.719  13.474
43422W        W 2683  37.906  30.004   3.788
43423W        W 2684  28.072  29.611  11.129
43424W        W 2685  32.063  10.862  10.063
43425W        W 2686  15.312  35.948  14.466
43426W        W 2687   9.678  14.254   5.298
43427W        W 2688  40.810   8.800  11.541
43428W        W 2689  29.020  24.123   4.347
43429W        W 2690  41.396  15.788   2.693
43430W        W 2691   1.966   6.193   4.158
43431W        W 2692  19.242  31.555   2.721
43432W        W 2693  39.860  22.083  14.786
43433W        W 2694  16.632  32.007  13.417
43434W        W 2695  24.044   4.885   4.617
43435W        W 2696  12.186  37.999  10.980
43436W        W 2697  17.168  30.591  12.377
43437W        W 2698  17.096  24.975   4.309
43438W        W 2699  35.469  35.513   2.795
43439W        W 2700  38.858  30.434   0.801
43440W        W 2701  38.412   7.329  14.426
43441W        W 2702  29.979  36.352  13.471
43442W        W 2703  33.519  30.979  13.855
43443W        W 2704  30.456  25.103   1.447
43444W        W 2705  44.394  44.991   4.241
43445W        W 2706  10.199   9.214  12.061
43446W        W 2707  35.402   4.834  12.872
43447W        W 2708  23.107   9.355   3.704
43448W        W 2709  23.557  13.648  13.384
43449W        W 2710  42.867   4.401   2.725
43450W        W 2711  26.648  31.476   2.339
43451W        W 2712  17.673  34.371   2.357
43452W        W 2713  10.354   8.245  14.812
43453W        W 2714  37.444   7.899  11.097
43454W        W 2715   8.810  10.215  11.420
43455W        W 2716  21.624  18.189  11.406
43456W        W 2717   9.834  19.737  10.460
43457W        W 2718  44.444  24.022  12.952
43458W        W 2719  32.491  36.387  12.363
43459W        W 2720  31.148   6.235  12.986
43460W        W 2721  18.281  16.077  13.936
43461W        W 2722  23.628  44.940  13.501
43462W        W 2723   7.371   9.219  14.490
43463W        W 2724  12.155  23.137   1.298
43464W        W 2725  30.907   5.769  11.508
43465W        W 2726  31.551  11.690  13.811
43466W        W 2727  33.941  29.966  13.512
43467W        W 2728  10.167  34.935  13.411
43468W        W 2729  14.653  29.461  14.355
43469W        W 2730  40.333  20.647  11.924
43470W        W 2731  27.582   3.796  14.324
43471W        W 2732  14.219  33.567   4.309
43472W        W 2733  36.504  38.036   2.742
43473W        W 2734  43.516  10.286   2.411
43474W        W 2735  21.542  36.509  10.508
43475W        W 2736  26.074  13.791  13.474
43476W        W 2737  42.023  11.730   0.915
43477W        W 2738  11.657  20.578   1.891
43478W        W 2739  16.105   7.261  14.439
43479W        W 2740  35.085  36.037   4.219
43480W        W 2741  24.502  13.755  12.472
43481W        W 2742  32.967  40.428  11.999
43482W        W 2743  12.718  11.324  12.953
43483W        W 2744  31.621   2.757  12.375
43484W        W 2745  32.137  32.457  13.951
43485W        W 2746  39.022  35.368  13.987
43486W        W 2747   0.853  20.071  12.345
43487W        W 2748  30.106  18.237  13.486
43488W        W 2749  33.086  15.818   1.400
43489W        W 2750  40.387  38.435   5.143
43490W        W 2751  19.774  44.365  14.011
43491W        W 2752  30.966  12.613   0.353
43492W        W 2753  28.130  33.018  12.001
43493W        W 2754  30.063  31.027   3.320
43494W        W 2755  20.110  42.929   4.254
43495W        W 2756  32.401  37.996  13.331
43496W        W 2757  25.115  29.461  14.888
43497W        W 2758  17.799  22.640   0.958
43498W        W 2759  28.516  20.060   4.665
43499W        W 2760   8.283  13.736   4.213
43500W        W 2761  38.378  16.583   0.818
43501W        W 2762  41.382   2.778   3.326
43502W        W 2763  28.501  44.266   2.272
43503W        W 2764  16.801  33.566  12.847
43504W        W 2765  34.891  35.059  13.387
43505W        W 2766  33.407  15.087  12.871
43506W        W 2767  20.613  15.588  12.010
43507W        W 2768  35.509  29.095  11.055
43508W        W 2769  23.030  36.896   3.829
43509W        W 2770  43.357  31.504   1.909
43510W        W 2771  36.090  27.096  14.765
43511W        W 2772  35.393   2.333  12.991
43512W        W 2773  23.515  34.072  14.475
43513W        W 2774  22.663  15.251   0.344
43514W        W 2775  28.037   3.846  11.503
43515W        W 2776  32.904   1.820   2.273
43516W        W 2777  28.626  40.392  10.475
43517W        W 2778  32.609   2.415   3.766
43518W        W 2779   6.378  44.835  14.320
43519W        W 2780  16.683  24.189   3.738
43520W        W 2781  27.580  31.109  12.052
43521W        W 2782  16.253  19.584  12.846
43522W        W 2783  26.176   2.886   0.915
43523W        W 2784  31.523  17.285   0.815
43524W        W 2785  11.743  12.714  10.592
43525W        W 2786   8.375  39.336   0.848
43526W        W 2787  33.082  12.317   1.781
43527W        W 2788  39.879  24.122   3.368
43528W        W 2789  25.641  25.053  12.430
43529W        W 2790  12.259  11.324   4.167
43530W        W 2791  26.958  25.586   3.171
43531W        W 2792   2.917  25.497  14.855
43532W        W 2793   2.363  43.384  14.419
43533W        W 2794   5.789  13.266  12.526
43534W        W 2795  22.248  13.349   0.904
43535W        W 2796  15.653  35.970   1.799
43536W        W 2797  16.090  20.522   1.698
43537W        W 2798  16.305   8.378  13.798
43538W        W 2799  14.797   6.768   2.254
43539W        W 2800  22.528  13.135  10.641
43540W        W 2801  22.657  33.428  11.380
43541W        W 2802  42.458  18.121  11.488
43542W        W 2803  33.485  37.979   0.811
43543W        W 2804   0.332  16.280  11.966
43544W        W 2805  40.049  13.186   1.872
43545W        W 2806   5.417   5.784  14.514
43546W        W 2807   3.889  22.693   4.117
43547W        W 2808  13.333  14.649   3.377
43548W        W 2809  41.940  23.654   2.720
43549W        W 2810   8.189   5.923   3.665
43550W        W 2811  42.938  26.687  12.967
43551W        W 2812   2.913   7.863   3.361
43552W        W 2813   2.895   8.188  10.626
43553W        W 2814  26.492  12.659  12.074
43554W        W 2815  38.870  16.118   4.816
43555W        W 2816  28.453  36.522  11.400
43556W        W 2817   5.366   0.279   1.777
43557W        W 2818  28.439  43.771   2.719
43558W        W 2819  41.295  12.636  11.555
43559W        W 2820  35.895  14.123   1.782
43560W        W 2821  33.415  18.563   0.854
43561W        W 2822   2.277   4.235   1.770
43562W        W 2823  10.865  29.168  14.341
43563W        W 2824   3.345  14.117   3.651
43564W        W 2825  40.908  31.513   4.829
43565W        W 2826  27.662   5.905   3.735
43566W        W 2827  14.641  36.041  10.518
43567W        W 2828  29.170  44.878   4.835
43568W        W 2829  35.461   1.840  14.326
43569W        W 2830   3.944   0.828  14.293
43570W        W 2831  35.079   4.869   1.840
43571W        W 2832   5.856  36.388  14.494
43572W        W 2833   5.810  44.896   2.662
43573W        W 2834  40.523  28.985   2.334
43574W        W 2835   8.371  28.534   1.730
43575W        W 2836  39.952   5.309  10.903
43576W        W 2837  35.048   3.364  10.515
43577W        W 2838   9.830  32.417   0.799
43578W        W 2839  32.633   8.374  12.092
43579W        W 2840  13.779  20.725   2.836
43580W        W 2841  38.466  26.485   3.354
43581W        W 2842  30.507  24.111  12.987
43582W        W 2843  10.248  43.275  10.644
43583W        W 2844  44.274  44.945  14.842
43584W        W 2845   5.895  42.337   1.324
43585W        W 2846  25.110   6.402   1.935
43586W        W 2847  37.086  24.555   4.696
43587W        W 2848  43.306  13.748   1.795
43588W        W 2849  19.041   7.700  11.008
43589W        W 2850  39.417  32.065   2.295
43590W        W 2851  35.472  17.302  13.879
43591W        W 2852   6.210  24.526   2.290
43592W        W 2853  18.760   2.890   3.752
43593W        W 2854   2.411  41.866  14.935
43594W        W 2855   1.429  19.148  14.770
43595W        W 2856  25.626  34.932   0.897
43596W        W 2857   8.754   9.153   2.744
43597W        W 2858  32.041   1.408  13.428
43598W        W 2859  26.567   0.464  10.473
43599W        W 2860   3.784  36.495   0.951
43600W        W 2861   1.270  14.715  12.911
43601W        W 2862  18.789  42.398   4.730
43602W        W 2863  32.416  43.874  12.924
43603W        W 2864   1.767  23.092  11.923
43604W        W 2865  22.513  18.601   5.299
43605W        W 2866   2.261  27.993   1.736
43606W        W 2867  19.683  39.905   4.316
43607W        W 2868  24.682   2.748  10.594
43608W        W 2869   6.317  44.428  14.800
43609W        W 2870  44.412  32.924  14.902
43610W        W 2871  23.001  39.808   2.327
43611W        W 2872  26.171  43.903   2.244
43612W        W 2873  33.516  21.119   4.599
43613W        W 2874   6.369   6.846  11.498
43614W        W 2875  23.024   5.717   2.771
43615W        W 2876  21.255  13.675   2.202
43616W        W 2877  27.605  25.565   4.196
43617W        W 2878  35.086  25.584  12.431
43618W        W 2879  30.010  13.140  14.919
43619W        W 2880  42.449  28.958   1.755
43620W        W 2881   4.339  26.564   2.273
43621W        W 2882  40.843  18.738   2.733
43622W        W 2883  21.198  42.999  14.486
43623W        W 2884  10.232  22.673  10.920
43624W        W 2885   9.868  42.914   2.686
43625W        W 2886  41.792  10.336   5.285
43626W        W 2887  28.163  44.764  13.386
43627W        W 2888  42.923  31.967   3.370
43628W        W 2889  37.920   0.392   1.811
43629W        W 2890  27.951   3.712   5.206
43630W        W 2891   8.718  11.319  11.930
43631W        W 2892   5.219   6.850   5.219
43632W        W 2893  12.830   0.878  10.946
43633W        W 2894  41.004  18.102  12.057
43634W        W 2895  22.583  34.933  11.382
43635W        W 2896   8.704  24.513  13.473
43636W        W 2897   3.375  41.469  14.860
43637W        W 2898  29.446  24.678   1.347
43638W        W 2899  33.533  14.109  10.507
43639W        W 2900  33.028  33.386   2.356
43640W        W 2901   4.332   1.936  12.981
43641W        W 2902   2.959   5.324  11.098
43642W        W 2903  24.532   2.261   1.840
43643W        W 2904  29.928  42.025  14.892
43644W        W 2905   8.215   8.227  14.902
43645W        W 2906  23.601  13.177  11.465
43646W        W 2907  28.009  43.404  12.423
43647W        W 2908  18.145  24.559   2.680
43648W        W 2909  33.402  14.327   5.265
43649W        W 2910  41.996  32.049   4.127
43650W        W 2911  38.384  14.807  13.969
43651W        W 2912  36.860  23.192   4.775
43652W        W 2913  33.967   5.852   2.258
43653W        W 2914  20.633  20.661   9.615
43654W        W 2915  30.418   9.710  14.317
43655W        W 2916  25.984  22.584  10.493
43656W        W 2917  20.647  40.451  14.913
43657W        W 2918  27.506  31.064   4.295
43658W        W 2919  42.291  24.084  10.611
43659W        W 2920  10.204  20.053   4.634
43660W        W 2921   4.808  38.935  14.424
43661W        W 2922  20.131   8.347  10.589
43662W        W 2923  43.440  14.326   0.814
43663W        W 2924  10.873  34.603   4.191
43664W        W 2925  28.563  13.800   2.381
43665W        W 2926  31.434  37.450   0.737
43666W        W 2927   9.723  31.144  12.375
43667W        W 2928  15.669   6.711  10.610
43668W        W 2929  37.083   7.709  10.446
43669W        W 2930  29.092  27.602   0.321
43670W        W 2931  43.014   1.414   3.840
43671W        W 2932  32.448  17.638   4.241
43672W        W 2933   1.946  33.059   0.872
43673W        W 2934  20.178  11.790  13.443
43674W        W 2935  44.294  36.986   4.638
43675W        W 2936   6.847  25.142   4.626
43676W        W 2937   3.282  12.637  11.125
43677W        W 2938  43.994  26.678   4.718
43678W        W 2939  25.625  25.555  12.015
43679W        W 2940  25.476  38.507  12.028
43680W        W 2941   3.350  37.971  12.498
43681W        W 2942  13.115   1.777   1.332
43682W        W 2943  24.183  24.506   0.407
43683W        W 2944   9.717   8.885  14.423
43684W        W 2945   0.920  30.952  14.759
43685W        W 2946   8.746  12.165  14.391
43686W        W 2947  13.311  17.574   4.780
43687W        W 2948  21.123  41.917  11.066
43688W        W 2949   7.265  14.730  10.425
43689W        W 2950  11.621  40.007  11.031
43690W        W 2951  23.986  17.306   0.348
43691W        W 2952  42.018  35.419   2.897
43692W        W 2953  29.436  19.155   4.267
43693W        W 2954  30.131  21.232  12.839
43694W        W 2955  37.341  32.503  10.911
43695W        W 2956  28.598  16.308  12.571
43696W        W 2957   0.785  26.986  14.424
43697W        W 2958  20.608  23.590   1.327
43698W        W 2959   0.387  35.533  10.963
43699W        W 2960  30.152  25.524  12.930
43700W        W 2961  20.754  19.582   1.768
43701W        W 2962  42.980  26.509  12.461
43702W        W 2963  43.917  34.049  11.924
43703W        W 2964  14.604   1.731   4.352
43704W        W 2965  25.148  13.829   0.371
43705W        W 2966  11.308  25.612   3.762
43706W        W 2967   0.812  30.062   4.237
43707W        W 2968  40.956  22.691  14.275
43708W        W 2969  36.393  31.412   1.745
43709W        W 2970  10.216   5.733   3.186
43710W        W 2971  28.017  12.182   0.271
43711W        W 2972  38.459  15.170  13.008
43712W        W 2973  27.060  32.550  11.013
43713W        W 2974  17.629  30.563  11.933
43714W        W 2975  10.717  18.212   4.611
43715W        W 2976   4.913  22.229   3.147
43716W        W 2977  14.600  37.870   0.949
43717W        W 2978  20.670  42.334   3.677
43718W        W 2979  14.233   5.307  12.396
43719W        W 2980   5.874  28.519  11.090
43720W        W 2981   3.899   7.699   4.313
43721W        W 2982  10.683  11.846   2.399
43722W        W 2983  10.138  40.894   0.386
43723W        W 2984  14.827  13.603  13.791
43724W        W 2985   2.356  27.625   1.307
43725W        W 2986  16.280   1.376  10.978
43726W        W 2987  42.386  44.414  14.415
43727W        W 2988   8.210  22.178   2.697
43728W        W 2989  10.788  13.831  13.494
43729W        W 2990  41.887  32.034   9.985
43730W        W 2991  40.798  11.143  14.485
43731W        W 2992  43.425  11.305  13.005
43732W        W 2993   4.416   0.808   3.799
43733W        W 2994  40.036  34.036  14.016
43734W        W 2995  38.859  44.424   0.873
43735W        W 2996  30.040  14.254  13.471
43736W        W 2997  26.672  16.650  13.962
43737W        W 2998  21.613   5.782   2.283
43738W        W 2999  35.400   9.326  11.558
43739W        W 3000   8.226  17.773   3.841
43740W        W 3001  38.333  17.265   1.699
43741W        W 3002  19.758  16.118   2.784
43742W        W 3003   8.708  17.677  12.469
43743W        W 3004   0.858  18.669   2.239
43744W        W 3005   8.401   3.266   4.719
43745W        W 3006  34.514   6.197   1.922
43746W        W 3007  21.065  33.065   0.908
43747W        W 3008  28.988  10.146   4.282
43748W        W 3009  32.494   4.869  10.547
43749W        W 3010  13.157  15.598  12.965
43750W        W 3011  27.515   1.918  13.002
43751W        W 3012  21.644  13.335   4.748
43752W        W 3013  36.410  32.052  10.568
43753W        W 3014  21.222  12.314  11.489
43754W        W 3015  17.062  41.923  11.903
43755W        W 3016  17.137  20.109   2.830
43756W        W 3017  41.040   0.931   4.769
43757W        W 3018  23.190  41.793   3.210
43758W        W 3019   2.269  21.694  10.903
43759W        W 3020  17.061   6.774  14.312
43760W        W 3021  27.524  11.270  14.392
43761W        W 3022  24.209  43.967  13.991
43762W        W 3023  38.035  15.225  11.605
43763W        W 3024  15.099  22.546   3.869
43764W        W 3025  20.216  27.524  10.503
43765W        W 3026  10.158  29.062  11.128
43766W        W 3027  44.423  14.626   3.691
43767W        W 3028  29.528  44.318   3.675
43768W        W 3029  32.473   8.168   3.672
43769W        W 3030  12.705  12.244   3.317
43770W        W 3031  32.566  43.369  12.355
43771W        W 3032  14.111  17.592   4.233
43772W        W 3033   8.843  22.699  11.867
43773W        W 3034  41.967  42.411  14.813
43774W        W 3035  19.165   2.270   0.913
43775W        W 3036   2.372  28.536  12.006
43776W        W 3037   0.864   1.417  10.973
43777W        W 3038  44.372  18.661   4.707
43778W        W 3039  28.560  44.485   3.153
43779W        W 3040  40.441  26.126   3.777
43780W        W 3041  41.999  35.436   0.480
43781W        W 3042   7.202  19.600   4.679
43782W        W 3043  27.018  21.615   1.366
43783W        W 3044  40.966  20.243   1.822
43784W        W 3045  26.105   4.752  11.036
43785W        W 3046   0.872  21.719   2.316
43786W        W 3047  29.029   1.926  10.980
43787W        W 3048   3.730  38.960   4.290
43788W        W 3049  29.553  40.938   4.672
43789W        W 3050   3.255  34.946   1.251
43790W        W 3051  37.048  32.508  12.467
43791W        W 3052   2.433  32.431  10.930
43792W        W 3053  40.341  19.122   3.716
43793W        W 3054  34.072   5.875  11.432
43794W        W 3055  30.489  37.453   0.424
43795W        W 3056  35.858  16.603  12.526
43796W        W 3057  19.041  26.089  11.444
43797W        W 3058  25.602  38.461   2.195
43798W        W 3059   7.806  14.685  14.818
43799W        W 3060  27.965  22.510  12.540
43800W        W 3061  32.114  41.366   0.295
43801W        W 3062   5.908  34.370  10.991
43802W        W 3063  18.670  18.752   3.242
43803W        W 3064  12.664  38.431  12.905
43804W        W 3065  31.449  29.639   0.323
43805W        W 3066  38.474  31.911  13.793
43806W        W 3067  44.895  11.127   4.621
43807W        W 3068  10.333  28.638  14.888
43808W        W 3069  10.219  29.578  14.907
43809W        W 3070  26.072  27.123  13.527
43810W        W 3071  11.656  32.506   3.684
43811W        W 3072   4.409  11.675   4.623
43812W        W 3073  38.906  20.738   2.301
43813W        W 3074  21.246  35.566   2.320
43814W        W 3075  42.445   9.685   0.362
43815W        W 3076   5.849  12.770   4.156
43816W        W 3077   2.861   7.780  13.939
43817W        W 3078  10.714  27.575   2.807
43818W        W 3079  12.175  37.525   3.702
43819W        W 3080  31.463  10.180   1.812
43820W        W 3081  38.411  31.492  10.517
43821W        W 3082  28.597  19.643   2.292
43822W        W 3083  27.028  41.297   1.722
43823W        W 3084   8.307  30.581   1.257
43824W        W 3085   3.939  13.305   0.351
43825W        W 3086   7.684  33.607   3.206
43826W        W 3087  42.327  18.144  10.523
43827W        W 3088  23.055  10.284  11.102
43828W        W 3089  12.614  40.313   3.675
43829W        W 3090  10.763  16.594   1.852
43830W        W 3091   5.722  28.075   3.849
43831W        W 3092  42.862  42.796  14.815
43832W        W 3093  32.572   5.367   4.715
43833W        W 3094  27.606  12.759  14.896
43834W        W 3095  13.646  14.603  13.059
43835W        W 3096  39.326   7.810   0.339
43836W        W 3097   5.895  29.143   4.232
43837W        W 3098  11.345  35.372   2.788
43838W        W 3099  19.178  26.983  12.516
43839W        W 3100  10.309  42.447  12.992
43840W        W 3101  22.209  41.393  11.515
43841W        W 3102  21.225   2.333  13.346
43842W        W 3103  43.407  12.650   0.884
43843W        W 3104  35.922  14.261  13.810
43844W        W 3105  27.170  10.192  13.443
43845W        W 3106   2.734  17.219   3.162
43846W        W 3107   5.218   0.784  13.057
43847W        W 3108  28.134  31.468   9.962
43848W        W 3109  16.570   9.294  12.502
43849W        W 3110  44.301  19.285   5.321
43850W        W 3111  21.258  44.000  11.939
43851W        W 3112  26.648   6.301  11.551
43852W        W 3113  29.461   7.288   3.733
43853W        W 3114   3.368   4.907   4.736
43854W        W 3115  27.636  38.010   9.630
43855W        W 3116  13.153  24.616  11.064
43856W        W 3117  28.569  26.690   5.298
43857W        W 3118  33.954  44.297  12.441
43858W        W 3119   6.338  34.867  10.594
43859W        W 3120  18.087  18.079   3.367
43860W        W 3121  44.495   1.780   1.424
43861W        W 3122  26.205  14.723   1.781
43862W        W 3123  29.430   9.176   2.804
43863W        W 3124  22.111  42.904   1.837
43864W        W 3125  16.085  41.438   3.348
43865W        W 3126  11.273  33.005   3.709
43866W        W 3127  28.662  12.660   3.737
43867W        W 3128  44.407  23.137  13.874
43868W        W 3129   6.369  24.149   0.818
43869W        W 3130  16.192  18.236  11.990
43870W        W 3131  27.191  41.991   0.894
43871W        W 3132  18.547  20.175  12.522
43872W        W 3133  22.721   1.862  13.931
43873W        W 3134  43.903  11.366  14.440
43874W        W 3135  43.459  38.552   2.306
43875W        W 3136  28.176  16.143   3.760
43876W        W 3137   8.238  42.413  13.486
43877W        W 3138  29.117   0.749  12.436
43878W        W 3139   4.731   0.901  13.902
43879W        W 3140  37.976   6.874   4.731
43880W        W 3141   1.344  10.294   4.697
43881W        W 3142  37.515  41.027  13.859
43882W        W 3143  32.512  11.167   2.699
43883W        W 3144   4.330  32.546   1.848
43884W        W 3145   3.425   1.970  10.555
43885W        W 3146  29.606  30.571  12.352
43886W        W 3147  44.835  41.372  13.901
43887W        W 3148  20.528  38.362   0.962
43888W        W 3149  10.152  12.119   0.426
43889W        W 3150  19.141  22.061   4.298
43890W        W 3151   0.346   8.755   2.768
43891W        W 3152  35.037  20.654   1.774
43892W        W 3153  40.354  26.589  13.320
43893W        W 3154  25.046  27.054  14.287
43894W        W 3155   6.876  25.034   2.223
43895W        W 3156  14.756  17.210   2.774
43896W        W 3157  24.138   2.918  12.900
43897W        W 3158  21.627   5.906  12.574
43898W        W 3159  32.583  14.268   2.870
43899W        W 3160   5.343  21.675   0.890
43900W        W 3161  29.584  14.677  12.044
43901W        W 3162   8.735  24.976   3.162
43902W        W 3163  33.587   3.892  10.100
43903W        W 3164  21.022  30.090   1.304
43904W        W 3165  19.041  42.027  14.856
43905W        W 3166  24.512  23.106  10.502
43906W        W 3167  16.259  36.976   3.746
43907W        W 3168  21.053   1.249   2.272
43908W        W 3169  16.813  25.593  14.310
43909W        W 3170  30.969  17.579   4.821
43910W        W 3171  17.765   8.274   4.268
43911W        W 3172  26.505   4.935   1.814
43912W        W 3173  36.904  36.985   2.208
43913W        W 3174   1.945  21.137   3.282
43914W        W 3175  14.613  25.010   4.144
43915W        W 3176   7.190  42.326  10.444
43916W        W 3177   5.336  43.895  11.418
43917W        W 3178  33.912  20.260  14.939
43918W        W 3179   3.235  33.979  14.866
43919W        W 3180  31.421   7.903  14.444
43920W        W 3181  39.479  32.939   2.668
43921W        W 3182  22.143  34.921   0.905
43922W        W 3183  41.368  39.357  12.974
43923W        W 3184  21.115   4.372   3.796
43924W        W 3185   0.979  16.123   0.290
43925W        W 3186   4.821   5.755   1.354
43926W        W 3187  34.960  38.481  11.464
43927W        W 3188   5.205  26.631   2.227
43928W        W 3189   8.754  21.657  12.443
43929W        W 3190  43.958  14.802  12.465
43930W        W 3191  10.247  36.064  13.540
43931W        W 3192  34.498  34.522   5.701
43932W        W 3193  22.040  19.071   2.204
43933W        W 3194   3.364  11.140  14.802
43934W        W 3195  31.992  11.785  13.484
43935W        W 3196  10.836  10.798   3.690
43936W        W 3197  34.606   1.780  13.483
43937W        W 3198  11.255  13.723  11.992
43938W        W 3199  32.597  35.478   3.823
43939W        W 3200  36.509  21.163   0.434
43940W        W 3201   0.397  16.613   1.842
43941W        W 3202  42.923  44.972  12.998
43942W        W 3203  37.058  40.454   2.357
43943W        W 3204  28.008  11.178  10.599
43944W        W 3205  31.979  23.192  12.483
43945W        W 3206   6.203  27.486  10.542
43946W        W 3207  16.784  16.635  14.384
43947W        W 3208   4.704  10.694  13.463
43948W        W 3209  41.295   0.830   2.382
43949W        W 3210  35.063  27.944   1.297
43950W        W 3211  26.008  24.106  13.478
43951W        W 3212  39.392  35.431   1.748
43952W        W 3213  43.800  32.459  12.973
43953W        W 3214  34.888  35.487  13.825
43954W        W 3215  31.413  29.967   4.794
43955W        W 3216  15.252  33.430   1.374
43956W        W 3217  33.994  16.109  12.467
43957W        W 3218   4.432  33.093  14.860
43958W        W 3219  23.512   4.745  13.879
43959W        W 3220   1.832   4.281   2.188
43960W        W 3221  31.106  41.950  13.822
43961W        W 3222  16.779  30.424  10.548
43962W        W 3223  42.973   7.268  12.862
43963W        W 3224   3.406  11.824  10.535
43964W        W 3225  20.230   0.466  12.919
43965W        W 3226  38.844  22.017  12.506
43966W        W 3227  22.518  12.134  10.537
43967W        W 3228  41.839  31.943   1.721
43968W        W 3229  34.547  14.691   1.243
43969W        W 3230  19.064  17.728  11.072
43970W        W 3231   7.826  44.420  13.986
43971W        W 3232  17.185  33.505  13.519
43972W        W 3233  36.978  38.921  13.965
43973W        W 3234  15.656  33.544   4.672
43974W        W 3235  14.341  19.114  14.383
43975W        W 3236   4.836   0.362   3.229
43976W        W 3237  26.617  28.988  13.425
43977W        W 3238  38.333   9.373  13.443
43978W        W 3239  12.360   4.898  13.377
43979W        W 3240  17.655  38.954   3.297
43980W        W 3241  27.498   2.227  13.433
43981W        W 3242  43.441  34.532   0.747
43982W        W 3243   1.955  37.085  14.824
43983W        W 3244  38.368   5.792  12.892
43984W        W 3245  16.769  18.686  14.315
43985W        W 3246  31.007  13.758   1.893
43986W        W 3247  20.230  23.631  10.514
43987W        W 3248  17.160  29.117  14.792
43988W        W 3249  12.673  36.871   4.144
43989W        W 3250  26.518  34.581  10.941
43990W        W 3251  24.619  41.295   3.160
43991W        W 3252  30.627  33.005   0.427
43992W        W 3253  15.749  42.993   4.202
43993W        W 3254  38.477  28.494  13.057
43994W        W 3255   1.853  18.571  12.564
43995W        W 3256  14.811  18.740   4.282
43996W        W 3257  36.566  42.439   1.268
43997W        W 3258  17.280  29.994  12.923
43998W        W 3259  19.759  44.369  12.395
43999W        W 3260  43.795  14.153  10.549
44000W        W 3261  25.076  16.754  14.880
44001W        W 3262  31.996  35.890   4.631
44002W        W 3263  13.834  32.461   4.151
44003W        W 3264   2.832  43.433  13.052
44004W        W 3265  23.133  41.415   2.707
44005W        W 3266  37.923  44.420  11.393
44006W        W 3267  40.827  10.329   1.384
44007W        W 3268   1.777  15.664  14.029
44008W        W 3269   8.696   1.413  11.020
44009W        W 3270   8.856  20.054  13.325
44010W        W 3271  14.800  33.421   0.732
44011W        W 3272  28.021  43.282   3.164
44012W        W 3273  19.625   0.336  11.560
44013W        W 3274  12.179  12.171  10.093
44014W        W 3275  11.300  34.580  10.526
44015W        W 3276  44.901  41.536  12.032
44016W        W 3277  18.598   6.873   0.273
44017W        W 3278  36.971  30.086   0.785
44018W        W 3279  16.629  20.155   1.228
44019W        W 3280   8.249  13.265   5.215
44020W        W 3281  13.717   3.244  13.496
44021W        W 3282   3.947  26.529   1.368
44022W        W 3283  11.321   9.330  13.791
44023W        W 3284  23.001   6.715   0.314
44024W        W 3285  39.347   5.880  10.502
44025W        W 3286   1.321  14.721   1.852
44026W        W 3287  15.700  34.607   2.296
44027W        W 3288   2.462  38.937   3.766
44028W        W 3289   7.337  17.685   1.346
44029W        W 3290  27.493   1.427  14.828
44030W        W 3291  23.677  30.641   1.892
44031W        W 3292  37.873  37.499  14.934
44032W        W 3293  44.887  30.103  11.579
44033W        W 3294  32.113   2.819   3.754
44034W        W 3295  26.196   7.393  13.369
44035W        W 3296  36.853  22.586   3.744
44036W        W 3297  29.528   8.727   3.711
44037W        W 3298  11.653  17.690  12.523
44038W        W 3299  25.712  38.463   1.215
44039W        W 3300  42.946   4.344  11.383
44040W        W 3301  38.895  29.045  13.314
44041W        W 3302  35.562  12.777  13.320
44042W        W 3303  43.930  41.984  14.027
44043W        W 3304   2.290  28.652  12.475
44044W        W 3305  12.632  29.093   0.312
44045W        W 3306  31.909  13.793   3.192
44046W        W 3307  13.151  23.134   4.131
44047W        W 3308  10.193   0.801  10.532
44048W        W 3309  20.146  16.237   2.378
44049W        W 3310  16.303  10.739   4.191
44050W        W 3311  29.494  16.240  14.017
44051W        W 3312  27.941  20.681  12.925
44052W        W 3313  44.259  38.961   0.470
44053W        W 3314   7.857  27.150  10.639
44054W        W 3315  25.633  41.494  11.884
44055W        W 3316  35.013  27.051   2.712
44056W        W 3317  16.675  11.633   3.695
44057W        W 3318  40.457  15.794  11.018
44058W        W 3319  22.076  21.552  11.119
44059W        W 3320  16.744  41.902  13.034
44060W        W 3321   7.361  44.789   3.309
44061W        W 3322   6.212  13.714   3.733
44062W        W 3323  32.902  19.706   0.417
44063W        W 3324  24.602  13.157   2.197
44064W        W 3325   9.247  11.857  14.292
44065W        W 3326  42.949  24.510   2.217
44066W        W 3327  24.179  27.036   4.355
44067W        W 3328  22.176  20.556   4.251
44068W        W 3329  29.134   5.388  13.932
44069W        W 3330  28.446  28.981  12.978
44070W        W 3331  22.589  40.532  11.060
44071W        W 3332  31.473   4.876   0.309
44072W        W 3333   2.767  33.405   0.291
44073W        W 3334  42.288  16.686   0.827
44074W        W 3335   5.335  40.381   1.871
44075W        W 3336   3.344   2.257  14.419
44076W        W 3337  37.085  28.458   3.635
44077W        W 3338  20.214  38.877   4.692
44078W        W 3339  27.019  17.298   2.663
44079W        W 3340  13.624  24.037  12.998
44080W        W 3341  14.692  20.761   3.794
44081W        W 3342  43.776  20.618  11.038
44082W        W 3343   0.253  18.050  12.941
44083W        W 3344  33.424  40.386  10.104
44084W        W 3345  23.216  10.862   3.654
44085W        W 3346  21.151   2.890  12.871
44086W        W 3347  40.337  28.445   3.365
44087W        W 3348  15.084  29.060  10.050
44088W        W 3349  21.735  18.722  10.937
44089W        W 3350  28.511  21.244   4.339
44090W        W 3351  11.806  27.471   4.748
44091W        W 3352  12.172   8.748  11.445
44092W        W 3353  44.329  33.612   4.689
44093W        W 3354  28.616  18.211  12.064
44094W        W 3355  17.147  41.858  10.490
44095W        W 3356  44.427  44.282   0.752
44096W        W 3357  44.950  28.167  11.580
44097W        W 3358   1.862   5.909  14.977
44098W        W 3359  30.134  30.104  12.509
44099W        W 3360  22.631  35.054  10.916
44100W        W 3361  10.820  28.487   2.863
44101W        W 3362  31.529  22.664  13.924
44102W        W 3363  44.309  41.296  10.947
44103W        W 3364  38.442   9.259   0.944
44104W        W 3365  26.496  38.959   1.285
44105W        W 3366  16.294  34.452   0.248
44106W        W 3367  32.011   1.305  14.791
44107W        W 3368  19.741  44.972   1.773
44108W        W 3369  15.272   6.768  11.884
44109W        W 3370   2.325  35.062   1.876
44110W        W 3371  24.721  42.396  10.601
44111W        W 3372  44.375   6.804  11.033
44112W        W 3373  11.724  42.364   2.755
44113W        W 3374  31.637  28.473   4.253
44114W        W 3375  35.443   5.859   3.340
44115W        W 3376   2.904  36.985   2.412
44116W        W 3377   4.264  36.085  13.949
44117W        W 3378  22.121   4.291   4.276
44118W        W 3379  22.691  13.616  12.383
44119W        W 3380  12.317  36.940  12.904
44120W        W 3381   7.276  19.666  12.841
44121W        W 3382  29.476  20.042   1.276
44122W        W 3383  40.038  36.878  14.910
44123W        W 3384  25.548  13.209  14.499
44124W        W 3385  22.541  24.142   0.733
44125W        W 3386  16.283  12.846  11.424
44126W        W 3387  17.263  28.481   4.286
44127W        W 3388  44.820  26.085   2.206
44128W        W 3389  27.451  31.594  12.523
44129W        W 3390  22.564  33.113  12.386
44130W        W 3391  28.170  27.983   3.656
44131W        W 3392  12.324  41.842   0.863
44132W        W 3393  12.625  27.152   4.829
44133W        W 3394  34.531  31.530   2.380
44134W        W 3395  17.576   3.377  12.956
44135W        W 3396   5.416  35.885   1.816
44136W        W 3397  24.721  44.852  13.313
44137W        W 3398   9.752   1.249   4.170
44138W        W 3399  23.093  13.336   2.692
44139W        W 3400  22.093   2.369  12.383
44140W        W 3401  19.774  34.458  12.962
44141W        W 3402   6.848  11.652  11.455
44142W        W 3403  41.794  30.966  12.502
44143W        W 3404  14.166   3.807  13.934
44144W        W 3405  26.006   0.804   4.177
44145W        W 3406  11.230   6.895  13.063
44146W        W 3407   4.231   1.933   4.157
44147W        W 3408  18.050  33.562   3.799
44148W        W 3409  31.438  25.181   4.209
44149W        W 3410  34.106  40.366  11.011
44150W        W 3411   4.700  12.615  13.871
44151W        W 3412  36.055  29.139   1.434
44152W        W 3413  44.400  19.549  13.932
44153W        W 3414  44.984  33.441  14.451
44154W        W 3415  28.007  33.604   3.861
44155W        W 3416  43.896  11.212   1.821
44156W        W 3417  39.395  41.502   0.801
44157W        W 3418   0.435  42.972   1.799
44158W        W 3419   2.953  28.142  11.926
44159W        W 3420  26.530  14.757   0.749
44160W        W 3421  32.964  37.841  12.886
44161W        W 3422   5.736  15.141  12.983
44162W        W 3423   2.724  44.313  10.597
44163W        W 3424  18.625  35.065  11.578
44164W        W 3425  12.660  25.542  14.942
44165W        W 3426  22.733  21.054  14.485
44166W        W 3427  35.428  21.695  12.892
44167W        W 3428  43.851  31.497  11.388
44168W        W 3429  23.102  12.621   3.634
44169W        W 3430  27.576  37.556  12.877
44170W        W 3431  11.786  39.810   2.723
44171W        W 3432  35.862  11.221   5.300
44172W        W 3433  15.747  14.692   4.646
44173W        W 3434   9.753  14.146   0.361
44174W        W 3435   2.755   7.831   5.640
44175W        W 3436  40.821  32.431   3.780
44176W        W 3437  28.612   3.875   3.368
44177W        W 3438  30.120   2.302   1.786
44178W        W 3439  44.763  11.154  12.472
44179W        W 3440  35.497  21.606   2.413
44180W        W 3441  36.930  38.059   3.685
44181W        W 3442  22.237  38.067  14.816
44182W        W 3443  11.139  35.557   2.262
44183W        W 3444  35.009  20.644  12.911
44184W        W 3445  16.235   0.857  13.865
44185W        W 3446  23.657  19.779   1.707
44186W        W 3447   9.230  39.397   3.247
44187W        W 3448  29.509  14.672   2.194
44188W        W 3449  27.122  16.675   0.746
44189W        W 3450  21.149   6.739   1.229
44190W        W 3451  31.466  16.801  11.055
44191W        W 3452  30.499   4.300   2.320
44192W        W 3453  21.055  35.868   4.724
44193W        W 3454  35.558  21.672  12.406
44194W        W 3455  41.441  22.036  12.443
44195W        W 3456  38.355  17.117  10.424
44196W        W 3457  39.984  31.453   4.332
44197W        W 3458  22.198  43.888   1.811
44198W        W 3459  24.634   3.232  10.511
44199W        W 3460   4.219   7.838   5.599
44200W        W 3461  12.823  20.039   4.131
44201W        W 3462   8.718  18.549   1.351
44202W        W 3463   1.382  35.382  12.364
44203W        W 3464   1.305  19.700   0.924
44204W        W 3465  13.199  37.579  10.557
44205W        W 3466   8.767  41.381  11.973
44206W        W 3467  28.026  23.001  10.982
44207W        W 3468  42.430  26.596  13.425
44208W        W 3469  10.726  37.045   3.149
44209W        W 3470  23.500  28.136   5.123
44210W        W 3471  11.218   6.336  13.063
44211W        W 3472   7.266  12.173   4.242
44212W        W 3473   2.386  28.593  11.414
44213W        W 3474  26.205   9.191   1.257
44214W        W 3475  43.318  14.613   2.405
44215W        W 3476   5.268   1.333  11.407
44216W        W 3477  11.353   4.800   4.262
44217W        W 3478  44.432   7.884  14.907
44218W        W 3479  30.523  44.437  10.641
44219W        W 3480  12.661  30.482  12.988
44220W        W 3481  33.534  43.973   3.154
44221W        W 3482  27.180   6.425  13.991
44222W        W 3483   6.851  42.984   2.359
44223W        W 3484  28.968  24.564  13.395
44224W        W 3485  25.678  11.208  10.544
44225W        W 3486   5.832  42.385  11.478
44226W        W 3487  44.425  28.185  13.403
44227W        W 3488  24.984  25.988  14.883
44228W        W 3489  32.094  20.692  11.422
44229W        W 3490   3.368  36.556   0.834
44230W        W 3491  34.087  29.519   1.875
44231W        W 3492  37.553  15.225  14.807
44232W        W 3493   0.292   7.182   2.709
44233W        W 3494  15.794  15.282  13.840
44234W        W 3495  41.367  38.395  10.930
44235W        W 3496  29.085  42.407   3.161
44236W        W 3497  19.192  12.287  11.908
44237W        W 3498  13.660  35.103   1.930
44238W        W 3499  19.640  37.067   0.945
44239W        W 3500  21.639  41.510  14.412
44240W        W 3501  27.095  26.528   9.636
44241W        W 3502   6.284  23.642   4.772
44242W        W 3503  11.173  21.707   1.231
44243W        W 3504  43.281  38.407  12.973
44244W        W 3505  24.126   6.749  11.563
44245W        W 3506  14.619  35.901  14.974
44246W        W 3507  26.179   4.839   1.231
44247W        W 3508  23.025  36.000   0.886
44248W        W 3509   4.832  36.959  11.108
44249W        W 3510  26.056  29.030  11.399
44250W        W 3511   7.681  16.089   3.653
44251W        W 3512  24.184   3.399   5.235
44252W        W 3513  28.044   9.811   0.363
44253W        W 3514  38.427   6.345   2.760
44254W        W 3515  15.678  13.693  12.449
44255W        W 3516   6.894  29.511   3.642
44256W        W 3517  23.196  35.399  11.547
44257W        W 3518  29.517  18.784   2.790
44258W        W 3519  16.701  26.165  10.534
44259W        W 3520  25.978  13.188  10.587
44260W        W 3521  39.820  33.612   4.836
44261W        W 3522  31.154  19.727   2.718
44262W        W 3523   7.404  18.079   0.772
44263W        W 3524  14.769  13.264   3.798
44264W        W 3525  25.497   2.245   0.903
44265W        W 3526   0.758  25.624   3.331
44266W        W 3527  32.126  42.024   0.336
44267W        W 3528   1.371  14.189  10.923
44268W        W 3529  30.009  43.005   4.323
44269W        W 3530  14.755  29.534  10.485
44270W        W 3531  19.183  29.923   3.188
44271W        W 3532  30.083  13.710   1.814
44272W        W 3533  32.598  30.033   1.289
44273W        W 3534   6.864  20.661  12.000
44274W        W 3535  43.295  28.483   0.403
44275W        W 3536  16.146  25.170  12.398
44276W        W 3537  31.453  17.196  12.017
44277W        W 3538  24.721  15.804   1.694
44278W        W 3539   1.330  27.167  12.048
44279W        W 3540  21.690  24.071  10.930
44280W        W 3541  36.922  21.587   0.375
44281W        W 3542  19.284  27.995  12.355
44282W        W 3543   7.899  39.546  11.922
44283W        W 3544   1.482  23.144  11.556
44284W        W 3545  18.061   1.377   1.746
44285W        W 3546  35.917  19.573  11.905
44286W        W 3547  25.518  16.685  12.009
44287W        W 3548  39.549   1.765   4.828
44288W        W 3549  15.084  35.443  11.913
44289W        W 3550  20.700  31.634  10.938
44290W        W 3551  33.568  21.248   0.412
44291W        W 3552  32.492   1.882   0.453
44292W        W 3553  18.728  43.825   3.812
44293W        W 3554  30.597   0.442   3.677
44294W        W 3555   1.778  16.727  10.551
44295W        W 3556  11.748  18.235  10.558
44296W        W 3557  16.655  31.980   2.319
44297W        W 3558  26.084   6.848   0.926
44298W        W 3559  21.191  25.180  13.837
44299W        W 3560  27.038  44.348   0.403
44300W        W 3561  11.645   2.921   5.638
44301W        W 3562   0.318  44.466  14.896
44302W        W 3563  38.000  29.077  14.324
44303W        W 3564  21.078  38.385  11.117
44304W        W 3565   9.800  28.016  12.390
44305W        W 3566  26.095  16.248  12.847
44306W        W 3567   8.282  35.575   0.482
44307W        W 3568  41.420  21.214  14.816
44308W        W 3569  28.998   7.855  13.856
44309W        W 3570  30.937  12.304  14.944
44310W        W 3571  20.042  15.646   3.713
44311W        W 3572  14.719  43.771  13.498
44312W        W 3573  26.967  33.393  12.492
44313W        W 3574  35.407  18.094   4.833
44314W        W 3575  19.121   3.892   3.237
44315W        W 3576  13.160  44.274   4.782
44316W        W 3577  28.025  14.258  10.937
44317W        W 3578  21.193  14.218  12.478
44318W        W 3579  41.300   7.911  14.874
44319W        W 3580  11.186  37.395  10.437
44320W        W 3581  27.532   7.417  14.437
44321W        W 3582   7.842   8.720   2.870
44322W        W 3583  13.158   6.768  14.028
44323W        W 3584  19.094  14.152  10.466
44324W        W 3585  40.915  24.572   2.685
44325W        W 3586  13.217  41.878  10.952
44326W        W 3587  26.154  31.455   2.313
44327W        W 3588   0.910  18.733   3.838
44328W        W 3589  24.578   1.456   1.865
44329W        W 3590  39.443  25.170  11.563
44330W        W 3591  26.952  44.984   2.676
44331W        W 3592  19.205   1.781   3.845
44332W        W 3593   2.776  32.926  13.818
44333W        W 3594  37.936  32.616   3.643
44334W        W 3595   5.812  16.251  10.629
44335W        W 3596  20.265  25.123  14.421
44336W        W 3597  25.578  32.515  13.866
44337W        W 3598  35.595  36.433   5.795
44338W        W 3599  43.805  13.226  12.078
44339W        W 3600  11.671  10.138   2.383
44340W        W 3601   8.305  14.180  12.365
44341W        W 3602  19.731  24.593  13.971
44342W        W 3603  15.301  30.909   2.372
44343W        W 3604  14.240   0.426  10.444
44344W        W 3605  11.357  21.120  10.934
44345W        W 3606  41.041  34.481   0.953
44346W        W 3607  28.033  14.159  14.940
44347W        W 3608  37.961  13.677  13.480
44348W        W 3609  13.161  44.921   0.290
44349W        W 3610  30.036  42.515   4.116
44350W        W 3611  15.127  10.344  10.607
44351W        W 3612  38.910  39.899  13.309
44352W        W 3613   0.471  38.981  14.279
44353W        W 3614  39.945  22.646   2.221
44354W        W 3615  35.054   3.377   3.669
44355W        W 3616   4.839  12.783  10.080
44356W        W 3617  24.093  20.122   0.311
44357W        W 3618   0.445  30.028  14.008
44358W        W 3619   2.423  34.406  11.438
44359W        W 3620   0.286  28.994  11.934
44360W        W 3621   4.285  44.357   2.765
44361W        W 3622  13.116   2.255  12.894
44362W        W 3623  43.436  35.588  12.543
44363W        W 3624  39.055   5.327   0.339
44364W        W 3625  11.790  12.652   5.115
44365W        W 3626  36.467  27.469  13.061
44366W        W 3627  37.561  28.176   3.230
44367W        W 3628  30.126   5.815  10.921
44368W        W 3629  35.517  30.921  10.548
44369W        W 3630  13.141   8.367  10.590
44370W        W 3631  11.205  38.435  14.863
44371W        W 3632  18.207  10.747   0.801
44372W        W 3633   4.343  28.963   2.781
44373W        W 3634  29.169  37.450  12.437
44374W        W 3635   3.429   3.271  11.586
44375W        W 3636  12.348  34.052   1.321
44376W        W 3637  38.477  24.116   3.643
44377W        W 3638  44.964  28.469   4.826
44378W        W 3639  19.159  38.836  14.799
44379W        W 3640  26.959  27.070   4.328
44380W        W 3641  16.584  18.083  13.347
44381W        W 3642   5.348  32.916   0.474
44382W        W 3643  10.296  20.537   0.802
44383W        W 3644  25.172  22.521   4.728
44384W        W 3645  43.279  38.011   0.773
44385W        W 3646  29.555   9.378   2.194
44386W        W 3647  40.965  25.096   3.668
44387W        W 3648   2.909  20.120   4.679
44388W        W 3649  35.855  28.653  11.952
44389W        W 3650  28.976  19.263  12.031
44390W        W 3651  35.943  37.513  11.464
44391W        W 3652  39.060  23.111  11.087
44392W        W 3653  14.786  24.006  13.838
44393W        W 3654  18.705  10.713  10.566
44394W        W 3655  37.884  26.189   2.796
44395W        W 3656  44.469  20.673   4.664
44396W        W 3657   0.444  37.062  14.302
44397W        W 3658  24.157   2.755   1.244
44398W        W 3659  43.441  16.661  14.294
44399W        W 3660  44.501  33.965  14.937
44400W        W 3661  37.833  11.690  14.343
44401W        W 3662  37.565  18.216   4.224
44402W        W 3663  21.520  14.804   4.723
44403W        W 3664   5.432  24.122  14.910
44404W        W 3665  41.792  16.103  14.935
44405W        W 3666  26.955  41.513  14.971
44406W        W 3667  18.053   8.249   0.840
44407W        W 3668  41.907  42.883  10.079
44408W        W 3669   3.712  34.075   4.805
44409W        W 3670   8.185  26.038  12.891
44410W        W 3671  35.537  33.037   3.252
44411W        W 3672   0.944  40.475   3.643
44412W        W 3673  12.814  26.625  12.380
44413W        W 3674  33.072  24.657  12.932
44414W        W 3675   9.259  34.113   4.701
44415W        W 3676  10.269   0.928   3.751
44416W        W 3677   4.810  29.544  10.547
44417W        W 3678  39.065  31.463   1.912
44418W        W 3679  37.885   4.915  14.296
44419W        W 3680  14.590  39.495   3.850
44420W        W 3681   6.348   5.714  13.506
44421W        W 3682  43.969  16.617  12.373
44422W        W 3683  42.423  24.657   4.352
44423W        W 3684   9.266   0.467   3.211
44424W        W 3685   3.730  20.698  10.625
44425W        W 3686   7.679   3.948   2.847
44426W        W 3687   6.234  22.562   5.302
44427W        W 3688  27.486   4.786  10.636
44428W        W 3689  28.973  34.923   0.902
44429W        W 3690  16.799   7.362   3.764
44430W        W 3691   3.253   3.954   1.290
44431W        W 3692  44.867   9.685   1.216
44432W        W 3693  26.627  30.590  11.001
44433W        W 3694  15.098  40.034  13.979
44434W        W 3695  14.326   0.442   0.272
44435W        W 3696  32.906   8.403   3.791
44436W        W 3697  44.274  11.339   2.273
44437W        W 3698   3.843  19.134   4.152
44438W        W 3699  29.985  37.879   1.796
44439W        W 3700  10.682  12.616  11.958
44440W        W 3701  24.556  26.096   2.884
44441W        W 3702  37.377  11.680  13.528
44442W        W 3703  27.525  23.161  13.812
44443W        W 3704  10.239  35.362  13.881
44444W        W 3705  29.602   1.367   2.382
44445W        W 3706  44.805   2.366  11.917
44446W        W 3707  27.160  27.947  11.428
44447W        W 3708  43.508  13.351  13.909
44448W        W 3709  39.057  38.041   0.786
44449W        W 3710  21.657   3.236   2.890
44450W        W 3711   9.218  29.005  14.345
44451W        W 3712  37.440  25.094  11.442
44452W        W 3713   0.801  20.053   1.826
44453W        W 3714  36.481  31.997   0.912
44454W        W 3715  21.514   6.268  10.511
44455W        W 3716   3.285  37.883  13.526
44456W        W 3717  40.839  18.162   3.828
44457W        W 3718  17.732  10.771  13.064
44458W        W 3719   0.440  11.338   0.266
44459W        W 3720  13.798  15.293  11.071
44460W        W 3721  44.416  26.601  13.043
44461W        W 3722  16.311  33.581  12.419
44462W        W 3723  19.101  34.034  12.439
44463W        W 3724   6.235  32.991  10.922
44464W        W 3725  38.401   9.204   2.217
44465W        W 3726  25.069  17.236   1.817
44466W        W 3727  28.063  33.915  11.613
44467W        W 3728  41.931  23.551  12.564
44468W        W 3729  28.983  31.458  12.347
44469W        W 3730  28.643  13.346   4.747
44470W        W 3731  41.535  21.206  12.460
44471W        W 3732  16.073   4.744  11.430
44472W        W 3733  20.745  39.340  11.591
44473W        W 3734  37.063  43.911  11.065
44474W        W 3735   7.896  22.571  11.128
44475W        W 3736  17.131  36.481  11.570
44476W        W 3737  28.523  26.646  10.134
44477W        W 3738  21.228  25.062   1.932
44478W        W 3739  16.753  23.656   4.670
44479W        W 3740   7.895   3.273  11.563
44480W        W 3741  25.171   9.205  14.814
44481W        W 3742   7.889  30.911  13.414
44482W        W 3743  17.249  31.949  11.601
44483W        W 3744  25.034   7.877   0.454
44484W        W 3745  16.681  28.515  11.419
44485W        W 3746  32.886  34.951   0.825
44486W        W 3747   4.823  28.957  10.129
44487W        W 3748  34.989  42.851  14.871
44488W        W 3749   8.369   7.242  10.944
44489W        W 3750  41.310  10.842  12.563
44490W        W 3751   2.290  23.631  10.993
44491W        W 3752  17.190  15.123   1.933
44492W        W 3753  41.930  36.407  13.388
44493W        W 3754   9.179   3.864   0.301
44494W        W 3755   2.812  33.606   2.180
44495W        W 3756  43.305  19.206  11.863
44496W        W 3757  42.913  20.548   2.892
44497W        W 3758   9.277  22.064  11.033
44498W        W 3759  39.410  17.643   2.763
44499W        W 3760  13.113  29.529  14.903
44500W        W 3761  39.477  36.373   0.315
44501W        W 3762  30.560  16.275   3.385
44502W        W 3763  29.484  35.008  13.481
44503W        W 3764   0.902  25.081   9.966
44504W        W 3765   8.806  23.550   4.745
44505W        W 3766  36.457  21.727  12.530
44506W        W 3767  28.608  15.287  10.415
44507W        W 3768   1.387  40.811   0.927
44508W        W 3769   4.944   6.330  10.463
44509W        W 3770  14.665  32.615  13.480
44510W        W 3771  12.689  21.676   4.327
44511W        W 3772  44.412  15.311   4.822
44512W        W 3773   2.793   6.833  12.552
44513W        W 3774  26.176   8.770   3.343
44514W        W 3775   3.866  31.618   2.415
44515W        W 3776  20.619  26.679  12.082
44516W        W 3777  38.913  44.987  13.897
44517W        W 3778  14.604  26.995  13.504
44518W        W 3779  22.618   5.330   3.307
44519W        W 3780  22.016  30.448  12.881
44520W        W 3781   1.792  31.114  12.566
44521W        W 3782  30.540   2.452   1.731
44522W        W 3783  43.290  32.584   4.305
44523W        W 3784  11.704  17.791   0.451
44524W        W 3785  36.487   6.303   4.657
44525W        W 3786  33.101  26.081  11.570
44526W        W 3787   4.234  44.450   1.430
44527W        W 3788  35.936  36.946  13.939
44528W        W 3789  10.174   4.210   1.907
44529W        W 3790   8.330  16.727   0.746
44530W        W 3791  22.171  28.577  14.300
44531W        W 3792  32.893   8.372  13.026
44532W        W 3793  10.738  30.029   3.662
44533W        W 3794  38.402  18.585  13.320
44534W        W 3795  36.000  37.984   5.221
44535W        W 3796  22.112  43.981  13.889
44536W        W 3797  14.116  31.608   2.780
44537W        W 3798  26.629  43.420  12.564
44538W        W 3799  42.984  13.133   4.625
44539W        W 3800  43.789  11.169   3.225
44540W        W 3801  29.960  24.681  13.439
44541W        W 3802   4.435  18.561   3.365
44542W        W 3803  29.619  43.775  10.922
44543W        W 3804  13.262  29.157  11.024
44544W        W 3805  22.019   9.805  13.866
44545W        W 3806  39.026   2.752  14.457
44546W        W 3807   9.867   6.835  13.490
44547W        W 3808  28.932  36.458   0.789
44548W        W 3809  39.981  39.996   1.796
44549W        W 3810  29.004   3.852   4.326
44550W        W 3811  28.999   3.271   1.721
44551W        W 3812   7.249  20.245   3.803
44552W        W 3813  11.254  20.192  14.968
44553W        W 3814  42.415  43.308  14.305
44554W        W 3815  24.613  20.623  11.981
44555W        W 3816  39.963  23.598  13.895
44556W        W 3817  17.793  43.963  11.613
44557W        W 3818  35.072  17.697   0.858
44558W        W 3819  25.637  41.402   1.252
44559W        W 3820  36.036  23.564   4.687
44560W        W 3821  34.048  19.065  12.554
44561W        W 3822  19.042  23.071  10.542
44562W        W 3823   8.316  13.133  13.846
44563W        W 3824  31.045  37.515  13.474
44564W        W 3825  10.808  38.447  11.040
44565W        W 3826  31.483  15.229   1.353
44566W        W 3827   8.705  32.569  10.578
44567W        W 3828  27.462  11.216   4.736
44568W        W 3829  10.711  28.465   2.239
44569W        W 3830  40.886   4.894  13.818
44570W        W 3831   7.292  42.017  13.422
44571W        W 3832  25.028   2.847   1.716
44572W        W 3833  42.888   0.934  12.577
44573W        W 3834  34.419  11.187  12.885
44574W        W 3835   5.837  41.832  10.991
44575W        W 3836  34.990  30.005  13.900
44576W        W 3837  15.233   7.361   0.739
44577W        W 3838  30.421  34.023  14.305
44578W        W 3839  15.087  30.426   0.410
44579W        W 3840  31.927  17.582   2.693
44580W        W 3841  35.385  18.732   3.151
44581W        W 3842  22.527  30.039   4.827
44582W        W 3843  17.787  31.933  10.458
44583W        W 3844   8.819  11.663   4.133
44584W        W 3845  35.520  32.942  10.900
44585W        W 3846  20.607  43.960   4.145
44586W        W 3847  16.600  41.973   0.423
44587W        W 3848  23.645   2.795   3.315
44588W        W 3849  10.286  26.531  13.315
44589W        W 3850  22.691  41.882  10.493
44590W        W 3851  10.162   2.351   1.885
44591W        W 3852  15.784   1.820  14.968
44592W        W 3853  37.390  23.988  13.431
44593W        W 3854  14.255  27.670  13.040
44594W        W 3855  44.955  31.024  11.961
44595W        W 3856  41.924   7.850   2.821
44596W        W 3857  40.420  28.159  12.519
44597W        W 3858  14.140  19.558   0.877
44598W        W 3859  25.000  19.092  12.025
44599W        W 3860  34.899  37.442  13.501
44600W        W 3861  38.036  35.560  12.089
44601W        W 3862  20.138  43.850   2.777
44602W        W 3863  13.105   1.913   1.753
44603W        W 3864   5.363  43.403  13.010
44604W        W 3865  34.951  26.650   3.234
44605W        W 3866  11.335  37.916  12.856
44606W        W 3867  13.714  17.560  11.868
44607W        W 3868  35.378  10.166  14.769
44608W        W 3869  14.266  17.570   1.817
44609W        W 3870  14.254   8.767   0.811
44610W        W 3871   5.219  13.189  13.998
44611W        W 3872  36.457  25.515   3.800
44612W        W 3873  40.042  42.491  12.988
44613W        W 3874   7.849  18.555   2.880
44614W        W 3875  28.501  36.033   3.233
44615W        W 3876   4.399  12.353   2.671
44616W        W 3877  22.046  14.740   2.738
44617W        W 3878  26.002   7.340   0.293
44618W        W 3879  24.040  19.054   4.289
44619W        W 3880  38.478  33.592  13.381
44620W        W 3881   4.823   1.415   1.264
44621W        W 3882   6.783  43.278   4.330
44622W        W 3883  25.208  29.955  14.482
44623W        W 3884  10.647  14.123  13.417
44624W        W 3885  13.259  16.292   1.249
44625W        W 3886   9.376   8.298  13.817
44626W        W 3887   6.859  35.485  11.984
44627W        W 3888  35.942  20.033   3.325
44628W        W 3889  12.224  19.608   0.295
44629W        W 3890  21.193  17.728   2.707
44630W        W 3891  32.554  21.114  11.403
44631W        W 3892  42.844  11.667  11.402
44632W        W 3893  22.045  43.361  13.018
44633W        W 3894  14.304  34.989  10.529
44634W        W 3895  18.730   8.319   0.256
44635W        W 3896  19.210   8.701   1.370
44636W        W 3897  33.619  27.988  12.856
44637W        W 3898  23.594   3.889   1.443
44638W        W 3899  16.567  38.968  13.480
44639W        W 3900  40.443  17.738   3.297
44640W        W 3901  29.009  40.910  13.017
44641W        W 3902  43.431  27.989  10.091
44642W        W 3903  17.234  24.163   3.784
44643W        W 3904  39.526  14.307   4.225
44644W        W 3905  18.625  34.488   3.653
44645W        W 3906   5.268  19.134  13.419
44646W        W 3907  37.357   3.444   5.270
44647W        W 3908   1.749  17.183   1.843
44648W        W 3909   0.852  36.982  12.907
44649W        W 3910  44.350  17.636   1.290
44650W        W 3911  43.297   1.882  14.792
44651W        W 3912   1.394  33.413  13.866
44652W        W 3913   5.234   0.793  12.055
44653W        W 3914  30.547  39.515  13.331
44654W        W 3915  13.663   9.818  14.492
44655W        W 3916  31.031  37.445  12.387
44656W        W 3917   1.962   6.417   0.905
44657W        W 3918  11.731   7.217   1.407
44658W        W 3919  23.237  21.248   2.808
44659W        W 3920  11.174   9.765   4.680
44660W        W 3921   1.935  30.140   1.893
44661W        W 3922  38.867  25.472  11.871
44662W        W 3923  13.305  32.903   1.448
44663W        W 3924  15.114  36.916   4.216
44664W        W 3925  26.481  42.818   4.664
44665W        W 3926  13.318  30.651  14.956
44666W        W 3927  32.099   8.391   3.320
44667W        W 3928  22.709  29.137  14.761
44668W        W 3929   7.738  12.672   4.664
44669W        W 3930  21.622  22.594   3.244
44670W        W 3931  29.545   5.714   1.301
44671W        W 3932  12.139  37.568  13.426
44672W        W 3933  13.820  12.725   4.609
44673W        W 3934  34.427   5.764  11.460
44674W        W 3935  29.545  15.586   1.832
44675W        W 3936  13.117   8.267  12.467
44676W        W 3937  28.141   6.818   1.919
44677W        W 3938  12.125  42.896   4.321
44678W        W 3939  11.821  33.553   9.996
44679W        W 3940  33.394   8.234   4.744
44680W        W 3941  26.681   2.458  13.892
44681W        W 3942  30.516  22.067  11.899
44682W        W 3943  40.433  16.780   4.335
44683W        W 3944  10.672  16.148   0.778
44684W        W 3945  21.117   8.805  13.348
44685W        W 3946  34.928  41.818   2.391
44686W        W 3947  38.012  38.998  13.524
44687W        W 3948  30.568  33.379   1.702
44688W        W 3949  42.795  29.525   2.850
44689W        W 3950   8.899   0.806   2.799
44690W        W 3951  29.625   2.953   3.637
44691W        W 3952  16.297  21.618   4.245
44692W        W 3953  25.607  38.503  14.978
44693W        W 3954  38.388   2.906   2.330
44694W        W 3955  22.723  31.623   0.248
44695W        W 3956  36.432  17.617  13.995
44696W        W 3957  37.417   2.821  10.891
44697W        W 3958  40.440  19.767  11.974
44698W        W 3959   6.844  30.986   2.706
44699W        W 3960  28.621  43.397   1.429
44700W        W 3961  28.948  35.009   3.381
44701W        W 3962   4.723  14.275  12.018
44702W        W 3963  32.985  17.203  12.995
44703W        W 3964   0.377  42.949   2.843
44704W        W 3965  34.423   1.398   3.192
44705W        W 3966   5.237  37.899   2.785
44706W        W 3967  38.039   9.759   4.749
44707W        W 3968  14.311   8.771  10.892
44708W        W 3969   3.947  40.538   2.303
44709W        W 3970  41.848  42.364  14.419
44710W        W 3971  30.923   7.279   1.335
44711W        W 3972  18.053  26.653   1.302
44712W        W 3973  35.546   2.752  14.390
44713W        W 3974  24.168   0.818   3.804
44714W        W 3975  36.380  38.925  11.410
44715W        W 3976  15.590  23.165  12.555
44716W        W 3977   5.409  11.354   1.364
44717W        W 3978  30.145   4.759  12.566
44718W        W 3979  24.654   7.784  10.469
44719W        W 3980  23.027  29.570   2.676
44720W        W 3981  37.401  21.124  10.565
44721W        W 3982   5.341  36.545  14.284
44722W        W 3983  10.750  23.709   3.725
44723W        W 3984   6.329  31.062  11.054
44724W        W 3985  33.459  42.780  13.330
44725W        W 3986  16.583   1.457   4.706
44726W        W 3987   2.306  13.214  13.908
44727W        W 3988  17.678   9.302   1.880
44728W        W 3989  18.083  44.435   0.859
44729W        W 3990  17.061  32.121  13.944
44730W        W 3991  12.168  28.459   4.163
44731W        W 3992   4.418  31.437  11.984
44732W        W 3993  12.623  20.198  13.426
44733W        W 3994  13.726  36.970   2.730
44734W        W 3995  41.824  42.924   5.297
44735W        W 3996   7.291   6.235  14.860
44736W        W 3997  11.167  25.521  13.321
44737W        W 3998  16.605  27.624   4.196
44738W        W 3999   6.707  25.158  12.059
44739W        W 4000   5.393  26.678  13.831
44740W        W 4001  36.359  14.705   1.806
44741W        W 4002   9.813  27.682   4.617
44742W        W 4003  10.374   0.274  10.914
44743W        W 4004  30.019   0.413  14.324
44744W        W 4005  27.163  11.228   3.336
44745W        W 4006  17.308  35.001   1.882
44746W        W 4007  11.127  42.868   0.478
44747W        W 4008   5.690  44.504  14.791
44748W        W 4009  11.674  32.046   4.278
44749W        W 4010  44.436  38.459  12.528
44750W        W 4011  20.630   1.857  12.531
44751W        W 4012   1.291  44.777   3.677
44752W        W 4013  20.191   6.263   3.267
44753W        W 4014  42.325  25.519  14.985
44754W        W 4015  39.046  24.041  12.039
44755W        W 4016  35.986  22.241   4.629
44756W        W 4017  40.468  23.516   4.783
44757W        W 4018  11.669   9.812  11.398
44758W        W 4019   8.845  16.078   2.903
44759W        W 4020  12.746   0.895   3.218
44760W        W 4021   9.822  18.068   4.145
44761W        W 4022  33.070   1.356  13.036
44762W        W 4023   5.726  23.125  13.854
44763W        W 4024  14.176  18.265   1.749
44764W        W 4025  16.587   1.782  10.459
44765W        W 4026  33.986  24.184  11.873
44766W        W 4027   2.376  25.978  13.060
44767W        W 4028  36.429  19.093   1.248
44768W        W 4029  34.057  38.998  14.401
44769W        W 4030  22.999  16.294  14.321
44770W        W 4031  15.701  30.019  10.556
44771W        W 4032  13.788  28.590   4.781
44772W        W 4033  24.006   3.926   1.358
44773W        W 4034  34.388  43.312   5.778
44774W        W 4035  34.567  41.320  13.431
44775W        W 4036  41.482  35.922  13.340
44776W        W 4037  12.644   9.756  14.474
44777W        W 4038  26.193   7.729   3.666
44778W        W 4039   3.737  23.639   1.887
44779W        W 4040  17.613  42.467  14.915
44780W        W 4041  15.579   0.410   3.805
44781W        W 4042  28.499  43.451  13.421
44782W        W 4043  42.895  13.814   2.849
44783W        W 4044   9.153  39.342  12.364
44784W        W 4045  33.399  41.013  11.955
44785W        W 4046   2.756  37.474  13.457
44786W        W 4047  20.171  44.933  10.503
44787W        W 4048   7.901  36.029   3.820
44788W        W 4049  16.318  16.307   0.957
44789W        W 4050  26.203  36.044   2.298
44790W        W 4051  16.155  35.423  11.881
44791W        W 4052  38.853  35.853  10.088
44792W        W 4053  43.902  43.888  13.828
44793W        W 4054  31.436  12.611   3.365
44794W        W 4055  37.923  30.508   2.796
44795W        W 4056  17.655  35.948   1.763
44796W        W 4057  37.860  29.173   2.214
44797W        W 4058  42.394  27.564  11.523
44798W        W 4059  44.391  13.658   3.775
44799W        W 4060  31.528  25.089   1.849
44800W        W 4061   7.380  33.407   4.145
44801W        W 4062  42.294  36.379   9.494
44802W        W 4063   5.197  22.608  12.925
44803W        W 4064  18.708   1.389  14.909
44804W        W 4065  32.889  14.717  14.277
44805W        W 4066  38.385  44.387  13.942
44806W        W 4067  12.187  12.140   3.675
44807W        W 4068  44.993   8.784  14.860
44808W        W 4069  34.451   0.851  10.506
44809W        W 4070  18.281  20.184   4.256
44810W        W 4071   7.354   8.771   0.750
44811W        W 4072  33.891  15.098   2.260
44812W        W 4073  32.139  23.690  12.891
44813W        W 4074  40.954  35.548  12.520
44814W        W 4075   2.893  34.062  14.937
44815W        W 4076  35.551  32.103   2.377
44816W        W 4077   4.315  35.899  11.007
44817W        W 4078   2.726  36.872   1.886
44818W        W 4079  16.230  22.551   0.842
44819W        W 4080   9.752  39.908  13.474
44820W        W 4081  20.039  23.608  11.492
44821W        W 4082  36.034  14.617  11.411
44822W        W 4083  14.158  23.078  12.552
44823W        W 4084  41.856  31.466   4.274
44824W        W 4085  37.341  40.463  13.871
44825W        W 4086   2.469  16.736  13.813
44826W        W 4087   4.309  24.604  13.883
44827W        W 4088  25.065   0.372  10.435
44828W        W 4089  21.747  44.962  11.952
44829W        W 4090   6.372  40.876   0.295
44830W        W 4091  21.202  15.772   2.742
44831W        W 4092  44.353   4.726  14.486
44832W        W 4093  29.927   2.843  14.298
44833W        W 4094  32.409  40.887  10.150
44834W        W 4095   2.812  25.112  14.021
44835W        W 4096  13.746   5.769   0.778
44836W        W 4097   2.819  41.405   3.287
44837W        W 4098  43.979  43.855  14.780
44838W        W 4099  12.790   2.227   5.752
44839W        W 4100   3.432  35.958   2.897
44840W        W 4101  26.170  31.570  10.906
44841W        W 4102  16.737   9.849  10.500
44842W        W 4103  14.639   1.935  12.424
44843W        W 4104  34.524   2.344   4.319
44844W        W 4105  21.050  14.228  10.610
44845W        W 4106  30.600  33.068  13.022
44846W        W 4107  38.997  44.864   4.167
44847W        W 4108   0.788  41.534   4.136
44848W        W 4109   7.900  36.454   4.296
44849W        W 4110  28.118  44.366   4.274
44850W        W 4111  21.693  28.158   3.714
44851W        W 4112  18.265  40.491   4.281
44852W        W 4113  29.946  44.905  14.907
44853W        W 4114  32.964  32.570  14.980
44854W        W 4115  23.491  44.923   0.277
44855W        W 4116  36.075  28.183   5.286
44856W        W 4117  15.682  17.298  14.303
44857W        W 4118  37.378  41.850   4.199
44858W        W 4119  20.649  23.054  14.862
44859W        W 4120  37.060  12.186  14.769
44860W        W 4121  19.159  44.353   3.773
44861W        W 4122  23.563  27.057  13.029
44862W        W 4123   4.916  19.159  14.383
44863W        W 4124  15.606   2.268  10.595
44864W        W 4125  15.667  41.534  12.515
44865W        W 4126  43.991  37.419   4.291
44866W        W 4127  38.008  15.777  12.996
44867W        W 4128   7.223  13.217   2.246
44868W        W 4129  43.834  26.161  14.436
44869W        W 4130  24.149   0.255   0.309
44870W        W 4131  31.458  12.747  13.525
44871W        W 4132  44.372  11.320  13.856
44872W        W 4133  12.790   7.667  13.422
44873W        W 4134  28.441  18.560  12.895
44874W        W 4135  13.617  41.806   1.427
44875W        W 4136  14.149   5.245   3.192
44876W        W 4137  39.906  20.052   2.262
44877W        W 4138  18.055  30.418   2.892
44878W        W 4139  41.006  21.574  11.026
44879W        W 4140   0.889  39.370   4.788
44880W        W 4141  32.041  17.205   0.471
44881W        W 4142  39.844  19.587   1.926
44882W        W 4143  30.940  14.294  11.410
44883W        W 4144  32.471  20.740   1.283
44884W        W 4145  19.594   0.923  14.898
44885W        W 4146   1.299  15.787   0.965
44886W        W 4147  43.340   3.319  10.950
44887W        W 4148  34.560  32.056   3.273
44888W        W 4149  26.068   8.823  14.769
44889W        W 4150   1.934   6.231  10.901
44890W        W 4151   5.417  19.564   4.609
44891W        W 4152  41.378  40.018  14.356
44892W        W 4153  41.845  35.968  14.354
44893W        W 4154  32.066  22.742  12.519
44894W        W 4155   6.794   6.676   4.188
44895W        W 4156  28.667  24.195  12.002
44896W        W 4157  32.028  44.382   2.895
44897W        W 4158  37.480  17.181  12.880
44898W        W 4159  43.461  13.672   4.615
44899W        W 4160  27.975  38.409  11.936
44900W        W 4161  43.797  21.703  10.424
44901W        W 4162  31.584  13.180   2.693
44902W        W 4163   1.280  44.810  14.467
44903W        W 4164  38.435  16.581  13.017
44904W        W 4165  35.428  34.002  11.384
44905W        W 4166  41.333  26.604   2.394
44906W        W 4167  29.527   7.705   1.335
44907W        W 4168  27.987  21.048  14.453
44908W        W 4169  37.953   6.743   2.682
44909W        W 4170  32.901  19.261  11.383
44910W        W 4171  36.397  17.223   0.965
44911W        W 4172   9.389   8.229   2.308
44912W        W 4173   6.700  41.503   2.751
44913W        W 4174   1.962  17.084   2.758
44914W        W 4175   4.725  14.127   2.778
44915W        W 4176   4.778   1.787   3.852
44916W        W 4177  43.433  44.979   3.184
44917W        W 4178  19.187  38.441   0.942
44918W        W 4179  10.703  38.446  13.875
44919W        W 4180  34.583  43.885  13.462
44920W        W 4181  27.015  26.557   0.899
44921W        W 4182   4.839  41.476  10.129
44922W        W 4183  32.107   8.798   0.760
44923W        W 4184   4.291  44.502   1.727
44924W        W 4185   4.299  38.523  13.817
44925W        W 4186  25.625  12.339   2.195
44926W        W 4187   8.233   8.350   2.189
44927W        W 4188   2.876   6.226   3.841
44928W        W 4189  21.037  44.289  11.960
44929W        W 4190  39.354  30.476  14.907
44930W        W 4191  18.713  38.046  14.000
44931W        W 4192  34.486  21.562  12.849
44932W        W 4193  18.755  27.670   4.325
44933W        W 4194  44.323  27.590   3.839
44934W        W 4195  37.020  44.279   0.853
44935W        W 4196  18.127  43.798  12.039
44936W        W 4197  40.932  22.731   0.387
44937W        W 4198  36.931   4.276   2.883
44938W        W 4199  10.174  23.156  10.974
44939W        W 4200   9.855  39.462  13.456
44940W        W 4201   2.747  35.008   2.313
44941W        W 4202  26.194  32.461   3.683
44942W        W 4203  44.288  24.642  13.427
44943W        W 4204  42.370  21.201  13.413
44944W        W 4205  12.735  43.481   2.898
44945W        W 4206   7.802  21.246   5.121
44946W        W 4207   7.874  37.989  13.408
44947W        W 4208  11.647   2.786  12.367
44948W        W 4209   5.735  41.301   3.766
44949W        W 4210   1.948   5.343  14.807
44950W        W 4211   0.789   5.254   1.798
44951W        W 4212   3.420   0.771  14.478
44952W        W 4213  38.851  40.053  14.460
44953W        W 4214  21.030   4.804   0.321
44954W        W 4215  15.644  42.319  12.520
44955W        W 4216  11.199  18.273  13.029
44956W        W 4217  32.456   1.779   3.782
44957W        W 4218   5.341  16.799  12.504
44958W        W 4219  33.103  25.086   3.316
44959W        W 4220  10.358  26.658  13.909
44960W        W 4221  39.456  37.523   4.199
44961W        W 4222  37.367  17.238   1.386
44962W        W 4223  33.003  10.721  13.862
44963W        W 4224   0.268   1.734   3.160
44964W        W 4225  14.707  10.260   4.724
44965W        W 4226  42.304   5.235   1.397
44966W        W 4227  39.901  15.658  11.870
44967W        W 4228  11.846   8.667   0.270
44968W        W 4229   8.303   5.222   4.808
44969W        W 4230   1.852  22.141   4.295
44970W        W 4231   1.439  37.849   2.304
44971W        W 4232  35.963  22.569   3.779
44972W        W 4233  15.139  20.045  13.794
44973W        W 4234   1.920   6.914   4.181
44974W        W 4235   9.706  14.732   4.204
44975W        W 4236   0.257  12.654   4.220
44976W        W 4237  19.089   6.844  14.473
44977W        W 4238  37.432  40.399  14.429
44978W        W 4239  32.103  21.203   2.307
44979W        W 4240  27.988  14.598   4.161
44980W        W 4241  25.711  37.966   2.725
44981W        W 4242  41.942  44.473  14.287
44982W        W 4243   6.853  28.106   4.159
44983W        W 4244  21.135   8.240  14.986
44984W        W 4245  42.392  38.973  12.463
44985W        W 4246  41.939   5.354   3.849
44986W        W 4247  15.638  30.144  14.308
44987W        W 4248  29.511  34.533  12.579
44988W        W 4249   6.919  20.574  14.010
44989W        W 4250  12.308  21.539   1.238
44990W        W 4251  12.635  29.051  14.895
44991W        W 4252  21.558  12.335  12.985
44992W        W 4253  43.777   9.882  11.054
44993W        W 4254  33.565  25.082   0.888
44994W        W 4255  11.650  15.585   0.418
44995W        W 4256  25.573  41.039   4.660
44996W        W 4257  27.466   7.680   2.816
44997W        W 4258  29.169  11.241   5.287
44998W        W 4259   1.916  29.960   4.657
44999W        W 4260  11.175  25.145   3.307
45000W        W 4261  23.037  17.629  11.918
45001W        W 4262  20.533  33.966   0.889
45002W        W 4263   3.760  26.538  10.958
45003W        W 4264   8.312  22.035  12.084
45004W        W 4265  44.454  33.967   3.788
45005W        W 4266  10.647  21.075  12.369
45006W        W 4267  29.593   5.394  12.539
45007W        W 4268  27.531  21.127   0.778
45008W        W 4269  25.064  38.361  12.405
45009W        W 4270   5.900  35.098  10.542
45010W        W 4271  21.735  18.606  10.479
45011W        W 4272   8.740  12.647  11.577
45012W        W 4273  18.732  40.021   3.382
45013W        W 4274   1.771  13.702  10.891
45014W        W 4275  23.574   5.228   1.332
45015W        W 4276  19.676   3.948   3.668
45016W        W 4277  18.751   3.220   2.719
45017W        W 4278  44.954  16.192   2.329
45018W        W 4279  12.216  18.203   0.419
45019W        W 4280  34.556  19.615   4.255
45020W        W 4281  35.479  31.987  13.388
45021W        W 4282  25.197  16.698  12.832
45022W        W 4283  27.547  32.992  13.862
45023W        W 4284  41.500   9.267  12.853
45024W        W 4285  30.034  23.175  13.930
45025W        W 4286  40.798  29.640   2.410
45026W        W 4287  18.757  43.505  10.641
45027W        W 4288   8.309  16.210   0.245
45028W        W 4289  16.162  12.849  14.866
45029W        W 4290  25.533  34.068  13.891
45030W        W 4291  41.453  32.537   3.839
45031W        W 4292  23.550   1.893   0.810
45032W        W 4293  17.302  21.532  11.408
45033W        W 4294  38.541  29.067   1.795
45034W        W 4295  32.558  20.591  12.896
45035W        W 4296   8.658  10.739   2.732
45036W        W 4297  34.025   4.330  12.828
45037W        W 4298   5.806   2.912   0.727
45038W        W 4299  14.633  15.723  13.064
45039W        W 4300   8.189  33.434   4.677
45040W        W 4301  32.891  31.568   1.872
45041W        W 4302  37.486  30.487   1.859
45042W        W 4303  11.867  36.494  11.955
45043W        W 4304   8.710  19.279  13.354
45044W        W 4305  29.923   4.234  13.927
45045W        W 4306  39.911  11.805   0.289
45046W        W 4307   7.362  42.391  14.763
45047W        W 4308  20.751  34.455  14.032
45048W        W 4309  29.091  40.515   2.710
45049W        W 4310  21.115   9.870   3.733
45050W        W 4311  21.524   7.212   0.249
45051W        W 4312  21.151  10.655   0.931
45052W        W 4313  43.327  33.422  13.344
45053W        W 4314  38.327  44.793   3.670
45054W        W 4315  10.653  17.799  10.541
45055W        W 4316  28.010  31.557   2.199
45056W        W 4317  32.473  34.574  13.475
45057W        W 4318  30.950  23.073   0.267
45058W        W 4319  11.155  27.079  14.923
45059W        W 4320   9.644  10.271   2.767
45060W        W 4321  17.268  19.750  13.392
45061W        W 4322  10.699  37.968   0.781
45062W        W 4323  38.435   7.197   4.184
45063W        W 4324   6.677  35.522   2.328
45064W        W 4325  22.113  17.731  13.024
45065W        W 4326  18.675  40.023  14.808
45066W        W 4327  21.680   4.386   3.634
45067W        W 4328  22.540  10.227   0.869
45068W        W 4329  34.589  16.774   4.243
45069W        W 4330   3.402  17.794   0.427
45070W        W 4331  19.111   5.805   4.123
45071W        W 4332   1.245  39.011   0.937
45072W        W 4333   0.886  34.381   2.286
45073W        W 4334  25.994  11.837   0.839
45074W        W 4335  27.523   2.838  13.952
45075W        W 4336   4.328   2.243   4.301
45076W        W 4337  11.169  27.984   0.838
45077W        W 4338  31.617  12.815   0.856
45078W        W 4339   8.364  40.362  12.979
45079W        W 4340  32.479  14.139  11.547
45080W        W 4341  36.474  33.470  12.007
45081W        W 4342  15.185  23.101  13.062
45082W        W 4343  11.690  16.305   1.751
45083W        W 4344  42.808   2.763   4.749
45084W        W 4345  20.162  33.437  10.417
45085W        W 4346  36.450   4.784   4.724
45086W        W 4347  27.015  26.546   2.810
45087W        W 4348  34.882   4.354  13.041
45088W        W 4349   3.810  35.919  10.517
45089W        W 4350  25.513  32.448   2.198
45090W        W 4351  12.303  26.589   1.711
45091W        W 4352   2.760   3.400  10.524
45092W        W 4353  21.731  13.338  14.384
45093W        W 4354  37.490  26.616  13.460
45094W        W 4355  12.625  22.718   0.734
45095W        W 4356  36.587   5.831   4.118
45096W        W 4357   1.443  28.086   1.221
45097W        W 4358  11.145  12.224   5.630
45098W        W 4359  18.231  20.760   2.395
45099W        W 4360   7.861  32.593  14.397
45100W        W 4361   5.715  38.426  10.958
45101W        W 4362  41.988  15.657   0.347
45102W        W 4363  37.375  39.499  10.444
45103W        W 4364  36.425  34.021  13.379
45104W        W 4365  17.160   8.671   5.321
45105W        W 4366  28.978  23.094   0.362
45106W        W 4367   2.895  34.409  12.031
45107W        W 4368  11.187  18.231   2.794
45108W        W 4369  15.292  41.981  13.897
45109W        W 4370   9.831  38.840  11.423
45110W        W 4371   2.327  18.636  13.525
45111W        W 4372   4.896  13.659   1.811
45112W        W 4373   2.307  19.594  13.976
45113W        W 4374  17.301  33.598  12.368
45114W        W 4375  30.488   9.804  11.026
45115W        W 4376  34.515   6.269   1.401
45116W        W 4377   5.196  23.704   1.901
45117W        W 4378  18.203  19.264   4.312
45118W        W 4379  21.574  42.319  11.463
45119W        W 4380   9.798  16.569   4.608
45120W        W 4381  15.190  40.943  13.962
45121W        W 4382  11.269  40.938  14.031
45122W        W 4383  37.411  19.121   2.865
45123W        W 4384  31.610  11.133  13.324
45124W        W 4385   5.885  26.548  10.139
45125W        W 4386  38.518  16.120   4.326
45126W        W 4387  33.459  20.273  13.461
45127W        W 4388  32.561   9.732  14.338
45128W        W 4389   5.302  36.033  14.948
45129W        W 4390  42.914  32.135   1.374
45130W        W 4391  41.335  26.074   2.868
45131W        W 4392  11.352  17.307   3.348
45132W        W 4393   2.758  27.599   4.788
45133W        W 4394  21.165  25.613   1.719
45134W        W 4395  32.495  16.253   4.168
45135W        W 4396  17.068  34.584  12.860
45136W        W 4397  22.556   5.754  14.301
45137W        W 4398  43.937  30.514   0.421
45138W        W 4399  44.998  38.015  13.485
45139W        W 4400  20.707  43.465   2.692
45140W        W 4401  23.515  38.821  13.901
45141W        W 4402  13.765  38.019  11.045
45142W        W 4403  38.531  32.521   1.927
45143W        W 4404  38.823   0.787  13.353
45144W        W 4405   2.741  28.932  12.055
45145W        W 4406  13.162  44.497  10.517
45146W        W 4407  23.096  11.740  14.514
45147W        W 4408   1.443  40.323   4.262
45148W        W 4409  23.234  12.760   2.903
45149W        W 4410  28.607  40.971   4.741
45150W        W 4411   9.350  32.488   4.619
45151W        W 4412  28.502  18.645   0.915
45152W        W 4413  25.176  10.662  12.435
45153W        W 4414  29.930   0.451  13.308
45154W        W 4415  24.546  39.936  13.951
45155W        W 4416  12.293  19.064   2.696
45156W        W 4417  33.047  36.959   2.777
45157W        W 4418  15.792  38.347   1.911
45158W        W 4419  33.068  27.991   0.749
45159W        W 4420  16.719  23.134   1.737
45160W        W 4421  11.668  30.973   4.256
45161W        W 4422  16.794  29.455  12.883
45162W        W 4423  36.470  42.008  12.990
45163W        W 4424  15.139  22.057  14.845
45164W        W 4425   1.248  19.254  11.590
45165W        W 4426  13.144   9.259   4.780
45166W        W 4427   4.440  28.058  15.000
45167W        W 4428   5.292   7.280   4.725
45168W        W 4429   2.273   1.865   1.722
45169W        W 4430  10.287  27.494   3.328
45170W        W 4431   0.967  35.998  10.515
45171W        W 4432  41.305  43.846   2.881
45172W        W 4433  33.591  36.491   4.280
45173W        W 4434   9.741  36.404  11.913
45174W        W 4435  31.955  43.329   1.263
45175W        W 4436  34.476   7.394  10.952
45176W        W 4437   1.798  18.725   3.852
45177W        W 4438   4.322  25.544   1.793
45178W        W 4439  32.568  35.964   3.189
45179W        W 4440  28.150  20.568   0.472
45180W        W 4441  44.288   1.364   1.821
45181W        W 4442  42.318  37.388   2.666
45182W        W 4443  44.948  43.886   1.354
45183W        W 4444  35.019   7.404  14.365
45184W        W 4445  24.629  10.861   0.276
45185W        W 4446  16.705  11.733  12.880
45186W        W 4447  12.659  27.543   5.320
45187W        W 4448   0.393  28.438   0.393
45188W        W 4449  26.556  25.711  14.005
45189W        W 4450  15.690  22.559   4.817
45190W        W 4451  34.456  26.005  11.865
45191W        W 4452  12.322  10.254   0.807
45192W        W 4453  14.724  27.447   2.193
45193W        W 4454   2.418   5.852   1.384
45194W        W 4455   7.233  10.829   0.355
45195W        W 4456  30.910  18.252  11.954
45196W        W 4457  11.317  18.708  10.470
45197W        W 4458  44.852  15.195  13.839
45198W        W 4459  18.714  20.606   3.766
45199W        W 4460  17.236   1.473   2.401
45200W        W 4461   7.324  39.035  12.370
45201W        W 4462  21.618  24.205  10.636
45202W        W 4463  33.023  41.994   3.639
45203W        W 4464   2.757  15.799  12.511
45204W        W 4465   6.254   9.221  11.445
45205W        W 4466  22.027  33.502   4.308
45206W        W 4467   5.298  28.439   2.197
45207W        W 4468  33.622  35.085  14.372
45208W        W 4469  12.226   7.805   1.766
45209W        W 4470  42.296   9.861  11.530
45210W        W 4471  11.257  29.107  13.030
45211W        W 4472  23.628  15.192   2.761
45212W        W 4473   6.222  23.228  12.986
45213W        W 4474  28.080  11.257  14.002
45214W        W 4475  26.578  34.542   1.323
45215W        W 4476   7.407  37.876   4.617
45216W        W 4477  32.042  31.942  13.991
45217W        W 4478   0.896  35.096   3.189
45218W        W 4479  24.662  43.306   4.114
45219W        W 4480  15.134   9.391   4.804
45220W        W 4481  17.087   3.765  14.277
45221W        W 4482   7.729  37.897   2.215
45222W        W 4483  25.051  35.094   0.463
45223W        W 4484  36.415  15.800   3.714
45224W        W 4485  43.472  13.629  13.397
45225W        W 4486  13.298  38.841   2.867
45226W        W 4487   7.183   6.262   3.303
45227W        W 4488  36.923  13.623   2.809
45228W        W 4489  17.783  29.594   2.309
45229W        W 4490  13.600  36.915   3.645
45230W        W 4491  18.654   1.891  14.352
45231W        W 4492  33.026   8.316   4.157
45232W        W 4493  21.650  22.048   2.234
45233W        W 4494  22.540   8.831   2.231
45234W        W 4495  30.935  14.676   3.677
45235W        W 4496  15.589  17.755   1.446
45236W        W 4497  18.061  16.122   0.769
45237W        W 4498  15.810   4.426  12.863
45238W        W 4499  31.506  24.083   0.748
45239W        W 4500   6.340  32.573  14.880
45240W        W 4501   5.210   6.681   2.338
45241W        W 4502   9.701  22.504  13.882
45242W        W 4503  24.517  17.733   4.763
45243W        W 4504  25.044  41.919  14.295
45244W        W 4505  11.787  39.819   4.152
45245W        W 4506  41.872  12.204  13.910
45246W        W 4507  41.397  41.792  14.462
45247W        W 4508  11.770  44.481  10.005
45248W        W 4509  36.997  40.940  13.457
45249W        W 4510  19.120  29.557   4.140
45250W        W 4511  27.539  15.201   0.837
45251W        W 4512  10.365  15.231   4.828
45252W        W 4513  37.898  29.571   2.690
45253W        W 4514  12.262   0.808  12.357
45254W        W 4515  40.445  28.064  14.284
45255W        W 4516  35.498  40.525  14.814
45256W        W 4517  11.857  43.801   0.802
45257W        W 4518  22.211   7.787   2.395
45258W        W 4519  17.291  24.532  14.357
45259W        W 4520   2.755  18.110  11.006
45260W        W 4521   1.879  38.546  14.391
45261W        W 4522  17.297  14.823   0.897
45262W        W 4523  25.064  14.648   0.279
45263W        W 4524  32.565  25.132  12.980
45264W        W 4525  27.658  19.641  14.867
45265W        W 4526  15.159  31.116  11.497
45266W        W 4527  12.241  37.552  14.311
45267W        W 4528  36.041  41.030  11.977
45268W        W 4529  28.123   8.336  13.992
45269W        W 4530  15.764  33.543  10.462
45270W        W 4531  39.467  28.509   0.957
45271W        W 4532  20.205  10.686  10.474
45272W        W 4533  13.223  42.849  10.057
45273W        W 4534  15.648  16.190  11.038
45274W        W 4535  20.724  41.944   4.815
45275W        W 4536  15.690  27.130   9.605
45276W        W 4537  10.785  26.518   3.351
45277W        W 4538   4.859   0.409   0.826
45278W        W 4539  14.662  13.119  12.540
45279W        W 4540   2.824  32.096  14.395
45280W        W 4541   2.240   5.371  11.057
45281W        W 4542  15.605  10.802  14.842
45282W        W 4543  36.552  30.452   3.796
45283W        W 4544  42.840  12.267   4.274
45284W        W 4545  20.256   8.271   2.666
45285W        W 4546  31.468  20.255  13.836
45286W        W 4547  29.620   1.316   4.178
45287W        W 4548  40.951  15.652   2.237
45288W        W 4549  20.108  25.630   1.927
45289W        W 4550   9.655  15.301   1.437
45290W        W 4551  34.413   5.213  13.423
45291W        W 4552  43.448   9.801  13.007
45292W        W 4553  32.014  15.175   3.255
45293W        W 4554  25.645   6.839   1.303
45294W        W 4555  37.462  11.260  12.011
45295W        W 4556  14.765   3.261   2.259
45296W        W 4557  12.753   7.900   2.202
45297W        W 4558  21.575  18.577   2.272
45298W        W 4559   0.280  13.757  12.061
45299W        W 4560  40.326   1.390  13.922
45300W        W 4561  16.635  37.542  13.394
45301W        W 4562  34.430   9.197   1.331
45302W        W 4563  15.265  44.788   3.384
45303W        W 4564   9.153  21.640  14.427
45304W        W 4565  24.543  32.470   0.789
45305W        W 4566   3.439  28.469   0.444
45306W        W 4567  35.890   7.389  13.892
45307W        W 4568   3.880  25.511   2.221
45308W        W 4569   1.437  13.690   3.224
45309W        W 4570  41.519  41.475   1.235
45310W        W 4571  44.003  32.111  14.932
45311W        W 4572   1.760  36.444   1.925
45312W        W 4573   6.419   9.753  14.992
45313W        W 4574   6.253  38.487  10.995
45314W        W 4575  38.503  18.196   3.199
45315W        W 4576  17.562  36.899   2.709
45316W        W 4577  36.037  27.046   1.790
45317W        W 4578  29.039  14.128   3.185
45318W        W 4579  18.151   9.245   0.242
45319W        W 4580  22.220  42.884   2.738
45320W        W 4581  28.681  42.476  14.847
45321W        W 4582  32.526  10.252   5.167
45322W        W 4583   3.380  12.238   4.726
45323W        W 4584  29.091  35.541  11.591
45324W        W 4585  24.041  15.598   4.148
45325W        W 4586  14.290  39.812  14.281
45326W        W 4587  36.932  22.718   3.313
45327W        W 4588  16.306   6.746   2.716
45328W        W 4589   5.322  44.456   2.256
45329W        W 4590  20.588  32.044  11.973
45330W        W 4591  16.787   2.236   1.430
45331W        W 4592  33.493  17.260   5.100
45332W        W 4593   2.375  22.230   2.405
45333W        W 4594  28.035  33.101   3.703
45334W        W 4595   6.342  13.226   0.396
45335W        W 4596  44.867   1.922   1.831
45336W        W 4597  19.547   1.854   2.662
45337W        W 4598   4.304   3.897  10.911
45338W        W 4599   9.297  20.635  10.488
45339W        W 4600  34.548  19.606  10.522
45340W        W 4601  24.646  25.635  11.918
45341W        W 4602  19.171  19.209  14.499
45342W        W 4603  33.116  33.920  11.858
45343W        W 4604  26.086   6.267   4.602
45344W        W 4605  16.227  21.046  12.068
45345W        W 4606  13.827  29.102   4.282
45346W        W 4607  15.302  35.863  10.610
45347W        W 4608  25.513  44.774  11.081
45348W        W 4609  38.376   7.838   4.333
45349W        W 4610  16.807  29.645  10.083
45350W        W 4611  13.720   7.412   2.860
45351W        W 4612   0.744  37.438   2.281
45352W        W 4613  35.042  26.035  13.029
45353W        W 4614  16.307  36.034  12.014
45354W        W 4615  24.695  43.772  11.413
45355W        W 4616  13.672   0.765  13.374
45356W        W 4617  12.319  13.833  14.323
45357W        W 4618   7.755  42.004  10.957
45358W        W 4619  28.995  32.615  13.828
45359W        W 4620   5.831  16.277  14.775
45360W        W 4621  39.945  39.510  11.090
45361W        W 4622  16.634  19.767  11.875
45362W        W 4623  42.354  42.309  11.536
45363W        W 4624  26.466  10.668  14.495
45364W        W 4625  42.805  42.002  10.544
45365W        W 4626  40.838   9.884   4.286
45366W        W 4627  12.353  41.881  11.970
45367W        W 4628  16.173   2.847   2.776
45368W        W 4629  34.993   5.800  14.900
45369W        W 4630  14.821   3.865   1.322
45370W        W 4631   9.341  27.613   3.161
45371W        W 4632  38.464   1.803   3.293
45372W        W 4633   9.380  42.850   2.854
45373W        W 4634  31.527  29.467  10.481
45374W        W 4635  12.361   0.456  10.552
45375W        W 4636  12.322  33.409  13.047
45376W        W 4637  25.683  14.144  12.580
45377W        W 4638  29.587  37.526  13.324
45378W        W 4639  39.388  12.662   4.627
45379W        W 4640   8.789  27.097   0.888
45380W        W 4641   1.353  19.708  12.568
45381W        W 4642   2.347  42.472   4.828
45382W        W 4643  33.060  37.954   3.653
45383W        W 4644   0.485  24.556  10.537
45384W        W 4645   4.819   9.290   2.404
45385W        W 4646  22.530  37.070  12.462
45386W        W 4647  38.395  14.129   1.317
45387W        W 4648  33.559  43.903   4.283
45388W        W 4649  43.349   8.291  12.024
45389W        W 4650  19.264   8.388   3.796
45390W        W 4651  40.343   5.436   3.702
45391W        W 4652  35.507   1.448  11.987
45392W        W 4653  38.398   6.769  12.978
45393W        W 4654  32.069   0.423  10.626
45394W        W 4655   8.874  36.395  14.832
45395W        W 4656  33.503  29.141  10.024
45396W        W 4657   4.927  23.731   3.839
45397W        W 4658  25.623  31.079  12.524
45398W        W 4659  21.089  39.470  13.830
45399W        W 4660  39.038  19.759   5.119
45400W        W 4661   5.788  36.484  12.038
45401W        W 4662  37.469   0.798  11.036
45402W        W 4663  15.185  24.569  13.818
45403W        W 4664   0.335  19.075  14.883
45404W        W 4665  10.831  19.534  10.582
45405W        W 4666  34.393  27.029  14.516
45406W        W 4667  44.758   2.261   2.751
45407W        W 4668   2.938  20.174  11.020
45408W        W 4669   6.221  40.808   4.678
45409W        W 4670   0.773  36.991   4.739
45410W        W 4671   1.821   2.827  11.034
45411W        W 4672  18.233  10.269   2.307
45412W        W 4673  33.890  43.495  14.945
45413W        W 4674  31.068   6.748  12.044
45414W        W 4675   8.825  15.662   4.216
45415W        W 4676  42.795   4.745   3.199
45416W        W 4677  28.936  10.650   4.203
45417W        W 4678  36.442  31.009   3.714
45418W        W 4679  33.382   0.255  10.979
45419W        W 4680  27.129  40.320   2.276
45420W        W 4681  15.202  26.632  10.956
45421W        W 4682  18.210   0.485   1.386
45422W        W 4683  43.836  37.472   1.258
45423W        W 4684  29.027  16.602   2.716
45424W        W 4685   8.186  16.772   0.341
45425W        W 4686  40.921  17.171   3.386
45426W        W 4687  24.538  16.639   3.701
45427W        W 4688  40.350  31.017   2.796
45428W        W 4689   0.252  23.720   2.862
45429W        W 4690  32.001  21.695  12.939
45430W        W 4691  37.576  11.746   1.796
45431W        W 4692   3.902   0.275   3.667
45432W        W 4693   9.757   1.840  12.913
45433W        W 4694   8.850   7.364   2.860
45434W        W 4695  34.986  22.548   0.325
45435W        W 4696  16.704  17.084   3.710
45436W        W 4697  11.172  10.230  14.449
45437W        W 4698  12.246  29.564  11.411
45438W        W 4699  33.973  17.630  11.608
45439W        W 4700  40.799  36.368   0.794
45440W        W 4701  34.524  29.643  14.454
45441W        W 4702  23.513  35.433  11.609
45442W        W 4703  14.121  17.289  12.823
45443W        W 4704   3.251  10.868  13.837
45444W        W 4705  10.669  38.825  11.421
45445W        W 4706  28.606   9.755   2.180
45446W        W 4707  17.592  17.234  13.461
45447W        W 4708  21.620  40.394  14.958
45448W        W 4709  20.234   6.773  13.861
45449W        W 4710  31.007   2.371   4.688
45450W        W 4711  42.495   2.361  10.410
45451W        W 4712  43.499  20.718   4.303
45452W        W 4713  17.096   4.914   3.730
45453W        W 4714  26.634  24.636   4.255
45454W        W 4715  18.265  14.192  11.442
45455W        W 4716  28.557  25.565   3.771
45456W        W 4717   1.925   1.425   1.394
45457W        W 4718  40.992  11.840  10.617
45458W        W 4719  19.187   8.293   4.218
45459W        W 4720  11.831  10.361   1.710
45460W        W 4721   6.886  20.108  11.921
45461W        W 4722  21.621   7.230   0.843
45462W        W 4723  26.139  33.615   2.889
45463W        W 4724  14.768  34.909   3.384
45464W        W 4725   2.355  42.286   2.774
45465W        W 4726   6.277  16.109   1.276
45466W        W 4727   8.812   6.316   4.255
45467W        W 4728   3.941  33.478   4.344
45468W        W 4729   6.247   1.483  10.934
45469W        W 4730  43.337  39.470   2.184
45470W        W 4731  33.880  16.645   2.841
45471W        W 4732  15.261  43.325   1.305
45472W        W 4733  15.133  14.265   4.324
45473W        W 4734  26.541  36.059   5.122
45474W        W 4735  24.082  22.686  12.493
45475W        W 4736  36.518  25.005  14.908
45476W        W 4737  18.055   7.331  13.019
45477W        W 4738  21.562  31.976   4.194
45478W        W 4739   0.794  24.482  11.906
45479W        W 4740   2.843  24.608   3.711
45480W        W 4741   8.218  33.483  14.759
45481W        W 4742  31.549  41.495   9.467
45482W        W 4743  35.103   5.267  13.040
45483W        W 4744  20.152   7.186  14.004
45484W        W 4745  39.859  37.424   1.834
45485W        W 4746  30.432  40.433  14.845
45486W        W 4747  26.958  38.477   4.692
45487W        W 4748  25.713  37.581   2.219
45488W        W 4749  20.244   5.247   3.373
45489W        W 4750   5.898   6.384  13.322
45490W        W 4751  29.009   6.185   1.247
45491W        W 4752  30.579   6.198   3.380
45492W        W 4753  27.679   0.359   2.401
45493W        W 4754  37.457  12.672   0.938
45494W        W 4755  13.621  30.612   0.793
45495W        W 4756   5.843  18.144   0.787
45496W        W 4757   3.822  29.650  12.460
45497W        W 4758  11.310  12.120   3.654
45498W        W 4759  12.232  38.361   4.139
45499W        W 4760   0.385  30.160   0.766
45500W        W 4761  38.477  11.671  12.364
45501W        W 4762  13.696  43.425   0.910
45502W        W 4763   8.687   4.370  13.317
45503W        W 4764  28.183  19.208   2.759
45504W        W 4765  20.252  17.614  14.932
45505W        W 4766   7.873  25.614   3.870
45506W        W 4767  39.493   5.255  10.980
45507W        W 4768  21.096   1.839  11.102
45508W        W 4769   5.745  25.665  12.568
45509W        W 4770  14.114  13.785   2.820
45510W        W 4771  30.558  15.601  12.404
45511W        W 4772  15.651  39.322   3.697
45512W        W 4773   5.251  40.031  13.979
45513W        W 4774  24.184  18.207   1.362
45514W        W 4775  26.132   8.239   2.351
45515W        W 4776  31.112   1.851  11.916
45516W        W 4777  27.561  43.014   3.229
45517W        W 4778  36.076   9.800   1.448
45518W        W 4779   4.284  34.867  11.382
45519W        W 4780  28.579  37.433   4.295
45520W        W 4781  43.297  34.390  11.416
45521W        W 4782  29.154  30.043   4.353
45522W        W 4783  39.506  30.021  14.810
45523W        W 4784  18.144  34.984  12.510
45524W        W 4785  25.557  32.490  12.913
45525W        W 4786  35.894   8.287  13.059
45526W        W 4787  19.117  32.576   1.423
45527W        W 4788  11.309  16.588  11.482
45528W        W 4789  40.833  11.631  13.488
45529W        W 4790   2.899  38.847   1.319
45530W        W 4791  42.303  28.125   1.736
45531W        W 4792  32.908  35.939   4.723
45532W        W 4793  31.639  31.599   4.151
45533W        W 4794  28.669  29.650   2.333
45534W        W 4795  34.603  24.663   1.921
45535W        W 4796  11.682  36.068   1.844
45536W        W 4797  36.055  44.769   4.833
45537W        W 4798  38.527  10.349   2.893
45538W        W 4799  12.139  20.154  14.998
45539W        W 4800   0.941  10.329  11.550
45540W        W 4801  40.355  26.555  10.559
45541W        W 4802   8.322  40.492  14.966
45542W        W 4803  12.284   6.880  14.871
45543W        W 4804   3.955  41.829   1.847
45544W        W 4805  23.097  30.148  13.045
45545W        W 4806   1.761  31.537  13.825
45546W        W 4807   4.399  28.600   3.263
45547W        W 4808  18.157  11.219  14.505
45548W        W 4809   0.943  12.680  11.941
45549W        W 4810  13.191  39.401   0.274
45550W        W 4811  15.136  17.686  12.369
45551W        W 4812   0.841  25.575   3.836
45552W        W 4813  29.474  44.335  13.338
45553W        W 4814  37.467  38.037   4.298
45554W        W 4815  17.691  26.703   0.955
45555W        W 4816   2.286  29.139  14.009
45556W        W 4817  40.945  24.173   4.319
45557W        W 4818  44.802  35.590   1.728
45558W        W 4819  21.710   1.812   3.321
45559W        W 4820  33.905  30.473   3.683
45560W        W 4821  22.120   5.891  13.350
45561W        W 4822  33.566  14.801   0.897
45562W        W 4823  21.633  35.545  14.359
45563W        W 4824  27.049  26.090   3.757
45564W        W 4825  22.027  18.291  12.575
45565W        W 4826  31.110  24.516  11.513
45566W        W 4827  27.681  24.139  11.061
45567W        W 4828  23.490  29.522  14.498
45568W        W 4829  12.747  21.698  14.499
45569W        W 4830  34.895  32.957  10.419
45570W        W 4831  20.743  33.957  14.760
45571W        W 4832  22.643  34.943  14.287
45572W        W 4833  34.026  28.466  14.509
45573W        W 4834  19.184  38.994  11.574
45574W        W 4835  43.774  14.708   3.749
45575W        W 4836  12.646  20.041  14.403
45576W        W 4837  26.537  16.724   1.823
45577W        W 4838  31.635   0.462  10.912
45578W        W 4839   5.240   6.410  14.003
45579W        W 4840  15.701  31.075  11.108
45580W        W 4841   2.935   7.755   3.833
45581W        W 4842  25.098  33.606  11.400
45582W        W 4843   3.317   0.965  13.847
45583W        W 4844  42.923  33.571   5.117
45584W        W 4845  18.100  35.862  14.416
45585W        W 4846  17.260  34.397   0.406
45586W        W 4847  10.848  17.166   5.292
45587W        W 4848  24.566  14.129  12.414
45588W        W 4849  11.837  17.738   1.299
45589W        W 4850  14.236  26.142   4.158
45590W        W 4851  17.701   9.752  14.509
45591W        W 4852   9.829  30.161   2.354
45592W        W 4853  28.555  11.807   5.081
45593W        W 4854  33.105  11.309   0.960
45594W        W 4855  16.086  38.884   4.835
45595W        W 4856  27.949   5.364   3.647
45596W        W 4857   3.309  39.556  10.408
45597W        W 4858  33.979  16.125  14.976
45598W        W 4859  32.905  28.045  11.091
45599W        W 4860  16.689   6.845   2.678
45600W        W 4861   3.896  28.958  14.830
45601W        W 4862  31.579  30.497  11.069
45602W        W 4863  20.122  37.430  11.951
45603W        W 4864   4.714  38.985   0.242
45604W        W 4865  22.018   3.745  14.931
45605W        W 4866  27.658   0.796   4.597
45606W        W 4867  30.977  42.878  13.870
45607W        W 4868  40.499  42.950   1.872
45608W        W 4869  16.738  25.175  13.061
45609W        W 4870  14.115  34.107  12.502
45610W        W 4871  35.987  28.631   0.823
45611W        W 4872  19.106   2.230  10.473
45612W        W 4873  26.197  42.317   4.800
45613W        W 4874  17.772  32.579   0.344
45614W        W 4875  39.996  15.151   2.342
45615W        W 4876   4.315  10.735  11.428
45616W        W 4877  44.267  32.122  14.486
45617W        W 4878  43.433  24.634   3.778
45618W        W 4879  14.162  39.537   1.898
45619W        W 4880  21.570  36.353   3.227
45620W        W 4881  16.590   7.850   4.230
45621W        W 4882  38.422  38.488   0.800
45622W        W 4883   2.267   8.313  13.847
45623W        W 4884  20.541  43.868   1.845
45624W        W 4885  31.146  44.887   1.406
45625W        W 4886  19.615  39.335  11.528
45626W        W 4887  27.180  43.884   4.324
45627W        W 4888   3.292  24.996  11.919
45628W        W 4889  12.217  15.140  13.877
45629W        W 4890  37.938  42.852   0.338
45630W        W 4891  44.960  14.306   0.947
45631W        W 4892   3.337  14.106   1.373
45632W        W 4893  24.159   7.240  12.886
45633W        W 4894  36.534  18.158   4.170
45634W        W 4895  39.380  44.383   4.181
45635W        W 4896  21.080   2.307   2.251
45636W        W 4897  36.069  30.933   4.157
45637W        W 4898  27.997  25.184   9.995
45638W        W 4899  44.858  43.848   4.715
45639W        W 4900  28.445  36.905  14.835
45640W        W 4901  40.449  43.984  12.437
45641W        W 4902   4.871  29.585  12.552
45642W        W 4903  12.674   8.838  14.008
45643W        W 4904  44.950  19.173  10.963
45644W        W 4905  32.604  18.273   1.211
45645W        W 4906  35.011  17.666   3.755
45646W        W 4907  32.531  24.096   1.428
45647W        W 4908  43.832  34.947  12.472
45648W        W 4909  30.028   6.352  14.306
45649W        W 4910  36.071   4.286   0.904
45650W        W 4911   1.876  42.810  13.860
45651W        W 4912  13.286  20.251  11.023
45652W        W 4913  44.928  43.888   3.643
45653W        W 4914  13.278  28.136   2.265
45654W        W 4915  41.813  25.092  13.831
45655W        W 4916  40.433  12.631  11.590
45656W        W 4917  37.018   1.897  12.349
45657W        W 4918  44.500  37.943  13.860
45658W        W 4919  12.824  14.304  11.486
45659W        W 4920  16.804   2.251  13.479
45660W        W 4921  32.553  22.024  13.818
45661W        W 4922  43.314  33.980   4.196
45662W        W 4923  38.903  30.549   1.832
45663W        W 4924  41.480  40.414   4.319
45664W        W 4925   5.313  33.493   1.897
45665W        W 4926  31.465   3.455   2.802
45666W        W 4927   5.240  17.168  13.425
45667W        W 4928  39.974  17.661   1.770
45668W        W 4929  31.630   7.238  11.016
45669W        W 4930  39.014  35.406   3.858
45670W        W 4931  32.572  42.944   4.116
45671W        W 4932  26.200  37.568  14.986
45672W        W 4933  40.336   8.199   1.741
45673W        W 4934  43.465  21.735   3.305
45674W        W 4935  43.771  32.453   3.271
45675W        W 4936  31.047   9.869   2.312
45676W        W 4937  25.549  35.945   2.232
45677W        W 4938  34.491  28.517   3.825
45678W        W 4939  19.622  25.030   2.771
45679W        W 4940  28.575   5.776   3.798
45680W        W 4941  22.161  32.970  14.370
45681W        W 4942  22.228  24.480   2.233
45682W        W 4943  38.452  32.490   4.115
45683W        W 4944  13.636  29.937   1.893
45684W        W 4945   1.826   9.656  10.933
45685W        W 4946  44.001  12.650   4.642
45686W        W 4947  44.414  24.077   3.207
45687W        W 4948  20.564  17.676   4.291
45688W        W 4949   3.927   2.914  11.556
45689W        W 4950  34.498  36.536  10.064
45690W        W 4951  10.196  29.572   3.346
45691W        W 4952  17.088  24.058  13.387
45692W        W 4953  26.121   9.744   3.239
45693W        W 4954  33.894   3.288   4.295
45694W        W 4955  33.082   3.429   2.843
45695W        W 4956  44.471  26.110   4.188
45696W        W 4957  21.154  29.945   3.756
45697W        W 4958   0.279   1.884  14.453
45698W        W 4959  25.151  38.411  11.433
45699W        W 4960  43.867   2.237  13.962
45700W        W 4961  37.412  41.473   1.332
45701W        W 4962  28.520  12.269  14.998
45702W        W 4963  19.196  39.339   0.752
45703W        W 4964  15.092  15.103  14.835
45704W        W 4965  29.155   3.948  11.895
45705W        W 4966   4.932  18.646  12.882
45706W        W 4967  21.639  42.287   0.860
45707W        W 4968  33.420  20.161   1.344
45708W        W 4969  20.136   9.350  12.061
45709W        W 4970  22.247  41.296  13.307
45710W        W 4971  36.390   7.773  13.836
45711W        W 4972   9.861  23.679  13.931
45712W        W 4973   7.401  20.672   2.846
45713W        W 4974  34.404  44.781   3.828
45714W        W 4975  26.688   9.177  14.384
45715W        W 4976  29.967  40.378  11.073
45716W        W 4977  39.003  31.567  10.999
45717W        W 4978  38.509  38.425   1.896
45718W        W 4979  29.457  10.164   0.751
45719W        W 4980  14.831  25.091   5.226
45720W        W 4981  29.033  42.928   2.215
45721W        W 4982  33.612   2.263  12.410
45722W        W 4983  15.688  31.481   0.756
45723W        W 4984   3.880  36.072  13.010
45724W        W 4985  34.054  20.571   3.239
45725W        W 4986  36.348  36.955   0.319
45726W        W 4987  37.575  17.751  13.381
45727W        W 4988  40.030  23.522   0.803
45728W        W 4989  32.988   2.893   2.672
45729W        W 4990   7.344  32.006   3.785
45730W        W 4991  37.487  31.998   0.833
45731W        W 4992   4.369  35.497   1.862
45732W        W 4993  12.343  24.677  11.124
45733W        W 4994  24.127  14.161   2.398
45734W        W 4995  37.343  43.918  12.387
45735W        W 4996  10.715  39.958   4.234
45736W        W 4997  19.084  26.011   5.283
45737W        W 4998  33.464  36.859   3.207
45738W        W 4999  21.561  32.055   3.794
45739W        W 5000   8.375  36.509   1.355
45740W        W 5001  44.362  21.030   4.176
45741W        W 5002  37.005   3.241  13.875
45742W        W 5003   7.755  38.571  14.901
45743W        W 5004  31.076   5.760   3.360
45744W        W 5005  27.957   8.304   1.219
45745W        W 5006  34.868   1.468   0.793
45746W        W 5007  37.988  40.442   3.808
45747W        W 5008  15.733  36.487   0.434
45748W        W 5009  24.221  38.467   0.732
45749W        W 5010  32.461  22.702   2.889
45750W        W 5011   2.829  41.460   0.789
45751W        W 5012  39.062   2.930   2.405
45752W        W 5013  27.512   9.680  12.950
45753W        W 5014  33.580  24.504   2.802
45754W        W 5015  12.763  37.870  12.894
45755W        W 5016  17.135  37.889   0.949
45756W        W 5017  17.571  23.144   9.962
45757W        W 5018   4.833  31.151   1.385
45758W        W 5019  43.290  16.099  12.916
45759W        W 5020  38.446  16.723  10.995
45760W        W 5021   9.668  37.869   1.210
45761W        W 5022   8.689  33.983  12.473
45762W        W 5023   6.398   1.897  10.427
45763W        W 5024   6.359   2.293  11.498
45764W        W 5025  18.688  30.964   0.479
45765W        W 5026  24.523  41.910   4.678
45766W        W 5027  27.180   0.308  10.554
45767W        W 5028  27.634  42.435   3.715
45768W        W 5029  12.815  40.472  13.825
45769W        W 5030  29.011   2.808  12.088
45770W        W 5031  22.224  43.970   1.332
45771W        W 5032  37.951   9.263  11.470
45772W        W 5033  38.424  34.465  13.822
45773W        W 5034   2.299  30.563   4.643
45774W        W 5035  38.835   3.231   2.199
45775W        W 5036  44.434  40.531  10.980
45776W        W 5037  33.954   4.233  14.805
45777W        W 5038  23.053  12.205   1.770
45778W        W 5039  29.165  38.965  12.022
45779W        W 5040   4.899  22.671   0.919
45780W        W 5041  31.545  40.955   5.193
45781W        W 5042  33.575  32.937   2.687
45782W        W 5043  13.315  35.438  12.537
45783W        W 5044  31.423  12.849   2.322
45784W        W 5045  32.933  34.044  14.004
45785W        W 5046  13.292  33.506   5.293
45786W        W 5047  23.573  26.955  12.397
45787W        W 5048   7.349  20.674  11.499
45788W        W 5049  39.479  43.330  14.290
45789W        W 5050  40.966  39.352  12.926
45790W        W 5051   0.978  37.043  14.285
45791W        W 5052  18.707  41.979  12.570
45792W        W 5053  31.036  16.106   4.114
45793W        W 5054  24.712  26.953   3.815
45794W        W 5055   2.728  28.461  11.434
45795W        W 5056   8.785  23.092   1.908
45796W        W 5057   5.284  32.488   1.907
45797W        W 5058  39.809  25.998  10.544
45798W        W 5059  15.679  43.509  11.431
45799W        W 5060   4.435   8.316   2.816
45800W        W 5061   6.850  21.574   4.240
45801W        W 5062  42.330  25.473   1.359
45802W        W 5063  12.775  27.518   0.381
45803W        W 5064  44.368  10.323  14.415
45804W        W 5065  23.063  42.835  12.843
45805W        W 5066  27.003  17.278  14.784
45806W        W 5067  17.620   4.726   1.878
45807W        W 5068  15.637  23.035  10.078
45808W        W 5069  34.100  15.116  11.975
45809W        W 5070   2.416  11.715   3.310
45810W        W 5071  17.176   4.220  14.765
45811W        W 5072   6.371   7.171  14.957
45812W        W 5073  35.410   7.373   1.410
45813W        W 5074  24.175  35.042   1.390
45814W        W 5075  17.299  30.099   4.681
45815W        W 5076  38.548  24.601   3.349
45816W        W 5077  18.076  40.051  13.918
45817W        W 5078   7.282   9.888   2.741
45818W        W 5079  22.117  43.278  10.422
45819W        W 5080  23.703   7.854   4.261
45820W        W 5081  31.091   2.915   3.167
45821W        W 5082  33.008  25.705   3.377
45822W        W 5083  29.509  20.697  13.396
45823W        W 5084  32.440  14.261   4.665
45824W        W 5085  33.043  23.159   2.836
45825W        W 5086   3.823  40.511  13.872
45826W        W 5087   7.856  25.189  14.394
45827W        W 5088  29.021  17.747   1.321
45828W        W 5089   4.346  18.711   2.353
45829W        W 5090  31.622  40.491  11.970
45830W        W 5091  23.133  22.102  13.928
45831W        W 5092  24.572  20.702  10.442
45832W        W 5093  20.623  33.542  13.339
45833W        W 5094  28.040  22.082   2.668
45834W        W 5095  17.186   5.694   4.324
45835W        W 5096   2.920  38.056  11.994
45836W        W 5097  33.985  31.976  10.558
45837W        W 5098  24.674  26.998  12.842
45838W        W 5099  44.350   0.462  12.369
45839W        W 5100  36.372   1.474   2.418
45840W        W 5101  14.143  32.927   3.195
45841W        W 5102  14.220  20.083   2.813
45842W        W 5103  17.574   0.267  14.794
45843W        W 5104  43.951   6.719   3.794
45844W        W 5105  40.372  37.350  11.873
45845W        W 5106  10.351  35.882   3.310
45846W        W 5107  11.355   0.292  14.835
45847W        W 5108  15.696  34.453  10.062
45848W        W 5109  12.737   2.376   3.350
45849W        W 5110  19.260  10.357  11.088
45850W        W 5111  39.354  38.506   1.712
45851W        W 5112  37.848   9.879   4.208
45852W        W 5113  12.815  26.652   4.204
45853W        W 5114  29.919  39.864  14.513
45854W        W 5115  12.613  11.239   4.742
45855W        W 5116  25.995   2.951  12.859
45856W        W 5117  29.577  24.479   2.206
45857W        W 5118   3.882  40.353  11.492
45858W        W 5119  33.600  29.097   1.338
45859W        W 5120  43.285   3.940   1.305
45860W        W 5121  35.859  18.226   2.821
45861W        W 5122  44.937  25.992  11.437
45862W        W 5123  44.986   1.369  14.490
45863W        W 5124  44.825  20.215   3.247
45864W        W 5125  14.184  18.151  12.426
45865W        W 5126   6.733  37.015  12.039
45866W        W 5127  32.992  16.242   0.373
45867W        W 5128  37.053  34.880   0.322
45868W        W 5129  21.073   2.367  11.920
45869W        W 5130   1.916  20.121   2.762
45870W        W 5131  38.943   4.420  13.894
45871W        W 5132  25.076  12.753  13.848
45872W        W 5133  12.684  27.128  12.989
45873W        W 5134  12.653  37.465   3.676
45874W        W 5135  38.066  36.533   1.701
45875W        W 5136  38.923  38.939   2.186
45876W        W 5137  17.567  35.947   2.890
45877W        W 5138   7.256  13.216   3.863
45878W        W 5139  35.409  33.947  13.440
45879W        W 5140   8.312  32.531   1.836
45880W        W 5141  33.019  44.000   2.397
45881W        W 5142  15.287   8.836   0.778
45882W        W 5143   9.220  24.505   2.214
45883W        W 5144  40.815  41.959  11.883
45884W        W 5145  26.700  27.541  14.843
45885W        W 5146  22.068  28.998  14.418
45886W        W 5147  44.466  25.573   0.726
45887W        W 5148  33.020   9.259  13.820
45888W        W 5149  14.757  43.857  14.018
45889W        W 5150  32.089  18.063   1.410
45890W        W 5151  16.082  34.414  14.284
45891W        W 5152   0.395   6.380   3.686
45892W        W 5153  30.965  44.849   0.289
45893W        W 5154   7.351   8.663  13.808
45894W        W 5155  32.991   5.701   0.741
45895W        W 5156  38.434  25.111  14.431
45896W        W 5157  32.490  34.099   2.889
45897W        W 5158  17.672  13.345   1.798
45898W        W 5159   2.396  17.758  14.380
45899W        W 5160  29.430  40.832  13.364
45900W        W 5161  10.274  21.573   2.765
45901W        W 5162   3.927   0.800   1.850
45902W        W 5163   5.362   5.890   0.473
45903W        W 5164   9.777  34.104  12.457
45904W        W 5165   6.727  12.678   5.190
45905W        W 5166   2.381  18.175   0.464
45906W        W 5167   5.835  37.073   4.614
45907W        W 5168  29.129  26.070  14.512
45908W        W 5169  23.986  27.607   4.143
45909W        W 5170  10.653  43.980  11.111
45910W        W 5171   9.252  44.340   0.248
45911W        W 5172   9.735  28.680  11.107
45912W        W 5173  32.066  41.497  12.491
45913W        W 5174   3.877  19.051  12.055
45914W        W 5175   3.391  22.025   4.309
45915W        W 5176  21.078  19.609  11.476
45916W        W 5177  33.509  32.454   3.293
45917W        W 5178  34.589  40.376   3.233
45918W        W 5179   4.258  35.006   2.319
45919W        W 5180  21.603  12.814  11.502
45920W        W 5181  28.136  35.039   5.281
45921W        W 5182  16.708  24.492  12.878
45922W        W 5183  44.804  36.041   4.322
45923W        W 5184   7.324   1.746   2.210
45924W        W 5185   9.734  35.877  12.363
45925W        W 5186  40.530  13.260  10.081
45926W        W 5187  12.311  26.542   2.869
45927W        W 5188   7.231  32.005   1.750
45928W        W 5189   6.200  33.890   1.742
45929W        W 5190  42.814  17.100   3.852
45930W        W 5191  21.129  32.101  13.896
45931W        W 5192   4.918  18.280   0.371
45932W        W 5193  13.717  35.019   3.640
45933W        W 5194  29.020  26.553   3.333
45934W        W 5195  32.596   8.264  14.486
45935W        W 5196   0.841  11.809   2.186
45936W        W 5197  41.938   7.374  14.404
45937W        W 5198  27.515  12.302  11.407
45938W        W 5199  19.685   9.294   4.254
45939W        W 5200  43.394  36.402  12.960
45940W        W 5201   4.938  26.514  11.506
45941W        W 5202  26.517  19.630  12.838
45942W        W 5203   8.260  11.732   2.216
45943W        W 5204  12.829   8.233  12.881
45944W        W 5205  37.354  43.943  10.499
45945W        W 5206  23.014  38.557  10.598
45946W        W 5207  34.095  13.644  12.491
45947W        W 5208  10.651  17.205   3.242
45948W        W 5209  42.951  25.636   1.772
45949W        W 5210  23.050  32.997   0.802
45950W        W 5211  29.540  24.979  14.442
45951W        W 5212   6.709  34.896   3.325
45952W        W 5213   7.345   0.944  13.512
45953W        W 5214  41.843  34.037   3.364
45954W        W 5215  22.084  20.051  11.901
45955W        W 5216  17.703   3.238   2.378
45956W        W 5217  34.047  39.512  11.121
45957W        W 5218  30.999  11.292  14.829
45958W        W 5219  25.511   9.379   4.713
45959W        W 5220  42.812  31.055  11.949
45960W        W 5221   9.322  38.852   2.671
45961W        W 5222  34.979   3.925  11.599
45962W        W 5223   5.204   0.394   1.326
45963W        W 5224  37.552  34.500   3.305
45964W        W 5225  37.061  40.027  13.477
45965W        W 5226  31.085  44.948   0.820
45966W        W 5227  17.145   6.803   3.675
45967W        W 5228   8.729   8.767  13.434
45968W        W 5229   4.356  24.600   1.287
45969W        W 5230   2.306   2.738   4.305
45970W        W 5231  38.531  37.580   0.790
45971W        W 5232   3.417  22.050  12.062
45972W        W 5233  13.305  42.461   0.478
45973W        W 5234  43.272  33.620  14.446
45974W        W 5235   1.375   7.341  14.877
45975W        W 5236  22.180  37.988  11.114
45976W        W 5237  41.301  24.591  12.557
45977W        W 5238  41.910   7.326   3.692
45978W        W 5239   0.418  26.044  14.770
45979W        W 5240  44.454  30.095   0.810
45980W        W 5241  21.572   5.810  11.007
45981W        W 5242   6.920  30.955   4.340
45982W        W 5243  27.533  27.590  11.561
45983W        W 5244  12.811  44.891  12.497
45984W        W 5245   7.724  12.695  14.386
45985W        W 5246  16.072   0.264  14.812
45986W        W 5247   9.176   4.810  10.536
45987W        W 5248   2.437   4.243   3.194
45988W        W 5249  41.998  35.094   4.145
45989W        W 5250  10.749  27.448   0.414
45990W        W 5251   0.939   6.740  12.498
45991W        W 5252  26.643  33.427   4.133
45992W        W 5253   8.724  22.710   4.146
45993W        W 5254  43.495  28.025   3.247
45994W        W 5255  14.294  14.691   3.723
45995W        W 5256   7.838  40.030  10.965
45996W        W 5257  33.055   3.745  13.404
45997W        W 5258  38.554  16.116  13.413
45998W        W 5259  12.346  37.946  12.401
45999W        W 5260  15.275  31.098  12.912
46000W        W 5261  43.913  17.298  13.375
46001W        W 5262  25.989  38.913   4.153
46002W        W 5263   9.648  29.944   0.420
46003W        W 5264  42.317   0.922  10.503
46004W        W 5265  29.147   0.488  12.927
46005W        W 5266  15.590   2.723   9.480
46006W        W 5267  31.415  28.632  13.912
46007W        W 5268  34.500   1.928   4.732
46008W        W 5269  18.655  16.182  13.948
46009W        W 5270  22.613  37.523  13.059
46010W        W 5271  12.211  14.153  11.551
46011W        W 5272  22.554  42.304  13.026
46012W        W 5273  44.772  36.030  13.042
46013W        W 5274  29.954   3.299   4.212
46014W        W 5275  29.076  42.829  12.905
46015W        W 5276  35.989  43.884  12.025
46016W        W 5277  23.518  16.149  10.988
46017W        W 5278   3.822  35.446   0.860
46018W        W 5279  39.911  21.598  13.945
46019W        W 5280  12.826  23.622   1.282
46020W        W 5281  23.216   7.688  14.826
46021W        W 5282   8.822  25.588   2.397
46022W        W 5283  37.349  35.581   0.920
46023W        W 5284   8.209  30.587   4.652
46024W        W 5285  25.133  11.132  13.324
46025W        W 5286  44.445  19.739   2.800
46026W        W 5287  19.232   0.319  12.573
46027W        W 5288  35.095  30.432  14.901
46028W        W 5289  14.709  34.053   2.723
46029W        W 5290  43.007   8.280   0.295
46030W        W 5291   2.936  16.165   0.460
46031W        W 5292  30.627  32.491  11.447
46032W        W 5293  29.486   6.698  14.368
46033W        W 5294  31.096  38.942  14.920
46034W        W 5295  42.466  30.570  14.441
46035W        W 5296  14.831  42.455   0.922
46036W        W 5297  13.162  16.808   0.414
46037W        W 5298  24.681  38.036  11.970
46038W        W 5299  43.341  21.624  12.023
46039W        W 5300   7.332   3.223  14.851
46040W        W 5301   1.866  40.840   1.925
46041W        W 5302   3.406  13.648   3.214
46042W        W 5303  24.661  39.849   0.822
46043W        W 5304  27.104  12.810   4.302
46044W        W 5305  18.117  38.973  13.033
46045W        W 5306  37.842  13.668   3.370
46046W        W 5307  11.648  21.174   4.124
46047W        W 5308  31.647  33.117  10.441
46048W        W 5309  30.993   7.727   1.226
46049W        W 5310  33.115  11.823  13.796
46050W        W 5311  32.572  28.075  11.930
46051W        W 5312   9.798  18.779   1.325
46052W        W 5313  33.614  25.713   0.938
46053W        W 5314  28.004   4.700   4.678
46054W        W 5315  16.676  35.365   1.343
46055W        W 5316  18.207  38.872  13.369
46056W        W 5317  42.896  13.118  11.453
46057W        W 5318  11.373  32.970  11.515
46058W        W 5319  22.728  17.592  10.619
46059W        W 5320  38.520  31.104  13.427
46060W        W 5321  27.188   3.435   0.395
46061W        W 5322   5.205  14.684   0.749
46062W        W 5323  38.350  33.026   2.272
46063W        W 5324  30.644  12.245  13.430
46064W        W 5325  22.684  33.936  12.066
46065W        W 5326   5.931   3.780  13.858
46066W        W 5327  38.964  43.954  13.330
46067W        W 5328  12.136  16.597  12.050
46068W        W 5329  41.015  12.247   2.180
46069W        W 5330  10.651  40.320   2.392
46070W        W 5331  43.906  11.263  11.069
46071W        W 5332  35.529  36.551  11.970
46072W        W 5333  28.990  31.104   2.821
46073W        W 5334  39.491  41.939  13.958
46074W        W 5335  24.036  36.522  11.523
46075W        W 5336  36.053  38.068  13.920
46076W        W 5337  35.402  36.495   0.803
46077W        W 5338  25.537  19.144  12.084
46078W        W 5339  33.880  19.052  13.467
46079W        W 5340  15.188  30.107   2.308
46080W        W 5341  35.558  27.535   1.395
46081W        W 5342  23.602   4.450   1.697
46082W        W 5343  33.051  31.616  13.808
46083W        W 5344  35.000  13.705   1.735
46084W        W 5345  11.318  14.209   2.720
46085W        W 5346  17.255  13.618   3.634
46086W        W 5347  44.440  19.281  11.114
46087W        W 5348  21.065   0.866   0.788
46088W        W 5349  17.117  30.445   2.844
46089W        W 5350  14.301   5.923  11.985
46090W        W 5351   3.288  36.013  14.016
46091W        W 5352  29.037  12.772  14.328
46092W        W 5353   3.305  24.011   4.323
46093W        W 5354  32.949   5.828  13.859
46094W        W 5355  18.281  12.133  11.481
46095W        W 5356   9.313  43.912   3.663
46096W        W 5357   5.343  14.755  12.843
46097W        W 5358  41.440  34.022  11.528
46098W        W 5359  20.541  35.415   3.279
46099W        W 5360  15.595  21.720   0.789
46100W        W 5361  32.929  39.948  14.795
46101W        W 5362  38.349  13.348   2.688
46102W        W 5363  20.088  43.490   2.201
46103W        W 5364  18.209  34.081   1.297
46104W        W 5365   0.279   5.404   3.180
46105W        W 5366   8.200  36.492   3.736
46106W        W 5367   4.771  18.642   3.778
46107W        W 5368  20.610  23.231   1.303
46108W        W 5369  20.029  21.753   4.687
46109W        W 5370   4.898   7.300  13.949
46110W        W 5371   4.401  41.799  13.391
46111W        W 5372   2.472   6.898   0.801
46112W        W 5373  44.790  27.604  14.815
46113W        W 5374   7.221  42.894  11.950
46114W        W 5375  19.739  13.614  11.394
46115W        W 5376   0.444  44.959   4.222
46116W        W 5377  11.138  43.866   3.248
46117W        W 5378  16.224  18.161   0.779
46118W        W 5379  29.145  11.341   0.395
46119W        W 5380  26.055  34.378   2.181
46120W        W 5381  17.095  28.510   3.168
46121W        W 5382   5.331   2.734  13.512
46122W        W 5383  34.411  37.344   1.762
46123W        W 5384  20.191  13.144  11.595
46124W        W 5385  41.877   8.381  13.832
46125W        W 5386  31.417  29.599  13.985
46126W        W 5387   1.430   5.934   1.929
46127W        W 5388  26.104  24.541  14.770
46128W        W 5389  37.498  23.656  11.882
46129W        W 5390  18.740  14.159  11.553
46130W        W 5391  19.550   0.451   3.194
46131W        W 5392  32.016  24.693  12.032
46132W        W 5393  33.616  43.468  13.496
46133W        W 5394  21.565  28.061   0.322
46134W        W 5395   5.740  22.501   4.621
46135W        W 5396   4.411  13.747  12.095
46136W        W 5397  26.480  44.950   2.371
46137W        W 5398  23.504   7.727   0.877
46138W        W 5399  24.086  21.577  11.489
46139W        W 5400  38.529   1.405  13.348
46140W        W 5401  22.213  39.896  12.829
46141W        W 5402   1.344  31.143   1.797
46142W        W 5403  16.747   5.745  11.559
46143W        W 5404  34.473  33.440  11.123
46144W        W 5405  22.711  17.155  13.406
46145W        W 5406   8.298  26.041  12.575
46146W        W 5407  44.436   6.716  11.930
46147W        W 5408  22.536  32.632   4.159
46148W        W 5409  37.346  20.535  11.913
46149W        W 5410   5.264  42.332  11.890
46150W        W 5411  19.768   7.807   1.798
46151W        W 5412   1.298   2.367  14.782
46152W        W 5413  34.933  17.088   5.148
46153W        W 5414   8.186   5.213  13.478
46154W        W 5415  10.218  22.192   0.296
46155W        W 5416  24.653  26.037   0.726
46156W        W 5417   5.437  43.355   1.697
46157W        W 5418  17.072  21.255  10.462
46158W        W 5419   8.774  25.557   4.239
46159W        W 5420  14.689  21.700   2.361
46160W        W 5421   4.425  43.764   4.734
46161W        W 5422  11.859  26.098   3.724
46162W        W 5423   8.699   6.838   3.689
46163W        W 5424  36.914  16.207   2.705
46164W        W 5425  33.914  31.471   3.194
46165W        W 5426   2.262  23.533   1.440
46166W        W 5427   8.772  33.422  14.884
46167W        W 5428   7.235  41.895   4.344
46168W        W 5429  37.011  19.589   3.384
46169W        W 5430  44.913   2.722  11.907
46170W        W 5431  20.185  34.388  10.128
46171W        W 5432  19.077  43.896  12.962
46172W        W 5433  37.932   0.465  13.962
46173W        W 5434  29.086  38.000  14.330
46174W        W 5435  37.030  33.084   2.364
46175W        W 5436   0.835  41.801   3.807
46176W        W 5437  29.574  35.454   2.299
46177W        W 5438  32.004  29.142   5.269
46178W        W 5439  38.839  25.202  13.432
46179W        W 5440  12.658  14.625   1.759
46180W        W 5441  44.262  22.135   4.721
46181W        W 5442  38.552  19.550  12.966
46182W        W 5443   7.712  39.876  10.614
46183W        W 5444  24.019  31.633  14.026
46184W        W 5445  42.000  28.502  11.901
46185W        W 5446   7.205  24.485   1.338
46186W        W 5447  22.101  37.040   2.753
46187W        W 5448   3.448   6.786   3.685
46188W        W 5449   6.398  22.715   4.765
46189W        W 5450   4.231   1.303  13.439
46190W        W 5451  33.518  12.338   0.353
46191W        W 5452  39.869  15.688   1.745
46192W        W 5453  38.451  19.555   2.288
46193W        W 5454   5.790  39.831   4.606
46194W        W 5455  41.844  14.195  13.504
46195W        W 5456   0.396  26.198   2.179
46196W        W 5457  41.489  18.188   1.889
46197W        W 5458  21.141  31.107  13.414
46198W        W 5459  26.036  29.994  13.046
46199W        W 5460  28.184  14.117   4.651
46200W        W 5461  18.111  19.722   1.276
46201W        W 5462   7.292  17.727  11.040
46202W        W 5463   8.879  14.647  12.347
46203W        W 5464  17.730  37.451  14.766
46204W        W 5465  28.514   1.416   0.277
46205W        W 5466  31.447  35.987  14.024
46206W        W 5467  14.698  22.010   3.666
46207W        W 5468  18.063   9.340  12.980
46208W        W 5469   0.338   3.756  13.537
46209W        W 5470   0.436  17.788   4.651
46210W        W 5471   7.731  36.936  13.480
46211W        W 5472  43.510  14.232   0.387
46212W        W 5473  14.824  38.038   1.439
46213W        W 5474  16.683  24.113  14.958
46214W        W 5475   2.734   6.899   3.190
46215W        W 5476  18.219  13.760  11.881
46216W        W 5477  27.138  14.764   2.855
46217W        W 5478  22.249  19.710  13.482
46218W        W 5479   5.260  32.532   0.318
46219W        W 5480  16.681  14.184   3.358
46220W        W 5481   0.961  38.957  13.003
46221W        W 5482   2.444  42.802  13.503
46222W        W 5483   7.822  22.186  13.524
46223W        W 5484  22.245  42.378   1.288
46224W        W 5485  23.103   2.443   3.857
46225W        W 5486  15.281  32.579  12.445
46226W        W 5487   7.293  35.390   1.745
46227W        W 5488  26.465  30.960   1.236
46228W        W 5489  39.865  19.740  10.935
46229W        W 5490  43.364  25.475   4.219
46230W        W 5491   7.267  41.518   4.280
46231W        W 5492   9.788  36.452  11.032
46232W        W 5493  13.191  20.750  12.360
46233W        W 5494  11.774  20.596  12.489
46234W        W 5495  33.090  24.011  14.299
46235W        W 5496  41.793   7.686  10.519
46236W        W 5497   8.404  25.644  12.911
46237W        W 5498  23.614  23.140   2.711
46238W        W 5499  17.240  33.874   3.332
46239W        W 5500  21.557  23.676   2.414
46240W        W 5501  32.065  31.121   5.141
46241W        W 5502  19.645   2.293  10.960
46242W        W 5503  30.993  28.997  13.037
46243W        W 5504   4.386  14.254   1.268
46244W        W 5505  39.901  17.678   2.218
46245W        W 5506  38.999  44.489  10.516
46246W        W 5507  39.907   0.397   0.247
46247W        W 5508   6.413  17.592  12.375
46248W        W 5509  23.019   5.249   4.173
46249W        W 5510  24.996  19.572  13.826
46250W        W 5511  39.551  33.504  14.906
46251W        W 5512   3.414  27.024  14.981
46252W        W 5513   9.345  37.927   0.826
46253W        W 5514   9.652  21.211  11.954
46254W        W 5515   6.276   6.283   2.205
46255W        W 5516  24.134  13.151  13.810
46256W        W 5517  29.538   0.916   3.783
46257W        W 5518  30.425  31.140  12.435
46258W        W 5519  18.554  37.536  14.938
46259W        W 5520   0.765   0.494  12.360
46260W        W 5521  21.244   4.809   5.293
46261W        W 5522  19.670  11.773   2.257
46262W        W 5523  14.229   6.803   3.181
46263W        W 5524  23.999  30.113  12.876
46264W        W 5525   9.260  37.346   1.315
46265W        W 5526  40.041  33.923   2.230
46266W        W 5527  20.602  14.810   1.394
46267W        W 5528  42.025   8.696  11.403
46268W        W 5529   4.839  27.477   4.613
46269W        W 5530  13.186   9.166  11.507
46270W        W 5531  26.002  33.510   2.258
46271W        W 5532  36.403   5.357  11.024
46272W        W 5533  26.035  39.435   2.259
46273W        W 5534  31.131  30.520   5.130
46274W        W 5535   3.295   0.873   0.359
46275W        W 5536  20.737  27.984  12.980
46276W        W 5537  38.526  38.066   0.245
46277W        W 5538  12.611  43.845  10.923
46278W        W 5539   8.769  12.719  12.420
46279W        W 5540  29.158  41.035   0.366
46280W        W 5541  41.931  26.515   1.917
46281W        W 5542  38.326  28.970  13.514
46282W        W 5543  30.600  12.280   0.897
46283W        W 5544  37.924  38.979   2.726
46284W        W 5545  27.577   4.758   0.765
46285W        W 5546   0.383  44.935   0.344
46286W        W 5547  31.496  44.417   2.685
46287W        W 5548  15.620  17.198  14.762
46288W        W 5549   8.329  11.153   5.088
46289W        W 5550  31.068   6.372  10.044
46290W        W 5551  18.785  38.966  10.501
46291W        W 5552  17.280  15.157  11.953
46292W        W 5553  44.777  12.819   1.247
46293W        W 5554  42.477  21.071   1.379
46294W        W 5555  22.718  33.509   2.855
46295W        W 5556  30.094  19.229   2.765
46296W        W 5557  16.126  15.717   1.827
46297W        W 5558  42.904  43.284  14.824
46298W        W 5559  14.830   4.399  12.539
46299W        W 5560  24.188  26.192   1.396
46300W        W 5561  31.080   8.686  11.527
46301W        W 5562  28.580  21.748   1.217
46302W        W 5563  38.025  10.186   0.726
46303W        W 5564  10.685  21.756   1.764
46304W        W 5565  29.512  34.444   0.858
46305W        W 5566  42.783  32.125  13.331
46306W        W 5567  12.764  17.559  10.911
46307W        W 5568  33.532   9.670  12.019
46308W        W 5569  37.486   9.166   4.205
46309W        W 5570   0.352   3.217   1.724
46310W        W 5571  31.952  14.762   2.718
46311W        W 5572  36.059  25.491   4.277
46312W        W 5573  28.493  44.262  14.992
46313W        W 5574   3.777  36.038   9.941
46314W        W 5575  13.207   8.891   4.713
46315W        W 5576  17.250   9.181  11.426
46316W        W 5577  28.086  31.605  12.852
46317W        W 5578  22.572   1.801   5.141
46318W        W 5579  21.250  13.732   0.756
46319W        W 5580  13.730   7.355  13.793
46320W        W 5581  25.101   0.344   2.729
46321W        W 5582  19.119  28.938   2.830
46322W        W 5583  10.646   5.248   2.203
46323W        W 5584  21.257   5.825  14.478
46324W        W 5585  29.635  19.704  14.388
46325W        W 5586  41.877  32.035  12.057
46326W        W 5587  24.064   0.895  11.596
46327W        W 5588  32.944  19.084  13.454
46328W        W 5589  41.985   7.319  13.979
46329W        W 5590   9.335  37.010   2.868
46330W        W 5591  17.073   2.851  14.298
46331W        W 5592  26.630  29.925   4.155
46332W        W 5593  37.074  35.513   0.890
46333W        W 5594   2.450  34.409   2.399
46334W        W 5595  39.442   4.891   1.895
46335W        W 5596   9.238   4.405  12.993
46336W        W 5597  18.212  15.251   4.188
46337W        W 5598  40.940  13.821   4.260
46338W        W 5599  23.206  23.595  13.468
46339W        W 5600  44.323  34.583   3.791
46340W        W 5601  38.048  29.056  12.054
46341W        W 5602  16.764  40.353  10.999
46342W        W 5603   9.798   9.231  13.500
46343W        W 5604  42.787   9.848  11.447
46344W        W 5605  44.896  43.865   2.264
46345W        W 5606  29.426   8.743   4.291
46346W        W 5607  28.454  12.304   1.341
46347W        W 5608  25.179  44.832   1.262
46348W        W 5609  32.901   0.922   2.673
46349W        W 5610  20.123  42.856  11.382
46350W        W 5611  35.410  19.159   2.674
46351W        W 5612  15.145  39.410   2.366
46352W        W 5613  14.759   2.423  12.999
46353W        W 5614  19.279  15.246   1.310
46354W        W 5615  12.327  16.146  14.399
46355W        W 5616  15.725  17.557   3.155
46356W        W 5617  25.108  34.453   4.672
46357W        W 5618   8.194  37.008  12.578
46358W        W 5619  39.860  15.125   4.806
46359W        W 5620  35.918  21.543   3.180
46360W        W 5621  23.030  12.692   0.455
46361W        W 5622  10.670  23.989   4.621
46362W        W 5623  32.592  26.464  10.034
46363W        W 5624  16.309  26.023   5.129
46364W        W 5625  12.823  31.519   2.295
46365W        W 5626  14.645  38.375  13.884
46366W        W 5627   5.834  37.882   4.749
46367W        W 5628  36.391  37.026   3.789
46368W        W 5629  15.632  25.526   1.774
46369W        W 5630   2.444  34.999  12.419
46370W        W 5631   4.327  22.675  14.891
46371W        W 5632  14.287  24.557   4.254
46372W        W 5633  12.712  24.111   1.807
46373W        W 5634  29.488   3.441   4.836
46374W        W 5635   0.366  10.825  13.478
46375W        W 5636  26.194  17.244  13.813
46376W        W 5637  44.275  39.553  14.515
46377W        W 5638  34.479  10.648  13.448
46378W        W 5639  26.608  22.206   0.789
46379W        W 5640  37.937  41.944  10.977
46380W        W 5641  12.743   7.304   1.769
46381W        W 5642   4.225  18.127  11.009
46382W        W 5643  27.568  15.633  12.402
46383W        W 5644  40.982   7.897   4.750
46384W        W 5645  28.573  36.427   0.816
46385W        W 5646  22.643  29.513  11.587
46386W        W 5647  32.895  34.524   3.672
46387W        W 5648   7.796  22.704   1.812
46388W        W 5649  25.158  26.548  12.966
46389W        W 5650  20.626   1.750  14.029
46390W        W 5651   7.314  24.542   3.758
46391W        W 5652  12.155  17.209   4.245
46392W        W 5653  43.860  32.925   0.404
46393W        W 5654  36.440  40.521  13.327
46394W        W 5655  21.123  29.999   2.863
46395W        W 5656  11.159  32.394   2.203
46396W        W 5657  24.188  23.684  12.561
46397W        W 5658  34.896   2.363   3.657
46398W        W 5659  12.657  38.039   3.735
46399W        W 5660  22.196  14.318   1.413
46400W        W 5661   7.874   1.925   4.231
46401W        W 5662  44.877   4.846   2.787
46402W        W 5663  29.481  39.855  11.101
46403W        W 5664  27.043  36.011   4.720
46404W        W 5665  40.390  13.344  12.533
46405W        W 5666  33.969  44.427   2.669
46406W        W 5667   3.867  35.911   4.660
46407W        W 5668  33.524  39.895   3.169
46408W        W 5669   5.765  11.155  12.919
46409W        W 5670  30.514  40.013  13.816
46410W        W 5671  42.323  41.984   4.601
46411W        W 5672  35.375  28.552   0.813
46412W        W 5673  15.630  29.449   0.308
46413W        W 5674  31.485  12.313   1.730
46414W        W 5675  42.366  29.484   0.801
46415W        W 5676  40.922   2.372   4.279
46416W        W 5677  11.346  44.437   2.373
46417W        W 5678  19.765   5.227  14.994
46418W        W 5679  25.475  21.586  11.395
46419W        W 5680  22.034  37.395  10.916
46420W        W 5681  20.100  26.609  11.465
46421W        W 5682   2.292  28.499  13.517
46422W        W 5683  39.473  21.212  10.975
46423W        W 5684   2.325  20.180   0.799
46424W        W 5685  41.389   9.732   1.750
46425W        W 5686   9.888   5.377  13.365
46426W        W 5687   5.905  40.850   0.756
46427W        W 5688  38.543  23.132   4.166
46428W        W 5689  23.027   9.839  12.413
46429W        W 5690  20.189  18.066  14.924
46430W        W 5691  25.006  39.946  14.317
46431W        W 5692  36.876  36.935   3.796
46432W        W 5693   4.876  12.655  11.524
46433W        W 5694  10.836   0.432  12.885
46434W        W 5695  37.548   3.391   2.809
46435W        W 5696  41.989  30.910  13.416
46436W        W 5697  23.997  41.913   3.853
46437W        W 5698  20.053  29.441   2.276
46438W        W 5699  43.849  13.815  10.899
46439W        W 5700  41.506  31.612   4.267
46440W        W 5701  43.494   8.284   3.360
46441W        W 5702  18.695  40.802   1.295
46442W        W 5703  11.710   2.446  10.640
46443W        W 5704  44.861  19.075   1.768
46444W        W 5705  10.754   1.754   4.208
46445W        W 5706  40.878  25.580  14.447
46446W        W 5707   1.350   0.406  10.630
46447W        W 5708   9.849   7.894  12.562
46448W        W 5709  37.896  14.115   0.808
46449W        W 5710  13.800  31.947  11.072
46450W        W 5711  26.668  14.782  11.521
46451W        W 5712  10.845  13.686   2.263
46452W        W 5713  15.697  44.945  12.459
46453W        W 5714   7.246  13.115  11.463
46454W        W 5715  20.715  41.992  13.896
46455W        W 5716   7.409  35.909   4.133
46456W        W 5717  40.357  36.433   2.662
46457W        W 5718   9.319  11.322   2.320
46458W        W 5719  11.848   2.852   0.824
46459W        W 5720   2.925  32.885  12.386
46460W        W 5721   8.387  28.451   0.248
46461W        W 5722  36.958  17.165   2.749
46462W        W 5723  26.026   4.246  11.513
46463W        W 5724  28.975  37.943   5.125
46464W        W 5725  27.037   6.922  12.044
46465W        W 5726  12.685  22.645  14.380
46466W        W 5727  19.606  28.477   0.326
46467W        W 5728   4.837  37.066   4.336
46468W        W 5729  34.079  39.455  12.987
46469W        W 5730  33.454  17.703  11.492
46470W        W 5731  42.342  40.476  13.376
46471W        W 5732   1.465  41.333  12.385
46472W        W 5733   4.945   7.375   3.226
46473W        W 5734  44.926  22.669   4.732
46474W        W 5735   8.721  31.125  13.425
46475W        W 5736  12.244  15.772   9.947
46476W        W 5737   7.323  11.859  10.515
46477W        W 5738  13.145  24.197  14.879
46478W        W 5739  36.967  28.956  11.911
46479W        W 5740  11.209  10.841   4.228
46480W        W 5741  20.707  30.088  11.475
46481W        W 5742   7.777  25.136  10.629
46482W        W 5743  39.395  22.252  14.900
46483W        W 5744   7.395   6.888  12.440
46484W        W 5745  11.161  11.688   0.286
46485W        W 5746  12.140  14.260  12.442
46486W        W 5747  11.694   2.421   3.663
46487W        W 5748  24.128  40.529  13.307
46488W        W 5749  13.192  24.024   3.743
46489W        W 5750  12.775  26.497   1.290
46490W        W 5751   4.265  40.384  13.361
46491W        W 5752  28.942   6.689   0.771
46492W        W 5753  33.584  35.488   3.230
46493W        W 5754   8.812  30.060  14.503
46494W        W 5755  23.010  12.297   0.261
46495W        W 5756  10.876  12.787   0.433
46496W        W 5757  44.871  30.492  13.397
46497W        W 5758   7.769  16.569  12.392
46498W        W 5759   1.884  14.804  10.411
46499W        W 5760  36.862   5.877   3.712
46500W        W 5761  12.312  22.574  14.936
46501W        W 5762   3.399  24.214   2.695
46502W        W 5763  27.680   4.736  14.878
46503W        W 5764  44.854  32.612   4.623
46504W        W 5765  29.963  14.637   0.818
46505W        W 5766  24.176  31.975  13.937
46506W        W 5767  27.088   3.832   2.200
46507W        W 5768   1.271  16.079   1.375
46508W        W 5769  21.132  43.870  10.920
46509W        W 5770  42.793   7.309  13.507
46510W        W 5771  14.749  24.990   2.333
46511W        W 5772   4.259   2.838  10.504
46512W        W 5773  21.608  20.051   2.853
46513W        W 5774   8.729  20.061   1.428
46514W        W 5775  35.929  36.529   2.213
46515W        W 5776  40.425  42.946   2.777
46516W        W 5777   3.441   7.826  11.492
46517W        W 5778  34.509  37.567  12.490
46518W        W 5779  17.090  43.350   0.891
46519W        W 5780  37.509  36.074   1.416
46520W        W 5781  19.112   3.317  10.579
46521W        W 5782  42.306   7.684  14.772
46522W        W 5783  44.981  24.215  11.602
46523W        W 5784  10.756  41.337   4.221
46524W        W 5785   4.718  11.305   3.854
46525W        W 5786  39.065  38.973  13.820
46526W        W 5787  31.948  42.015  14.512
46527W        W 5788  41.454  19.238   0.937
46528W        W 5789  33.585   6.382   0.808
46529W        W 5790  27.492  32.021  11.960
46530W        W 5791   8.365  34.953   1.241
46531W        W 5792  37.901  38.903   3.782
46532W        W 5793  19.280   2.296   1.277
46533W        W 5794  38.883  34.994  12.924
46534W        W 5795  37.471  43.373  14.003
46535W        W 5796  18.160  28.030   0.355
46536W        W 5797  20.533  44.455   1.722
46537W        W 5798  27.955  32.494   2.247
46538W        W 5799   6.251  23.182   3.382
46539W        W 5800  30.608  15.625   4.272
46540W        W 5801   6.330  31.935   2.235
46541W        W 5802   0.854  17.263  10.566
46542W        W 5803  41.006  31.559   2.355
46543W        W 5804   3.337  43.784  12.479
46544W        W 5805  28.940  18.153  13.896
46545W        W 5806  13.244  25.506  14.416
46546W        W 5807  14.336  38.368  12.092
46547W        W 5808  38.028   9.154   3.304
46548W        W 5809  21.166  43.424  11.012
46549W        W 5810   0.283  41.882  11.084
46550W        W 5811  18.072  13.149  11.467
46551W        W 5812  29.977  26.493  13.374
46552W        W 5813  35.911  34.904  11.118
46553W        W 5814  17.240  21.665   1.803
46554W        W 5815  24.552  34.897   0.438
46555W        W 5816  22.212  16.185   1.846
46556W        W 5817  35.109   1.886  13.379
46557W        W 5818   2.394  27.968   3.640
46558W        W 5819  43.942  26.601   4.255
46559W        W 5820  29.438  17.130  10.425
46560W        W 5821   2.414  41.483  14.366
46561W        W 5822  24.029  22.603   5.214
46562W        W 5823  41.344  21.171   0.442
46563W        W 5824  39.864  35.938  14.311
46564W        W 5825  12.763   0.385  11.413
46565W        W 5826  28.593  15.289  14.354
46566W        W 5827   1.317  23.491   3.766
46567W        W 5828   2.338  36.529   1.712
46568W        W 5829  42.397  25.179   4.200
46569W        W 5830  26.560  24.006  10.627
46570W        W 5831  17.632  30.503  14.933
46571W        W 5832  41.360  17.081  11.994
46572W        W 5833  19.142  13.310  13.443
46573W        W 5834  24.048   9.847   4.249
46574W        W 5835   6.195   4.842  14.869
46575W        W 5836   6.910   3.855  11.938
46576W        W 5837  29.151  42.379   1.236
46577W        W 5838   6.305  24.058   0.437
46578W        W 5839   9.378  25.973  10.431
46579W        W 5840  20.761  10.838  12.433
46580W        W 5841  24.654   0.257   4.329
46581W        W 5842   2.762  31.050   3.648
46582W        W 5843  23.654  35.093   1.300
46583W        W 5844  29.936  29.494   4.761
46584W        W 5845   9.719  32.047   3.384
46585W        W 5846  12.130  12.176  14.019
46586W        W 5847   6.735  35.076   1.316
46587W        W 5848   7.694  23.169   2.312
46588W        W 5849  23.123  40.356  12.018
46589W        W 5850   0.493  11.711   1.703
46590W        W 5851  40.996  35.946   3.160
46591W        W 5852  27.165   5.714   1.372
46592W        W 5853   3.908  26.676  13.883
46593W        W 5854  27.121  38.399  12.880
46594W        W 5855  41.844   9.375  11.607
46595W        W 5856  41.036   6.419  10.541
46596W        W 5857  20.601  27.075   1.748
46597W        W 5858  15.748   6.811   3.776
46598W        W 5859  41.949  35.880  10.525
46599W        W 5860  19.778  22.707  12.878
46600W        W 5861  42.886   0.936   4.709
46601W        W 5862  15.255   6.739  14.998
46602W        W 5863  41.499  10.139  11.975
46603W        W 5864  16.691  31.965  13.064
46604W        W 5865   1.811  41.882   4.177
46605W        W 5866   2.260  26.541  10.583
46606W        W 5867  16.748  29.174  14.398
46607W        W 5868  39.322  44.394  13.869
46608W        W 5869  19.167  42.867   2.336
46609W        W 5870  43.392  29.100  13.998
46610W        W 5871   2.772  38.570   3.165
46611W        W 5872  19.051  20.068  11.396
46612W        W 5873   5.922  43.386  13.015
46613W        W 5874  34.464   2.318   2.775
46614W        W 5875  42.348  19.755   4.143
46615W        W 5876  29.022  18.278   0.333
46616W        W 5877   0.401  39.345  14.471
46617W        W 5878  29.004  30.138  13.337
46618W        W 5879  38.375  17.106   2.814
46619W        W 5880   3.290  20.739  14.503
46620W        W 5881   5.426   7.273   5.256
46621W        W 5882  40.496  14.137  13.510
46622W        W 5883  34.092   2.887   2.725
46623W        W 5884   6.298   3.393   2.231
46624W        W 5885   6.772  44.943  13.999
46625W        W 5886  39.506  20.219  11.880
46626W        W 5887  24.594   5.777  12.000
46627W        W 5888  27.649   7.371   3.713
46628W        W 5889  24.028  27.949   3.297
46629W        W 5890   1.274  21.570  12.511
46630W        W 5891  17.791  23.666   2.181
46631W        W 5892  27.127  41.469  11.608
46632W        W 5893  12.724   8.881  10.437
46633W        W 5894   3.756   0.361   3.162
46634W        W 5895  10.197   6.763  14.295
46635W        W 5896  18.778  12.694  10.930
46636W        W 5897  37.534  42.468  10.974
46637W        W 5898  20.199  21.105   0.837
46638W        W 5899  24.229  14.259  12.095
46639W        W 5900   5.840  23.998   3.210
46640W        W 5901  23.039  39.035   1.386
46641W        W 5902  20.220  37.929  13.938
46642W        W 5903  27.598  30.961   3.813
46643W        W 5904  38.457  38.871  11.008
46644W        W 5905  37.936  19.541   5.306
46645W        W 5906  26.086   9.334   3.322
46646W        W 5907  20.142  44.880   1.698
46647W        W 5908  26.022  15.695  12.424
46648W        W 5909   5.751  32.596  12.342
46649W        W 5910  31.121   4.900  13.309
46650W        W 5911   8.303   9.390   9.944
46651W        W 5912  34.866   7.200   3.859
46652W        W 5913  17.061  12.838  12.382
46653W        W 5914  27.502  10.737  10.431
46654W        W 5915  30.609  13.830  14.373
46655W        W 5916   0.450   1.289  11.610
46656W        W 5917  16.076  14.128  10.472
46657W        W 5918  10.645  29.969  11.059
46658W        W 5919   6.712  25.506  13.365
46659W        W 5920  16.206  42.012   3.739
46660W        W 5921  21.113   1.879   2.896
46661W        W 5922   0.248   3.380   4.824
46662W        W 5923   1.470  44.877   2.318
46663W        W 5924  15.688  38.520   2.779
46664W        W 5925  25.593  11.251  11.428
46665W        W 5926  22.244  33.955   0.826
46666W        W 5927   6.335  20.086   3.703
46667W        W 5928   9.815  37.491   2.266
46668W        W 5929  38.063  10.642  13.502
46669W        W 5930  16.794  35.386   1.734
46670W        W 5931  37.481  19.677   2.241
46671W        W 5932  14.252  18.642  11.114
46672W        W 5933  18.774  33.081   1.790
46673W        W 5934   9.217  33.511  12.992
46674W        W 5935   0.840  10.300  11.089
46675W        W 5936  42.900  18.638   1.236
46676W        W 5937  12.133   3.865  13.523
46677W        W 5938   4.845  32.930  13.984
46678W        W 5939  13.141  31.041  14.484
46679W        W 5940   1.301  29.643   2.856
46680W        W 5941  38.866  36.497   1.339
46681W        W 5942  13.227  21.737  12.493
46682W        W 5943  33.884  32.483   3.827
46683W        W 5944  23.075  36.881  14.413
46684W        W 5945  24.181   5.856   2.301
46685W        W 5946  38.940  12.126  12.505
46686W        W 5947  16.637   9.655  12.961
46687W        W 5948  33.096  37.866   2.773
46688W        W 5949   7.726  25.208   1.297
46689W        W 5950  19.133  44.417  12.351
46690W        W 5951  40.951  11.263   0.884
46691W        W 5952  25.067  36.480   3.326
46692W        W 5953  16.104  37.392  13.472
46693W        W 5954  26.955   4.771   3.722
46694W        W 5955  11.694  34.438  11.450
46695W        W 5956  22.097  11.637  10.572
46696W        W 5957   5.692   7.351   5.096
46697W        W 5958   3.295  26.598   4.655
46698W        W 5959  22.632  22.730  14.409
46699W        W 5960  42.835  36.880   4.609
46700W        W 5961   5.307  14.680   3.639
46701W        W 5962   9.323  31.557  13.351
46702W        W 5963   4.288   7.315  13.795
46703W        W 5964  11.192   3.734  14.379
46704W        W 5965  34.967  35.550   0.467
46705W        W 5966  16.695  44.980  10.407
46706W        W 5967   0.953  17.749  10.896
46707W        W 5968  42.305  12.206  13.847
46708W        W 5969  12.663  24.634  10.486
46709W        W 5970  28.176   9.220  10.493
46710W        W 5971  30.918  27.085   0.288
46711W        W 5972  42.860  14.301   5.222
46712W        W 5973  28.044   7.771   0.328
46713W        W 5974  21.029  16.599  14.416
46714W        W 5975  43.437  38.969   2.413
46715W        W 5976  21.103  34.046   1.301
46716W        W 5977  38.060  27.028   3.636
46717W        W 5978   6.364   1.293  14.863
46718W        W 5979  19.557  33.433  13.916
46719W        W 5980  35.364  12.695  11.520
46720W        W 5981   1.943   6.812   3.670
46721W        W 5982  31.921   2.815   4.622
46722W        W 5983  30.600  27.449   2.200
46723W        W 5984  26.688  14.596  10.919
46724W        W 5985  34.520   1.440   4.239
46725W        W 5986  17.216  33.093  13.445
46726W        W 5987  27.056  23.670   2.841
46727W        W 5988  41.327  35.432  10.478
46728W        W 5989  34.062   4.761  10.556
46729W        W 5990  33.989  40.850   1.330
46730W        W 5991  29.542  44.447   3.194
46731W        W 5992   7.778   8.333  12.857
46732W        W 5993  27.497   0.865  13.385
46733W        W 5994   3.895  44.500  12.942
46734W        W 5995  41.868  37.036  10.504
46735W        W 5996  18.051  32.062  11.127
46736W        W 5997  14.103   7.233  11.436
46737W        W 5998  18.275  23.515   5.143
46738W        W 5999   8.359  10.874  12.059
46739W        W 6000  41.453  39.037  10.565
46740W        W 6001  12.152  39.485   1.713
46741W        W 6002  36.387   3.863   0.246
46742W        W 6003   4.418  27.642  11.478
46743W        W 6004  35.550  22.609   2.711
46744W        W 6005  39.896  33.580  14.431
46745W        W 6006  30.595  44.440  12.833
46746W        W 6007  26.088  14.159   3.207
46747W        W 6008   2.304  41.426   2.769
46748W        W 6009  15.286   7.749   0.370
46749W        W 6010  17.199  19.249  12.860
46750W        W 6011  40.417   4.260  13.482
46751W        W 6012  36.413  35.547  14.862
46752W        W 6013  40.457   1.470  11.043
46753W        W 6014  40.369  42.393  11.474
46754W        W 6015  21.235  12.236   3.785
46755W        W 6016  15.197  44.944   0.903
46756W        W 6017  29.608  33.127  13.848
46757W        W 6018   0.810  11.258   3.331
46758W        W 6019  31.934   1.870  11.122
46759W        W 6020  27.193  33.974   3.299
46760W        W 6021  27.603  36.430   1.729
46761W        W 6022   8.315  18.653  10.544
46762W        W 6023   9.269   2.820  10.069
46763W        W 6024  24.652   7.286  10.610
46764W        W 6025   7.332  42.871   0.823
46765W        W 6026  29.488  32.127  13.021
46766W        W 6027  40.504  44.480   0.249
46767W        W 6028  35.902  43.347   2.320
46768W        W 6029  36.867  17.711   3.333
46769W        W 6030  40.026  14.798   3.865
46770W        W 6031   9.710  31.461   2.290
46771W        W 6032  20.246  40.511   0.478
46772W        W 6033  28.501  28.141  11.122
46773W        W 6034  28.512  17.080  10.419
46774W        W 6035  33.472   3.445  10.898
46775W        W 6036  12.763  21.247  11.416
46776W        W 6037  18.647  30.630  12.922
46777W        W 6038  11.224   6.230   4.253
46778W        W 6039  24.037  25.045   4.629
46779W        W 6040   5.422   6.748  11.020
46780W        W 6041  31.938   0.747   2.699
46781W        W 6042  24.500  23.096   3.255
46782W        W 6043  24.629   6.877  10.419
46783W        W 6044   9.231  37.942   3.672
46784W        W 6045   9.312   7.337   1.377
46785W        W 6046   8.174  33.988   1.723
46786W        W 6047  30.448  28.138   4.149
46787W        W 6048  20.032   0.278  13.856
46788W        W 6049  42.495  30.099   0.257
46789W        W 6050  44.496   2.331  12.003
46790W        W 6051  26.067  40.503  13.821
46791W        W 6052  31.039   0.824   4.627
46792W        W 6053   2.453  21.082   2.298
46793W        W 6054  34.429  37.460  10.539
46794W        W 6055  43.003   0.354  13.403
46795W        W 6056  36.565  41.474  14.361
46796W        W 6057   4.774   0.841  11.393
46797W        W 6058  35.481  16.098  14.337
46798W        W 6059  32.508   2.225   4.746
46799W        W 6060  25.008  43.434  13.497
46800W        W 6061  24.642  27.531   3.213
46801W        W 6062  41.968   1.310   4.693
46802W        W 6063  24.138   9.376  12.463
46803W        W 6064  22.149  35.978  14.467
46804W        W 6065   0.317   6.804  11.948
46805W        W 6066  22.619  28.092   1.827
46806W        W 6067  34.954  36.941  13.313
46807W        W 6068  43.781   0.372   3.800
46808W        W 6069  37.954   3.348  14.779
46809W        W 6070  28.070   2.809   0.410
46810W        W 6071   6.680  29.080   1.431
46811W        W 6072   6.728  39.964   2.247
46812W        W 6073   4.283  26.533  14.489
46813W        W 6074  12.219   9.381   0.741
46814W        W 6075  35.931  27.188   4.686
46815W        W 6076  25.191  27.612  12.990
46816W        W 6077  44.995  38.845  11.387
46817W        W 6078  17.703  15.757   4.642
46818W        W 6079  12.168  25.686  13.893
46819W        W 6080  31.404  26.976   2.737
46820W        W 6081   0.918  34.055  14.947
46821W        W 6082  31.480   2.952   2.212
46822W        W 6083  15.703  31.625  14.780
46823W        W 6084  16.198  27.584   2.788
46824W        W 6085  26.656   8.359   2.746
46825W        W 6086  36.559  34.111   1.829
46826W        W 6087  10.655   8.288  13.456
46827W        W 6088  31.446   9.309   9.565
46828W        W 6089  41.818  17.184   4.116
46829W        W 6090  24.625  38.325   3.796
46830W        W 6091  30.592  44.993   0.749
46831W        W 6092  23.646  13.164  10.430
46832W        W 6093   3.328  39.332   2.725
46833W        W 6094  29.122  37.915   3.296
46834W        W 6095  20.717  13.215  11.863
46835W        W 6096  43.272  43.506   0.910
46836W        W 6097  40.924  18.749  10.526
46837W        W 6098  39.973  13.177   4.223
46838W        W 6099   1.329  38.463   2.805
46839W        W 6100   8.250   7.863   3.318
46840W        W 6101  11.245  37.357   1.218
46841W        W 6102   0.434  44.318   1.394
46842W        W 6103   2.889   3.321  14.380
46843W        W 6104  40.383  15.709   1.881
46844W        W 6105  12.758  39.992  12.375
46845W        W 6106  31.001  26.952   0.734
46846W        W 6107   3.753  13.755   4.693
46847W        W 6108  17.680  32.917  10.926
46848W        W 6109   0.951   5.429   1.238
46849W        W 6110  25.550  41.526   5.081
46850W        W 6111  44.340   3.872   3.251
46851W        W 6112  38.364   3.783   4.278
46852W        W 6113  44.272   9.326  12.407
46853W        W 6114   4.880  37.961   0.743
46854W        W 6115  17.152   7.815  10.480
46855W        W 6116  32.503   8.837   1.804
46856W        W 6117   2.900   9.167   0.257
46857W        W 6118  29.569  27.176  10.562
46858W        W 6119  20.108  23.734   2.218
46859W        W 6120  37.014  12.800   2.200
46860W        W 6121  42.282  35.072  14.789
46861W        W 6122   6.909   1.808   2.901
46862W        W 6123  14.804  14.179   2.326
46863W        W 6124  20.062  40.933   4.667
46864W        W 6125  12.125  36.946  14.832
46865W        W 6126  32.620  19.228   3.799
46866W        W 6127  25.587  26.981   0.256
46867W        W 6128  22.058  29.997  11.869
46868W        W 6129   4.446   6.843   1.869
46869W        W 6130   4.785  30.037   0.792
46870W        W 6131  33.921  33.908  11.547
46871W        W 6132  26.631  31.910   2.269
46872W        W 6133  17.108   9.352  14.388
46873W        W 6134  38.565  39.390   1.443
46874W        W 6135  36.363   5.760  10.456
46875W        W 6136  31.141   4.778  11.453
46876W        W 6137  11.864  16.730  13.813
46877W        W 6138   3.356  38.567   0.849
46878W        W 6139  29.458   0.763  12.493
46879W        W 6140   2.846   6.426   0.266
46880W        W 6141   9.789  14.833  11.868
46881W        W 6142  11.288  41.910  10.457
46882W        W 6143  44.891  14.307   3.351
46883W        W 6144  16.721  11.336   0.843
46884W        W 6145  35.516  22.204  10.502
46885W        W 6146  40.478  42.367  10.917
46886W        W 6147  38.862   6.186  12.044
46887W        W 6148  17.299  12.643  14.900
46888W        W 6149  26.054  42.331  13.459
46889W        W 6150  17.575   5.218  12.058
46890W        W 6151  24.658  30.006  14.880
46891W        W 6152   9.735  14.148  14.810
46892W        W 6153   5.349  33.491  10.496
46893W        W 6154  13.766  42.438  13.377
46894W        W 6155   4.208  27.164  12.536
46895W        W 6156  31.631  17.673   2.675
46896W        W 6157  15.288   4.753   1.230
46897W        W 6158  29.461  24.189  14.441
46898W        W 6159   7.830  39.483   2.773
46899W        W 6160   6.859  12.272  12.438
46900W        W 6161  36.428  43.943   3.731
46901W        W 6162  12.229  19.079  14.003
46902W        W 6163  29.620   1.469  13.439
46903W        W 6164  44.908  31.431   3.264
46904W        W 6165  20.179  11.195   1.847
46905W        W 6166  11.796  31.442  13.446
46906W        W 6167  36.993  26.074   1.343
46907W        W 6168   2.443   8.226  13.475
46908W        W 6169   8.209  16.582  11.003
46909W        W 6170  18.685  30.152   2.381
46910W        W 6171  22.105  10.193  12.830
46911W        W 6172  39.538  36.452  14.797
46912W        W 6173  29.482  15.694   3.297
46913W        W 6174  34.563  14.287   4.320
46914W        W 6175  37.885  41.456   3.784
46915W        W 6176   8.354  40.420   0.368
46916W        W 6177   5.779  33.043   4.179
46917W        W 6178   0.252   9.716   1.230
46918W        W 6179   9.779  18.684  11.921
46919W        W 6180   9.391  33.443   0.259
46920W        W 6181   5.760  14.687   0.948
46921W        W 6182  30.011   8.351   4.666
46922W        W 6183   8.804  34.976   4.164
46923W        W 6184  36.019  13.660  14.863
46924W        W 6185  37.955  10.320   1.783
46925W        W 6186  23.589   5.221  14.481
46926W        W 6187  24.621  43.284  14.963
46927W        W 6188  21.116  33.565   4.289
46928W        W 6189   5.248  39.492   1.927
46929W        W 6190  10.675   2.442  14.909
46930W        W 6191  21.537   0.296  11.984
46931W        W 6192  43.501   5.298  13.308
46932W        W 6193  24.541  36.985  13.516
46933W        W 6194  34.961  19.230  14.876
46934W        W 6195  19.208  27.082  10.931
46935W        W 6196  17.127  28.573  13.937
46936W        W 6197  33.555  43.852   0.359
46937W        W 6198   4.217  42.946   0.265
46938W        W 6199  43.287  39.823   4.626
46939W        W 6200  31.992  40.328  13.850
46940W        W 6201  34.116  37.049  10.416
46941W        W 6202  39.923  30.527   4.777
46942W        W 6203  43.416  25.149  12.836
46943W        W 6204  44.372  11.652  14.358
46944W        W 6205  27.157  25.137   3.262
46945W        W 6206  14.141  39.417   3.864
46946W        W 6207  27.627  22.153   2.885
46947W        W 6208  32.141   9.810  12.021
46948W        W 6209  11.307  22.742  10.510
46949W        W 6210  23.055  35.902  10.895
46950W        W 6211   5.883   7.183   0.249
46951W        W 6212   7.740  31.000  13.985
46952W        W 6213   1.249  42.478   1.403
46953W        W 6214   9.852  40.839  11.900
46954W        W 6215  40.006  34.511   0.305
46955W        W 6216  36.562  29.049   1.237
46956W        W 6217  37.947  44.907   2.394
46957W        W 6218  39.029  24.571   0.945
46958W        W 6219  35.564  14.220   1.356
46959W        W 6220  23.041  34.952  12.526
46960W        W 6221  13.199   6.190   5.089
46961W        W 6222  20.075  40.492   1.370
46962W        W 6223   1.942  42.939  11.587
46963W        W 6224  37.443   6.911   4.729
46964W        W 6225  30.594  31.117   4.174
46965W        W 6226  28.060  16.804   0.269
46966W        W 6227  38.072  33.439   2.256
46967W        W 6228   1.845  28.077   2.898
46968W        W 6229  23.199  10.864   4.344
46969W        W 6230  13.148  19.766   1.819
46970W        W 6231   9.327   6.349  13.536
46971W        W 6232  33.062  28.676   4.718
46972W        W 6233   1.415  17.595  14.766
46973W        W 6234   6.299  13.189  12.535
46974W        W 6235   3.765  43.973  14.936
46975W        W 6236  30.048  26.093  12.524
46976W        W 6237  42.490  17.687   4.280
46977W        W 6238   7.341  10.252  12.881
46978W        W 6239  42.797  36.985   2.806
46979W        W 6240  14.220  28.126  11.872
46980W        W 6241  22.550  23.506   2.671
46981W        W 6242  24.185  20.595   3.856
46982W        W 6243   2.287  34.879  12.022
46983W        W 6244  43.829   6.896  11.038
46984W        W 6245  11.712   3.719   2.851
46985W        W 6246  38.327  21.659   0.855
46986W        W 6247  41.935   6.301   5.208
46987W        W 6248  41.934  24.723   2.696
46988W        W 6249  27.505  31.573   4.307
46989W        W 6250   5.729  25.575   1.220
46990W        W 6251  18.220  35.967  11.948
46991W        W 6252  16.797  19.618   4.313
46992W        W 6253  34.115  11.687  13.859
46993W        W 6254  17.598  36.568  12.060
46994W        W 6255  17.214  26.468  12.979
46995W        W 6256  25.672  16.133  14.460
46996W        W 6257  26.684  26.658   4.627
46997W        W 6258  28.117  18.144   2.878
46998W        W 6259  33.522   0.778   2.791
46999W        W 6260   8.266  33.093   0.887
47000W        W 6261  33.916  17.235   1.441
47001W        W 6262   1.419  30.996   1.382
47002W        W 6263  10.861  10.365   2.897
47003W        W 6264  37.540  29.470  13.399
47004W        W 6265  19.764   0.843   1.879
47005W        W 6266  27.462  29.989   0.419
47006W        W 6267  19.676  41.379   4.182
47007W        W 6268  32.403  23.089   3.240
47008W        W 6269  41.324  31.927   1.217
47009W        W 6270  40.422  10.313  12.351
47010W        W 6271  40.948   7.893  10.988
47011W        W 6272  19.589  24.491  14.453
47012W        W 6273  43.395  26.068  11.443
47013W        W 6274   7.780  31.416   3.345
47014W        W 6275  29.556   3.357   0.270
47015W        W 6276  33.881  12.660  12.921
47016W        W 6277  13.767  37.915  14.348
47017W        W 6278  31.459  10.177   1.394
47018W        W 6279  16.250   4.280   5.193
47019W        W 6280  25.577  12.226   1.331
47020W        W 6281  21.246  16.742  11.561
47021W        W 6282  18.163   7.335  14.363
47022W        W 6283  15.682  34.953   5.144
47023W        W 6284  13.111   6.837  11.027
47024W        W 6285  27.584  30.635   2.180
47025W        W 6286  30.625   4.944   5.193
47026W        W 6287  38.853  39.882   3.732
47027W        W 6288  37.362  40.883  12.002
47028W        W 6289  27.607  10.251  10.631
47029W        W 6290  36.447  10.200   3.680
47030W        W 6291  39.830  29.425   0.453
47031W        W 6292  20.762  32.042   0.948
47032W        W 6293  21.030   5.196  12.909
47033W        W 6294   0.272   2.405   3.773
47034W        W 6295  12.817  12.132  13.010
47035W        W 6296  32.080  36.589   2.868
47036W        W 6297  19.229  10.803  12.005
47037W        W 6298  23.736  15.784  14.289
47038W        W 6299   0.413   4.232   4.772
47039W        W 6300  44.835   9.873  13.394
47040W        W 6301  36.952  43.303   3.787
47041W        W 6302  18.207  14.656  10.488
47042W        W 6303  23.693  31.957   0.362
47043W        W 6304  14.204  40.026   3.262
47044W        W 6305  29.047  28.605   3.221
47045W        W 6306  25.480  44.293  14.316
47046W        W 6307  33.539   4.717   4.247
47047W        W 6308  19.661  29.651  11.916
47048W        W 6309  19.054   8.859   3.656
47049W        W 6310   5.368  35.918  12.540
47050W        W 6311  43.916  15.170  10.899
47051W        W 6312  37.502  20.734   9.992
47052W        W 6313   6.913  37.885  11.570
47053W        W 6314  32.562  40.903   0.727
47054W        W 6315  23.555   7.767  12.847
47055W        W 6316   5.741   9.343   2.839
47056W        W 6317  30.125   9.880   0.301
47057W        W 6318  41.476  18.209   4.611
47058W        W 6319  44.462  41.024   4.306
47059W        W 6320  14.620  11.166  10.957
47060W        W 6321  30.152   8.250   3.311
47061W        W 6322  33.916  14.239  14.478
47062W        W 6323  18.722  18.235   2.372
47063W        W 6324  22.733   1.269  12.871
47064W        W 6325  42.844  11.691   4.344
47065W        W 6326  40.909  22.669   3.304
47066W        W 6327  20.122  36.453   2.297
47067W        W 6328   6.850  30.499  13.980
47068W        W 6329  16.190  21.703   2.200
47069W        W 6330  13.350   4.764   1.745
47070W        W 6331   5.381  41.025  13.815
47071W        W 6332  20.597  44.885   3.223
47072W        W 6333  43.955  23.072  15.000
47073W        W 6334  36.069  18.211  13.398
47074W        W 6335  32.096  10.784   9.640
47075W        W 6336  35.109  33.978  14.988
47076W        W 6337  18.129  21.757   3.654
47077W        W 6338  11.265  35.045   1.284
47078W        W 6339  21.059   1.477   2.843
47079W        W 6340  42.506   7.230   4.795
47080W        W 6341  19.043  43.953  13.846
47081W        W 6342   9.742  31.444   4.702
47082W        W 6343  43.356  27.640   1.788
47083W        W 6344  15.278  42.022   4.267
47084W        W 6345  20.525  10.181   1.934
47085W        W 6346  24.979  35.964  11.895
47086W        W 6347   8.847   1.353   2.784
47087W        W 6348  33.056   4.296  14.881
47088W        W 6349  11.235   1.973   1.401
47089W        W 6350  16.605  23.113   5.146
47090W        W 6351  22.504  29.014  10.540
47091W        W 6352  29.642  29.126   4.330
47092W        W 6353  37.392   0.457   0.805
47093W        W 6354   5.428  21.598  14.457
47094W        W 6355  11.172  42.988   2.859
47095W        W 6356  22.241  11.637   0.862
47096W        W 6357  22.523  20.659  10.576
47097W        W 6358  40.802  19.745   2.272
47098W        W 6359  26.633  16.160   0.275
47099W        W 6360   1.404   9.742  12.895
47100W        W 6361   8.762  12.649  12.833
47101W        W 6362  10.749   4.348  13.315
47102W        W 6363  30.024  27.645   4.661
47103W        W 6364  30.981  33.582   0.857
47104W        W 6365  10.684  26.647   2.346
47105W        W 6366   8.340  15.290   0.358
47106W        W 6367  23.679  23.609   9.442
47107W        W 6368  38.422  14.780   3.838
47108W        W 6369  15.813   0.816  13.798
47109W        W 6370  43.999   1.339   1.719
47110W        W 6371  24.020  44.766  11.919
47111W        W 6372  10.381  17.196   1.382
47112W        W 6373  28.144  11.737   1.403
47113W        W 6374  32.020  41.914   1.337
47114W        W 6375  32.917  21.576  11.385
47115W        W 6376  13.602  38.993  14.322
47116W        W 6377  23.012   7.721   1.789
47117W        W 6378  23.142  26.497  10.963
47118W        W 6379  43.415  27.978  13.023
47119W        W 6380   1.309  33.513  14.497
47120W        W 6381  23.708   1.808  11.460
47121W        W 6382   4.370  24.125  12.398
47122W        W 6383   1.785  28.615  10.512
47123W        W 6384  13.197   7.761  13.824
47124W        W 6385  23.615  21.568  10.513
47125W        W 6386   9.335  41.008   3.361
47126W        W 6387   0.391  16.255  12.886
47127W        W 6388   9.381  23.542  14.802
47128W        W 6389  37.509  34.572  12.414
47129W        W 6390   0.927  20.038  11.928
47130W        W 6391   1.796  17.560  10.462
47131W        W 6392  16.196  38.918   2.738
47132W        W 6393   5.697  38.990  11.964
47133W        W 6394  34.538  33.491   0.870
47134W        W 6395   9.733   1.962  13.939
47135W        W 6396  18.063  10.699   4.344
47136W        W 6397   7.810   2.439   1.917
47137W        W 6398  37.536  20.127   2.211
47138W        W 6399   2.321  11.799   0.883
47139W        W 6400  10.245   6.199   2.891
47140W        W 6401  42.791   7.177  13.851
47141W        W 6402  26.955  14.181   2.182
47142W        W 6403  30.977  37.958   0.382
47143W        W 6404  43.289  11.204   2.679
47144W        W 6405   8.658  38.981   1.417
47145W        W 6406  24.550  15.631  14.984
47146W        W 6407   7.395  40.434   3.740
47147W        W 6408   9.834  13.636  13.360
47148W        W 6409  18.094  10.208  14.354
47149W        W 6410  34.438  23.078  14.286
47150W        W 6411  35.569   9.720   3.197
47151W        W 6412  26.188   9.890  13.000
47152W        W 6413  22.673  35.982   1.405
47153W        W 6414  40.349   0.385  10.889
47154W        W 6415   0.442  13.832  13.817
47155W        W 6416  28.130  43.808   1.820
47156W        W 6417   0.904  12.677  14.850
47157W        W 6418   8.678  42.857   2.839
47158W        W 6419  37.467   7.276   3.186
47159W        W 6420   3.385   1.915  12.376
47160W        W 6421  27.030  21.703  10.615
47161W        W 6422  44.362   3.807   2.196
47162W        W 6423  37.889  24.616  14.977
47163W        W 6424  36.415   7.205  14.515
47164W        W 6425  24.193  23.731   3.709
47165W        W 6426  22.529  16.300   3.761
47166W        W 6427  11.630   2.729  14.347
47167W        W 6428  32.547   3.369  13.922
47168W        W 6429  40.901   7.761   4.245
47169W        W 6430  19.169  40.332  13.408
47170W        W 6431   4.795  23.050  13.995
47171W        W 6432  15.802   0.292   1.273
47172W        W 6433  24.594  20.622   3.287
47173W        W 6434  40.460  24.559   3.735
47174W        W 6435  38.852  26.512  13.899
47175W        W 6436   1.305  34.965  13.321
47176W        W 6437   6.773  40.484   1.265
47177W        W 6438   2.930  33.405   3.741
47178W        W 6439  18.127  21.511  14.486
47179W        W 6440  41.474  11.308   2.893
47180W        W 6441  28.457   2.945   0.343
47181W        W 6442  17.671  26.197  11.501
47182W        W 6443  34.369  30.612   2.292
47183W        W 6444   7.371  10.728   2.191
47184W        W 6445  34.116  40.898  13.474
47185W        W 6446  34.599  16.187  14.807
47186W        W 6447  23.703  26.076  14.876
47187W        W 6448  37.928  29.582  14.987
47188W        W 6449  32.601  38.983   2.663
47189W        W 6450  37.432  32.576  13.883
47190W        W 6451   3.943  40.028   2.179
47191W        W 6452  30.027  26.648  11.464
47192W        W 6453  11.263  17.775   9.513
47193W        W 6454  11.660  18.213   3.810
47194W        W 6455  22.107   1.236   4.219
47195W        W 6456  21.624  43.765  10.604
47196W        W 6457  44.850  14.183  13.832
47197W        W 6458  19.127   3.427   1.298
47198W        W 6459  27.571  40.315  14.816
47199W        W 6460   6.863  24.046  11.531
47200W        W 6461  30.107  30.083  12.891
47201W        W 6462  17.303  29.948  14.342
47202W        W 6463  42.297  31.580  11.381
47203W        W 6464  12.262  20.143  11.890
47204W        W 6465  19.607   2.329  11.582
47205W        W 6466  38.400  31.009  11.483
47206W        W 6467  10.275  10.737  10.134
47207W        W 6468   3.726  16.570  11.523
47208W        W 6469   1.746  20.138   2.212
47209W        W 6470   6.917  23.690   3.857
47210W        W 6471  42.925  20.139  11.588
47211W        W 6472  35.021  19.736   0.926
47212W        W 6473   2.332   8.355  10.641
47213W        W 6474  23.629  29.947   0.394
47214W        W 6475  39.847  12.747   1.338
47215W        W 6476  19.599  32.054   5.207
47216W        W 6477  29.621  23.018   1.867
47217W        W 6478  40.412   1.867  12.342
47218W        W 6479  40.450  25.100   1.827
47219W        W 6480   1.831   6.866  12.460
47220W        W 6481  19.145  33.441  12.083
47221W        W 6482  12.248  22.713   0.429
47222W        W 6483  36.511  44.329   5.147
47223W        W 6484  29.973  15.117  11.056
47224W        W 6485  33.518  10.200  13.400
47225W        W 6486   4.234  31.049   0.390
47226W        W 6487  33.007  38.922   0.765
47227W        W 6488  23.993   7.345   5.129
47228W        W 6489  14.705  12.332  11.519
47229W        W 6490  20.108  26.472  10.045
47230W        W 6491  12.829  11.638  12.036
47231W        W 6492   5.844  18.168   3.244
47232W        W 6493  32.419  33.585  11.425
47233W        W 6494  44.482  20.713  13.876
47234W        W 6495   7.790  11.340   0.884
47235W        W 6496  18.746  44.436  13.353
47236W        W 6497   3.242  31.499   3.748
47237W        W 6498  15.772  37.335   0.354
47238W        W 6499  20.172  42.481   3.658
47239W        W 6500  20.250  37.037  14.452
47240W        W 6501   1.334   9.392   0.315
47241W        W 6502  23.098  29.086  13.984
47242W        W 6503  39.544  10.261  13.893
47243W        W 6504  32.489   7.284   0.331
47244W        W 6505  21.111  28.073   0.786
47245W        W 6506   6.416  15.716   1.927
47246W        W 6507  30.976  15.228  14.460
47247W        W 6508   2.442  22.029   4.253
47248W        W 6509  13.134  24.986   1.266
47249W        W 6510  25.592  37.383   3.375
47250W        W 6511  38.413  19.626  10.571
47251W        W 6512  22.172  32.011  14.903
47252W        W 6513  32.519   0.435   0.357
47253W        W 6514  38.026  27.678   4.219
47254W        W 6515   7.851  38.998  14.837
47255W        W 6516  36.359  29.501  11.444
47256W        W 6517  37.853   3.224  13.987
47257W        W 6518  39.997  42.952   4.302
47258W        W 6519  35.856   9.217   1.793
47259W        W 6520  24.505   5.215   1.722
47260W        W 6521  20.122  29.574   4.668
47261W        W 6522  12.193   3.290   3.230
47262W        W 6523  27.566  33.082  14.332
47263W        W 6524  31.538  21.139  11.400
47264W        W 6525  43.818  15.760  11.391
47265W        W 6526  26.203  43.474   4.714
47266W        W 6527   5.205  18.640  11.490
47267W        W 6528   4.285  16.676   4.678
47268W        W 6529  16.570  34.009  12.966
47269W        W 6530   9.879  11.322  13.308
47270W        W 6531  16.286  39.052  12.908
47271W        W 6532  35.991  18.554   2.185
47272W        W 6533  41.430  29.165  14.788
47273W        W 6534  34.040  29.976  10.945
47274W        W 6535  32.051  13.199  11.038
47275W        W 6536  33.043  42.290  14.952
47276W        W 6537  30.921  36.399  12.854
47277W        W 6538  43.954   4.800  10.527
47278W        W 6539  25.966  32.934  13.310
47279W        W 6540  32.435  42.494  12.911
47280W        W 6541  44.846  22.549  11.498
47281W        W 6542  35.021  38.537   0.756
47282W        W 6543  38.024  29.924  11.070
47283W        W 6544  38.013  42.813  11.531
47284W        W 6545   5.332  30.472  13.470
47285W        W 6546   0.368  14.315  13.321
47286W        W 6547  44.433   5.196   4.180
47287W        W 6548  41.869   7.809   0.378
47288W        W 6549  17.111  12.788  13.346
47289W        W 6550  38.001  33.534  10.067
47290W        W 6551  21.240   7.214  10.918
47291W        W 6552  24.586   8.741   1.834
47292W        W 6553  35.518   6.259   0.246
47293W        W 6554  22.519  17.682  11.008
47294W        W 6555  36.003  18.706  10.417
47295W        W 6556  36.968  27.146   3.695
47296W        W 6557  36.972  38.840   3.318
47297W        W 6558  43.865  39.907   0.822
47298W        W 6559  11.270   5.781  11.372
47299W        W 6560  15.799  19.048  13.315
47300W        W 6561  37.529  22.647   1.831
47301W        W 6562  10.149  42.785   0.773
47302W        W 6563   1.366  31.048   2.193
47303W        W 6564  28.180  36.928   3.735
47304W        W 6565  38.946   8.807   1.252
47305W        W 6566  23.186  42.416   3.770
47306W        W 6567   4.324  34.422  13.020
47307W        W 6568   0.400  27.485  12.876
47308W        W 6569  44.009  39.027   0.784
47309W        W 6570  38.062  28.062   0.739
47310W        W 6571  16.195  37.387  14.932
47311W        W 6572  22.646  40.547  12.555
47312W        W 6573   9.381   4.258   0.375
47313W        W 6574  32.972  23.113   4.203
47314W        W 6575  21.724  10.706   0.466
47315W        W 6576  26.138  37.396   3.190
47316W        W 6577   1.439  34.107   3.311
47317W        W 6578  11.768  21.536  14.020
47318W        W 6579  16.603  16.805   4.334
47319W        W 6580  13.150  23.686  12.435
47320W        W 6581  21.533  30.483  11.043
47321W        W 6582  44.368  29.133   3.263
47322W        W 6583   9.743  29.543  11.539
47323W        W 6584  19.150  32.605   0.946
47324W        W 6585  33.381  28.625   1.253
47325W        W 6586  14.720  31.111   1.405
47326W        W 6587  12.294   9.808  14.484
47327W        W 6588  21.134  38.521   1.824
47328W        W 6589  16.251   9.768  12.832
47329W        W 6590  33.009  32.103   3.814
47330W        W 6591   4.325   6.343  14.935
47331W        W 6592   5.868   4.713  12.826
47332W        W 6593   9.172  14.711   4.653
47333W        W 6594  23.984   8.207  12.368
47334W        W 6595  38.929   2.773  13.845
47335W        W 6596  14.315  16.607   1.337
47336W        W 6597  36.376   7.198   3.234
47337W        W 6598  42.462  15.166   2.802
47338W        W 6599  43.987  33.925   3.864
47339W        W 6600  27.475   9.281   2.890
47340W        W 6601  26.616   9.151   2.194
47341W        W 6602  33.921  20.623  13.377
47342W        W 6603   7.326  34.462  12.527
47343W        W 6604  28.987  14.671  12.430
47344W        W 6605   7.890   4.911  10.021
47345W        W 6606  16.705   5.819  14.918
47346W        W 6607  17.570  35.936   0.314
47347W        W 6608  19.062   7.201   2.398
47348W        W 6609   8.225  38.997  14.287
47349W        W 6610   8.697  20.035   2.332
47350W        W 6611  15.770  31.929   3.161
47351W        W 6612  39.513  43.433   0.780
47352W        W 6613   7.220  14.280  12.413
47353W        W 6614  23.017  32.475  14.286
47354W        W 6615  30.018  39.825   2.246
47355W        W 6616   5.236  40.900   1.840
47356W        W 6617  17.228  38.998   2.873
47357W        W 6618  33.534  10.279  11.596
47358W        W 6619  42.032  12.344  11.513
47359W        W 6620  23.647  17.246   0.245
47360W        W 6621  14.735   7.372  12.578
47361W        W 6622   7.869  42.408   0.305
47362W        W 6623  15.264  37.086   1.304
47363W        W 6624   9.245  21.755  14.006
47364W        W 6625  24.051  19.730   4.793
47365W        W 6626  34.047  28.991  14.007
47366W        W 6627  36.349   6.233  14.474
47367W        W 6628  13.315   7.885  14.487
47368W        W 6629   4.283  13.339   3.843
47369W        W 6630  20.741   0.837   3.151
47370W        W 6631  44.346  26.510  12.046
47371W        W 6632  19.103   5.788  13.456
47372W        W 6633   5.714  42.777  13.488
47373W        W 6634  13.209  40.885   0.963
47374W        W 6635  23.167   7.255   1.275
47375W        W 6636   7.402  44.754  13.390
47376W        W 6637  44.872  37.488  12.031
47377W        W 6638   0.309  20.064  11.413
47378W        W 6639  33.584   1.456   4.698
47379W        W 6640  10.822  29.540  11.979
47380W        W 6641  12.643  20.654   0.800
47381W        W 6642   0.840  21.608   0.313
47382W        W 6643  20.202  20.269  12.900
47383W        W 6644  21.662   3.308  13.864
47384W        W 6645   0.853  13.618   1.349
47385W        W 6646  44.412  21.134  10.507
47386W        W 6647  27.111  11.201   4.624
47387W        W 6648   6.708  24.096   0.758
47388W        W 6649   1.271  29.530   3.846
47389W        W 6650  42.435  24.110  11.902
47390W        W 6651  40.370   4.712   1.793
47391W        W 6652  26.022  21.063  11.949
47392W        W 6653  27.522  38.825  12.474
47393W        W 6654  11.763  22.588   3.634
47394W        W 6655  43.397  17.750  12.357
47395W        W 6656  37.539  15.660   1.831
47396W        W 6657  22.145  44.397   2.372
47397W        W 6658   5.711   2.404  12.540
47398W        W 6659  10.799  32.130  11.469
47399W        W 6660  17.796  33.560  10.444
47400W        W 6661  40.946  16.212  12.034
47401W        W 6662  26.163   0.285  11.991
47402W        W 6663   0.331  19.681  12.491
47403W        W 6664  33.392  31.595  12.983
47404W        W 6665  25.609  20.207  12.926
47405W        W 6666  43.494  38.382   2.783
47406W        W 6667  28.936   2.421   0.448
47407W        W 6668  36.592  29.074   0.958
47408W        W 6669   2.236  31.572   1.365
47409W        W 6670   4.324  21.078  11.592
47410W        W 6671  23.081  24.702   0.754
47411W        W 6672  41.523  24.685   1.745
47412W        W 6673   6.329  40.358  11.481
47413W        W 6674  43.844   4.232  14.778
47414W        W 6675  12.830  41.402   1.430
47415W        W 6676   0.960  34.096  11.929
47416W        W 6677  15.183  11.281   3.227
47417W        W 6678  17.232  19.141   0.815
47418W        W 6679  37.473   0.415   2.237
47419W        W 6680  20.532  16.291  14.328
47420W        W 6681  24.034  35.955   2.714
47421W        W 6682  16.239  25.662   1.436
47422W        W 6683  12.137   6.280  10.132
47423W        W 6684   4.938  18.658   2.773
47424W        W 6685   6.388  13.216   3.781
47425W        W 6686  43.902   8.183  14.887
47426W        W 6687  10.704  32.517  10.432
47427W        W 6688  27.446  24.226  11.456
47428W        W 6689  28.160  43.513  11.527
47429W        W 6690  38.514   0.362  12.907
47430W        W 6691  30.013  30.598   1.231
47431W        W 6692   2.232  32.533   2.353
47432W        W 6693  37.076   0.357  14.816
47433W        W 6694  38.073  39.057   0.265
47434W        W 6695   7.380   4.870  10.944
47435W        W 6696  21.134  14.279  11.091
47436W        W 6697  38.887  36.359  13.316
47437W        W 6698  18.174  35.879  13.491
47438W        W 6699  10.204  17.266  10.459
47439W        W 6700  11.718  44.875   1.433
47440W        W 6701  42.028  16.640  12.008
47441W        W 6702   2.895  22.070  13.001
47442W        W 6703   1.827   1.446   2.668
47443W        W 6704  39.463  26.144  12.018
47444W        W 6705   8.334  13.164   1.211
47445W        W 6706  37.338   9.275  12.069
47446W        W 6707  28.962   0.321   4.339
47447W        W 6708  24.189  12.180   3.797
47448W        W 6709  32.136  31.958   3.151
47449W        W 6710  23.519   4.762   1.351
47450W        W 6711  14.607   6.388   3.749
47451W        W 6712  37.563  42.336   2.693
47452W        W 6713  19.121  40.920   3.859
47453W        W 6714  12.139  37.461  12.488
47454W        W 6715  16.162   7.347   4.711
47455W        W 6716  40.876   0.313  12.527
47456W        W 6717  19.255   8.731  10.951
47457W        W 6718  31.082   1.245  12.007
47458W        W 6719   9.338   7.276   2.731
47459W        W 6720  32.014  31.446   2.363
47460W        W 6721  34.543  17.605  10.415
47461W        W 6722  24.717  42.411   4.779
47462W        W 6723  12.219  29.540  13.451
47463W        W 6724   3.236  21.114  13.472
47464W        W 6725  36.934  44.785  14.827
47465W        W 6726  31.934  20.082   2.826
47466W        W 6727  36.054   5.194   2.682
47467W        W 6728  10.320  43.954  14.868
47468W        W 6729  16.764  10.863  11.895
47469W        W 6730   5.869  26.683  10.528
47470W        W 6731  28.445  23.188  12.827
47471W        W 6732   5.265  43.484   0.914
47472W        W 6733  12.715   2.353  14.386
47473W        W 6734  15.298  10.733  14.026
47474W        W 6735  41.311  14.166   0.295
47475W        W 6736  34.092   2.749   1.318
47476W        W 6737  14.271  19.674   2.820
47477W        W 6738  26.196  26.508  10.480
47478W        W 6739  29.086   5.202   1.303
47479W        W 6740  30.099  28.160   2.825
47480W        W 6741  18.779  19.760  12.061
47481W        W 6742  10.795  35.030   3.287
47482W        W 6743  32.948  38.470  14.970
47483W        W 6744  41.822  18.170  14.002
47484W        W 6745  29.063  30.511   4.819
47485W        W 6746   3.342  26.974  13.986
47486W        W 6747  27.997  32.066  10.419
47487W        W 6748  28.521   1.976   0.795
47488W        W 6749  22.209   0.802   1.744
47489W        W 6750  13.792   1.899   3.371
47490W        W 6751  40.399  40.834  13.374
47491W        W 6752  29.496  14.788   1.743
47492W        W 6753  23.031  29.484   3.756
47493W        W 6754  18.097   5.770   4.752
47494W        W 6755  30.501   3.750  14.291
47495W        W 6756  22.565   9.684   3.846
47496W        W 6757  30.967   6.299  10.439
47497W        W 6758  10.804   6.424  12.437
47498W        W 6759  15.199  25.684   3.187
47499W        W 6760  30.595  44.865  14.344
47500W        W 6761  21.558  23.654   4.795
47501W        W 6762  10.756  10.746  11.937
47502W        W 6763  23.166   4.227   2.800
47503W        W 6764   3.849  30.652   4.691
47504W        W 6765  19.155  30.651   0.838
47505W        W 6766  16.100  29.613   1.806
47506W        W 6767  14.203  44.454   1.396
47507W        W 6768  28.540  32.126   5.188
47508W        W 6769  36.350   4.429   3.772
47509W        W 6770  37.540  31.012   3.668
47510W        W 6771   0.420  17.109  14.763
47511W        W 6772   4.717  24.988  14.404
47512W        W 6773   9.728  12.136  13.810
47513W        W 6774  26.457  24.027   0.340
47514W        W 6775  40.877  39.985  11.944
47515W        W 6776   5.919  16.679   2.313
47516W        W 6777  34.906  34.107  13.443
47517W        W 6778  20.216  39.921   2.178
47518W        W 6779  32.570   4.223   4.751
47519W        W 6780  25.576   0.296   4.195
47520W        W 6781   7.687  42.906   0.779
47521W        W 6782  28.479  21.104   1.213
47522W        W 6783  41.876  21.116   3.697
47523W        W 6784   5.743  42.857   3.790
47524W        W 6785   3.745   5.290   2.807
47525W        W 6786  13.681   1.908  12.862
47526W        W 6787  40.016  19.647   3.265
47527W        W 6788   8.657  24.228   5.316
47528W        W 6789  10.842   4.378   2.223
47529W        W 6790  39.908  36.485  13.309
47530W        W 6791  14.220  32.941   2.733
47531W        W 6792   0.360   8.189  10.488
47532W        W 6793  10.200  32.908   0.843
47533W        W 6794  24.191  38.454  12.475
47534W        W 6795  21.136  15.713  12.931
47535W        W 6796  18.088  34.935  13.044
47536W        W 6797  14.617  22.536   3.858
47537W        W 6798  42.411  44.335  13.795
47538W        W 6799   0.864  21.730  11.544
47539W        W 6800  39.510  44.366  10.952
47540W        W 6801  40.921  40.312  14.276
47541W        W 6802  12.827  25.676  12.065
47542W        W 6803  27.025  28.679  13.341
47543W        W 6804  25.014  13.275   4.236
47544W        W 6805  29.978   6.246   1.247
47545W        W 6806   4.228  40.038  11.555
47546W        W 6807  38.988   8.328   1.334
47547W        W 6808  42.986  36.444  11.594
47548W        W 6809  16.777  13.746   2.324
47549W        W 6810  11.736  42.817   1.344
47550W        W 6811  15.672  10.216  11.067
47551W        W 6812  23.171   5.700  14.874
47552W        W 6813   1.350  23.132  11.984
47553W        W 6814  14.287  17.756   1.362
47554W        W 6815  31.528  35.032   1.930
47555W        W 6816  10.246   3.440  12.408
47556W        W 6817  35.868  15.824  10.066
47557W        W 6818   0.845  18.185  12.511
47558W        W 6819   9.702   0.936  14.993
47559W        W 6820  40.349  26.184   4.714
47560W        W 6821   4.321  17.196   1.895
47561W        W 6822  43.297   0.285   2.731
47562W        W 6823  38.371   0.360  14.880
47563W        W 6824   8.343  10.733   4.132
47564W        W 6825   0.398  40.342  10.564
47565W        W 6826  21.259  12.824   4.290
47566W        W 6827  37.441  39.326   4.740
47567W        W 6828  18.180  38.064  11.540
47568W        W 6829  35.427  32.975   4.811
47569W        W 6830  23.536  36.448   1.319
47570W        W 6831  28.506  41.332  12.527
47571W        W 6832   7.774  29.971   4.276
47572W        W 6833  41.465  25.102  10.938
47573W        W 6834  32.100   5.406  10.581
47574W        W 6835  29.650  41.512   0.893
47575W        W 6836   5.878  13.280   0.420
47576W        W 6837  36.971  38.411   3.826
47577W        W 6838  38.888  34.461   2.866
47578W        W 6839  40.410  23.082   0.917
47579W        W 6840  25.108  33.986   1.421
47580W        W 6841  25.218   4.337   2.302
47581W        W 6842   8.297  20.619   3.379
47582W        W 6843  12.281  37.962  13.438
47583W        W 6844  36.545  40.043   1.391
47584W        W 6845  35.413  33.534   4.635
47585W        W 6846  39.866   9.378  13.865
47586W        W 6847  43.390   1.483   4.632
47587W        W 6848  18.613  13.792  14.965
47588W        W 6849  40.375   5.395   4.730
47589W        W 6850  22.728  37.028   3.733
47590W        W 6851  39.422   4.837  12.500
47591W        W 6852  32.609   4.263   2.214
47592W        W 6853   9.818  12.856  14.978
47593W        W 6854  23.030  26.953   0.455
47594W        W 6855  17.163  43.899  11.599
47595W        W 6856  10.283  11.192  13.366
47596W        W 6857  22.531  13.277  11.113
47597W        W 6858  20.201   3.391  14.894
47598W        W 6859  44.984  20.072   0.437
47599W        W 6860  23.023   8.783   0.421
47600W        W 6861  15.131   8.867  10.556
47601W        W 6862   8.399   4.207   1.321
47602W        W 6863  22.638  21.736   4.238
47603W        W 6864  27.674  13.122  14.812
47604W        W 6865  10.830  24.153   2.777
47605W        W 6866  13.776  20.654  10.448
47606W        W 6867  12.766  36.475  10.424
47607W        W 6868   6.726  20.166   1.779
47608W        W 6869   1.824  31.933  14.276
47609W        W 6870  24.593  36.879   0.791
47610W        W 6871  28.441  39.350   3.309
47611W        W 6872  25.691  44.006  12.858
47612W        W 6873  11.716  25.983   0.858
47613W        W 6874   5.261  21.238  11.603
47614W        W 6875  24.497  24.486  13.957
47615W        W 6876   9.865  13.109  12.887
47616W        W 6877  18.214  35.087   3.149
47617W        W 6878  41.328  38.370  11.496
47618W        W 6879  24.104   7.224   3.687
47619W        W 6880   5.299  27.517   3.687
47620W        W 6881  37.883  18.731  14.879
47621W        W 6882  42.028  19.253   1.210
47622W        W 6883  34.511  11.859   2.858
47623W        W 6884  27.504  17.695  14.850
47624W        W 6885  15.614  31.994  12.921
47625W        W 6886   3.299   2.401  12.838
47626W        W 6887  15.608  22.641   0.342
47627W        W 6888  12.198  18.720   0.459
47628W        W 6889  29.113  43.929  11.028
47629W        W 6890  30.633  16.250   4.606
47630W        W 6891  29.601  41.450  14.489
47631W        W 6892  22.092  25.092  14.451
47632W        W 6893  16.234  15.805  12.544
47633W        W 6894  36.496   9.331   3.156
47634W        W 6895  25.964   2.399   4.703
47635W        W 6896   9.319  23.571  14.414
47636W        W 6897   7.340  31.112  13.977
47637W        W 6898  24.121  43.866   2.395
47638W        W 6899  35.450  24.532  11.437
47639W        W 6900  32.970   7.763   1.824
47640W        W 6901   7.666  39.403   4.300
47641W        W 6902   1.838  19.610  14.835
47642W        W 6903  27.101  40.917  11.921
47643W        W 6904  38.972  21.680  10.625
47644W        W 6905  10.242  42.468   3.376
47645W        W 6906   0.354  19.728  11.380
47646W        W 6907   3.842  30.968   4.142
47647W        W 6908  12.763   2.469   1.427
47648W        W 6909  11.830  26.496  10.531
47649W        W 6910  35.444   4.315   2.360
47650W        W 6911   1.376  32.112  14.791
47651W        W 6912  36.902   8.396   2.415
47652W        W 6913   6.909   3.409   3.374
47653W        W 6914  39.809   4.322   2.805
47654W        W 6915  30.945   8.807   2.205
47655W        W 6916  36.507   7.263  14.823
47656W        W 6917  25.012  18.106   3.629
47657W        W 6918   6.317  27.977   4.254
47658W        W 6919  24.668  11.169  10.509
47659W        W 6920   6.724  36.933  14.933
47660W        W 6921   1.249  23.235  13.893
47661W        W 6922  34.437  20.654   3.164
47662W        W 6923  14.141   4.725   0.912
47663W        W 6924  19.106   5.907   3.779
47664W        W 6925  37.928  18.118   4.230
47665W        W 6926  17.280   4.437   3.703
47666W        W 6927  16.187   0.476   4.185
47667W        W 6928  22.153   3.879  13.525
47668W        W 6929  33.064  20.700  12.522
47669W        W 6930   3.224  44.978  11.442
47670W        W 6931  41.537  43.296  12.076
47671W        W 6932  42.422  26.969   3.652
47672W        W 6933  22.212  38.041  11.490
47673W        W 6934   8.335  19.101  12.450
47674W        W 6935   8.199  23.996   4.656
47675W        W 6936  30.418  10.161  13.521
47676W        W 6937   1.474  31.992  12.374
47677W        W 6938  11.718  24.036   1.745
47678W        W 6939   2.933  10.211   3.277
47679W        W 6940  21.644   7.757  12.555
47680W        W 6941  24.612   9.697   3.310
47681W        W 6942  42.353  20.573   1.252
47682W        W 6943  25.990  36.543   3.277
47683W        W 6944  18.189   7.386   2.378
47684W        W 6945  42.969  35.520  13.041
47685W        W 6946  23.169  22.072  10.503
47686W        W 6947  35.015  21.217   0.864
47687W        W 6948   9.233  28.959   2.231
47688W        W 6949  15.742   3.749   0.328
47689W        W 6950  22.044  15.770  11.595
47690W        W 6951  27.957  37.007  13.887
47691W        W 6952  25.692  14.757   0.385
47692W        W 6953  36.935  27.063   1.772
47693W        W 6954   6.704  44.878   1.229
47694W        W 6955  19.647  23.195   4.115
47695W        W 6956  34.392  39.540  11.979
47696W        W 6957  25.573  37.983  10.616
47697W        W 6958  14.770  18.705  10.925
47698W        W 6959  34.462  39.925  12.580
47699W        W 6960  17.284  20.155  14.786
47700W        W 6961  26.160  15.724  14.928
47701W        W 6962   0.473  17.276   2.697
47702W        W 6963  13.281  31.536  14.350
47703W        W 6964  18.110  11.279   4.336
47704W        W 6965  17.674   5.328   4.142
47705W        W 6966  40.309   8.197  12.829
47706W        W 6967  32.596  14.165   2.261
47707W        W 6968  36.035  40.332  13.328
47708W        W 6969   2.742   0.943  11.455
47709W        W 6970  42.803  15.708  10.073
47710W        W 6971  39.341  32.994  12.051
47711W        W 6972  15.099  17.667   0.851
47712W        W 6973   1.323  13.829  12.912
47713W        W 6974   9.718  31.904  13.055
47714W        W 6975  18.209  23.507  11.061
47715W        W 6976   0.790   0.848  13.804
47716W        W 6977  26.630  24.578   1.840
47717W        W 6978  36.384  15.300  12.504
47718W        W 6979  41.344  29.429   2.196
47719W        W 6980  11.661  36.021   4.156
47720W        W 6981  26.042  19.244   0.965
47721W        W 6982  13.719  29.156  14.504
47722W        W 6983  43.331  37.471  13.991
47723W        W 6984  40.035  11.822  13.400
47724W        W 6985  43.881  26.678  14.286
47725W        W 6986  20.168  42.940  10.456
47726W        W 6987  23.657   0.428  14.393
47727W        W 6988   0.812  40.378   1.731
47728W        W 6989  40.911  22.685   1.807
47729W        W 6990   0.828  42.830  10.904
47730W        W 6991  20.681  22.681  11.109
47731W        W 6992  35.502  34.533   9.669
47732W        W 6993   5.911  14.672  12.826
47733W        W 6994  23.514   4.802   0.898
47734W        W 6995  21.180  42.788   1.758
47735W        W 6996   4.285  22.741  12.486
47736W        W 6997  11.660   7.853  14.853
47737W        W 6998  34.073  22.525  12.481
47738W        W 6999  15.644  36.554   4.121
47739W        W 7000  24.601  11.245   2.265
47740W        W 7001  27.087  20.740  11.876
47741W        W 7002  37.397  25.679   2.814
47742W        W 7003   0.799  32.406   1.337
47743W        W 7004  29.649  31.551  14.393
47744W        W 7005   3.218  42.893   0.754
47745W        W 7006  40.321  33.571  14.784
47746W        W 7007  34.067  26.112   1.819
47747W        W 7008  28.572   3.244  12.516
47748W        W 7009   3.293  38.886   4.245
47749W        W 7010   0.978   0.248   4.801
47750W        W 7011  32.575  23.092   0.814
47751W        W 7012  15.786   4.938  11.042
47752W        W 7013  41.970  37.501   0.796
47753W        W 7014  17.272  38.521   0.372
47754W        W 7015  40.046   7.712   2.205
47755W        W 7016  11.299  26.976   0.930
47756W        W 7017  28.507  19.078   4.226
47757W        W 7018  11.822   9.262  12.011
47758W        W 7019  28.083  33.992  12.559
47759W        W 7020  44.773  37.062  14.330
47760W        W 7021  24.142   1.910  14.866
47761W        W 7022   8.778  21.660   3.333
47762W        W 7023   1.805  27.016  14.435
47763W        W 7024  36.864  32.118  11.904
47764W        W 7025   2.229  24.208   1.930
47765W        W 7026  44.500  14.671  14.774
47766W        W 7027  10.830  44.940   3.305
47767W        W 7028  22.692  31.033  11.528
47768W        W 7029  30.054  17.780  14.983
47769W        W 7030  40.547  18.772  10.908
47770W        W 7031  29.623   9.732  10.429
47771W        W 7032  43.916   2.965  13.979
47772W        W 7033  13.604  13.298  12.855
47773W        W 7034  36.069  40.991  10.104
47774W        W 7035  27.643  38.361  13.407
47775W        W 7036  38.346  20.656   3.199
47776W        W 7037  33.909  25.667   4.270
47777W        W 7038  18.764  26.170  14.353
47778W        W 7039  15.680  38.539  14.861
47779W        W 7040   0.396  43.438  14.961
47780W        W 7041   6.795  26.116   4.612
47781W        W 7042  29.645  40.500   2.281
47782W        W 7043  24.566  36.853  14.903
47783W        W 7044  30.612  27.027  13.982
47784W        W 7045  25.215   8.850   1.787
47785W        W 7046  41.475  30.415  12.921
47786W        W 7047  17.649   6.317   3.828
47787W        W 7048  21.061   6.271  11.917
47788W        W 7049  32.898  37.497  11.554
47789W        W 7050  30.126  40.336   0.744
47790W        W 7051  10.331  31.609  14.965
47791W        W 7052  15.129  24.225  13.797
47792W        W 7053   8.884  38.460   0.882
47793W        W 7054   1.917  43.881   4.164
47794W        W 7055  23.677  32.544  14.471
47795W        W 7056   8.285  11.370  12.912
47796W        W 7057  32.600  36.359   3.780
47797W        W 7058  31.056  41.794  10.507
47798W        W 7059  40.326  21.101  12.423
47799W        W 7060  19.565  40.415  12.874
47800W        W 7061  24.184   6.223   1.279
47801W        W 7062  18.553  39.493  14.499
47802W        W 7063  24.120  28.132  12.538
47803W        W 7064   2.895   4.370  11.121
47804W        W 7065  34.416  24.203  11.453
47805W        W 7066  44.817  20.236  11.486
47806W        W 7067  24.973   0.424   0.810
47807W        W 7068  35.870  18.215   4.834
47808W        W 7069  36.872  29.445   2.875
47809W        W 7070  15.237  34.536   2.735
47810W        W 7071  28.054  32.406   4.779
47811W        W 7072  38.899  12.237   1.835
47812W        W 7073  40.862  30.581   1.333
47813W        W 7074   9.297  11.183   3.798
47814W        W 7075  25.065  30.035   0.846
47815W        W 7076   5.705  12.146   0.789
47816W        W 7077  25.641   3.837   2.901
47817W        W 7078  23.498  23.171  10.119
47818W        W 7079  31.409  16.788   0.385
47819W        W 7080  33.009  30.067   2.834
47820W        W 7081   7.685  16.813  13.370
47821W        W 7082  25.994  30.442   1.718
47822W        W 7083  43.440   9.242  13.837
47823W        W 7084  35.523  20.097   2.258
47824W        W 7085   6.268  14.160  11.108
47825W        W 7086  11.302  27.471   4.253
47826W        W 7087  37.481  43.289   0.961
47827W        W 7088   5.714   8.340  10.500
47828W        W 7089   6.778   4.446   3.688
47829W        W 7090  38.378  12.178   1.247
47830W        W 7091  17.585  39.846  11.509
47831W        W 7092  23.190  23.681   1.265
47832W        W 7093   3.802   1.344   0.904
47833W        W 7094  22.666  39.982   0.774
47834W        W 7095  43.514   2.302   1.425
47835W        W 7096   5.271  29.670  10.913
47836W        W 7097  10.157  32.553   5.256
47837W        W 7098  18.545  12.612  13.956
47838W        W 7099  33.067  38.544  13.530
47839W        W 7100  38.419  44.941   0.774
47840W        W 7101  24.492   9.654   2.366
47841W        W 7102  17.255  10.340   4.190
47842W        W 7103   7.876  25.003   5.198
47843W        W 7104  11.751  22.067  12.387
47844W        W 7105  35.014  42.032   0.830
47845W        W 7106   5.416   4.889  13.043
47846W        W 7107   6.679  20.197  13.007
47847W        W 7108  43.864  44.429   3.630
47848W        W 7109  20.587  42.987  12.554
47849W        W 7110   6.793  26.140   1.785
47850W        W 7111  21.197  32.931   1.848
47851W        W 7112  40.401  14.123   4.283
47852W        W 7113   5.882  23.582  13.019
47853W        W 7114  26.074  40.001  13.827
47854W        W 7115   2.454   7.890   3.185
47855W        W 7116  27.175  13.316  12.486
47856W        W 7117  38.820  21.612   4.171
47857W        W 7118  38.336   8.869   3.736
47858W        W 7119  40.304   4.768  13.423
47859W        W 7120   8.279  15.786   4.194
47860W        W 7121  34.483  26.011   2.669
47861W        W 7122  19.713   4.431  14.332
47862W        W 7123  35.942  11.714  12.872
47863W        W 7124   9.352  33.052  12.894
47864W        W 7125  12.620  31.416  10.476
47865W        W 7126  41.326  27.547   3.822
47866W        W 7127  31.974  25.988   4.275
47867W        W 7128  21.118   1.832   4.215
47868W        W 7129  10.243  40.992  13.012
47869W        W 7130  40.935   6.825   2.737
47870W        W 7131  32.623  32.073   9.922
47871W        W 7132  16.307  12.260  13.478
47872W        W 7133  34.465   1.909  12.969
47873W        W 7134  40.408   0.408  11.537
47874W        W 7135  39.893  33.915   1.291
47875W        W 7136   0.412  40.425  12.491
47876W        W 7137  26.181  27.989  13.971
47877W        W 7138  17.591  40.930   0.257
47878W        W 7139  28.529   9.370   1.929
47879W        W 7140   7.249  25.075   2.235
47880W        W 7141  28.634  33.426  11.469
47881W        W 7142  38.470  32.054  12.887
47882W        W 7143  43.980  10.245   4.284
47883W        W 7144  29.493   6.860   0.416
47884W        W 7145  37.438   4.440   0.769
47885W        W 7146   9.694  23.993   1.715
47886W        W 7147  35.465  14.307  11.078
47887W        W 7148  14.785  33.514   3.832
47888W        W 7149  42.526   7.866  12.014
47889W        W 7150   9.646  29.126  10.890
47890W        W 7151  23.991  31.521   2.405
47891W        W 7152   3.460  13.327  10.621
47892W        W 7153  18.143  17.733   1.869
47893W        W 7154  22.550  18.700  14.479
47894W        W 7155   5.730  14.796   3.163
47895W        W 7156  13.177  28.085  11.080
47896W        W 7157  42.316   4.880   2.717
47897W        W 7158  25.698  21.752   4.710
47898W        W 7159  23.095   2.271   3.382
47899W        W 7160  30.482  36.989   5.738
47900W        W 7161  17.148  40.980   4.276
47901W        W 7162  24.680  44.783   4.768
47902W        W 7163  41.442  15.630   2.268
47903W        W 7164  31.553   5.400  11.969
47904W        W 7165  42.022   5.361  14.928
47905W        W 7166   2.362  13.151  11.458
47906W        W 7167   9.802   8.725   2.253
47907W        W 7168  34.510   8.762  14.810
47908W        W 7169  15.097  15.650  14.347
47909W        W 7170  23.674  38.893  11.389
47910W        W 7171  28.614  17.645   2.833
47911W        W 7172   0.454  30.944  11.043
47912W        W 7173   4.438  41.417   4.303
47913W        W 7174   0.327  10.709  10.429
47914W        W 7175  23.507  11.299  13.026
47915W        W 7176  19.541  43.990  10.015
47916W        W 7177   6.878  41.018   1.872
47917W        W 7178  33.984  12.832   0.763
47918W        W 7179   0.352  42.009  10.490
47919W        W 7180  40.342  23.520   4.260
47920W        W 7181   3.799  11.311  11.418
47921W        W 7182  10.765  30.652   4.774
47922W        W 7183  35.073   0.402  11.553
47923W        W 7184  27.043   8.380  12.989
47924W        W 7185  16.162   4.863   1.254
47925W        W 7186  40.320  40.961   3.826
47926W        W 7187   7.849  23.540  12.834
47927W        W 7188  23.059  31.461   0.745
47928W        W 7189  37.388  15.189  11.931
47929W        W 7190  34.612   7.823   4.208
47930W        W 7191  12.343  43.373   2.204
47931W        W 7192  11.354   9.235   2.367
47932W        W 7193   7.709  13.659   0.299
47933W        W 7194  12.805  10.302   1.309
47934W        W 7195   3.891   4.372  10.605
47935W        W 7196  26.526   8.752  12.542
47936W        W 7197  44.397  18.719  11.914
47937W        W 7198  38.463  17.184   1.306
47938W        W 7199   5.709   6.335   2.280
47939W        W 7200  30.020  17.218   1.414
47940W        W 7201   6.783  32.412  11.996
47941W        W 7202  17.733  43.437  10.572
47942W        W 7203  39.540   6.242  10.576
47943W        W 7204  22.062  18.093   9.924
47944W        W 7205   1.265  40.901   3.806
47945W        W 7206  10.640  40.423  12.961
47946W        W 7207  19.229  35.418  11.934
47947W        W 7208  30.096  24.168   2.863
47948W        W 7209  19.763   5.301  14.384
47949W        W 7210  32.013  23.111  14.373
47950W        W 7211  17.281   6.299   4.235
47951W        W 7212  38.875   8.387  14.342
47952W        W 7213  10.835  41.293   2.401
47953W        W 7214  43.277  22.689  13.964
47954W        W 7215  42.901  16.125   4.832
47955W        W 7216  17.598  25.044  13.363
47956W        W 7217  21.122  30.994   3.662
47957W        W 7218  21.258  11.707   1.857
47958W        W 7219   9.332   5.925   1.787
47959W        W 7220  40.854  41.376   2.800
47960W        W 7221  14.741   8.288  11.099
47961W        W 7222  13.144   6.414  14.343
47962W        W 7223  32.415  35.370   1.736
47963W        W 7224   3.281  17.082  11.892
47964W        W 7225   3.753  24.691   1.912
47965W        W 7226   5.767  42.893   1.332
47966W        W 7227  19.152  38.546   3.273
47967W        W 7228  39.529  24.150   1.849
47968W        W 7229  25.087  16.569   0.932
47969W        W 7230   2.954  34.429  11.536
47970W        W 7231  15.324   5.723  12.066
47971W        W 7232  33.955   5.378   0.398
47972W        W 7233  41.501   2.902   1.366
47973W        W 7234  38.486   9.672  13.405
47974W        W 7235   8.732  43.367   3.158
47975W        W 7236  15.317  10.199   4.799
47976W        W 7237  41.037  36.884   0.357
47977W        W 7238  36.028  33.952  10.980
47978W        W 7239  15.783  15.225   4.704
47979W        W 7240  32.578   6.870  11.868
47980W        W 7241  30.575  36.476  13.410
47981W        W 7242  33.935  38.025   3.266
47982W        W 7243  31.122  40.311   2.888
47983W        W 7244   5.372  33.609   4.164
47984W        W 7245  39.552  41.468  12.569
47985W        W 7246  22.232   4.278   2.313
47986W        W 7247  12.159  27.590   2.810
47987W        W 7248  29.949  41.388  12.424
47988W        W 7249   3.750  43.895  13.999
47989W        W 7250  19.087  32.020   1.917
47990W        W 7251  14.094   6.765  14.314
47991W        W 7252  23.140  40.887  11.038
47992W        W 7253  44.867  16.597  10.905
47993W        W 7254  16.129   6.408   3.382
47994W        W 7255  44.955  40.882   0.398
47995W        W 7256  22.723   4.246   9.920
47996W        W 7257  18.612  39.023   0.804
47997W        W 7258  18.595  42.840  11.049
47998W        W 7259   2.907   6.428   0.757
47999W        W 7260  10.672  21.180   1.423
48000W        W 7261   9.793   8.741   3.337
48001W        W 7262   9.281  25.648   3.372
48002W        W 7263   0.966  31.546  13.016
48003W        W 7264  13.766  38.892   4.605
48004W        W 7265  31.591   2.843   4.174
48005W        W 7266  39.916  24.631  11.941
48006W        W 7267  20.260  39.358  11.104
48007W        W 7268  12.264   7.743  10.425
48008W        W 7269  35.952   1.447  13.431
48009W        W 7270  40.016  34.050   3.355
48010W        W 7271   9.688  13.800   9.508
48011W        W 7272  23.212   0.872   4.132
48012W        W 7273  21.260  27.096   3.317
48013W        W 7274  18.751  18.177   0.269
48014W        W 7275  23.144   7.317  14.432
48015W        W 7276  27.968  11.146   3.649
48016W        W 7277   3.313   5.902  10.436
48017W        W 7278  32.464  18.592  12.836
48018W        W 7279  43.492  26.091   2.198
48019W        W 7280  24.110  25.656   4.614
48020W        W 7281  36.498   9.165   1.795
48021W        W 7282  15.712   7.748   3.273
48022W        W 7283  23.516  11.278   3.851
48023W        W 7284  38.975  36.841   3.268
48024W        W 7285  44.295  14.738  14.339
48025W        W 7286   8.675  16.633  12.522
48026W        W 7287  37.832  17.184   1.828
48027W        W 7288  39.940   5.687   1.783
48028W        W 7289  24.523   1.756  11.455
48029W        W 7290  30.111  11.189   0.308
48030W        W 7291  18.760  13.341   1.905
48031W        W 7292  21.079  35.039   0.888
48032W        W 7293  10.694  10.744   2.340
48033W        W 7294  32.467   7.265  12.434
48034W        W 7295  19.061  31.554   3.293
48035W        W 7296  26.640  32.922  13.348
48036W        W 7297  11.265  19.202   0.365
48037W        W 7298  17.802  30.972  12.933
48038W        W 7299  10.150  43.782  13.945
48039W        W 7300  21.129  25.696  10.936
48040W        W 7301  19.695   6.681   1.327
48041W        W 7302  23.586  39.446   2.330
48042W        W 7303   8.325  27.454   1.815
48043W        W 7304  23.660   1.251  14.398
48044W        W 7305   9.299  28.626  12.840
48045W        W 7306  29.140  28.498   3.825
48046W        W 7307  37.528  22.027  11.878
48047W        W 7308  29.134  20.035  14.498
48048W        W 7309   5.859   2.758  12.571
48049W        W 7310  42.418  14.274  14.816
48050W        W 7311  24.132  28.677   3.236
48051W        W 7312  28.012  10.678  14.402
48052W        W 7313  16.758   7.354  14.898
48053W        W 7314  36.359  13.633  13.432
48054W        W 7315  29.934  44.453  11.539
48055W        W 7316   2.790  32.978  14.968
48056W        W 7317  40.323  38.040   9.441
48057W        W 7318  12.305  10.148   3.213
48058W        W 7319  16.247  41.025  12.895
48059W        W 7320   5.230  27.983   3.182
48060W        W 7321   6.235  35.967  11.126
48061W        W 7322  16.200  11.348   1.404
48062W        W 7323  17.658  18.218   9.587
48063W        W 7324  27.159  15.193  12.862
48064W        W 7325  28.993  14.296  13.042
48065W        W 7326  12.645   2.837   4.735
48066W        W 7327  30.016   2.872   3.333
48067W        W 7328  27.065   9.671  13.967
48068W        W 7329  29.669   2.782  10.467
48069W        W 7330  25.970  19.621   4.718
48070W        W 7331  28.976   6.902   2.313
48071W        W 7332  39.030  21.139   2.296
48072W        W 7333   8.212  33.560  12.020
48073W        W 7334  24.569   4.877   1.865
48074W        W 7335  32.616  20.629   4.703
48075W        W 7336  14.118  38.406   0.481
48076W        W 7337  33.594  30.957   1.746
48077W        W 7338  34.086  38.354  11.902
48078W        W 7339  16.680   8.323   3.208
48079W        W 7340  25.507  41.892  10.527
48080W        W 7341   9.256   1.814  14.300
48081W        W 7342  41.481  27.691   1.716
48082W        W 7343  15.112  38.978  11.126
48083W        W 7344  23.042  34.060  10.417
48084W        W 7345  28.565  13.623  10.976
48085W        W 7346  17.177  40.522   0.948
48086W        W 7347   5.857  42.834  11.572
48087W        W 7348  20.735  12.618   0.436
48088W        W 7349  23.624   7.299   0.773
48089W        W 7350  34.917   5.828  14.453
48090W        W 7351  41.958  29.920  13.548
48091W        W 7352  10.713  43.395   3.298
48092W        W 7353  37.395   9.260  10.923
48093W        W 7354  26.624   0.771   2.781
48094W        W 7355   7.670   6.744   4.268
48095W        W 7356   3.827  41.414   4.337
48096W        W 7357  37.485   6.267   1.408
48097W        W 7358  31.581  35.491   1.739
48098W        W 7359   2.905   3.257  13.060
48099W        W 7360  43.868  21.171   4.605
48100W        W 7361   2.806  18.126  13.809
48101W        W 7362  23.664  16.108  14.901
48102W        W 7363  16.139  26.980   9.464
48103W        W 7364  40.866  37.568  14.801
48104W        W 7365  28.142  34.919   0.251
48105W        W 7366   5.833  31.063  11.588
48106W        W 7367  21.536  20.535  14.800
48107W        W 7368  18.276  11.736   0.260
48108W        W 7369   9.791   5.326   1.234
48109W        W 7370  36.898  38.562   1.327
48110W        W 7371  43.367  15.083  11.546
48111W        W 7372   6.788   1.424  14.010
48112W        W 7373  38.504  38.889  12.837
48113W        W 7374  30.924  15.211  14.795
48114W        W 7375  44.001  26.502   0.766
48115W        W 7376  18.252   8.403   3.248
48116W        W 7377  24.079  25.137  10.610
48117W        W 7378  22.197  24.984  14.873
48118W        W 7379   8.877   1.820  13.009
48119W        W 7380  37.543  22.140  13.830
48120W        W 7381   5.800  39.003  10.594
48121W        W 7382  20.590  22.127   0.940
48122W        W 7383  10.768  30.555   2.361
48123W        W 7384  38.019  32.068  12.020
48124W        W 7385  28.048  41.317   1.274
48125W        W 7386  28.447  23.681  11.429
48126W        W 7387   4.239   7.343  12.076
48127W        W 7388  11.663   1.296  13.858
48128W        W 7389  23.142   7.213  12.496
48129W        W 7390  15.181  22.216  12.048
48130W        W 7391  32.916   3.787  12.978
48131W        W 7392  15.244   8.705  13.526
48132W        W 7393  35.880  36.411  13.814
48133W        W 7394   2.936  28.602  12.538
48134W        W 7395  21.130  24.536   5.122
48135W        W 7396  36.912  17.716  12.874
48136W        W 7397  30.622  21.234  10.625
48137W        W 7398  29.136  40.350  14.302
48138W        W 7399   9.845  39.031  12.413
48139W        W 7400  24.511  20.155  14.306
48140W        W 7401  14.685   1.890  11.957
48141W        W 7402  41.307  13.209   4.299
48142W        W 7403  33.945  37.361  12.928
48143W        W 7404  12.259  18.114   4.141
48144W        W 7405  21.098  31.468  13.011
48145W        W 7406  42.840  34.544  13.314
48146W        W 7407   6.195  25.568  12.833
48147W        W 7408  15.190  17.600  11.444
48148W        W 7409  13.138   8.289  14.803
48149W        W 7410  36.905  18.107  12.947
48150W        W 7411   7.346  12.806  11.558
48151W        W 7412  33.924   5.827   1.247
48152W        W 7413   8.172  37.877  14.472
48153W        W 7414  40.046  32.606  12.557
48154W        W 7415  12.848  28.977   3.185
48155W        W 7416  20.190  27.064   2.662
48156W        W 7417   9.694   4.827   1.395
48157W        W 7418  42.826  33.606   2.181
48158W        W 7419  24.985  30.141   2.334
48159W        W 7420  25.969  30.926   2.686
48160W        W 7421  26.700  43.799  12.031
48161W        W 7422   7.212  37.987  10.519
48162W        W 7423  20.157  24.158  10.054
48163W        W 7424  35.090  31.958  13.326
48164W        W 7425  24.599  33.958   2.349
48165W        W 7426  26.621  35.874   3.796
48166W        W 7427  40.412  16.612   1.343
48167W        W 7428  44.850  27.640   2.854
48168W        W 7429  22.578  13.173  13.924
48169W        W 7430   9.339  42.310  14.834
48170W        W 7431  23.155  11.678  10.903
48171W        W 7432  18.228  10.254  13.040
48172W        W 7433  30.576  34.431  11.934
48173W        W 7434   4.793  14.189  14.018
48174W        W 7435   1.297  14.251  13.382
48175W        W 7436  41.523  15.754  11.422
48176W        W 7437  21.254  34.011  10.573
48177W        W 7438  26.092  19.637  10.490
48178W        W 7439   2.393  16.199   3.293
48179W        W 7440  24.484  20.117   0.271
48180W        W 7441  27.057   8.287   3.268
48181W        W 7442  15.206   3.938  14.293
48182W        W 7443  18.714  44.846  10.546
48183W        W 7444  27.563  33.126   3.731
48184W        W 7445  31.646  10.785   0.935
48185W        W 7446  15.597  18.700   0.242
48186W        W 7447  34.998  37.526   4.607
48187W        W 7448   7.305   7.707   1.225
48188W        W 7449  10.362  27.634   4.735
48189W        W 7450  42.376  14.632   0.330
48190W        W 7451  17.792  18.570   2.662
48191W        W 7452   4.323  10.729  13.858
48192W        W 7453  28.109  18.721  10.527
48193W        W 7454  11.369   0.787   0.301
48194W        W 7455  14.726  26.624   2.717
48195W        W 7456  23.677  28.985  13.548
48196W        W 7457  23.099  14.646  14.278
48197W        W 7458  24.599  43.472   2.345
48198W        W 7459   9.201  20.570  11.527
48199W        W 7460  31.566  12.303  12.343
48200W        W 7461  15.265  19.661  11.432
48201W        W 7462  26.626   3.332   1.293
48202W        W 7463  42.491   6.781  12.905
48203W        W 7464   5.225  23.178   0.814
48204W        W 7465  29.492   2.367   3.232
48205W        W 7466  31.008  30.440   2.398
48206W        W 7467   4.919  30.563   1.755
48207W        W 7468  38.995  29.950   3.168
48208W        W 7469  38.000  40.858  14.317
48209W        W 7470  16.219  37.910   4.174
48210W        W 7471  16.229   7.331  12.556
48211W        W 7472  38.453  28.033  13.056
48212W        W 7473  36.511  23.115   3.773
48213W        W 7474  20.639  13.200  12.993
48214W        W 7475  19.630  41.402   0.753
48215W        W 7476   7.717  23.499  11.923
48216W        W 7477  34.886  12.728   3.731
48217W        W 7478  15.732  36.849   3.338
48218W        W 7479  39.553  12.273   3.781
48219W        W 7480  36.954  39.401   3.776
48220W        W 7481  18.700   3.886   1.816
48221W        W 7482  30.107   3.293  14.293
48222W        W 7483  17.160  33.996   2.407
48223W        W 7484  34.017  44.996  13.844
48224W        W 7485  18.295   5.421   2.285
48225W        W 7486  39.834  40.431   4.179
48226W        W 7487   9.667  42.482   2.318
48227W        W 7488  24.634   6.823   3.741
48228W        W 7489  25.186   4.890   2.738
48229W        W 7490   0.273  17.090   4.784
48230W        W 7491  30.962  18.658  12.842
48231W        W 7492  26.060  43.327   0.776
48232W        W 7493  22.591  28.484   1.372
48233W        W 7494   2.385  35.019  10.980
48234W        W 7495  43.929  17.091  11.119
48235W        W 7496  24.090  26.636   1.362
48236W        W 7497  28.077  26.677   9.957
48237W        W 7498   5.418  11.852   2.874
48238W        W 7499  25.081  41.360  11.919
48239W        W 7500  21.201   2.304   1.337
48240W        W 7501  33.560  29.431  13.848
48241W        W 7502   5.746  38.888   0.822
48242W        W 7503   7.261  35.375   0.788
48243W        W 7504  28.021   3.311  13.347
48244W        W 7505  32.565   3.439  14.460
48245W        W 7506   0.391  13.238  10.638
48246W        W 7507  26.135   2.782   3.275
48247W        W 7508  44.404  26.114  12.023
48248W        W 7509  26.177  43.779  14.886
48249W        W 7510   2.262  35.032  11.596
48250W        W 7511  35.881  20.690   2.216
48251W        W 7512   5.741  35.006   0.900
48252W        W 7513   7.280  39.440   1.219
48253W        W 7514   4.263   5.219   4.831
48254W        W 7515  22.073  36.468   3.635
48255W        W 7516   4.840  33.479   0.735
48256W        W 7517  33.513  21.058   2.800
48257W        W 7518  13.217  11.776  13.913
48258W        W 7519  24.545   5.753  14.845
48259W        W 7520  13.285  25.624  11.874
48260W        W 7521  25.037   8.745  10.632
48261W        W 7522  14.133  24.029   5.086
48262W        W 7523  41.400  37.437   1.766
48263W        W 7524   1.257  44.851  12.426
48264W        W 7525  20.259   0.980  12.496
48265W        W 7526   2.914  18.707   1.766
48266W        W 7527  17.135   4.729   2.319
48267W        W 7528   4.330  12.194  13.796
48268W        W 7529  28.548  37.383  10.470
48269W        W 7530  39.375  36.861  12.575
48270W        W 7531   6.887  38.820  13.011
48271W        W 7532  39.395  31.446   0.387
48272W        W 7533  22.565   2.418  11.886
48273W        W 7534  30.005  12.653  13.810
48274W        W 7535   6.677   1.480   0.750
48275W        W 7536  16.243  43.887   1.236
48276W        W 7537  20.644   3.311  12.863
48277W        W 7538  15.269  10.163   1.292
48278W        W 7539  17.138  40.335   2.267
48279W        W 7540  13.646  37.463   0.265
48280W        W 7541  34.914  10.383   1.715
48281W        W 7542  43.431  31.929  14.398
48282W        W 7543  38.439   6.218  12.486
48283W        W 7544   0.294  41.479   0.288
48284W        W 7545  38.516   8.887   1.301
48285W        W 7546  16.205   9.281   2.261
48286W        W 7547  33.990  22.557   2.793
48287W        W 7548  14.618  28.604   0.460
48288W        W 7549  14.338  38.397  10.997
48289W        W 7550  29.430  13.236   4.627
48290W        W 7551  20.140  39.490   3.774
48291W        W 7552  22.065  24.503   9.965
48292W        W 7553  13.618  11.360  10.988
48293W        W 7554   8.225  22.543  10.917
48294W        W 7555  26.012  24.718  12.340
48295W        W 7556   5.388  24.648   3.304
48296W        W 7557   8.805  20.758  14.023
48297W        W 7558   3.314  15.281   3.363
48298W        W 7559  12.203  44.362   0.800
48299W        W 7560  17.299  27.568  14.861
48300W        W 7561  15.202   2.348   3.853
48301W        W 7562  33.397   9.663  12.462
48302W        W 7563  10.381  16.098  12.887
48303W        W 7564  34.936  14.255   3.748
48304W        W 7565  16.734  22.190   3.203
48305W        W 7566  28.044  11.230  12.884
48306W        W 7567  40.405  12.224   1.926
48307W        W 7568  28.513  10.298  12.013
48308W        W 7569  26.030  10.252  11.882
48309W        W 7570  38.964   9.394   3.281
48310W        W 7571  16.603  12.228  12.889
48311W        W 7572  22.195  14.800  12.917
48312W        W 7573  31.500  19.645   3.775
48313W        W 7574  34.104   5.260   3.659
48314W        W 7575  19.126   9.670  11.463
48315W        W 7576  28.949  39.832  10.447
48316W        W 7577   1.977  34.595   1.758
48317W        W 7578  33.514   2.317   0.932
48318W        W 7579  38.530  39.449  12.029
48319W        W 7580  22.583  32.131   3.365
48320W        W 7581   2.386   4.365  14.921
48321W        W 7582  31.011  12.191  12.874
48322W        W 7583   9.210  36.415  13.001
48323W        W 7584   1.795  23.493   3.329
48324W        W 7585  37.011  18.205  11.449
48325W        W 7586  27.594  35.886  12.867
48326W        W 7587  44.417   6.728   2.267
48327W        W 7588  42.979  10.337  13.456
48328W        W 7589  39.030  27.500   2.416
48329W        W 7590  25.081  31.092  14.349
48330W        W 7591  25.672  22.713   3.647
48331W        W 7592   9.777   7.811  14.492
48332W        W 7593  22.059   9.177   0.816
48333W        W 7594  25.560  37.582  14.296
48334W        W 7595  31.419  36.397  13.790
48335W        W 7596  28.459   4.256  11.045
48336W        W 7597  11.692  24.100  10.903
48337W        W 7598  10.845  29.015   4.211
48338W        W 7599   7.242  26.185   4.710
48339W        W 7600  25.622  26.578   2.811
48340W        W 7601  37.883  25.052  13.338
48341W        W 7602  16.731  25.476  14.870
48342W        W 7603   8.330   9.327   3.165
48343W        W 7604  37.918   6.816   3.748
48344W        W 7605  34.447  31.526  10.563
48345W        W 7606  43.787  12.852  10.923
48346W        W 7607   1.243  29.131   2.309
48347W        W 7608  15.115  41.810  11.932
48348W        W 7609  35.907  21.582  11.999
48349W        W 7610   4.738  37.439  12.937
48350W        W 7611  10.363   8.778  11.415
48351W        W 7612   9.357  29.942  12.855
48352W        W 7613  22.006  19.728   3.230
48353W        W 7614   1.290  18.259  13.844
48354W        W 7615  26.068   6.254  10.981
48355W        W 7616  22.184  28.161  14.379
48356W        W 7617  25.595   3.292  13.949
48357W        W 7618  18.124   3.303  11.510
48358W        W 7619  31.431  31.112  13.858
48359W        W 7620  44.004  10.731   2.412
48360W        W 7621   8.874  39.355  14.825
48361W        W 7622  15.159  29.554   5.257
48362W        W 7623   4.893  36.030  10.593
48363W        W 7624  31.598  39.427   5.229
48364W        W 7625  27.005  29.493  11.899
48365W        W 7626  33.591  39.450   2.290
48366W        W 7627   9.818  40.030   2.246
48367W        W 7628  12.215  42.792   0.943
48368W        W 7629  34.004  33.998   2.272
48369W        W 7630  34.874  26.671   4.833
48370W        W 7631  37.474  39.824  13.365
48371W        W 7632  44.269  34.866   9.928
48372W        W 7633  30.022  44.306   1.333
48373W        W 7634  11.337   0.292  11.011
48374W        W 7635   7.721  27.061   4.147
48375W        W 7636  30.531  16.714   9.945
48376W        W 7637  32.948  25.553   0.435
48377W        W 7638  10.771   5.791  11.121
48378W        W 7639   1.854   0.809  14.846
48379W        W 7640   6.694  10.383  13.852
48380W        W 7641  26.689  18.639  10.562
48381W        W 7642   1.811  37.903   4.692
48382W        W 7643  40.857  25.080   1.880
48383W        W 7644   4.449   4.827  12.352
48384W        W 7645  19.695  26.024   3.147
48385W        W 7646  27.975  21.191  13.862
48386W        W 7647  29.532  27.534  13.997
48387W        W 7648  16.098  12.801  10.904
48388W        W 7649  28.461   4.235   0.782
48389W        W 7650  25.118   3.801  13.801
48390W        W 7651  17.281  13.818   1.778
48391W        W 7652  22.168  14.158   4.600
48392W        W 7653  29.543   7.852  13.375
48393W        W 7654  25.675   9.699  10.580
48394W        W 7655   2.874  26.500   3.816
48395W        W 7656   3.317  44.471  14.883
48396W        W 7657  17.689  30.994   2.827
48397W        W 7658  26.468  23.546  13.389
48398W        W 7659  12.354  33.613   3.156
48399W        W 7660   8.325  33.109  14.004
48400W        W 7661  21.566  21.111  14.511
48401W        W 7662  30.988  19.269   4.655
48402W        W 7663  17.071  27.163   0.382
48403W        W 7664  34.387  34.071  12.503
48404W        W 7665  24.542  13.286  11.126
48405W        W 7666  29.499  27.502  12.390
48406W        W 7667   6.337   2.862   4.720
48407W        W 7668   3.950   8.337   9.554
48408W        W 7669  34.397  19.191   2.273
48409W        W 7670  11.196  40.922  14.938
48410W        W 7671  28.478  26.966  11.569
48411W        W 7672  35.603  34.459  13.368
48412W        W 7673  19.705  17.745   1.837
48413W        W 7674  30.090  24.529   3.359
48414W        W 7675  38.890  16.305  14.998
48415W        W 7676  30.423  35.579   1.842
48416W        W 7677   9.357   1.845   0.292
48417W        W 7678  22.699   0.963   1.726
48418W        W 7679  33.075  23.647  13.801
48419W        W 7680  36.429  33.409  11.055
48420W        W 7681   6.317  19.061  12.382
48421W        W 7682  37.846  21.215  14.009
48422W        W 7683  32.933  14.616  12.548
48423W        W 7684  27.160  33.907   5.759
48424W        W 7685  12.796  40.974  13.547
48425W        W 7686  20.652  22.627  13.015
48426W        W 7687   4.753  39.359  14.918
48427W        W 7688  29.138  14.795   0.322
48428W        W 7689   3.339   6.408   4.630
48429W        W 7690  34.437  36.858  12.909
48430W        W 7691  18.790  22.027   1.790
48431W        W 7692   0.351  33.112  14.326
48432W        W 7693   0.988  20.080   0.806
48433W        W 7694  33.964  34.374  12.507
48434W        W 7695  19.198  25.107  12.550
48435W        W 7696  22.702   8.315   4.677
48436W        W 7697  41.532  35.534  12.482
48437W        W 7698  17.628   7.294   4.677
48438W        W 7699  32.044   7.254  10.530
48439W        W 7700  14.727  15.111  13.905
48440W        W 7701   4.295  40.038  10.494
48441W        W 7702  10.829  17.139   2.231
48442W        W 7703  36.402  15.161   1.322
48443W        W 7704   7.669   6.907   1.396
48444W        W 7705  36.555  18.579  11.373
48445W        W 7706  33.394  42.310  14.356
48446W        W 7707  43.293   1.827  13.389
48447W        W 7708  22.553  41.525  10.637
48448W        W 7709  11.655  18.645   0.894
48449W        W 7710   2.424  24.674  13.457
48450W        W 7711  15.294  18.743   4.280
48451W        W 7712  11.868  13.313  11.581
48452W        W 7713  13.162  43.446  13.388
48453W        W 7714  29.059  13.818   1.788
48454W        W 7715   5.412   0.770  14.960
48455W        W 7716   3.375  43.371   2.881
48456W        W 7717  39.861  23.549   3.193
48457W        W 7718  28.150   9.159   2.820
48458W        W 7719  34.940   3.838   1.713
48459W        W 7720  16.619   7.289   1.926
48460W        W 7721  21.245  41.954   4.759
48461W        W 7722  25.054  39.948   0.815
48462W        W 7723  43.358  19.676  14.821
48463W        W 7724  34.979  43.915  13.877
48464W        W 7725   4.354  13.615  12.389
48465W        W 7726  34.085   7.282   2.353
48466W        W 7727  39.337  10.168   3.331
48467W        W 7728  31.527  27.569  10.581
48468W        W 7729   6.841  20.097  14.973
48469W        W 7730  38.463   4.931   3.300
48470W        W 7731  44.433  21.607   1.786
48471W        W 7732   4.780  42.955  14.950
48472W        W 7733  13.112  28.933   4.348
48473W        W 7734  30.589  16.116   0.796
48474W        W 7735  32.900  28.072   0.418
48475W        W 7736  29.116   3.234   2.215
48476W        W 7737   9.811  41.496   2.323
48477W        W 7738  30.135  14.615   3.759
48478W        W 7739  29.132   5.263   0.953
48479W        W 7740  27.515   1.478  12.491
48480W        W 7741  23.093  12.618  11.012
48481W        W 7742  42.353  38.431   1.747
48482W        W 7743  41.976  29.512  14.505
48483W        W 7744   0.760   2.763   1.246
48484W        W 7745  13.763  27.140   4.782
48485W        W 7746  14.206  42.844   2.331
48486W        W 7747  40.798  30.483   0.878
48487W        W 7748  17.578  19.143   2.814
48488W        W 7749  23.222   3.394   4.779
48489W        W 7750   9.798  13.611  12.896
48490W        W 7751  14.154  36.000  14.436
48491W        W 7752  25.191  40.483   2.291
48492W        W 7753   9.323  18.276  14.028
48493W        W 7754   8.373  28.087  10.405
48494W        W 7755  34.583  43.805  12.892
48495W        W 7756  37.963   8.669  11.903
48496W        W 7757  20.055   5.799  13.351
48497W        W 7758  39.024  20.629   1.847
48498W        W 7759  43.874  17.722   0.387
48499W        W 7760   1.330   8.858   5.104
48500W        W 7761  20.539   0.412   0.954
48501W        W 7762  18.715  29.596  10.971
48502W        W 7763  39.361  14.697  14.457
48503W        W 7764  36.406  20.238   0.458
48504W        W 7765   1.848   3.443  14.360
48505W        W 7766  16.585  30.920  12.358
48506W        W 7767   2.461  14.340  12.880
48507W        W 7768  44.935  38.455  12.844
48508W        W 7769   4.861   9.379  12.995
48509W        W 7770  19.662  25.685   2.185
48510W        W 7771  38.995  17.165  13.833
48511W        W 7772  32.094   0.280  12.512
48512W        W 7773  32.557  32.553   1.934
48513W        W 7774  27.172   0.797   3.656
48514W        W 7775  33.428   9.171  13.468
48515W        W 7776  15.771  20.694   9.943
48516W        W 7777  27.095   5.198  14.792
48517W        W 7778  30.138   4.340   3.674
48518W        W 7779  35.396  28.943  12.957
48519W        W 7780  38.349  33.971  13.820
48520W        W 7781  26.668  17.244   4.259
48521W        W 7782   9.657  43.275   2.823
48522W        W 7783  29.622  32.568   1.822
48523W        W 7784  24.520  38.890  10.984
48524W        W 7785  20.147  19.276   0.739
48525W        W 7786  43.888  11.296  13.864
48526W        W 7787  38.982  41.026   4.604
48527W        W 7788   9.177  30.098   1.397
48528W        W 7789  22.512  15.083  12.366
48529W        W 7790   4.842  36.030   1.728
48530W        W 7791  10.140  36.016  10.969
48531W        W 7792  10.758  41.841   4.291
48532W        W 7793  26.195  22.043  11.059
48533W        W 7794  11.801  26.196  11.956
48534W        W 7795   3.735  39.429  12.474
48535W        W 7796  39.549  32.448   5.697
48536W        W 7797   8.333   9.254   4.710
48537W        W 7798  34.527   4.884  14.320
48538W        W 7799  30.100  40.932   1.887
48539W        W 7800  13.652  33.100   3.205
48540W        W 7801   0.300   3.944  11.522
48541W        W 7802   1.258  35.962   2.396
48542W        W 7803  14.634  17.294   2.274
48543W        W 7804  13.613  24.008   0.900
48544W        W 7805  10.720   0.938  12.000
48545W        W 7806   4.773  11.866   4.767
48546W        W 7807  10.224  27.622  13.375
48547W        W 7808  10.309   0.357  10.032
48548W        W 7809   5.287  25.182  14.389
48549W        W 7810  22.018   7.235  10.552
48550W        W 7811  44.777  14.689   0.840
48551W        W 7812  27.533  25.094   0.916
48552W        W 7813  12.704  28.148   0.298
48553W        W 7814   7.688   5.300   0.373
48554W        W 7815  43.957   6.796  14.779
48555W        W 7816  17.230  42.988   3.238
48556W        W 7817  40.901  24.684   2.382
48557W        W 7818  15.800  24.149   3.788
48558W        W 7819   1.945   0.798  13.336
48559W        W 7820   0.834   1.816   4.795
48560W        W 7821  39.323   3.347  10.964
48561W        W 7822   4.764   5.416   4.670
48562W        W 7823  14.759  25.171  13.980
48563W        W 7824  22.059  37.521   0.930
48564W        W 7825  10.302  38.828  11.385
48565W        W 7826  21.578   4.832   3.685
48566W        W 7827  14.260  14.673  12.933
48567W        W 7828   8.739  14.692   0.965
48568W        W 7829  38.557  29.487  10.434
48569W        W 7830  43.398  15.823   3.744
48570W        W 7831  36.407  44.273   3.846
48571W        W 7832  17.188  10.703  14.312
48572W        W 7833   9.348  21.709  12.446
48573W        W 7834   3.409  23.650  12.389
48574W        W 7835  27.136   7.820   4.765
48575W        W 7836  19.613  23.201  12.464
48576W        W 7837  10.150   1.789   2.413
48577W        W 7838  33.468   6.390  13.361
48578W        W 7839  36.874  37.440   3.848
48579W        W 7840  21.154  14.181  11.450
48580W        W 7841  30.597  35.026   0.257
48581W        W 7842   4.265   8.401  12.467
48582W        W 7843  30.930  29.603   3.307
48583W        W 7844  26.674  29.045   0.283
48584W        W 7845   8.813  30.518   2.222
48585W        W 7846   1.775  25.558   1.706
48586W        W 7847  26.024  28.655   3.705
48587W        W 7848  43.943  19.051  12.484
48588W        W 7849  32.955  31.948   4.190
48589W        W 7850   3.274   9.792   4.282
48590W        W 7851  41.921  42.839  11.524
48591W        W 7852  33.989  12.214  12.359
48592W        W 7853  22.095   6.826   4.808
48593W        W 7854   4.328  12.133   4.832
48594W        W 7855  44.787  40.442  12.938
48595W        W 7856  39.878  27.683   1.338
48596W        W 7857  26.975   9.840   3.253
48597W        W 7858  29.946  17.211   2.692
48598W        W 7859  12.705   2.874   2.729
48599W        W 7860  42.468   1.946  11.904
48600W        W 7861  22.153  16.091   3.207
48601W        W 7862  26.656  43.393  10.980
48602W        W 7863  37.853  38.897  14.283
48603W        W 7864   9.725  33.077  12.982
48604W        W 7865  35.009  28.563   4.756
48605W        W 7866  41.798  17.615  12.082
48606W        W 7867  39.839  34.101   0.828
48607W        W 7868  40.993  34.863  14.503
48608W        W 7869  33.887  41.331  11.571
48609W        W 7870  11.867  42.485  10.494
48610W        W 7871  30.065  13.126   0.780
48611W        W 7872  40.935  22.007  12.051
48612W        W 7873   2.380  30.574  13.796
48613W        W 7874  18.754  27.989  14.894
48614W        W 7875  12.265  14.236   4.780
48615W        W 7876   1.361   6.217   4.735
48616W        W 7877  13.787  29.491  11.939
48617W        W 7878   8.396  27.992  13.393
48618W        W 7879  42.282  26.581   3.675
48619W        W 7880  27.544   6.876   1.335
48620W        W 7881  32.945  20.041   1.291
48621W        W 7882  18.272   4.367  13.026
48622W        W 7883   1.816  38.418   0.894
48623W        W 7884  39.932  25.066   4.754
48624W        W 7885   4.767  23.104   1.444
48625W        W 7886   7.340   8.321   3.199
48626W        W 7887  39.500   6.351   0.936
48627W        W 7888  27.687   0.817  13.043
48628W        W 7889   5.251   9.818   5.243
48629W        W 7890  38.895  39.961  11.951
48630W        W 7891  39.934   6.846  12.987
48631W        W 7892  39.960  10.159   0.852
48632W        W 7893  11.707  41.328  10.525
48633W        W 7894  16.279  13.281   5.159
48634W        W 7895  40.401  43.442  14.285
48635W        W 7896  26.506   5.209   1.315
48636W        W 7897  11.346  28.970  10.903
48637W        W 7898  39.379  36.849   1.782
48638W        W 7899   8.337  23.697   1.374
48639W        W 7900  35.406  22.067  12.547
48640W        W 7901  31.984   9.374   2.230
48641W        W 7902  36.545  37.076   1.427
48642W        W 7903  17.087  42.353  11.563
48643W        W 7904  27.611   4.807   1.424
48644W        W 7905   0.926  35.051   1.339
48645W        W 7906  29.997   0.793  13.809
48646W        W 7907  39.389   1.870   0.910
48647W        W 7908  18.244  21.177   0.962
48648W        W 7909  13.699  26.677   5.185
48649W        W 7910  15.799  15.721   4.346
48650W        W 7911  23.644  10.831  13.833
48651W        W 7912  17.201  12.854   3.175
48652W        W 7913  34.050  29.013   3.151
48653W        W 7914   9.857  17.753   2.871
48654W        W 7915  13.105  39.810   2.751
48655W        W 7916  17.633  42.366   0.939
48656W        W 7917   8.244  14.136  11.500
48657W        W 7918  43.360  30.563   0.337
48658W        W 7919   4.210  22.127  10.442
48659W        W 7920   3.898  25.628  10.959
48660W        W 7921  20.761  29.144   4.135
48661W        W 7922  35.855  15.739   2.343
48662W        W 7923  16.708  31.633   1.418
48663W        W 7924  27.475  10.173  11.096
48664W        W 7925  15.796  25.061   2.316
48665W        W 7926  12.135  36.348   3.646
48666W        W 7927  41.389   8.671  12.868
48667W        W 7928  17.598  26.666   3.296
48668W        W 7929   3.768  21.558  12.052
48669W        W 7930  22.070  27.460  13.419
48670W        W 7931  37.354  40.854   9.634
48671W        W 7932  35.426  28.555  11.557
48672W        W 7933  25.152  32.562  12.069
48673W        W 7934  11.642   8.371  11.056
48674W        W 7935  25.137  39.927  10.472
48675W        W 7936  39.019  38.505  12.443
48676W        W 7937  36.906  27.036   3.301
48677W        W 7938  20.090   9.320  14.479
48678W        W 7939  41.917  31.057  14.024
48679W        W 7940  34.549  16.628  12.067
48680W        W 7941  35.102  44.299   0.297
48681W        W 7942  16.644   4.857  12.905
48682W        W 7943  36.391  31.573  13.542
48683W        W 7944   5.422   4.205   2.299
48684W        W 7945  20.541  12.706   3.772
48685W        W 7946  36.916   5.278   3.680
48686W        W 7947  12.249  31.138  10.999
48687W        W 7948  17.580   0.401  10.936
48688W        W 7949  32.886  31.927  11.011
48689W        W 7950  31.972  39.362  12.005
48690W        W 7951   5.726  29.074   0.257
48691W        W 7952  31.896  24.099   0.739
48692W        W 7953  28.164  18.265  12.481
48693W        W 7954  11.764  19.285  11.030
48694W        W 7955  12.297  20.747   0.308
48695W        W 7956  26.485  19.643  14.818
48696W        W 7957  29.019  19.775   0.315
48697W        W 7958   7.878  33.576   4.341
48698W        W 7959  13.107  35.385   3.734
48699W        W 7960  20.626  13.766   1.218
48700W        W 7961  35.380  14.283   4.725
48701W        W 7962  13.649   1.798  10.972
48702W        W 7963  31.640  40.329  11.466
48703W        W 7964  12.357   6.379  13.805
48704W        W 7965  42.023  26.513  13.400
48705W        W 7966  11.649   2.305   2.410
48706W        W 7967  21.704   8.270  12.888
48707W        W 7968  40.450  22.197   1.824
48708W        W 7969  35.407   1.326  10.600
48709W        W 7970  34.607  37.432  10.104
48710W        W 7971  22.116  36.473   2.404
48711W        W 7972  33.407  23.142   3.657
48712W        W 7973  35.885   7.824  10.912
48713W        W 7974  28.104  12.799  14.291
48714W        W 7975  22.724   5.907   4.627
48715W        W 7976   0.417  22.716   1.280
48716W        W 7977  35.971  13.607   2.791
48717W        W 7978  37.425  19.723   3.146
48718W        W 7979  16.733  12.638  13.810
48719W        W 7980  32.596  22.552  10.529
48720W        W 7981  34.953  44.948   9.525
48721W        W 7982  25.519   4.759  10.019
48722W        W 7983  41.445   7.834  14.314
48723W        W 7984  12.359  11.790   3.360
48724W        W 7985   0.296  34.077   0.846
48725W        W 7986   7.263  11.723  14.987
48726W        W 7987  33.975  15.292  14.817
48727W        W 7988   5.384  29.558   3.355
48728W        W 7989  23.029  19.167   4.667
48729W        W 7990   1.971  28.004   3.262
48730W        W 7991  18.268  44.793  14.296
48731W        W 7992  14.178  17.163  12.411
48732W        W 7993  38.540  37.083  11.872
48733W        W 7994  27.585  21.068   1.830
48734W        W 7995  15.717   6.759   0.854
48735W        W 7996  13.656  35.030  10.981
48736W        W 7997  37.061  10.702   2.283
48737W        W 7998   2.823  38.865  11.536
48738W        W 7999  42.023  36.466   0.916
48739W        W 8000   0.251   8.322  12.471
48740W        W 8001   4.925   9.881  12.976
48741W        W 8002  16.704  40.420   0.776
48742W        W 8003   2.853   7.732   4.239
48743W        W 8004  19.098  23.580   2.303
48744W        W 8005  34.036  17.684   1.390
48745W        W 8006   9.177  27.109   3.210
48746W        W 8007  31.064  23.688   0.730
48747W        W 8008  44.314  18.736  12.424
48748W        W 8009   4.375  24.138   2.195
48749W        W 8010  25.008   9.705  11.435
48750W        W 8011   4.319  10.709  13.003
48751W        W 8012   1.386  36.856   0.791
48752W        W 8013  18.695  11.362  13.988
48753W        W 8014  24.532  26.692  13.351
48754W        W 8015  15.601   2.470   1.876
48755W        W 8016  15.648  41.531   3.834
48756W        W 8017  33.980  16.675   1.383
48757W        W 8018  31.411  44.885   0.321
48758W        W 8019  32.060  26.545   2.400
48759W        W 8020  43.882  42.355  12.502
48760W        W 8021   6.855  39.955  12.401
48761W        W 8022  36.461  12.268  14.305
48762W        W 8023  12.778   9.807   4.743
48763W        W 8024  36.410  43.414   3.647
48764W        W 8025  37.966  37.953   9.448
48765W        W 8026  22.251  21.182  11.109
48766W        W 8027  35.370  34.557   5.703
48767W        W 8028   3.322  32.613   3.207
48768W        W 8029  44.816   0.839   3.384
48769W        W 8030  43.287  34.462   2.798
48770W        W 8031  23.709  11.704   1.878
48771W        W 8032  37.408   0.264  14.465
48772W        W 8033  32.903  17.631   3.847
48773W        W 8034  14.239  44.443  11.018
48774W        W 8035   4.758  18.135  10.579
48775W        W 8036  40.887  35.538  14.373
48776W        W 8037  44.296   4.360  12.853
48777W        W 8038   2.352  44.281   4.130
48778W        W 8039  25.521  42.287  11.895
48779W        W 8040   9.280  42.011  14.998
48780W        W 8041  40.458  15.254  14.922
48781W        W 8042  19.193  29.952   4.332
48782W        W 8043  24.599  40.959  13.461
48783W        W 8044  28.443   3.421  13.984
48784W        W 8045  43.440  17.798  14.428
48785W        W 8046  42.285   0.449   1.809
48786W        W 8047  38.924  42.970   5.286
48787W        W 8048  37.835   2.779  12.902
48788W        W 8049  34.977   1.279  12.357
48789W        W 8050   9.272  24.219   4.152
48790W        W 8051   6.840   8.331  12.041
48791W        W 8052  16.090  39.004  12.032
48792W        W 8053  35.984  29.937   3.221
48793W        W 8054   6.753  20.676  10.424
48794W        W 8055  22.585  11.845   2.263
48795W        W 8056  18.644   2.736   2.853
48796W        W 8057  30.603   9.258   2.262
48797W        W 8058  32.095  35.481  13.311
48798W        W 8059  36.033  20.672  14.782
48799W        W 8060  20.252  18.745  13.803
48800W        W 8061  16.282  32.391   1.930
48801W        W 8062  15.678  34.864  10.466
48802W        W 8063  18.277  15.671  13.866
48803W        W 8064  13.302  16.635   1.917
48804W        W 8065  17.555  20.645   2.387
48805W        W 8066  25.585  17.648  11.609
48806W        W 8067  17.092   0.784   2.841
48807W        W 8068  18.229   4.344  14.908
48808W        W 8069  32.429   9.203   3.784
48809W        W 8070   5.746  42.287  11.856
48810W        W 8071  32.064   7.387  11.052
48811W        W 8072  32.911  16.155  13.339
48812W        W 8073   8.272   6.262  14.807
48813W        W 8074  32.541  36.911   0.820
48814W        W 8075  40.521  41.988   0.286
48815W        W 8076  15.294   6.300   1.799
48816W        W 8077  40.841  16.092  10.981
48817W        W 8078  37.877  28.642   2.287
48818W        W 8079  44.770  31.520  13.040
48819W        W 8080  26.562  23.074   0.871
48820W        W 8081  21.138   4.897   1.892
48821W        W 8082  29.639  14.248   1.826
48822W        W 8083   0.481  11.865   1.297
48823W        W 8084  21.249  18.695  12.973
48824W        W 8085  33.450  17.249   2.844
48825W        W 8086  27.671  17.071  10.499
48826W        W 8087  36.576   4.824   4.293
48827W        W 8088  11.809  40.011   0.406
48828W        W 8089   2.357  24.063   3.169
48829W        W 8090  10.656  17.297   0.307
48830W        W 8091   0.987  18.721   1.768
48831W        W 8092  12.317  20.549   3.848
48832W        W 8093  16.164  21.075   4.642
48833W        W 8094  21.754   1.441   0.403
48834W        W 8095  20.038   7.238   2.219
48835W        W 8096   3.281   0.842   1.832
48836W        W 8097  17.132  40.426   3.175
48837W        W 8098   1.409  30.600  12.956
48838W        W 8099   0.795  31.635  14.410
48839W        W 8100  23.579   8.664   0.305
48840W        W 8101  23.215  41.826   1.842
48841W        W 8102  22.502  31.962   4.280
48842W        W 8103  24.536  27.473   1.402
48843W        W 8104   4.894  22.211   0.864
48844W        W 8105  29.474  11.658   0.337
48845W        W 8106  31.595  18.202  13.064
48846W        W 8107  26.558  22.135  13.913
48847W        W 8108  40.968  19.120  11.530
48848W        W 8109   1.849   2.904  14.359
48849W        W 8110  44.955  18.113   2.360
48850W        W 8111  29.636  17.639   1.364
48851W        W 8112   0.488  32.450  10.474
48852W        W 8113   0.406  34.897   1.362
48853W        W 8114   9.283  13.680   0.302
48854W        W 8115   8.851   5.366   0.776
48855W        W 8116  38.515   9.257   4.194
48856W        W 8117  43.288  36.459  13.447
48857W        W 8118   4.909   1.353  11.968
48858W        W 8119  18.112  30.147   1.718
48859W        W 8120  29.990  24.089  13.546
48860W        W 8121  37.886  17.786   4.643
48861W        W 8122  34.874  38.422   2.865
48862W        W 8123  10.791  23.079  12.011
48863W        W 8124  33.550   3.718  13.888
48864W        W 8125   6.678  39.039  14.965
48865W        W 8126  40.307   2.387  12.523
48866W        W 8127   1.963  31.539  12.551
48867W        W 8128  22.203  42.361  14.374
48868W        W 8129  44.284  25.084  12.354
48869W        W 8130  27.075  43.008   3.740
48870W        W 8131  40.544  16.096   2.684
48871W        W 8132   0.963  30.438  11.473
48872W        W 8133  10.852  19.252   2.291
48873W        W 8134   6.875  19.667   4.234
48874W        W 8135  24.231  39.932  10.408
48875W        W 8136  18.654   1.248   3.154
48876W        W 8137  13.339  23.094  10.907
48877W        W 8138  10.656  15.249  12.402
48878W        W 8139  37.067  43.273  11.933
48879W        W 8140   3.274  43.311  14.307
48880W        W 8141  35.530   8.723  13.432
48881W        W 8142  15.266  23.141   2.724
48882W        W 8143  43.924   2.240   2.371
48883W        W 8144  18.662  35.920   4.683
48884W        W 8145  43.465   9.855   4.603
48885W        W 8146   7.281  15.612  13.959
48886W        W 8147  15.311  19.720   9.584
48887W        W 8148  17.769  44.998  13.058
48888W        W 8149  37.068   8.760   4.603
48889W        W 8150   2.830  26.021  14.429
48890W        W 8151  10.200  10.297  13.521
48891W        W 8152  14.340   0.772  11.968
48892W        W 8153  24.591  44.309   1.791
48893W        W 8154   3.876  27.561   3.311
48894W        W 8155   2.471  31.949  13.958
48895W        W 8156   7.837  20.764  13.857
48896W        W 8157  25.175  28.632   1.405
48897W        W 8158  32.983  39.421  11.525
48898W        W 8159   2.870  22.211  14.962
48899W        W 8160  16.632   9.378   4.297
48900W        W 8161   2.232  31.487  12.903
48901W        W 8162  25.966  29.116  10.951
48902W        W 8163   2.803  28.617  13.970
48903W        W 8164   5.405  25.190  11.949
48904W        W 8165   3.398  38.504  13.948
48905W        W 8166  40.810  16.601  11.926
48906W        W 8167  13.253   6.285  11.429
48907W        W 8168  38.386  20.211   0.855
48908W        W 8169   4.408  25.596  11.414
48909W        W 8170  21.227  24.098  13.043
48910W        W 8171  26.045   0.338   2.794
48911W        W 8172  22.243  13.169  10.905
48912W        W 8173   5.321  30.547  11.596
48913W        W 8174  33.594   3.834  12.982
48914W        W 8175  24.641  35.051   3.741
48915W        W 8176   2.438  13.727   0.408
48916W        W 8177  26.171  43.796  13.464
48917W        W 8178  16.584   2.723   0.876
48918W        W 8179  13.764  43.486   0.361
48919W        W 8180  27.572  20.625   2.803
48920W        W 8181   3.941  23.208   4.682
48921W        W 8182  43.968  21.231   3.179
48922W        W 8183  43.328  40.967  12.489
48923W        W 8184   0.421  22.680  11.074
48924W        W 8185  10.853   1.961  14.968
48925W        W 8186   3.868  15.098  12.962
48926W        W 8187  17.631  21.261   1.443
48927W        W 8188  11.816   1.381  14.929
48928W        W 8189  29.598   3.375   5.183
48929W        W 8190  12.780  27.510  11.527
48930W        W 8191  30.586  29.043  13.876
48931W        W 8192  20.734  41.507   4.836
48932W        W 8193   0.811  24.650   1.243
48933W        W 8194  23.241  41.999  12.459
48934W        W 8195  40.041  12.140  13.489
48935W        W 8196  41.909  14.263  12.571
48936W        W 8197  41.895  41.387   2.239
48937W        W 8198  33.894  11.325   0.321
48938W        W 8199  19.774  31.943  11.069
48939W        W 8200  11.861  40.511  10.479
48940W        W 8201   3.431  35.917  14.863
48941W        W 8202  17.288  21.651  14.428
48942W        W 8203  10.856  20.229  11.965
48943W        W 8204  40.334   8.186   4.737
48944W        W 8205  17.105   5.815  10.480
48945W        W 8206   3.880  18.120  10.963
48946W        W 8207   2.790   0.766  12.015
48947W        W 8208  26.031  37.423   2.690
48948W        W 8209  37.867  12.684  12.982
48949W        W 8210  28.121  27.025  11.107
48950W        W 8211  28.982  13.153   0.935
48951W        W 8212  22.527  40.540   3.813
48952W        W 8213  31.627  10.725   2.397
48953W        W 8214  44.373  27.490   0.812
48954W        W 8215  28.096  37.578   1.811
48955W        W 8216   4.298   5.913  12.938
48956W        W 8217  16.158  23.530   2.836
48957W        W 8218   3.850  15.735  12.897
48958W        W 8219  43.494  43.315   1.365
48959W        W 8220  13.844  44.312  11.993
48960W        W 8221  39.322  24.134   4.118
48961W        W 8222  15.801  11.828  12.988
48962W        W 8223  43.007   4.918   5.127
48963W        W 8224  20.603   7.291   3.670
48964W        W 8225  32.473  43.379  10.642
48965W        W 8226  33.412   3.878   1.762
48966W        W 8227  35.525  34.942   0.927
48967W        W 8228  27.109  19.656   1.907
48968W        W 8229   0.920  40.464  10.968
48969W        W 8230   7.864  12.280   4.181
48970W        W 8231  40.017   8.894  11.109
48971W        W 8232  15.720  36.464  14.991
48972W        W 8233  14.773  17.569   3.815
48973W        W 8234  25.615  15.173   2.808
48974W        W 8235  22.095  29.976   4.617
48975W        W 8236   3.272   2.725   3.666
48976W        W 8237  34.975  32.400   3.270
48977W        W 8238   5.757  19.625  14.922
48978W        W 8239  29.127  40.845  10.513
48979W        W 8240  28.444  30.587  10.906
48980W        W 8241  43.878  42.433   4.166
48981W        W 8242  23.660  18.566  12.504
48982W        W 8243  41.811  10.352  13.996
48983W        W 8244  35.373  28.972   4.152
48984W        W 8245  27.077  29.150  13.482
48985W        W 8246   1.920  37.453  10.990
48986W        W 8247  18.128  38.952  13.892
48987W        W 8248  30.417  11.790  13.897
48988W        W 8249  15.797  15.812   0.873
48989W        W 8250   9.883  19.571   3.184
48990W        W 8251  27.195  15.313   4.343
48991W        W 8252  21.597  17.227   1.894
48992W        W 8253  35.405  13.629  14.497
48993W        W 8254  21.198  34.403  14.502
48994W        W 8255  23.223  10.723   2.876
48995W        W 8256   2.258  38.869  14.806
48996W        W 8257  24.176  29.010  13.502
48997W        W 8258  15.624  13.162   0.746
48998W        W 8259  16.793  20.194   2.216
48999W        W 8260  40.389   8.899  11.565
49000W        W 8261  26.106  42.962   3.247
49001W        W 8262  29.599  40.978  12.005
49002W        W 8263  14.594  13.305  11.907
49003W        W 8264  21.174  22.027  14.301
49004W        W 8265   7.888  36.427   4.688
49005W        W 8266  25.574  26.013  11.561
49006W        W 8267   7.173  38.537   3.371
49007W        W 8268  44.317  38.335   0.801
49008W        W 8269  22.123  13.124   4.136
49009W        W 8270  40.876  32.051  13.845
49010W        W 8271  22.122   4.746   0.432
49011W        W 8272   0.964   9.195  10.553
49012W        W 8273  30.072  23.226   0.904
49013W        W 8274  25.657  27.987   2.342
49014W        W 8275  37.863  42.350   3.833
49015W        W 8276  10.800  24.482  12.371
49016W        W 8277  39.499  42.793  14.900
49017W        W 8278  37.020  31.539  13.544
49018W        W 8279  11.233  11.173   9.986
49019W        W 8280  44.468  16.780   1.261
49020W        W 8281  24.134   1.435  14.774
49021W        W 8282   1.297  40.384   2.744
49022W        W 8283  13.193  24.060   2.877
49023W        W 8284   5.892  27.673   0.377
49024W        W 8285   3.800  25.013  11.565
49025W        W 8286   7.373   2.889   0.246
49026W        W 8287   5.398  41.905   4.801
49027W        W 8288   1.797  22.528   2.812
49028W        W 8289  38.348  21.156  12.084
49029W        W 8290   6.813   3.314   1.277
49030W        W 8291  39.810  17.250  14.349
49031W        W 8292  11.172  20.209  13.918
49032W        W 8293  26.542   5.789  12.568
49033W        W 8294   1.854   8.790  11.583
49034W        W 8295  44.464  12.824  12.411
49035W        W 8296  34.517  35.470  13.511
49036W        W 8297   0.836   7.348  12.866
49037W        W 8298  20.743  25.531   2.250
49038W        W 8299  26.699  44.814  11.533
49039W        W 8300  23.173  34.463  11.548
49040W        W 8301  15.647  29.574  12.431
49041W        W 8302   8.743  29.559   1.216
49042W        W 8303  40.380   2.426   4.285
49043W        W 8304   5.703  24.028  13.906
49044W        W 8305   1.766  15.092  13.350
49045W        W 8306  37.954  16.764   3.370
49046W        W 8307  32.583  42.290   2.345
49047W        W 8308  15.750  17.771  10.952
49048W        W 8309  24.196  14.648  14.915
49049W        W 8310   5.690  32.119  12.859
49050W        W 8311  13.134  25.051  12.900
49051W        W 8312  38.870  28.496  10.427
49052W        W 8313  44.951  27.119  11.017
49053W        W 8314  42.302  10.336  13.397
49054W        W 8315  37.897   4.788   1.933
49055W        W 8316  42.775  18.116  14.766
49056W        W 8317  26.010  25.507   1.440
49057W        W 8318  16.705   4.362  12.547
49058W        W 8319  29.073  11.835   0.351
49059W        W 8320  32.025  43.874  10.915
49060W        W 8321  21.067  39.005   0.410
49061W        W 8322  39.470  20.165   4.146
49062W        W 8323  27.980  32.939   0.916
49063W        W 8324  25.974  28.491  12.527
49064W        W 8325  16.810  38.030   4.796
49065W        W 8326  31.627  19.111   2.248
49066W        W 8327  23.618   7.834  14.409
49067W        W 8328  14.165   9.307   2.254
49068W        W 8329  20.543  25.030  12.502
49069W        W 8330  31.632  25.477  14.300
49070W        W 8331   3.908   6.420  11.884
49071W        W 8332  10.290  41.334  13.416
49072W        W 8333  10.668  18.699  11.415
49073W        W 8334  36.926  21.616  12.907
49074W        W 8335  23.043  15.260  13.941
49075W        W 8336  35.033  27.690   3.339
49076W        W 8337  27.011   3.293   5.270
49077W        W 8338   7.803  39.030   1.916
49078W        W 8339  32.908  34.437   0.794
49079W        W 8340  27.134  17.065  13.528
49080W        W 8341   9.786  35.529   2.707
49081W        W 8342  17.626  37.560  12.983
49082W        W 8343  44.419  41.986   3.700
49083W        W 8344  25.633  26.517   2.415
49084W        W 8345  21.237  24.012  14.792
49085W        W 8346  38.048  15.684  13.981
49086W        W 8347  14.098  30.067   1.788
49087W        W 8348  28.065   7.712   4.170
49088W        W 8349  21.753   9.726  14.849
49089W        W 8350  21.567  20.643  13.912
49090W        W 8351  19.135   4.343   4.695
49091W        W 8352   3.302  22.630   2.319
49092W        W 8353  37.047  22.044   1.855
49093W        W 8354  44.391   3.331  11.923
49094W        W 8355  24.077  40.324  11.535
49095W        W 8356  42.490  27.083  10.480
49096W        W 8357   9.650  36.978   1.242
49097W        W 8358  42.903   3.740  11.052
49098W        W 8359  32.453  11.716  13.413
49099W        W 8360  19.750  23.616   4.164
49100W        W 8361  43.789   0.753   3.808
49101W        W 8362  30.086   7.718  13.478
49102W        W 8363   7.203  37.341  13.844
49103W        W 8364  31.417  26.623  13.911
49104W        W 8365  25.022  24.616   2.230
49105W        W 8366  12.832  44.865   0.726
49106W        W 8367  13.216  22.999   0.448
49107W        W 8368  35.515  10.171   3.249
49108W        W 8369  27.123  39.968   3.317
49109W        W 8370  37.051   1.961  14.803
49110W        W 8371  16.601   9.754  10.961
49111W        W 8372  28.021   8.183   0.370
49112W        W 8373  29.503   4.794  12.970
49113W        W 8374  38.468   8.883   0.773
49114W        W 8375  17.167  24.204  14.336
49115W        W 8376  27.047  40.951  10.996
49116W        W 8377  21.751  13.106   3.664
49117W        W 8378   9.390  43.829   4.254
49118W        W 8379  17.211  21.181  11.875
49119W        W 8380   9.379   9.844   9.558
49120W        W 8381  40.319  12.800  10.611
49121W        W 8382  42.978   9.778  12.563
49122W        W 8383  37.370  31.978  11.437
49123W        W 8384  40.358  12.704  10.901
49124W        W 8385  44.491  15.633  11.067
49125W        W 8386  28.595  37.464   3.798
49126W        W 8387   5.296  32.028  14.029
49127W        W 8388  25.128   4.915  11.495
49128W        W 8389  44.885  16.316  14.948
49129W        W 8390  19.693  16.656   0.871
49130W        W 8391  23.120  44.846   0.757
49131W        W 8392  43.944  19.647   2.300
49132W        W 8393  12.789  25.153  14.976
49133W        W 8394   3.266  11.371  12.965
49134W        W 8395   2.458  39.855   2.329
49135W        W 8396   5.859   0.913   1.930
49136W        W 8397  39.524  27.957   1.929
49137W        W 8398  26.161  27.625  12.429
49138W        W 8399  18.098  33.082   0.250
49139W        W 8400  33.112   7.216  14.479
49140W        W 8401  37.003  15.797   2.881
49141W        W 8402  32.954  13.733   3.794
49142W        W 8403  12.750  16.228  10.037
49143W        W 8404   0.806  10.369  14.778
49144W        W 8405  36.466  14.810  14.804
49145W        W 8406  28.480  18.053  10.935
49146W        W 8407  34.469  20.561   4.218
49147W        W 8408  17.152  28.653  12.896
49148W        W 8409   2.740  15.093   0.473
49149W        W 8410  25.025  39.834   3.345
49150W        W 8411  32.021  43.496   3.634
49151W        W 8412  38.017  36.460   3.845
49152W        W 8413  37.950  27.113   2.265
49153W        W 8414  10.383  30.547   2.395
49154W        W 8415  13.214  19.741   5.092
49155W        W 8416   8.380   5.898   1.219
49156W        W 8417   8.862  35.548   3.185
49157W        W 8418   7.909  19.215  13.062
49158W        W 8419   4.939  26.682   1.872
49159W        W 8420  28.681  20.763  12.422
49160W        W 8421   0.920  41.819  14.899
49161W        W 8422  16.119  40.391   1.846
49162W        W 8423   2.353  11.177  14.353
49163W        W 8424  44.488  35.934  11.511
49164W        W 8425  27.082  14.780  14.281
49165W        W 8426   0.415  31.012  11.381
49166W        W 8427  10.204  31.991  11.107
49167W        W 8428  13.791  43.473   2.344
49168W        W 8429   6.758   3.721  12.501
49169W        W 8430  37.973  12.341   3.204
49170W        W 8431   1.434   8.218   0.297
49171W        W 8432  44.010  11.207   2.743
49172W        W 8433  12.620  12.266  10.139
49173W        W 8434  30.621  44.484  14.808
49174W        W 8435  32.616   0.411   2.236
49175W        W 8436   0.425  21.661   4.778
49176W        W 8437  23.996  40.379  12.870
49177W        W 8438  32.467  25.566   2.888
49178W        W 8439  27.623   6.824  13.522
49179W        W 8440  23.188  25.970  13.372
49180W        W 8441  25.048  38.489   4.296
49181W        W 8442  38.898  23.614  12.570
49182W        W 8443  32.473   0.325  11.549
49183W        W 8444  11.835   7.189  11.603
49184W        W 8445  32.891  17.300  13.427
49185W        W 8446  28.662   3.836  11.572
49186W        W 8447   1.309   6.863  13.322
49187W        W 8448  35.360  12.789  14.336
49188W        W 8449   0.280   5.836  10.413
49189W        W 8450  23.558  36.934   2.367
49190W        W 8451  41.841  28.550  12.942
49191W        W 8452  29.031  38.351  13.321
49192W        W 8453  12.754  18.186  13.491
49193W        W 8454  19.572  21.572   0.476
49194W        W 8455  36.473   4.894  12.372
49195W        W 8456  39.950  18.699   1.363
49196W        W 8457  34.895   2.741   4.124
49197W        W 8458  22.035  19.726   2.778
49198W        W 8459  22.228  36.952  13.421
49199W        W 8460  39.027  16.072   0.267
49200W        W 8461  40.982  15.799  11.985
49201W        W 8462  19.091  32.954   2.735
49202W        W 8463  36.001  36.007  14.991
49203W        W 8464  28.955  27.993   0.960
49204W        W 8465  21.532  41.488   0.254
49205W        W 8466   5.763   3.240  11.043
49206W        W 8467  32.125  23.157   4.138
49207W        W 8468   0.898   7.370  12.466
49208W        W 8469  17.688   3.237  12.426
49209W        W 8470  36.078  33.927  10.580
49210W        W 8471  17.218   3.461   3.758
49211W        W 8472  16.281   3.356   2.798
49212W        W 8473  14.162  32.615  12.351
49213W        W 8474  23.076  21.722   1.742
49214W        W 8475  25.609  34.469   4.197
49215W        W 8476  40.937  24.111   3.221
49216W        W 8477  22.681  29.648  11.949
49217W        W 8478  32.474  18.289  10.888
49218W        W 8479   8.858  15.622   2.293
49219W        W 8480  36.843   7.413  11.082
49220W        W 8481  26.988  18.617   1.415
49221W        W 8482  26.195   9.776  14.997
49222W        W 8483  14.182  31.474  14.880
49223W        W 8484  19.636  10.649  12.001
49224W        W 8485   6.728  19.738  10.437
49225W        W 8486  40.803  43.804  10.588
49226W        W 8487   6.908  40.002  14.897
49227W        W 8488  41.367   9.701   0.886
49228W        W 8489  41.333  17.244  14.871
49229W        W 8490   9.745  22.114  13.353
49230W        W 8491  13.170  16.203  11.391
49231W        W 8492  17.772  24.676   0.833
49232W        W 8493  42.848  15.271   4.731
49233W        W 8494  42.459  44.955  11.408
49234W        W 8495   4.744  23.692   4.611
49235W        W 8496  35.902  19.104  14.873
49236W        W 8497  32.122  15.113   1.416
49237W        W 8498  20.208  43.905  13.009
49238W        W 8499  24.535  32.920   2.212
49239W        W 8500  32.534   0.771   4.634
49240W        W 8501   2.244  30.968  14.868
49241W        W 8502  27.070  43.380   3.371
49242W        W 8503   8.361  18.234  14.876
49243W        W 8504   2.341  18.166   2.206
49244W        W 8505  44.464   6.873  13.358
49245W        W 8506  21.144  15.614  13.801
49246W        W 8507  30.607  33.507  10.118
49247W        W 8508  13.636  16.235   0.878
49248W        W 8509  28.593   9.725  14.465
49249W        W 8510   0.852  41.873   2.300
49250W        W 8511  33.985  40.508  13.343
49251W        W 8512   5.312  43.982   4.770
49252W        W 8513   5.368   3.249  11.114
49253W        W 8514  40.908  44.488  14.921
49254W        W 8515  12.300  11.728   0.843
49255W        W 8516  14.279  28.646  12.875
49256W        W 8517   8.303  35.899   2.395
49257W        W 8518   7.843   3.838   3.151
49258W        W 8519  23.218  37.083   4.689
49259W        W 8520  41.340  24.141  11.548
49260W        W 8521  42.978  37.899  10.546
49261W        W 8522  33.083  41.989   0.387
49262W        W 8523  19.675  39.314   4.181
49263W        W 8524  37.523  18.205  12.575
49264W        W 8525  14.116  21.590   4.230
49265W        W 8526   7.755  32.889   0.456
49266W        W 8527  25.216  26.675   1.306
49267W        W 8528  12.854  40.545   3.282
49268W        W 8529  42.775  35.087  14.308
49269W        W 8530  28.015   2.965   4.630
49270W        W 8531  31.494   4.408   4.246
49271W        W 8532  16.090  39.929   0.842
49272W        W 8533  36.995  21.167  11.875
49273W        W 8534  14.606  13.269   0.391
49274W        W 8535  31.593  12.336  14.825
49275W        W 8536  17.236   0.926   0.822
49276W        W 8537  24.060   9.325  14.030
49277W        W 8538  28.145   8.346   4.759
49278W        W 8539   3.815  20.115  10.609
49279W        W 8540   9.183   4.399   1.307
49280W        W 8541   9.685   7.765  13.848
49281W        W 8542  33.616   0.853  12.472
49282W        W 8543  11.160  19.049  10.623
49283W        W 8544   6.823  12.274  10.574
49284W        W 8545  12.843  11.715   2.863
49285W        W 8546  29.992  41.856   1.738
49286W        W 8547  33.562  44.444   4.692
49287W        W 8548  41.855  21.251  14.948
49288W        W 8549  34.036  22.995  13.384
49289W        W 8550  16.101   8.254  12.388
49290W        W 8551  14.637  31.568  13.502
49291W        W 8552   1.467   4.349  12.479
49292W        W 8553  10.807  37.888  12.520
49293W        W 8554  14.671  12.242  12.846
49294W        W 8555  17.731  24.137   3.156
49295W        W 8556  19.182  35.503   2.867
49296W        W 8557  42.020  37.369   2.313
49297W        W 8558  17.670   1.248  12.382
49298W        W 8559  23.735  11.341   4.125
49299W        W 8560  15.689  22.216   3.669
49300W        W 8561  27.099  34.609   2.705
49301W        W 8562  42.396  24.504  14.020
49302W        W 8563  28.001  30.057  14.990
49303W        W 8564  42.293   1.851  14.893
49304W        W 8565  12.854  20.590  11.068
49305W        W 8566  16.083   6.254   2.349
49306W        W 8567   9.665  20.579   3.193
49307W        W 8568  11.786  11.138  13.469
49308W        W 8569  36.084   9.262  12.877
49309W        W 8570  10.261  43.373   1.307
49310W        W 8571   8.315  38.563  12.522
49311W        W 8572   0.443  41.972   2.183
49312W        W 8573  43.949  22.131  12.504
49313W        W 8574  18.584  25.008  13.492
49314W        W 8575  36.416  29.000  11.409
49315W        W 8576   0.343   4.828   1.726
49316W        W 8577  16.261  34.370   4.230
49317W        W 8578   8.229  41.869   0.341
49318W        W 8579  28.609  35.502   1.230
49319W        W 8580   6.815  34.093  12.849
49320W        W 8581   6.898  25.548   1.260
49321W        W 8582  30.649  33.126   3.379
49322W        W 8583  27.463  16.804  12.473
49323W        W 8584  32.066  18.723   3.835
49324W        W 8585  41.957  34.554   4.734
49325W        W 8586  29.937  27.549  13.511
49326W        W 8587  13.227  28.639   5.150
49327W        W 8588  32.471   1.389   0.272
49328W        W 8589   9.238  19.210   2.829
49329W        W 8590  10.697  12.719   3.802
49330W        W 8591  44.996  17.091  13.424
49331W        W 8592  20.531   9.671   2.395
49332W        W 8593  11.840   7.324  14.279
49333W        W 8594   4.235   0.980   2.245
49334W        W 8595   7.870  27.530   4.178
49335W        W 8596  40.965  15.670   0.430
49336W        W 8597  27.961  37.889  11.447
49337W        W 8598  37.075  44.282  14.327
49338W        W 8599  15.739   0.980   1.366
49339W        W 8600  22.656   9.239   1.352
49340W        W 8601   4.827  43.279  14.291
49341W        W 8602  27.178  19.041  11.906
49342W        W 8603   7.756   9.778   4.114
49343W        W 8604   0.907  38.376   4.644
49344W        W 8605   2.834  10.181   4.198
49345W        W 8606  26.082  40.951  14.991
49346W        W 8607   7.355  24.495   4.753
49347W        W 8608  11.865  15.616   2.202
49348W        W 8609  29.161  39.970   4.631
49349W        W 8610  16.673  40.015  14.968
49350W        W 8611  12.681  39.856   2.310
49351W        W 8612  16.704   4.758  10.507
49352W        W 8613  42.029  36.452  12.446
49353W        W 8614  36.096  24.017  12.347
49354W        W 8615  11.797  39.844  10.608
49355W        W 8616  43.342  13.125  12.516
49356W        W 8617   4.299   4.440   0.334
49357W        W 8618  35.006  13.323   1.336
49358W        W 8619   6.865  36.489  12.995
49359W        W 8620  25.219  21.716   2.874
49360W        W 8621  10.139   6.242  12.444
49361W        W 8622  27.609   2.885   3.745
49362W        W 8623   8.666  27.989   1.753
49363W        W 8624  26.569   2.874  12.042
49364W        W 8625  39.966  38.877  11.574
49365W        W 8626   8.226  40.519   3.717
49366W        W 8627   1.460  17.155  10.450
49367W        W 8628  13.299  17.757  14.883
49368W        W 8629  43.958  29.130  11.577
49369W        W 8630   3.815  21.746  14.022
49370W        W 8631  17.593  14.795  14.293
49371W        W 8632  21.544  32.636   0.850
49372W        W 8633   9.385   8.758  14.864
49373W        W 8634  24.213  11.686   5.130
49374W        W 8635   3.461  30.491  12.834
49375W        W 8636  32.133  11.806  10.920
49376W        W 8637  23.568  42.282  14.302
49377W        W 8638  42.784  37.857   2.771
49378W        W 8639  40.483  29.579   2.227
49379W        W 8640   5.693  20.536   2.808
49380W        W 8641  28.468  10.235   3.676
49381W        W 8642   9.732  39.356  11.545
49382W        W 8643  31.552   0.381  12.453
49383W        W 8644  37.833   0.356  12.414
49384W        W 8645  36.350  16.720   2.751
49385W        W 8646  11.830  12.338  10.889
49386W        W 8647  25.700  11.790  14.357
49387W        W 8648  41.882  24.174   0.343
49388W        W 8649  24.221  12.660   3.767
49389W        W 8650  20.198  30.586  12.832
49390W        W 8651  24.177  39.941   9.982
49391W        W 8652  43.975   2.858   2.210
49392W        W 8653   7.408  12.696  11.958
49393W        W 8654  42.021  22.607  13.385
49394W        W 8655  34.430  22.013   3.164
49395W        W 8656  43.441   3.730   4.129
49396W        W 8657  15.725  18.585   0.785
49397W        W 8658  29.495  27.044  13.037
49398W        W 8659   4.367  32.028   5.231
49399W        W 8660  37.555   9.347  13.401
49400W        W 8661  23.985  26.639   2.901
49401W        W 8662  10.752  42.843   2.854
49402W        W 8663  25.488  26.164  13.032
49403W        W 8664  12.137   1.945   1.860
49404W        W 8665   7.378  42.527   0.410
49405W        W 8666  12.806  18.160  14.832
49406W        W 8667  12.679  16.807  14.357
49407W        W 8668   7.871  37.982  12.867
49408W        W 8669  22.510  23.552  11.970
49409W        W 8670  33.978  27.546   0.306
49410W        W 8671   2.273  12.130  11.054
49411W        W 8672  35.566  40.509   1.906
49412W        W 8673   2.454   7.840  13.386
49413W        W 8674  38.891   6.323   1.380
49414W        W 8675  44.471  41.345  10.497
49415W        W 8676  15.103  36.530  14.332
49416W        W 8677  43.853  37.952  14.430
49417W        W 8678  41.878  18.742   1.299
49418W        W 8679  38.392  12.309   2.234
49419W        W 8680   9.159  11.179   4.170
49420W        W 8681  43.833  44.872  12.459
49421W        W 8682  44.351  26.512  14.945
49422W        W 8683  37.496   7.776  12.355
49423W        W 8684   2.288   7.317   3.790
49424W        W 8685  23.544  38.458  14.327
49425W        W 8686  17.752  33.923   2.203
49426W        W 8687   7.666   0.863  10.426
49427W        W 8688   7.738  38.401  11.583
49428W        W 8689  20.250   2.905   1.868
49429W        W 8690  34.373  42.816  13.024
49430W        W 8691  24.214  34.947   3.836
49431W        W 8692  16.079  32.935   1.439
49432W        W 8693   3.743   2.366   4.653
49433W        W 8694  43.801  35.101   2.742
49434W        W 8695  23.630  19.539   2.359
49435W        W 8696  28.951  19.732  13.464
49436W        W 8697  40.898  18.253  10.955
49437W        W 8698  25.660  33.458  10.032
49438W        W 8699  19.041  14.097   1.927
49439W        W 8700  37.352  28.021  11.489
49440W        W 8701  22.246   4.239  12.079
49441W        W 8702  42.847   2.304   0.275
49442W        W 8703   6.343   3.263   3.648
49443W        W 8704  22.153  19.047  12.953
49444W        W 8705  33.563  30.131   0.752
49445W        W 8706  29.555   9.355   1.702
49446W        W 8707  20.542  23.589  13.847
49447W        W 8708  32.526  28.443  10.620
49448W        W 8709   3.866  34.407  13.534
49449W        W 8710  27.046  17.684   1.423
49450W        W 8711  23.655  24.016   5.126
49451W        W 8712  19.771  22.092  10.999
49452W        W 8713  15.712  36.017  10.988
49453W        W 8714  38.966   4.923  12.865
49454W        W 8715   2.378  14.185   2.339
49455W        W 8716  11.688   0.744   4.663
49456W        W 8717  40.998   7.268  10.900
49457W        W 8718  33.543  21.705  10.477
49458W        W 8719  27.131  26.180   0.892
49459W        W 8720  24.641  39.526   4.674
49460W        W 8721   5.795  37.898  14.458
49461W        W 8722  25.593  16.635   1.771
49462W        W 8723  16.224  17.567   0.941
49463W        W 8724  41.343  10.186  14.831
49464W        W 8725   1.307  38.451   3.372
49465W        W 8726  18.588  43.470   3.290
49466W        W 8727  20.271  15.641  10.065
49467W        W 8728  23.549  21.673   1.748
49468W        W 8729   3.352  29.623  13.502
49469W        W 8730  32.458   9.812   0.255
49470W        W 8731  23.502  44.766  14.847
49471W        W 8732  33.009   7.392   0.343
49472W        W 8733  20.035  22.600   0.811
49473W        W 8734  36.050  31.068  12.855
49474W        W 8735  16.764  42.943  13.817
49475W        W 8736  35.560   6.689  11.388
49476W        W 8737  25.060  13.179  12.987
49477W        W 8738   7.192  36.551   4.265
49478W        W 8739   3.345  26.108   3.837
49479W        W 8740  14.805  25.016   0.820
49480W        W 8741  11.764  34.042  14.930
49481W        W 8742  10.763  44.872  10.496
49482W        W 8743  38.485  30.565   4.126
49483W        W 8744   2.392  36.493  12.490
49484W        W 8745  22.158  13.210  13.025
49485W        W 8746  13.650  12.835  11.919
49486W        W 8747   6.874  33.952  14.925
49487W        W 8748  27.637  26.004  12.569
49488W        W 8749  38.044  26.700   1.342
49489W        W 8750   3.219   5.422  13.447
49490W        W 8751  39.448  18.549  13.793
49491W        W 8752  31.137  17.153  14.878
49492W        W 8753  30.578   2.720   1.337
49493W        W 8754  42.952  15.626   2.691
49494W        W 8755  12.318   5.894   9.574
49495W        W 8756  25.127  15.716  10.434
49496W        W 8757   4.805  25.095  12.008
49497W        W 8758  12.758  34.589   2.845
49498W        W 8759  38.408  34.564  11.588
49499W        W 8760  33.564  30.957  10.929
49500W        W 8761  10.366  12.195   2.760
49501W        W 8762  40.935  44.479   4.343
49502W        W 8763  20.560   2.445   0.797
49503W        W 8764  39.505  29.513  11.023
49504W        W 8765  21.105  12.164  12.378
49505W        W 8766  28.581  37.916  12.490
49506W        W 8767  38.069  32.097   2.222
49507W        W 8768   1.955   8.356  10.495
49508W        W 8769  19.256  13.664  10.560
49509W        W 8770   6.677  18.567   2.410
49510W        W 8771  30.586   8.827  12.376
49511W        W 8772  43.823  12.702   3.279
49512W        W 8773  17.616  27.005   1.270
49513W        W 8774  17.561   0.770  12.054
49514W        W 8775  43.795  27.958   1.271
49515W        W 8776  31.008   6.363  11.585
49516W        W 8777  34.395  37.482   2.678
49517W        W 8778  14.652   6.871  10.989
49518W        W 8779  16.090   2.436   1.430
49519W        W 8780  15.294  14.714   3.720
49520W        W 8781   6.322   7.875  12.076
49521W        W 8782  12.675  39.022   2.784
49522W        W 8783   9.789   7.232   2.304
49523W        W 8784  29.126  15.098  11.989
49524W        W 8785  30.483  42.822  13.937
49525W        W 8786   8.242  33.619   4.279
49526W        W 8787  43.831   7.377   2.218
49527W        W 8788  25.098   9.151   5.115
49528W        W 8789  22.094  38.944   2.388
49529W        W 8790  30.459  30.083   2.678
49530W        W 8791  15.116  43.445   3.708
49531W        W 8792  11.297  18.778  14.876
49532W        W 8793  29.471  14.332   9.480
49533W        W 8794  11.846  34.467   3.308
49534W        W 8795  14.817  44.462  14.929
49535W        W 8796  31.450   6.257   1.829
49536W        W 8797   7.709  40.448  13.522
49537W        W 8798  18.268  13.665   4.642
49538W        W 8799  37.052   5.276   1.398
49539W        W 8800  25.028  18.678   0.744
49540W        W 8801   7.407  35.600   1.405
49541W        W 8802  25.031  33.983  11.965
49542W        W 8803  41.862  15.623   1.235
49543W        W 8804  14.600  27.576   1.237
49544W        W 8805   3.740  34.614   1.274
49545W        W 8806  11.778  29.938  12.406
49546W        W 8807   6.413  36.559  14.402
49547W        W 8808   4.240  15.162   4.736
49548W        W 8809  35.435  18.626  11.025
49549W        W 8810  12.286  10.808   0.333
49550W        W 8811  44.857  11.835  10.620
49551W        W 8812  27.185   6.703   4.327
49552W        W 8813  10.722  44.922   4.201
49553W        W 8814  16.184  20.650  12.574
49554W        W 8815  11.257  14.180  12.537
49555W        W 8816  35.438  28.950   0.387
49556W        W 8817  20.687  38.330   2.862
49557W        W 8818  36.066   4.811   2.335
49558W        W 8819  14.185  13.287  14.365
49559W        W 8820  33.617  18.662   4.134
49560W        W 8821  40.319  31.095  11.375
49561W        W 8822   5.926  17.287  13.436
49562W        W 8823   5.222  24.624   4.615
49563W        W 8824  30.004  34.079  12.509
49564W        W 8825  15.289   0.931  14.891
49565W        W 8826  11.802  19.183   2.795
49566W        W 8827  26.655  38.023  11.933
49567W        W 8828  39.913  18.555   3.656
49568W        W 8829  39.831  36.021   0.962
49569W        W 8830   6.341  11.221   2.378
49570W        W 8831   1.300   0.399  13.432
49571W        W 8832  20.161  33.998   4.645
49572W        W 8833  33.528  26.651  12.927
49573W        W 8834  37.472  44.782   0.960
49574W        W 8835  40.927  43.485   1.932
49575W        W 8836   3.903  13.144  14.879
49576W        W 8837  31.082  15.717   2.274
49577W        W 8838  11.230  16.207   2.833
49578W        W 8839   7.875  34.999   3.207
49579W        W 8840  25.636  22.713  11.091
49580W        W 8841  39.477  25.098   4.796
49581W        W 8842   8.868  37.569  12.348
49582W        W 8843   5.766  11.156  14.005
49583W        W 8844  34.389  14.637  10.960
49584W        W 8845  27.123  36.032   2.721
49585W        W 8846   5.261  12.182  12.890
49586W        W 8847  27.985  21.178  12.429
49587W        W 8848  31.094   6.916   4.131
49588W        W 8849  34.613  12.841  10.465
49589W        W 8850  37.839  33.480  12.541
49590W        W 8851  42.311  19.268  13.465
49591W        W 8852  32.517   6.773   0.274
49592W        W 8853  42.438  30.965   0.919
49593W        W 8854  29.963  13.267   2.412
49594W        W 8855   2.813  31.992  11.027
49595W        W 8856   5.391  30.478  10.595
49596W        W 8857  38.032  17.104   0.258
49597W        W 8858  28.992  43.275   2.711
49598W        W 8859   0.922  35.574   3.863
49599W        W 8860   7.342  17.792  11.472
49600W        W 8861  18.721  28.989  13.526
49601W        W 8862  42.799  42.922   1.795
49602W        W 8863  35.510   3.852  10.449
49603W        W 8864  19.750  27.562  14.997
49604W        W 8865  36.997  21.131   4.626
49605W        W 8866   2.949  15.110   1.291
49606W        W 8867   8.702  44.386  14.493
49607W        W 8868  12.806  18.723  12.084
49608W        W 8869   2.722  19.749  12.513
49609W        W 8870  36.873  12.649   2.894
49610W        W 8871  26.529  19.716   1.870
49611W        W 8872   6.372  41.517  14.030
49612W        W 8873  42.861  11.254   3.299
49613W        W 8874   3.234  44.968  13.438
49614W        W 8875  39.887  23.188   2.845
49615W        W 8876   4.303  32.581   0.800
49616W        W 8877   5.715  20.212   2.769
49617W        W 8878  42.022  43.785   2.194
49618W        W 8879  27.605  37.940  13.929
49619W        W 8880  31.127  41.491   9.933
49620W        W 8881   3.225  21.116   2.756
49621W        W 8882  32.989  13.777  13.886
49622W        W 8883  28.015  21.090   3.217
49623W        W 8884  42.794  21.191   2.295
49624W        W 8885  17.165  41.445  11.872
49625W        W 8886  13.697  26.488  13.792
49626W        W 8887  20.667  28.626   0.275
49627W        W 8888  13.608  38.047  11.589
49628W        W 8889  10.372  44.491  12.339
49629W        W 8890  17.645  43.765  12.504
49630W        W 8891  10.666  27.145   2.198
49631W        W 8892  37.381  32.505   4.623
49632W        W 8893  39.054   4.874   2.316
49633W        W 8894   0.915  13.782  11.986
49634W        W 8895  19.650  26.695  10.941
49635W        W 8896   0.784  18.096  11.018
49636W        W 8897   3.946   1.917  14.018
49637W        W 8898  12.644  28.961  13.804
49638W        W 8899  20.092  11.644   4.781
49639W        W 8900  43.855   4.244   0.483
49640W        W 8901  22.563  29.133   3.843
49641W        W 8902  23.620  17.290   2.793
49642W        W 8903  26.050  25.573   2.267
49643W        W 8904  35.595  29.961  12.396
49644W        W 8905  23.673  11.302  10.943
49645W        W 8906  40.368  36.441   4.120
49646W        W 8907  39.532   8.676  11.912
49647W        W 8908  10.706  13.243   2.350
49648W        W 8909  34.908   2.889   0.329
49649W        W 8910  36.396  39.866   2.387
49650W        W 8911  18.650  33.938  10.945
49651W        W 8912  30.055   6.747  14.976
49652W        W 8913  22.245   4.858   1.804
49653W        W 8914  29.574   5.862  11.605
49654W        W 8915  27.184   1.929   2.218
49655W        W 8916   0.755   3.783  14.394
49656W        W 8917   5.395  33.554   0.862
49657W        W 8918  23.736  29.457   2.803
49658W        W 8919  20.669  24.004  10.571
49659W        W 8920  24.992  44.285  13.916
49660W        W 8921  35.971  14.134  11.919
49661W        W 8922  15.654  31.923  12.045
49662W        W 8923  39.360   1.456   0.875
49663W        W 8924  28.940  30.147  11.403
49664W        W 8925  37.882  36.984   3.379
49665W        W 8926  32.995  38.855   9.650
49666W        W 8927  17.568  16.678  13.510
49667W        W 8928  15.801   4.888  11.944
49668W        W 8929   6.416  26.612   9.928
49669W        W 8930  24.150  39.011   3.247
49670W        W 8931  23.588  17.205   3.225
49671W        W 8932   8.788  15.207  14.442
49672W        W 8933  33.082  27.516   3.237
49673W        W 8934  30.034  11.166  11.921
49674W        W 8935   0.766  43.959  14.477
49675W        W 8936  29.939  11.240   2.292
49676W        W 8937   3.260  39.386  11.021
49677W        W 8938  33.602  34.037   4.149
49678W        W 8939  22.596  12.835  14.858
49679W        W 8940  27.636   1.819   0.392
49680W        W 8941  12.178   9.285  13.915
49681W        W 8942  13.289  13.236  14.312
49682W        W 8943  40.426  34.580  13.437
49683W        W 8944  33.448  21.072   0.783
49684W        W 8945  36.508   3.741   0.859
49685W        W 8946  19.631   6.225  13.511
49686W        W 8947   4.719  14.678   2.263
49687W        W 8948  31.003  29.129   0.828
49688W        W 8949   0.866  16.733   0.838
49689W        W 8950   7.720  43.930   3.744
49690W        W 8951  29.115  25.145  14.809
49691W        W 8952  14.768  15.164  11.538
49692W        W 8953  32.136  35.593  10.002
49693W        W 8954  40.916  13.613   1.429
49694W        W 8955  43.501  22.021   4.308
49695W        W 8956  20.176  33.401   4.706
49696W        W 8957  10.374  42.970  13.336
49697W        W 8958  10.728   0.901   4.812
49698W        W 8959  10.356   0.875  12.084
49699W        W 8960  11.338  19.568  11.489
49700W        W 8961  32.894  29.629  13.963
49701W        W 8962  41.852  36.036  13.843
49702W        W 8963  35.090  44.939  10.554
49703W        W 8964  44.911   4.909   3.371
49704W        W 8965   6.410   4.884   0.435
49705W        W 8966   7.844  31.597   2.775
49706W        W 8967  30.944  26.013  13.053
49707W        W 8968  31.009   9.201   3.764
49708W        W 8969   5.331  39.455   4.147
49709W        W 8970  37.344  40.956   4.750
49710W        W 8971  22.633  33.381  12.997
49711W        W 8972  11.802  38.411  12.457
49712W        W 8973   8.402  44.899  12.065
49713W        W 8974  37.066  32.964   0.297
49714W        W 8975  27.057  41.887  12.471
49715W        W 8976  30.080   0.818  11.515
49716W        W 8977  42.423  37.445  13.867
49717W        W 8978   3.852  34.414   3.225
49718W        W 8979  22.101  37.026   3.799
49719W        W 8980   1.825  24.045   3.334
49720W        W 8981  40.847  32.930   1.219
49721W        W 8982  31.976  12.802   1.762
49722W        W 8983   3.912  42.942  11.035
49723W        W 8984  34.438  43.777   4.612
49724W        W 8985  39.402  19.254  12.396
49725W        W 8986  15.611  27.941   3.271
49726W        W 8987  41.810  24.173  10.973
49727W        W 8988  12.796   9.652   2.251
49728W        W 8989  32.547   9.330   1.848
49729W        W 8990  24.057  44.779   1.705
49730W        W 8991  42.331  43.416  13.535
49731W        W 8992   8.334  42.847   2.304
49732W        W 8993   6.699  12.626   3.642
49733W        W 8994  27.951   1.819   3.774
49734W        W 8995  14.157  14.825   3.168
49735W        W 8996  35.537  33.442  11.944
49736W        W 8997  18.204  29.960  12.359
49737W        W 8998  25.488  28.478  11.553
49738W        W 8999   9.395  36.352   0.948
49739W        W 9000  44.858  38.900   3.758
49740W        W 9001  15.304  10.836  10.467
49741W        W 9002  26.497   4.780  11.479
49742W        W 9003  35.469  44.758  13.944
49743W        W 9004  37.354  35.997  10.610
49744W        W 9005  18.123  34.948  13.307
49745W        W 9006   7.715   3.843  13.053
49746W        W 9007  25.541   3.919  12.957
49747W        W 9008  35.591  36.384  11.047
49748W        W 9009  17.272  23.994   0.293
49749W        W 9010  29.968  17.119   0.957
49750W        W 9011  22.527  29.037  13.030
49751W        W 9012  14.134  18.564  14.873
49752W        W 9013   7.883  12.202   3.201
49753W        W 9014  28.955  24.503   1.889
49754W        W 9015  31.044   3.372   3.341
49755W        W 9016   3.274   4.333   4.678
49756W        W 9017   3.859  13.252  11.010
49757W        W 9018  33.973  28.545  13.410
49758W        W 9019  18.712  23.041  12.022
49759W        W 9020  11.230  16.595   0.386
49760W        W 9021  40.536  15.816   2.211
49761W        W 9022  42.934  11.705   0.882
49762W        W 9023  25.011   2.255   4.646
49763W        W 9024   7.814  12.719  10.930
49764W        W 9025   0.327  27.107  12.438
49765W        W 9026  15.084   2.903   0.734
49766W        W 9027  37.896   2.422   2.238
49767W        W 9028   8.654  35.522  12.511
49768W        W 9029  10.336  35.879  11.462
49769W        W 9030   7.307  37.441   4.144
49770W        W 9031   6.697  19.077   0.927
49771W        W 9032  16.705  43.984   1.305
49772W        W 9033   9.783  26.591   1.376
49773W        W 9034   5.412  44.944  10.452
49774W        W 9035  13.807  18.647  12.847
49775W        W 9036  33.437  35.877  14.282
49776W        W 9037  36.873  20.189   4.299
49777W        W 9038  40.344  37.996  13.318
49778W        W 9039  29.452  25.971  11.910
49779W        W 9040  25.652  35.555   1.910
49780W        W 9041  35.882   5.929  11.068
49781W        W 9042  27.688   7.324  10.424
49782W        W 9043   5.795  34.424  10.567
49783W        W 9044  36.073  27.477   0.957
49784W        W 9045   8.672  35.558  14.378
49785W        W 9046   5.825  37.846   4.310
49786W        W 9047  20.256  16.809  10.499
49787W        W 9048   4.778  33.923  10.642
49788W        W 9049  21.656   4.891  12.022
49789W        W 9050  37.421  15.688   0.263
49790W        W 9051  20.741  25.666  11.077
49791W        W 9052   0.974  20.168  11.085
49792W        W 9053   2.938  36.021  13.450
49793W        W 9054  40.932  30.164  13.351
49794W        W 9055  39.380  35.946  13.913
49795W        W 9056  23.227  43.932   4.825
49796W        W 9057  28.495  44.437  10.624
49797W        W 9058  38.862  37.441   2.373
49798W        W 9059  37.341  32.489  14.314
49799W        W 9060  12.149  32.044   1.715
49800W        W 9061  33.566  22.023  13.830
49801W        W 9062  20.624   2.831  14.763
49802W        W 9063  18.172  16.175   2.856
49803W        W 9064  22.011  12.264  12.528
49804W        W 9065  36.498  16.595  14.927
49805W        W 9066  19.669  40.044  12.475
49806W        W 9067  27.642  17.593   4.158
49807W        W 9068   3.715  15.782   3.215
49808W        W 9069  44.258  12.262  14.854
49809W        W 9070  33.480   7.744   3.680
49810W        W 9071  11.262   7.301  13.970
49811W        W 9072  24.628  37.886   2.374
49812W        W 9073  27.007  34.409  13.929
49813W        W 9074  40.957  22.213  11.377
49814W        W 9075   6.250  32.454   4.178
49815W        W 9076  27.132  13.228  13.308
49816W        W 9077  16.702  43.916  11.595
49817W        W 9078  24.160   2.258  12.934
49818W        W 9079   0.877   2.328   0.954
49819W        W 9080   1.803  15.251   3.277
49820W        W 9081   6.305  37.067   3.191
49821W        W 9082  44.969  10.213   0.410
49822W        W 9083  26.952  11.646  14.367
49823W        W 9084  13.839  26.963   1.377
49824W        W 9085  21.146  32.081   4.253
49825W        W 9086   0.352  13.185   1.375
49826W        W 9087  38.557  26.694   0.745
49827W        W 9088  30.967   3.342   0.317
49828W        W 9089  43.499  27.661  13.795
49829W        W 9090  43.487   8.217   1.277
49830W        W 9091  33.500  32.555   2.785
49831W        W 9092  44.489  40.831  11.092
49832W        W 9093  33.516  13.680  13.941
49833W        W 9094  32.944   9.677   3.708
49834W        W 9095  43.020  42.450  12.002
49835W        W 9096  20.710   3.945  11.450
49836W        W 9097  33.617  33.883   4.749
49837W        W 9098  39.009  43.891   2.840
49838W        W 9099   7.251  36.884   0.935
49839W        W 9100   5.697  33.514   1.407
49840W        W 9101  11.729  29.431   4.705
49841W        W 9102  43.961  20.069  12.550
49842W        W 9103  10.330   7.734   0.460
49843W        W 9104   3.759  13.775  12.559
49844W        W 9105  29.964  41.910  12.434
49845W        W 9106  11.725  12.819  14.293
49846W        W 9107   9.872  19.168   0.271
49847W        W 9108  11.269  10.866   2.886
49848W        W 9109  41.414  21.666  13.420
49849W        W 9110  10.808  39.971  11.020
49850W        W 9111  14.164  15.626  14.435
49851W        W 9112  34.531  38.002  11.519
49852W        W 9113  18.623  39.357  11.472
49853W        W 9114  33.504  37.504   1.703
49854W        W 9115  23.177  31.121  13.809
49855W        W 9116  19.707  40.336   3.666
49856W        W 9117   8.714  11.786  11.078
49857W        W 9118  35.942   1.929   4.757
49858W        W 9119  37.344  15.111  11.029
49859W        W 9120   8.723  26.644  14.957
49860W        W 9121  30.621   9.235  10.497
49861W        W 9122  36.970  44.800   2.713
49862W        W 9123  31.531  25.692   2.786
49863W        W 9124  41.397  11.209  14.287
49864W        W 9125   4.292  30.012  13.889
49865W        W 9126  39.842  33.126   2.189
49866W        W 9127  43.307  16.771   4.329
49867W        W 9128  34.948  19.176   4.612
49868W        W 9129  43.296  38.917   3.274
49869W        W 9130   1.476   9.702   3.759
49870W        W 9131  16.708   2.809   2.204
49871W        W 9132  42.788   5.902  10.046
49872W        W 9133  37.414  26.166  14.011
49873W        W 9134  15.627  22.627  13.516
49874W        W 9135   5.418  27.542   0.883
49875W        W 9136  42.006  32.047  10.570
49876W        W 9137  39.953  10.694   0.943
49877W        W 9138   7.792  29.945  12.923
49878W        W 9139  25.509  29.046  12.828
49879W        W 9140   7.375  10.208   1.216
49880W        W 9141   1.977  30.447  14.417
49881W        W 9142  15.591   2.901  14.979
49882W        W 9143  43.303  23.588  11.939
49883W        W 9144  30.989  13.208  10.513
49884W        W 9145  24.643  34.378   3.870
49885W        W 9146  28.950  16.629  12.905
49886W        W 9147   9.789  29.033  13.929
49887W        W 9148   6.320  44.335   2.720
49888W        W 9149   6.363  20.739  11.014
49889W        W 9150  44.437  33.467   1.393
49890W        W 9151  42.446   0.491   4.207
49891W        W 9152  14.097  44.913   2.722
49892W        W 9153  38.925   8.172  13.493
49893W        W 9154   7.817  23.212   2.702
49894W        W 9155  20.767  14.606   2.807
49895W        W 9156   2.866  35.052   2.805
49896W        W 9157   6.794  34.509  11.505
49897W        W 9158  12.734  27.154  13.945
49898W        W 9159  11.637  11.337  12.008
49899W        W 9160  23.567  22.625  10.638
49900W        W 9161  17.698  42.416   2.319
49901W        W 9162  19.738  25.635  10.449
49902W        W 9163  10.311  30.058   0.856
49903W        W 9164  10.278  30.067  11.495
49904W        W 9165   6.689  29.082  12.479
49905W        W 9166  15.733   3.825  11.902
49906W        W 9167  33.985  41.022  12.542
49907W        W 9168  12.129   9.826  14.846
49908W        W 9169  14.829  24.610   1.430
49909W        W 9170  19.232  44.841   4.277
49910W        W 9171  25.528  25.156  13.349
49911W        W 9172  16.191  32.968   5.697
49912W        W 9173  18.067  29.088  11.059
49913W        W 9174  38.976  11.175   3.689
49914W        W 9175  23.239  39.404   4.220
49915W        W 9176  30.437  32.395  14.959
49916W        W 9177  42.930   7.699  10.414
49917W        W 9178  39.382  38.989  13.382
49918W        W 9179  24.665  42.395   2.690
49919W        W 9180  41.507  36.466  10.466
49920W        W 9181  43.337  20.221   4.766
49921W        W 9182  25.050  39.350   0.899
49922W        W 9183  23.064  37.570   0.375
49923W        W 9184   2.335  10.191  14.475
49924W        W 9185  26.068   0.871  13.333
49925W        W 9186  13.318   5.772   0.943
49926W        W 9187   1.761  39.382  13.837
49927W        W 9188   7.368   6.838   1.929
49928W        W 9189  19.170  26.042   3.248
49929W        W 9190   3.791  37.037   3.199
49930W        W 9191  12.126  13.812   4.703
49931W        W 9192  40.537  19.050   4.171
49932W        W 9193  30.093  29.158   1.922
49933W        W 9194  41.028  27.608   1.933
49934W        W 9195   4.768  20.143   2.846
49935W        W 9196   5.695   4.879   1.772
49936W        W 9197  31.467  19.683  11.587
49937W        W 9198  39.915  38.365   5.114
49938W        W 9199   6.294  13.174  13.524
49939W        W 9200  39.005  42.302   0.424
49940W        W 9201  15.176  25.980   2.353
49941W        W 9202  39.060  15.689   4.336
49942W        W 9203  39.917  21.606   4.684
49943W        W 9204  28.492  33.884  14.413
49944W        W 9205  33.976  34.950  10.000
49945W        W 9206  34.552  24.487  12.012
49946W        W 9207   1.463   8.698   0.920
49947W        W 9208  14.788  28.012   0.759
49948W        W 9209  32.104  37.845   5.192
49949W        W 9210  12.182  39.876   3.176
49950W        W 9211   4.256  29.630   4.602
49951W        W 9212  30.412   7.727  13.521
49952W        W 9213  33.960  23.539   1.236
49953W        W 9214  22.131   2.384   1.217
49954W        W 9215  23.504   6.334  13.936
49955W        W 9216  28.014  38.387   1.448
49956W        W 9217   3.830  38.920   0.367
49957W        W 9218  25.129  38.384   3.808
49958W        W 9219  24.553  28.656   1.380
49959W        W 9220  30.918  32.581  13.527
49960W        W 9221  16.648   2.282  14.385
49961W        W 9222  41.796  24.992   0.276
49962W        W 9223  25.615   1.359   4.706
49963W        W 9224  33.961  39.037   1.730
49964W        W 9225  35.018  30.103  10.403
49965W        W 9226  13.686  22.587  14.024
49966W        W 9227  23.583  37.960  14.457
49967W        W 9228   9.257  41.427  10.508
49968W        W 9229  17.779  44.318  11.043
49969W        W 9230  14.726  40.482  13.883
49970W        W 9231  21.515   3.253  10.408
49971W        W 9232   6.866   5.327   0.770
49972W        W 9233  29.970   4.407  13.436
49973W        W 9234  38.978  17.212   0.274
49974W        W 9235   7.808  12.342  13.372
49975W        W 9236  28.462  10.317  11.422
49976W        W 9237  23.099  41.014  12.507
49977W        W 9238  26.109  11.851  13.308
49978W        W 9239  20.118  14.327  10.606
49979W        W 9240  17.088  31.491   4.787
49980W        W 9241  14.320  16.689  10.439
49981W        W 9242  31.568   0.885  14.843
49982W        W 9243  23.025  19.078  12.937
49983W        W 9244  35.569  18.255  14.912
49984W        W 9245  13.706  20.051   1.873
49985W        W 9246   0.917  43.000   1.928
49986W        W 9247  27.018  36.397   0.838
49987W        W 9248  26.994   6.895   4.804
49988W        W 9249  39.399  43.415   4.786
49989W        W 9250  27.610  25.134  12.831
49990W        W 9251   6.269  43.770   3.182
49991W        W 9252  34.572   6.763   0.818
49992W        W 9253  28.055  31.921   3.866
49993W        W 9254   0.334  37.838   1.264
49994W        W 9255  34.035   8.383   4.285
49995W        W 9256   2.850  17.129   0.467
49996W        W 9257  12.848   7.757   1.736
49997W        W 9258  38.486  10.302  14.950
49998W        W 9259  28.651  40.320   0.896
49999W        W 9260   4.418   0.890  10.411
50000W        W 9261  35.424  16.669  12.346
50001W        W 9262  13.692   4.407  13.431
50002W        W 9263   1.781   8.726   1.753
50003W        W 9264  30.006   8.817   2.281
50004W        W 9265   5.309  34.941   4.308
50005W        W 9266  41.391  34.067   3.770
50006W        W 9267   9.660   5.915   3.215
50007W        W 9268  43.780  27.602  10.929
50008W        W 9269   2.958  39.343  14.474
50009W        W 9270   1.445  27.472   1.726
50010W        W 9271  15.135  11.179  12.411
50011W        W 9272  20.628  19.742  12.943
50012W        W 9273  12.716  24.077   1.250
50013W        W 9274  21.166  39.882   3.804
50014W        W 9275  41.356  27.541  11.403
50015W        W 9276  24.080  26.054   4.336
50016W        W 9277  41.534  25.006   0.282
50017W        W 9278  25.070  37.075   2.699
50018W        W 9279  42.364  33.591  13.009
50019W        W 9280  35.544  22.152   2.825
50020W        W 9281   6.364  35.433   1.801
50021W        W 9282  13.135  40.052   1.888
50022W        W 9283  15.588   0.927   1.781
50023W        W 9284  21.527  21.727  12.517
50024W        W 9285   4.244  16.731  13.961
50025W        W 9286  43.399  43.447   0.406
50026W        W 9287  12.340  18.748  10.543
50027W        W 9288  36.965  39.412  11.888
50028W        W 9289  37.385  27.502  11.980
50029W        W 9290  32.411   1.884   1.374
50030W        W 9291  17.171  28.626   0.847
50031W        W 9292  32.989  15.735   1.770
50032W        W 9293  24.634  30.033  10.612
50033W        W 9294  43.402  19.572   2.415
50034W        W 9295  38.858  33.886  12.516
50035W        W 9296  41.389  34.099  10.403
50036W        W 9297  40.394  36.912  13.006
50037W        W 9298  27.560  15.226  11.909
50038W        W 9299  10.220  35.036  11.603
50039W        W 9300  26.626   4.731  14.334
50040W        W 9301  20.207   4.422   1.238
50041W        W 9302  18.071   9.877   4.662
50042W        W 9303   1.786   0.361   4.626
50043W        W 9304  38.570  10.739  14.465
50044W        W 9305  27.136  19.259  12.859
50045W        W 9306  28.122   4.367   1.279
50046W        W 9307  20.212   2.438  12.964
50047W        W 9308  29.132  27.103   4.782
50048W        W 9309   7.811  16.741  12.059
50049W        W 9310  31.979   2.247   4.322
50050W        W 9311   3.719  19.250  14.801
50051W        W 9312  36.371  20.105   2.830
50052W        W 9313   3.740  14.630  14.925
50053W        W 9314  25.145  23.035  14.385
50054W        W 9315  25.077  38.523  12.008
50055W        W 9316  19.562  15.794  13.543
50056W        W 9317  33.958   3.249  11.563
50057W        W 9318  15.578  28.467  12.517
50058W        W 9319  26.077  10.281   5.187
50059W        W 9320  24.032  33.954  11.043
50060W        W 9321  10.640  38.986   2.760
50061W        W 9322  16.759  14.207  14.821
50062W        W 9323  28.160  41.001   4.200
50063W        W 9324  26.475  25.705  11.561
50064W        W 9325  33.477  38.828  13.005
50065W        W 9326  26.615  32.499   2.215
50066W        W 9327   6.295  44.793  13.383
50067W        W 9328   9.690  34.085   2.371
50068W        W 9329   9.801  10.276   4.829
50069W        W 9330  33.050  33.042   1.903
50070W        W 9331   6.759  33.513  13.310
50071W        W 9332  44.011   0.872  10.461
50072W        W 9333   0.821  13.816   3.253
50073W        W 9334  37.415  21.046   3.341
50074W        W 9335  14.117   5.822   3.253
50075W        W 9336   7.193  25.483  11.956
50076W        W 9337  18.651  12.699   3.781
50077W        W 9338  11.351  20.137   4.275
50078W        W 9339  28.131  10.710  10.494
50079W        W 9340  17.579   8.191   1.329
50080W        W 9341  44.443  13.203   4.707
50081W        W 9342   0.471   6.917   0.802
50082W        W 9343  31.445  30.926  14.388
50083W        W 9344  40.005  33.010   4.353
50084W        W 9345   9.854  21.548   4.220
50085W        W 9346   2.764  29.539   3.282
50086W        W 9347   1.476  35.900  14.450
50087W        W 9348  24.602  28.486   0.729
50088W        W 9349  41.432   2.722  10.629
50089W        W 9350  26.171  31.036  11.398
50090W        W 9351  20.570   2.948   2.693
50091W        W 9352  10.846  27.946   2.883
50092W        W 9353   5.761   6.836   1.293
50093W        W 9354  17.791  35.870  10.975
50094W        W 9355   0.882  34.995  13.968
50095W        W 9356  26.966  24.078  13.421
50096W        W 9357  18.754  14.283  13.460
50097W        W 9358   3.380  25.603  14.025
50098W        W 9359  41.360  10.191  14.299
50099W        W 9360  22.628   0.484  12.988
50100W        W 9361  17.659  12.312  14.492
50101W        W 9362   1.744   9.227  11.868
50102W        W 9363   1.326  18.119  11.069
50103W        W 9364  30.048  28.950   1.324
50104W        W 9365   7.725  21.203   1.382
50105W        W 9366  38.896   2.865   4.283
50106W        W 9367  35.539  10.783  10.456
50107W        W 9368  27.979   4.935  10.933
50108W        W 9369  24.010  44.996  12.345
50109W        W 9370  36.002  37.446   1.934
50110W        W 9371  22.591  38.847   4.646
50111W        W 9372  13.600  43.876  11.580
50112W        W 9373   6.387  21.737   1.287
50113W        W 9374  13.298   2.415  11.965
50114W        W 9375  23.161  19.627   1.304
50115W        W 9376  12.242  18.729   4.664
50116W        W 9377  13.831  29.946   3.331
50117W        W 9378  10.194   0.326  11.936
50118W        W 9379  18.773  17.085   1.441
50119W        W 9380  21.559   5.855   3.252
50120W        W 9381   1.879  12.611   0.906
50121W        W 9382  44.932  30.437  12.035
50122W        W 9383  21.251  35.463  14.385
50123W        W 9384  32.428  27.451   1.824
50124W        W 9385   4.857   9.873  13.937
50125W        W 9386  39.433  27.194   0.781
50126W        W 9387  44.836   6.226  14.870
50127W        W 9388   7.808  15.324   3.252
50128W        W 9389  28.953  35.487   5.089
50129W        W 9390  33.511   6.746  13.442
50130W        W 9391   2.340  36.028  14.903
50131W        W 9392  14.635  40.969  13.926
50132W        W 9393  26.528  26.117   0.776
50133W        W 9394  27.143  22.702   3.336
50134W        W 9395  17.649  17.066   1.910
50135W        W 9396  15.206  12.626   2.266
50136W        W 9397  16.707  23.556   1.827
50137W        W 9398  34.921  18.582   0.860
50138W        W 9399  20.239  37.858  11.119
50139W        W 9400  42.818  17.217   0.343
50140W        W 9401  27.606  13.346   2.688
50141W        W 9402  29.534   5.304   4.148
50142W        W 9403  40.960  41.879   4.602
50143W        W 9404  17.739   4.332  14.847
50144W        W 9405   2.965  12.710   2.322
50145W        W 9406   4.846   9.762  12.092
50146W        W 9407  41.346  43.892   1.216
50147W        W 9408   5.430  36.531  14.884
50148W        W 9409  27.655  36.542   0.727
50149W        W 9410  44.481  25.980  14.380
50150W        W 9411  40.410  17.283   2.266
50151W        W 9412  27.453  38.482   1.282
50152W        W 9413   5.874  13.674   1.431
50153W        W 9414   5.889  27.085   1.445
50154W        W 9415  14.809  32.611   2.885
50155W        W 9416  19.573   5.215  13.035
50156W        W 9417  30.025  24.555   0.782
50157W        W 9418   9.720  36.889   2.401
50158W        W 9419  10.290  37.420   0.243
50159W        W 9420   6.255  13.292   3.210
50160W        W 9421  29.148   1.803  13.970
50161W        W 9422   2.256   1.343   2.394
50162W        W 9423   3.285  20.081  11.999
50163W        W 9424  19.550   9.735  12.060
50164W        W 9425  25.614  17.123   3.323
50165W        W 9426  33.572  11.243  11.858
50166W        W 9427   9.384  17.140  12.985
50167W        W 9428  15.229  30.631  12.971
50168W        W 9429   0.249   5.828   3.712
50169W        W 9430  14.151  28.003   3.725
50170W        W 9431  10.716  27.056   0.361
50171W        W 9432   0.978  40.308   2.220
50172W        W 9433   5.417  19.198   0.305
50173W        W 9434  23.597  13.757  13.839
50174W        W 9435   0.876  16.637   4.218
50175W        W 9436   3.258  28.476  10.969
50176W        W 9437   5.198   7.315   3.146
50177W        W 9438  12.648   7.910  10.586
50178W        W 9439   3.301  40.344   2.833
50179W        W 9440   5.789  41.517   3.331
50180W        W 9441  40.924   4.854  11.035
50181W        W 9442  20.160  28.985   2.805
50182W        W 9443  17.281  40.957  11.119
50183W        W 9444  12.633  13.773   1.751
50184W        W 9445  26.504  44.283   3.766
50185W        W 9446  40.464  26.606  13.941
50186W        W 9447  25.016  28.114   4.291
50187W        W 9448   6.773  11.142  10.452
50188W        W 9449   0.276  12.262   1.881
50189W        W 9450  21.749  24.563  12.358
50190W        W 9451   6.717  41.790   3.752
50191W        W 9452  35.358  40.873  12.956
50192W        W 9453  27.008   0.830   2.307
50193W        W 9454  14.143   8.845  11.422
50194W        W 9455  25.979   7.307  11.069
50195W        W 9456  10.703  20.043   4.185
50196W        W 9457  41.946  23.658  10.941
50197W        W 9458  21.238  36.362  11.440
50198W        W 9459   1.351  36.024   4.146
50199W        W 9460  24.660  14.297  12.846
50200W        W 9461  12.674   4.208   2.217
50201W        W 9462   2.722  37.380   2.252
50202W        W 9463  23.080  43.312  13.438
50203W        W 9464  25.178  42.517   1.894
50204W        W 9465  43.308  34.967  11.564
50205W        W 9466  17.198  22.048   3.725
50206W        W 9467  42.873  38.564   4.752
50207W        W 9468  14.671  23.731  10.934
50208W        W 9469  23.045  36.097   4.757
50209W        W 9470  34.376   4.842  13.909
50210W        W 9471  14.737  27.119   0.754
50211W        W 9472   9.820  37.570  14.006
50212W        W 9473  43.458  37.915  14.441
50213W        W 9474  44.427   6.218   2.369
50214W        W 9475   0.380  22.242  13.937
50215W        W 9476  39.891   1.874   3.852
50216W        W 9477  37.344  20.187  11.984
50217W        W 9478   9.668   0.849   4.288
50218W        W 9479  24.088  37.428  10.588
50219W        W 9480  14.280  38.826   5.118
50220W        W 9481   4.241  19.239   2.707
50221W        W 9482  32.920  15.173  10.952
50222W        W 9483  13.120  38.515  13.403
50223W        W 9484  13.752  40.042   2.665
50224W        W 9485  41.922  34.877  14.838
50225W        W 9486  19.151  14.685   4.289
50226W        W 9487  12.621  19.540  10.890
50227W        W 9488  18.067  26.494   0.754
50228W        W 9489  17.214  15.640  10.516
50229W        W 9490  42.504  14.326   0.360
50230W        W 9491  13.746   6.782   1.444
50231W        W 9492  10.139  43.464  12.386
50232W        W 9493  36.058  33.486  13.883
50233W        W 9494  29.990  13.717  12.548
50234W        W 9495  27.194  16.174   3.729
50235W        W 9496  44.301  36.864  11.452
50236W        W 9497  41.987   3.289  10.603
50237W        W 9498   3.370  37.934  11.407
50238W        W 9499  15.580  43.776   4.322
50239W        W 9500  30.539  44.758  12.571
50240W        W 9501  27.462   6.427   1.798
50241W        W 9502  39.470   3.888   3.249
50242W        W 9503  34.909   2.279  10.632
50243W        W 9504  42.820   9.264   0.346
50244W        W 9505   5.737   0.966  10.609
50245W        W 9506  27.506  35.078  14.761
50246W        W 9507  14.712  39.323   2.303
50247W        W 9508  30.554  28.929   0.787
50248W        W 9509  11.846  17.588  14.280
50249W        W 9510  39.540  27.553  10.578
50250W        W 9511   6.851  44.276  11.965
50251W        W 9512   6.182  36.541   4.716
50252W        W 9513  13.828   8.763  13.373
50253W        W 9514   6.295  41.795  11.570
50254W        W 9515  34.964   1.278  13.340
50255W        W 9516  40.458   7.210  11.982
50256W        W 9517  43.290   0.426  14.453
50257W        W 9518  21.228   1.922  14.874
50258W        W 9519   8.847  26.182   0.900
50259W        W 9520  36.976  19.053  14.455
50260W        W 9521   9.203  44.372  12.469
50261W        W 9522  16.118   1.901  10.968
50262W        W 9523  23.716  27.537   2.225
50263W        W 9524  33.926  39.997  12.842
50264W        W 9525  39.003   4.833  12.005
50265W        W 9526   5.263  10.222   2.866
50266W        W 9527  27.561  16.752  14.416
50267W        W 9528  31.018  32.599  11.415
50268W        W 9529  17.218  17.651   1.315
50269W        W 9530   7.181  13.318  14.971
50270W        W 9531  33.496  19.533  11.534
50271W        W 9532  31.416   2.243  10.630
50272W        W 9533   2.307  16.728   4.737
50273W        W 9534  44.384  17.152   1.387
50274W        W 9535  10.330  19.563  13.895
50275W        W 9536  23.579   6.879  14.504
50276W        W 9537  31.623  39.465  12.065
50277W        W 9538  24.022  12.695  10.045
50278W        W 9539  43.843  15.774   3.281
50279W        W 9540   2.436  13.799  10.430
50280W        W 9541  20.525  20.139  14.949
50281W        W 9542  21.637  18.127  11.005
50282W        W 9543  29.478  29.588   2.764
50283W        W 9544  17.578   6.901  14.962
50284W        W 9545  35.012  21.580  10.533
50285W        W 9546  22.645  16.718  12.457
50286W        W 9547   5.420   7.323  12.868
50287W        W 9548  43.331  24.990   5.259
50288W        W 9549  44.815  12.822   4.236
50289W        W 9550  10.820   1.292  11.550
50290W        W 9551  31.901  27.675  12.859
50291W        W 9552   2.420  27.111  11.542
50292W        W 9553  29.132  41.356   4.246
50293W        W 9554  22.177   8.699  11.372
50294W        W 9555   2.766  33.066   0.424
50295W        W 9556  36.503  12.674   1.914
50296W        W 9557  18.680   8.767   0.330
50297W        W 9558  38.064  40.964   3.360
50298W        W 9559  24.602  16.227  10.931
50299W        W 9560  11.681  12.149   5.659
50300W        W 9561   0.772   3.355  14.456
50301W        W 9562   4.855  38.425  10.007
50302W        W 9563  10.763  33.531  10.995
50303W        W 9564  20.086  17.690  12.482
50304W        W 9565   6.807  24.213  14.441
50305W        W 9566  14.285  13.346  13.439
50306W        W 9567  25.679  11.806   3.856
50307W        W 9568  29.041  39.394   1.213
50308W        W 9569  38.387  12.284  13.803
50309W        W 9570  23.211   9.251  11.061
50310W        W 9571  41.425  39.928   2.830
50311W        W 9572   5.316  16.107  11.065
50312W        W 9573  29.988  15.796   2.205
50313W        W 9574  36.058  17.675  10.638
50314W        W 9575  38.449   2.860  12.452
50315W        W 9576  43.886  32.394  13.923
50316W        W 9577  25.611   5.803   1.893
50317W        W 9578  15.614  13.747   1.226
50318W        W 9579  38.871   6.345  14.287
50319W        W 9580  15.093  42.432   2.738
50320W        W 9581  32.570  33.553   2.841
50321W        W 9582  42.796  37.984  13.796
50322W        W 9583  12.686  30.069  11.119
50323W        W 9584  24.693  24.523   0.262
50324W        W 9585  19.675  14.678   3.721
50325W        W 9586  31.521   4.436   0.943
50326W        W 9587  10.664  12.222  14.958
50327W        W 9588   6.280  24.223  14.976
50328W        W 9589  31.912   3.387   3.753
50329W        W 9590  12.284   1.395   0.758
50330W        W 9591   6.280  31.141   2.267
50331W        W 9592   3.726  22.998   2.328
50332W        W 9593  20.060  15.193   2.321
50333W        W 9594  11.151  20.178  14.498
50334W        W 9595  31.151  27.479   0.416
50335W        W 9596  36.973  42.366  10.140
50336W        W 9597  26.594  14.141  11.610
50337W        W 9598  44.819   4.325   0.809
50338W        W 9599  23.108  29.603   0.745
50339W        W 9600  37.361  33.128  12.832
50340W        W 9601  20.270   3.773   1.744
50341W        W 9602  24.588   6.879   1.365
50342W        W 9603  22.176  10.289   1.244
50343W        W 9604  33.586  17.594   2.755
50344W        W 9605   4.878  18.782   1.925
50345W        W 9606  44.431   2.888   3.362
50346W        W 9607  25.604   7.215   1.450
50347W        W 9608  12.827  23.565   2.728
50348W        W 9609   1.915  43.970   0.461
50349W        W 9610  29.124  14.130  13.350
50350W        W 9611  36.097  26.464   2.873
50351W        W 9612  32.051  20.138   3.824
50352W        W 9613  28.567  10.350  10.491
50353W        W 9614  33.587  13.636  14.900
50354W        W 9615   5.762   7.410   9.642
50355W        W 9616   1.867  17.666  12.559
50356W        W 9617   6.345   2.860   0.797
50357W        W 9618   4.368   1.410  12.957
50358W        W 9619  12.274   0.797   2.312
50359W        W 9620  34.432  15.714  13.947
50360W        W 9621   8.655  25.199  14.787
50361W        W 9622  44.283   9.178  13.351
50362W        W 9623  24.144   1.782  11.598
50363W        W 9624  39.907  27.621   4.787
50364W        W 9625  14.680  35.075  10.907
50365W        W 9626  42.297  27.673  14.313
50366W        W 9627   4.290  33.041  12.456
50367W        W 9628  34.554  28.460   1.316
50368W        W 9629   1.836  40.534   0.374
50369W        W 9630   7.886  20.542   3.817
50370W        W 9631  21.663  33.930   4.275
50371W        W 9632  21.245   2.379  12.943
50372W        W 9633  18.670   5.194   1.928
50373W        W 9634   6.401   1.894   1.818
50374W        W 9635  31.082  17.658  10.410
50375W        W 9636  30.600   1.321   0.261
50376W        W 9637   0.432   1.965   4.220
50377W        W 9638  30.427  12.173   1.922
50378W        W 9639  12.340  16.614  12.573
50379W        W 9640   6.799   6.875  11.590
50380W        W 9641  16.299  35.496   2.703
50381W        W 9642  29.116  38.882   4.716
50382W        W 9643   1.314  29.087  14.460
50383W        W 9644  39.975  17.219   3.168
50384W        W 9645  16.587   7.686  11.417
50385W        W 9646  41.526  43.421   4.733
50386W        W 9647  11.805  10.218   2.815
50387W        W 9648  41.906  22.504  12.560
50388W        W 9649  36.931  13.255  12.875
50389W        W 9650   5.903  20.759  10.501
50390W        W 9651  28.108  44.359   1.262
50391W        W 9652  20.736  32.458  14.339
50392W        W 9653   1.878   8.352   2.785
50393W        W 9654  18.624  38.530   1.842
50394W        W 9655  26.171  15.796   4.642
50395W        W 9656   5.707  16.607  12.453
50396W        W 9657  28.480  12.774  14.323
50397W        W 9658   8.896  16.651  14.372
50398W        W 9659  39.404  20.721  12.415
50399W        W 9660  42.929  16.760  14.969
50400W        W 9661  34.063  32.499   4.117
50401W        W 9662  24.531   1.453   1.337
50402W        W 9663  37.907  38.015  13.531
50403W        W 9664   4.761  39.997  11.422
50404W        W 9665   2.832  32.557  14.774
50405W        W 9666  16.090  26.043  14.346
50406W        W 9667  34.929  44.001   2.181
50407W        W 9668  40.046  33.128  13.993
50408W        W 9669  39.815  26.961   3.859
50409W        W 9670   1.931  10.151  10.926
50410W        W 9671  32.605  27.534  13.973
50411W        W 9672  38.943  39.045   0.740
50412W        W 9673   6.733  11.335   1.873
50413W        W 9674   6.401  21.128   5.082
50414W        W 9675  43.447  28.999   3.195
50415W        W 9676  25.116  28.035  13.043
50416W        W 9677  42.471  36.352   4.291
50417W        W 9678  23.566  35.465   4.194
50418W        W 9679  13.223  12.838   9.476
50419W        W 9680  27.593  42.438   4.354
50420W        W 9681  44.755  36.363   3.231
50421W        W 9682  38.380  16.754  14.893
50422W        W 9683  42.411  17.681   2.694
50423W        W 9684   5.293  18.656  11.962
50424W        W 9685   1.806  19.554   3.147
50425W        W 9686  33.408  39.338  12.525
50426W        W 9687  33.494   0.935  14.027
50427W        W 9688  27.126   3.747  12.573
50428W        W 9689  36.512  36.053   0.354
50429W        W 9690   5.416  22.645   0.826
50430W        W 9691  36.077   0.334  11.001
50431W        W 9692   6.223  10.278   1.284
50432W        W 9693  43.400  34.565   0.246
50433W        W 9694   0.936  27.533  10.554
50434W        W 9695   4.856   7.192   4.683
50435W        W 9696  18.735   2.793  13.366
50436W        W 9697   5.393  11.649  11.548
50437W        W 9698  26.506  18.067   3.331
50438W        W 9699   6.425  11.743   4.292
50439W        W 9700  38.989  43.311  14.886
50440W        W 9701  41.002  12.320  11.611
50441W        W 9702  42.391   4.874   4.184
50442W        W 9703  19.588  20.249   1.804
50443W        W 9704  28.118  38.877   2.343
50444W        W 9705  44.852  21.717  11.573
50445W        W 9706  16.115   6.217   1.402
50446W        W 9707  37.454  27.987   3.789
50447W        W 9708  40.321  38.821   2.676
50448W        W 9709  41.515  17.298  11.126
50449W        W 9710  39.374  13.201  12.497
50450W        W 9711  38.354   4.843  14.380
50451W        W 9712  11.762  16.734   2.889
50452W        W 9713  42.898   4.899   2.720
50453W        W 9714  39.332  31.547  14.353
50454W        W 9715  40.477  38.370  14.927
50455W        W 9716  20.220  31.914  11.078
50456W        W 9717   6.195   0.342   0.803
50457W        W 9718  25.553   0.844  13.475
50458W        W 9719  39.531  22.693   3.371
50459W        W 9720   9.314   0.752  11.927
50460W        W 9721  40.989   1.368  12.084
50461W        W 9722  33.971   6.297  13.866
50462W        W 9723  44.961  44.800   0.470
50463W        W 9724  22.128  42.384  12.913
50464W        W 9725  18.074  15.099   1.436
50465W        W 9726  14.698  40.478   4.145
50466W        W 9727   2.826  29.001   1.767
50467W        W 9728  29.013  17.782   3.243
50468W        W 9729  15.617   8.314   3.238
50469W        W 9730  44.983  29.155  12.894
50470W        W 9731  26.675  27.503  12.568
50471W        W 9732  40.541  42.527   4.713
50472W        W 9733   4.289  17.306  10.957
50473W        W 9734   8.678  35.592   1.785
50474W        W 9735  11.693  30.472  10.447
50475W        W 9736  17.592  22.204  12.512
50476W        W 9737   9.842  10.204   0.416
50477W        W 9738   9.232   8.398  11.877
50478W        W 9739  31.531   6.738  14.801
50479W        W 9740  24.724   1.854  10.489
50480W        W 9741  18.282  35.914   4.657
50481W        W 9742   6.299  35.995  10.080
50482W        W 9743  44.912  20.056  12.823
50483W        W 9744  22.196  38.338   1.839
50484W        W 9745  42.328  17.160  14.030
50485W        W 9746  42.364  19.105  12.025
50486W        W 9747  29.500  11.794  14.510
50487W        W 9748  23.080  13.616  14.404
50488W        W 9749  28.457  36.436   2.311
50489W        W 9750  37.074   0.317  12.037
50490W        W 9751   5.865  32.540   3.680
50491W        W 9752  30.995  11.716   2.860
50492W        W 9753  28.137  28.016   3.243
50493W        W 9754  39.404   2.279  12.963
50494W        W 9755  33.878  19.622  10.911
50495W        W 9756   5.854  11.286   4.607
50496W        W 9757  18.133  10.814  13.466
50497W        W 9758  35.914  24.607  12.418
50498W        W 9759  33.875   5.274   2.232
50499W        W 9760  23.214  11.857  12.043
50500W        W 9761  39.559  24.191  11.422
50501W        W 9762  13.250  27.600   0.826
50502W        W 9763  26.639   4.374  12.005
50503W        W 9764  36.484  13.112   1.402
50504W        W 9765  40.374  40.449  12.339
50505W        W 9766  11.370  43.441   2.675
50506W        W 9767  25.023   9.200  11.507
50507W        W 9768  29.591  41.866  14.998
50508W        W 9769  42.309  21.603   3.232
50509W        W 9770  17.733   4.211   2.352
50510W        W 9771  17.596  33.570   4.202
50511W        W 9772  44.449  12.259   2.855
50512W        W 9773  41.918  30.126  13.947
50513W        W 9774  20.525   0.302  13.392
50514W        W 9775  23.202   9.270  13.408
50515W        W 9776  33.403  20.076  13.931
50516W        W 9777  19.186   3.418   3.640
50517W        W 9778  29.080  20.687  14.798
50518W        W 9779  32.477  39.045   4.632
50519W        W 9780  21.618  30.524  12.018
50520W        W 9781  19.731  19.593  13.535
50521W        W 9782  35.406  26.021   2.306
50522W        W 9783  24.527  38.888   1.413
50523W        W 9784  19.089   9.794   1.855
50524W        W 9785   8.690   7.345   2.334
50525W        W 9786  16.164  41.979   0.933
50526W        W 9787  32.022  34.006  14.476
50527W        W 9788  14.226  11.196   3.195
50528W        W 9789   9.352   2.401  10.892
50529W        W 9790  39.344  11.162   0.301
50530W        W 9791  43.808  38.514  14.306
50531W        W 9792  27.682  31.475  10.477
50532W        W 9793  10.172  22.145  10.928
50533W        W 9794   8.366  30.154   2.717
50534W        W 9795   9.806  16.683  10.497
50535W        W 9796  37.847   8.312  12.500
50536W        W 9797  11.773  38.956  10.968
50537W        W 9798  43.404  27.168  13.491
50538W        W 9799  33.465   0.460   2.759
50539W        W 9800   9.655  33.484   0.741
50540W        W 9801  29.036  21.728   3.838
50541W        W 9802  35.078  19.149   1.918
50542W        W 9803  10.688  22.719   4.268
50543W        W 9804  19.072  20.719  13.056
50544W        W 9805  43.764  16.181  13.031
50545W        W 9806  43.861  31.591   0.297
50546W        W 9807  22.176  38.838  13.513
50547W        W 9808   0.944  37.852  12.996
50548W        W 9809  16.745  18.657   1.797
50549W        W 9810  44.369   3.354   0.348
50550W        W 9811  29.928  39.493   5.678
50551W        W 9812  35.886   9.176   4.778
50552W        W 9813  25.548  41.317   3.862
50553W        W 9814  13.686   9.719   2.883
50554W        W 9815   4.744  19.735   1.385
50555W        W 9816  16.743  26.185  10.925
50556W        W 9817  44.366  13.843  14.298
50557W        W 9818  35.576  32.127   1.227
50558W        W 9819  29.123  15.102   4.731
50559W        W 9820  41.374  24.192   2.691
50560W        W 9821   3.930  13.674   1.357
50561W        W 9822   7.270  33.586   5.179
50562W        W 9823  26.499   9.695  14.475
50563W        W 9824  16.730   7.187   4.295
50564W        W 9825  30.997   3.295  11.473
50565W        W 9826  13.637  21.653   1.447
50566W        W 9827  17.729   5.719  11.396
50567W        W 9828  43.005  34.403   2.392
50568W        W 9829   3.819  36.955  12.481
50569W        W 9830  31.538  30.909   3.703
50570W        W 9831  36.551  20.610  12.415
50571W        W 9832  35.913   4.933   4.774
50572W        W 9833  40.468  33.588  13.380
50573W        W 9834  33.625  36.037   3.763
50574W        W 9835  23.165  25.540   3.209
50575W        W 9836  25.566  37.337  13.494
50576W        W 9837  37.399  12.349  13.404
50577W        W 9838  38.529  21.619  13.855
50578W        W 9839  36.880  25.707  10.532
50579W        W 9840  26.624  44.948   1.863
50580W        W 9841   5.759  13.107  14.021
50581W        W 9842   0.858   8.657  14.814
50582W        W 9843  28.546  10.830   1.324
50583W        W 9844  40.527  44.846  12.087
50584W        W 9845  13.163  32.005  14.321
50585W        W 9846  42.840  42.403  14.508
50586W        W 9847  19.278  31.524   2.244
50587W        W 9848   5.297  37.886   4.218
50588W        W 9849   2.365  22.666  10.414
50589W        W 9850  33.054  43.822   1.784
50590W        W 9851  42.887  30.983  13.531
50591W        W 9852  13.284  44.825   1.697
50592W        W 9853  10.200  16.285  12.036
50593W        W 9854  33.578  27.549  11.005
50594W        W 9855  36.558  38.325  11.012
50595W        W 9856  32.908  31.045   0.356
50596W        W 9857  41.020  22.250   4.289
50597W        W 9858  30.545   9.654   2.872
50598W        W 9859  38.508  44.998  12.378
50599W        W 9860  11.753  37.342   1.358
50600W        W 9861  44.753  31.620  12.391
50601W        W 9862  41.874  36.376   2.341
50602W        W 9863  17.650  37.080   2.398
50603W        W 9864  19.776   4.442  11.497
50604W        W 9865  12.271  43.407  13.849
50605W        W 9866  37.455  18.162   2.781
50606W        W 9867   0.413  25.076  14.976
50607W        W 9868   3.453  26.951  11.472
50608W        W 9869  32.410   2.460  11.046
50609W        W 9870  28.464  18.160   3.816
50610W        W 9871  18.630  26.547  13.882
50611W        W 9872  44.970  17.620  14.903
50612W        W 9873  35.384  34.463   4.684
50613W        W 9874  20.644  33.117  13.928
50614W        W 9875  24.030  18.145  12.380
50615W        W 9876  16.162   8.658  12.490
50616W        W 9877  22.233  21.261  10.637
50617W        W 9878  28.480  18.176   2.196
50618W        W 9879  43.487  31.562   2.808
50619W        W 9880  42.301  32.621  10.620
50620W        W 9881   0.819  26.043  13.938
50621W        W 9882   5.338  33.916  11.534
50622W        W 9883  18.229  42.832  11.028
50623W        W 9884  37.450   3.847   2.783
50624W        W 9885  30.980  10.207  11.117
50625W        W 9886  30.135  43.788   2.288
50626W        W 9887   4.290  38.886  12.854
50627W        W 9888  42.784  38.884   0.261
50628W        W 9889  14.809  21.090  10.135
50629W        W 9890   3.283  24.171  14.950
50630W        W 9891  32.564  16.072   1.433
50631W        W 9892  17.295   3.935   2.259
50632W        W 9893  39.415  27.961  10.902
50633W        W 9894  25.083  31.569  14.908
50634W        W 9895  14.205  21.113  13.454
50635W        W 9896  14.320  12.638  10.053
50636W        W 9897  25.691  43.417   2.839
50637W        W 9898  38.545  42.337  13.447
50638W        W 9899  44.958  15.330  13.061
50639W        W 9900  11.845  41.019   1.762
50640W        W 9901  34.999  19.640  10.940
50641W        W 9902  20.169  43.021   2.780
50642W        W 9903  27.971  29.169   2.690
50643W        W 9904   1.901  27.951  14.760
50644W        W 9905  32.040  28.030   4.815
50645W        W 9906  42.403  13.278   2.182
50646W        W 9907  40.799  10.238   4.325
50647W        W 9908  17.567  12.238   2.329
50648W        W 9909  28.598  18.139  14.947
50649W        W 9910  44.957   5.876  12.903
50650W        W 9911  25.208  38.923  10.559
50651W        W 9912   9.801  25.155   1.814
50652W        W 9913   6.739   8.387   3.198
50653W        W 9914  42.458   6.918  11.070
50654W        W 9915  34.476  37.064   2.860
50655W        W 9916  38.914  25.632  14.768
50656W        W 9917  22.108  42.412   3.836
50657W        W 9918  27.578  30.091   1.387
50658W        W 9919  25.636   2.890   0.266
50659W        W 9920  37.886  31.049   3.215
50660W        W 9921  43.013  36.069   2.882
50661W        W 9922  13.183   1.955  12.573
50662W        W 9923  21.087  31.956  13.350
50663W        W 9924  29.946  26.555  14.828
50664W        W 9925   9.794   3.860   2.697
50665W        W 9926  24.040   3.955   4.168
50666W        W 9927  16.317  44.294   3.278
50667W        W 9928   9.709   8.700  12.369
50668W        W 9929   0.477  34.966   1.899
50669W        W 9930  24.101  40.983   4.794
50670W        W 9931  35.359  42.894  12.483
50671W        W 9932  42.510  30.979  10.575
50672W        W 9933  40.422  19.280   2.402
50673W        W 9934  25.192  13.785  13.975
50674W        W 9935  16.812  14.825  11.590
50675W        W 9936  12.119  26.680  14.449
50676W        W 9937  43.451  23.138  11.886
50677W        W 9938   0.788   6.403   1.723
50678W        W 9939  23.996  40.378   2.323
50679W        W 9940  29.958  36.957   3.346
50680W        W 9941  28.671  36.425  13.444
50681W        W 9942  25.122  43.973   0.818
50682W        W 9943  23.076  34.093  12.836
50683W        W 9944   0.484  13.685  13.424
50684W        W 9945  23.077  25.477  12.456
50685W        W 9946  13.256  42.882   3.846
50686W        W 9947  29.668  44.389   2.882
50687W        W 9948  17.665  44.426   3.218
50688W        W 9949   2.731  37.406   0.743
50689W        W 9950  40.858  27.179  14.321
50690W        W 9951  24.106  30.006  10.944
50691W        W 9952  44.282  17.744  14.829
50692W        W 9953  44.767  39.514   4.751
50693W        W 9954  40.811   3.950   0.247
50694W        W 9955  24.001  11.156   1.273
50695W        W 9956  19.210  42.954  13.001
50696W        W 9957  43.475   9.813  11.856
50697W        W 9958   0.282  35.493   4.284
50698W        W 9959   7.181   3.283   0.789
50699W        W 9960  33.584   0.478  14.364
50700W        W 9961   6.725  24.627  12.452
50701W        W 9962  41.326   2.763   0.311
50702W        W 9963  25.560   2.733   3.832
50703W        W 9964  28.501  12.693  11.569
50704W        W 9965  31.430   1.819   1.327
50705W        W 9966  14.633  41.902   1.898
50706W        W 9967  28.538  17.618  11.055
50707W        W 9968   3.287  21.095   4.708
50708W        W 9969  23.090  21.689   4.693
50709W        W 9970  18.195  43.407   2.338
50710W        W 9971  16.142   4.879   0.918
50711W        W 9972   3.335  43.000  14.824
50712W        W 9973  23.054  41.882  14.444
50713W        W 9974  28.973  23.009   2.863
50714W        W 9975   3.216   0.339   1.794
50715W        W 9976  18.769   6.907  13.865
50716W        W 9977   1.793  21.197  13.016
50717W        W 9978  21.197   9.323  11.485
50718W        W 9979  15.657  36.073  13.027
50719W        W 9980  33.067   1.893   4.185
50720W        W 9981  37.075  44.297   1.222
50721W        W 9982  44.768   3.358   3.253
50722W        W 9983  14.162  39.319  14.326
50723W        W 9984   9.677  33.116  11.071
50724W        W 9985  24.186   6.326  10.936
50725W        W 9986  28.668  12.690  13.842
50726W        W 9987  25.968  33.093   0.278
50727W        W 9988  40.431   2.926   1.255
50728W        W 9989  17.653   3.363   0.819
50729W        W 9990  20.605  10.289   0.860
50730W        W 9991  13.127  19.682  14.953
50731W        W 9992   6.398  16.763  10.587
50732W        W 9993  31.510  16.697   4.342
50733W        W 9994  20.666   4.323  13.490
50734W        W 9995  12.626   2.258   5.164
50735W        W 9996  17.688  15.180   4.766
50736W        W 9997  23.024  11.850  12.367
50737W        W 9998   3.712  18.145   4.337
50738W        W 9999   3.823  22.141  11.935
50739W        W10000  22.142  30.562   3.348
50740W        W10001  17.142  29.075   0.332
50741W        W10002  28.984  10.724   0.387
50742W        W10003  36.855  16.087   2.202
50743W        W10004  14.732   4.799   1.374
50744W        W10005   8.808  19.095  11.936
50745W        W10006   3.717  19.692   2.670
50746W        W10007   5.885  31.084  13.063
50747W        W10008  11.329  15.119   3.683
50748W        W10009  10.654  36.434   3.734
50749W        W10010  18.733  42.395  10.409
50750W        W10011  16.649  17.066   0.268
50751W        W10012  26.980  30.545   3.166
50752W        W10013  21.200  43.881   3.383
50753W        W10014   5.399   7.691   2.286
50754W        W10015  23.510   1.326  14.031
50755W        W10016   9.224  39.952  10.439
50756W        W10017  41.308  39.368   1.921
50757W        W10018  23.546  24.025   5.641
50758W        W10019  40.456  41.394  13.945
50759W        W10020  20.051   1.431   3.638
50760W        W10021  16.092  15.629  11.891
50761W        W10022  14.682   9.385  14.962
50762W        W10023   1.290  36.457  14.943
50763W        W10024  32.074  16.782  14.934
50764W        W10025  16.742   5.753   1.440
50765W        W10026  21.225  36.033   3.321
50766W        W10027  31.943   1.275   4.719
50767W        W10028  14.604  43.310  12.392
50768W        W10029  39.371  29.474   0.755
50769W        W10030  10.780  12.360  10.592
50770W        W10031  32.625  31.542  12.517
50771W        W10032   5.867  25.975   1.900
50772W        W10033   4.378  19.218  13.884
50773W        W10034   4.395   1.278   0.741
50774W        W10035  40.363  22.582  11.608
50775W        W10036   5.757   3.890  11.975
50776W        W10037  39.988  11.215  10.555
50777W        W10038  18.111  12.222   1.451
50778W        W10039  23.163  33.499   2.733
50779W        W10040   4.919   3.754  12.833
50780W        W10041  11.813   3.382  14.353
50781W        W10042  10.702  20.091  12.974
50782W        W10043  31.936  33.117  13.380
50783W        W10044   3.856  13.833  10.446
50784W        W10045  20.635  35.917  11.482
50785W        W10046  25.124   1.868   3.775
50786W        W10047   5.372  42.305   1.369
50787W        W10048  42.321  21.185   4.838
50788W        W10049   1.261  25.130   2.799
50789W        W10050  18.665  16.247  10.477
50790W        W10051  30.085  32.966   3.333
50791W        W10052  18.174  38.901   1.820
50792W        W10053  24.136  12.673  13.961
50793W        W10054  13.713  27.555   3.705
50794W        W10055  34.375  29.596  13.536
50795W        W10056  29.548  19.740   1.360
50796W        W10057   8.313   3.266   5.272
50797W        W10058  22.025  35.521   1.407
50798W        W10059  34.885  32.140  14.419
50799W        W10060  42.900  34.902   4.709
50800W        W10061  19.596  11.696  14.399
50801W        W10062  17.172  13.640   1.242
50802W        W10063  26.616  13.336  11.528
50803W        W10064   5.867   6.386  10.611
50804W        W10065  35.866  20.047  11.566
50805W        W10066  11.293  29.023  10.546
50806W        W10067  40.390  29.526   0.357
50807W        W10068  44.774  12.149   3.825
50808W        W10069   9.656   2.424   1.334
50809W        W10070  20.659  23.605  12.340
50810W        W10071   7.829   7.751   9.994
50811W        W10072   6.214  14.198   0.262
50812W        W10073  35.458  37.466  11.858
50813W        W10074  22.517  12.297  10.036
50814W        W10075  21.122  12.836   3.630
50815W        W10076  36.923  32.573   1.304
50816W        W10077  24.183  17.690   2.667
50817W        W10078   9.358  17.294  10.894
50818W        W10079  32.636  43.487   4.304
50819W        W10080  20.209  10.745  12.519
50820W        W10081  20.702  43.890   0.382
50821W        W10082  28.585  37.377  10.980
50822W        W10083  21.042  23.000   3.854
50823W        W10084  23.212  34.063  14.822
50824W        W10085   7.794   5.847   0.838
50825W        W10086  36.884  42.520  14.866
50826W        W10087  23.130   3.856  14.986
50827W        W10088  12.205  29.045  13.903
50828W        W10089   2.936  13.719   0.775
50829W        W10090  19.078  41.904   2.800
50830W        W10091  30.053  43.864  10.927
50831W        W10092  28.976  19.548   1.767
50832W        W10093  37.843  20.085  11.595
50833W        W10094  32.070  12.289   1.269
50834W        W10095  37.957  19.073   1.315
50835W        W10096  32.452  25.569  10.508
50836W        W10097   1.817  29.438  11.921
50837W        W10098  28.067   1.330   2.240
50838W        W10099  41.862  17.787   0.242
50839W        W10100  12.284   3.822   0.368
50840W        W10101   4.378  44.968  12.476
50841W        W10102  15.645  37.535   5.211
50842W        W10103  14.664  23.676   3.321
50843W        W10104   2.411  21.259   4.227
50844W        W10105   0.891  43.310   4.202
50845W        W10106   6.303   2.335   4.758
50846W        W10107  28.111  38.830   0.905
50847W        W10108   9.255  10.330  13.942
50848W        W10109  33.893  15.630   4.216
50849W        W10110  35.976  32.408  13.854
50850W        W10111  15.213   7.741   3.358
50851W        W10112   1.924  30.967  13.049
50852W        W10113  26.199  22.048   4.816
50853W        W10114  11.195  18.120   0.392
50854W        W10115  41.395  20.047  14.422
50855W        W10116  28.962  33.581  14.858
50856W        W10117  15.688  12.286  13.505
50857W        W10118   2.855  11.356   0.730
50858W        W10119  12.220  39.875  10.977
50859W        W10120  35.864  28.507   2.394
50860W        W10121  28.101   6.905  13.354
50861W        W10122  38.896  18.052   1.210
50862W        W10123   0.891   1.376  13.044
50863W        W10124  21.708   3.316  12.567
50864W        W10125   5.198  23.495   3.758
50865W        W10126  19.070   9.665  13.822
50866W        W10127  42.524   9.291  14.927
50867W        W10128   0.911  29.587  12.846
50868W        W10129   8.248  32.937  11.961
50869W        W10130  42.775  43.439  10.412
50870W        W10131   8.802  12.729  14.901
50871W        W10132  21.740  17.625  13.987
50872W        W10133  18.700   7.394  10.404
50873W        W10134  15.649   0.765   2.737
50874W        W10135  11.340  30.625  10.529
50875W        W10136  28.681  28.175  11.532
50876W        W10137  38.034   2.359  13.857
50877W        W10138  19.127  17.242  10.512
50878W        W10139  31.955  30.551  13.909
50879W        W10140  44.806  40.394   3.203
50880W        W10141  24.578  18.709   0.746
50881W        W10142  26.462  36.357   4.616
50882W        W10143  39.521  13.152  13.467
50883W        W10144  12.295  38.326   3.689
50884W        W10145  24.100  25.493  12.428
50885W        W10146  39.812   0.334   1.845
50886W        W10147  19.284  22.560  13.340
50887W        W10148  39.039  33.531  10.535
50888W        W10149   7.313   9.717   0.737
50889W        W10150   5.804   1.966   3.714
50890W        W10151  36.419  24.020   1.263
50891W        W10152  18.673   3.394  13.904
50892W        W10153  31.103  43.820   1.834
50893W        W10154  11.822  14.818  10.994
50894W        W10155  38.016  31.441   1.863
50895W        W10156  27.185  16.133  13.864
50896W        W10157  35.470   9.280   3.347
50897W        W10158   7.392  20.698  12.913
50898W        W10159  20.595   0.341   2.314
50899W        W10160  20.621  38.029   0.469
50900W        W10161  25.166  32.479   2.765
50901W        W10162   6.379  36.859  13.417
50902W        W10163  43.921  10.815  13.038
50903W        W10164  24.069   5.705  13.802
50904W        W10165  42.418  32.913   3.672
50905W        W10166  44.966   8.833   3.811
50906W        W10167  42.498  44.858   0.888
50907W        W10168  28.581  27.160   3.832
50908W        W10169  17.300  28.101   2.180
50909W        W10170  34.552  27.575   1.354
50910W        W10171  29.621   2.330  13.916
50911W        W10172  19.227  14.677   1.362
50912W        W10173  31.966  12.132   3.817
50913W        W10174  11.667  28.652  13.898
50914W        W10175  43.857   9.730   1.247
50915W        W10176  41.874  11.185   3.666
50916W        W10177  26.487  21.040   1.840
50917W        W10178   2.403  43.955   3.279
50918W        W10179  29.972  41.358   3.686
50919W        W10180  35.967  25.641  12.987
50920W        W10181   7.190  32.514   2.369
50921W        W10182  24.075  13.760   2.886
50922W        W10183  25.477  40.426  14.782
50923W        W10184   2.722   6.234  14.976
50924W        W10185   6.868  33.530  14.804
50925W        W10186  31.512  41.017   3.806
50926W        W10187  18.215  16.708   2.204
50927W        W10188  43.363  24.065  14.393
50928W        W10189   7.418  29.158   3.827
50929W        W10190  38.862  13.801   2.285
50930W        W10191  32.055   5.893   2.894
50931W        W10192  12.303  12.267   2.880
50932W        W10193  17.584  32.093  11.115
50933W        W10194  43.466  37.387  10.449
50934W        W10195  21.173  19.161  14.899
50935W        W10196   6.216  35.945  12.389
50936W        W10197   9.680   6.294  10.432
50937W        W10198   8.282  39.319  13.801
50938W        W10199  41.942  44.487  11.608
50939W        W10200  12.168   5.733   0.904
50940W        W10201  44.405  23.019  11.552
50941W        W10202  26.659  21.230  10.617
50942W        W10203  30.126   8.712   0.381
50943W        W10204  42.874   5.247   4.664
50944W        W10205  13.107  17.207   1.241
50945W        W10206  28.538  44.821  14.862
50946W        W10207  31.503  38.478   0.320
50947W        W10208  26.178  33.397  11.521
50948W        W10209  17.578  31.941   1.290
50949W        W10210   3.332  10.650   3.766
50950W        W10211  44.934  37.513  12.874
50951W        W10212  14.223  25.702  10.547
50952W        W10213  16.569  21.191   4.717
50953W        W10214  13.777  38.046  10.500
50954W        W10215  10.718  16.587   9.987
50955W        W10216  40.004  32.112  10.989
50956W        W10217   9.755  14.299   0.906
50957W        W10218   8.662   7.708  10.575
50958W        W10219   5.382  14.681   1.818
50959W        W10220  40.319  11.776  13.946
50960W        W10221   9.807  44.959  14.406
50961W        W10222  20.716  22.033   3.251
50962W        W10223  34.410  25.034   0.319
50963W        W10224  16.601  15.680  12.448
50964W        W10225  10.222  10.205   1.866
50965W        W10226  15.285  12.340   0.399
50966W        W10227  11.814   8.760   1.819
50967W        W10228  28.968  25.574   3.158
50968W        W10229   3.413  16.183   0.296
50969W        W10230  22.095  13.687   1.379
50970W        W10231  26.009  29.494  12.580
50971W        W10232   2.873  27.520  10.557
50972W        W10233  13.118   3.349  12.524
50973W        W10234  44.979  41.851   3.151
50974W        W10235  11.674  44.955  11.988
50975W        W10236  39.871  22.032   2.367
50976W        W10237  19.677  20.728  13.522
50977W        W10238  35.604  30.585   1.732
50978W        W10239  23.071  44.925   3.818
50979W        W10240   4.286  11.621  14.424
50980W        W10241  21.528  17.766   3.303
50981W        W10242  13.738   0.889   0.763
50982W        W10243   0.748  27.597   4.154
50983W        W10244  22.605  26.096   2.850
50984W        W10245  40.818  14.783  13.034
50985W        W10246  29.436  15.292   1.794
50986W        W10247  36.866  20.052  11.924
50987W        W10248  33.116  31.907   1.399
50988W        W10249  12.309  18.157   4.656
50989W        W10250   0.285  29.926   4.124
50990W        W10251  32.523  29.583   4.281
50991W        W10252  13.666  43.820   4.297
50992W        W10253  28.641  44.467  13.501
50993W        W10254  34.376  44.927  10.630
50994W        W10255  10.812  19.593  12.992
50995W        W10256   9.228   4.830  12.039
50996W        W10257  18.073  31.590  12.901
50997W        W10258  22.052  12.719   2.783
50998W        W10259   1.443  38.955  12.555
50999W        W10260  12.189  40.956   3.296
51000W        W10261  25.976  42.428   0.261
51001W        W10262  12.246  43.383  14.860
51002W        W10263  31.120  39.536  14.858
51003W        W10264  36.546  37.336   0.272
51004W        W10265  27.578  14.223  11.907
51005W        W10266   2.380  23.700  11.374
51006W        W10267  39.054  30.485  13.927
51007W        W10268  29.450  26.190   4.642
51008W        W10269  24.175  40.929   2.294
51009W        W10270  31.445  25.218   1.259
51010W        W10271  19.682  38.002   0.763
51011W        W10272  32.019  44.793   0.404
51012W        W10273   6.259  22.632   4.163
51013W        W10274  40.312  12.288  12.962
51014W        W10275   1.302  28.068  11.969
51015W        W10276  17.700   4.327  12.480
51016W        W10277  20.089  22.096   4.297
51017W        W10278  35.926  42.970  11.577
51018W        W10279  32.501  33.936  10.536
51019W        W10280   7.841  16.659  14.884
51020W        W10281  41.350   0.397  10.940
51021W        W10282  14.114  39.428  14.945
51022W        W10283   5.259  16.804   1.349
51023W        W10284   2.917  34.606   2.849
51024W        W10285  13.294   6.394   3.382
51025W        W10286  39.896  25.159   0.375
51026W        W10287  44.942   1.477   4.218
51027W        W10288   7.739   7.740   5.706
51028W        W10289   3.305  34.510  14.376
51029W        W10290  43.310  32.070   5.315
51030W        W10291  15.225  39.379  13.965
51031W        W10292  13.680  41.536  13.347
51032W        W10293  43.891  12.774   2.366
51033W        W10294  24.584   8.201   2.262
51034W        W10295   0.265  17.194  12.350
51035W        W10296  20.138  16.810  13.024
51036W        W10297  18.061  42.294  11.523
51037W        W10298   0.252  35.575  14.786
51038W        W10299   9.362  32.479  12.072
51039W        W10300  20.769  27.994  11.451
51040W        W10301  43.764   7.387   3.771
51041W        W10302  11.193  39.510   1.705
51042W        W10303  10.146  18.130   3.739
51043W        W10304  16.728   2.812   3.727
51044W        W10305  44.861   6.393  11.611
51045W        W10306   3.236  35.424   0.783
51046W        W10307   3.283   4.339   3.214
51047W        W10308  39.383  22.578  11.558
51048W        W10309  14.709   4.853   2.322
51049W        W10310  38.420  39.341   2.307
51050W        W10311  34.579  41.988   4.332
51051W        W10312   0.842   5.808  12.421
51052W        W10313  33.533  25.146  13.314
51053W        W10314  17.260  13.253  11.578
51054W        W10315  12.183   5.291   4.343
51055W        W10316  33.117  20.687  11.612
51056W        W10317  42.362  20.718  13.012
51057W        W10318  13.329  20.240   1.865
51058W        W10319  25.184  20.252  10.643
51059W        W10320  33.948  44.431  13.343
51060W        W10321  36.873  18.759  10.540
51061W        W10322  10.376   7.302   3.248
51062W        W10323   6.296  31.947   4.210
51063W        W10324   8.183  33.900  10.554
51064W        W10325   4.895  22.550   4.232
51065W        W10326   8.236   8.782  13.536
51066W        W10327  26.026   9.721  13.401
51067W        W10328  17.574  34.868   0.727
51068W        W10329  14.776  39.390  14.403
51069W        W10330  38.394  44.798  14.314
51070W        W10331  13.129  29.003  13.037
51071W        W10332  20.758  25.641   2.896
51072W        W10333  18.732  14.137   4.625
51073W        W10334   2.284  43.809  13.801
51074W        W10335  14.792  22.102   0.870
51075W        W10336  39.007  25.962  13.024
51076W        W10337  26.005  32.606  13.809
51077W        W10338  18.767  31.471  14.904
51078W        W10339  20.715  40.527  13.945
51079W        W10340  25.548   5.702   3.382
51080W        W10341  14.150  12.261   0.315
51081W        W10342  23.101  12.649  12.091
51082W        W10343  33.428  29.531   1.769
51083W        W10344  20.034  19.168   5.117
51084W        W10345  15.645   8.320  11.936
51085W        W10346  36.566   7.821  11.032
51086W        W10347  10.223  26.489   3.208
51087W        W10348  39.467  16.801   2.233
51088W        W10349  31.007  28.533  11.060
51089W        W10350   0.334  27.534  10.564
51090W        W10351  30.989  12.358  14.412
51091W        W10352  18.056  41.898   0.936
51092W        W10353  20.174  44.452   4.186
51093W        W10354  26.044  41.856   3.829
51094W        W10355   6.873  43.324   4.687
51095W        W10356  43.286  11.196   3.765
51096W        W10357  39.333  21.144   3.771
51097W        W10358   3.801  36.852   3.670
51098W        W10359  19.140  13.348  13.010
51099W        W10360  27.643  26.078  10.111
51100W        W10361   4.338  32.444  11.382
51101W        W10362  44.445  41.814  13.868
51102W        W10363  34.049  16.094   2.900
51103W        W10364   0.939  20.721  13.548
51104W        W10365  12.749  23.993  13.521
51105W        W10366  20.123  43.871   3.850
51106W        W10367   2.904  14.835   3.298
51107W        W10368   6.208  36.899   2.697
51108W        W10369  16.183   0.364  14.276
51109W        W10370  15.127   2.742  11.120
51110W        W10371  10.763  29.670  13.444
51111W        W10372   1.879  12.320  10.644
51112W        W10373  23.023  13.835   0.769
51113W        W10374  24.192  12.116  12.913
51114W        W10375  39.333  16.791  11.007
51115W        W10376   5.836  42.797   4.707
51116W        W10377  37.364   2.399   0.277
51117W        W10378  44.482   8.390  12.949
51118W        W10379   1.256  25.468   4.306
51119W        W10380  42.302   5.277   4.818
51120W        W10381  41.789  13.629  13.361
51121W        W10382  28.653  13.313  14.829
51122W        W10383  38.472  10.660   4.229
51123W        W10384  25.648  40.386   1.887
51124W        W10385  12.676  17.740   3.287
51125W        W10386  42.516   0.816  14.311
51126W        W10387   5.805  28.552  13.991
51127W        W10388  31.025  33.534  13.881
51128W        W10389  16.148  39.377   0.295
51129W        W10390  20.254  22.998   1.258
51130W        W10391   1.924   3.953  11.585
51131W        W10392  42.894  39.524  11.438
51132W        W10393   8.857  40.016  14.331
51133W        W10394   1.400  38.033   4.654
51134W        W10395  26.698  17.567  13.334
51135W        W10396  42.825   4.336   0.410
51136W        W10397   4.282   2.752   1.732
51137W        W10398  10.804  28.510   0.353
51138W        W10399  38.934  33.566   3.159
51139W        W10400   3.953   4.803   2.824
51140W        W10401  11.282  35.493  14.800
51141W        W10402  18.722  42.831   1.742
51142W        W10403  38.941  29.126   4.225
51143W        W10404   9.725  26.054  11.945
51144W        W10405  30.112  13.118  14.482
51145W        W10406  43.778  41.979  11.610
51146W        W10407  17.074  23.539   4.787
51147W        W10408   3.831  43.378   0.335
51148W        W10409  18.157  39.364   3.666
51149W        W10410   2.898   9.877  13.324
51150W        W10411  29.026  27.040  14.783
51151W        W10412  33.441  10.700   1.437
51152W        W10413  22.712   2.944   0.840
51153W        W10414  35.483  21.158  12.376
51154W        W10415   4.840  39.314   3.160
51155W        W10416  37.578   7.320  12.532
51156W        W10417  26.152  29.926   3.764
51157W        W10418   8.862   7.403  11.076
51158W        W10419  18.709   6.263   5.272
51159W        W10420   5.853   9.204   5.200
51160W        W10421   3.861  26.473  11.505
51161W        W10422   6.330  38.526  12.489
51162W        W10423   8.302  26.975   4.671
51163W        W10424  15.161   1.775  13.501
51164W        W10425  16.731  11.828  11.914
51165W        W10426   4.702  17.789  14.507
51166W        W10427  27.066  25.992  12.473
51167W        W10428  40.435  42.449   0.959
51168W        W10429  20.144  40.456  11.576
51169W        W10430  36.579  14.096   4.143
51170W        W10431   6.251   1.442   3.214
51171W        W10432  15.636  33.989  13.971
51172W        W10433  13.209  23.131  11.603
51173W        W10434  21.710  39.944  13.347
51174W        W10435  38.556   5.913   0.762
51175W        W10436   1.766  10.341  12.427
51176W        W10437   1.264   8.659   3.687
51177W        W10438  37.412  42.412   0.352
51178W        W10439   3.292   8.327   4.713
51179W        W10440  18.073   2.386   3.667
51180W        W10441  13.133   5.348   4.730
51181W        W10442  42.787   5.767  14.286
51182W        W10443  34.946  33.904   0.400
51183W        W10444  21.018   5.840   1.877
51184W        W10445  11.705   0.372   1.246
51185W        W10446  30.050  17.130  14.890
51186W        W10447  23.497  10.645  14.838
51187W        W10448  29.157  10.289   2.675
51188W        W10449  28.456  30.149   4.648
51189W        W10450   1.826  16.690   4.626
51190W        W10451  33.568   7.410   4.218
51191W        W10452  16.265   8.684  10.549
51192W        W10453  24.724  33.881   4.218
51193W        W10454  39.912  12.722  10.968
51194W        W10455  30.057  28.130   1.888
51195W        W10456   3.942  25.629   3.193
51196W        W10457  39.817  41.828  12.568
51197W        W10458  16.577  40.970   2.852
51198W        W10459  34.936  19.576  10.122
51199W        W10460   3.313  42.865  12.493
51200W        W10461  16.317  14.292   3.646
51201W        W10462  19.650  39.047   2.764
51202W        W10463  19.631  15.800   0.353
51203W        W10464  14.127  27.606  11.520
51204W        W10465  32.987  39.938  10.156
51205W        W10466   2.283  34.886   3.642
51206W        W10467  17.766  22.198   0.828
51207W        W10468  19.560  17.631   2.767
51208W        W10469  20.690  19.166  12.438
51209W        W10470   4.866  11.311   1.704
51210W        W10471  33.402  34.451   3.824
51211W        W10472   7.323  21.097   4.122
51212W        W10473  14.617  29.943   0.392
51213W        W10474  36.493  26.474   4.608
51214W        W10475   6.706  23.666   4.731
51215W        W10476  18.145  18.720   5.238
51216W        W10477  20.096  22.184   3.338
51217W        W10478  39.965   8.834   4.289
51218W        W10479  13.785  24.105   2.327
51219W        W10480  33.038  33.419  10.971
51220W        W10481  23.542   9.654  13.869
51221W        W10482  38.431  28.002  14.514
51222W        W10483  37.541  40.438   4.353
51223W        W10484   3.928  34.560  12.826
51224W        W10485  33.090  28.144  12.013
51225W        W10486  21.160  12.248   1.738
51226W        W10487   2.465  30.566   2.331
51227W        W10488  34.530  32.111  14.421
51228W        W10489  32.027  16.709  13.035
51229W        W10490  12.681  33.498   3.292
51230W        W10491  20.175  29.078  10.485
51231W        W10492  21.161  12.317  14.282
51232W        W10493  32.971  32.909   0.768
51233W        W10494  32.582  20.209  12.041
51234W        W10495   6.688  41.330  13.989
51235W        W10496  36.443  12.256  12.091
51236W        W10497  18.598  28.539   1.392
51237W        W10498  12.718  43.348   3.213
51238W        W10499  26.121   0.938  12.095
51239W        W10500  21.184   5.315  12.077
51240W        W10501  18.732  23.172  11.539
51241W        W10502   3.460  26.595  13.540
51242W        W10503  36.909  39.909   4.826
51243W        W10504  44.423  11.633  10.449
51244W        W10505  35.069   0.351   0.743
51245W        W10506  26.130  41.493  11.442
51246W        W10507  21.564  41.499  10.576
51247W        W10508  36.515  23.652   0.853
51248W        W10509  14.244  41.829  14.808
51249W        W10510  43.341  37.582   1.336
51250W        W10511   8.750  26.006  11.449
51251W        W10512  21.216  11.259   2.672
51252W        W10513  15.175  44.991   2.766
51253W        W10514   5.286  11.761  14.773
51254W        W10515  39.875  17.305  11.601
51255W        W10516  24.510  26.519   5.566
51256W        W10517  11.352  25.545  14.334
51257W        W10518   5.888  10.699   3.815
51258W        W10519  20.100  22.114  14.400
51259W        W10520   1.843   5.231   0.854
51260W        W10521   3.240  18.111   1.886
51261W        W10522  23.142   2.452  13.957
51262W        W10523   0.257  29.441   4.620
51263W        W10524  20.272  26.129  10.603
51264W        W10525   4.354  43.401   3.202
51265W        W10526   3.291   3.782  12.916
51266W        W10527  41.888   1.356  14.345
51267W        W10528  35.516  18.273  10.452
51268W        W10529  23.554  36.452   3.145
51269W        W10530   1.289  33.596   4.599
51270W        W10531  24.216  27.668   1.708
51271W        W10532  18.738   2.461  14.422
51272W        W10533  32.409   2.751   3.153
51273W        W10534  21.740  15.091  14.394
51274W        W10535   4.854   1.261   0.748
51275W        W10536  10.156   8.322  12.368
51276W        W10537   6.216  28.588   2.382
51277W        W10538  28.093   2.878  12.557
51278W        W10539   2.315  16.788   4.260
51279W        W10540  30.106  12.117   4.825
51280W        W10541   1.760  27.593  13.457
51281W        W10542  10.829  16.292   2.306
51282W        W10543  42.449  14.278  14.365
51283W        W10544  42.352  24.496  14.973
51284W        W10545  18.224  29.568   0.761
51285W        W10546  11.727  43.999  14.413
51286W        W10547  16.277  24.993   1.410
51287W        W10548   0.262  42.934   3.753
51288W        W10549  34.518  32.611   1.236
51289W        W10550  10.208  40.041   2.190
51290W        W10551  18.659  14.826   3.842
51291W        W10552  34.534  15.288   5.283
51292W        W10553  40.401  26.607  12.950
51293W        W10554  42.835  25.060   2.379
51294W        W10555   0.353  21.712   1.287
51295W        W10556  35.956  35.957   0.844
51296W        W10557   0.935   1.949  14.950
51297W        W10558  24.181  40.977   0.311
51298W        W10559   8.882  12.187   2.674
51299W        W10560  26.575  35.561  12.934
51300W        W10561  14.127  10.690  13.965
51301W        W10562  38.010  43.453   2.888
51302W        W10563  40.338  14.633  12.520
51303W        W10564   5.283  14.208   4.732
51304W        W10565   2.303  12.342   2.745
51305W        W10566   8.395  37.518   3.168
51306W        W10567  41.849  11.289  10.420
51307W        W10568  26.060  30.515  12.035
51308W        W10569   9.871  22.640   4.339
51309W        W10570  42.922  37.466  10.938
51310W        W10571   8.664  35.373   3.721
51311W        W10572  20.742  34.055  12.002
51312W        W10573  34.958  21.069   0.454
51313W        W10574  12.753   7.741   1.376
51314W        W10575  30.441  20.753  11.504
51315W        W10576   0.982  26.535  13.878
51316W        W10577  15.665   7.820  10.584
51317W        W10578  28.503  42.922   1.325
51318W        W10579  18.589  42.481  13.322
51319W        W10580  15.712  13.811   3.729
51320W        W10581   3.254  14.251  12.945
51321W        W10582  40.805   7.786  11.530
51322W        W10583  35.546   4.289   2.793
51323W        W10584   6.704   4.219  14.462
51324W        W10585  33.978  16.248   1.402
51325W        W10586  44.794  29.498   2.407
51326W        W10587  34.885  33.615   2.830
51327W        W10588  29.468  32.500   1.437
51328W        W10589  37.955  43.008   1.818
51329W        W10590  31.923  39.546  12.869
51330W        W10591   5.878  27.948   1.704
51331W        W10592  11.652  36.090  13.045
51332W        W10593  11.278  37.418  11.590
51333W        W10594  17.246   9.154  12.020
51334W        W10595  27.491  39.065   1.726
51335W        W10596  39.050  28.973  14.020
51336W        W10597  36.349   5.396   1.298
51337W        W10598   3.915   1.962  11.960
51338W        W10599  22.723   7.876   0.395
51339W        W10600  11.850  17.237  14.903
51340W        W10601  18.708   3.754   3.630
51341W        W10602  18.633  17.790   3.271
51342W        W10603  23.089  32.525  12.483
51343W        W10604  22.500  13.778  10.554
51344W        W10605  14.728  37.390   4.731
51345W        W10606  17.127   7.732   2.898
51346W        W10607  16.614   4.443   3.359
51347W        W10608  32.108  35.912  13.815
51348W        W10609  20.085  27.519   5.756
51349W        W10610  22.206  26.176  14.767
51350W        W10611   8.789   0.397   4.666
51351W        W10612  17.233  23.228  14.354
51352W        W10613  15.773  15.776   2.261
51353W        W10614  19.160  27.626  10.614
51354W        W10615  13.814  17.649   4.610
51355W        W10616  21.675  44.307   0.780
51356W        W10617   9.207  37.017   4.205
51357W        W10618   3.388  33.496  10.919
51358W        W10619  42.025   1.253   3.843
51359W        W10620   5.385  21.734  12.502
51360W        W10621  25.973  44.487  10.609
51361W        W10622  44.980  27.604   0.395
51362W        W10623  18.190  43.013   2.887
51363W        W10624   5.350   0.974   4.640
51364W        W10625  33.026  15.630   2.682
51365W        W10626  31.610  36.959  11.385
51366W        W10627   5.233  28.167  14.777
51367W        W10628   8.357  19.713   2.701
51368W        W10629  34.490   8.165   4.737
51369W        W10630  22.247  18.140   3.642
51370W        W10631  34.405   4.721   0.841
51371W        W10632   4.775  33.560  14.924
51372W        W10633   9.789  17.766   1.869
51373W        W10634  10.822  26.536   0.910
51374W        W10635  21.167   3.329  11.594
51375W        W10636  14.275  31.084  10.423
51376W        W10637   8.366   3.768   3.277
51377W        W10638  36.479   7.798  12.902
51378W        W10639  33.042   2.367   1.875
51379W        W10640  13.792  22.637   4.161
51380W        W10641  12.661  42.028   1.879
51381W        W10642  44.290  24.683  14.931
51382W        W10643  31.454  34.411  12.356
51383W        W10644  26.657  16.127  14.413
51384W        W10645   7.774  43.864  13.461
51385W        W10646  19.535  13.702   2.206
51386W        W10647  24.713  28.001  10.419
51387W        W10648  15.244   2.452   2.690
51388W        W10649  36.087   4.907  14.882
51389W        W10650  43.325  17.755   1.252
51390W        W10651  42.350  30.099  14.814
51391W        W10652  22.553  15.131  13.841
51392W        W10653   9.355  29.167  10.899
51393W        W10654  32.119  20.048  14.443
51394W        W10655  29.510  44.843  11.081
51395W        W10656  40.927  15.128   2.222
51396W        W10657  26.994  44.444  13.845
51397W        W10658  34.430  29.462   4.781
51398W        W10659   7.347  21.087  13.374
51399W        W10660   4.742  30.060  10.959
51400W        W10661  31.586   9.168   1.438
51401W        W10662  33.554  16.736   4.808
51402W        W10663  17.699  37.482  11.963
51403W        W10664  28.999  21.657   0.405
51404W        W10665  13.149   0.931   3.790
51405W        W10666  19.694  13.146  12.013
51406W        W10667  35.974  41.435   2.298
51407W        W10668  23.096   8.776  13.402
51408W        W10669  19.756  18.718   3.759
51409W        W10670   8.840  33.441  12.857
51410W        W10671  43.409  14.315  10.446
51411W        W10672  39.877   3.850  14.315
51412W        W10673  30.142   1.239  10.891
51413W        W10674  18.744  23.009  10.959
51414W        W10675  27.579  33.057   0.290
51415W        W10676  40.355   6.776   1.722
51416W        W10677  15.263  11.280   2.228
51417W        W10678  19.598  34.996  12.045
51418W        W10679  40.441  34.093   3.237
51419W        W10680   9.287  39.826   1.269
51420W        W10681   1.760  14.319  13.416
51421W        W10682   4.275   3.389  11.121
51422W        W10683  30.591   6.191  10.437
51423W        W10684  22.548   3.280   1.926
51424W        W10685  18.736   5.396   3.269
51425W        W10686  39.836  25.656   3.308
51426W        W10687  39.540  31.532   4.233
51427W        W10688   0.962  33.945   1.782
51428W        W10689  32.547  21.165   2.346
51429W        W10690  41.489  38.499   4.721
51430W        W10691   9.789   3.800   3.357
51431W        W10692  19.739  23.652   0.778
51432W        W10693  28.552   3.767  14.769
51433W        W10694   0.327  30.922  13.909
51434W        W10695  26.498   5.783   3.359
51435W        W10696  21.133  15.327  13.979
51436W        W10697  17.752  17.264   2.693
51437W        W10698  25.121  27.623  10.506
51438W        W10699  35.408  36.501   0.328
51439W        W10700  41.323   1.472  13.375
51440W        W10701  36.924   2.380  10.900
51441W        W10702  44.907  38.031  12.955
51442W        W10703  39.457  34.424  13.362
51443W        W10704  43.932  23.191   3.378
51444W        W10705   0.374  20.579   0.847
51445W        W10706   8.294  19.268  13.318
51446W        W10707  39.390  38.525  11.931
51447W        W10708  39.928   4.799  14.350
51448W        W10709  34.503  37.458  11.539
51449W        W10710  10.732  21.636   3.385
51450W        W10711  17.802  26.558  11.991
51451W        W10712  32.959  21.662  12.071
51452W        W10713  42.929   9.159  14.844
51453W        W10714  22.127   9.361   3.229
51454W        W10715  14.116  43.963  13.309
51455W        W10716   0.753  43.291   1.276
51456W        W10717  17.176  43.888   4.333
51457W        W10718  16.810  19.735  14.842
51458W        W10719  37.539  38.478  13.001
51459W        W10720  28.094  25.489  10.433
51460W        W10721  17.066  28.456   1.720
51461W        W10722  34.866   8.715  10.097
51462W        W10723  17.769  42.446  12.864
51463W        W10724  12.834  18.714   3.294
51464W        W10725   5.925  10.197  10.626
51465W        W10726   5.755   6.729   9.995
51466W        W10727  36.376  37.499  14.933
51467W        W10728  16.598  15.162  11.464
51468W        W10729  35.489  41.323  11.024
51469W        W10730  28.467   9.722   0.958
51470W        W10731  17.134  28.486   0.331
51471W        W10732  19.265  29.459   2.771
51472W        W10733  10.768   4.937   3.290
51473W        W10734  19.216  26.993  13.525
51474W        W10735  21.217  21.029   0.802
51475W        W10736  43.394   8.727   0.284
51476W        W10737   8.253  39.858  11.910
51477W        W10738  29.068  22.633  14.856
51478W        W10739  14.813  38.910  14.417
51479W        W10740  37.976   7.853  14.019
51480W        W10741  24.187  41.372   5.176
51481W        W10742  34.594   0.289   1.418
51482W        W10743  17.115  10.653  13.513
51483W        W10744  35.441  44.776   3.786
51484W        W10745  28.658   3.325   0.732
51485W        W10746  39.452  35.018  14.283
51486W        W10747  24.035  37.402   0.892
51487W        W10748  37.009  12.801   3.820
51488W        W10749  37.016  19.271   4.127
51489W        W10750  42.298  33.536  10.113
51490W        W10751  16.206  35.468  14.312
51491W        W10752   2.751  12.752   4.247
51492W        W10753  26.185  36.005  11.121
51493W        W10754  18.554  34.908   2.194
51494W        W10755  22.725   3.743   4.670
51495W        W10756   2.384   0.885   4.301
51496W        W10757  24.648  39.001   4.797
51497W        W10758  19.772   4.885   4.183
51498W        W10759  31.143  24.981  14.493
51499W        W10760  21.169   2.314  12.482
51500W        W10761  38.509  21.545   0.393
51501W        W10762  17.636  42.490   2.781
51502W        W10763  30.532  32.526   4.763
51503W        W10764  37.568  16.244  14.327
51504W        W10765  31.929  44.943   2.284
51505W        W10766  32.970  37.844   1.767
51506W        W10767  24.148   7.772  12.353
51507W        W10768  14.761  44.297  13.512
51508W        W10769  25.157  37.574   3.758
51509W        W10770  32.014  15.130   4.220
51510W        W10771  39.901  24.528   4.219
51511W        W10772  18.693   8.301   1.362
51512W        W10773   4.715  16.212  10.474
51513W        W10774  27.008  34.540  10.083
51514W        W10775  10.687  44.401   1.790
51515W        W10776  30.419  19.239  13.475
51516W        W10777  30.946  15.300   0.919
51517W        W10778  21.661  44.505  14.815
51518W        W10779   4.449   3.461  11.980
51519W        W10780  25.987  10.180   4.604
51520W        W10781  26.696  31.645   4.605
51521W        W10782  32.542  43.901   4.319
51522W        W10783   3.891  42.884  11.882
51523W        W10784  20.689  26.114   4.120
51524W        W10785  32.465  15.166   3.720
51525W        W10786  19.097   7.352   0.890
51526W        W10787  27.447  15.737   0.736
51527W        W10788  16.314   2.926   0.440
51528W        W10789  23.058   8.183   1.930
51529W        W10790  25.139  42.962   3.843
51530W        W10791   6.757   9.723   2.736
51531W        W10792  28.645  18.750   2.350
51532W        W10793   6.688   6.227  14.009
51533W        W10794  29.613  42.333  11.128
51534W        W10795  36.891  43.857  14.374
51535W        W10796  39.846   5.199   4.281
51536W        W10797  25.566  30.036   4.264
51537W        W10798  12.235  34.039  14.433
51538W        W10799  21.575  10.245  10.101
51539W        W10800  13.273  10.291   1.339
51540W        W10801  26.466   3.815  11.912
51541W        W10802  24.975  13.119   4.763
51542W        W10803  26.688   9.372   1.822
51543W        W10804  27.191  24.681   4.624
51544W        W10805  24.069  26.058   4.708
51545W        W10806  12.636  28.675   3.219
51546W        W10807   1.751  37.429  12.391
51547W        W10808  34.112  39.389  10.461
51548W        W10809   2.763  41.510   0.399
51549W        W10810  32.934  37.939  10.155
51550W        W10811  21.577  39.431   1.899
51551W        W10812  39.860  20.768  14.769
51552W        W10813   0.936  39.380  11.467
51553W        W10814  15.293  15.203   0.362
51554W        W10815   7.705   8.706  12.838
51555W        W10816  24.186  28.002  13.054
51556W        W10817   5.438  32.135   0.875
51557W        W10818   6.221  15.662   3.828
51558W        W10819  11.365  28.474  11.477
51559W        W10820   9.292  24.706  14.363
51560W        W10821  12.218  19.266   0.443
51561W        W10822  39.870   9.888  12.950
51562W        W10823   5.840  10.800   0.436
51563W        W10824   5.293  27.642  13.381
51564W        W10825  38.423  23.124   2.865
51565W        W10826  12.802  27.145  10.642
51566W        W10827  10.650   7.207  12.981
51567W        W10828  32.622  11.242   5.166
51568W        W10829  21.218   9.366   5.099
51569W        W10830  42.381  39.460  14.946
51570W        W10831   9.651  15.145   1.906
51571W        W10832  42.480  41.293  10.557
51572W        W10833  14.814  34.416  11.869
51573W        W10834  14.340  18.746   1.355
51574W        W10835  17.214  23.116  13.309
51575W        W10836   0.297  33.026   3.827
51576W        W10837  21.702  41.038   4.737
51577W        W10838  26.617  16.106   2.779
51578W        W10839  17.581  38.976   2.850
51579W        W10840  21.048  12.179  12.979
51580W        W10841  33.087  29.974  13.892
51581W        W10842  39.555  18.599   0.830
51582W        W10843  35.855  39.970   2.304
51583W        W10844   8.348  32.932  14.482
51584W        W10845  43.450  15.217  13.974
51585W        W10846  16.625  44.463  13.816
51586W        W10847  10.789  26.207   0.783
51587W        W10848  35.066  33.607  10.016
51588W        W10849  32.542  25.151  10.929
51589W        W10850  18.107  40.895  13.031
51590W        W10851   1.768  13.212  14.318
51591W        W10852   0.396  21.251   4.768
51592W        W10853  40.911  13.119   1.874
51593W        W10854   5.783  26.016  12.024
51594W        W10855  39.046  20.705  11.973
51595W        W10856  40.530  29.520  12.977
51596W        W10857  34.592  33.595  13.842
51597W        W10858  33.893  31.930  12.372
51598W        W10859  42.465   5.287  10.607
51599W        W10860  10.365  19.218  12.995
51600W        W10861  29.003  11.268   4.600
51601W        W10862  10.707  29.566  14.290
51602W        W10863  31.591  18.123   0.840
51603W        W10864   8.875  42.506   4.635
51604W        W10865  30.653  34.095  11.443
51605W        W10866  19.566  14.316  13.819
51606W        W10867  42.002   9.661   1.283
51607W        W10868  18.572   5.244  12.023
51608W        W10869  15.819  35.093   2.741
51609W        W10870  38.892  28.979  14.314
51610W        W10871  27.173  29.114  12.518
51611W        W10872  31.916  22.204   1.753
51612W        W10873  37.960  43.976   2.859
51613W        W10874  11.679  12.216   9.590
51614W        W10875  44.981  30.075   4.138
51615W        W10876  29.446  31.128   0.316
51616W        W10877   9.377  41.442  11.602
51617W        W10878  22.135  18.747   4.615
51618W        W10879  23.611   0.463  12.372
51619W        W10880  44.266   7.787   3.264
51620W        W10881  25.704  39.038  13.314
51621W        W10882   0.836  30.527   4.305
51622W        W10883  41.788  18.737  11.899
51623W        W10884  19.282   7.222   1.313
51624W        W10885  43.348  23.648   0.966
51625W        W10886  27.571  41.935  10.984
51626W        W10887  23.146   6.305  14.930
51627W        W10888   3.821  22.216   0.882
51628W        W10889  11.195   4.813   0.391
51629W        W10890  31.495  22.082   4.787
51630W        W10891  21.692  37.893   3.264
51631W        W10892  37.946  21.204   0.739
51632W        W10893  43.021  25.659  12.882
51633W        W10894  16.219  38.975  14.792
51634W        W10895  33.977  21.739   1.374
51635W        W10896  42.803  26.015   4.704
51636W        W10897  15.235  26.690  13.827
51637W        W10898   5.221  42.458  13.860
51638W        W10899  23.001  19.197  13.997
51639W        W10900  28.938  42.488  11.600
51640W        W10901  35.060  22.575   3.663
51641W        W10902  14.742  24.974  12.961
51642W        W10903  41.022   4.414  11.599
51643W        W10904  30.530  27.983  12.011
51644W        W10905  34.471   9.861  14.337
51645W        W10906  10.220  16.775  11.107
51646W        W10907  15.133  20.660  14.902
51647W        W10908  16.573   4.416   4.826
51648W        W10909  23.666   2.818  13.923
51649W        W10910  34.915  44.421  11.037
51650W        W10911   4.929   8.888   0.401
51651W        W10912  40.543  35.418   1.904
51652W        W10913  19.599   5.835   4.343
51653W        W10914  33.620  42.787   1.281
51654W        W10915  34.526  28.982  14.975
51655W        W10916   7.411  26.034  13.922
51656W        W10917  25.104   0.885  14.803
51657W        W10918   8.881   0.361   1.780
51658W        W10919  33.951  26.512  10.149
51659W        W10920  39.455  42.875   1.703
51660W        W10921  26.463  18.601  12.881
51661W        W10922  15.635  27.061   4.123
51662W        W10923  33.380  23.723   3.224
51663W        W10924  10.835   8.704   1.323
51664W        W10925  35.409  43.855  11.948
51665W        W10926  34.451   4.706   1.397
51666W        W10927  23.127  14.835  14.933
51667W        W10928  23.225  11.155  14.490
51668W        W10929  36.356  10.252   4.322
51669W        W10930  37.457  39.345  12.411
51670W        W10931   9.259  21.548   4.725
51671W        W10932   9.362  43.382   3.702
51672W        W10933  33.562  20.659  10.925
51673W        W10934  34.974   5.852   2.883
51674W        W10935  37.578  19.675  10.485
51675W        W10936  31.946  22.680   3.865
51676W        W10937  35.995   6.245  11.484
51677W        W10938   2.745  37.452  11.117
51678W        W10939   9.694  13.232   4.300
51679W        W10940  20.151  33.424  10.990
51680W        W10941  36.014  41.534  12.352
51681W        W10942  34.459   3.413  14.882
51682W        W10943  24.708  12.848  13.830
51683W        W10944  26.636  24.005  13.444
51684W        W10945  15.720  20.072  10.137
51685W        W10946  20.586  35.098  14.304
51686W        W10947  35.008  18.726   3.310
51687W        W10948  41.459   5.437  12.884
51688W        W10949  24.694  27.018   2.767
51689W        W10950  43.382  32.626   1.720
51690W        W10951  28.039   9.328   0.480
51691W        W10952  34.050  38.490   4.172
51692W        W10953  37.525  11.234   0.410
51693W        W10954   3.709  16.724   1.277
51694W        W10955  36.421  15.181   4.836
51695W        W10956   9.801   9.868  11.992
51696W        W10957  18.674   3.870   3.264
51697W        W10958  14.140  28.131   4.286
51698W        W10959   6.753  38.834  11.471
51699W        W10960  37.453  16.647   0.818
51700W        W10961  28.100  22.052  12.904
51701W        W10962  29.175   7.402   3.162
51702W        W10963  21.663  42.997  13.364
51703W        W10964   3.751  27.994   9.963
51704W        W10965  12.636   8.237   0.779
51705W        W10966   6.224  19.571  13.017
51706W        W10967  43.446  20.539  12.070
51707W        W10968  20.709  38.360   4.811
51708W        W10969   7.720   6.384  11.476
51709W        W10970  12.664   5.807   9.956
51710W        W10971   7.860   6.815  13.052
51711W        W10972  17.671  17.640   3.350
51712W        W10973  34.003  29.459  10.527
51713W        W10974   8.883  12.230   4.325
51714W        W10975  43.287  12.815   3.368
51715W        W10976   2.778   8.386  11.998
51716W        W10977  14.151  42.414   1.727
51717W        W10978   3.411  17.101   0.935
51718W        W10979  14.766  18.630   3.735
51719W        W10980  22.539   8.250   3.345
51720W        W10981   4.266  22.722   3.847
51721W        W10982  33.427  24.513  11.066
51722W        W10983  22.135  16.598   0.311
51723W        W10984   8.809  25.994  10.922
51724W        W10985   7.416   4.827   0.328
51725W        W10986   8.853  16.610  12.872
51726W        W10987  42.782  30.909   4.250
51727W        W10988   4.353  23.700  14.949
51728W        W10989  24.055   3.365  13.849
51729W        W10990  15.207  43.436   4.806
51730W        W10991  29.039  22.053   3.373
51731W        W10992   8.308  36.565   3.307
51732W        W10993   8.864  38.046   0.857
51733W        W10994   7.693  34.936  11.524
51734W        W10995  16.718   8.266   3.812
51735W        W10996  38.016  32.091   5.669
51736W        W10997  41.930  44.269  11.873
51737W        W10998  25.003  10.809   1.888
51738W        W10999  29.104  42.525  14.928
51739W        W11000  12.133  11.223  13.395
51740W        W11001   7.742  22.701  13.454
51741W        W11002  31.033   8.392   0.424
51742W        W11003  42.810  34.553   3.378
51743W        W11004  25.200   5.301   3.211
51744W        W11005  33.504  37.570   0.930
51745W        W11006   5.836  14.660  12.443
51746W        W11007   9.699  18.733  11.527
51747W        W11008  26.619  23.096  10.959
51748W        W11009  12.804  41.501  14.852
51749W        W11010  16.742  28.510  10.508
51750W        W11011  40.394  31.529  13.916
51751W        W11012  43.331  14.830  14.849
51752W        W11013   5.813  43.406  14.829
51753W        W11014  28.931   6.811  11.392
51754W        W11015  35.027  28.064   5.236
51755W        W11016   8.385   0.858   0.747
51756W        W11017  20.643  36.377  12.384
51757W        W11018  27.546  41.960  14.437
51758W        W11019   7.880  28.596  13.822
51759W        W11020  27.097   1.974  11.373
51760W        W11021  11.686   1.254  13.052
51761W        W11022  15.796  30.919  12.977
51762W        W11023  11.678   2.960   2.729
51763W        W11024   8.746  31.469   0.923
51764W        W11025   9.251  30.970   2.755
51765W        W11026  21.203  41.928  11.956
51766W        W11027   0.439  21.579   0.734
51767W        W11028  23.558  24.139  13.321
51768W        W11029  31.611  22.012  13.472
51769W        W11030   8.864  28.488  11.596
51770W        W11031   9.198  21.214   3.658
51771W        W11032  20.201  14.599  13.828
51772W        W11033  21.522  37.503  13.793
51773W        W11034  42.474  22.133  10.495
51774W        W11035  39.971  25.491   2.750
51775W        W11036  38.331  20.652   3.768
51776W        W11037  29.483  35.874  13.376
51777W        W11038  11.298  23.124   0.780
51778W        W11039  32.138   7.279   4.329
51779W        W11040  42.954  40.881  14.321
51780W        W11041  12.784  20.162   1.831
51781W        W11042   1.243  16.627  13.003
51782W        W11043  34.548  28.015  13.454
51783W        W11044  31.146  20.658   1.258
51784W        W11045  19.716  24.140  13.816
51785W        W11046   4.232  14.713  13.424
51786W        W11047   9.220  12.706   4.287
51787W        W11048  43.013  39.811   0.443
51788W        W11049  22.638  39.538   2.734
51789W        W11050  14.730   2.355  14.016
51790W        W11051  34.948  15.636   5.167
51791W        W11052  21.178   7.238   3.300
51792W        W11053   3.781  11.651  12.009
51793W        W11054  36.367  15.135  13.015
51794W        W11055  22.572  35.480   1.326
51795W        W11056  43.923  38.488   3.716
51796W        W11057   5.797   4.241   1.362
51797W        W11058  31.567  29.510  14.404
51798W        W11059  36.935  15.818  12.911
51799W        W11060  43.819  25.180   1.786
51800W        W11061   0.465  34.981  12.941
51801W        W11062  26.550  11.152  12.529
51802W        W11063  15.135   5.890  13.790
51803W        W11064   4.373  21.092   1.766
51804W        W11065  38.406  34.034  10.471
51805W        W11066  29.047  30.591   1.412
51806W        W11067  12.658  31.040  14.478
51807W        W11068  18.295  33.549   3.324
51808W        W11069  35.876  19.764  12.935
51809W        W11070  24.613  29.491  13.949
51810W        W11071  10.741  10.770  12.969
51811W        W11072  15.272  17.078  13.948
51812W        W11073  11.221  16.254   4.304
51813W        W11074  40.373  18.680  10.576
51814W        W11075   2.966   3.917   4.802
51815W        W11076  35.072  19.066  13.962
51816W        W11077  36.873  26.062  14.469
51817W        W11078  40.051  40.465  10.518
51818W        W11079  28.006  43.898   2.757
51819W        W11080  16.200   5.300  10.944
51820W        W11081   4.831  32.543   0.756
51821W        W11082  33.438  30.127  10.461
51822W        W11083  42.844  20.656   0.298
51823W        W11084  37.448  36.566  11.865
51824W        W11085  26.206  35.577   1.908
51825W        W11086  15.106  16.279   2.851
51826W        W11087  42.924   7.323  11.126
51827W        W11088   3.367  32.622  11.910
51828W        W11089  14.235   3.281  12.881
51829W        W11090  38.852  25.187   1.757
51830W        W11091  22.662  44.757  13.021
51831W        W11092   6.277   6.310  11.449
51832W        W11093  41.960  23.619   2.358
51833W        W11094  18.608  10.857  12.349
51834W        W11095  43.272  15.313   2.735
51835W        W11096   0.472  16.101   2.198
51836W        W11097  34.564  40.347   4.737
51837W        W11098  27.162   9.882   0.818
51838W        W11099  13.183  41.949  13.936
51839W        W11100  30.612  23.681   3.199
51840W        W11101   6.787  36.348  14.880
51841W        W11102  39.979  43.867   2.704
51842W        W11103   7.261  15.588  14.460
51843W        W11104  44.419  25.631  13.393
51844W        W11105  34.893  12.775   5.285
51845W        W11106  26.606   1.435  12.016
51846W        W11107  21.550  29.460   4.832
51847W        W11108  21.143   3.300  11.118
51848W        W11109   8.838  34.940   3.725
51849W        W11110  17.675  43.864   2.305
51850W        W11111   2.445   1.867  12.857
51851W        W11112  16.287  26.558  14.380
51852W        W11113  16.795   4.712   0.476
51853W        W11114  23.490  16.662  11.580
51854W        W11115  35.501  17.077   2.200
51855W        W11116   9.687  26.684  11.070
51856W        W11117   9.702  22.219   1.894
51857W        W11118  14.322  13.646   3.836
51858W        W11119  38.977   7.724   1.447
51859W        W11120   4.923  32.473  13.864
51860W        W11121   9.181   8.893  10.576
51861W        W11122  24.722  25.559  11.551
51862W        W11123  28.525   9.295  14.450
51863W        W11124   0.890  35.934  13.840
51864W        W11125  21.755  38.331   3.380
51865W        W11126  26.616  33.020  14.933
51866W        W11127  23.508  36.028  13.307
51867W        W11128   7.884  34.449  12.366
51868W        W11129   5.331  27.590   2.342
51869W        W11130  43.339  38.355  14.471
51870W        W11131  20.753   1.251  13.510
51871W        W11132  34.045  32.420  14.940
51872W        W11133  21.057  24.074   4.761
51873W        W11134  24.224   9.739   1.905
51874W        W11135  39.462  30.046   1.385
51875W        W11136  27.499  32.115  11.568
51876W        W11137  37.912   1.749  14.474
51877W        W11138  43.284   5.397  14.812
51878W        W11139  37.577  16.747   0.406
51879W        W11140   4.727  33.509   1.716
51880W        W11141  36.856  25.665   3.747
51881W        W11142  14.805  15.640   0.943
51882W        W11143  29.444  19.736   4.667
51883W        W11144   3.316   2.876  11.602
51884W        W11145  36.950  22.093  11.975
51885W        W11146  14.613   6.220   1.734
51886W        W11147  42.481   1.396   4.140
51887W        W11148   3.766   6.741  14.870
51888W        W11149  23.636   1.420  13.400
51889W        W11150  41.501  39.819  12.067
51890W        W11151   1.791  31.549   2.823
51891W        W11152  29.452  32.900   1.437
51892W        W11153  30.634  34.000  10.442
51893W        W11154  41.511  35.964  11.968
51894W        W11155  31.630   6.358  14.323
51895W        W11156  32.015   9.379  12.045
51896W        W11157   6.895   4.365   0.898
51897W        W11158  32.543  24.218   0.401
51898W        W11159  11.270   4.733   4.791
51899W        W11160  25.548  37.872   1.304
51900W        W11161  25.007  16.299   1.390
51901W        W11162  21.049  35.546   1.883
51902W        W11163  10.366  13.112  12.884
51903W        W11164  11.268  13.654   0.873
51904W        W11165   5.361  27.999  14.336
51905W        W11166  39.502  17.792   3.693
51906W        W11167   5.307  30.464  10.890
51907W        W11168   5.696   9.158  13.969
51908W        W11169  30.485  12.142   9.553
51909W        W11170  23.589  40.896  12.400
51910W        W11171   9.360   0.831  13.538
51911W        W11172   3.228  30.592   0.864
51912W        W11173  24.130  13.339  14.464
51913W        W11174  36.500  34.422   2.395
51914W        W11175  33.511  20.715   2.883
51915W        W11176  44.937  10.785   0.363
51916W        W11177  32.887   3.928   3.188
51917W        W11178   4.931  34.961   2.879
51918W        W11179  20.040   8.862  13.352
51919W        W11180  20.570  13.176   0.732
51920W        W11181  29.559  27.564  12.084
51921W        W11182  44.480  44.867   3.368
51922W        W11183  16.298  24.696   1.862
51923W        W11184  36.973  38.326   4.135
51924W        W11185  22.164  16.244  11.041
51925W        W11186  20.174  38.859  11.879
51926W        W11187  39.841  27.586   3.742
51927W        W11188  14.238  36.928   0.364
51928W        W11189  19.750  34.404  10.496
51929W        W11190  43.310  35.525   1.367
51930W        W11191  29.137  26.532   1.239
51931W        W11192  40.049   5.892  14.815
51932W        W11193  29.565  31.130  11.960
51933W        W11194  16.281  23.013  12.012
51934W        W11195   4.919   3.401   1.808
51935W        W11196  34.532  30.117  10.562
51936W        W11197  16.696  39.052   1.421
51937W        W11198  43.348  37.964   2.901
51938W        W11199  31.578  18.718  14.980
51939W        W11200  20.186   4.286   2.768
51940W        W11201  23.625  37.051  11.043
51941W        W11202  41.478   3.229  14.944
51942W        W11203  11.705  14.718  14.383
51943W        W11204  35.371  17.247   3.382
51944W        W11205   6.368   3.369  11.081
51945W        W11206   9.287  22.551   4.140
51946W        W11207  42.828  11.786   0.275
51947W        W11208   5.888  32.458   1.916
51948W        W11209  38.351  25.003   2.258
51949W        W11210  34.523  44.932  12.918
51950W        W11211   4.304  21.665  12.536
51951W        W11212  34.975  26.133  10.459
51952W        W11213   5.333  32.499  10.599
51953W        W11214  23.237   6.896  10.952
51954W        W11215  40.945  28.085  14.416
51955W        W11216   8.878  10.253   0.763
51956W        W11217   2.840  23.540  10.599
51957W        W11218  43.358  15.799   2.777
51958W        W11219   8.897  32.635   1.412
51959W        W11220  10.656  42.880   0.917
51960W        W11221  35.904  15.803   1.215
51961W        W11222  14.152  37.984   4.783
51962W        W11223   3.338  18.661   5.114
51963W        W11224   2.249  18.128  11.992
51964W        W11225   2.860  44.503   3.663
51965W        W11226   4.274  31.632  13.955
51966W        W11227   7.671  33.877   0.302
51967W        W11228  17.300   1.276  12.559
51968W        W11229   0.847  40.879   3.174
51969W        W11230   0.440  35.924   0.848
51970W        W11231  23.190  31.106   0.963
51971W        W11232  29.601  24.096   1.814
51972W        W11233  23.005  38.570   3.688
51973W        W11234  22.026  20.546   3.237
51974W        W11235  23.492  16.291  11.503
51975W        W11236  17.584  38.539  12.485
51976W        W11237  37.350  12.713  11.526
51977W        W11238  32.142  10.716  12.392
51978W        W11239  37.552  22.248   0.733
51979W        W11240  15.148  33.451  13.413
51980W        W11241  31.968  24.621   2.703
51981W        W11242  17.266  22.558  11.946
51982W        W11243  27.149  24.070   0.888
51983W        W11244   7.696  24.564  11.536
51984W        W11245  18.168  34.957  10.631
51985W        W11246  20.685  24.580   3.313
51986W        W11247   7.334  13.140   4.126
51987W        W11248  24.983  37.467  12.391
51988W        W11249  11.184   8.380  10.405
51989W        W11250  38.407  35.956  10.938
51990W        W11251   0.806   5.912  13.039
51991W        W11252  10.719  26.165  11.930
51992W        W11253  21.742   6.812  11.092
51993W        W11254  26.557  20.037   0.753
51994W        W11255   1.380   8.772   4.786
51995W        W11256  15.114  38.968  14.490
51996W        W11257   9.170   2.422  13.879
51997W        W11258  38.570   8.293   3.335
51998W        W11259  25.072  43.924   2.296
51999W        W11260   6.217  36.479  12.537
52000W        W11261  38.058  42.311  10.508
52001W        W11262  42.867  16.747   0.791
52002W        W11263   1.416  16.766  13.852
52003W        W11264   3.371   7.405   0.831
52004W        W11265  27.064  20.165  11.025
52005W        W11266   6.216  31.646   2.191
52006W        W11267   3.744  44.303  14.018
52007W        W11268   5.812  40.864   1.338
52008W        W11269  38.021  22.547  10.620
52009W        W11270  24.537  14.202   4.728
52010W        W11271  15.170  28.007  14.836
52011W        W11272  26.458   5.725   2.796
52012W        W11273  41.359  40.323   1.740
52013W        W11274   9.819  34.953   4.327
52014W        W11275  42.491  16.759   1.840
52015W        W11276   1.932  15.818   0.846
52016W        W11277  31.590  23.498   2.672
52017W        W11278  37.417   6.752   0.873
52018W        W11279  26.012   2.437   1.330
52019W        W11280  31.471  44.490  12.012
52020W        W11281   1.340  35.489  14.366
52021W        W11282  24.103  36.576   2.827
52022W        W11283  37.004   5.270  10.414
52023W        W11284  32.075  17.089  11.999
52024W        W11285   3.451  33.964   0.440
52025W        W11286  33.586  12.808   0.451
52026W        W11287  29.071   8.209  11.899
52027W        W11288  35.409  27.172   3.862
52028W        W11289   8.699  18.106   4.346
52029W        W11290  21.226  12.707   4.638
52030W        W11291   8.856  15.151   5.795
52031W        W11292  15.235  31.404   3.635
52032W        W11293  19.045  24.679  10.473
52033W        W11294  39.046  43.813  11.972
52034W        W11295  25.610   6.206   3.278
52035W        W11296  35.501   1.269  13.361
52036W        W11297  10.671   6.734   3.269
52037W        W11298  24.658  25.592   2.759
52038W        W11299  44.286   4.262  13.534
52039W        W11300  44.390  15.702   0.843
52040W        W11301  30.068  37.878   2.285
52041W        W11302  12.296  41.028  11.907
52042W        W11303  29.048  28.662   1.321
52043W        W11304  16.648  36.579  11.427
52044W        W11305   8.685  14.327   3.695
52045W        W11306  10.238  39.349  13.029
52046W        W11307  28.498   8.302   1.319
52047W        W11308  18.775  12.318  11.504
52048W        W11309  43.402   0.385   1.699
52049W        W11310  23.620  29.114   1.277
52050W        W11311  29.547  12.665   0.780
52051W        W11312  10.669  31.153  13.529
52052W        W11313  40.340   4.336   3.740
52053W        W11314  36.562  16.767  10.414
52054W        W11315  22.067   1.876   0.827
52055W        W11316   7.688  18.601  14.898
52056W        W11317  19.200  36.486  11.006
52057W        W11318   3.411  18.757  10.518
52058W        W11319   7.706  23.088   0.845
52059W        W11320   1.335  15.279   3.202
52060W        W11321  15.123  38.890   2.415
52061W        W11322  32.557  39.981  13.948
52062W        W11323   9.674  42.431   4.187
52063W        W11324  35.026  36.446   2.877
52064W        W11325  20.582   3.387  14.322
52065W        W11326   1.420  12.267  11.969
52066W        W11327  31.454  10.758   3.373
52067W        W11328   3.882   0.868   1.325
52068W        W11329  18.750   1.812   0.802
52069W        W11330  11.216  35.010   0.449
52070W        W11331   8.359  31.492   1.888
52071W        W11332  29.131  31.476  14.397
52072W        W11333  29.581   8.798   1.344
52073W        W11334  36.414  28.631  13.043
52074W        W11335  12.116  14.234   1.291
52075W        W11336  18.576  11.683   9.950
52076W        W11337   9.697  16.227  14.367
52077W        W11338  44.890  18.546  13.446
52078W        W11339  18.673  14.656   3.196
52079W        W11340  18.784  25.469  11.020
52080W        W11341  27.482  20.232   0.771
52081W        W11342  39.928   0.387  10.499
52082W        W11343  35.883  27.156  12.995
52083W        W11344  14.290  14.307  11.893
52084W        W11345  37.409   2.828   2.326
52085W        W11346   3.720  28.449   0.751
52086W        W11347  31.118  28.038   1.301
52087W        W11348  25.127  18.624  13.512
52088W        W11349  18.692  20.138   4.119
52089W        W11350  23.524  41.944  12.574
52090W        W11351   6.804   0.392   4.163
52091W        W11352  26.694   2.897   4.640
52092W        W11353  20.254  29.156   4.619
52093W        W11354   9.291  38.998  10.411
52094W        W11355  21.567   8.819  11.003
52095W        W11356  14.096   4.783   4.650
52096W        W11357  22.651  14.335  14.001
52097W        W11358   3.312  33.999  13.872
52098W        W11359  39.479  18.137  14.980
52099W        W11360  16.217   4.415  14.496
52100W        W11361  28.446  14.666  13.409
52101W        W11362  25.133  31.142  11.089
52102W        W11363  25.131  15.107   3.241
52103W        W11364   8.303  43.307   2.225
52104W        W11365  33.966  10.212   0.338
52105W        W11366  36.942  20.657  13.868
52106W        W11367  27.482  41.953  14.938
52107W        W11368   8.702  10.147   3.239
52108W        W11369  26.568   2.752   1.364
52109W        W11370  33.400  14.681  11.943
52110W        W11371  25.656  41.528  12.394
52111W        W11372  40.006  25.997   0.345
52112W        W11373  33.409  13.290  14.988
52113W        W11374  25.488  20.186  14.513
52114W        W11375  24.707   0.359  11.877
52115W        W11376  28.132   8.401  13.022
52116W        W11377   9.794  40.857   0.823
52117W        W11378  39.915  31.638  12.078
52118W        W11379  29.466  40.839  14.902
52119W        W11380  39.033   8.690   1.881
52120W        W11381  11.266  33.626  14.492
52121W        W11382  17.089  37.418  12.826
52122W        W11383  11.155  26.596   2.703
52123W        W11384   8.254   3.402  12.366
52124W        W11385  20.123  27.590  14.941
52125W        W11386  20.599   3.400  11.060
52126W        W11387  19.693  37.496  11.612
52127W        W11388  32.906  41.443  14.340
52128W        W11389  19.234  23.640   2.747
52129W        W11390  25.607  40.941  14.319
52130W        W11391  38.979   6.901  10.126
52131W        W11392  43.915  12.235  13.799
52132W        W11393  34.938  21.062   4.235
52133W        W11394   3.344   1.895  14.785
52134W        W11395  25.211  27.557   0.921
52135W        W11396  33.956  34.576  11.435
52136W        W11397  22.193  21.533  13.794
52137W        W11398  26.014  12.650   0.926
52138W        W11399  27.121  28.468  13.875
52139W        W11400  32.073  39.506   2.881
52140W        W11401  24.092  14.206   3.166
52141W        W11402  15.088  42.900   4.212
52142W        W11403  15.147  38.017   0.919
52143W        W11404   6.903   8.792   3.163
52144W        W11405   6.728  24.497   1.238
52145W        W11406   3.876  18.633   1.302
52146W        W11407  14.752  32.131  13.840
52147W        W11408  14.095  36.913  13.914
52148W        W11409   7.251  42.490  12.977
52149W        W11410   6.229  43.351  10.515
52150W        W11411   4.813  25.546  13.533
52151W        W11412  35.062  39.404  13.860
52152W        W11413  13.696  30.496   3.795
52153W        W11414  37.942  42.951   5.143
52154W        W11415  17.296  28.449  11.036
52155W        W11416   3.713  37.070   2.180
52156W        W11417  23.031  10.672   1.715
52157W        W11418  14.612  40.001   4.260
52158W        W11419  29.461  15.267   0.250
52159W        W11420  23.113  23.546   2.791
52160W        W11421   3.404  10.645  11.884
52161W        W11422  36.939   5.329   4.229
52162W        W11423  14.735   3.243  13.985
52163W        W11424  31.905  22.007   4.114
52164W        W11425  40.414   1.342  12.007
52165W        W11426  13.781  28.499  14.306
52166W        W11427  28.542  28.941   0.887
52167W        W11428  43.345  41.501  14.811
52168W        W11429  39.438   1.429  14.383
52169W        W11430  41.980  35.908   0.791
52170W        W11431  16.595   8.812   3.778
52171W        W11432   3.852  13.734   2.225
52172W        W11433   1.292  38.418  14.827
52173W        W11434  36.504  31.122  11.477
52174W        W11435   6.846  14.233  13.472
52175W        W11436  37.392  27.452   3.368
52176W        W11437  30.014  11.827   9.534
52177W        W11438  27.081  26.677  13.984
52178W        W11439  34.601  16.740  12.526
52179W        W11440  18.212  34.412   1.816
52180W        W11441  16.135  26.598  10.587
52181W        W11442  29.575  34.490   2.285
52182W        W11443  12.264  15.313  12.070
52183W        W11444   6.350  14.137  14.880
52184W        W11445  37.396  23.677  11.008
52185W        W11446   2.252  42.428  12.856
52186W        W11447   0.377  44.386   2.823
52187W        W11448   6.905  43.342  10.419
52188W        W11449  16.288  21.718  13.959
52189W        W11450   7.211  36.002   1.905
52190W        W11451  41.942  36.966  13.826
52191W        W11452   5.220  15.705  13.842
52192W        W11453  10.796  33.079   2.221
52193W        W11454  44.863  25.634   0.766
52194W        W11455   8.741  28.611   3.189
52195W        W11456  30.458  16.150   2.902
52196W        W11457  42.833  23.550  11.077
52197W        W11458   5.308  35.500   2.385
52198W        W11459  17.288  41.292  11.100
52199W        W11460   3.412  27.580  11.392
52200W        W11461  16.636  10.145  12.079
52201W        W11462  37.836  28.520  11.066
52202W        W11463  36.383  18.091  12.479
52203W        W11464   4.906  25.148   0.876
52204W        W11465   1.908  33.966  13.905
52205W        W11466  31.503  41.878   3.656
52206W        W11467  37.011  28.651   1.257
52207W        W11468  12.232   8.712  14.984
52208W        W11469  15.609  16.148  10.491
52209W        W11470   8.675   3.357   2.269
52210W        W11471  34.109  30.515   1.268
52211W        W11472  34.079  28.936  14.852
52212W        W11473  39.542  36.531   1.805
52213W        W11474  34.472  35.061   1.858
52214W        W11475  34.073  34.034  13.448
52215W        W11476  34.945  21.248   2.367
52216W        W11477  38.391   5.817   0.305
52217W        W11478  27.445  31.994  12.880
52218W        W11479  19.600  21.519   2.748
52219W        W11480   4.756  32.980   3.638
52220W        W11481  27.646  24.627   3.815
52221W        W11482  16.172  34.114  11.013
52222W        W11483  19.619  11.342  13.351
52223W        W11484  35.505  35.071   5.120
52224W        W11485  33.099  24.154   0.295
52225W        W11486  23.173  28.997  10.480
52226W        W11487   2.232  11.680   2.858
52227W        W11488  25.185  19.232   3.671
52228W        W11489  22.512  20.751  13.516
52229W        W11490   2.849   1.916  10.997
52230W        W11491  35.471  35.549   1.904
52231W        W11492  18.184  42.332  13.319
52232W        W11493   2.247   9.661   5.792
52233W        W11494  36.577  24.549  13.062
52234W        W11495   1.306  44.427  10.476
52235W        W11496   2.297  43.385  14.807
52236W        W11497   4.909  22.699   3.728
52237W        W11498   7.800  36.515   1.745
52238W        W11499  31.521  15.219   1.805
52239W        W11500  43.800  37.934   0.371
52240W        W11501  41.510  28.673  12.441
52241W        W11502  22.218  38.385   0.837
52242W        W11503  32.476  28.455  12.363
52243W        W11504  32.903  39.878   2.873
52244W        W11505  43.492  24.183  12.991
52245W        W11506   1.266  23.662  11.374
52246W        W11507  21.625  26.985  11.021
52247W        W11508   9.294  43.328   2.248
52248W        W11509  23.659  11.285  13.928
52249W        W11510  10.342  38.995   4.295
52250W        W11511  44.779  44.259   1.837
52251W        W11512   7.258  26.545   1.722
52252W        W11513  43.922  12.243   4.682
52253W        W11514   1.468  22.146   3.699
52254W        W11515  43.981   4.393   4.790
52255W        W11516  41.460  42.002   4.134
52256W        W11517  44.904  16.808   1.448
52257W        W11518  20.211  11.292   1.332
52258W        W11519   6.203  25.479   3.227
52259W        W11520  31.609  25.671   0.940
52260W        W11521  29.119  16.101   0.781
52261W        W11522  13.604   4.349   0.331
52262W        W11523  24.636  26.999   4.818
52263W        W11524  23.603  31.585   4.251
52264W        W11525  19.060  17.722   2.799
52265W        W11526  12.301   4.875   3.264
52266W        W11527  27.587  22.239  13.419
52267W        W11528  42.784  13.616   4.810
52268W        W11529   2.387  12.713   1.273
52269W        W11530  23.064   7.665   4.601
52270W        W11531  33.911  21.114  14.851
52271W        W11532  10.809  19.629  14.027
52272W        W11533  16.244  11.701  11.551
52273W        W11534  22.067  32.398  10.598
52274W        W11535   0.453  44.347  13.000
52275W        W11536  10.785  43.960  13.952
52276W        W11537  28.623   1.394  11.383
52277W        W11538  10.793  36.043  13.485
52278W        W11539  10.834  34.398   0.383
52279W        W11540  42.380  27.647   4.160
52280W        W11541  13.839  23.108   4.631
52281W        W11542  33.489  24.550  12.061
52282W        W11543   2.812  14.157  13.022
52283W        W11544  12.348  31.447  10.932
52284W        W11545   5.924  21.216   2.691
52285W        W11546   5.311  14.141   2.681
52286W        W11547  30.602  32.042   1.908
52287W        W11548   4.441   2.275  13.944
52288W        W11549  34.039  18.674  10.521
52289W        W11550   8.782  20.656   4.657
52290W        W11551  39.968  37.868   2.259
52291W        W11552   4.400   8.860   4.240
52292W        W11553  14.640  32.035  11.505
52293W        W11554  31.923  12.202   2.402
52294W        W11555   6.329  40.926   3.163
52295W        W11556  39.917  14.634  12.907
52296W        W11557   9.679   2.901   3.331
52297W        W11558  18.787  34.460  13.906
52298W        W11559   5.345  15.256  13.404
52299W        W11560  33.423  42.813   0.792
52300W        W11561  39.383  42.389  14.774
52301W        W11562  26.064  14.245  13.432
52302W        W11563  17.734  11.693  11.051
52303W        W11564  16.133  19.275  10.604
52304W        W11565   6.315  14.158  11.989
52305W        W11566   6.317  14.173  13.322
52306W        W11567   0.745  15.225  10.603
52307W        W11568  33.569  19.119  11.949
52308W        W11569  41.997  10.871   1.350
52309W        W11570  16.758  10.711   2.806
52310W        W11571  43.449  20.754   0.948
52311W        W11572  16.161   9.334  12.937
52312W        W11573  17.241  29.619  14.826
52313W        W11574  21.058   0.875   2.325
52314W        W11575   4.352  13.789   0.768
52315W        W11576   0.810  20.067  14.939
52316W        W11577  37.915  21.028   2.682
52317W        W11578  22.238  18.762   0.802
52318W        W11579  13.241  22.150  13.358
52319W        W11580  42.514  20.149  12.403
52320W        W11581   7.797  32.975  12.966
52321W        W11582  31.476  32.559   0.781
52322W        W11583   1.280   5.881   3.770
52323W        W11584  26.123  23.026  11.541
52324W        W11585   6.350  29.154   5.200
52325W        W11586  31.912  28.455  13.046
52326W        W11587  21.639  35.051  14.953
52327W        W11588  41.002  21.735  14.343
52328W        W11589  18.734  44.871   2.843
52329W        W11590  30.561  15.705  13.992
52330W        W11591   5.368  36.365  10.903
52331W        W11592  35.044  22.733   4.618
52332W        W11593   4.392  16.610   2.202
52333W        W11594  19.242  36.547  14.785
52334W        W11595  25.040  11.201   3.201
52335W        W11596  26.033  23.682   1.413
52336W        W11597  29.629  33.882  13.493
52337W        W11598  20.669   7.758   3.255
52338W        W11599  22.028  10.745   4.715
52339W        W11600  35.400  30.436  10.412
52340W        W11601   9.325  15.086   4.212
52341W        W11602  28.499   0.803   1.371
52342W        W11603  40.474   8.852   3.147
52343W        W11604  28.146   2.232   4.305
52344W        W11605  24.184  24.587   2.183
52345W        W11606  42.810   3.889  12.071
52346W        W11607   5.871  36.472  13.316
52347W        W11608  29.460   2.448  13.398
52348W        W11609  19.200  30.945   1.847
52349W        W11610  10.144   7.348   0.747
52350W        W11611  33.934   0.319  14.398
52351W        W11612  15.265  38.570   3.650
52352W        W11613  38.008  12.274   3.826
52353W        W11614  24.176  39.828   4.655
52354W        W11615   1.886  36.023   1.934
52355W        W11616  17.587  21.526  13.851
52356W        W11617   6.271  23.094  11.074
52357W        W11618  23.702  35.916   2.764
52358W        W11619  23.584  33.117   0.288
52359W        W11620  16.760  26.195   2.798
52360W        W11621  19.777  15.152  11.861
52361W        W11622  35.500  38.986  13.935
52362W        W11623   7.693  43.391  11.880
52363W        W11624  42.391  30.102   4.728
52364W        W11625  32.543  33.401   2.326
52365W        W11626  29.083   4.830  13.335
52366W        W11627  32.967  17.776   2.798
52367W        W11628  38.491  39.891   3.289
52368W        W11629  27.048  38.933  12.436
52369W        W11630  28.588  29.114  14.774
52370W        W11631  43.998  24.665  12.923
52371W        W11632   3.770  22.588  10.123
52372W        W11633  44.867  15.769   2.811
52373W        W11634  32.105  34.497   2.691
52374W        W11635   0.289  44.478  12.345
52375W        W11636  39.548  27.533   2.370
52376W        W11637   1.970  22.043  12.456
52377W        W11638  21.598  31.081  13.391
52378W        W11639  38.007  27.195   0.297
52379W        W11640   1.275  14.314  14.313
52380W        W11641  16.602   7.260  13.510
52381W        W11642   8.315   8.788   2.355
52382W        W11643  19.112  12.300  14.347
52383W        W11644  22.205  38.334   2.376
52384W        W11645  34.016  26.129   0.395
52385W        W11646  21.102  23.657  11.080
52386W        W11647  18.157  20.556  11.425
52387W        W11648   4.867   3.248  10.527
52388W        W11649  31.937  14.779   5.084
52389W        W11650  23.569  23.591   1.300
52390W        W11651  24.173  10.148  13.922
52391W        W11652  40.980  19.674   0.909
52392W        W11653   3.786  21.730  12.492
52393W        W11654  42.385  35.427   0.264
52394W        W11655  18.181  19.714   2.348
52395W        W11656   1.789  10.778  12.349
52396W        W11657  22.240  40.506   0.957
52397W        W11658  29.926   6.195  12.402
52398W        W11659  11.236  35.452  10.964
52399W        W11660  43.467  10.182   2.794
52400W        W11661  16.228   7.230   0.414
52401W        W11662  43.778  40.855   2.180
52402W        W11663  17.666  27.070   3.776
52403W        W11664  14.172  20.054   1.927
52404W        W11665  38.514   9.213   1.249
52405W        W11666  30.077   8.723   3.636
52406W        W11667  41.961  40.504  14.768
52407W        W11668  42.414  38.991   2.714
52408W        W11669  42.367  24.511   0.447
52409W        W11670  31.628  23.986   4.629
52410W        W11671  14.263  40.007  10.457
52411W        W11672   9.762  12.635   5.174
52412W        W11673  16.310  11.258  14.357
52413W        W11674  17.801  20.714  11.897
52414W        W11675  44.806  37.534   4.679
52415W        W11676  13.331  19.269  13.923
52416W        W11677  28.574  12.194   2.879
52417W        W11678  34.445  26.136  12.465
52418W        W11679   0.485  20.154  14.322
52419W        W11680  43.905  40.863  10.549
52420W        W11681   2.875   2.303  11.896
52421W        W11682  12.643  31.998  12.399
52422W        W11683   3.281  23.176   3.816
52423W        W11684  42.018  27.067  11.405
52424W        W11685  40.851  17.223   2.864
52425W        W11686   4.785  31.036  13.880
52426W        W11687  23.137  39.020   4.178
52427W        W11688  30.948  26.541   5.308
52428W        W11689  33.446   1.371  11.432
52429W        W11690  40.969  36.500   1.707
52430W        W11691  10.702  14.615   2.820
52431W        W11692  27.978  31.951   0.779
52432W        W11693  17.203  38.942  12.557
52433W        W11694  18.197  19.534   0.440
52434W        W11695  38.049  29.959   0.815
52435W        W11696   8.386   0.391  14.355
52436W        W11697  44.430  16.232  12.825
52437W        W11698  10.860  19.095  14.808
52438W        W11699  40.841  20.038  12.032
52439W        W11700  21.224  22.135  10.575
52440W        W11701  13.802  19.681   3.296
52441W        W11702  16.657  36.427   3.210
52442W        W11703   1.736  15.701   3.310
52443W        W11704  13.836  42.363  12.572
52444W        W11705  31.411   1.774  14.337
52445W        W11706  17.776  30.520  12.861
52446W        W11707   4.416  40.863  14.372
52447W        W11708  21.129  35.375   4.312
52448W        W11709  44.840   0.880   4.304
52449W        W11710  13.802  26.458   3.249
52450W        W11711  15.118   1.470   2.301
52451W        W11712  38.878  27.683   4.812
52452W        W11713  39.505  41.944  12.489
52453W        W11714  18.547   7.828   2.349
52454W        W11715  39.982  41.840   0.790
52455W        W11716  26.154  16.145   4.231
52456W        W11717  12.337  29.538  14.321
52457W        W11718  22.517  18.064   4.672
52458W        W11719  32.534  20.208   0.253
52459W        W11720  28.597  22.735   1.325
52460W        W11721  26.669  26.567  12.400
52461W        W11722  23.236  37.920  13.963
52462W        W11723  29.613  34.949   1.794
52463W        W11724  22.125  19.626   4.784
52464W        W11725  35.438  42.290  14.342
52465W        W11726   8.382   5.706   0.827
52466W        W11727  33.020   5.918   0.469
52467W        W11728  28.461  10.754   3.361
52468W        W11729  12.205  37.974   2.417
52469W        W11730  39.327  14.257  10.466
52470W        W11731  42.985  38.328  11.904
52471W        W11732  35.025  15.193  14.964
52472W        W11733  42.901   5.353  13.920
52473W        W11734  17.184  43.935   2.329
52474W        W11735  24.577  19.072   1.328
52475W        W11736  16.317  24.718   1.275
52476W        W11737  26.127   4.415   1.713
52477W        W11738  15.212  28.979   5.580
52478W        W11739  31.941  25.554  12.072
52479W        W11740  39.328   6.217  11.879
52480W        W11741  37.078  33.987   0.864
52481W        W11742  44.489  10.647  14.877
52482W        W11743  10.331  28.563   3.709
52483W        W11744  18.604  33.031  13.846
52484W        W11745  37.412  25.471  14.438
52485W        W11746   1.964  22.071   2.400
52486W        W11747  20.653  14.208  10.629
52487W        W11748  27.455  24.127  14.406
52488W        W11749  31.909   2.761  13.818
52489W        W11750  36.456  27.955  11.889
52490W        W11751  42.480  21.092  12.839
52491W        W11752  20.184   7.187  14.296
52492W        W11753  36.962  44.500   5.084
52493W        W11754  14.712  16.193   5.107
52494W        W11755  34.119  28.125   4.244
52495W        W11756  39.396   1.443   3.305
52496W        W11757  43.793  42.969   4.270
52497W        W11758   7.271  34.079   0.944
52498W        W11759  16.158  40.822   2.321
52499W        W11760  31.919  17.136  11.530
52500W        W11761  23.151  17.582  11.117
52501W        W11762  35.449  28.059   3.718
52502W        W11763   6.380  44.932  12.080
52503W        W11764  15.591  11.721  14.276
52504W        W11765   4.756  43.985   1.745
52505W        W11766  25.489   8.223   4.119
52506W        W11767  14.135  34.609   1.258
52507W        W11768  11.807  27.108   4.662
52508W        W11769  21.223  10.661  13.959
52509W        W11770  34.491  32.427  12.009
52510W        W11771   6.274   7.343  11.534
52511W        W11772  42.344  11.300   0.817
52512W        W11773   7.411   6.220  12.369
52513W        W11774  13.683  32.914  11.491
52514W        W11775   3.774   8.189   1.365
52515W        W11776  25.053  32.011   1.705
52516W        W11777  10.797  15.217  11.445
52517W        W11778  14.703  10.209  14.307
52518W        W11779  35.384   4.734  14.856
52519W        W11780  40.545   8.333   3.326
52520W        W11781  41.451  42.519   1.848
52521W        W11782   1.402  23.585   4.195
52522W        W11783   8.387  40.815   2.881
52523W        W11784  32.600  22.727  10.050
52524W        W11785  24.107  11.727   2.308
52525W        W11786  42.435  39.992   2.845
52526W        W11787   1.305  21.528  11.401
52527W        W11788  29.502  22.639  10.003
52528W        W11789  37.962  12.235   2.790
52529W        W11790  41.832  42.428  13.995
52530W        W11791  16.649  24.520   3.292
52531W        W11792   2.241  44.345   3.335
52532W        W11793  40.501  18.713   1.356
52533W        W11794  11.707  31.623   0.748
52534W        W11795  33.120  31.413   3.215
52535W        W11796   3.803  39.048   2.217
52536W        W11797  32.060  11.861   2.192
52537W        W11798   3.452  16.175  14.853
52538W        W11799   9.656  35.061   4.656
52539W        W11800   7.223  22.147   2.205
52540W        W11801  38.031   0.292  14.288
52541W        W11802   5.933  27.109  10.440
52542W        W11803   2.275  37.354  12.089
52543W        W11804   7.403  11.217   3.705
52544W        W11805  33.393  40.530  12.555
52545W        W11806   1.798  34.916   1.443
52546W        W11807  32.914  26.613   4.256
52547W        W11808   7.778  44.882  10.556
52548W        W11809   0.863  42.804  14.942
52549W        W11810  44.395  28.468  11.059
52550W        W11811   2.316  41.907   3.822
52551W        W11812  31.979   8.271   0.464
52552W        W11813  25.217  43.969  12.992
52553W        W11814   9.267   3.259   5.230
52554W        W11815   0.845  28.613   0.762
52555W        W11816  33.039  44.795   4.614
52556W        W11817  25.582   3.296   2.736
52557W        W11818  17.081   4.802  14.409
52558W        W11819  25.536  13.289  10.511
52559W        W11820  32.079  10.632   2.882
52560W        W11821  36.996  10.760   0.737
52561W        W11822  35.997  15.706   0.765
52562W        W11823  42.840  30.627   1.843
52563W        W11824  35.398  18.222   1.905
52564W        W11825   7.366  31.034  14.790
52565W        W11826  26.966  25.508  14.387
52566W        W11827   3.954  31.003  14.384
52567W        W11828  37.001   8.201  11.606
52568W        W11829  19.126  14.822  12.349
52569W        W11830  41.419   1.961   3.164
52570W        W11831  13.331  44.377  14.885
52571W        W11832  32.899   7.224   1.276
52572W        W11833  10.834  39.357  13.894
52573W        W11834  15.200  30.415  14.917
52574W        W11835  14.193  41.904   0.732
52575W        W11836   8.216  31.643  11.124
52576W        W11837  38.359   4.238   0.332
52577W        W11838   1.472  38.412  11.536
52578W        W11839  25.219  18.119   2.672
52579W        W11840  34.503   8.347   2.398
52580W        W11841   9.842  14.650   2.243
52581W        W11842  13.807  28.611   4.353
52582W        W11843  27.177  20.712  13.849
52583W        W11844  12.688  28.166   5.228
52584W        W11845   2.268  32.000  12.957
52585W        W11846   3.750  44.836   1.234
52586W        W11847  43.987  31.019  11.922
52587W        W11848  25.110  35.927  12.469
52588W        W11849  12.207   6.372   2.721
52589W        W11850   3.933  21.646   1.410
52590W        W11851  14.818  35.404  12.415
52591W        W11852  28.116  11.826  11.940
52592W        W11853  33.499  23.660   1.729
52593W        W11854   8.722  40.392   0.874
52594W        W11855  26.058   0.409   3.228
52595W        W11856   2.265  10.276   2.766
52596W        W11857  27.126   2.926   0.302
52597W        W11858  26.189  39.831  12.496
52598W        W11859  32.503  27.143   0.877
52599W        W11860  12.623  27.682  14.952
52600W        W11861   5.218  21.585   3.368
52601W        W11862   5.716  26.666  12.007
52602W        W11863  13.683   9.311  14.959
52603W        W11864   5.771  43.488   3.246
52604W        W11865  18.225  40.407   3.167
52605W        W11866  19.564   9.383  14.791
52606W        W11867  10.236   9.873   2.777
52607W        W11868   9.318  26.020  12.443
52608W        W11869  22.521  37.990  14.410
52609W        W11870   1.481  44.421   4.776
52610W        W11871   7.765  16.142  12.340
52611W        W11872   3.376  26.587   0.330
52612W        W11873   5.759   2.352  14.330
52613W        W11874   8.808  17.190   0.424
52614W        W11875  14.117  11.271   4.202
52615W        W11876  34.470  13.134  13.384
52616W        W11877  10.273   3.927   9.921
52617W        W11878  42.303  23.655   1.754
52618W        W11879  31.531  11.180  14.330
52619W        W11880   4.841  13.144  10.453
52620W        W11881  18.204  18.050  10.070
52621W        W11882  24.113  15.720  14.918
52622W        W11883  30.424   3.264   1.339
52623W        W11884   6.901   9.882  13.526
52624W        W11885  42.809   3.950  14.499
52625W        W11886   3.227   1.385  11.927
52626W        W11887  26.208  18.196   3.225
52627W        W11888  38.355  10.724   2.268
52628W        W11889   0.866   8.767   4.246
52629W        W11890  12.211   6.274  11.088
52630W        W11891  34.008  13.324  10.602
52631W        W11892   1.282  34.919   4.690
52632W        W11893  20.234  28.112  11.966
52633W        W11894  27.172  19.599   5.177
52634W        W11895  25.153  21.071   1.336
52635W        W11896   6.784  42.335  13.811
52636W        W11897  20.123  14.145   3.347
52637W        W11898  23.122  40.826   4.619
52638W        W11899   4.913  41.016  14.299
52639W        W11900  38.037  15.610  10.526
52640W        W11901  36.525   2.254  12.917
52641W        W11902   4.927  28.451  14.364
52642W        W11903  27.164  43.900  13.817
52643W        W11904   5.415  22.204  13.829
52644W        W11905   0.272  31.471   0.804
52645W        W11906  31.079  22.086  14.957
52646W        W11907  23.597  11.698   4.682
52647W        W11908  11.695  42.486  14.424
52648W        W11909  42.517  24.644   3.811
52649W        W11910  17.289   4.293   4.134
52650W        W11911  34.431  10.248   1.923
52651W        W11912   7.414   7.683   0.452
52652W        W11913  30.420  39.881  11.574
52653W        W11914  41.016  30.914  13.894
52654W        W11915  22.032  22.176  14.912
52655W        W11916  37.046  39.542  12.846
52656W        W11917  25.093  13.627   4.659
52657W        W11918  15.631   2.277   1.262
52658W        W11919  25.040   8.270   3.776
52659W        W11920  14.833  14.712  10.902
52660W        W11921  27.652  12.718  11.899
52661W        W11922  37.910  42.006   3.198
52662W        W11923  22.648  32.064  11.023
52663W        W11924  37.545  17.214   2.663
52664W        W11925  34.886  33.456   4.739
52665W        W11926  34.515  28.935   1.382
52666W        W11927  30.948  39.422   1.700
52667W        W11928  16.139  30.500   2.805
52668W        W11929   2.452  36.549   3.636
52669W        W11930   2.746  43.393  13.541
52670W        W11931   4.822  34.400  10.503
52671W        W11932  28.021  11.845  10.456
52672W        W11933  22.049  40.329  13.421
52673W        W11934  15.767  35.000  13.983
52674W        W11935  12.776   2.822   4.175
52675W        W11936  43.899  43.286   3.249
52676W        W11937  10.873  10.261  11.465
52677W        W11938  23.168  21.197  12.879
52678W        W11939  34.089  14.156   2.236
52679W        W11940  39.839  22.511  14.457
52680W        W11941  16.786  29.129  12.568
52681W        W11942  41.408  16.770   4.149
52682W        W11943  18.733  18.755   2.304
52683W        W11944  37.554  36.552   3.696
52684W        W11945  21.582  21.061   1.297
52685W        W11946  32.607   0.812   1.823
52686W        W11947  34.961  14.695  13.439
52687W        W11948  33.113  43.318   0.365
52688W        W11949  28.052   9.377  12.540
52689W        W11950  33.404  21.189  12.953
52690W        W11951  31.019  17.612   2.278
52691W        W11952  33.517  20.066  11.606
52692W        W11953  16.172  37.045   4.245
52693W        W11954  23.605  29.149  10.496
52694W        W11955  15.118  25.533   0.381
52695W        W11956  17.164  36.356   4.597
52696W        W11957  43.297  32.935  13.405
52697W        W11958  11.255  22.658   0.257
52698W        W11959  18.075  26.552   0.252
52699W        W11960  38.984  35.953   4.334
52700W        W11961  44.807  35.086   1.379
52701W        W11962   7.181   8.259   0.434
52702W        W11963  15.156   3.442  14.905
52703W        W11964   7.680  40.825  13.994
52704W        W11965  36.435  35.384  13.362
52705W        W11966   6.797   1.870   0.409
52706W        W11967  23.542  44.760   4.175
52707W        W11968   7.862  19.127   2.302
52708W        W11969  10.363  35.865   0.337
52709W        W11970  29.652  43.903  13.384
52710W        W11971  28.089  41.970   3.206
52711W        W11972  22.718  30.154   3.347
52712W        W11973  38.879  40.026   1.799
52713W        W11974   6.692  12.132  11.100
52714W        W11975  16.225  25.509  14.997
52715W        W11976  29.526  11.849   2.867
52716W        W11977  36.415  23.526   2.352
52717W        W11978  27.461  28.517  12.384
52718W        W11979  32.439   6.786   4.771
52719W        W11980   4.794   5.928  11.951
52720W        W11981  21.172  10.232   4.253
52721W        W11982  42.500  12.234  13.540
52722W        W11983  20.538  36.512  11.600
52723W        W11984  43.284  30.420   5.310
52724W        W11985   0.844   3.410   3.273
52725W        W11986   9.380  33.514  14.859
52726W        W11987   1.335  41.913   4.645
52727W        W11988  18.210  44.850   3.692
52728W        W11989  36.960   4.747  11.007
52729W        W11990  19.632   2.288  13.847
52730W        W11991  41.291  35.965  14.465
52731W        W11992  38.961  42.875  11.476
52732W        W11993  19.123  38.520   3.641
52733W        W11994  37.393   1.962  11.564
52734W        W11995  10.332  44.361   1.796
52735W        W11996  33.113  19.158   4.118
52736W        W11997   9.224   5.898   4.205
52737W        W11998  25.653   1.271   1.403
52738W        W11999  37.944   0.780  14.776
52739W        W12000   6.223   8.820   2.387
52740W        W12001  42.873   0.778  11.041
52741W        W12002  41.796  15.179  11.402
52742W        W12003  35.091  27.039   1.703
52743W        W12004  30.941  37.559  11.589
52744W        W12005  44.011  14.828   0.862
52745W        W12006  14.158  21.583  13.440
52746W        W12007   5.784   3.855  12.984
52747W        W12008  40.898  29.668   0.295
52748W        W12009  25.139   8.191  13.422
52749W        W12010  11.293  33.557   1.728
52750W        W12011   0.767  19.760  12.489
52751W        W12012  33.008  44.361  14.922
52752W        W12013   5.760  30.481   1.287
52753W        W12014  18.126   0.488   1.889
52754W        W12015  32.922  15.228   4.781
52755W        W12016  40.319  34.372   2.197
52756W        W12017  37.086  29.983  14.442
52757W        W12018   5.237   4.850  11.995
52758W        W12019  37.473  31.917   1.698
52759W        W12020   5.888  41.906   1.922
52760W        W12021  44.301  40.451   4.721
52761W        W12022  15.732  26.586   2.311
52762W        W12023  21.690   4.357  13.058
52763W        W12024   4.924  23.025  13.345
52764W        W12025  44.771  37.545   1.399
52765W        W12026  10.816  36.450   4.817
52766W        W12027   9.386  16.293  12.876
52767W        W12028  23.038  28.129  13.029
52768W        W12029  14.126  29.552   2.311
52769W        W12030  36.520  22.623   0.835
52770W        W12031   2.252   9.695   5.283
52771W        W12032  39.936   7.391   3.319
52772W        W12033  27.456  26.981  10.913
52773W        W12034  22.138  25.172   1.854
52774W        W12035  16.101   8.347  12.837
52775W        W12036   0.314  43.937   0.325
52776W        W12037  20.077  40.846  12.860
52777W        W12038  16.770  38.481  12.878
52778W        W12039  15.264  13.331   3.726
52779W        W12040  16.080  42.984  14.805
52780W        W12041  24.674  28.941   2.748
52781W        W12042   0.759  10.836   3.368
52782W        W12043  41.517   6.379  13.329
52783W        W12044  34.951  29.070   4.340
52784W        W12045   2.335  15.719   1.426
52785W        W12046  41.482   8.668   0.801
52786W        W12047  42.949   6.795   0.822
52787W        W12048  14.190  30.975   0.425
52788W        W12049  24.509   4.872  11.915
52789W        W12050   9.213  26.467  12.046
52790W        W12051  13.754  44.470  14.808
52791W        W12052  29.970  33.924  14.304
52792W        W12053  33.421  39.821   5.597
52793W        W12054  21.602  39.960  14.027
52794W        W12055   4.370  39.998   2.683
52795W        W12056  29.138  16.188  14.381
52796W        W12057  19.054  12.802   1.740
52797W        W12058  33.381  24.980  10.032
52798W        W12059  42.012   1.451  12.542
52799W        W12060  28.997   7.874   4.341
52800W        W12061  38.041  31.535  10.032
52801W        W12062  40.539   4.238   2.851
52802W        W12063  10.224  17.765  12.473
52803W        W12064  39.346  40.470  11.372
52804W        W12065  12.724  13.111  11.859
52805W        W12066  12.214   9.887   0.353
52806W        W12067  12.169  13.293  13.454
52807W        W12068   1.938  28.564  13.438
52808W        W12069  19.071  35.904   3.671
52809W        W12070   2.325  42.475  12.344
52810W        W12071  33.388  34.909   1.230
52811W        W12072  41.840  41.492   4.677
52812W        W12073   9.833   7.809   4.607
52813W        W12074  18.163  33.578   4.257
52814W        W12075  28.672  41.835  11.917
52815W        W12076   4.246  21.684   4.664
52816W        W12077  37.896  24.704  10.619
52817W        W12078   4.880   9.298  13.983
52818W        W12079   1.847   8.786   4.200
52819W        W12080  21.244  15.675  12.382
52820W        W12081  16.791  31.629  10.552
52821W        W12082  18.090  35.041   4.154
52822W        W12083  15.767   7.767  13.952
52823W        W12084  31.410  17.096   4.717
52824W        W12085  43.442  21.071  12.967
52825W        W12086  17.714  43.476   1.711
52826W        W12087  33.617  29.446   2.326
52827W        W12088  27.623   6.233   4.834
52828W        W12089  43.283  41.443   2.749
52829W        W12090  41.903  32.964   0.330
52830W        W12091  18.547  15.179  14.452
52831W        W12092  28.093   4.809   1.343
52832W        W12093  27.073  32.444   1.889
52833W        W12094  18.574  42.443  14.770
52834W        W12095  44.797  12.177  14.768
52835W        W12096  43.358   6.898   2.724
52836W        W12097   1.475  31.980   4.663
52837W        W12098  40.919   0.838   4.164
52838W        W12099   4.259   9.275   4.180
52839W        W12100   0.915  27.061   4.354
52840W        W12101  25.115  42.924  14.406
52841W        W12102  20.557  24.608  11.928
52842W        W12103  28.975  43.871   3.632
52843W        W12104   6.197   5.360   0.418
52844W        W12105  35.574  29.591  14.385
52845W        W12106   1.854  37.353   4.288
52846W        W12107  10.787  31.537   4.790
52847W        W12108  22.122  29.506  11.379
52848W        W12109   6.884   2.360  12.999
52849W        W12110  18.159   8.268   3.720
52850W        W12111  41.814  29.103   1.292
52851W        W12112  44.332   2.303  10.536
52852W        W12113  11.181   4.205  12.517
52853W        W12114  13.781  36.060  14.361
52854W        W12115  33.591   9.284  10.538
52855W        W12116   7.740  16.612   1.705
52856W        W12117  25.532  31.494  13.308
52857W        W12118   3.905  24.157   2.398
52858W        W12119  40.336  38.501  13.428
52859W        W12120  27.514  38.068  14.322
52860W        W12121  25.094  12.719   2.689
52861W        W12122  29.494  19.758   5.250
52862W        W12123  23.557  41.437   0.825
52863W        W12124  30.455  42.369  11.961
52864W        W12125   9.850  27.453   3.149
52865W        W12126  21.572  44.008  13.340
52866W        W12127   8.396  15.220   4.129
52867W        W12128  18.090  15.640   2.772
52868W        W12129  12.685  16.611   2.265
52869W        W12130   2.307  33.547  13.008
52870W        W12131  15.798   9.793  14.957
52871W        W12132  22.506  35.432  11.006
52872W        W12133  37.582   2.455   4.122
52873W        W12134   5.760  22.698  10.545
52874W        W12135   7.666   2.762  11.066
52875W        W12136  43.374  35.980   1.780
52876W        W12137  34.538  26.496   0.755
52877W        W12138   9.378  43.389   3.334
52878W        W12139  11.684  28.602   2.713
52879W        W12140  16.200  39.341  12.400
52880W        W12141   3.795  28.036  12.996
52881W        W12142  30.561   5.926  12.022
52882W        W12143  11.833  29.607  14.883
52883W        W12144   7.253  18.129   3.157
52884W        W12145  13.162   0.305   2.317
52885W        W12146   2.826  30.593  12.356
52886W        W12147   2.787  12.767   0.869
52887W        W12148  19.620   4.408   2.405
52888W        W12149   7.370  43.972  14.290
52889W        W12150  36.893  30.539  10.557
52890W        W12151  36.884  12.251  13.540
52891W        W12152  40.349  31.104  12.094
52892W        W12153  11.305  10.198   2.302
52893W        W12154   1.253  20.631   3.799
52894W        W12155  41.027  43.275   2.679
52895W        W12156  30.050  14.735  14.427
52896W        W12157  15.768  33.470  13.395
52897W        W12158  17.738  27.140  14.775
52898W        W12159   3.296  15.792   2.381
52899W        W12160  35.370  24.004   3.787
52900W        W12161  42.382  21.200   2.384
52901W        W12162  28.580  31.971   3.270
52902W        W12163  29.083  38.831   3.201
52903W        W12164  18.081  12.278  11.000
52904W        W12165  31.003  22.733   1.902
52905W        W12166  38.465  17.307  12.932
52906W        W12167  15.634  44.288   2.827
52907W        W12168  32.065  10.381   4.736
52908W        W12169  28.983  36.351  10.584
52909W        W12170  34.608   1.328  14.805
52910W        W12171   6.343  16.296   3.161
52911W        W12172  24.479  14.097   3.250
52912W        W12173  38.841  41.995   3.355
52913W        W12174  21.215   6.845  12.079
52914W        W12175  44.317  12.282  14.015
52915W        W12176  43.466  15.329   3.311
52916W        W12177  20.121  24.665   4.129
52917W        W12178  42.436   9.251  10.934
52918W        W12179   8.751   3.853   3.815
52919W        W12180  21.244  15.187   1.412
52920W        W12181   6.821  30.976  12.024
52921W        W12182  33.608   7.830   1.749
52922W        W12183   4.899  25.126  11.597
52923W        W12184   2.834  30.034   3.660
52924W        W12185  31.976  42.821   3.162
52925W        W12186  38.489  21.655   1.930
52926W        W12187  24.137  21.195  14.439
52927W        W12188  13.162  29.938  13.822
52928W        W12189  12.739  42.032  13.839
52929W        W12190   4.704  39.539  10.096
52930W        W12191  41.820   0.747   1.802
52931W        W12192  14.690   4.779   3.733
52932W        W12193  36.903  34.459  13.381
52933W        W12194  42.848  27.526  13.837
52934W        W12195  38.875  24.711  12.521
52935W        W12196  42.915  36.081   9.955
52936W        W12197  36.009  21.695   4.226
52937W        W12198  43.772   7.277  12.359
52938W        W12199  17.195   1.355  11.044
52939W        W12200  32.102  42.923   0.761
52940W        W12201  11.185  11.251   4.326
52941W        W12202  41.373  22.616   4.218
52942W        W12203   0.912  29.003  14.503
52943W        W12204   7.874  24.077   0.364
52944W        W12205  29.961   2.349   4.631
52945W        W12206  30.019  24.650   2.812
52946W        W12207  16.689  27.490   0.372
52947W        W12208   1.776   2.913  12.434
52948W        W12209   0.394   7.859   3.754
52949W        W12210  44.394  16.229  10.960
52950W        W12211  36.094  40.048  14.894
52951W        W12212  15.111   8.246   0.479
52952W        W12213  23.505  19.266  10.992
52953W        W12214  18.092  11.716   1.429
52954W        W12215   5.734  16.668  13.380
52955W        W12216   9.684  37.060   4.678
52956W        W12217  15.673   9.783  13.005
52957W        W12218  38.037  37.573   4.342
52958W        W12219  33.040  19.214  12.352
52959W        W12220   1.739  32.570   0.951
52960W        W12221  14.817  25.097  14.293
52961W        W12222  18.556  38.890  10.050
52962W        W12223  42.003  26.989  13.503
52963W        W12224   6.779  22.025  10.962
52964W        W12225  19.126  21.616  14.504
52965W        W12226  38.893   0.472   4.146
52966W        W12227  37.954  39.490  14.943
52967W        W12228   9.665   2.471   4.634
52968W        W12229  18.634  33.893   2.742
52969W        W12230  41.933  25.009   2.766
52970W        W12231   0.257  26.461  14.845
52971W        W12232  16.634  40.972  14.360
52972W        W12233  43.939  18.790  11.466
52973W        W12234  36.889   1.293   4.775
52974W        W12235  27.114  14.743   1.395
52975W        W12236   7.810  36.554  11.520
52976W        W12237  34.966  25.649   0.953
52977W        W12238  35.082   0.855  14.306
52978W        W12239  11.749  22.633  11.880
52979W        W12240  44.293  30.484   1.282
52980W        W12241   2.276   8.351  11.083
52981W        W12242  34.425  38.064   3.795
52982W        W12243  32.542  39.498   2.363
52983W        W12244  31.106  37.973   3.829
52984W        W12245  16.713  43.418   4.707
52985W        W12246  14.642  38.374   3.266
52986W        W12247  44.837  30.606   2.676
52987W        W12248  30.501  31.023  11.056
52988W        W12249  22.170  43.956  12.071
52989W        W12250  31.526  22.694  14.798
52990W        W12251  24.149   6.215   1.736
52991W        W12252  12.701  26.070   1.756
52992W        W12253   1.953  18.131  11.493
52993W        W12254   7.763   3.938  14.295
52994W        W12255   8.769  41.817  13.548
52995W        W12256  34.389  14.732   0.834
52996W        W12257   2.864   4.340  13.513
52997W        W12258  28.599  40.831  11.576
52998W        W12259  28.931  18.287   2.853
52999W        W12260  15.105  31.543  14.506
53000W        W12261   6.348  39.878   4.232
53001W        W12262  17.676  14.809   3.179
53002W        W12263  42.855  24.649  11.438
53003W        W12264  39.316  19.611   0.946
53004W        W12265  18.747  23.734  11.896
53005W        W12266   8.183  19.612  14.963
53006W        W12267  19.127  43.833   4.608
53007W        W12268  22.155  34.078   4.245
53008W        W12269  35.054  18.626  10.897
53009W        W12270   0.396  40.389   0.411
53010W        W12271  16.714  20.736   2.853
53011W        W12272  27.111  11.182  11.937
53012W        W12273  19.735  23.004   1.375
53013W        W12274   9.309  37.541  14.505
53014W        W12275  13.612  15.282   1.428
53015W        W12276  17.156  25.178  14.304
53016W        W12277   1.943   5.278   3.686
53017W        W12278  11.627  19.579  13.533
53018W        W12279  22.659  12.776  11.049
53019W        W12280  28.498  37.960  10.434
53020W        W12281   6.289  26.042  14.990
53021W        W12282  40.991  20.574   0.910
53022W        W12283  40.993  13.675   1.859
53023W        W12284  21.091  34.497   4.694
53024W        W12285  24.665  35.945  13.045
53025W        W12286   2.934   1.750   4.613
53026W        W12287   9.158  17.106   9.965
53027W        W12288   2.457   9.241   1.822
53028W        W12289   8.363  41.940   3.157
53029W        W12290  16.589   6.715  13.993
53030W        W12291   0.354  40.491   2.364
53031W        W12292  11.201  44.980  12.426
53032W        W12293  41.502   2.916  14.804
53033W        W12294  23.105  10.161  11.865
53034W        W12295  19.630  32.509  13.893
53035W        W12296  41.517  27.528  13.917
53036W        W12297  22.604  41.436  11.946
53037W        W12298  31.086  24.480   4.323
53038W        W12299  34.072  32.997  11.106
53039W        W12300  38.491   2.249  12.976
53040W        W12301   1.776  43.430   3.769
53041W        W12302  29.053  25.062   3.853
53042W        W12303  28.138  35.565   4.744
53043W        W12304  15.809  38.411  10.045
53044W        W12305   5.753  27.608  11.963
53045W        W12306  29.520  20.547   4.279
53046W        W12307  39.016  21.020  10.916
53047W        W12308   1.826   7.812   1.873
53048W        W12309  15.698  34.541   4.694
53049W        W12310  44.418  12.322  12.426
53050W        W12311  34.398  38.861   3.267
53051W        W12312  36.542  25.008   5.167
53052W        W12313  36.097  13.253   4.809
53053W        W12314  35.497  13.837   1.273
53054W        W12315   7.763  33.568   0.265
53055W        W12316   1.351   6.694  11.533
53056W        W12317  35.548  32.086  11.480
53057W        W12318   4.215   5.380   4.174
53058W        W12319  31.943  36.556  11.862
53059W        W12320  40.932  11.830   4.204
53060W        W12321  26.026  15.625  10.907
53061W        W12322  20.641  31.094   1.308
53062W        W12323  11.727   7.763  10.431
53063W        W12324   4.246  39.868  13.874
53064W        W12325  22.017  22.206   3.203
53065W        W12326  42.966   3.258   0.395
53066W        W12327  20.074  40.001  13.056
53067W        W12328  22.096  44.456  13.951
53068W        W12329  27.974  40.321  10.971
53069W        W12330  37.494  12.355  11.090
53070W        W12331  27.126  23.051  13.914
53071W        W12332   1.844  15.232   4.683
53072W        W12333   2.923   1.342  12.562
53073W        W12334  42.891  37.392   5.225
53074W        W12335  22.525  24.633  14.355
53075W        W12336  11.776  41.977  11.516
53076W        W12337  15.762  30.657   0.386
53077W        W12338  38.347   6.678   3.849
53078W        W12339   2.372  20.065  12.533
53079W        W12340  29.174   6.827   0.295
53080W        W12341  13.240   9.292  10.927
53081W        W12342  21.603  40.435   0.481
53082W        W12343  25.026  13.721   2.393
53083W        W12344  35.508  30.051  10.443
53084W        W12345  32.564   2.915  13.531
53085W        W12346  24.713  36.022  14.908
53086W        W12347  16.657   3.246  11.031
53087W        W12348  22.634  36.940   2.750
53088W        W12349  15.293  25.481  11.862
53089W        W12350  27.662   3.910   4.145
53090W        W12351  17.066  37.080  14.929
53091W        W12352  23.166   9.223   4.833
53092W        W12353   6.888  41.831  12.062
53093W        W12354   3.324  24.552   4.317
53094W        W12355   0.463  32.400  12.832
53095W        W12356  18.653  39.391   1.726
53096W        W12357  37.916  32.021  11.521
53097W        W12358  35.868  21.706  11.573
53098W        W12359   8.673   7.884  13.856
53099W        W12360  39.530  44.820   2.179
53100W        W12361   8.370  41.405   4.763
53101W        W12362   0.416  35.387  11.414
53102W        W12363  40.034  13.664   4.123
53103W        W12364   8.857  12.637   9.558
53104W        W12365  16.755  17.194   1.322
53105W        W12366  29.639  33.086   4.704
53106W        W12367  16.654  36.973  13.446
53107W        W12368   5.227   5.795   1.734
53108W        W12369  39.912  28.981   3.240
53109W        W12370  13.180   8.748   0.392
53110W        W12371  27.156  27.478  13.900
53111W        W12372   6.311  27.996  13.387
53112W        W12373   8.190  36.414   2.733
53113W        W12374  22.138  12.278   1.247
53114W        W12375   5.740   8.273   4.626
53115W        W12376  11.337  28.599   0.783
53116W        W12377  44.810   2.780  11.405
53117W        W12378  36.439  26.997  12.855
53118W        W12379  28.632  30.557   1.730
53119W        W12380  24.629  22.558   2.736
53120W        W12381  43.379  25.179  12.385
53121W        W12382  40.932   2.348  12.827
53122W        W12383   8.894  42.354   1.451
53123W        W12384   5.433  44.816   2.786
53124W        W12385   3.772   5.825  11.912
53125W        W12386   2.268  32.460  13.850
53126W        W12387  43.373  23.122   2.854
53127W        W12388  36.517  30.535  14.021
53128W        W12389  11.162  23.602   4.287
53129W        W12390  15.672  16.621  12.489
53130W        W12391  20.153  44.326   4.610
53131W        W12392  43.400  27.559   4.338
53132W        W12393  22.611  43.836  12.364
53133W        W12394   7.838   7.395  12.957
53134W        W12395  37.884   3.785  11.878
53135W        W12396   2.279  13.756   2.857
53136W        W12397  37.878  11.669  10.106
53137W        W12398  36.092  31.493   4.261
53138W        W12399  27.167  13.830   3.175
53139W        W12400   2.823  43.315  14.978
53140W        W12401  29.595  18.642   1.807
53141W        W12402  12.643  12.818  14.821
53142W        W12403  22.580   4.315   1.728
53143W        W12404   5.364  13.824  11.434
53144W        W12405  30.950  30.907   3.645
53145W        W12406  11.765  26.084  14.470
53146W        W12407  36.565  19.262   2.186
53147W        W12408   7.714  22.532   4.614
53148W        W12409  26.990   2.300  11.970
53149W        W12410  18.174  39.055   2.413
53150W        W12411   0.854  12.209   3.191
53151W        W12412   5.872  34.480  12.949
53152W        W12413  13.283  33.492   1.293
53153W        W12414   6.391  18.742   4.716
53154W        W12415  42.918  14.777   0.821
53155W        W12416  20.745  31.573  13.488
53156W        W12417   1.254  42.364  12.342
53157W        W12418  36.941  42.824   0.937
53158W        W12419  29.669  39.536  11.586
53159W        W12420  30.145  36.002  12.866
53160W        W12421  13.321   1.951  10.902
53161W        W12422  34.049   9.198   1.343
53162W        W12423   0.355  32.038   1.265
53163W        W12424  42.895  25.705   0.791
53164W        W12425  37.572  27.128  11.901
53165W        W12426   3.723  40.916   3.688
53166W        W12427  34.465  26.022   3.199
53167W        W12428  43.427  10.831   1.730
53168W        W12429   4.421  34.460   3.347
53169W        W12430  15.649  43.495   3.377
53170W        W12431  39.485  44.827   1.900
53171W        W12432  16.770  39.345  12.531
53172W        W12433   0.293   3.221  14.813
53173W        W12434   7.766  38.469   4.160
53174W        W12435  13.167  10.707   0.248
53175W        W12436  17.684  42.988  14.777
53176W        W12437  21.176  26.541  12.855
53177W        W12438  21.245   9.323   2.339
53178W        W12439  37.367  22.738   0.747
53179W        W12440  24.495   3.945   2.208
53180W        W12441  42.856  11.749   2.825
53181W        W12442  30.626  24.138  13.979
53182W        W12443  20.569  27.503  11.501
53183W        W12444  44.463  17.787  14.387
53184W        W12445  18.115  16.603   1.340
53185W        W12446  14.595  37.423  14.854
53186W        W12447   6.853  36.937   3.688
53187W        W12448  17.163  20.641   1.394
53188W        W12449  42.350  18.158  13.063
53189W        W12450  41.361  19.626  11.500
53190W        W12451  36.538  43.865   1.421
53191W        W12452  44.355  38.870   9.937
53192W        W12453  38.497  22.043   0.256
53193W        W12454  38.889  44.397  14.015
53194W        W12455  17.073  30.919  10.506
53195W        W12456   5.424  18.747   1.769
53196W        W12457  26.676  25.191   3.284
53197W        W12458  27.029  42.903  12.369
53198W        W12459  35.428  35.021  11.018
53199W        W12460   9.366   0.928   1.308
53200W        W12461   9.268  12.778   1.793
53201W        W12462  24.707   0.829  10.610
53202W        W12463  28.964  14.256  12.369
53203W        W12464  17.785   3.255   3.262
53204W        W12465  14.626  19.159   2.223
53205W        W12466  38.981   7.889   3.706
53206W        W12467  42.314   4.411  12.574
53207W        W12468  41.839   6.762  10.946
53208W        W12469  30.456   6.698  12.088
53209W        W12470  25.026  28.493   0.767
53210W        W12471  27.509  40.512   0.263
53211W        W12472  37.427   4.812  11.521
53212W        W12473  36.965  37.413   3.180
53213W        W12474  26.081  20.629   3.738
53214W        W12475   4.855  19.588  10.909
53215W        W12476  30.164  15.199   5.192
53216W        W12477  12.246  37.043   3.726
53217W        W12478   1.754  21.181  13.533
53218W        W12479  36.525  13.648  11.006
53219W        W12480  30.425  25.145   2.200
53220W        W12481  11.716  17.716  11.421
53221W        W12482  35.954  23.114  14.836
53222W        W12483  18.182  14.216  12.462
53223W        W12484  34.870  13.814   0.777
53224W        W12485  23.736  24.995   4.165
53225W        W12486  14.283   4.287   3.175
53226W        W12487  26.099  28.442   4.831
53227W        W12488  24.159   4.817  13.833
53228W        W12489  37.025  42.518  13.369
53229W        W12490  24.530  42.928  13.384
53230W        W12491  38.550  18.150  11.081
53231W        W12492  30.570   4.331   3.250
53232W        W12493  38.045   7.709  14.495
53233W        W12494  27.538  10.720  12.984
53234W        W12495   5.334  40.358  13.950
53235W        W12496  43.407  26.043  10.633
53236W        W12497   8.298  24.108  12.418
53237W        W12498  32.934   0.494  14.406
53238W        W12499   6.768  30.449   3.730
53239W        W12500   6.207  24.536   2.715
53240W        W12501  30.633   3.943  14.859
53241W        W12502  43.801   8.294  11.500
53242W        W12503  15.590  17.709  10.440
53243W        W12504  28.177  27.176   4.230
53244W        W12505  37.965   7.361  11.476
53245W        W12506  25.565  39.437  11.046
53246W        W12507   3.821  33.958  14.893
53247W        W12508   2.316  12.354  14.857
53248W        W12509  36.865   0.264  14.367
53249W        W12510  28.938  12.856  14.776
53250W        W12511  34.440  35.979  14.773
53251W        W12512   6.224  35.036  11.936
53252W        W12513  24.622  41.933   2.722
53253W        W12514  41.839   4.788  13.995
53254W        W12515   5.388  11.288  13.515
53255W        W12516  31.411  28.184  13.417
53256W        W12517  24.981  26.964   0.821
53257W        W12518  18.630   7.843   3.684
53258W        W12519  11.155  12.220  10.502
53259W        W12520   5.870  12.720   2.282
53260W        W12521  18.564  38.327  12.951
53261W        W12522  23.227  37.448   3.363
53262W        W12523  44.841  27.667   3.838
53263W        W12524   7.310  39.913  11.893
53264W        W12525   6.254  40.986  14.800
53265W        W12526  13.669  12.662  12.397
53266W        W12527  36.024  36.526  13.516
53267W        W12528  44.973  15.806   4.354
53268W        W12529  29.645  27.522   1.438
53269W        W12530  19.621  25.000   4.257
53270W        W12531  21.527  11.319  13.441
53271W        W12532  43.942   1.382  13.838
53272W        W12533   1.936  31.068   4.801
53273W        W12534  23.688   2.795   1.880
53274W        W12535  20.208  11.674   4.237
53275W        W12536  37.036   9.889  13.969
53276W        W12537  14.622  11.675  12.366
53277W        W12538   6.225  23.553  13.933
53278W        W12539  14.157   9.853   2.347
53279W        W12540   7.842  16.223  14.975
53280W        W12541  40.435  11.811   5.215
53281W        W12542   4.745  27.092   4.342
53282W        W12543  29.932  32.924  14.307
53283W        W12544  11.282  36.927  13.936
53284W        W12545  42.515  35.924  11.898
53285W        W12546  22.681  21.719  13.522
53286W        W12547   2.759  34.970  12.059
53287W        W12548  22.042  38.857  14.407
53288W        W12549  31.422  32.524   2.403
53289W        W12550  21.529  22.672   2.840
53290W        W12551   7.749   6.895   0.889
53291W        W12552  19.630  35.071   0.916
53292W        W12553  27.671  21.575  14.931
53293W        W12554  32.505  23.668   1.431
53294W        W12555  15.669   7.405  13.915
53295W        W12556  37.014  29.159   4.798
53296W        W12557  37.889  24.570  13.434
53297W        W12558  34.417  23.212   2.401
53298W        W12559  26.558  30.127  10.908
53299W        W12560   8.856   0.412   4.334
53300W        W12561  39.513   0.752   1.893
53301W        W12562   8.261   3.825   2.688
53302W        W12563  12.335  30.984   3.155
53303W        W12564  10.156  44.980   3.784
53304W        W12565   0.813  20.159   3.267
53305W        W12566  11.637  37.392   2.886
53306W        W12567  29.647  36.510  12.496
53307W        W12568  27.141  26.084   9.577
53308W        W12569  35.389  36.016   0.402
53309W        W12570  11.679  16.684   0.781
53310W        W12571  17.694  32.474  14.796
53311W        W12572  40.327   0.464   3.196
53312W        W12573  44.933  31.102   4.797
53313W        W12574   4.415  29.995   2.890
53314W        W12575   3.415   5.694   4.821
53315W        W12576   0.388  12.613  14.924
53316W        W12577  11.250  40.344   0.896
53317W        W12578  24.511   1.787  12.418
53318W        W12579  22.037  12.227   4.133
53319W        W12580  34.029   6.325  11.942
53320W        W12581  42.518  42.498   2.312
53321W        W12582   5.372  35.563  11.482
53322W        W12583   0.979  28.615   0.399
53323W        W12584  24.225  44.293   1.374
53324W        W12585  40.379  32.135   4.127
53325W        W12586   8.674  36.363   1.239
53326W        W12587  26.025  23.142   2.787
53327W        W12588  38.991  37.570   3.164
53328W        W12589  24.212  39.022  10.629
53329W        W12590  31.140  35.912   1.347
53330W        W12591  12.642  42.376   0.255
53331W        W12592  39.915  28.057  12.851
53332W        W12593  42.805   3.363  11.606
53333W        W12594   7.782  30.144   3.785
53334W        W12595   0.875   6.409   0.437
53335W        W12596  28.114  38.411   4.151
53336W        W12597   5.275   8.724   0.286
53337W        W12598  23.683  41.000   3.374
53338W        W12599  12.157  13.242  11.437
53339W        W12600  21.663  18.154  12.984
53340W        W12601  23.063  26.624   0.839
53341W        W12602  32.998  19.195   2.715
53342W        W12603  28.177   7.678  13.444
53343W        W12604  19.657  21.628  13.864
53344W        W12605   6.872   7.734  12.397
53345W        W12606  15.659  37.948   4.656
53346W        W12607  21.076   3.920  13.975
53347W        W12608  41.304  17.786  14.767
53348W        W12609  26.056  21.723   2.785
53349W        W12610  16.777  44.329  11.466
53350W        W12611   2.397  36.050   2.722
53351W        W12612   7.831  43.466  15.000
53352W        W12613  12.683  44.756  14.418
53353W        W12614  37.498  23.669  11.564
53354W        W12615  40.876  10.194  13.052
53355W        W12616  26.605   9.193  13.926
53356W        W12617   2.351  34.515   1.863
53357W        W12618  41.537  13.168   1.931
53358W        W12619  37.059  20.157   4.634
53359W        W12620  10.289  22.634   4.767
53360W        W12621  19.283  37.353  10.888
53361W        W12622  33.466  20.189  12.360
53362W        W12623   5.838  28.151  13.878
53363W        W12624  44.466  21.219  12.519
53364W        W12625  31.042  34.031   3.312
53365W        W12626  24.991  12.293  14.475
53366W        W12627  11.800  30.595  11.030
53367W        W12628   5.742  18.092  11.437
53368W        W12629  30.130  31.964   2.794
53369W        W12630  25.126  36.418   2.741
53370W        W12631   4.370  33.509  12.347
53371W        W12632   2.326  21.189  13.885
53372W        W12633   1.248  30.464   1.869
53373W        W12634  11.210  18.180  11.033
53374W        W12635  32.524  42.966  12.864
53375W        W12636   4.308  20.255   0.948
53376W        W12637   4.934  16.809  13.993
53377W        W12638  44.930  36.059  11.577
53378W        W12639  43.917  10.304  11.562
53379W        W12640   0.828  15.696   4.115
53380W        W12641  14.794  24.633  12.921
53381W        W12642  35.935  21.589   1.313
53382W        W12643  21.080  40.048   0.942
53383W        W12644  24.562  43.277  11.540
53384W        W12645  32.508  40.806   9.653
53385W        W12646  34.110  17.270  12.381
53386W        W12647   1.866  21.188  11.881
53387W        W12648   7.867  34.382   1.724
53388W        W12649  37.989  29.606   3.250
53389W        W12650  39.375  24.647   2.881
53390W        W12651  17.661  37.999  13.329
53391W        W12652  29.160  35.393   0.316
53392W        W12653   1.422   7.824  13.046
53393W        W12654  43.831  26.111   3.700
53394W        W12655   9.777  22.738   3.342
53395W        W12656  12.281  22.044   1.775
53396W        W12657  27.041  19.733   4.707
53397W        W12658  39.975  16.100  10.962
53398W        W12659  23.018  37.345   0.769
53399W        W12660   5.225  43.433  11.466
53400W        W12661  14.284  28.027   9.536
53401W        W12662  22.063   9.353  12.501
53402W        W12663  12.741  18.155   0.928
53403W        W12664  23.161  12.803  12.916
53404W        W12665  31.602  20.028  13.383
53405W        W12666  14.166  17.581  14.844
53406W        W12667   2.868  30.034   0.947
53407W        W12668  21.532   1.358  14.513
53408W        W12669  20.084  20.711  11.923
53409W        W12670  38.525  40.324   2.341
53410W        W12671  17.179  24.132   1.922
53411W        W12672  16.768   3.866   4.278
53412W        W12673  26.040  21.638  13.955
53413W        W12674  19.677  29.513   0.303
53414W        W12675  40.502   2.870  14.845
53415W        W12676  28.619  19.714  12.358
53416W        W12677  37.003  21.735  12.496
53417W        W12678  33.575   4.922  10.081
53418W        W12679  42.478   0.430   2.329
53419W        W12680   9.774  42.823   4.619
53420W        W12681  12.674  19.621   3.340
53421W        W12682  22.031  26.576  13.375
53422W        W12683   8.866   0.340   0.414
53423W        W12684   4.810  36.986   0.406
53424W        W12685  10.645  37.836  10.643
53425W        W12686  21.251  23.692   0.841
53426W        W12687  20.134   9.652   0.464
53427W        W12688   9.391  29.620  11.970
53428W        W12689  23.017  43.275   4.684
53429W        W12690  21.672  44.328  10.946
53430W        W12691  28.472  10.786  14.430
53431W        W12692   2.306   1.388  14.275
53432W        W12693  14.760   6.191  14.373
53433W        W12694   9.718   5.358   0.292
53434W        W12695  17.299  44.318   2.698
53435W        W12696  36.072  20.676  11.023
53436W        W12697  10.676  23.508  14.483
53437W        W12698  19.675   9.741   0.261
53438W        W12699  18.557  39.992   0.430
53439W        W12700  17.296  21.584   4.806
53440W        W12701   0.275  18.224  10.468
53441W        W12702  27.054   1.861  13.024
53442W        W12703  29.614  12.744   3.325
53443W        W12704  12.754   0.395   4.242
53444W        W12705  35.525  44.373  13.794
53445W        W12706   8.897  30.095   1.841
53446W        W12707  17.296  36.365  13.976
53447W        W12708   4.870  38.960   3.696
53448W        W12709  20.684   5.752  14.286
53449W        W12710   4.810  29.993  13.883
53450W        W12711   2.839   8.268   1.744
53451W        W12712  20.566  16.581   3.339
53452W        W12713   8.281   8.800   3.182
53453W        W12714  33.494  28.470  13.461
53454W        W12715  35.425  17.721   2.871
53455W        W12716  43.905  22.118  14.353
53456W        W12717   1.322  16.257   4.749
53457W        W12718  38.984  29.087   1.390
53458W        W12719   0.260   6.398  12.394
53459W        W12720  15.770  40.342   2.274
53460W        W12721  24.507  35.082  12.053
53461W        W12722   3.889  17.125   2.220
53462W        W12723  21.039   7.811  11.379
53463W        W12724  28.072   1.838  14.318
53464W        W12725   8.874  15.654  14.862
53465W        W12726  19.760   6.686  11.981
53466W        W12727   0.307  37.974   4.795
53467W        W12728  30.455  17.209  11.923
53468W        W12729  26.590  21.249   1.405
53469W        W12730  23.138  36.382   3.855
53470W        W12731  12.857   1.899   2.889
53471W        W12732  15.112  20.093   9.461
53472W        W12733  20.591  21.565   4.200
53473W        W12734   8.834   8.385   3.839
53474W        W12735   4.394   0.986  12.907
53475W        W12736  43.017  24.708   0.816
53476W        W12737  11.290  35.087  11.481
53477W        W12738  39.009   0.909   3.699
53478W        W12739  15.271  24.710   3.373
53479W        W12740  33.885  37.013   0.930
53480W        W12741   8.225  29.022  10.937
53481W        W12742  12.807   9.358  14.415
53482W        W12743  30.018  35.447   2.318
53483W        W12744   0.381  31.115   4.211
53484W        W12745  40.047  26.175   3.340
53485W        W12746   3.792   5.860  10.959
53486W        W12747  10.149   1.752  13.051
53487W        W12748  18.633  40.485   4.599
53488W        W12749  32.594  34.463  14.903
53489W        W12750  28.091  34.560   9.992
53490W        W12751  26.664  10.383  12.921
53491W        W12752   7.207  20.103  13.873
53492W        W12753   8.825   8.220   0.424
53493W        W12754  21.040   1.302  14.793
53494W        W12755  42.308  33.992   5.796
53495W        W12756  25.684  15.757  10.530
53496W        W12757  42.784  26.683   5.082
53497W        W12758  44.862  26.038  10.572
53498W        W12759  25.705  24.143  11.415
53499W        W12760  32.622   7.272   4.340
53500W        W12761  12.654  21.758  13.992
53501W        W12762  44.453   9.797   3.685
53502W        W12763   2.726  29.579  12.014
53503W        W12764   7.271  43.437  10.536
53504W        W12765  16.779  39.932   3.729
53505W        W12766   6.287   8.749  11.015
53506W        W12767  34.476   1.830   4.296
53507W        W12768  42.780  11.262  13.534
53508W        W12769   7.672   2.340   0.943
53509W        W12770  28.561  10.741   0.835
53510W        W12771  16.293  38.427   4.680
53511W        W12772  29.995  12.126   0.263
53512W        W12773  38.408   8.855   4.645
53513W        W12774  39.349  13.153   0.447
53514W        W12775  39.932  36.879   0.415
53515W        W12776   5.864   1.955  10.592
53516W        W12777   5.207   5.840   4.612
53517W        W12778  11.212  31.629  13.800
53518W        W12779  43.364  27.994   4.804
53519W        W12780  32.057  13.143   1.922
53520W        W12781   8.228  17.629   1.224
53521W        W12782   7.303  26.110  12.450
53522W        W12783  13.287  12.149   1.266
53523W        W12784   8.668  36.440   4.331
53524W        W12785  17.702  27.475   9.479
53525W        W12786  13.720  42.001  14.873
53526W        W12787  42.805  29.096  13.883
53527W        W12788  10.250  24.482  10.903
53528W        W12789  28.543  25.170   2.253
53529W        W12790  19.585  30.938  14.028
53530W        W12791   5.324  18.625  12.872
53531W        W12792  11.210   3.913  11.992
53532W        W12793  24.486  26.093  14.911
53533W        W12794  12.341  16.177   3.760
53534W        W12795  31.110  43.392   3.651
53535W        W12796   6.401  17.664  10.485
53536W        W12797  42.806  30.444  14.434
53537W        W12798  10.379  24.170   3.161
53538W        W12799  18.282  19.157   0.400
53539W        W12800  28.664  21.043   3.864
53540W        W12801   2.389  43.919   4.645
53541W        W12802   6.283   4.914  13.907
53542W        W12803   8.351  14.620  10.950
53543W        W12804  14.216  21.257  11.438
53544W        W12805  20.595   6.802  13.546
53545W        W12806  20.132  35.065   3.636
53546W        W12807  16.313  35.053  10.566
53547W        W12808   3.347  31.447  11.518
53548W        W12809  31.617  35.575  13.389
53549W        W12810  20.676   2.456  12.845
53550W        W12811  12.793  20.255   0.364
53551W        W12812  37.062  38.441   1.705
53552W        W12813   0.308  35.015  10.906
53553W        W12814   6.855   5.234  12.425
53554W        W12815  29.940  39.859  11.404
53555W        W12816  41.411  10.705   2.289
53556W        W12817  44.259  39.379  10.975
53557W        W12818  10.298  42.501  13.842
53558W        W12819  36.353   3.384  10.902
53559W        W12820  26.490  43.409   0.792
53560W        W12821  10.689  39.487   0.398
53561W        W12822  17.301   1.475  14.418
53562W        W12823  39.479  12.856   3.853
53563W        W12824   1.473   0.865   1.829
53564W        W12825  16.614  11.824  13.920
53565W        W12826  12.802  15.715   2.268
53566W        W12827  29.065  40.314   0.412
53567W        W12828  33.079   0.295   2.724
53568W        W12829  17.101   1.289   4.782
53569W        W12830  18.597   4.870   3.755
53570W        W12831  29.044  39.475   4.693
53571W        W12832  18.625   3.242  12.494
53572W        W12833   5.807  29.643  11.903
53573W        W12834  25.045  42.490  10.554
53574W        W12835  14.300  34.937   5.321
53575W        W12836  14.822  14.639  12.347
53576W        W12837  36.057   2.398  14.983
53577W        W12838   5.369  15.642   4.174
53578W        W12839  24.708  15.727   2.681
53579W        W12840  10.658   8.312   2.848
53580W        W12841  21.092  40.991   1.749
53581W        W12842  43.463   6.201  14.312
53582W        W12843  41.940  29.633   2.347
53583W        W12844   0.836  21.708  10.960
53584W        W12845   0.865  10.139  12.483
53585W        W12846  22.065  18.058  10.473
53586W        W12847   0.406  24.206   0.467
53587W        W12848  17.798   6.194  11.374
53588W        W12849  33.075  39.987   1.301
53589W        W12850   0.834  13.191   2.869
53590W        W12851  35.477   8.342  14.911
53591W        W12852  43.361   1.934  11.863
53592W        W12853  25.175  28.600   3.364
53593W        W12854  27.513  39.408   4.127
53594W        W12855   7.675   5.711   4.603
53595W        W12856  38.375  39.936   0.296
53596W        W12857  37.955  27.687  11.106
53597W        W12858  27.492  35.035   1.246
53598W        W12859  40.544   4.814   0.432
53599W        W12860  25.519  33.391  13.897
53600W        W12861  32.581   7.880  14.856
53601W        W12862  32.072  23.538   1.931
53602W        W12863   8.719  26.658  12.940
53603W        W12864   8.880  31.954  11.022
53604W        W12865  25.584  30.147  14.764
53605W        W12866  22.532   7.693   4.809
53606W        W12867   8.842  23.111   4.782
53607W        W12868  17.142  14.628   4.707
53608W        W12869  15.106  39.505  14.301
53609W        W12870  42.004  20.073   1.718
53610W        W12871   4.886   0.925   0.936
53611W        W12872  10.292   1.277   4.150
53612W        W12873  33.051  40.524   0.400
53613W        W12874  31.603  23.504   0.419
53614W        W12875   9.283  13.188  13.033
53615W        W12876   7.720  26.541   1.777
53616W        W12877  22.157  13.728  12.833
53617W        W12878   5.234  31.438  13.484
53618W        W12879  34.088  24.988  11.013
53619W        W12880  34.541  41.384  14.425
53620W        W12881   9.243  40.826  13.943
53621W        W12882  30.437  25.675  11.984
53622W        W12883  11.679  38.926   5.213
53623W        W12884  44.914  42.983  10.443
53624W        W12885  22.538   9.159   2.390
53625W        W12886  17.194  24.193   1.294
53626W        W12887   8.841  28.661  14.308
53627W        W12888  15.608   7.825  11.090
53628W        W12889  39.451  11.158  11.503
53629W        W12890  24.494  33.576   1.803
53630W        W12891  38.359   7.709   1.858
53631W        W12892  36.952  41.336  11.964
53632W        W12893  37.004   2.332   3.265
53633W        W12894  19.550  16.299   3.790
53634W        W12895  13.655  15.768  12.891
53635W        W12896  44.330  33.986  13.451
53636W        W12897  37.435   5.322  12.974
53637W        W12898   5.843  15.236   2.279
53638W        W12899  24.481  29.565  11.090
53639W        W12900  18.292  43.932  13.396
53640W        W12901  30.927  30.116  12.532
53641W        W12902   9.828  25.090  13.822
53642W        W12903   0.863  44.269  14.850
53643W        W12904  29.127  38.033  11.391
53644W        W12905   7.277  16.233  12.070
53645W        W12906  29.075  41.970  11.468
53646W        W12907  18.141   1.883  10.544
53647W        W12908   2.238  25.120  12.390
53648W        W12909  15.684  32.448   2.357
53649W        W12910  18.153  38.876  12.057
53650W        W12911  11.733  13.652   0.872
53651W        W12912  10.255  18.648   4.704
53652W        W12913  42.445   5.772  12.875
53653W        W12914  31.531  29.048  12.465
53654W        W12915  43.837  13.114  12.888
53655W        W12916   9.153  11.677   2.374
53656W        W12917   4.787  42.963   5.168
53657W        W12918  29.510  23.615  13.959
53658W        W12919  13.608  41.860  12.925
53659W        W12920  33.885  18.236   0.360
53660W        W12921  41.939  34.002  14.491
53661W        W12922  24.546   2.865  14.797
53662W        W12923  42.889   2.933  12.921
53663W        W12924  43.975   0.427   2.771
53664W        W12925  15.673  11.709  11.600
53665W        W12926  38.867   3.862   3.383
53666W        W12927  27.973  25.609   4.708
53667W        W12928  31.496  21.037  10.590
53668W        W12929  40.017  31.104  10.627
53669W        W12930  19.218   6.317  11.522
53670W        W12931  32.419   2.366  14.280
53671W        W12932  14.256   2.246  14.901
53672W        W12933  15.713  26.113  10.463
53673W        W12934   2.758  16.726   2.757
53674W        W12935  10.217  18.585  13.941
53675W        W12936  33.902  30.651   0.476
53676W        W12937  38.534   5.929  12.395
53677W        W12938  12.836  15.767   1.321
53678W        W12939  30.598  31.098   1.892
53679W        W12940  42.281  17.765  13.474
53680W        W12941  42.899  42.900   4.829
53681W        W12942  13.743  31.410   1.753
53682W        W12943  13.268  44.864  11.017
53683W        W12944  41.927  37.893   3.700
53684W        W12945  21.232  25.991  11.488
53685W        W12946  11.639  38.898  13.322
53686W        W12947   1.896  14.700  14.933
53687W        W12948   6.387  12.187   4.626
53688W        W12949  24.632  43.946  14.921
53689W        W12950  10.755  37.525  13.860
53690W        W12951  26.612  43.975   3.747
53691W        W12952  43.905  34.106   0.435
53692W        W12953  27.459  24.035   0.358
53693W        W12954  30.076  39.394  14.809
53694W        W12955  31.577   8.739   5.141
53695W        W12956  26.971  16.600  13.957
53696W        W12957  28.583  10.185  11.120
53697W        W12958  27.003  16.156  14.933
53698W        W12959  43.982  16.785   1.695
53699W        W12960  18.761   8.862   5.165
53700W        W12961  41.873   4.302   3.774
53701W        W12962  18.574  30.593   1.360
53702W        W12963  17.594  16.213  12.490
53703W        W12964  23.648  27.489   1.236
53704W        W12965  13.690  31.436   9.970
53705W        W12966  27.588  38.979   4.804
53706W        W12967  18.270  11.201  11.937
53707W        W12968  33.528  44.805   3.677
53708W        W12969   7.676  17.194  14.329
53709W        W12970   4.873  28.072   1.342
53710W        W12971  20.529  20.766  12.867
53711W        W12972  44.287  25.037  13.909
53712W        W12973  35.965   8.884  12.957
53713W        W12974   6.836   6.409  14.296
53714W        W12975  21.105  18.158  13.374
53715W        W12976  16.178   4.260   3.857
53716W        W12977  41.847   4.830  11.494
53717W        W12978  24.556  35.411   4.760
53718W        W12979   8.371  13.204  11.497
53719W        W12980  29.993  11.738   1.337
53720W        W12981  19.580  24.693   0.481
53721W        W12982  42.486   6.215   3.665
53722W        W12983  32.504  11.156   4.265
53723W        W12984   6.740   1.974  14.487
53724W        W12985  17.274  43.915  12.565
53725W        W12986  22.680   2.283   2.863
53726W        W12987  27.015   5.706   0.374
53727W        W12988  27.462  19.266   1.777
53728W        W12989  33.012  12.813  13.436
53729W        W12990  42.833  23.590   2.775
53730W        W12991  38.834  12.234   2.238
53731W        W12992  19.565  28.646   2.221
53732W        W12993   9.323  39.964  11.593
53733W        W12994  23.189  13.117   3.699
53734W        W12995  40.799  21.160  13.811
53735W        W12996  10.272  31.143  11.956
53736W        W12997  14.211  42.436  10.474
53737W        W12998   8.894   1.863   3.803
53738W        W12999  20.057  28.578   3.790
53739W        W13000  23.156  41.307  11.977
53740W        W13001  37.497   9.875   0.482
53741W        W13002   0.814   8.219   3.212
53742W        W13003  37.525  24.529   4.634
53743W        W13004  24.148  13.186  12.969
53744W        W13005  40.481   2.455  13.006
53745W        W13006  34.941  22.118  11.600
53746W        W13007  26.007  10.856  14.790
53747W        W13008   7.186  44.339  10.555
53748W        W13009  28.091  24.058  13.885
53749W        W13010   5.853   2.734  11.033
53750W        W13011  44.884  29.070  12.061
53751W        W13012  10.797  39.012  10.976
53752W        W13013   8.789  24.669   0.740
53753W        W13014  41.351  28.664   4.802
53754W        W13015  25.054  41.429  12.416
53755W        W13016  38.337  22.178  13.496
53756W        W13017  21.627  23.072   3.832
53757W        W13018  30.541  25.032   4.344
53758W        W13019  26.508  32.905   2.368
53759W        W13020  21.148  31.055   4.308
53760W        W13021  42.378  24.613   3.291
53761W        W13022   3.742   2.788   3.778
53762W        W13023  31.478   1.864   4.137
53763W        W13024   0.452  39.443   4.316
53764W        W13025  39.373  41.795  10.595
53765W        W13026  13.691   0.778   5.112
53766W        W13027  10.300  10.729   3.832
53767W        W13028   6.868  31.592   2.863
53768W        W13029  37.568   3.815   1.372
53769W        W13030  25.987  21.524  12.091
53770W        W13031  30.459   0.405  14.506
53771W        W13032  28.620  10.347   2.223
53772W        W13033  23.696   3.233  11.996
53773W        W13034  39.048  20.635  12.980
53774W        W13035  36.582  35.079  10.047
53775W        W13036  19.144   8.304   0.927
53776W        W13037  33.882  35.484  11.045
53777W        W13038  27.099   9.216  14.904
53778W        W13039  16.257  41.935  10.589
53779W        W13040  13.340   5.293  12.349
53780W        W13041  38.337  39.895  10.542
53781W        W13042  40.003  33.944   9.533
53782W        W13043  10.710   2.769  10.493
53783W        W13044   4.214  37.468  10.943
53784W        W13045   6.694   0.471   2.779
53785W        W13046   3.351  13.314   0.897
53786W        W13047  13.309   8.215  13.479
53787W        W13048  38.846  44.922  10.118
53788W        W13049   3.426  40.480  11.516
53789W        W13050  39.810  40.396  10.940
53790W        W13051  31.478  30.970   3.331
53791W        W13052  11.775   9.321  12.495
53792W        W13053  13.139  25.076   2.839
53793W        W13054   4.778  13.708   2.827
53794W        W13055  41.972  36.080  10.112
53795W        W13056  41.924  31.531  11.968
53796W        W13057  22.185  21.690   4.690
53797W        W13058  17.128  34.044  14.411
53798W        W13059  24.080  27.592  12.887
53799W        W13060   7.259  11.866  13.383
53800W        W13061  37.886  35.966  10.047
53801W        W13062  14.327  27.658  14.023
53802W        W13063  30.657  42.024   2.763
53803W        W13064  40.808  43.910   1.431
53804W        W13065  39.496  41.477   4.824
53805W        W13066  43.829  29.632   1.871
53806W        W13067  31.530   6.275  10.492
53807W        W13068  15.587  11.210   3.765
53808W        W13069  26.458  36.842  12.850
53809W        W13070   2.450  36.517  10.946
53810W        W13071  42.513  31.451   3.219
53811W        W13072  38.343  15.302  10.945
53812W        W13073  20.716  41.362   1.806
53813W        W13074  28.521  31.525  14.358
53814W        W13075  26.055  32.076  12.358
53815W        W13076  13.612  17.093  14.856
53816W        W13077  30.991  16.568  14.387
53817W        W13078   5.215   0.933  13.849
53818W        W13079  25.060  20.530  13.441
53819W        W13080   8.828  40.859  14.405
53820W        W13081  11.344  22.591   3.349
53821W        W13082  23.553  18.220   2.278
53822W        W13083  39.390   7.290  14.396
53823W        W13084  17.730   5.791  12.536
53824W        W13085  41.039  34.534  13.904
53825W        W13086  24.044  34.967  12.989
53826W        W13087  40.549   6.309   0.303
53827W        W13088  17.076  27.052  11.935
53828W        W13089  36.865  23.495  12.429
53829W        W13090  35.927  17.755  14.471
53830W        W13091  27.469  13.818   0.292
53831W        W13092  15.671  34.481   0.369
53832W        W13093   1.860  43.503   0.849
53833W        W13094  39.058  27.686  13.547
53834W        W13095  41.298  19.175  11.579
53835W        W13096   6.235  40.521  11.959
53836W        W13097   3.265  42.858  13.349
53837W        W13098  41.334  40.010  14.763
53838W        W13099  31.068   7.226   1.830
53839W        W13100  30.418  29.545   2.356
53840W        W13101  25.630  16.180   2.394
53841W        W13102   1.391   2.450  14.513
53842W        W13103  29.631  30.492   2.214
53843W        W13104  26.022  13.317  14.283
53844W        W13105  10.236  34.371   2.355
53845W        W13106  44.868  28.632  14.898
53846W        W13107  11.777   8.784  13.356
53847W        W13108  10.272  21.703  11.090
53848W        W13109  24.033  33.507  13.521
53849W        W13110  28.005  32.501  12.505
53850W        W13111  25.492  38.966   1.395
53851W        W13112   0.436  21.180   2.297
53852W        W13113  37.362  38.482  12.428
53853W        W13114   2.264  36.943   4.127
53854W        W13115  28.987   2.396   3.640
53855W        W13116  33.472   7.754   0.306
53856W        W13117   4.288  14.273   0.422
53857W        W13118  36.889   7.304  10.477
53858W        W13119  18.083  11.319  10.921
53859W        W13120   0.336   4.926  10.920
53860W        W13121  18.070  15.142  11.127
53861W        W13122   1.292  33.056  11.523
53862W        W13123   5.840  25.524  12.016
53863W        W13124  26.020  12.276  12.904
53864W        W13125  42.411  34.912   1.743
53865W        W13126  27.080  16.130   2.861
53866W        W13127  23.516  40.477   2.729
53867W        W13128   1.356  43.454   3.805
53868W        W13129   2.410  26.116  11.458
53869W        W13130  12.623  19.284  12.952
53870W        W13131  36.911  12.796   1.355
53871W        W13132  13.683   9.768  12.960
53872W        W13133   5.897  27.460   1.225
53873W        W13134   8.300  27.073  11.934
53874W        W13135  25.130  39.883  11.985
53875W        W13136   9.340  15.163   4.746
53876W        W13137  36.575  30.154   1.232
53877W        W13138   4.258  42.899   4.718
53878W        W13139  35.556  17.113  10.948
53879W        W13140  44.759  19.162  14.301
53880W        W13141  42.513  36.994  14.765
53881W        W13142   6.273  40.379  14.029
53882W        W13143  12.134  16.718   4.145
53883W        W13144  27.007   2.949   1.219
53884W        W13145   8.281  14.730   1.434
53885W        W13146  37.441  40.380   0.479
53886W        W13147  27.511  23.594   0.473
53887W        W13148  25.661   1.743  11.027
53888W        W13149  44.775   2.295  10.624
53889W        W13150  25.503   2.358  10.621
53890W        W13151  30.475  36.568  12.089
53891W        W13152  42.973  29.987  12.569
53892W        W13153  23.527  15.157  14.441
53893W        W13154  26.997   4.311   3.835
53894W        W13155  18.598   4.704   2.237
53895W        W13156  31.133   8.811   1.720
53896W        W13157  18.600  27.486  11.386
53897W        W13158  22.009  19.620  12.018
53898W        W13159  18.108   1.237  11.498
53899W        W13160   7.733  11.773   4.124
53900W        W13161  17.087  11.210   3.731
53901W        W13162   6.320  22.190   3.754
53902W        W13163  40.810  12.779   0.253
53903W        W13164  41.947   9.209  13.999
53904W        W13165  10.718  30.429   4.186
53905W        W13166  43.980  13.762   4.184
53906W        W13167  20.098  32.972  11.985
53907W        W13168  38.852   7.808  12.826
53908W        W13169   0.469  31.033   1.374
53909W        W13170  22.536  39.474  14.015
53910W        W13171   6.918  27.555  13.876
53911W        W13172   4.389  23.203   2.356
53912W        W13173  16.757   2.230  12.385
53913W        W13174  20.689  20.699   5.120
53914W        W13175  15.173  44.317   0.732
53915W        W13176  31.924   3.250  13.916
53916W        W13177  32.436  34.498  13.827
53917W        W13178  38.477  38.833   2.806
53918W        W13179  31.150   4.925   3.270
53919W        W13180   4.244  38.402  11.488
53920W        W13181  36.465  26.539   3.321
53921W        W13182  33.430  14.155   0.392
53922W        W13183  17.174   7.310  13.847
53923W        W13184   5.414  25.189   2.838
53924W        W13185  21.730   2.319   0.461
53925W        W13186  35.575  29.428   3.677
53926W        W13187  17.160  21.124  13.925
53927W        W13188  15.273   8.203   1.235
53928W        W13189  19.213  15.628   0.766
53929W        W13190  28.644  14.655  14.991
53930W        W13191   5.850  27.559   0.740
53931W        W13192   7.209  40.304   3.360
53932W        W13193  35.476   6.400  13.316
53933W        W13194   9.310  26.066   2.220
53934W        W13195  31.439  38.841  12.852
53935W        W13196  25.015  20.059   1.885
53936W        W13197  10.273  27.944  14.813
53937W        W13198  40.854  40.047   2.711
53938W        W13199  42.978   1.407  14.784
53939W        W13200  11.754  28.052  13.350
53940W        W13201   3.399   2.403  12.574
53941W        W13202  23.103   9.191   0.402
53942W        W13203  22.635  17.184  10.142
53943W        W13204  36.016  33.059  11.944
53944W        W13205  24.695  37.463  13.405
53945W        W13206  20.738  17.689   4.731
53946W        W13207  33.603  29.024  10.429
53947W        W13208   2.293  42.483  10.629
53948W        W13209  23.992  16.782   2.804
53949W        W13210   9.814  27.006   2.728
53950W        W13211  26.495  12.191  10.984
53951W        W13212  44.005  24.623   3.663
53952W        W13213  32.421  42.919   0.292
53953W        W13214  35.897  22.234   3.800
53954W        W13215  41.981  24.217   4.286
53955W        W13216  15.208  27.156  13.015
53956W        W13217   2.817  36.084  14.952
53957W        W13218  11.764  38.845   3.635
53958W        W13219  38.044  11.842  12.538
53959W        W13220  10.277   2.331   4.764
53960W        W13221  37.959  42.907   3.200
53961W        W13222   1.253  42.920  11.980
53962W        W13223  37.359  43.498  14.355
53963W        W13224  19.078   8.381  11.445
53964W        W13225  16.298   9.334   0.768
53965W        W13226  40.875  15.177  14.338
53966W        W13227  26.975  36.935  10.471
53967W        W13228  22.082  39.395   4.761
53968W        W13229  38.034  29.460   1.828
53969W        W13230   1.347  26.204  11.409
53970W        W13231  12.756   5.369  11.444
53971W        W13232  23.002   5.378   1.297
53972W        W13233  17.209  36.529   4.195
53973W        W13234   2.737  40.413   1.251
53974W        W13235   1.943  32.428  12.980
53975W        W13236  13.213  19.195   2.820
53976W        W13237  18.756  34.911  13.322
53977W        W13238  42.860   5.877   0.312
53978W        W13239   0.345  17.294  10.557
53979W        W13240   2.257  21.536  13.808
53980W        W13241   0.746  13.693   4.772
53981W        W13242  38.448  26.567  13.541
53982W        W13243  10.824  19.283   4.806
53983W        W13244  18.079  16.665   3.357
53984W        W13245  24.222  10.830  12.354
53985W        W13246  22.710  30.923  14.467
53986W        W13247  28.595   5.300  11.868
53987W        W13248  23.702  23.568   0.746
53988W        W13249  26.573   8.257  10.997
53989W        W13250  20.561  17.574   1.289
53990W        W13251  28.164  40.358  14.836
53991W        W13252  37.086   0.317  11.561
53992W        W13253  29.129  21.207  10.573
53993W        W13254  26.653  23.011   4.270
53994W        W13255  12.827  26.998  14.994
53995W        W13256  43.286   9.249   0.863
53996W        W13257  10.294  17.263   2.205
53997W        W13258  31.035  39.375   3.279
53998W        W13259  16.584  39.490  12.987
53999W        W13260  26.641  28.581   1.356
54000W        W13261  27.043  12.819  14.301
54001W        W13262  42.961  27.685  12.836
54002W        W13263  18.078  43.407   1.777
54003W        W13264   6.362  12.695  14.455
54004W        W13265  20.179  38.429   4.775
54005W        W13266   8.656  14.215  13.978
54006W        W13267   6.205  38.924   3.264
54007W        W13268  26.169   9.772  12.455
54008W        W13269  33.431  33.546   4.806
54009W        W13270  22.543  10.725   2.196
54010W        W13271   5.725   9.255   4.710
54011W        W13272   4.442   2.256  10.546
54012W        W13273  18.222  31.969   0.266
54013W        W13274   5.431  24.229  12.912
54014W        W13275  38.478  18.196   2.809
54015W        W13276   8.730  24.504   1.831
54016W        W13277  31.992  26.496  10.544
54017W        W13278  18.698  30.492   2.316
54018W        W13279  36.443  18.653   3.358
54019W        W13280   8.357  34.902  12.087
54020W        W13281  12.128  17.611  12.088
54021W        W13282  41.536  40.971   4.831
54022W        W13283  27.956  42.415   1.263
54023W        W13284  30.557  38.532  12.918
54024W        W13285  27.001  18.193  13.392
54025W        W13286  23.067  10.257  14.931
54026W        W13287  40.512  16.236  12.500
54027W        W13288  38.562  44.933   1.749
54028W        W13289  39.410  38.834   3.632
54029W        W13290   5.697  15.781  11.889
54030W        W13291   1.955  13.192   1.785
54031W        W13292  23.190  20.644  11.507
54032W        W13293  37.535  28.532  14.783
54033W        W13294  43.006  22.595   4.823
54034W        W13295  39.918  34.930   2.413
54035W        W13296  19.672  39.937   3.327
54036W        W13297  27.053  22.995   1.410
54037W        W13298  14.709  21.139   0.911
54038W        W13299  15.236  14.787   5.082
54039W        W13300  36.891   7.263   3.630
54040W        W13301  21.116  21.204  10.907
54041W        W13302  12.289   6.221  14.478
54042W        W13303  28.458  10.375  14.014
54043W        W13304  18.068  14.189   2.742
54044W        W13305  32.606  40.944  12.007
54045W        W13306  39.933  29.139   4.190
54046W        W13307  15.753  20.032  12.020
54047W        W13308  19.190  31.088   1.390
54048W        W13309  13.601  30.057  14.851
54049W        W13310  23.079  44.272  13.004
54050W        W13311  10.637   7.716  10.600
54051W        W13312  40.337  20.728   4.644
54052W        W13313  11.150  17.595  12.519
54053W        W13314  10.783  42.284  11.068
54054W        W13315  21.697  20.252   1.925
54055W        W13316   2.916  31.485  14.833
54056W        W13317  11.698   7.335  14.783
54057W        W13318  33.611  32.605   4.820
54058W        W13319  27.187  17.187  12.871
54059W        W13320  42.353  11.158   0.464
54060W        W13321  24.092   2.768   2.677
54061W        W13322  17.290  26.520  11.398
54062W        W13323  19.258  41.381   4.147
54063W        W13324  22.192  35.023  10.920
54064W        W13325  17.793   4.938  14.319
54065W        W13326  14.153  17.159  14.963
54066W        W13327  34.394   8.280   2.849
54067W        W13328  43.387  34.877  11.968
54068W        W13329  17.266  23.671  13.808
54069W        W13330  19.637  17.615  14.912
54070W        W13331  12.359  31.139  10.478
54071W        W13332  14.215  32.073  12.855
54072W        W13333  32.486  29.931  14.807
54073W        W13334  42.381  19.652   2.888
54074W        W13335  19.251  25.988   0.861
54075W        W13336  24.115  23.701   3.278
54076W        W13337  34.462  20.681   1.734
54077W        W13338  37.465  12.266   2.741
54078W        W13339  16.178  44.863   1.817
54079W        W13340   9.181  41.489  13.542
54080W        W13341  25.002  14.608  12.867
54081W        W13342  38.545  17.717   2.736
54082W        W13343  22.013  17.570  13.362
54083W        W13344  44.950  26.645   0.963
54084W        W13345  18.720  24.019   1.807
54085W        W13346  40.432   0.963  14.389
54086W        W13347  10.738  37.524   0.394
54087W        W13348  41.492  30.023   1.934
54088W        W13349  19.578  35.405   4.601
54089W        W13350   9.753  35.485  13.817
54090W        W13351  41.293  10.344   2.738
54091W        W13352  15.225  37.916  10.468
54092W        W13353  36.370  35.027   2.855
54093W        W13354  11.282  25.971   1.339
54094W        W13355  39.821  14.830  14.864
54095W        W13356  16.576  19.128  11.875
54096W        W13357  36.405  15.296  13.939
54097W        W13358  42.860   3.431  14.445
54098W        W13359   3.244   0.855   5.179
54099W        W13360   9.826   2.826   0.393
54100W        W13361   6.269  42.469  14.869
54101W        W13362   8.247  30.912  10.569
54102W        W13363  41.964  29.462   0.428
54103W        W13364  39.555  31.531   9.651
54104W        W13365  39.475  28.086  14.500
54105W        W13366  39.915  10.249  14.011
54106W        W13367   1.336  32.501   3.774
54107W        W13368  10.310  24.501   0.404
54108W        W13369  10.654  12.249   3.848
54109W        W13370  32.583  18.196  13.063
54110W        W13371  38.460  15.143  11.961
54111W        W13372   5.794  10.847   4.157
54112W        W13373  36.367  37.989  12.533
54113W        W13374   6.374  40.388  12.442
54114W        W13375  31.416  21.036   0.335
54115W        W13376  27.129  33.385   0.876
54116W        W13377  40.983  26.035   1.892
54117W        W13378   4.823  13.693   0.371
54118W        W13379  40.941  20.649   2.216
54119W        W13380  13.621  39.457  12.874
54120W        W13381  25.160  18.202   0.836
54121W        W13382   4.854  15.683   2.686
54122W        W13383  29.624  29.027  12.834
54123W        W13384   0.312  15.169   1.747
54124W        W13385  20.571  26.465  10.098
54125W        W13386  39.992   8.296  11.967
54126W        W13387  41.843  12.351   2.347
54127W        W13388   4.251   9.160   1.325
54128W        W13389   4.805  33.600  11.892
54129W        W13390  27.671   1.922  13.866
54130W        W13391  40.382  30.127   3.742
54131W        W13392  19.556  32.963  11.524
54132W        W13393   9.799  32.961  10.582
54133W        W13394  35.585  24.121   2.334
54134W        W13395  11.332  26.095  14.297
54135W        W13396  10.843   2.264   1.841
54136W        W13397  13.209  44.407  14.353
54137W        W13398   4.698   3.270  14.009
54138W        W13399  12.854  30.624  14.861
54139W        W13400   0.936  23.226  14.974
54140W        W13401  28.618   3.872  14.419
54141W        W13402  37.439  23.526   2.396
54142W        W13403   4.709  24.047   2.409
54143W        W13404  24.004  42.504   0.961
54144W        W13405  44.896   2.895  10.606
54145W        W13406  33.063   3.282   0.857
54146W        W13407  30.014  20.536  13.884
54147W        W13408  28.944  22.731   1.247
54148W        W13409   4.262  38.492   2.891
54149W        W13410   8.307  25.585  12.428
54150W        W13411   9.281   0.422  11.059
54151W        W13412  10.268  19.744  14.452
54152W        W13413  28.997  30.603   2.700
54153W        W13414  26.658  31.117  11.547
54154W        W13415  42.448   0.932   1.363
54155W        W13416  15.585  13.619  10.920
54156W        W13417  20.142   5.401   0.278
54157W        W13418   2.840  39.417   2.314
54158W        W13419  40.820  44.455   3.369
54159W        W13420  32.038   2.820   2.715
54160W        W13421   0.937  21.584   2.876
54161W        W13422   7.912  33.556  10.562
54162W        W13423  36.010  34.424   3.802
54163W        W13424  30.136  17.629   2.777
54164W        W13425  31.897  37.531  13.365
54165W        W13426  15.165  40.994  10.998
54166W        W13427   8.288  17.300   3.281
54167W        W13428   7.307  33.615   4.692
54168W        W13429  39.510  35.506  12.955
54169W        W13430   6.427  19.544  10.424
54170W        W13431  38.367  22.017  14.941
54171W        W13432  43.973  15.811   4.608
54172W        W13433  40.439   5.254   3.208
54173W        W13434  19.616  23.217   5.136
54174W        W13435   4.404   1.310   3.858
54175W        W13436   7.325  32.454  14.807
54176W        W13437  40.050  38.341  12.565
54177W        W13438  25.008  19.621   1.930
54178W        W13439  18.217   4.271   3.351
54179W        W13440  22.569  36.543   3.818
54180W        W13441  16.603  41.305  13.922
54181W        W13442  38.072  31.467  12.568
54182W        W13443  32.959   8.335  11.561
54183W        W13444  15.195  13.135  14.903
54184W        W13445   6.835   2.737   1.751
54185W        W13446   1.453  16.725   4.808
54186W        W13447   5.848  42.884  14.288
54187W        W13448  41.423   9.373   3.243
54188W        W13449  40.898  26.045  12.476
54189W        W13450  26.488  14.793   5.294
54190W        W13451  19.146  19.197  11.411
54191W        W13452  13.251  22.229   1.823
54192W        W13453  31.092  28.648  14.334
54193W        W13454  33.939  42.393   3.325
54194W        W13455   1.382  20.198  13.341
54195W        W13456  42.479  41.949  13.526
54196W        W13457  37.858   7.817  12.989
54197W        W13458  32.963  35.884   3.785
54198W        W13459  17.706  29.488  10.037
54199W        W13460  29.606   1.955   1.825
54200W        W13461  16.710   1.837  11.459
54201W        W13462   9.155   3.823  13.412
54202W        W13463  21.738  15.328   0.483
54203W        W13464  30.986   5.258   1.224
54204W        W13465   3.779   6.877  14.288
54205W        W13466  29.061  19.649  12.834
54206W        W13467  22.239  20.257   4.295
54207W        W13468  14.105   9.679   1.742
54208W        W13469  10.189   6.742  10.560
54209W        W13470  10.638  13.647   2.752
54210W        W13471  10.356  18.268  12.503
54211W        W13472  14.235  13.151   1.246
54212W        W13473  34.518  37.859   4.164
54213W        W13474  31.516  15.711  11.861
54214W        W13475   3.927  26.082   4.816
54215W        W13476   8.403  36.582  14.021
54216W        W13477  21.706  27.121  14.397
54217W        W13478  22.710  33.114  11.984
54218W        W13479  30.130  41.325  14.415
54219W        W13480  39.428  13.743  12.558
54220W        W13481  27.557  14.649  13.022
54221W        W13482  40.496   8.765  10.008
54222W        W13483  22.047  36.477  12.057
54223W        W13484   9.342  43.424   0.726
54224W        W13485  40.362  32.561   2.221
54225W        W13486   9.183  17.720   2.851
54226W        W13487  18.701  41.921   4.136
54227W        W13488   9.261  32.977   4.809
54228W        W13489  15.610  23.531  14.817
54229W        W13490  17.568  31.425  11.905
54230W        W13491  14.222  35.413  13.793
54231W        W13492  43.813  19.724   1.230
54232W        W13493  37.840   2.815  11.521
54233W        W13494  29.149  37.549  14.985
54234W        W13495   3.873  38.540  11.890
54235W        W13496  40.414  38.399  12.856
54236W        W13497  23.119  35.445  10.459
54237W        W13498   8.798  41.527   0.316
54238W        W13499  44.369  43.291  13.854
54239W        W13500  40.029  40.434  13.323
54240W        W13501   5.326   3.945   0.356
54241W        W13502  44.803  30.477   3.234
54242W        W13503   9.308   9.228   4.258
54243W        W13504   3.801  29.003   2.262
54244W        W13505  18.235   9.212   2.288
54245W        W13506  39.560  29.969   2.890
54246W        W13507  12.223  18.245  14.796
54247W        W13508  35.501  32.527  12.054
54248W        W13509  25.120   6.881  12.018
54249W        W13510  29.945  33.953  14.845
54250W        W13511  13.842   4.342  13.969
54251W        W13512  42.427  27.183  12.431
54252W        W13513  36.458  39.519  12.405
54253W        W13514  23.040  27.646   5.797
54254W        W13515  30.600  34.095   3.209
54255W        W13516   0.881  26.160   0.819
54256W        W13517  30.563  39.504   2.377
54257W        W13518   4.349  10.633   1.878
54258W        W13519  17.786  35.480  14.286
54259W        W13520   3.761   6.274   0.344
54260W        W13521  36.972   6.232   1.698
54261W        W13522  37.437   4.740  13.313
54262W        W13523   4.231  15.098   3.711
54263W        W13524  39.529  39.481  12.492
54264W        W13525  30.963  23.228  12.067
54265W        W13526   9.152   2.772  12.870
54266W        W13527  34.110   7.179  13.360
54267W        W13528  44.479   0.412  11.927
54268W        W13529  10.138   0.963  12.841
54269W        W13530  35.036  43.382   5.212
54270W        W13531  32.555  42.385  11.896
54271W        W13532  29.030   4.366   3.710
54272W        W13533  25.506  21.607  10.404
54273W        W13534  12.184  27.198  14.336
54274W        W13535  36.443  28.067  14.493
54275W        W13536  31.604   1.370   3.794
54276W        W13537  23.005  41.449  11.461
54277W        W13538  33.091  34.537  12.025
54278W        W13539   9.750  41.967   4.236
54279W        W13540  19.535  19.282   0.941
54280W        W13541  43.016  25.010   1.696
54281W        W13542  36.904  14.100   1.804
54282W        W13543   9.273  33.426  14.016
54283W        W13544  34.103   1.482   3.793
54284W        W13545  16.129  43.972  13.957
54285W        W13546  20.159  10.726  14.476
54286W        W13547  27.544  25.595  11.056
54287W        W13548  12.120  15.671  13.806
54288W        W13549  30.153  22.513  14.359
54289W        W13550  11.212  12.680  11.937
54290W        W13551  33.886  22.722   3.860
54291W        W13552   8.896  21.054   3.279
54292W        W13553  15.622  13.185  13.855
54293W        W13554  20.619   1.322  12.039
54294W        W13555  25.571  41.984   1.289
54295W        W13556  35.972  29.499  12.080
54296W        W13557  25.177  31.504   3.668
54297W        W13558  44.858  41.917   3.749
54298W        W13559  43.405  12.343  12.917
54299W        W13560   4.886  41.820   3.786
54300W        W13561   3.408  28.496  11.889
54301W        W13562  19.590  42.792   3.383
54302W        W13563  31.572  36.378  12.540
54303W        W13564  34.406  30.433   1.210
54304W        W13565   3.922  28.033   0.477
54305W        W13566   0.494  33.075  10.623
54306W        W13567  17.597  23.724   3.257
54307W        W13568  14.261  40.382   0.327
54308W        W13569  13.163  13.638  12.417
54309W        W13570  37.029  39.896  10.561
54310W        W13571  31.996  24.180   3.167
54311W        W13572   9.780  22.145   0.928
54312W        W13573  41.342  42.398   0.412
54313W        W13574  24.529  29.010  11.917
54314W        W13575  11.781  33.021  12.008
54315W        W13576  36.086   4.908   1.808
54316W        W13577   5.773   5.856  14.926
54317W        W13578  42.391  16.755  12.574
54318W        W13579   0.896  17.577   3.383
54319W        W13580   2.264  30.042  10.522
54320W        W13581   5.348   2.818   2.754
54321W        W13582  15.691  44.820   3.266
54322W        W13583  24.546  17.781  13.799
54323W        W13584   7.366  29.046   4.638
54324W        W13585  32.043   1.877  11.867
54325W        W13586  38.545  35.561  12.906
54326W        W13587   7.700  36.563   3.272
54327W        W13588  35.459  14.109   0.280
54328W        W13589  41.790  37.978  11.539
54329W        W13590  22.560  14.620  14.851
54330W        W13591  16.694  27.165  14.274
54331W        W13592   7.348  33.120  12.390
54332W        W13593  40.311   7.279   0.243
54333W        W13594  30.652  16.195  11.534
54334W        W13595  25.189  33.088   2.222
54335W        W13596  16.698  41.034  10.497
54336W        W13597  40.855  31.035   4.623
54337W        W13598  30.523  24.678  14.278
54338W        W13599  27.597  36.950  13.506
54339W        W13600   7.849  42.903   4.794
54340W        W13601   8.332   1.369   3.842
54341W        W13602  44.319   7.389   3.344
54342W        W13603  26.670   5.774   4.785
54343W        W13604  10.863  39.449   3.374
54344W        W13605  37.445  11.697  14.846
54345W        W13606  13.316   4.398   3.697
54346W        W13607  18.575  20.682   4.705
54347W        W13608  28.023  42.949  14.339
54348W        W13609  43.487  31.619  13.830
54349W        W13610   5.828  24.073   3.690
54350W        W13611   7.781  14.199   1.923
54351W        W13612  19.733  43.879   1.251
54352W        W13613   9.867  36.449  13.053
54353W        W13614  31.553  23.210  12.051
54354W        W13615  42.856  20.614   3.814
54355W        W13616  32.113  17.620  13.330
54356W        W13617  12.351  10.669  11.577
54357W        W13618   1.365  33.408  14.814
54358W        W13619  35.048  37.924  10.613
54359W        W13620  41.516  25.133  13.434
54360W        W13621  23.087  14.747  13.820
54361W        W13622  23.124  20.085  11.498
54362W        W13623   4.800  40.355  14.884
54363W        W13624  12.665   8.793   4.692
54364W        W13625  44.461  25.523  12.993
54365W        W13626  44.387   1.438   0.922
54366W        W13627  43.277  38.071  13.843
54367W        W13628  24.203  42.029  11.071
54368W        W13629  37.965  35.412   3.346
54369W        W13630  16.773   4.778  13.418
54370W        W13631   3.356  10.701   0.905
54371W        W13632   2.290  23.670  13.403
54372W        W13633  24.540   4.340  12.832
54373W        W13634   5.438  14.150  13.868
54374W        W13635  23.041   4.699   3.182
54375W        W13636   8.788  27.505  10.446
54376W        W13637  16.143  10.171  10.540
54377W        W13638  39.905  30.964   3.202
54378W        W13639  34.064   2.942  13.911
54379W        W13640   8.198   0.951  12.981
54380W        W13641   1.481  15.112  13.916
54381W        W13642  35.575  44.860  11.860
54382W        W13643  34.943  17.188  11.409
54383W        W13644   5.397  35.515   3.237
54384W        W13645   1.780  39.034  10.967
54385W        W13646  16.699  43.456  13.960
54386W        W13647  35.585   4.908   1.406
54387W        W13648  12.269  20.271  11.124
54388W        W13649  25.034  26.120   2.338
54389W        W13650  29.576  40.981   1.742
54390W        W13651   3.340   5.203  11.120
54391W        W13652  36.903  36.003   4.279
54392W        W13653  26.621  42.388   1.435
54393W        W13654  18.555  44.886   1.926
54394W        W13655  17.097  16.301   4.313
54395W        W13656  24.199  33.925  13.034
54396W        W13657  27.961  13.280   0.931
54397W        W13658  20.237  15.632  12.377
54398W        W13659  31.994  18.197   3.795
54399W        W13660  10.219  31.603   2.305
54400W        W13661   1.809   7.866  13.490
54401W        W13662  44.304   1.237  13.911
54402W        W13663   4.940   1.360   1.935
54403W        W13664  15.750  40.852   2.825
54404W        W13665  43.819   7.177   0.773
54405W        W13666   2.757  44.443  10.945
54406W        W13667  15.623  13.199   1.824
54407W        W13668  29.643  34.068   1.921
54408W        W13669  18.771  23.703  14.365
54409W        W13670  25.070  21.173   9.926
54410W        W13671  39.326  30.084  10.467
54411W        W13672   2.756  41.298  10.453
54412W        W13673  32.886  40.380  13.022
54413W        W13674  29.042  30.959  14.310
54414W        W13675   7.820   4.850   0.807
54415W        W13676  33.893  44.388  13.796
54416W        W13677  13.293  43.332   0.481
54417W        W13678  39.854   0.942   0.362
54418W        W13679  30.650  14.697   2.249
54419W        W13680  26.041   9.713   4.136
54420W        W13681  23.052   1.802  12.561
54421W        W13682  10.292   3.793   3.723
54422W        W13683  25.651   2.796  11.952
54423W        W13684   9.362  37.392   2.252
54424W        W13685  37.840   4.898  10.409
54425W        W13686  31.093  13.639   4.706
54426W        W13687  20.700  39.360   1.891
54427W        W13688  27.457   3.363  12.849
54428W        W13689  42.314  26.668  10.907
54429W        W13690  40.461  28.130   0.727
54430W        W13691  26.698  15.649   4.629
54431W        W13692  32.115  15.581  11.506
54432W        W13693  40.016  31.012   4.319
54433W        W13694  25.155  21.127  10.517
54434W        W13695  35.051  18.163  14.509
54435W        W13696  17.726   7.181   4.185
54436W        W13697  20.709  15.296  13.041
54437W        W13698  31.950  33.082  13.906
54438W        W13699   5.340  18.187   1.303
54439W        W13700   9.877  24.704   4.268
54440W        W13701  32.627  24.981  10.065
54441W        W13702  17.149   8.289   0.363
54442W        W13703  28.556   6.699  10.988
54443W        W13704  12.121   6.843  12.858
54444W        W13705  24.150  28.444  13.899
54445W        W13706  34.405   7.327   0.244
54446W        W13707  32.947   9.346  11.428
54447W        W13708   3.256  22.664  10.904
54448W        W13709  14.332  10.747   2.733
54449W        W13710  24.683   3.281   2.681
54450W        W13711  21.240  44.382   3.301
54451W        W13712   5.839  41.528  13.905
54452W        W13713  15.219  10.827  11.893
54453W        W13714  14.215  36.071  10.975
54454W        W13715  18.153  29.462  14.507
54455W        W13716  43.430  42.447   0.409
54456W        W13717  33.895   1.930   2.314
54457W        W13718  10.642   4.900   0.427
54458W        W13719   0.877  43.865   0.966
54459W        W13720  24.581  24.198  13.322
54460W        W13721   7.392  37.037  11.496
54461W        W13722  32.925  28.010   4.215
54462W        W13723  30.064  35.001  11.976
54463W        W13724  38.477  10.757   3.687
54464W        W13725   7.746   0.357  12.874
54465W        W13726  18.082  20.074   3.785
54466W        W13727  29.165   3.301   1.339
54467W        W13728  33.108   1.323  13.424
54468W        W13729  30.659  24.137  11.525
54469W        W13730  35.597  39.523   2.707
54470W        W13731  31.064  39.855  13.883
54471W        W13732   2.746  23.646  11.015
54472W        W13733   4.910  25.125   3.690
54473W        W13734  11.688  42.855   2.400
54474W        W13735  38.382  25.614   2.319
54475W        W13736  41.041   6.885  10.414
54476W        W13737   3.371  17.605   2.738
54477W        W13738  41.854  20.595  14.857
54478W        W13739  29.920  33.465   2.697
54479W        W13740  36.406  23.103  10.559
54480W        W13741  33.379   6.203   3.159
54481W        W13742  38.534   9.757   2.846
54482W        W13743  26.558  33.508  14.845
54483W        W13744  24.067  34.376   1.214
54484W        W13745   0.765  41.028   1.879
54485W        W13746  43.321   6.702  11.497
54486W        W13747  18.700   0.787   4.746
54487W        W13748  21.612  32.445  12.005
54488W        W13749  11.212  23.628   0.742
54489W        W13750  34.046  25.492  10.542
54490W        W13751  13.343   1.835  14.861
54491W        W13752  24.165  17.562  13.974
54492W        W13753  27.145  14.217   1.747
54493W        W13754  14.796  32.629  12.886
54494W        W13755  31.567  19.232  11.039
54495W        W13756  16.697   9.323  13.485
54496W        W13757  12.618  36.851  14.831
54497W        W13758  40.529  25.200  13.488
54498W        W13759   2.368  35.032  14.427
54499W        W13760  29.991  15.319   0.412
54500W        W13761  20.584  11.140  12.376
54501W        W13762   4.903   5.751   3.186
54502W        W13763   6.373   3.386  12.526
54503W        W13764  16.675   5.708   1.821
54504W        W13765  13.744   7.241  11.967
54505W        W13766   0.957  26.457   3.779
54506W        W13767  38.927   7.382  11.075
54507W        W13768   7.241  22.133   2.824
54508W        W13769  28.581   4.397  10.599
54509W        W13770  28.116  15.804  13.410
54510W        W13771  31.925  32.396  12.432
54511W        W13772  34.031  11.345  10.446
54512W        W13773  40.985  38.536   3.219
54513W        W13774   6.325  23.647  11.990
54514W        W13775  19.659  43.938  12.479
54515W        W13776  15.781  26.986   0.453
54516W        W13777  27.535  37.513   2.358
54517W        W13778   8.805  25.539  10.629
54518W        W13779  40.488  30.553   0.731
54519W        W13780  42.872  34.114   4.766
54520W        W13781   5.859  41.387  10.921
54521W        W13782  38.960  17.122  10.950
54522W        W13783   8.247  19.708  10.616
54523W        W13784   9.205  22.549  10.081
54524W        W13785  33.620   5.840  13.321
54525W        W13786  39.468  29.164   0.411
54526W        W13787  11.767  36.578   0.427
54527W        W13788  41.362  38.892   3.268
54528W        W13789  37.051  20.749   1.826
54529W        W13790  37.024   2.845   2.368
54530W        W13791   5.226   7.832  11.438
54531W        W13792  20.109   1.925   4.666
54532W        W13793  10.376  17.708   0.943
54533W        W13794  27.452  21.731  14.370
54534W        W13795  28.115   8.219   3.646
54535W        W13796   5.735  20.220   0.785
54536W        W13797  31.977   0.844   5.200
54537W        W13798  43.414  24.087   4.194
54538W        W13799  20.635  33.093  11.940
54539W        W13800  20.107   4.718   4.671
54540W        W13801  22.148  21.723   1.270
54541W        W13802  25.168  44.452   0.366
54542W        W13803  25.651  28.537   3.300
54543W        W13804   9.822  21.064   1.234
54544W        W13805  10.695  17.771  12.385
54545W        W13806  24.537  16.309  11.451
54546W        W13807  20.034  18.278   4.276
54547W        W13808  22.599  37.986   3.632
54548W        W13809  27.029   1.793   5.119
54549W        W13810  34.610   9.645  12.097
54550W        W13811   3.791  43.482  11.908
54551W        W13812  11.301  41.829  14.420
54552W        W13813  21.191   2.787   3.304
54553W        W13814   6.873   6.302  11.383
54554W        W13815  44.341  39.904   2.849
54555W        W13816   7.214  41.486  12.958
54556W        W13817  22.091   6.781   2.901
54557W        W13818  29.525   4.782   3.372
54558W        W13819  20.629  25.983  10.466
54559W        W13820  10.169  37.428   4.833
54560W        W13821   0.345  39.369  11.047
54561W        W13822  38.358  35.098  11.100
54562W        W13823  22.227  32.961   0.289
54563W        W13824  27.110   4.929   1.745
54564W        W13825  40.814  10.761  10.509
54565W        W13826  25.638  25.126   3.276
54566W        W13827   9.185  39.556   3.740
54567W        W13828  21.164  24.528  13.006
54568W        W13829  43.515  23.115  13.548
54569W        W13830  20.587  12.746  12.948
54570W        W13831  13.649  43.389  11.010
54571W        W13832  26.605  19.278  10.616
54572W        W13833   7.819  17.178  10.124
54573W        W13834   2.900  20.662  11.401
54574W        W13835  20.601  34.072   2.701
54575W        W13836   2.882  16.731  14.031
54576W        W13837   1.454  24.216  13.934
54577W        W13838  31.405  36.087   2.304
54578W        W13839   8.712  27.050   1.309
54579W        W13840  13.211  11.168  14.007
54580W        W13841  17.228  42.520  14.344
54581W        W13842  21.592  12.727   5.194
54582W        W13843  22.207  40.338  11.894
54583W        W13844  43.877   0.321   2.320
54584W        W13845  13.192  13.171  12.502
54585W        W13846  18.276  17.210   3.752
54586W        W13847  27.613  26.052  11.069
54587W        W13848  39.334  31.423   2.684
54588W        W13849   2.282  10.843   4.601
54589W        W13850  12.841   7.187  12.450
54590W        W13851  10.797   0.493   4.189
54591W        W13852  32.947  13.652  12.988
54592W        W13853  38.509   9.352  10.547
54593W        W13854  35.524  19.627   1.810
54594W        W13855  28.618  10.204   3.355
54595W        W13856  35.001  11.822   3.270
54596W        W13857  32.039  13.774  10.542
54597W        W13858  42.838  13.107  12.879
54598W        W13859  42.306   0.946   2.673
54599W        W13860  15.324   0.262  12.058
54600W        W13861   6.796  23.068   4.744
54601W        W13862   5.739  19.533  13.886
54602W        W13863  18.544  10.743   2.748
54603W        W13864   3.939  12.645  13.808
54604W        W13865  35.062  37.995   0.460
54605W        W13866  18.775  27.633  11.910
54606W        W13867  36.466  43.781   4.765
54607W        W13868  13.704  40.504   3.862
54608W        W13869  40.947   8.271   3.291
54609W        W13870  38.334  35.393  13.319
54610W        W13871  39.469   2.373  11.120
54611W        W13872  14.230  19.166  11.928
54612W        W13873   6.195   7.358   0.287
54613W        W13874  19.606  18.556  14.798
54614W        W13875  18.676   4.372  13.855
54615W        W13876  27.667   9.207  13.984
54616W        W13877  20.112  38.938   0.885
54617W        W13878  23.723  12.781   1.309
54618W        W13879  34.975  16.278  10.464
54619W        W13880   1.427  22.024  13.510
54620W        W13881  39.826  18.751   2.301
54621W        W13882  28.476  14.338   4.165
54622W        W13883  19.536   4.424   0.830
54623W        W13884  24.522   9.174   3.359
54624W        W13885  32.042   9.870  14.425
54625W        W13886  14.656  19.644  10.573
54626W        W13887  24.555  35.854   1.702
54627W        W13888  22.706  31.408  11.976
54628W        W13889  12.272  13.278  14.474
54629W        W13890   4.233  27.569   2.786
54630W        W13891   7.763  41.014   2.765
54631W        W13892   7.328  18.547   3.746
54632W        W13893  16.184   4.275   5.788
54633W        W13894  33.929  38.967   2.203
54634W        W13895  12.117  38.565   4.811
54635W        W13896  28.679  22.612   2.878
54636W        W13897  19.159   3.415   1.879
54637W        W13898  40.358  19.678   9.972
54638W        W13899  22.664   2.243  10.498
54639W        W13900   1.747  21.758  11.048
54640W        W13901   7.373  33.119  13.805
54641W        W13902  31.569  27.619  12.925
54642W        W13903   9.886   7.415  12.458
54643W        W13904  40.949  17.122  10.538
54644W        W13905  15.292  37.370   4.808
54645W        W13906   1.932  34.102   0.251
54646W        W13907  36.388  38.866   3.204
54647W        W13908   9.385   7.219  10.035
54648W        W13909  41.036   8.248  13.810
54649W        W13910  33.539   4.870  14.919
54650W        W13911   9.376  19.553  13.936
54651W        W13912  15.306  17.205   3.858
54652W        W13913  12.314   0.975   3.195
54653W        W13914  12.170  19.692   1.773
54654W        W13915   0.856  20.699  11.380
54655W        W13916  19.174  36.445  13.933
54656W        W13917  30.424  36.416   1.808
54657W        W13918  21.655  20.204  12.513
54658W        W13919   2.375  34.491   1.216
54659W        W13920  40.868   1.747  12.978
54660W        W13921  27.537   7.345  12.086
54661W        W13922  37.536  43.477   0.302
54662W        W13923  38.536   1.358  12.515
54663W        W13924   5.877  14.633  14.457
54664W        W13925  11.175  42.498  10.473
54665W        W13926  42.921  25.686  14.485
54666W        W13927   2.313  41.379  12.062
54667W        W13928  10.803  25.064   0.788
54668W        W13929  44.911  20.222   4.191
54669W        W13930  35.031  36.553   3.227
54670W        W13931   2.464   0.808  13.336
54671W        W13932  37.389  40.521   1.234
54672W        W13933  20.074  41.345   1.295
54673W        W13934  25.057  15.638   3.739
54674W        W13935  33.385  15.658  10.066
54675W        W13936  40.997  33.880   4.817
54676W        W13937   8.836  29.510   3.730
54677W        W13938  27.461  39.401  14.441
54678W        W13939  24.605  22.110  10.643
54679W        W13940   1.280   1.479  11.053
54680W        W13941  16.636  42.341   1.364
54681W        W13942  30.518  30.506  11.085
54682W        W13943  26.582  36.057  12.895
54683W        W13944  22.119  41.429   4.765
54684W        W13945  25.607  14.671  13.030
54685W        W13946   2.459  23.102  12.001
54686W        W13947  10.680   1.859   3.785
54687W        W13948  43.866  41.001   1.308
54688W        W13949   1.350  19.101  12.495
54689W        W13950  18.279   7.863  11.077
54690W        W13951  24.510  18.148   2.246
54691W        W13952  28.077   7.258   0.899
54692W        W13953  12.632  40.386   2.870
54693W        W13954  43.508  33.099  14.401
54694W        W13955   8.703  31.118  13.028
54695W        W13956   1.921  42.920  13.034
54696W        W13957  35.585  16.588  10.413
54697W        W13958  17.183  21.724  10.568
54698W        W13959  13.686  42.307  13.013
54699W        W13960  20.727  20.548  12.030
54700W        W13961  30.015   3.225   2.309
54701W        W13962  22.189  34.885   4.150
54702W        W13963  33.555   3.248   5.115
54703W        W13964  44.792  33.057   0.325
54704W        W13965  24.130  18.592  12.996
54705W        W13966  31.495  37.398  11.910
54706W        W13967  30.447   1.829  14.377
54707W        W13968  22.613  26.481   1.451
54708W        W13969  44.413  30.978  14.334
54709W        W13970   9.262  10.238   5.262
54710W        W13971  31.514  15.758  14.830
54711W        W13972  44.319  40.322   0.366
54712W        W13973  32.069  38.538   4.242
54713W        W13974  37.083  37.052  14.859
54714W        W13975   2.318  44.931   2.235
54715W        W13976  17.178   0.758   2.225
54716W        W13977  16.708  19.205   1.439
54717W        W13978  30.492  41.382  11.582
54718W        W13979  13.220  20.094  11.932
54719W        W13980  10.250  17.238  12.909
54720W        W13981  34.580   8.867   3.762
54721W        W13982  25.600  38.014  13.889
54722W        W13983  13.280  40.997  12.428
54723W        W13984  40.548  44.468   5.094
54724W        W13985  16.216  14.804   2.877
54725W        W13986  41.805  18.112   2.310
54726W        W13987  43.512  21.041  10.036
54727W        W13988  35.457  36.413   3.643
54728W        W13989  43.910  23.561   0.475
54729W        W13990  32.050  11.296  12.934
54730W        W13991   0.766   3.718   1.767
54731W        W13992  43.897   4.367  13.002
54732W        W13993  26.658  12.249  11.436
54733W        W13994  11.330  17.244  13.449
54734W        W13995  42.383  10.732   1.251
54735W        W13996   1.441   0.798   1.227
54736W        W13997  42.955  12.145  11.018
54737W        W13998   7.194  25.133   4.777
54738W        W13999   8.755  35.854   0.391
54739W        W14000   7.707  40.506   2.253
54740W        W14001  16.189  44.765   3.749
54741W        W14002  26.204  36.558  10.567
54742W        W14003  40.949  18.268  12.499
54743W        W14004   1.274  17.081  10.967
54744W        W14005  16.267  10.288  11.572
54745W        W14006  29.926  29.445   0.472
54746W        W14007   2.849  25.638  14.506
54747W        W14008   6.776  23.034  10.938
54748W        W14009  44.900  22.076  13.027
54749W        W14010  40.948  38.955  11.068
54750W        W14011  42.395  12.350   2.698
54751W        W14012   7.258  18.739  11.063
54752W        W14013  40.348  17.268  12.482
54753W        W14014   2.408   7.736   2.781
54754W        W14015  22.148  25.609   2.335
54755W        W14016   3.784  25.576  10.423
54756W        W14017  27.658  34.588   3.804
54757W        W14018  12.701  42.810  11.427
54758W        W14019  16.287  29.974  14.856
54759W        W14020   1.303  44.326  14.479
54760W        W14021  32.601  18.767  13.451
54761W        W14022  10.223   2.311   1.271
54762W        W14023  30.003   2.387  11.473
54763W        W14024   4.749   0.833   4.789
54764W        W14025  41.487  42.895  11.081
54765W        W14026  31.623   8.849  10.502
54766W        W14027  17.260  26.507   2.726
54767W        W14028   5.759  39.469   2.180
54768W        W14029   1.957   2.464   1.850
54769W        W14030  42.379  13.333  11.104
54770W        W14031  20.529  16.744   1.802
54771W        W14032  32.930  27.590  13.028
54772W        W14033  16.209  18.625  11.926
54773W        W14034  23.126   4.275   4.217
54774W        W14035  26.983   3.394   4.673
54775W        W14036   9.192  41.904  14.323
54776W        W14037  44.358  22.582   4.318
54777W        W14038   9.679  44.289   0.286
54778W        W14039   7.388   0.921  13.004
54779W        W14040  23.993  28.113   0.435
54780W        W14041  34.492  14.261  13.940
54781W        W14042  14.264  33.893   3.235
54782W        W14043  23.139  22.153   3.707
54783W        W14044  40.377   3.457  11.387
54784W        W14045   9.194  37.020  11.946
54785W        W14046  34.870  34.538  10.961
54786W        W14047  28.598  34.493  11.919
54787W        W14048   4.251  32.135  13.460
54788W        W14049  28.627   0.352   0.770
54789W        W14050  42.458  27.534   4.717
54790W        W14051  28.490  20.721   0.365
54791W        W14052   5.219  15.732   4.714
54792W        W14053   8.210  35.109   2.329
54793W        W14054   5.907  28.154  12.946
54794W        W14055  40.921  23.519   1.703
54795W        W14056   0.940  25.573  11.870
54796W        W14057  42.855   1.930   3.285
54797W        W14058  31.428  19.620  12.007
54798W        W14059  43.992  21.618   3.273
54799W        W14060  27.101  19.744   4.187
54800W        W14061  31.109  21.603   0.379
54801W        W14062  26.533  21.690  13.513
54802W        W14063  37.508  20.672   4.172
54803W        W14064   8.679  25.011   2.723
54804W        W14065   2.827   8.843   0.839
54805W        W14066   2.883  38.006  10.503
54806W        W14067   0.769  14.598   2.803
54807W        W14068  33.011   6.358  13.969
54808W        W14069  32.548  33.543  14.910
54809W        W14070  26.571  33.106   3.347
54810W        W14071  26.570   8.196  12.493
54811W        W14072  11.166  44.491  12.910
54812W        W14073  19.595  16.268  14.869
54813W        W14074   7.263  29.988  14.858
54814W        W14075  33.073  25.129   4.189
54815W        W14076  21.585   4.795  13.863
54816W        W14077  39.446  30.431   2.669
54817W        W14078   4.209  28.496   4.216
54818W        W14079  42.797  14.242   2.747
54819W        W14080  30.937  34.511  14.972
54820W        W14081  43.831  43.503   4.780
54821W        W14082  16.638  28.621   2.261
54822W        W14083  16.603   6.398  12.978
54823W        W14084   4.238  13.231  11.116
54824W        W14085   8.269  29.980  12.541
54825W        W14086  32.559  34.543   1.723
54826W        W14087  25.637   0.375  14.785
54827W        W14088  25.012  24.205   2.800
54828W        W14089  20.106  34.611   0.937
54829W        W14090  22.709   6.296  10.009
54830W        W14091  39.467  30.536   0.786
54831W        W14092   9.738  15.205  14.377
54832W        W14093  18.715  28.580   3.792
54833W        W14094  25.696  14.333   3.165
54834W        W14095  10.770  36.576   1.377
54835W        W14096  37.475   8.370  14.867
54836W        W14097   6.877  22.634  13.002
54837W        W14098  38.462  35.479   0.799
54838W        W14099   7.244   6.409   0.732
54839W        W14100  23.548  32.444   3.636
54840W        W14101   3.445   0.818  12.348
54841W        W14102  33.453  26.527  13.385
54842W        W14103  44.756  28.624  11.992
54843W        W14104  22.066  22.724  10.085
54844W        W14105  44.848  14.611   1.212
54845W        W14106   8.399  36.036  14.762
54846W        W14107  34.601  17.654  14.281
54847W        W14108  43.934  20.735   2.212
54848W        W14109  21.631  33.930   2.297
54849W        W14110  36.028  13.698  11.080
54850W        W14111  22.151  12.164   3.685
54851W        W14112  37.404   7.858  14.345
54852W        W14113  22.014  29.642  13.006
54853W        W14114   5.898   5.287  12.069
54854W        W14115  44.907  40.803  10.630
54855W        W14116   1.429  26.693   2.235
54856W        W14117  16.107  39.836  12.511
54857W        W14118  16.208   2.231   3.224
54858W        W14119  15.264  25.093  12.560
54859W        W14120   1.974  30.428  14.848
54860W        W14121  22.129  38.001   2.896
54861W        W14122  17.173   2.745  12.457
54862W        W14123  35.980  39.504  11.412
54863W        W14124  37.433  40.977  14.791
54864W        W14125  24.626   1.769   0.949
54865W        W14126  31.964  35.864   0.937
54866W        W14127   3.794  24.140  11.505
54867W        W14128  27.166  39.894  13.514
54868W        W14129  16.228  26.595   9.930
54869W        W14130  25.198  20.250  13.411
54870W        W14131  28.992  18.060  10.483
54871W        W14132  32.981   4.396   2.844
54872W        W14133  11.789  14.813   3.637
54873W        W14134   7.892  41.797  12.836
54874W        W14135   8.746  22.528   3.674
54875W        W14136  43.798  43.000  12.932
54876W        W14137  26.108  11.221  10.405
54877W        W14138   9.824  31.086  13.446
54878W        W14139   7.798   8.315   0.871
54879W        W14140  23.719  27.456   4.134
54880W        W14141   1.965  22.590  10.531
54881W        W14142   0.876  21.712  14.923
54882W        W14143  26.183  26.027   5.303
54883W        W14144  21.712  27.564   9.440
54884W        W14145  27.136  24.136   2.877
54885W        W14146  12.188  43.373   3.336
54886W        W14147  26.622  37.019  12.373
54887W        W14148  38.972   9.713  10.003
54888W        W14149   6.909  32.050   4.260
54889W        W14150  18.747  35.055   1.886
54890W        W14151  15.154  10.743   0.265
54891W        W14152  23.146  29.487  13.477
54892W        W14153   6.210  24.485  13.387
54893W        W14154  13.640  16.595  14.806
54894W        W14155  27.171  32.007  14.847
54895W        W14156   6.678  40.999   3.301
54896W        W14157   4.243  10.702   0.945
54897W        W14158   9.858  26.164  13.913
54898W        W14159   9.272  17.691   3.846
54899W        W14160  14.691  13.774   4.788
54900W        W14161  30.054  37.336  13.846
54901W        W14162  37.378  44.941   4.819
54902W        W14163  17.301   2.836  11.111
54903W        W14164  20.253  10.784   2.816
54904W        W14165  21.246   9.378   0.783
54905W        W14166  26.166   1.428  11.463
54906W        W14167  16.706  26.203   2.260
54907W        W14168  41.835  29.585   1.393
54908W        W14169   6.289  27.138  10.531
54909W        W14170  38.359   9.263  12.436
54910W        W14171  25.192  24.024   1.804
54911W        W14172   0.426   3.724   0.414
54912W        W14173   0.854  26.603   2.249
54913W        W14174  41.402  11.296  10.626
54914W        W14175  38.395  20.610   4.217
54915W        W14176  31.587  23.139  11.069
54916W        W14177   0.436  36.842  12.347
54917W        W14178   1.921   2.231   4.117
54918W        W14179  37.555  11.828  12.355
54919W        W14180   6.223  22.515  10.552
54920W        W14181  18.696   9.775  10.951
54921W        W14182   8.702   4.739  11.971
54922W        W14183  43.503   8.317  11.091
54923W        W14184  23.116  35.501   3.318
54924W        W14185  15.108  21.261   1.354
54925W        W14186  29.103   2.292  13.412
54926W        W14187  36.051  42.502   4.716
54927W        W14188  11.181   9.806   3.763
54928W        W14189  17.633   8.748  13.530
54929W        W14190  38.367  43.916   0.957
54930W        W14191  11.673  36.061  14.865
54931W        W14192   1.434  17.220   4.614
54932W        W14193  19.711   6.234  11.866
54933W        W14194   1.367  12.310  14.907
54934W        W14195  29.620   9.791   0.363
54935W        W14196  42.777   4.910   4.828
54936W        W14197   1.319   4.303  13.955
54937W        W14198  41.924  10.664   2.787
54938W        W14199  36.905  40.415  13.542
54939W        W14200  13.158  17.208   0.907
54940W        W14201  14.196  41.397  13.437
54941W        W14202  18.278  20.526   3.321
54942W        W14203  42.960  35.946  13.391
54943W        W14204  13.200  21.661   4.211
54944W        W14205  39.964  33.413  11.486
54945W        W14206  14.218   8.847   1.369
54946W        W14207  30.931  34.954  12.377
54947W        W14208  19.733  31.063   4.160
54948W        W14209  33.478   7.752   4.812
54949W        W14210  37.026  35.504  11.967
54950W        W14211   1.243   2.874   0.302
54951W        W14212  16.629  36.359   0.897
54952W        W14213  25.573  10.295  11.444
54953W        W14214  30.916  12.778  13.382
54954W        W14215  27.650  17.728   4.657
54955W        W14216  28.058  15.226  11.550
54956W        W14217  16.271  28.998  11.494
54957W        W14218  28.953  13.732   3.309
54958W        W14219   0.900   0.435  12.013
54959W        W14220   7.324   7.292  12.454
54960W        W14221  18.211  26.156  12.539
54961W        W14222  33.052   3.253  10.477
54962W        W14223  30.054  36.965   1.902
54963W        W14224  42.914   8.401   2.367
54964W        W14225  33.924  42.819  13.816
54965W        W14226   1.340  21.614  14.393
54966W        W14227  40.999  18.704   2.375
54967W        W14228  32.896   3.841   4.243
54968W        W14229  32.423   3.220  11.010
54969W        W14230  39.425  11.340   2.795
54970W        W14231  42.307  17.783   3.196
54971W        W14232  25.569  13.797   2.409
54972W        W14233  18.168  16.719  13.995
54973W        W14234   7.340  31.414   4.789
54974W        W14235  16.218  11.843  11.052
54975W        W14236  27.557  19.258   4.118
54976W        W14237   4.944  29.926   1.781
54977W        W14238   6.758  19.733   1.921
54978W        W14239  29.085   9.204  12.008
54979W        W14240   6.189  44.755   1.899
54980W        W14241  18.165   5.901  11.057
54981W        W14242  10.191  20.742  13.487
54982W        W14243  17.105  32.435  13.894
54983W        W14244   1.967  32.110   4.212
54984W        W14245  34.432  23.582  11.565
54985W        W14246   2.404  12.767  11.551
54986W        W14247  25.527   9.796   0.783
54987W        W14248   4.227  24.566   0.861
54988W        W14249  30.082   3.892   0.393
54989W        W14250  37.449  13.275  13.922
54990W        W14251  19.242  34.474  13.027
54991W        W14252   1.301  27.163   4.808
54992W        W14253  11.745  17.105  11.966
54993W        W14254  29.096  21.225  12.896
54994W        W14255  33.522  11.761   1.880
54995W        W14256  39.516  10.312  13.528
54996W        W14257  44.864  14.246   3.854
54997W        W14258  23.620  25.168  12.907
54998W        W14259  15.107  11.683   3.334
54999W        W14260  10.353  15.737   3.176
55000W        W14261  24.084   8.336  12.903
55001W        W14262  22.064  32.000  12.433
55002W        W14263  19.624   9.784   2.747
55003W        W14264  28.146  18.643  13.520
55004W        W14265  11.347  32.478  13.467
55005W        W14266  38.336   1.483   1.449
55006W        W14267  15.085  12.353  11.421
55007W        W14268   6.851   9.228  10.597
55008W        W14269  41.853  44.422   2.718
55009W        W14270  30.023  31.092   1.318
55010W        W14271  13.616   8.225  14.469
55011W        W14272  17.579  40.873   3.322
55012W        W14273  24.652  22.175   9.517
55013W        W14274  32.092  25.665   5.167
55014W        W14275   7.710  26.515  13.995
55015W        W14276  28.551   7.809   1.729
55016W        W14277  13.831  22.078  12.348
55017W        W14278  26.601  42.486   2.682
55018W        W14279  19.687  14.737   1.710
55019W        W14280  43.900  44.978   3.314
55020W        W14281  32.137  44.818   3.743
55021W        W14282  28.650  30.161  14.774
55022W        W14283  28.163   4.267   4.143
55023W        W14284  15.276   5.433  11.120
55024W        W14285  16.744  27.164  13.538
55025W        W14286  43.775  21.035  12.892
55026W        W14287  38.882  32.631  14.887
55027W        W14288  11.857  10.816   2.227
55028W        W14289  35.103  15.193  11.577
55029W        W14290  31.062  21.241  14.862
55030W        W14291   2.745  40.025   4.241
55031W        W14292  40.991  39.527   0.269
55032W        W14293  27.067  26.616   1.342
55033W        W14294  17.259  30.546   4.179
55034W        W14295  37.997  17.570  13.985
55035W        W14296  11.641  26.567  14.006
55036W        W14297  29.996  15.148   3.709
55037W        W14298  18.656  27.585  10.466
55038W        W14299  12.735  41.346   0.803
55039W        W14300  36.954  30.063   1.411
55040W        W14301  34.586  13.709  14.915
55041W        W14302  24.563  30.620  14.027
55042W        W14303   9.819   2.265   0.282
55043W        W14304  18.736  20.635   2.222
55044W        W14305  31.602   3.232  14.382
55045W        W14306   1.347  40.453   1.403
55046W        W14307  36.974  13.267  14.022
55047W        W14308  44.876  27.945   1.228
55048W        W14309  11.338   5.326  14.359
55049W        W14310  41.538  18.274  13.332
55050W        W14311  39.977  31.060  14.803
55051W        W14312  21.515  27.632  14.822
55052W        W14313   3.268  40.978   0.866
55053W        W14314   1.954  30.992   0.301
55054W        W14315  37.434  29.132  12.068
55055W        W14316   0.932  27.060  14.826
55056W        W14317  36.928   5.699   1.727
55057W        W14318   6.873   2.817  14.416
55058W        W14319  28.561  29.541  12.568
55059W        W14320  31.433   1.473   2.245
55060W        W14321  22.716  27.510  14.813
55061W        W14322  14.278  21.253  13.028
55062W        W14323   4.905  14.795   1.740
55063W        W14324   5.263  31.560   2.779
55064W        W14325   7.356  38.840  13.856
55065W        W14326  11.710  11.859   0.352
55066W        W14327  25.508   0.927   3.743
55067W        W14328  10.785  38.433  10.460
55068W        W14329  37.423  15.268   3.369
55069W        W14330  44.786  42.970   1.367
55070W        W14331  20.651  26.982  13.371
55071W        W14332   7.291  23.109  10.519
55072W        W14333  38.403  28.630   4.123
55073W        W14334  24.574  37.425   3.366
55074W        W14335  44.332  25.652  12.403
55075W        W14336  24.185  29.592   0.471
55076W        W14337   0.754   1.453  13.799
55077W        W14338  12.614  17.202  10.627
55078W        W14339   9.816  25.590  13.400
55079W        W14340  43.447  40.856  10.624
55080W        W14341   3.355  12.205  12.552
55081W        W14342  24.546  14.268   1.261
55082W        W14343  29.167  35.414   2.342
55083W        W14344  43.884  13.687   3.777
55084W        W14345   3.406  25.509   0.435
55085W        W14346  10.145   7.797  14.837
55086W        W14347   2.834  37.987  12.874
55087W        W14348  10.358  26.502   2.890
55088W        W14349   6.870  20.591  10.958
55089W        W14350  36.925  17.639  11.012
55090W        W14351  31.043  17.064  11.586
55091W        W14352  41.798  44.924  13.833
55092W        W14353  10.659  41.428  10.943
55093W        W14354  41.008  38.931  13.026
55094W        W14355  38.913  35.574  14.820
55095W        W14356   9.240  39.348   2.272
55096W        W14357  11.807  10.231  10.410
55097W        W14358  18.083  17.288  14.781
55098W        W14359  41.918  14.096  12.013
55099W        W14360   9.709   9.881   3.739
55100W        W14361  38.538  22.136   3.709
55101W        W14362  16.784  26.698  14.825
55102W        W14363   1.900  10.723  12.986
55103W        W14364  16.704  19.270  13.419
55104W        W14365  23.052  41.506  14.906
55105W        W14366  20.045  12.306   1.887
55106W        W14367  27.671  33.506  12.514
55107W        W14368  28.438  34.448   0.437
55108W        W14369  29.150  23.128  10.482
55109W        W14370   4.738  38.348  14.938
55110W        W14371   4.888   3.335  10.930
55111W        W14372  25.623  16.233   0.842
55112W        W14373  16.647   1.739   2.835
55113W        W14374  20.153  22.063  11.524
55114W        W14375  32.465  17.101   0.833
55115W        W14376  17.774   5.397   1.782
55116W        W14377  42.933   9.169   0.811
55117W        W14378  27.953   9.347  11.919
55118W        W14379  22.039  11.201  12.031
55119W        W14380   7.759  21.019   3.238
55120W        W14381   0.262  34.596  11.392
55121W        W14382  29.501  11.698  13.837
55122W        W14383   7.799  18.674   2.266
55123W        W14384  16.795  11.858   1.919
55124W        W14385  37.001  39.462  14.869
55125W        W14386  38.844  32.571   3.809
55126W        W14387  19.662   0.753   0.408
55127W        W14388   0.489  16.726  11.032
55128W        W14389   0.778  22.527  10.019
55129W        W14390  42.978  30.911   1.420
55130W        W14391  35.050   4.932  11.039
55131W        W14392  15.686   9.219   4.724
55132W        W14393   0.429  39.838   2.279
55133W        W14394  16.782  14.328  12.048
55134W        W14395  33.979  28.083   0.926
55135W        W14396  44.924  26.145   4.616
55136W        W14397  41.531   8.676  10.466
55137W        W14398  35.591   8.733  12.523
55138W        W14399  42.931  36.088  13.063
55139W        W14400  19.665  12.669  12.523
55140W        W14401   8.308  26.184  11.894
55141W        W14402  42.348  18.172  12.567
55142W        W14403  34.090   6.758  13.521
55143W        W14404  11.652   3.261   1.366
55144W        W14405  24.050  36.933  13.500
55145W        W14406  34.960  43.869  11.559
55146W        W14407  34.591  17.301   2.261
55147W        W14408  40.517  11.344   4.148
55148W        W14409  15.315  38.453  12.398
55149W        W14410  17.679   2.955  13.350
55150W        W14411  21.179  36.977  13.446
55151W        W14412  14.806  42.963  13.495
55152W        W14413  22.091  36.896  14.486
55153W        W14414  18.677  28.057  10.948
55154W        W14415   8.193  36.090  11.474
55155W        W14416  30.545  27.974   0.373
55156W        W14417  31.045  29.438   2.666
55157W        W14418   4.395  44.770   1.723
55158W        W14419  32.129  10.811   5.225
55159W        W14420   7.337  26.665  13.944
55160W        W14421  33.122  25.218   1.894
55161W        W14422  37.530  14.261   2.839
55162W        W14423  23.601   9.313   1.746
55163W        W14424   1.317  26.139   1.919
55164W        W14425  28.184  19.147  12.460
55165W        W14426  40.467  13.178  11.534
55166W        W14427  34.897  28.030   2.771
55167W        W14428  25.659  18.222  12.064
55168W        W14429  18.170  24.626  12.891
55169W        W14430  10.851  21.649   2.809
55170W        W14431  15.690  23.066   3.377
55171W        W14432  27.968  42.853  10.429
55172W        W14433   3.393  32.912  10.564
55173W        W14434   8.210  10.711   0.396
55174W        W14435  38.878  40.492  13.449
55175W        W14436   5.426  24.640   2.662
55176W        W14437  37.394   2.289  14.792
55177W        W14438  27.490  11.196   4.240
55178W        W14439  29.579  13.339  14.030
55179W        W14440  39.363  32.514   0.389
55180W        W14441   3.356  14.713   1.263
55181W        W14442  27.662  15.286   2.832
55182W        W14443  35.969  33.992   4.224
55183W        W14444   6.421  10.182  14.022
55184W        W14445  38.901  44.485  10.141
55185W        W14446  42.966  28.507   3.216
55186W        W14447  12.329  16.811  11.038
55187W        W14448  13.800  42.362   1.753
55188W        W14449  20.030  10.159  10.613
55189W        W14450  20.604  12.679  11.500
55190W        W14451  25.620  14.201  13.370
55191W        W14452  13.692  22.593   1.759
55192W        W14453  17.261   9.830  13.522
55193W        W14454  17.575   6.779   2.867
55194W        W14455  14.671  43.335   1.301
55195W        W14456  44.344   1.331   0.306
55196W        W14457  20.653  23.529   2.747
55197W        W14458   4.849  28.046  13.417
55198W        W14459  43.276  31.936  11.587
55199W        W14460   7.260  35.912  13.036
55200W        W14461  15.202  12.763  14.903
55201W        W14462  15.667  44.819  10.637
55202W        W14463  24.212   6.886   2.381
55203W        W14464  17.602  17.638  14.759
55204W        W14465  36.072  30.530   4.661
55205W        W14466   2.402   2.414  12.416
55206W        W14467   2.736  16.807  14.769
55207W        W14468  14.198  42.018  12.392
55208W        W14469   2.390  21.658   2.232
55209W        W14470  33.568  13.812   3.170
55210W        W14471  12.145  12.167   1.706
55211W        W14472   9.374  26.128  13.439
55212W        W14473  14.614  18.761  13.349
55213W        W14474  36.484  13.666  12.998
55214W        W14475   7.348   0.319   2.198
55215W        W14476  22.124  25.129  12.895
55216W        W14477  34.377  13.107   4.173
55217W        W14478  15.298  19.602  13.810
55218W        W14479  23.122  27.032   4.608
55219W        W14480   6.190  38.024  14.018
55220W        W14481  32.491   7.271  10.473
55221W        W14482  14.236  17.294   0.848
55222W        W14483  32.995  23.026  13.985
55223W        W14484  16.790  41.968  13.969
55224W        W14485   8.856   3.284  10.096
55225W        W14486  36.497   8.808  14.845
55226W        W14487  13.763  30.154  11.013
55227W        W14488  17.296  27.188  12.457
55228W        W14489  41.849  34.472  10.888
55229W        W14490   5.890  39.877  14.802
55230W        W14491  40.461  15.230  11.486
55231W        W14492   5.239  43.908  10.584
55232W        W14493   3.879  32.525  13.807
55233W        W14494  39.023  13.723   3.805
55234W        W14495  15.802   5.744  10.624
55235W        W14496   2.447  17.772  11.030
55236W        W14497  21.141  38.512   2.191
55237W        W14498   6.207  44.882  10.457
55238W        W14499  19.662  44.265  14.490
55239W        W14500  37.422   0.491   1.924
55240W        W14501   9.177   8.391  14.863
55241W        W14502  26.094  10.331   3.750
55242W        W14503  13.712  36.059   2.373
55243W        W14504   9.775  43.020  11.463
55244W        W14505  23.542  44.439  10.510
55245W        W14506  32.577  22.152  12.465
55246W        W14507  12.802  23.156   4.251
55247W        W14508  38.491  33.123   0.464
55248W        W14509  15.764  15.120  12.837
55249W        W14510   5.417  41.386   2.876
55250W        W14511   3.219  41.999  11.070
55251W        W14512  16.729  14.280   0.252
55252W        W14513  26.046  31.592   1.319
55253W        W14514   9.299   5.381   4.176
55254W        W14515  15.220  28.542   1.862
55255W        W14516  42.027  32.995   2.377
55256W        W14517  39.961  26.983   0.330
55257W        W14518  21.669  21.201   1.813
55258W        W14519  33.027  22.566  10.595
55259W        W14520  27.593  35.031  11.975
55260W        W14521  22.161   7.811  11.976
55261W        W14522  20.582   2.327  13.995
55262W        W14523  16.300   7.792   2.794
55263W        W14524  10.720  43.364   3.828
55264W        W14525  20.639  29.596  10.592
55265W        W14526  39.392  27.143   2.676
55266W        W14527   1.874  16.195   2.769
55267W        W14528   7.786  31.954  14.300
55268W        W14529  37.003   7.690   2.900
55269W        W14530  16.261  40.826   2.813
55270W        W14531  37.080   1.883   4.834
55271W        W14532  39.382  23.570  13.459
55272W        W14533  12.654   3.428  14.865
55273W        W14534   4.869  26.096  10.456
55274W        W14535   6.817  34.403  10.560
55275W        W14536  13.823   7.397   1.887
55276W        W14537  29.154   8.207  11.563
55277W        W14538  23.594  26.079  13.876
55278W        W14539   4.206  15.308  11.408
55279W        W14540  27.584  17.249   3.229
55280W        W14541  27.622  24.106  13.398
55281W        W14542  27.581   0.943   3.198
55282W        W14543   4.735  23.564  10.574
55283W        W14544  36.068  28.068  12.016
55284W        W14545  12.250  10.367  13.437
55285W        W14546   0.951  27.557  12.013
55286W        W14547  42.875   8.203   3.731
55287W        W14548  41.035  43.406   3.846
55288W        W14549  38.014  17.190  12.849
55289W        W14550  31.517   0.978   3.756
55290W        W14551   9.756  18.201  13.404
55291W        W14552   0.423  14.778   1.745
55292W        W14553  29.035   6.417  13.430
55293W        W14554  26.609  34.864  13.454
55294W        W14555  31.593  41.434  11.450
55295W        W14556  14.293   9.847  12.345
55296W        W14557   3.406  18.621  13.394
55297W        W14558  23.138  36.377  11.992
55298W        W14559  37.503   5.708  11.039
55299W        W14560  11.865  14.602  12.010
55300W        W14561  34.068  24.074  14.944
55301W        W14562  37.574   0.778  12.359
55302W        W14563  28.970   2.765   3.312
55303W        W14564   3.909  26.690   1.811
55304W        W14565  11.749  26.956  12.938
55305W        W14566  12.799   2.804  12.869
55306W        W14567  14.613   8.378  11.914
55307W        W14568  30.930   1.447   3.684
55308W        W14569  31.468  16.247  12.431
55309W        W14570  37.339  33.902  12.347
55310W        W14571  14.706  11.838   4.341
55311W        W14572  36.390   2.438  14.923
55312W        W14573  26.693  41.018   4.213
55313W        W14574  38.011  41.309  11.956
55314W        W14575   9.799  12.251  10.630
55315W        W14576   8.698   8.772   0.874
55316W        W14577  42.824  30.584  13.982
55317W        W14578  21.105  17.272   1.336
55318W        W14579   3.239  32.629   2.232
55319W        W14580   2.761  11.702   3.850
55320W        W14581  23.238   0.476  14.381
55321W        W14582   5.795  16.703   3.217
55322W        W14583  44.855  37.392  14.461
55323W        W14584  42.304   1.766  13.418
55324W        W14585  27.162  20.197   2.409
55325W        W14586  38.960  43.840   2.257
55326W        W14587  30.970  42.438  12.013
55327W        W14588  36.070  43.398  13.520
55328W        W14589  17.187  39.871  14.509
55329W        W14590  31.414   0.846   0.472
55330W        W14591  21.745  20.201   2.415
55331W        W14592   0.942  44.489  11.094
55332W        W14593  27.077  30.453   3.792
55333W        W14594   0.395  29.119  12.569
55334W        W14595  40.345  22.023   3.342
55335W        W14596   4.355  11.718   0.290
55336W        W14597  31.509   4.710  14.406
55337W        W14598   8.267  27.523  11.098
55338W        W14599  11.718  13.764  11.000
55339W        W14600  20.203  42.821  14.769
55340W        W14601  22.572   6.356   4.695
55341W        W14602  38.363   7.199   3.265
55342W        W14603   4.210   1.847   3.769
55343W        W14604  41.532   4.794   3.294
55344W        W14605   2.839   8.848   1.798
55345W        W14606  13.118  18.238   0.787
55346W        W14607  19.134   5.909  14.404
55347W        W14608  12.720  35.899   0.849
55348W        W14609  43.459  34.974   3.183
55349W        W14610  29.109   6.772  14.824
55350W        W14611  40.985   4.259  14.450
55351W        W14612  34.494  15.294  12.565
55352W        W14613  39.559   8.710  14.901
55353W        W14614  10.813  34.369  14.759
55354W        W14615  39.991  32.923   1.706
55355W        W14616   2.442  23.136  11.512
55356W        W14617  10.185  40.417   1.876
55357W        W14618   7.852   1.257  13.010
55358W        W14619  21.670  25.992   3.656
55359W        W14620   8.406  30.549  14.814
55360W        W14621   1.378   6.759  14.381
55361W        W14622  35.887   7.372  11.044
55362W        W14623  44.285  15.313  12.472
55363W        W14624   6.367  17.738  12.046
55364W        W14625  16.609  30.075   4.132
55365W        W14626  10.844   2.754   0.381
55366W        W14627  20.259  32.080  10.056
55367W        W14628   9.286  11.762   3.304
55368W        W14629  12.698   5.280   0.327
55369W        W14630   8.656  44.307  10.527
55370W        W14631  13.796  36.045   0.913
55371W        W14632  42.858  41.477  13.402
55372W        W14633  30.057  32.935  13.467
55373W        W14634  15.819  38.525  10.522
55374W        W14635  17.767  16.606   5.294
55375W        W14636  29.583  30.147   2.815
55376W        W14637   2.807   2.896   0.420
55377W        W14638  34.402  30.565   4.131
55378W        W14639  15.308  35.590  13.823
55379W        W14640  12.173  34.465   3.208
55380W        W14641  41.357  12.854   0.798
55381W        W14642  24.212  32.958  10.640
55382W        W14643  27.508   4.356   0.814
55383W        W14644   8.714  18.057   3.300
55384W        W14645   1.746  16.723  12.507
55385W        W14646   5.849  40.465  11.100
55386W        W14647  19.154  29.991  13.002
55387W        W14648  35.528  37.484  14.453
55388W        W14649   4.800  21.163  11.522
55389W        W14650  17.746  41.948   1.313
55390W        W14651   6.780   3.335   0.249
55391W        W14652  13.843  20.271  14.002
55392W        W14653  14.245  43.370   1.351
55393W        W14654  17.802  36.022  14.343
55394W        W14655  41.479   2.313   0.785
55395W        W14656  30.161  35.488  14.465
55396W        W14657  18.682  27.968   4.208
55397W        W14658  18.595   2.869   4.246
55398W        W14659  36.859  25.526   2.898
55399W        W14660  32.095  30.613  13.395
55400W        W14661  40.893  29.108  11.469
55401W        W14662   6.750  10.736   3.338
55402W        W14663  39.549  32.093   9.981
55403W        W14664  24.645  15.120  12.931
55404W        W14665  25.198  25.158  12.537
55405W        W14666  39.393  40.459  11.934
55406W        W14667  30.539  44.394  13.830
55407W        W14668  27.541  30.562  10.581
55408W        W14669  31.415  42.017  14.386
55409W        W14670  30.507  38.983   2.401
55410W        W14671  34.924  20.225  13.024
55411W        W14672  33.426  15.676  10.952
55412W        W14673  44.908  12.664   2.183
55413W        W14674  10.186  41.843   1.931
55414W        W14675  11.324  42.871   0.873
55415W        W14676   2.875  29.545   4.332
55416W        W14677  13.240  19.213  10.634
55417W        W14678  29.585  17.303  11.005
55418W        W14679  33.875  37.837  13.844
55419W        W14680  32.122  42.864   1.872
55420W        W14681  10.378  37.429   5.310
55421W        W14682  44.441  15.278   1.431
55422W        W14683  14.832  11.138   4.303
55423W        W14684  42.328  34.436  13.313
55424W        W14685   5.413  31.497   0.259
55425W        W14686  44.941  16.243  12.024
55426W        W14687  17.298   0.449   2.266
55427W        W14688   8.733   0.477   2.685
55428W        W14689   7.281  38.831   0.307
55429W        W14690  17.097  18.196   2.372
55430W        W14691  38.057  38.434   0.819
55431W        W14692  18.274  13.775  10.996
55432W        W14693  29.974  10.862  14.451
55433W        W14694  35.890  38.423  10.582
55434W        W14695   9.848  27.603  11.378
55435W        W14696  44.922   7.773  11.461
55436W        W14697   3.829  40.939  14.997
55437W        W14698  15.164  23.045   3.301
55438W        W14699  23.524  10.763   3.727
55439W        W14700  30.481   3.761   4.779
55440W        W14701  25.060  15.268   0.258
55441W        W14702  43.304  30.974   3.349
55442W        W14703   1.851  21.689   0.307
55443W        W14704  26.537  38.823   3.204
55444W        W14705  32.949  33.513   2.759
55445W        W14706  39.010   6.697  11.982
55446W        W14707  16.601   8.736   4.180
55447W        W14708   1.339  16.133  13.315
55448W        W14709  31.012  32.509   3.213
55449W        W14710  15.658  14.340  10.013
55450W        W14711   1.902  42.382  11.882
55451W        W14712  10.293  42.318   1.367
55452W        W14713  30.088  43.876   4.783
55453W        W14714  18.697  32.983  10.993
55454W        W14715  21.101  34.983   4.756
55455W        W14716  10.331  21.674  12.986
55456W        W14717  40.493  11.290   2.692
55457W        W14718  44.346   5.238  13.413
55458W        W14719  38.330   2.843   1.241
55459W        W14720  29.659  36.486   2.843
55460W        W14721  40.018  25.550  13.814
55461W        W14722  43.020  38.022   3.762
55462W        W14723  16.139  12.627   3.777
55463W        W14724   6.731  26.066   2.197
55464W        W14725  16.654  34.085  11.484
55465W        W14726  18.719  29.538  11.389
55466W        W14727  43.843  37.055   0.368
55467W        W14728  28.941  19.761   3.659
55468W        W14729   1.455  36.390   2.680
55469W        W14730  28.545  24.683  12.446
55470W        W14731  16.250  28.120  14.372
55471W        W14732  18.266   9.163  14.905
55472W        W14733   8.815  33.561  11.972
55473W        W14734  42.876  43.493  14.281
55474W        W14735  27.119  21.251  10.450
55475W        W14736  41.337  11.850  10.425
55476W        W14737  40.495  36.371  11.392
55477W        W14738   3.303  28.612   3.853
55478W        W14739   2.747   2.828  10.642
55479W        W14740  15.779  42.939  14.943
55480W        W14741  29.095  21.615   4.224
55481W        W14742  44.500  22.118   3.861
55482W        W14743  27.588  20.181  12.467
55483W        W14744  13.823  38.393  11.506
55484W        W14745   9.356  12.728  12.452
55485W        W14746  23.068  36.955   1.880
55486W        W14747   8.714  15.731   1.416
55487W        W14748  24.046   3.245  12.486
55488W        W14749  28.668  16.097   3.809
55489W        W14750  19.734  30.643   1.909
55490W        W14751  11.739  27.450   3.193
55491W        W14752  42.885  24.570   1.265
55492W        W14753  23.229  30.552   2.322
55493W        W14754   5.895  11.264  10.525
55494W        W14755  13.796  42.857   4.122
55495W        W14756   8.358  18.069  11.555
55496W        W14757  11.837   1.325  13.404
55497W        W14758  40.907   7.351  12.048
55498W        W14759  13.137  26.006  13.995
55499W        W14760  24.610  38.440  10.893
55500W        W14761  40.043  22.131   1.349
55501W        W14762  14.767   7.757   3.273
55502W        W14763  41.819  13.764   0.447
55503W        W14764  41.490  17.609  11.877
55504W        W14765  21.734   3.226   3.318
55505W        W14766  20.646  39.482  11.045
55506W        W14767   3.786  41.926   3.709
55507W        W14768  43.455  40.365  13.959
55508W        W14769   5.265   3.363  12.495
55509W        W14770  18.745  34.116   3.831
55510W        W14771  22.242  27.589  12.087
55511W        W14772  18.584  38.917   1.878
55512W        W14773  10.772  31.126   2.243
55513W        W14774   0.345  15.130   0.945
55514W        W14775  34.926  25.596   3.370
55515W        W14776   3.272   3.265  14.478
55516W        W14777   4.767  33.049  13.439
55517W        W14778   7.316  21.659   1.907
55518W        W14779  35.905  37.543   2.362
55519W        W14780  28.144  41.997  12.377
55520W        W14781  34.072  10.192  14.351
55521W        W14782  44.843  35.060  14.772
55522W        W14783  11.372   2.337   1.872
55523W        W14784  38.567  38.067  12.482
55524W        W14785   0.878  29.010  10.440
55525W        W14786  24.023   7.379   2.201
55526W        W14787  36.396  37.997   4.196
55527W        W14788  35.921  16.285  11.610
55528W        W14789  44.868  29.938  13.375
55529W        W14790  36.873  29.988  11.049
55530W        W14791   2.415  32.586  13.401
55531W        W14792  18.649   9.828  13.540
55532W        W14793   1.254  34.945  12.850
55533W        W14794  40.927  23.018   4.207
55534W        W14795  30.557   0.468  12.534
55535W        W14796  18.606  12.151   4.211
55536W        W14797  10.303  16.240   0.918
55537W        W14798  15.295   3.319  11.535
55538W        W14799  42.439  29.038   4.339
55539W        W14800   1.395   3.243   3.200
55540W        W14801  31.062  32.423  12.864
55541W        W14802  29.073  19.116   2.684
55542W        W14803  34.434  34.561  12.991
55543W        W14804   5.316  18.608  13.522
55544W        W14805  38.535  12.165   3.154
55545W        W14806  38.555  13.843   1.838
55546W        W14807  35.509  17.620  11.050
55547W        W14808  26.030  30.062   0.313
55548W        W14809  39.048   5.227  12.385
55549W        W14810  35.893  12.229   2.236
55550W        W14811   0.828  18.624  10.093
55551W        W14812  14.225  20.759  13.879
55552W        W14813  37.495  30.064  14.410
55553W        W14814  25.479  31.044   1.413
55554W        W14815  20.152   7.236   5.230
55555W        W14816  18.207  25.077  12.574
55556W        W14817  11.772   5.854   0.471
55557W        W14818  14.778  19.110   3.841
55558W        W14819  35.602  20.099  10.909
55559W        W14820  37.548   4.829  13.008
55560W        W14821   9.225   0.473  11.952
55561W        W14822  20.682   9.174   4.265
55562W        W14823  12.143  31.908  12.086
55563W        W14824   2.460  13.245  12.388
55564W        W14825  40.039  13.602  13.362
55565W        W14826  29.494  41.403  12.368
55566W        W14827  24.034   4.887  10.635
55567W        W14828  37.880  20.561   2.865
55568W        W14829  44.387   1.261  10.044
55569W        W14830  17.631   1.290  13.470
55570W        W14831  40.869  27.613   0.880
55571W        W14832  23.723  43.843  13.462
55572W        W14833  22.247   2.830   2.837
55573W        W14834  11.825  22.051  10.631
55574W        W14835   0.266  11.168   2.721
55575W        W14836  27.562  43.833  14.944
55576W        W14837  26.185  33.381   1.359
55577W        W14838   0.290  35.997   1.807
55578W        W14839  32.111  38.544  13.948
55579W        W14840   4.860  10.707   0.886
55580W        W14841  27.012  38.519  12.388
55581W        W14842   0.816  15.266   1.409
55582W        W14843   6.205  11.820  13.920
55583W        W14844   9.804  11.688   1.927
55584W        W14845  24.171   2.887  11.596
55585W        W14846  26.533  41.868  12.422
55586W        W14847   4.248  10.372  14.888
55587W        W14848  41.910  26.573  12.880
55588W        W14849  38.445   2.261   1.793
55589W        W14850   5.259  10.710   2.740
55590W        W14851  18.265  32.453   4.598
55591W        W14852  37.512  42.436   4.154
55592W        W14853  26.682   6.904  13.477
55593W        W14854  14.107  32.931   3.843
55594W        W14855  36.507  18.230   3.220
55595W        W14856  10.179  21.177   2.706
55596W        W14857  30.979  37.399   3.291
55597W        W14858   7.373  41.515  11.114
55598W        W14859  25.479  17.661   0.461
55599W        W14860   7.872  37.993  11.101
55600W        W14861  32.482  42.523   3.266
55601W        W14862  16.746  20.160   3.309
55602W        W14863  36.372  36.967  13.861
55603W        W14864  12.287  41.355  12.494
55604W        W14865  35.566  41.528   2.818
55605W        W14866  33.969  43.403   4.221
55606W        W14867  42.841  34.487   3.657
55607W        W14868   0.877  14.331   5.112
55608W        W14869  42.370   8.270  12.096
55609W        W14870   1.821  19.047  14.353
55610W        W14871  20.067   7.256  11.551
55611W        W14872  12.316  38.918   3.174
55612W        W14873   1.266  38.958  14.818
55613W        W14874  39.992   5.202   4.698
55614W        W14875  43.881  40.415  11.104
55615W        W14876  23.644  24.537   3.220
55616W        W14877  32.421  28.487   3.725
55617W        W14878   7.792  33.899   2.220
55618W        W14879  27.462  21.089  11.530
55619W        W14880  28.519  31.470  13.344
55620W        W14881  42.805  29.063   1.790
55621W        W14882  44.831   5.417   4.644
55622W        W14883  13.651   5.407   5.212
55623W        W14884  20.266  14.204   0.375
55624W        W14885   5.300  30.456  12.562
55625W        W14886  15.727  40.806  13.969
55626W        W14887   9.389  14.182  13.978
55627W        W14888  31.135  15.148   0.438
55628W        W14889  20.526  30.124   0.413
55629W        W14890   6.188  23.051   1.933
55630W        W14891  17.616  36.433  10.463
55631W        W14892   2.377   4.286  14.460
55632W        W14893  41.941  19.232  13.525
55633W        W14894  28.073  19.063   0.367
55634W        W14895  35.000   1.423   1.850
55635W        W14896  42.939  27.031  11.126
55636W        W14897  14.679  30.118   3.862
55637W        W14898  15.311  27.611   1.326
55638W        W14899   5.905  10.310  13.527
55639W        W14900  41.949  30.537   4.256
55640W        W14901   2.330  20.545   3.371
55641W        W14902  34.111  38.455  14.492
55642W        W14903   7.269   5.432   4.344
55643W        W14904  16.259   9.719  14.784
55644W        W14905  14.221  40.403   3.672
55645W        W14906  44.269  33.898   1.875
55646W        W14907  15.251  15.739   0.361
55647W        W14908  15.734   4.724   4.650
55648W        W14909  15.145  21.106   1.776
55649W        W14910  34.429  30.510   1.882
55650W        W14911   9.677  30.564  12.441
55651W        W14912  25.667  41.854  14.317
55652W        W14913   3.932   1.383   4.778
55653W        W14914  28.054  24.538  12.828
55654W        W14915  32.911  20.753  13.514
55655W        W14916  29.038  24.124  10.456
55656W        W14917  28.165  43.411  14.501
55657W        W14918  16.225   1.757  11.392
55658W        W14919  44.360   0.248   1.313
55659W        W14920   3.883  28.664   2.403
55660W        W14921  29.969  32.122   1.430
55661W        W14922  37.003  14.307  12.479
55662W        W14923   0.279  14.252  12.999
55663W        W14924  13.717  28.650  13.470
55664W        W14925  37.357  10.684   1.255
55665W        W14926  30.627  33.079  12.433
55666W        W14927  41.344  26.625  14.933
55667W        W14928  36.032  23.729   3.171
55668W        W14929  14.289  17.158   1.273
55669W        W14930  33.564  25.647   4.689
55670W        W14931  12.197  34.887  14.385
55671W        W14932  12.116  17.158   3.693
55672W        W14933  30.648   2.792  12.918
55673W        W14934   8.707  35.940  10.930
55674W        W14935  24.118  15.614  14.019
55675W        W14936   7.178  36.897   4.796
55676W        W14937  17.170  11.733   1.445
55677W        W14938  20.653  17.712   2.218
55678W        W14939  42.307   5.223   0.385
55679W        W14940   3.262   6.914   1.738
55680W        W14941  19.549   0.812  12.019
55681W        W14942  42.947  40.971  14.008
55682W        W14943  10.784  27.036   2.760
55683W        W14944  34.465  23.504  10.515
55684W        W14945  22.097   1.329   4.680
55685W        W14946  14.735  40.895  10.427
55686W        W14947  15.244   0.743  12.427
55687W        W14948   3.725  19.175  12.940
55688W        W14949  21.695  17.243  12.368
55689W        W14950   8.690  27.120  10.982
55690W        W14951  41.301   4.817  11.435
55691W        W14952   8.695  21.151  12.909
55692W        W14953  19.754  43.847   1.717
55693W        W14954  28.675  11.631  10.409
55694W        W14955  35.483  36.889   2.181
55695W        W14956  18.201  13.165   2.745
55696W        W14957  10.824  43.983  12.362
55697W        W14958   0.867  22.069  14.956
55698W        W14959  10.703  31.531  13.803
55699W        W14960  39.492  42.905   4.645
55700W        W14961  19.048   3.733   4.139
55701W        W14962  18.060  13.711  14.005
55702W        W14963  28.101   4.868   1.925
55703W        W14964  10.754  25.036  12.055
55704W        W14965  23.100  29.521  12.536
55705W        W14966  14.655  18.079  11.391
55706W        W14967  11.268  27.666   2.664
55707W        W14968   1.913   3.936   2.246
55708W        W14969  29.460   4.346  11.510
55709W        W14970  13.341  20.212   3.153
55710W        W14971  17.224  31.461  12.454
55711W        W14972  37.551  40.922   0.427
55712W        W14973  30.046   0.787   4.187
55713W        W14974  16.294  18.745   1.838
55714W        W14975  27.969  16.301  10.976
55715W        W14976   4.309  29.080  13.837
55716W        W14977  40.833  32.102  14.971
55717W        W14978  32.998  18.736  12.403
55718W        W14979   6.286  27.668   2.826
55719W        W14980  30.621  37.896   4.731
55720W        W14981  21.616  26.143   1.265
55721W        W14982   7.699  34.941  12.462
55722W        W14983   9.724  11.243   1.332
55723W        W14984  10.784  12.300  13.359
55724W        W14985  29.947  31.065   4.686
55725W        W14986  29.518  27.649   4.306
55726W        W14987   1.316  33.004   2.746
55727W        W14988  28.505  29.961   4.354
55728W        W14989  30.495  17.185  13.843
55729W        W14990  39.856  40.395   1.848
55730W        W14991  12.825  21.115   3.353
55731W        W14992  35.413  11.337   0.401
55732W        W14993   8.783   0.746  11.104
55733W        W14994  10.768  28.056  11.125
55734W        W14995  29.099  32.990   4.173
55735W        W14996   2.331  38.853  13.006
55736W        W14997  26.129   2.461  11.946
55737W        W14998  21.661   8.259  12.428
55738W        W14999   6.882   4.380   1.381
55739W        W15000  17.763   7.384  14.951
55740W        W15001   5.774   1.788  14.432
55741W        W15002  11.857  35.896  11.974
55742W        W15003  23.607  27.630  12.487
55743W        W15004  41.825   6.912  12.053
55744W        W15005  17.089  28.969  13.874
55745W        W15006  20.557   0.803  13.476
55746W        W15007  30.110  38.017  13.476
55747W        W15008   0.855  16.693  13.794
55748W        W15009   3.245  30.452  14.451
55749W        W15010   0.777  15.127   4.718
55750W        W15011  30.424  37.975   1.900
55751W        W15012  37.863  20.125  12.447
55752W        W15013  26.564  25.202   1.737
55753W        W15014   1.442   5.927   3.153
55754W        W15015   9.704  20.142   1.341
55755W        W15016  41.360  24.006   1.841
55756W        W15017  17.767  37.562   0.902
55757W        W15018   8.839  21.616  11.592
55758W        W15019  13.233  20.083   0.285
55759W        W15020   5.919  31.053   3.632
55760W        W15021   1.306  12.331  13.893
55761W        W15022  43.445   1.737   0.295
55762W        W15023  21.101  18.617  11.408
55763W        W15024   4.784  32.525  14.460
55764W        W15025  36.916  17.218  13.413
55765W        W15026   5.417   0.491   0.867
55766W        W15027  38.992  15.706   3.324
55767W        W15028  41.796  26.054   4.793
55768W        W15029  34.583  10.761   2.395
55769W        W15030  44.952  32.067   3.202
55770W        W15031  24.695  14.674   1.441
55771W        W15032  12.677  39.938   3.732
55772W        W15033   4.213  39.360  11.856
55773W        W15034  25.195  25.066   0.247
55774W        W15035  14.203  40.885   4.127
55775W        W15036  36.970  19.683  10.892
55776W        W15037  25.078  43.405   2.751
55777W        W15038   3.232  19.558   3.680
55778W        W15039  36.008  44.386   1.210
55779W        W15040  20.555   4.318   2.668
55780W        W15041  37.568  32.037  10.586
55781W        W15042  14.130   0.304  14.916
55782W        W15043   8.674  14.203   2.884
55783W        W15044  41.468  11.263   3.691
55784W        W15045   9.814  29.635  14.777
55785W        W15046   9.820  44.301  13.531
55786W        W15047  11.190  21.616   3.763
55787W        W15048  14.812  25.105   3.201
55788W        W15049  15.286  39.811   0.728
55789W        W15050  44.968  21.577   2.216
55790W        W15051  11.152  32.069   1.889
55791W        W15052   0.436  25.524  14.289
55792W        W15053  14.712  26.483  12.090
55793W        W15054  20.544  10.321   4.763
55794W        W15055  15.170   3.348  12.913
55795W        W15056  40.873  21.539   0.391
55796W        W15057  24.577  29.939   3.312
55797W        W15058  15.645  39.332  12.848
55798W        W15059   2.375  35.544   0.862
55799W        W15060  20.673  41.946  11.937
55800W        W15061  11.751  10.324   0.726
55801W        W15062   0.865  16.209   4.145
55802W        W15063  10.273   3.836  12.354
55803W        W15064  22.712  41.498   2.271
55804W        W15065  29.084  15.812  10.894
55805W        W15066  25.017  15.215  12.498
55806W        W15067  35.854   1.449  13.942
55807W        W15068  34.511  44.300   1.254
55808W        W15069  34.961  38.971   0.326
55809W        W15070  14.179  30.928   3.190
55810W        W15071  33.599  14.684  11.459
55811W        W15072  41.291  26.999  14.320
55812W        W15073  26.590  16.084   4.737
55813W        W15074  43.021  39.557   3.635
55814W        W15075  32.956   1.341   2.826
55815W        W15076  13.211  26.051   2.367
55816W        W15077  22.528  27.150  11.461
55817W        W15078  14.160  34.426  13.493
55818W        W15079  39.542  37.545   5.157
55819W        W15080  38.457  26.590   4.664
55820W        W15081  26.208  18.731   0.407
55821W        W15082  20.204  30.076  11.944
55822W        W15083  36.563  38.515   0.821
55823W        W15084  11.276  35.865   4.268
55824W        W15085   5.275  25.075   0.851
55825W        W15086  18.631  24.644   5.210
55826W        W15087  27.684  35.366   3.273
55827W        W15088  44.836  33.518  12.370
55828W        W15089  17.600  12.662  10.430
55829W        W15090   9.674  42.422  13.951
55830W        W15091  28.052  15.291   0.373
55831W        W15092  34.015  13.800   2.717
55832W        W15093  25.178  10.180  11.452
55833W        W15094  41.409  22.045   2.249
55834W        W15095  40.899  33.401   0.274
55835W        W15096   8.723   7.880  12.356
55836W        W15097  43.353  42.957  10.582
55837W        W15098   1.286   0.288   1.251
55838W        W15099  10.870  10.870   0.742
55839W        W15100   7.289   4.887  11.476
55840W        W15101  19.694  23.174  14.821
55841W        W15102  33.506   9.339   5.127
55842W        W15103  33.085  12.656  12.435
55843W        W15104   8.208  43.359   4.788
55844W        W15105   9.252  16.313   1.314
55845W        W15106   0.865  44.374  12.379
55846W        W15107  19.759  15.758   0.923
55847W        W15108  43.790  25.969   2.274
55848W        W15109  35.911  44.947   2.838
55849W        W15110  36.919  15.088  11.047
55850W        W15111   2.745  42.502   1.903
55851W        W15112  24.043   7.300   0.877
55852W        W15113  22.744  27.503   1.704
55853W        W15114  10.274  10.213  12.414
55854W        W15115  30.041  44.805  14.396
55855W        W15116  38.001  16.613  12.415
55856W        W15117  42.518  27.520   3.685
55857W        W15118  31.912  35.595   1.798
55858W        W15119  29.470  10.167  12.972
55859W        W15120  40.044  27.194  12.906
55860W        W15121  44.426  14.187   3.350
55861W        W15122  23.731  13.764   4.181
55862W        W15123  42.838  18.608   1.862
55863W        W15124   2.307  14.250   1.349
55864W        W15125  12.721  16.694  12.465
55865W        W15126  26.678  42.289  11.876
55866W        W15127  24.587  19.087  13.830
55867W        W15128  37.425   4.448  10.131
55868W        W15129  21.157  18.121  12.488
55869W        W15130  43.865  28.483   1.349
55870W        W15131  41.965  33.044   2.694
55871W        W15132  20.671  42.897   3.328
55872W        W15133  44.298  10.830  13.917
55873W        W15134   5.294   8.196   2.203
55874W        W15135  25.177   5.348   0.388
55875W        W15136  33.447  13.624   0.405
55876W        W15137   3.274  16.316  13.888
55877W        W15138  29.994  32.072  13.832
55878W        W15139   7.769  33.878  10.908
55879W        W15140  11.710  12.626  11.988
55880W        W15141  18.753   6.242  14.287
55881W        W15142   3.458   8.355  11.963
55882W        W15143   9.303   3.235   3.660
55883W        W15144  26.021  18.232   0.786
55884W        W15145  15.300  34.936   4.225
55885W        W15146  40.824  41.304   4.698
55886W        W15147  10.742  22.046  10.459
55887W        W15148  13.707  23.640  10.530
55888W        W15149  30.107   3.215  12.407
55889W        W15150  31.412  13.312   0.856
55890W        W15151  35.939  24.488   0.732
55891W        W15152   8.668  36.019   3.246
55892W        W15153  33.882  21.059   0.952
55893W        W15154  41.990  22.589  10.972
55894W        W15155  17.795  30.631   1.215
55895W        W15156  28.066  26.992   3.171
55896W        W15157   8.253  35.549  13.350
55897W        W15158  25.635  40.977   1.727
55898W        W15159  28.559   1.731   4.768
55899W        W15160   4.368  22.573   0.773
55900W        W15161  27.077  35.025  14.448
55901W        W15162   6.816  14.232  10.411
55902W        W15163   6.712  37.349   0.804
55903W        W15164  42.513   6.886   3.806
55904W        W15165  35.521  10.695   2.672
55905W        W15166  18.632  25.112  10.919
55906W        W15167  36.978  43.850   4.702
55907W        W15168  24.977  28.055  10.430
55908W        W15169  27.943  44.478   2.280
55909W        W15170  20.668  39.372  12.096
55910W        W15171  18.714  33.921  11.499
55911W        W15172  29.142  30.526   3.848
55912W        W15173  27.613  33.115   3.185
55913W        W15174  14.818   7.697   0.350
55914W        W15175   9.197   6.912   3.275
55915W        W15176   2.378  26.466   0.422
55916W        W15177  26.137  35.523  12.393
55917W        W15178  27.179  31.534  13.512
55918W        W15179  11.624  15.745   3.843
55919W        W15180  31.552  40.030   3.669
55920W        W15181  17.248  42.875   1.743
55921W        W15182   7.730  30.599   2.856
55922W        W15183  41.897  37.944  12.383
55923W        W15184  21.111  40.013   2.299
55924W        W15185  14.140  37.046  10.439
55925W        W15186  21.159  43.510  13.948
55926W        W15187  39.956  14.273  10.553
55927W        W15188  28.145  30.533   1.409
55928W        W15189  22.227   4.856  13.374
55929W        W15190  41.534  37.395   2.338
55930W        W15191  27.995  21.221   3.829
55931W        W15192  33.971  37.458   4.726
55932W        W15193  36.581  25.052   4.311
55933W        W15194   8.771  27.128   2.355
55934W        W15195  18.225  24.710  13.317
55935W        W15196  15.117  13.176   1.437
55936W        W15197  33.476  32.530  14.413
55937W        W15198  19.257  23.512   3.358
55938W        W15199  36.049  20.085   1.919
55939W        W15200  32.082   6.358   2.823
55940W        W15201  14.774  19.725  11.406
55941W        W15202  32.893  24.198   0.789
55942W        W15203  16.307  30.132   0.411
55943W        W15204  44.480  22.536  12.565
55944W        W15205  39.328  38.444   0.757
55945W        W15206  44.389   6.842   3.363
55946W        W15207  30.024  15.656  13.841
55947W        W15208  42.494  40.843   3.782
55948W        W15209  36.518  11.163  13.461
55949W        W15210   8.189  14.659   1.812
55950W        W15211  10.329  40.334  14.796
55951W        W15212  26.012  15.285   0.467
55952W        W15213  23.177  23.724   2.367
55953W        W15214  31.574  37.014  13.410
55954W        W15215  31.034  25.151   1.423
55955W        W15216   1.240  31.955  10.969
55956W        W15217  34.080  34.064  10.894
55957W        W15218  34.014  38.333   1.376
55958W        W15219  28.163  43.410  14.912
55959W        W15220  44.764  19.202   4.303
55960W        W15221  17.625  31.538   4.724
55961W        W15222  15.229  13.145   5.269
55962W        W15223   1.398  37.421   1.702
55963W        W15224   1.424  24.053  13.020
55964W        W15225  28.108  13.148   3.379
55965W        W15226   5.695  34.981  12.096
55966W        W15227   6.884  13.313  12.074
55967W        W15228  33.394  15.315  12.029
55968W        W15229   7.874  35.004   4.779
55969W        W15230   6.326  44.009  12.090
55970W        W15231   7.318  41.322   2.179
55971W        W15232  11.776  33.442   2.358
55972W        W15233   3.321   3.420   1.381
55973W        W15234  15.219   1.922  11.518
55974W        W15235  22.180  43.992  13.510
55975W        W15236   6.751   5.763  11.956
55976W        W15237  37.980  21.145  14.804
55977W        W15238  23.731  26.465  13.813
55978W        W15239  35.460  34.050   3.348
55979W        W15240  39.870   8.747  11.506
55980W        W15241  12.288   3.900  12.890
55981W        W15242  22.733  11.742   5.153
55982W        W15243  20.661   0.813  12.504
55983W        W15244  17.672  20.246  13.471
55984W        W15245  28.997  41.312   3.855
55985W        W15246  13.249  40.492   1.741
55986W        W15247   2.237  43.009   2.239
55987W        W15248  11.325  44.914   0.760
55988W        W15249  10.837  24.527   2.333
55989W        W15250  39.341   2.380   1.433
55990W        W15251  39.845  23.670   4.133
55991W        W15252  13.785  29.041   1.216
55992W        W15253  25.195  15.616   4.819
55993W        W15254   3.460   0.807   2.337
55994W        W15255   8.704  12.807   2.375
55995W        W15256  23.160  25.544  13.833
55996W        W15257   8.197  13.818  13.015
55997W        W15258  23.237  17.801  13.373
55998W        W15259   3.762   4.850   2.219
55999W        W15260  19.665   5.881   0.777
56000W        W15261  42.790   4.793   0.441
56001W        W15262  29.142  16.633   3.166
56002W        W15263  20.631  31.634  12.038
56003W        W15264  12.663  28.007  14.304
56004W        W15265  43.416  24.696  14.446
56005W        W15266  36.876  40.044   1.789
56006W        W15267  22.138  44.954   0.467
56007W        W15268  32.464  15.799   2.743
56008W        W15269  39.898  37.530   9.936
56009W        W15270  31.472  37.026  14.361
56010W        W15271  41.977  31.576   2.193
56011W        W15272  28.054   3.446   0.829
56012W        W15273  28.576  27.122  13.538
56013W        W15274  27.989  25.510   1.224
56014W        W15275  20.040   0.297   3.752
56015W        W15276  31.458   1.459   4.716
56016W        W15277  10.850  16.653   3.210
56017W        W15278  21.684  27.684   1.877
56018W        W15279   8.749  14.768  12.033
56019W        W15280  43.871  33.946  10.949
56020W        W15281  29.165   0.830   1.694
56021W        W15282  23.179  18.726   1.891
56022W        W15283  14.100  34.905   3.678
56023W        W15284  36.564  41.889  12.420
56024W        W15285  17.192   2.278  13.456
56025W        W15286  43.506  32.995  14.927
56026W        W15287  29.559  11.210   9.462
56027W        W15288  39.378   3.844   0.303
56028W        W15289   2.343  40.043  14.423
56029W        W15290  23.196  19.608  11.008
56030W        W15291  13.283  20.253  12.567
56031W        W15292  22.156  14.292  12.900
56032W        W15293  12.120  33.913   3.157
56033W        W15294  13.819  32.556  11.924
56034W        W15295  34.056  17.228   0.926
56035W        W15296  15.688  27.025  13.312
56036W        W15297  35.521   7.354   3.230
56037W        W15298  13.774  19.643  12.554
56038W        W15299  23.156  34.969  13.853
56039W        W15300  40.044   3.429  14.826
56040W        W15301  44.267  10.692  12.902
56041W        W15302  37.365  10.358   1.403
56042W        W15303  12.155  14.804   2.415
56043W        W15304  31.404  36.576   0.430
56044W        W15305   9.686   7.383  13.535
56045W        W15306  38.423   2.423   1.382
56046W        W15307  24.103   0.298  13.054
56047W        W15308   8.312  38.892   4.179
56048W        W15309   7.784  13.234  10.538
56049W        W15310  38.020   1.468  10.614
56050W        W15311  31.644  43.899  13.351
56051W        W15312  21.648  18.666   4.163
56052W        W15313  37.360  35.491  12.534
56053W        W15314  40.856  19.258  14.910
56054W        W15315  34.078  31.488  13.934
56055W        W15316  16.793  41.973   4.151
56056W        W15317  26.969  42.959  13.904
56057W        W15318  29.015  22.126  11.399
56058W        W15319  42.783  30.087  14.858
56059W        W15320  40.417   7.836   4.341
56060W        W15321  32.421  13.829   9.926
56061W        W15322  13.218  41.514   1.281
56062W        W15323  39.529   9.240  14.399
56063W        W15324  18.181  42.846   3.318
56064W        W15325  37.009  11.782  10.408
56065W        W15326   4.791  16.600   3.701
56066W        W15327  26.550   0.973  14.824
56067W        W15328  18.700  21.040   1.723
56068W        W15329  12.360  11.150  10.048
56069W        W15330  23.714  33.004  14.912
56070W        W15331  10.378  11.756   0.800
56071W        W15332   3.860  38.554  13.805
56072W        W15333  13.791   6.286   5.147
56073W        W15334  38.819  35.954  11.438
56074W        W15335  16.641  32.095   2.890
56075W        W15336  17.154  18.262  14.315
56076W        W15337  36.576   9.859   1.890
56077W        W15338   4.733   0.988  13.012
56078W        W15339  19.090  31.987  13.475
56079W        W15340  39.478  23.642   4.164
56080W        W15341   4.911  12.652   4.250
56081W        W15342  13.843   7.710   2.395
56082W        W15343  24.511  41.373  13.823
56083W        W15344  13.761   3.862  10.122
56084W        W15345  42.972  14.316   4.640
56085W        W15346  37.534  32.418   3.758
56086W        W15347  13.154   7.899  11.585
56087W        W15348  44.989  22.205  11.575
56088W        W15349  40.527  18.081   2.237
56089W        W15350  38.854   7.886   1.865
56090W        W15351   8.177  35.475  14.287
56091W        W15352  37.065   8.824   1.397
56092W        W15353  12.315  15.648   3.715
56093W        W15354  21.612  28.579  13.057
56094W        W15355  34.896  22.173   0.261
56095W        W15356  39.057   6.761  13.834
56096W        W15357  14.117  10.190  13.412
56097W        W15358   0.956  13.662   4.130
56098W        W15359   3.820  37.894  14.814
56099W        W15360   5.869  28.523   2.228
56100W        W15361  11.768  41.310  11.032
56101W        W15362  36.897  26.460  14.937
56102W        W15363  29.599   1.856  11.502
56103W        W15364  38.879  39.528   2.903
56104W        W15365  28.046  25.181  13.939
56105W        W15366   9.215  13.818   3.751
56106W        W15367   7.270  13.226  12.951
56107W        W15368  17.653  34.588   2.750
56108W        W15369  38.520  11.765  10.563
56109W        W15370  11.259  16.737   3.159
56110W        W15371  32.605   8.691  12.483
56111W        W15372  10.160  29.595  10.624
56112W        W15373  17.706  32.584  14.376
56113W        W15374  44.505  16.107  14.019
56114W        W15375  33.595  38.535   4.315
56115W        W15376   3.316  33.496   5.206
56116W        W15377  22.192  23.035   0.742
56117W        W15378  17.230  30.422   4.610
56118W        W15379  25.619  20.208   3.802
56119W        W15380  40.003  26.044  14.366
56120W        W15381  38.049  10.309  10.476
56121W        W15382  10.373  41.501  12.525
56122W        W15383  33.983  21.115   4.773
56123W        W15384  25.213  25.573  13.831
56124W        W15385  18.067  22.184  12.377
56125W        W15386  17.749  41.821  12.964
56126W        W15387  37.575  13.266  10.484
56127W        W15388  38.558  20.187  10.459
56128W        W15389  12.195  29.472  10.959
56129W        W15390  23.153  10.753  13.430
56130W        W15391  22.130  12.116   0.392
56131W        W15392  24.998  15.641  11.884
56132W        W15393   0.360  25.469  15.000
56133W        W15394  25.685   9.745   4.253
56134W        W15395  38.073  28.673   4.285
56135W        W15396  35.571  39.808  14.382
56136W        W15397  13.673  24.567   4.312
56137W        W15398  39.356  26.573   0.392
56138W        W15399  23.076   4.205  13.519
56139W        W15400   7.225  16.677  14.803
56140W        W15401  11.839  36.015  11.453
56141W        W15402  33.590  13.109   2.312
56142W        W15403   0.920  40.330   4.315
56143W        W15404  24.012  18.581  11.481
56144W        W15405  40.486  22.199  12.085
56145W        W15406  32.554  41.462  13.378
56146W        W15407   1.376   6.282   1.377
56147W        W15408  27.630  26.001  13.502
56148W        W15409  43.491   6.325  10.511
56149W        W15410  28.654  18.611   0.436
56150W        W15411  33.606  41.489   2.300
56151W        W15412  30.440  29.011  14.422
56152W        W15413  13.184  18.736   3.386
56153W        W15414  38.823   1.283   2.745
56154W        W15415   4.908  11.263  14.384
56155W        W15416  24.587  33.535   2.190
56156W        W15417  29.571   6.342   5.272
56157W        W15418  35.936  43.503   3.370
56158W        W15419  28.531  29.518  13.987
56159W        W15420   5.337   1.850  10.408
56160W        W15421  25.120   3.756  10.419
56161W        W15422  29.096  41.342   3.205
56162W        W15423  14.188  41.437   0.483
56163W        W15424   6.881  32.601  12.494
56164W        W15425  12.656  19.208  12.394
56165W        W15426  34.963  27.591   4.302
56166W        W15427  25.613   6.280  11.870
56167W        W15428  24.607  10.787   2.840
56168W        W15429   0.270  34.867  13.428
56169W        W15430  43.949  16.140   3.372
56170W        W15431   8.771  27.074  10.583
56171W        W15432  44.433  29.606   1.386
56172W        W15433   0.965   3.942   2.183
56173W        W15434   0.386  27.095   0.818
56174W        W15435  20.580  29.944  13.352
56175W        W15436   7.712  17.183   0.758
56176W        W15437  12.258  42.991  12.475
56177W        W15438  20.578  22.041   1.333
56178W        W15439  26.523   9.244  11.602
56179W        W15440  19.548  21.708   5.205
56180W        W15441  41.465  20.133  14.931
56181W        W15442  29.503  27.094  14.900
56182W        W15443  23.645  43.838  13.891
56183W        W15444   9.232  32.903   1.803
56184W        W15445  21.201  27.550   1.347
56185W        W15446   3.889  42.424   0.417
56186W        W15447  30.462   1.837   2.209
56187W        W15448  24.986  16.658   2.798
56188W        W15449  17.621  41.312   1.422
56189W        W15450  22.133  13.698   0.897
56190W        W15451  23.608  32.998  12.879
56191W        W15452   9.838  16.707  13.325
56192W        W15453  39.545  32.466   2.384
56193W        W15454  27.672  34.056   1.307
56194W        W15455  39.523  18.642  12.359
56195W        W15456  16.285  15.630   1.430
56196W        W15457   2.465  26.047   2.740
56197W        W15458  28.619   3.448  13.509
56198W        W15459   9.710  31.952  10.590
56199W        W15460  17.714   1.814  11.395
56200W        W15461   4.795  31.046   3.738
56201W        W15462  34.098  24.495  11.404
56202W        W15463  37.460   8.293  13.901
56203W        W15464  29.116  30.597   3.286
56204W        W15465  34.000  18.613  14.872
56205W        W15466  19.670  19.593   2.801
56206W        W15467  35.104  14.772   2.864
56207W        W15468  21.689   4.921   9.962
56208W        W15469   6.865  12.252   9.504
56209W        W15470  29.661  40.522   4.831
56210W        W15471  37.057  12.306   0.337
56211W        W15472  25.694   0.849  10.132
56212W        W15473  38.540  23.137  11.938
56213W        W15474  16.303   1.311   1.345
56214W        W15475  38.480  30.951   4.319
56215W        W15476   8.701  11.330  13.017
56216W        W15477  17.634  30.490  14.460
56217W        W15478  37.979  24.146  12.360
56218W        W15479  32.632  15.758  12.948
56219W        W15480  16.639   8.756  11.542
56220W        W15481   0.814  17.622  13.897
56221W        W15482  27.683  41.031  10.956
56222W        W15483  15.646   0.960   0.934
56223W        W15484  26.987  26.600   1.793
56224W        W15485  31.607  15.219  10.555
56225W        W15486   5.866  36.391  10.496
56226W        W15487  30.919  39.002   1.873
56227W        W15488  26.041  42.340   1.328
56228W        W15489   2.456  26.987  11.968
56229W        W15490   7.677  39.851  11.909
56230W        W15491  35.067  44.305   0.733
56231W        W15492  31.518  38.023   4.237
56232W        W15493  44.001  34.943  10.887
56233W        W15494  28.586   3.719  12.517
56234W        W15495  37.410   8.161   1.845
56235W        W15496  22.697  19.679   2.353
56236W        W15497  20.654  39.928   4.756
56237W        W15498   3.349  26.673  11.567
56238W        W15499  44.448  17.182   3.731
56239W        W15500  33.459   4.706   1.789
56240W        W15501  22.653   6.911   1.395
56241W        W15502   8.295  10.706  14.359
56242W        W15503  25.689   1.735   1.311
56243W        W15504   4.207   7.764   2.354
56244W        W15505   1.373  28.984  12.342
56245W        W15506  16.659  44.918  12.467
56246W        W15507  13.780  20.175  13.357
56247W        W15508   2.884   3.843  13.378
56248W        W15509  25.682  31.095  14.285
56249W        W15510  39.377  37.469  12.072
56250W        W15511   2.424  28.067   0.893
56251W        W15512   3.344  11.803   1.701
56252W        W15513   5.710  35.382   0.252
56253W        W15514   2.795  23.988   4.216
56254W        W15515  26.487   8.241  13.872
56255W        W15516  28.103   7.360  13.490
56256W        W15517   8.170  37.886   2.267
56257W        W15518  17.157  26.026  14.975
56258W        W15519  42.895   7.821  13.049
56259W        W15520  15.581  26.675  12.438
56260W        W15521  42.365  27.941  14.014
56261W        W15522   8.850   6.720   1.878
56262W        W15523  25.045  15.654   0.453
56263W        W15524  20.673  13.838   4.172
56264W        W15525  17.106  32.111  13.038
56265W        W15526  20.055  37.917   2.230
56266W        W15527  29.584  30.569   5.181
56267W        W15528  16.665  35.964   0.422
56268W        W15529  35.507  40.481   0.244
56269W        W15530   4.840  12.143   1.807
56270W        W15531  33.110  35.446   4.712
56271W        W15532  20.541  28.130  14.898
56272W        W15533  10.733  20.689   2.819
56273W        W15534   6.711  23.496   0.411
56274W        W15535  42.321   1.746   0.466
56275W        W15536   9.244  18.153  13.408
56276W        W15537  27.010   7.324  11.592
56277W        W15538  28.462  31.025  13.835
56278W        W15539   7.312   2.875  11.544
56279W        W15540  22.232  26.530  14.892
56280W        W15541  11.130  31.118   0.321
56281W        W15542  16.784  11.848  10.633
56282W        W15543  44.913  18.728   9.977
56283W        W15544   1.272  26.160   4.191
56284W        W15545  32.975  44.860   1.306
56285W        W15546   0.451  34.014  14.386
56286W        W15547  41.379  23.705  10.526
56287W        W15548  42.460  19.228  13.948
56288W        W15549  24.067  38.977   4.330
56289W        W15550  15.740  24.623  10.567
56290W        W15551   3.407  43.882  10.501
56291W        W15552   0.353   0.372  12.935
56292W        W15553  39.515  18.263  13.424
56293W        W15554  19.156  12.320   0.426
56294W        W15555   3.357   1.768  13.929
56295W        W15556  20.694  18.072  13.817
56296W        W15557  37.996  16.298  11.962
56297W        W15558  18.638  43.312   2.679
56298W        W15559  38.952  22.533   5.189
56299W        W15560  44.911  26.459   0.416
56300W        W15561  10.741  37.027   4.323
56301W        W15562  22.074  22.028   9.567
56302W        W15563   0.964  13.190  14.908
56303W        W15564  44.497  20.272   2.784
56304W        W15565  41.440   3.875   1.695
56305W        W15566   1.919  18.657   3.247
56306W        W15567  44.863  11.631   3.681
56307W        W15568   4.289  25.095   2.877
56308W        W15569  42.031  11.216   0.422
56309W        W15570  43.290  31.012   0.814
56310W        W15571  34.929  28.173   0.419
56311W        W15572  20.114  34.894  14.024
56312W        W15573  24.568  34.436   2.784
56313W        W15574  20.215  30.124  13.500
56314W        W15575   5.414  22.242   0.244
56315W        W15576   0.324  43.907   4.777
56316W        W15577  27.068  36.938  11.502
56317W        W15578  31.109  19.115   2.212
56318W        W15579  19.560  11.177   3.712
56319W        W15580  22.698  17.620   2.380
56320W        W15581  23.678  27.957  14.808
56321W        W15582  17.307  30.120   3.785
56322W        W15583  21.537  41.024   4.280
56323W        W15584  15.188  29.623   4.163
56324W        W15585  26.994  11.173  12.986
56325W        W15586  37.908  27.146   3.163
56326W        W15587  35.001  12.266  10.427
56327W        W15588  34.999  19.650  10.563
56328W        W15589   4.831  25.702  11.955
56329W        W15590  17.286  27.942  14.441
56330W        W15591   1.263  31.591   2.815
56331W        W15592  37.384  32.477   0.765
56332W        W15593  23.047   1.242  10.589
56333W        W15594  33.390  16.083   3.274
56334W        W15595  25.616  17.243  10.106
56335W        W15596  41.380  27.136  13.344
56336W        W15597  16.134   4.382  10.614
56337W        W15598  33.885  37.448   0.369
56338W        W15599  28.181  24.510   2.719
56339W        W15600  20.266   1.468   4.622
56340W        W15601   7.374   1.893   3.319
56341W        W15602  22.675  19.608   1.275
56342W        W15603   3.943  13.808   0.358
56343W        W15604  26.533  14.678  12.395
56344W        W15605  17.654   2.366   4.209
56345W        W15606  28.164  30.487  10.436
56346W        W15607  20.698  40.423   2.803
56347W        W15608   1.378  14.795   0.891
56348W        W15609  16.314  32.912  14.282
56349W        W15610  12.655   8.283  11.898
56350W        W15611  39.341  16.209   0.768
56351W        W15612  26.176  17.686   1.889
56352W        W15613  28.599  20.554  13.991
56353W        W15614  19.627  22.602  11.088
56354W        W15615  33.420  43.423   2.285
56355W        W15616  39.827   6.362   2.384
56356W        W15617   5.280  12.855   4.598
56357W        W15618  14.099  32.578   2.783
56358W        W15619  16.184  41.500   0.953
56359W        W15620  20.559  11.639   3.322
56360W        W15621   5.710  29.162  14.433
56361W        W15622  10.790  21.648  14.921
56362W        W15623   7.791  25.168  11.576
56363W        W15624   2.825  22.535  14.767
56364W        W15625  35.978  38.001  13.354
56365W        W15626  23.172  38.377   4.205
56366W        W15627  16.141  15.176   1.748
56367W        W15628  39.876  14.289   5.132
56368W        W15629  44.003   9.221   4.796
56369W        W15630  10.635  10.267  11.930
56370W        W15631  32.997  24.602   3.640
56371W        W15632  28.581  22.209  13.003
56372W        W15633   9.887  43.970  11.573
56373W        W15634  30.490  28.997  13.481
56374W        W15635  24.697  12.226  10.949
56375W        W15636  14.254  43.435  10.641
56376W        W15637  23.217  12.182  14.963
56377W        W15638  12.326   2.391   1.381
56378W        W15639  16.122   4.907  12.004
56379W        W15640  42.346  32.136  12.028
56380W        W15641   4.241  43.392  12.897
56381W        W15642  41.500  41.876  11.420
56382W        W15643  35.539  23.146  12.986
56383W        W15644  26.108   4.241   0.866
56384W        W15645  16.738  15.209   3.812
56385W        W15646  17.693   9.779  13.031
56386W        W15647  26.640   1.909   4.751
56387W        W15648   1.850  40.957  10.546
56388W        W15649  44.324  28.931  11.867
56389W        W15650   9.675  19.089  12.432
56390W        W15651   2.961  35.888   1.247
56391W        W15652  14.273  17.741  14.000
56392W        W15653  38.984  38.343  12.827
56393W        W15654  44.415  20.679   0.728
56394W        W15655  18.252  32.033  13.911
56395W        W15656  13.346  20.619  14.383
56396W        W15657   1.962  31.496  11.373
56397W        W15658  25.552  17.575  13.851
56398W        W15659  27.009   8.754  14.504
56399W        W15660  23.219   6.677  14.890
56400W        W15661  24.492  37.892  11.071
56401W        W15662  32.043  27.643  12.502
56402W        W15663   5.325  22.654  12.090
56403W        W15664  18.549   2.298   2.678
56404W        W15665  39.497  23.578   1.711
56405W        W15666  17.625  15.613  13.424
56406W        W15667  32.468  24.196  11.586
56407W        W15668  16.739   7.379   2.773
56408W        W15669  28.446  10.247   4.349
56409W        W15670   5.925  32.430   1.442
56410W        W15671  17.294  19.759   2.355
56411W        W15672   9.696  19.225  14.510
56412W        W15673  35.063  43.402   2.377
56413W        W15674  18.111   8.854   2.753
56414W        W15675  29.143  41.890  14.849
56415W        W15676   8.810  40.021   0.478
56416W        W15677  33.404  20.541   4.645
56417W        W15678  19.752  39.838  11.915
56418W        W15679   9.215   1.861   4.131
56419W        W15680  35.358   4.276   3.745
56420W        W15681  42.883  24.690   4.190
56421W        W15682  39.880  39.361  11.994
56422W        W15683  42.306  31.577  12.462
56423W        W15684  19.283  13.837   1.446
56424W        W15685  25.486  12.229   0.737
56425W        W15686  27.984  35.925  14.018
56426W        W15687  37.902  38.831   4.764
56427W        W15688  35.870  13.199  14.409
56428W        W15689  10.849   0.252  12.019
56429W        W15690  34.884   0.355  13.960
56430W        W15691  10.669  20.639  13.980
56431W        W15692   1.732  11.767  11.994
56432W        W15693   4.403   5.303   2.369
56433W        W15694   7.198  39.813  14.886
56434W        W15695  28.942   1.396  12.458
56435W        W15696   8.686   3.744  13.412
56436W        W15697  29.112  15.114   3.798
56437W        W15698  17.140  37.398  13.497
56438W        W15699  16.318  43.315   2.845
56439W        W15700  31.099   8.885  10.544
56440W        W15701  20.070  11.155   4.258
56441W        W15702  13.682  33.964  12.454
56442W        W15703  39.960  43.439  14.347
56443W        W15704  26.459  39.055   2.347
56444W        W15705  22.644  42.966   3.188
56445W        W15706  39.931  13.778  11.483
56446W        W15707  34.447  23.061   1.216
56447W        W15708   3.905  35.910   1.331
56448W        W15709  35.560  22.028  13.542
56449W        W15710   8.728  28.643   3.727
56450W        W15711  16.675   1.957  13.815
56451W        W15712  30.909  23.517  12.874
56452W        W15713  29.462  11.313  14.513
56453W        W15714  11.720  16.136   3.786
56454W        W15715  36.533   3.731   3.636
56455W        W15716  12.759  29.936  14.935
56456W        W15717  44.504  17.280  14.850
56457W        W15718  13.211   1.919   9.649
56458W        W15719  15.199  32.902  11.090
56459W        W15720  37.037  11.801   0.297
56460W        W15721  20.555  39.462  13.325
56461W        W15722   9.248  10.378  11.962
56462W        W15723  34.924  18.596  14.372
56463W        W15724  36.041  23.585  10.949
56464W        W15725  33.417  16.318   2.345
56465W        W15726  21.641  18.208  14.379
56466W        W15727  24.538  31.505  11.410
56467W        W15728  39.918  36.875   2.245
56468W        W15729  14.619   6.817  12.887
56469W        W15730  40.834   5.253  13.845
56470W        W15731  13.811  30.651   1.349
56471W        W15732  33.625  23.180  14.336
56472W        W15733   3.368  24.701  12.915
56473W        W15734  27.479   4.707  10.901
56474W        W15735   3.340  33.381   1.765
56475W        W15736  30.116   3.257  11.858
56476W        W15737  15.663  22.042  11.034
56477W        W15738  25.550  10.743  14.429
56478W        W15739  41.363  11.265   1.427
56479W        W15740  35.369  11.180  10.132
56480W        W15741  11.758   7.901   0.731
56481W        W15742  11.787  41.474  12.004
56482W        W15743  42.440   7.778   2.257
56483W        W15744  32.470  36.544  13.984
56484W        W15745  35.513  31.616   3.320
56485W        W15746  44.942  30.590  12.960
56486W        W15747   5.707  35.459  11.109
56487W        W15748  36.499  17.760   0.801
56488W        W15749  19.103  20.218   2.889
56489W        W15750  34.447  33.552   2.883
56490W        W15751  41.979  27.641   3.246
56491W        W15752  18.754  17.630   0.956
56492W        W15753  12.693  19.164   0.849
56493W        W15754  43.446  14.278  14.775
56494W        W15755  37.011  15.784   0.873
56495W        W15756  17.237  42.978   4.192
56496W        W15757  44.981  31.510  13.993
56497W        W15758  31.481  30.612  10.585
56498W        W15759  10.203  24.127   2.883
56499W        W15760  13.174   3.420   2.235
56500W        W15761  15.322  21.177  10.416
56501W        W15762  21.054  43.291  10.585
56502W        W15763  31.456  23.224   2.355
56503W        W15764  14.280   5.194   0.409
56504W        W15765  37.924  38.864  11.569
56505W        W15766   5.242  40.414  12.467
56506W        W15767  27.122   5.890   3.697
56507W        W15768  17.176  42.790  11.008
56508W        W15769   3.888   7.747   3.320
56509W        W15770  29.110  20.580  11.573
56510W        W15771  20.202  23.567  14.958
56511W        W15772  32.056  39.817   2.699
56512W        W15773  18.749   7.795   1.703
56513W        W15774  44.348   0.986  12.886
56514W        W15775  41.300  30.450  11.518
56515W        W15776  37.424  36.935  11.986
56516W        W15777   0.967   3.413  13.527
56517W        W15778  44.000  18.224   1.416
56518W        W15779  37.509  24.612  14.301
56519W        W15780   5.906  43.814   1.447
56520W        W15781  18.630   0.743   4.137
56521W        W15782  39.323   2.395   3.700
56522W        W15783  18.665  22.130  13.939
56523W        W15784   5.390  10.833  13.815
56524W        W15785   0.455  17.078   2.399
56525W        W15786  26.636  42.889   3.342
56526W        W15787  25.185  24.668   1.286
56527W        W15788   5.811  19.618   1.221
56528W        W15789  12.713  12.349   4.162
56529W        W15790  29.073  37.842  10.157
56530W        W15791  29.989  32.472   1.336
56531W        W15792   1.257  17.154   0.938
56532W        W15793  41.531  19.043   3.693
56533W        W15794  42.334  15.211  12.492
56534W        W15795  32.450  15.262   1.345
56535W        W15796   3.419  26.156   1.371
56536W        W15797  42.843  36.045  13.864
56537W        W15798  32.003   3.816  13.878
56538W        W15799   0.912   3.353  10.490
56539W        W15800  33.616  30.997   3.186
56540W        W15801  38.859  37.029  11.969
56541W        W15802  26.648  13.253   0.295
56542W        W15803  30.117   4.207  12.896
56543W        W15804  17.204  44.801   4.131
56544W        W15805  28.585  33.877   4.340
56545W        W15806   5.375  28.566  13.046
56546W        W15807  36.587   6.401   3.801
56547W        W15808  32.445  16.625   3.709
56548W        W15809   9.765  14.278  13.394
56549W        W15810  22.723  34.590  13.915
56550W        W15811  18.236   5.808  14.409
56551W        W15812  17.100  39.012  14.889
56552W        W15813  33.399  14.629  14.434
56553W        W15814   4.316  36.065   3.705
56554W        W15815  40.508  33.467   2.413
56555W        W15816  20.566  35.010   0.363
56556W        W15817   9.717  18.771  13.984
56557W        W15818   0.423  28.011  14.887
56558W        W15819   9.798  29.109   4.737
56559W        W15820  28.096  31.587  10.923
56560W        W15821  27.143  16.685  12.532
56561W        W15822   3.240  27.964   2.248
56562W        W15823  21.717  19.686   0.953
56563W        W15824  12.337  21.043   4.663
56564W        W15825   0.787   7.196  12.065
56565W        W15826  25.597  18.197  11.513
56566W        W15827  42.028  28.574   4.607
56567W        W15828  19.196  33.502   2.873
56568W        W15829  19.599  32.484   0.469
56569W        W15830  12.176   7.877  11.507
56570W        W15831  28.140  18.599   0.243
56571W        W15832   4.316  42.478   3.365
56572W        W15833  42.983  25.479  11.443
56573W        W15834  25.031  43.314  10.958
56574W        W15835  11.363  43.893  10.536
56575W        W15836  36.098   1.882   1.253
56576W        W15837  15.114  18.146  14.291
56577W        W15838  41.043  20.116  14.313
56578W        W15839  25.651  24.027  12.442
56579W        W15840  12.769   2.789  10.601
56580W        W15841  37.420  39.406  13.930
56581W        W15842   2.317  34.527  13.039
56582W        W15843  44.281  23.003   3.869
56583W        W15844  44.276   0.410   1.927
56584W        W15845  14.135  24.085   0.944
56585W        W15846  34.509  28.993   2.379
56586W        W15847   8.192   2.911  13.452
56587W        W15848  23.591  38.410  10.479
56588W        W15849  21.102   0.374  13.355
56589W        W15850   3.429  25.646  11.876
56590W        W15851  33.109  26.625  14.943
56591W        W15852  44.430  11.840  12.430
56592W        W15853  16.289  22.069  11.008
56593W        W15854  28.482  14.166   1.252
56594W        W15855  16.312  32.582   2.767
56595W        W15856   5.728  44.364  14.445
56596W        W15857  17.064  32.964  11.575
56597W        W15858   4.367  10.250   0.367
56598W        W15859   4.322  39.065  10.509
56599W        W15860  35.426  12.698   5.087
56600W        W15861  16.653  33.978   0.363
56601W        W15862  39.828  37.003   4.733
56602W        W15863   5.330  40.329   2.246
56603W        W15864  35.968  35.962   4.635
56604W        W15865  22.024  27.528  10.930
56605W        W15866  42.941  10.865  14.391
56606W        W15867  26.541  12.801   0.834
56607W        W15868   4.339  21.523  11.531
56608W        W15869  13.618  40.477  10.405
56609W        W15870  27.146  42.300   3.866
56610W        W15871  29.523  39.827  12.983
56611W        W15872  27.506  30.986  10.590
56612W        W15873  23.122  27.019  14.370
56613W        W15874  28.039  15.205   2.295
56614W        W15875  34.088  23.558   1.742
56615W        W15876   8.384  11.298  14.451
56616W        W15877  26.523  39.999  10.623
56617W        W15878  34.984  35.541   0.768
56618W        W15879  13.150   2.275   0.801
56619W        W15880  18.250  17.622  12.348
56620W        W15881  39.357  41.997   0.805
56621W        W15882  39.544  30.110   0.867
56622W        W15883  32.128  26.196   2.672
56623W        W15884  30.031  13.652   2.301
56624W        W15885  38.962   1.312  14.801
56625W        W15886   1.922  13.744   4.305
56626W        W15887  16.647  31.567  14.883
56627W        W15888  22.009  29.520   1.332
56628W        W15889  13.256  38.940  10.597
56629W        W15890  13.127  36.572  14.316
56630W        W15891  28.087  25.120   0.867
56631W        W15892  29.923  43.509   0.452
56632W        W15893  28.101   6.250   1.382
56633W        W15894  22.170  28.602   4.203
56634W        W15895   3.444  27.167   0.818
56635W        W15896  29.470   4.913   1.259
56636W        W15897  34.886  10.677  13.991
56637W        W15898   3.770  40.378   4.199
56638W        W15899   2.801   1.758   1.308
56639W        W15900  41.340  20.669   2.756
56640W        W15901  41.044  42.974   3.200
56641W        W15902   9.219  37.066   2.304
56642W        W15903  29.546  10.378  10.516
56643W        W15904  26.602   7.343   1.402
56644W        W15905  14.714  28.037   0.420
56645W        W15906  21.176  15.774   4.225
56646W        W15907  36.558  38.861   3.640
56647W        W15908  12.764  23.686   1.914
56648W        W15909  27.126  43.425  11.579
56649W        W15910  27.459  31.592   3.709
56650W        W15911  34.022  31.039   4.679
56651W        W15912  15.766   0.457   4.831
56652W        W15913  26.604  28.445  12.047
56653W        W15914  39.522  15.252  12.515
56654W        W15915  37.047  35.959  11.611
56655W        W15916  25.567  40.464   3.634
56656W        W15917  44.320  25.696   3.195
56657W        W15918   7.694   9.661  14.862
56658W        W15919  21.655  27.154  11.534
56659W        W15920  10.326  10.721   2.878
56660W        W15921  24.141  37.522   5.218
56661W        W15922   5.885  35.479   2.723
56662W        W15923  29.980  36.032  13.333
56663W        W15924   4.277  36.443   4.779
56664W        W15925  28.993  34.559  11.475
56665W        W15926   1.274  36.862   2.857
56666W        W15927  23.582  44.451   4.758
56667W        W15928  32.511  28.452   0.369
56668W        W15929  41.970  19.239  12.939
56669W        W15930  19.212  37.501   3.240
56670W        W15931  32.486   8.384   4.613
56671W        W15932  35.959  16.719   4.170
56672W        W15933  23.547  42.320  12.346
56673W        W15934  30.571  38.837  10.082
56674W        W15935  27.455  25.155   0.471
56675W        W15936   5.880  44.265   0.452
56676W        W15937  39.948   5.787  10.887
56677W        W15938  34.433  10.751   0.946
56678W        W15939  44.371  11.272  10.113
56679W        W15940  11.193  41.341  14.808
56680W        W15941  22.076  39.056  13.837
56681W        W15942   8.349   5.858  11.867
56682W        W15943  16.624  25.521  10.560
56683W        W15944  15.303  15.591  10.497
56684W        W15945  26.978  40.029   1.727
56685W        W15946   2.868  17.746   2.234
56686W        W15947  21.029  22.027  10.955
56687W        W15948  22.145  37.419  14.303
56688W        W15949  44.266  39.543   3.709
56689W        W15950  24.612  40.335   1.788
56690W        W15951   7.240  23.130   1.271
56691W        W15952  30.974  41.328  12.047
56692W        W15953  10.701  21.097  10.494
56693W        W15954  10.797  32.999  12.553
56694W        W15955  29.989  16.806   4.131
56695W        W15956  35.501  24.555  11.057
56696W        W15957  18.115  14.731   4.655
56697W        W15958  25.079  35.047  11.023
56698W        W15959  40.388  17.747   4.200
56699W        W15960  19.630  32.947  13.064
56700W        W15961  26.535  19.124   2.338
56701W        W15962  12.690   5.866   1.845
56702W        W15963  33.417  12.260  14.833
56703W        W15964  11.259   2.366  14.968
56704W        W15965  11.655  42.027  12.034
56705W        W15966  27.520  43.871  10.966
56706W        W15967  12.320  11.327   3.870
56707W        W15968  17.565   1.805   2.694
56708W        W15969  40.393  14.165   5.158
56709W        W15970  17.104   2.425  11.103
56710W        W15971  14.218  34.544  12.567
56711W        W15972  30.417   0.342  11.976
56712W        W15973  44.895  20.524  11.589
56713W        W15974  28.489   6.812   4.826
56714W        W15975  12.256   0.333  14.418
56715W        W15976  38.455  25.034   4.703
56716W        W15977   7.252   5.395  11.518
56717W        W15978  20.190  35.401   1.395
56718W        W15979   8.739  13.321   3.767
56719W        W15980  35.526  40.338  11.903
56720W        W15981  27.027   1.763  13.881
56721W        W15982  37.525  21.674  12.091
56722W        W15983  44.348   5.389   1.354
56723W        W15984  18.776  23.652  13.997
56724W        W15985  41.383  36.000  11.441
56725W        W15986  23.028  43.439   3.368
56726W        W15987  31.149  27.970  14.855
56727W        W15988  13.804  44.500  10.903
56728W        W15989  14.197   8.317  12.052
56729W        W15990   2.917  11.372   4.309
56730W        W15991   4.430  38.004  11.497
56731W        W15992  37.573  42.905  11.889
56732W        W15993  13.680  42.476  14.285
56733W        W15994  28.950  16.077  10.422
56734W        W15995  43.404  12.314  11.964
56735W        W15996  35.487   3.366   1.296
56736W        W15997  19.171  26.069  11.917
56737W        W15998  38.881  22.506  12.985
56738W        W15999  37.478  33.084  11.916
56739W        W16000  26.661  41.374   2.328
56740W        W16001  32.455  30.014   2.342
56741W        W16002  41.002  21.631  13.034
56742W        W16003  41.794  21.118  12.888
56743W        W16004  34.886  28.096  14.962
56744W        W16005  11.822  37.857  12.996
56745W        W16006  43.831  25.120  14.894
56746W        W16007  15.593  35.600   0.802
56747W        W16008   8.217  19.759   3.149
56748W        W16009  24.562  35.103   4.189
56749W        W16010  44.487   2.325  12.909
56750W        W16011   5.424  27.958   4.749
56751W        W16012  38.559  22.697   3.757
56752W        W16013  17.596  31.443  12.491
56753W        W16014  31.149  18.243  14.845
56754W        W16015   3.297  43.439   4.166
56755W        W16016  11.625  13.184   1.219
56756W        W16017   4.447  35.390   4.144
56757W        W16018  36.067  21.604  13.883
56758W        W16019  11.752  37.446   4.132
56759W        W16020  33.016  36.425   4.641
56760W        W16021   4.338  33.888   0.883
56761W        W16022  12.294  33.508   0.473
56762W        W16023  40.435  28.053   5.317
56763W        W16024   9.697  11.776  11.480
56764W        W16025   3.940  21.085  11.985
56765W        W16026  41.812  34.486   2.698
56766W        W16027   8.324  27.457  12.864
56767W        W16028  15.307  29.459   0.312
56768W        W16029  35.893   8.847   3.712
56769W        W16030  14.656   7.375  14.970
56770W        W16031   6.843  34.043  10.582
56771W        W16032   4.390  39.457   0.860
56772W        W16033  17.212  43.288  12.571
56773W        W16034  22.091  15.790   2.211
56774W        W16035  31.439  21.585   2.734
56775W        W16036  27.613  32.473   3.364
56776W        W16037   2.734  43.797   2.243
56777W        W16038  44.306  27.590  12.378
56778W        W16039   2.911  41.909  12.908
56779W        W16040   7.337  13.188   0.290
56780W        W16041  19.749  17.277  10.624
56781W        W16042  28.948  23.703  10.638
56782W        W16043  16.150  21.686  14.804
56783W        W16044  35.560   6.220   2.699
56784W        W16045  37.985  17.800   1.422
56785W        W16046  30.659  21.635   2.404
56786W        W16047   0.474  18.169  12.044
56787W        W16048   1.735  23.726  14.943
56788W        W16049   1.854   0.745  12.064
56789W        W16050  29.036   9.844   4.838
56790W        W16051   4.435   6.873   0.420
56791W        W16052  39.435  41.863  13.047
56792W        W16053  14.812  35.941   3.375
56793W        W16054  16.288  39.539   4.208
56794W        W16055  14.267  11.247  11.017
56795W        W16056  11.280  27.569   4.621
56796W        W16057  16.094  22.699  10.992
56797W        W16058   6.399  27.642   0.922
56798W        W16059  15.650  31.426   3.371
56799W        W16060  42.937  30.632  10.559
56800W        W16061  31.098   6.797  12.823
56801W        W16062  43.812  17.648   3.251
56802W        W16063  19.649  13.268   4.184
56803W        W16064   7.379  20.194   5.301
56804W        W16065  19.568  19.730  12.866
56805W        W16066  41.845   2.316  12.998
56806W        W16067  14.097   0.982   2.680
56807W        W16068   4.300  18.056  12.971
56808W        W16069  16.607  27.123   9.666
56809W        W16070  13.283  20.073  14.861
56810W        W16071   5.813  34.004  12.074
56811W        W16072  33.104  37.496  13.319
56812W        W16073   0.932  10.282   1.723
56813W        W16074  30.445  22.038   3.288
56814W        W16075   0.821  16.778  14.375
56815W        W16076  24.026  33.875   4.173
56816W        W16077  39.903  40.989  11.456
56817W        W16078  16.304  27.639  11.396
56818W        W16079  40.858  34.037   3.757
56819W        W16080  10.382  20.191   2.246
56820W        W16081  39.902  23.003   1.706
56821W        W16082  43.860  38.497   1.274
56822W        W16083  14.718  22.725  10.429
56823W        W16084  36.545   7.322  12.356
56824W        W16085  16.300  44.857  14.949
56825W        W16086  23.597  13.289  12.536
56826W        W16087  13.229   7.715  14.897
56827W        W16088   8.282  27.677  11.932
56828W        W16089  21.200  37.363   1.346
56829W        W16090  19.194  35.419  11.436
56830W        W16091  34.951   4.800  14.771
56831W        W16092  29.531  25.570  14.860
56832W        W16093   8.222   4.871  14.312
56833W        W16094  34.017  15.677   3.734
56834W        W16095  13.275  40.032   2.337
56835W        W16096  33.452  38.527  13.314
56836W        W16097  20.642   5.353  10.622
56837W        W16098   1.955  33.115  13.922
56838W        W16099  33.586   6.331  13.036
56839W        W16100  21.198  31.576  11.953
56840W        W16101  43.808  18.568  11.943
56841W        W16102  15.661  27.564   1.739
56842W        W16103  19.238  43.492   0.921
56843W        W16104   9.160   5.739  11.009
56844W        W16105   1.949  34.100   2.835
56845W        W16106   9.859  35.490  10.605
56846W        W16107  20.122  35.062  12.457
56847W        W16108  38.439  16.287  12.522
56848W        W16109  33.438  40.545   4.630
56849W        W16110  31.902   5.266  11.464
56850W        W16111  20.158  33.008  14.774
56851W        W16112  43.277  17.568  10.588
56852W        W16113  13.196  35.565   0.377
56853W        W16114  17.577   8.305  10.958
56854W        W16115   1.315  28.088   4.160
56855W        W16116  31.934  18.739  11.907
56856W        W16117  34.517  26.014   1.843
56857W        W16118  44.421  24.213   0.909
56858W        W16119  38.020  17.199   1.274
56859W        W16120  36.892  25.587  11.595
56860W        W16121  37.995   8.279   2.747
56861W        W16122  30.076  25.146  14.391
56862W        W16123  19.656  19.633   1.702
56863W        W16124  23.573  24.999   0.306
56864W        W16125   2.955  10.285  13.012
56865W        W16126  12.670  12.835   2.304
56866W        W16127  20.657  43.826  11.903
56867W        W16128  23.119   1.785  12.093
56868W        W16129   8.840  38.564   3.320
56869W        W16130  43.899   4.443  12.394
56870W        W16131   6.295  24.085  12.415
56871W        W16132  44.282  18.101   0.778
56872W        W16133  41.809   5.856  10.147
56873W        W16134  32.063  32.543   3.263
56874W        W16135  25.646  29.006   1.435
56875W        W16136  11.371  41.398   2.239
56876W        W16137  18.623   5.212  12.357
56877W        W16138  23.578  18.748  13.491
56878W        W16139  17.136  12.855  10.021
56879W        W16140  29.954  26.687   0.814
56880W        W16141   8.728  29.594   3.175
56881W        W16142  13.785  36.460  14.838
56882W        W16143  12.796  12.789   3.243
56883W        W16144  30.029  10.192   1.256
56884W        W16145  38.362  14.182  10.932
56885W        W16146  16.614  27.009  11.495
56886W        W16147  15.296   6.690   2.802
56887W        W16148  25.498  40.994   1.428
56888W        W16149  43.896   0.488  10.908
56889W        W16150  39.467  20.691  11.974
56890W        W16151  20.657  23.177   0.961
56891W        W16152  32.019  21.512  10.472
56892W        W16153  12.671  11.714  12.344
56893W        W16154   7.865  42.346  13.975
56894W        W16155  32.053  12.246   2.697
56895W        W16156  19.214  11.659   1.761
56896W        W16157  24.518  32.410   2.414
56897W        W16158  32.572  39.038  13.507
56898W        W16159  43.922  24.128   0.414
56899W        W16160   8.850   9.151  14.990
56900W        W16161  12.353  41.422  13.495
56901W        W16162  34.893  38.055  13.398
56902W        W16163  10.823  25.515   4.823
56903W        W16164  37.499   1.277  13.828
56904W        W16165   6.289   5.894   3.275
56905W        W16166  11.258  29.571  10.605
56906W        W16167  10.857  22.023   1.434
56907W        W16168   3.229   9.678   4.626
56908W        W16169  10.198   4.887  13.042
56909W        W16170  22.611  39.900  11.057
56910W        W16171  13.709  41.015  14.023
56911W        W16172  28.141  34.924   4.649
56912W        W16173  43.956  44.009  14.391
56913W        W16174  24.185  26.496  14.375
56914W        W16175   3.878  39.046   4.692
56915W        W16176   8.725   4.811   3.816
56916W        W16177  28.161  18.750   3.175
56917W        W16178   0.790   0.844  11.931
56918W        W16179   3.950  20.097   1.213
56919W        W16180   6.403  22.708   0.322
56920W        W16181  28.935  19.055   4.776
56921W        W16182  32.574  36.376  11.560
56922W        W16183   6.848  15.712   2.691
56923W        W16184  37.858  10.139  13.377
56924W        W16185  24.173  29.658   3.356
56925W        W16186  39.377  18.588  11.380
56926W        W16187   9.199   2.371   0.878
56927W        W16188  37.561   2.944   1.738
56928W        W16189  30.470  43.778   0.836
56929W        W16190   7.402  42.354   1.229
56930W        W16191   2.335  22.580  14.436
56931W        W16192   4.937  43.914   0.401
56932W        W16193  23.632  42.901  13.429
56933W        W16194  35.388  16.750  12.840
56934W        W16195  30.995  10.858   5.312
56935W        W16196  34.069  42.302   5.261
56936W        W16197   6.901  34.973  12.061
56937W        W16198   8.241  28.489   3.694
56938W        W16199  26.657  39.546   0.281
56939W        W16200   4.321  12.310  12.459
56940W        W16201  14.139  22.598   3.265
56941W        W16202  42.025   3.382  13.517
56942W        W16203   7.834  34.435   0.840
56943W        W16204  40.999   1.818   0.907
56944W        W16205   7.283  27.485   2.319
56945W        W16206   5.400  11.238   0.360
56946W        W16207  33.984  15.735   4.755
56947W        W16208  16.593  16.755   2.856
56948W        W16209  32.978  38.430   1.776
56949W        W16210   2.426  25.545  11.053
56950W        W16211   0.454  44.977  13.325
56951W        W16212  22.680  21.740   0.817
56952W        W16213   8.791  25.613   1.815
56953W        W16214   8.339  17.576   4.744
56954W        W16215  23.990  44.430   4.769
56955W        W16216  30.998   9.874  14.477
56956W        W16217   9.251   0.355  11.529
56957W        W16218   7.667  35.435   0.367
56958W        W16219  16.185  23.553  13.800
56959W        W16220  30.923  39.938  14.948
56960W        W16221  38.064  28.020  13.340
56961W        W16222  36.078  14.784  13.424
56962W        W16223  23.558  11.151   0.297
56963W        W16224  33.575  11.343  13.835
56964W        W16225  38.420  27.102  13.926
56965W        W16226  22.622   4.785  10.615
56966W        W16227   3.353   2.960   0.358
56967W        W16228   8.284  44.474   4.829
56968W        W16229  37.555  21.043   3.671
56969W        W16230  34.392   9.254   4.696
56970W        W16231  44.839  37.906   3.845
56971W        W16232  16.687  42.309   4.833
56972W        W16233  21.572  11.772  13.832
56973W        W16234  35.517   3.283  10.573
56974W        W16235   0.451  31.471   3.709
56975W        W16236   6.218   7.794  14.482
56976W        W16237   0.254   7.848  12.520
56977W        W16238  35.022  39.432   1.314
56978W        W16239  41.318  21.088   4.820
56979W        W16240  21.124  38.924  13.377
56980W        W16241   8.714  37.939  12.054
56981W        W16242  20.526  20.529   1.839
56982W        W16243   6.340   7.273   3.258
56983W        W16244  34.077  37.545   0.760
56984W        W16245  23.113  33.974   0.303
56985W        W16246  44.825  15.097   0.961
56986W        W16247  27.520  32.573   3.656
56987W        W16248  13.311  15.273   3.631
56988W        W16249  25.045   9.366   3.635
56989W        W16250  27.482  16.657   2.674
56990W        W16251  39.059   7.320   4.640
56991W        W16252  44.451   4.906  13.416
56992W        W16253  21.527  19.741  14.403
56993W        W16254  27.969  28.132  13.897
56994W        W16255  40.915  41.384  14.418
56995W        W16256  38.877   5.802   1.742
56996W        W16257  39.541   2.265  12.487
56997W        W16258  38.470   2.357   2.207
56998W        W16259   0.350  17.140  10.919
56999W        W16260   4.893  39.429  13.345
57000W        W16261  17.090  21.085   4.802
57001W        W16262  31.476  11.231   1.919
57002W        W16263  44.348  12.310   1.339
57003W        W16264   0.901  16.204   2.271
57004W        W16265   8.773   5.916   0.906
57005W        W16266  42.861  10.703  12.864
57006W        W16267  20.087   6.860   2.352
57007W        W16268  20.036  33.130  11.492
57008W        W16269  34.468  15.724  11.041
57009W        W16270  29.070  41.789   1.934
57010W        W16271   4.341  15.696  12.471
57011W        W16272  40.498  38.354  11.872
57012W        W16273  24.644  22.029  11.578
57013W        W16274  44.261   2.242  14.332
57014W        W16275   1.827   5.229   4.700
57015W        W16276  22.504  19.143  10.536
57016W        W16277  17.156  40.486  13.521
57017W        W16278  12.222  22.017  14.310
57018W        W16279  22.532   7.323  14.479
57019W        W16280  38.863  39.828  11.400
57020W        W16281  32.036  26.595   4.206
57021W        W16282   8.274  23.188  13.312
57022W        W16283  19.072  36.927   4.192
57023W        W16284  18.087   9.303  10.407
57024W        W16285  40.494  28.045  14.836
57025W        W16286  17.608   1.870  14.837
57026W        W16287  28.985  40.017   1.387
57027W        W16288  41.533  21.213   1.804
57028W        W16289  27.134  28.975   1.869
57029W        W16290  20.202  41.931   4.796
57030W        W16291   1.456  20.557  12.870
57031W        W16292  12.275  38.491  12.930
57032W        W16293  37.996  23.660   2.380
57033W        W16294  39.549   3.831  13.918
57034W        W16295  19.152  42.299   3.207
57035W        W16296  37.366  15.210  12.380
57036W        W16297   9.277  44.479   2.662
57037W        W16298  20.071   4.269   0.796
57038W        W16299  27.692   3.850   2.275
57039W        W16300  31.597  24.514  12.916
57040W        W16301  41.435  15.691   3.761
57041W        W16302  23.198  30.601  12.915
57042W        W16303   3.345  34.609  13.495
57043W        W16304  20.548   8.885   2.700
57044W        W16305  40.821  30.656  14.891
57045W        W16306   6.814  34.561  11.983
57046W        W16307  42.466  27.519  12.408
57047W        W16308  22.729  32.911   1.419
57048W        W16309  19.702   7.407  11.552
57049W        W16310  12.800  41.490  13.396
57050W        W16311   5.265  39.056  13.009
57051W        W16312  18.120  26.169  11.564
57052W        W16313   0.287  20.767  10.502
57053W        W16314  31.499  31.988  11.389
57054W        W16315  19.721  25.138   2.285
57055W        W16316   1.424   2.773   4.652
57056W        W16317  24.067  30.595   2.790
57057W        W16318  30.995  16.124  10.594
57058W        W16319  10.198  25.984   1.220
57059W        W16320  25.010  33.607   1.297
57060W        W16321  33.056  18.667   2.376
57061W        W16322  18.060  43.368   3.742
57062W        W16323   9.754  30.135  12.452
57063W        W16324  43.956   7.385  10.548
57064W        W16325  20.040  28.446   3.288
57065W        W16326  17.230  22.616  14.844
57066W        W16327  20.540  18.277   2.815
57067W        W16328  29.576  17.665  14.018
57068W        W16329  24.068  39.884   3.338
57069W        W16330  12.784  22.559  12.392
57070W        W16331   1.310   3.356   3.694
57071W        W16332   4.381  10.855   0.403
57072W        W16333  36.403  30.102   0.329
57073W        W16334  28.959  35.374  10.529
57074W        W16335  30.907  15.670   4.833
57075W        W16336  22.723  15.819   2.846
57076W        W16337  34.096  15.203   0.765
57077W        W16338   3.318   4.899  14.311
57078W        W16339  40.544  33.123   3.753
57079W        W16340  35.950  26.987   2.400
57080W        W16341  40.453  14.717  13.841
57081W        W16342  34.119  25.145   0.768
57082W        W16343  13.109  22.516  12.078
57083W        W16344  37.028   6.888  10.491
57084W        W16345  28.596  14.767   2.351
57085W        W16346  42.309  23.176   3.289
57086W        W16347  12.826  10.796  11.388
57087W        W16348  18.287  28.535  14.867
57088W        W16349  32.432  19.762   3.701
57089W        W16350  26.066  30.546  11.399
57090W        W16351  29.522  32.460  12.567
57091W        W16352  34.428  40.803  13.376
57092W        W16353  33.945   5.806   2.899
57093W        W16354  32.989  26.155   3.201
57094W        W16355   9.355  10.836  14.480
57095W        W16356  10.269  37.997   1.796
57096W        W16357  13.761  13.312  14.306
57097W        W16358  35.978  10.300   2.856
57098W        W16359  30.532  12.222   3.230
57099W        W16360  34.414  22.135  11.937
57100W        W16361  35.879   8.385  14.976
57101W        W16362   9.225  17.759   3.375
57102W        W16363  42.525   8.846   4.193
57103W        W16364  20.716  36.919  13.435
57104W        W16365  26.977  37.445   2.710
57105W        W16366  18.141  27.604  11.008
57106W        W16367  18.060   3.716  11.995
57107W        W16368   5.781  28.160   1.440
57108W        W16369  42.326  39.421  12.972
57109W        W16370  28.522  10.232  14.477
57110W        W16371   8.787  16.198   4.316
57111W        W16372  18.662  22.516   4.733
57112W        W16373  41.300  28.103  12.345
57113W        W16374  19.716  20.626   1.410
57114W        W16375   6.221  30.424   2.679
57115W        W16376  11.728  29.130  13.827
57116W        W16377   1.938  38.869   3.779
57117W        W16378  14.260  39.493   0.772
57118W        W16379  13.821  14.670   2.723
57119W        W16380  29.561  22.577  12.076
57120W        W16381   0.400  35.464   2.352
57121W        W16382   7.880  40.313   1.830
57122W        W16383   0.861  35.585   1.351
57123W        W16384   7.667  22.148   3.281
57124W        W16385   7.757  20.112  10.475
57125W        W16386  24.990  20.661  11.069
57126W        W16387   4.269  19.086  10.931
57127W        W16388  44.291  23.044   3.191
57128W        W16389  31.403  10.871   9.528
57129W        W16390  24.579   8.882   0.738
57130W        W16391   6.363   8.660   1.784
57131W        W16392  26.563  39.059  13.875
57132W        W16393  36.903   0.333   3.217
57133W        W16394  32.137   1.357   1.302
57134W        W16395  27.661  24.027   3.242
57135W        W16396  15.683  26.658   3.846
57136W        W16397  27.140  27.688  10.503
57137W        W16398   3.300  44.933   2.800
57138W        W16399   3.382  38.894  14.353
57139W        W16400  39.451  40.830  14.405
57140W        W16401  44.262  23.146  10.417
57141W        W16402  28.133  23.018   0.872
57142W        W16403  39.424  27.056   1.759
57143W        W16404  39.975  13.627   2.247
57144W        W16405  37.031  33.007  14.415
57145W        W16406  36.550   5.402   2.395
57146W        W16407  32.628  35.549   4.607
57147W        W16408  26.978  22.622   4.322
57148W        W16409   6.879   1.291  13.312
57149W        W16410  23.083   8.780   4.128
57150W        W16411  27.126  35.904  10.451
57151W        W16412  26.025  11.253  13.989
57152W        W16413  13.207  18.773   4.688
57153W        W16414  29.989  16.604  12.014
57154W        W16415   7.361  22.553  13.952
57155W        W16416  41.309  35.908   2.735
57156W        W16417  35.946  25.143  10.541
57157W        W16418  25.707   4.262   0.777
57158W        W16419   5.884   4.324   3.646
57159W        W16420  17.305   6.885   1.856
57160W        W16421  34.373  38.009  12.342
57161W        W16422   5.694  27.053  14.302
57162W        W16423  32.401  38.557  13.911
57163W        W16424   3.726  17.708   2.206
57164W        W16425  30.526  41.803  12.846
57165W        W16426   5.741  33.598  11.999
57166W        W16427  24.532  44.444  14.348
57167W        W16428   2.373  27.578  12.363
57168W        W16429  19.167  35.015  11.579
57169W        W16430  23.627  16.608  10.471
57170W        W16431  13.193  24.619   2.887
57171W        W16432  44.295   0.299  13.849
57172W        W16433  29.014  21.066   4.196
57173W        W16434  32.994   7.802   0.785
57174W        W16435  30.098  43.506  12.446
57175W        W16436   2.780  24.560   2.355
57176W        W16437   1.738  30.523   4.738
57177W        W16438  35.500  10.164   1.758
57178W        W16439  10.158  37.383  13.804
57179W        W16440   9.757  11.862  13.512
57180W        W16441  13.644  15.194   3.858
57181W        W16442  24.121  18.276  10.016
57182W        W16443  38.846  22.015   9.999
57183W        W16444  34.374  18.246   3.266
57184W        W16445  41.871  20.522   2.838
57185W        W16446  32.936  41.528   2.350
57186W        W16447  17.729  29.009  11.422
57187W        W16448  16.106  31.998  13.535
57188W        W16449  10.257   6.259   4.731
57189W        W16450  19.657   2.402  13.389
57190W        W16451   4.334  26.111   3.263
57191W        W16452  41.378  20.704   2.270
57192W        W16453  14.743  43.480  13.808
57193W        W16454  15.687  17.308   3.270
57194W        W16455  41.390   9.733  11.386
57195W        W16456  39.334  37.003  14.457
57196W        W16457  23.026  30.108  11.014
57197W        W16458   0.453  39.056   2.235
57198W        W16459  42.296  40.830  11.026
57199W        W16460  13.342  22.523   4.787
57200W        W16461  20.119  15.106   4.316
57201W        W16462  32.478  38.388   3.813
57202W        W16463  12.184  12.696   3.759
57203W        W16464  23.066  17.624   4.338
57204W        W16465   5.257  32.567  14.026
57205W        W16466  25.608  42.391   1.703
57206W        W16467  44.371  19.715   4.792
57207W        W16468  44.833  39.526   4.133
57208W        W16469  33.954  26.113   4.607
57209W        W16470  35.412   7.269  13.373
57210W        W16471  22.673  33.105   1.806
57211W        W16472  10.642   6.251   9.921
57212W        W16473  44.394  44.789   0.962
57213W        W16474  24.996  16.679   3.286
57214W        W16475  28.140  12.832  12.046
57215W        W16476  44.418  10.808   2.211
57216W        W16477   3.303  14.688   4.148
57217W        W16478  32.605   4.718   4.632
57218W        W16479  24.138   0.794  13.011
57219W        W16480  37.039  15.293   3.653
57220W        W16481  36.886  31.113   4.685
57221W        W16482  15.103   1.258   2.885
57222W        W16483   3.887  10.745   2.765
57223W        W16484  15.689  34.056   2.836
57224W        W16485  23.222   0.386   4.789
57225W        W16486  31.923   3.881   2.757
57226W        W16487  37.406  34.573  11.976
57227W        W16488  37.024  15.182   1.799
57228W        W16489  31.434  34.984  10.582
57229W        W16490  44.365  34.570   4.715
57230W        W16491  33.881  37.901   0.399
57231W        W16492  44.384   5.741   0.890
57232W        W16493   1.955  14.324   1.784
57233W        W16494   8.835  10.835   3.279
57234W        W16495  44.398  39.417  12.060
57235W        W16496  17.724  20.613  12.930
57236W        W16497  20.091  37.484   0.395
57237W        W16498  21.186  24.072   1.270
57238W        W16499  22.528  18.265  10.508
57239W        W16500  25.512  37.049   3.831
57240W        W16501  23.628  36.084   0.257
57241W        W16502  39.988  33.498  13.427
57242W        W16503  22.173  37.912  14.498
57243W        W16504  40.529  40.864  14.389
57244W        W16505  29.969  44.830  11.908
57245W        W16506  34.912  23.493   4.171
57246W        W16507  23.124   2.281  12.077
57247W        W16508   2.344  18.269   3.734
57248W        W16509  11.696  38.884  11.548
57249W        W16510   1.413  10.154  11.968
57250W        W16511  15.582   3.855   1.426
57251W        W16512  10.256  13.127   5.688
57252W        W16513  25.123  15.309   0.733
57253W        W16514  36.094  20.226   2.694
57254W        W16515  27.648  10.345   1.324
57255W        W16516   9.696  22.692   1.935
57256W        W16517  31.102  16.651   3.792
57257W        W16518  13.212   5.279   5.190
57258W        W16519  19.142  21.215  14.898
57259W        W16520   1.736  37.988   0.248
57260W        W16521  33.408   7.799  12.996
57261W        W16522  32.492  23.241  11.487
57262W        W16523   1.862  41.372  13.379
57263W        W16524   4.938  15.096  14.346
57264W        W16525  22.604  18.759   3.757
57265W        W16526  42.927  44.998   1.810
57266W        W16527  41.830   3.938  11.062
57267W        W16528  10.690  14.261   0.751
57268W        W16529  40.913  41.869   3.818
57269W        W16530  38.825  11.363  10.976
57270W        W16531  31.896  44.472   0.802
57271W        W16532  19.121  27.992  12.048
57272W        W16533  11.194   7.253   4.268
57273W        W16534   7.878  39.373  14.499
57274W        W16535  24.483   9.308   3.639
57275W        W16536  12.250  39.507  10.917
57276W        W16537  26.086  44.266   4.275
57277W        W16538  37.431  18.101   1.731
57278W        W16539  26.541  30.021  14.354
57279W        W16540  12.784  37.914  11.384
57280W        W16541  34.025  41.311   3.676
57281W        W16542  24.683  38.828  10.430
57282W        W16543  34.504  29.114   4.305
57283W        W16544   9.683  33.090   3.632
57284W        W16545  22.744  13.268   4.343
57285W        W16546  26.489  22.570   2.689
57286W        W16547  31.991   0.765  11.886
57287W        W16548  13.272  30.610   2.386
57288W        W16549  27.564  24.681  13.478
57289W        W16550  35.054  28.093   4.156
57290W        W16551   6.250  25.511   1.844
57291W        W16552   4.720   7.172   3.833
57292W        W16553  29.557  24.722   4.733
57293W        W16554  34.892  22.685   2.789
57294W        W16555   4.934  27.689   0.738
57295W        W16556  28.528  32.399   1.422
57296W        W16557  27.649  35.376   3.713
57297W        W16558  42.401   3.382  13.409
57298W        W16559  30.139  14.757  12.938
57299W        W16560  44.999   9.726   1.766
57300W        W16561  20.148  30.034   2.185
57301W        W16562  38.381  36.981   3.672
57302W        W16563  43.833  21.731   0.349
57303W        W16564   4.881   7.747   1.371
57304W        W16565  19.536  36.557  12.539
57305W        W16566   3.792   9.888   2.773
57306W        W16567  15.176  35.393   2.868
57307W        W16568   7.193  11.804   3.248
57308W        W16569  21.173  27.180   4.276
57309W        W16570  27.562  43.405   2.320
57310W        W16571   4.410  36.061   0.963
57311W        W16572   9.228  32.081   1.876
57312W        W16573  41.524   5.411   2.288
57313W        W16574   5.770  20.576   1.889
57314W        W16575  25.691   6.249  11.451
57315W        W16576  34.027  15.164   1.757
57316W        W16577  16.735  15.267   1.863
57317W        W16578  14.764   1.796   2.854
57318W        W16579  15.091   6.866   5.219
57319W        W16580  29.154  33.452  11.106
57320W        W16581  38.847  32.461  11.512
57321W        W16582  16.625   2.465  11.102
57322W        W16583   1.769  38.062   1.886
57323W        W16584   8.810  14.161   1.372
57324W        W16585  16.786  15.198   3.317
57325W        W16586  11.657  41.002   0.388
57326W        W16587  16.591   8.728   1.854
57327W        W16588  20.054  34.976  13.356
57328W        W16589  16.604  11.139  13.027
57329W        W16590  28.065  37.446   2.354
57330W        W16591   3.924  25.471  14.360
57331W        W16592  15.746  32.070   4.654
57332W        W16593  14.593   3.712  12.086
57333W        W16594  16.252  19.715   5.166
57334W        W16595  36.356  18.090  10.410
57335W        W16596  38.406   1.302   4.181
57336W        W16597   9.375  27.520   0.771
57337W        W16598  15.603  43.981  12.540
57338W        W16599  28.017   3.392   9.943
57339W        W16600  21.232  15.242  12.926
57340W        W16601  36.013  22.530   3.233
57341W        W16602  11.306  42.824  14.916
57342W        W16603  40.027  35.012  13.011
57343W        W16604  19.046  30.102  14.308
57344W        W16605   4.889  11.850  12.491
57345W        W16606  39.527   6.233   3.347
57346W        W16607   1.288  40.418  11.542
57347W        W16608  29.084  39.517  12.934
57348W        W16609  43.498  17.707  12.083
57349W        W16610  11.775  35.920  10.599
57350W        W16611  36.049  40.948  13.377
57351W        W16612  13.646  14.309  11.473
57352W        W16613  34.046  38.863   0.283
57353W        W16614   1.437  21.169  10.446
57354W        W16615  28.185   9.368  14.984
57355W        W16616  33.620  25.512  12.068
57356W        W16617  16.212  20.698   2.808
57357W        W16618  13.250  31.070   1.752
57358W        W16619  33.010   4.276   0.258
57359W        W16620  24.673  29.963   4.258
57360W        W16621  17.682   6.330  14.965
57361W        W16622   1.828  44.444  10.979
57362W        W16623  19.603   8.329  13.421
57363W        W16624  16.231  38.534  13.429
57364W        W16625  28.571  16.200   3.186
57365W        W16626  17.755  29.430  13.464
57366W        W16627   3.756   0.456   2.295
57367W        W16628  37.359  28.459   3.194
57368W        W16629   6.921  20.184   0.888
57369W        W16630  22.578  32.543  12.344
57370W        W16631   1.890  41.946   2.334
57371W        W16632  13.344  24.060  10.599
57372W        W16633  28.031  33.004   3.369
57373W        W16634   7.242  31.488   0.264
57374W        W16635  11.688  31.528  13.916
57375W        W16636  25.512   1.762   1.724
57376W        W16637  33.044  30.164   4.129
57377W        W16638  11.673   0.385   2.360
57378W        W16639  43.415  44.823   3.651
57379W        W16640  10.790  23.124   4.159
57380W        W16641  42.444  25.181  11.016
57381W        W16642  35.073  18.641   2.789
57382W        W16643  12.795   8.870  14.885
57383W        W16644   1.761  14.263  10.468
57384W        W16645  22.130  35.867  11.539
57385W        W16646   3.716  27.636   4.142
57386W        W16647   7.773  44.389   4.311
57387W        W16648  36.011  26.154   0.432
57388W        W16649  40.453  14.710   1.727
57389W        W16650  14.676  13.712   3.726
57390W        W16651   3.895  15.763   3.642
57391W        W16652  10.640  31.596   1.359
57392W        W16653  10.807  40.835   4.211
57393W        W16654  21.223   1.762   1.740
57394W        W16655  44.330  23.663  10.456
57395W        W16656   8.810   6.732   4.766
57396W        W16657  13.773  13.245  13.860
57397W        W16658  43.885  37.080  10.512
57398W        W16659  35.099  43.449  11.981
57399W        W16660  24.684  11.686   0.244
57400W        W16661  42.951  34.374  11.421
57401W        W16662   0.368  18.180  14.334
57402W        W16663  13.121  42.308   1.428
57403W        W16664   4.378  32.012   2.883
57404W        W16665  33.915   8.235  13.894
57405W        W16666   2.389  37.364  11.105
57406W        W16667   9.795  42.307  11.591
57407W        W16668  15.698   8.189   1.773
57408W        W16669  34.980  34.425  12.838
57409W        W16670  26.090  37.902   0.350
57410W        W16671  44.947   2.723  12.443
57411W        W16672  36.415  41.951   1.450
57412W        W16673  44.403  34.374  13.045
57413W        W16674  18.745  22.208   4.690
57414W        W16675  23.715  13.723   3.247
57415W        W16676  36.408  43.850   2.329
57416W        W16677  27.685  11.225   3.237
57417W        W16678  10.140   9.265   1.287
57418W        W16679  44.502  44.783  11.428
57419W        W16680  38.842   7.855   2.762
57420W        W16681  27.470  31.647  11.973
57421W        W16682  20.590  30.574  11.576
57422W        W16683  29.626  27.140   2.790
57423W        W16684   3.852  38.898  12.900
57424W        W16685  41.334  40.823   2.411
57425W        W16686  22.671   0.922  12.034
57426W        W16687  42.511   8.290   3.809
57427W        W16688  38.985   7.397   3.762
57428W        W16689  42.490  41.031   1.712
57429W        W16690   2.466  17.652   2.356
57430W        W16691  16.765  13.609   0.878
57431W        W16692  28.965  41.788  13.044
57432W        W16693  40.816  33.048  11.568
57433W        W16694  44.372   6.414  13.940
57434W        W16695  44.979   4.314  10.599
57435W        W16696  41.305  32.942   4.203
57436W        W16697  24.558  16.166   2.849
57437W        W16698   8.816  32.116   4.126
57438W        W16699  27.019  21.234  13.014
57439W        W16700  35.447  10.199   1.331
57440W        W16701  31.021  12.680  14.871
57441W        W16702  20.731  34.396  13.460
57442W        W16703  11.268  40.419   2.377
57443W        W16704   7.789  10.288   3.192
57444W        W16705  29.946  32.885   0.744
57445W        W16706  32.959  28.051  12.543
57446W        W16707  37.012  31.426  14.899
57447W        W16708  37.409  30.506  13.913
57448W        W16709  18.232  35.398  12.036
57449W        W16710  13.231  37.082   0.402
57450W        W16711  29.573  31.620  12.962
57451W        W16712  31.080   4.785  14.765
57452W        W16713  12.687  31.109  11.859
57453W        W16714  26.037  31.405   2.731
57454W        W16715  29.485  12.626  11.976
57455W        W16716  44.438  15.698  11.876
57456W        W16717  32.078  22.636  12.829
57457W        W16718  14.734  21.512   0.774
57458W        W16719  34.585  26.050  14.400
57459W        W16720  28.600  26.683   2.411
57460W        W16721  29.080  37.454   1.715
57461W        W16722  28.103   9.709   1.925
57462W        W16723  27.967   7.262  11.992
57463W        W16724  24.680   8.281  10.938
57464W        W16725   7.820  11.274   2.727
57465W        W16726   6.337  37.051  10.984
57466W        W16727  13.258  19.720  14.363
57467W        W16728  24.054  27.030  14.835
57468W        W16729   6.775  39.385  14.893
57469W        W16730  35.514  39.983   1.360
57470W        W16731  38.335  17.252   0.465
57471W        W16732  22.046  32.006  13.490
57472W        W16733   2.448  29.641   1.341
57473W        W16734  10.244  40.911   1.767
57474W        W16735   2.420   7.779   1.359
57475W        W16736  39.810   1.456   2.863
57476W        W16737  21.649   0.785  11.101
57477W        W16738  33.432  39.422  10.487
57478W        W16739  13.107   9.199   1.445
57479W        W16740  34.005   7.805   3.187
57480W        W16741  34.570  39.022  10.644
57481W        W16742  31.414  35.398  14.001
57482W        W16743  16.684  41.300  13.474
57483W        W16744  27.186  36.405   2.768
57484W        W16745  41.524  42.877   3.823
57485W        W16746  19.606  27.546   4.828
57486W        W16747   8.251  14.729   3.777
57487W        W16748   7.231  19.556  14.355
57488W        W16749   1.896  33.469  14.964
57489W        W16750  24.004  34.482  12.926
57490W        W16751  28.997  18.249   3.669
57491W        W16752   7.210  26.168  10.940
57492W        W16753  13.267  15.782  14.911
57493W        W16754   4.246  29.654  13.380
57494W        W16755  11.267   5.400   1.870
57495W        W16756  11.176  35.082   3.852
57496W        W16757  35.892  43.781   4.164
57497W        W16758   3.770  22.617   0.809
57498W        W16759   2.902   7.238   1.436
57499W        W16760   2.234   4.350   2.260
57500W        W16761  36.517  24.105  10.942
57501W        W16762  24.100  41.352  12.078
57502W        W16763   2.311   0.810   3.674
57503W        W16764  40.041  33.107  10.925
57504W        W16765  37.919  14.117  12.829
57505W        W16766  32.466  27.147   2.367
57506W        W16767  23.596  21.027   4.796
57507W        W16768  30.513   0.387   1.773
57508W        W16769  27.574  17.563  10.908
57509W        W16770   9.357  36.862  13.468
57510W        W16771   8.744  23.995  13.942
57511W        W16772  38.358  19.137  14.506
57512W        W16773  37.357  37.428  13.402
57513W        W16774  16.755  45.000  14.952
57514W        W16775   8.856  30.421  13.473
57515W        W16776  19.073  34.983  10.462
57516W        W16777  29.604   4.910  11.404
57517W        W16778  26.080  37.947   1.336
57518W        W16779  26.495  38.446  13.979
57519W        W16780  33.884  23.193  14.903
57520W        W16781   2.775   5.800  11.880
57521W        W16782  26.542  32.142  12.958
57522W        W16783  44.266  43.516   1.336
57523W        W16784  13.285  41.808  11.920
57524W        W16785  38.883  14.744  11.428
57525W        W16786  21.149  30.161  14.774
57526W        W16787   4.744  22.613   5.292
57527W        W16788   1.369  28.526   4.760
57528W        W16789  15.815   5.262   0.278
57529W        W16790  38.982  39.531  13.026
57530W        W16791  20.693  37.580  11.119
57531W        W16792  33.960   3.437  12.970
57532W        W16793  23.526  42.867   3.150
57533W        W16794   5.196  23.673   2.330
57534W        W16795  17.084  43.452  13.384
57535W        W16796  24.137   2.877  10.575
57536W        W16797   3.257  31.568   2.799
57537W        W16798  40.341  21.627  12.885
57538W        W16799   6.270  14.728   4.141
57539W        W16800  20.531  20.566   0.859
57540W        W16801  36.944  29.082   3.323
57541W        W16802  27.026   2.876  14.415
57542W        W16803  11.830   3.373   2.680
57543W        W16804  41.937   7.863   2.354
57544W        W16805  27.157  18.291   0.841
57545W        W16806  23.119  25.992   1.417
57546W        W16807  33.999  21.028   1.694
57547W        W16808   2.817  41.941   4.819
57548W        W16809  21.111  10.756  11.914
57549W        W16810  16.647  10.273  14.868
57550W        W16811  17.597  33.053   2.896
57551W        W16812  26.564  15.748  12.994
57552W        W16813  22.162  33.472  11.904
57553W        W16814   3.330   5.887   0.262
57554W        W16815  27.502   6.834   0.777
57555W        W16816  10.716  21.017  13.362
57556W        W16817  15.821  39.849   3.730
57557W        W16818  38.853  38.470  13.790
57558W        W16819  29.987  30.458  14.965
57559W        W16820  40.481   2.270   3.807
57560W        W16821  16.636  17.259  13.442
57561W        W16822   2.268  14.733  12.455
57562W        W16823  44.926   5.321  13.420
57563W        W16824  32.944  33.911  14.290
57564W        W16825   5.202  43.410   4.627
57565W        W16826  27.598  34.432   5.217
57566W        W16827  35.565  39.509  13.805
57567W        W16828  10.650   3.298  11.558
57568W        W16829  36.025  20.088  10.914
57569W        W16830   1.948   5.370   3.220
57570W        W16831  42.438  23.543  11.980
57571W        W16832  41.855  32.011  12.945
57572W        W16833   4.835  23.723   0.965
57573W        W16834  10.333  43.854  11.101
57574W        W16835  44.476  24.211   1.310
57575W        W16836  37.522  12.157  10.644
57576W        W16837  31.542  11.355   2.354
57577W        W16838  10.854  19.554  13.421
57578W        W16839  22.063  37.345  12.916
57579W        W16840   1.762  26.461   5.111
57580W        W16841  25.032  30.593  11.888
57581W        W16842  21.616  35.107  10.970
57582W        W16843  16.719  29.562   3.776
57583W        W16844  25.605  27.583   4.232
57584W        W16845  24.134  18.662   4.732
57585W        W16846   5.912  29.053  14.985
57586W        W16847  20.595  43.843  14.809
57587W        W16848  18.181   6.388   1.271
57588W        W16849  39.051   5.404   4.612
57589W        W16850   8.309  16.614   3.242
57590W        W16851  24.629  22.734  11.994
57591W        W16852  26.621   7.707  11.604
57592W        W16853  23.159   2.930   0.963
57593W        W16854  32.127  15.629   3.783
57594W        W16855  37.836  14.208  10.943
57595W        W16856  16.626  38.419   0.846
57596W        W16857  25.599  23.712  10.940
57597W        W16858  35.947  25.696   2.333
57598W        W16859  33.992  44.450  11.910
57599W        W16860   4.711  38.873  10.618
57600W        W16861   8.390  38.900  11.512
57601W        W16862  21.656  27.957   3.268
57602W        W16863  20.136  11.659  11.050
57603W        W16864   7.288   7.263  12.884
57604W        W16865  10.208  35.527  14.780
57605W        W16866  29.449  14.592   2.748
57606W        W16867  39.906  17.744   4.715
57607W        W16868  37.539  31.532  12.910
57608W        W16869  25.524   2.885  12.975
57609W        W16870  39.464   5.325  13.480
57610W        W16871  25.070  27.524  14.376
57611W        W16872  17.751  31.543  11.580
57612W        W16873  31.907  40.034  12.962
57613W        W16874  41.932   6.339   2.853
57614W        W16875  32.446   1.451  13.879
57615W        W16876   6.816   2.809  10.934
57616W        W16877  12.292  36.449   4.738
57617W        W16878  22.724  17.269   0.311
57618W        W16879  28.182  43.805  14.289
57619W        W16880  18.106  25.049   2.180
57620W        W16881  22.193  41.017  14.009
57621W        W16882   3.324  27.622   3.186
57622W        W16883  22.676  33.518  12.083
57623W        W16884  22.144   7.413  13.930
57624W        W16885  26.043  38.994   0.871
57625W        W16886   6.346  31.984  14.449
57626W        W16887  25.675   8.271   0.417
57627W        W16888   1.830  10.198   3.743
57628W        W16889  11.259  28.642  14.794
57629W        W16890  11.267  22.538   4.116
57630W        W16891  39.823  19.044   1.775
57631W        W16892  36.576  31.995   1.434
57632W        W16893  13.137   9.840   1.745
57633W        W16894  36.592   0.463  11.446
57634W        W16895  25.034  18.690   4.746
57635W        W16896  23.553  40.040   2.186
57636W        W16897  44.267   1.338   1.258
57637W        W16898   7.768   5.765  10.070
57638W        W16899  34.589  21.634  12.497
57639W        W16900  30.062   9.720  13.033
57640W        W16901  25.147  39.549  11.976
57641W        W16902  20.199  10.850   4.678
57642W        W16903  27.999  17.131  11.442
57643W        W16904   1.798   7.229   1.410
57644W        W16905   8.752  32.523  11.087
57645W        W16906   7.766   7.188   4.166
57646W        W16907  11.204   0.895   1.406
57647W        W16908  34.544  37.547  13.335
57648W        W16909  43.872  28.437  11.471
57649W        W16910  22.168  22.520  14.829
57650W        W16911  14.671  13.309  13.046
57651W        W16912  30.148  11.737   0.817
57652W        W16913   4.751  11.258  11.378
57653W        W16914  28.156  19.126  11.042
57654W        W16915  10.238  14.121   2.384
57655W        W16916  42.971  35.855   1.284
57656W        W16917  40.043  13.622   0.327
57657W        W16918  17.670   0.904   0.801
57658W        W16919  27.021   2.959   4.225
57659W        W16920   6.270   1.809   4.724
57660W        W16921  31.995  14.831   0.358
57661W        W16922  26.009  28.668  11.611
57662W        W16923  28.674  39.437  12.561
57663W        W16924  42.913  44.912  11.048
57664W        W16925  20.629   3.794  14.916
57665W        W16926  20.708   6.232  11.420
57666W        W16927  17.301  14.315   1.799
57667W        W16928  20.092  24.999  11.446
57668W        W16929  27.687  28.088  12.408
57669W        W16930  39.446   4.444  10.966
57670W        W16931  33.058  18.676  11.102
57671W        W16932  39.825  31.514  13.958
57672W        W16933  42.355  40.376  12.040
57673W        W16934  20.204  35.575   3.185
57674W        W16935  21.023   5.793   2.763
57675W        W16936  24.697  27.966   1.766
57676W        W16937  15.764   9.228  12.436
57677W        W16938  12.719   1.795  10.553
57678W        W16939   0.896  38.871   3.859
57679W        W16940  13.340  39.383   4.688
57680W        W16941   6.296   2.284   2.834
57681W        W16942  20.150  38.894  10.489
57682W        W16943  44.984  12.153   4.767
57683W        W16944  19.229  29.566  11.111
57684W        W16945  12.797   0.385   0.788
57685W        W16946  30.984  17.568   2.797
57686W        W16947  14.233   7.844  12.043
57687W        W16948  44.892  18.769   1.333
57688W        W16949  10.145  21.099  12.933
57689W        W16950   4.773  17.648  12.075
57690W        W16951  42.854  37.528   3.161
57691W        W16952  26.458  20.690  14.298
57692W        W16953  13.178  15.189  13.407
57693W        W16954   2.331  44.826  11.903
57694W        W16955  33.608  32.038  11.373
57695W        W16956  15.123  12.745   4.346
57696W        W16957  17.678  39.488  11.009
57697W        W16958  35.587  17.736   3.736
57698W        W16959   5.825   0.900   3.175
57699W        W16960  28.973  14.335  14.999
57700W        W16961  39.871   8.207  12.956
57701W        W16962  40.491  20.045  10.951
57702W        W16963  40.309  37.836  11.595
57703W        W16964  36.565  11.282   4.804
57704W        W16965  21.067  29.012   1.852
57705W        W16966  33.451   4.734  14.307
57706W        W16967  11.143  19.131  14.838
57707W        W16968  10.368  16.634  11.896
57708W        W16969  10.141  44.495   4.248
57709W        W16970   5.920  29.596  13.870
57710W        W16971  28.176   1.742  10.943
57711W        W16972  13.671  20.585  11.062
57712W        W16973  19.235  21.715  13.321
57713W        W16974  22.233  43.316  11.394
57714W        W16975   2.378  19.543   0.355
57715W        W16976  42.991  41.976   0.865
57716W        W16977  11.680  28.091  13.923
57717W        W16978  15.670  26.133   4.829
57718W        W16979  14.646  16.123  13.970
57719W        W16980  31.441  14.218   3.349
57720W        W16981  24.051  38.513  13.532
57721W        W16982  12.752   8.228   4.753
57722W        W16983  12.736  23.598   2.413
57723W        W16984  36.989  28.975  11.612
57724W        W16985  30.584  41.035   4.799
57725W        W16986   8.201  39.325  14.836
57726W        W16987  15.293  17.689   2.231
57727W        W16988   7.260  15.580   4.124
57728W        W16989  39.896  38.980  14.903
57729W        W16990   8.209  22.698   3.759
57730W        W16991   1.444  13.337   1.745
57731W        W16992  21.264   7.300   1.216
57732W        W16993  41.446  11.811   1.313
57733W        W16994  36.379  19.605   3.311
57734W        W16995   7.318   3.359  11.971
57735W        W16996   2.760  44.313   0.923
57736W        W16997  24.224  23.641   5.648
57737W        W16998  33.579  27.559   1.762
57738W        W16999  13.341  17.724  13.322
57739W        W17000  12.246  40.971  13.867
57740W        W17001   7.316  33.958  13.962
57741W        W17002   5.274  10.287  12.015
57742W        W17003  44.767   8.783   4.287
57743W        W17004  18.622   1.384   0.376
57744W        W17005  40.387  26.587  14.413
57745W        W17006  21.560  14.340   1.397
57746W        W17007   5.705  12.124   2.211
57747W        W17008   1.780  34.043   3.717
57748W        W17009  42.016   9.749  12.856
57749W        W17010  33.384  14.164  13.480
57750W        W17011   1.294   7.848   3.733
57751W        W17012   0.356  35.940   0.473
57752W        W17013  32.567  33.483   1.354
57753W        W17014  21.544  19.072  10.618
57754W        W17015   5.335   3.284  13.416
57755W        W17016  33.604  31.131   0.819
57756W        W17017  18.213  17.121  12.000
57757W        W17018  15.117  34.953  12.342
57758W        W17019  20.723  19.267  14.410
57759W        W17020  22.579  42.993  13.881
57760W        W17021  42.999  34.101   1.273
57761W        W17022  13.838  44.904  13.006
57762W        W17023  34.999  44.272  12.946
57763W        W17024  37.570   8.289  14.430
57764W        W17025   1.262  18.054   1.806
57765W        W17026   0.263   9.158   3.304
57766W        W17027   0.771   4.213   3.863
57767W        W17028  29.085  41.348   2.189
57768W        W17029  34.520  11.207   0.315
57769W        W17030  16.575  44.385  12.857
57770W        W17031  19.694  25.996   2.682
57771W        W17032  42.526   3.261  13.025
57772W        W17033  26.637  24.156   1.242
57773W        W17034  10.376  15.723   2.778
57774W        W17035  27.026  18.086  10.642
57775W        W17036  32.446  16.721  12.019
57776W        W17037  42.956  15.126  14.988
57777W        W17038   2.910  24.514  13.856
57778W        W17039  41.933   9.226  14.947
57779W        W17040  35.539  14.737   4.827
57780W        W17041  27.633  35.440   2.224
57781W        W17042   1.479  24.506  12.398
57782W        W17043   1.957  12.786  11.122
57783W        W17044  42.416  10.728   2.856
57784W        W17045  22.639   9.225   4.810
57785W        W17046  37.382   8.809  14.274
57786W        W17047  34.904   5.905   2.264
57787W        W17048  20.649  13.115   2.284
57788W        W17049   6.395   1.452   0.327
57789W        W17050  39.536  36.038   2.693
57790W        W17051  35.399   0.400   3.352
57791W        W17052  37.552   5.894   0.468
57792W        W17053  43.999  24.099  12.510
57793W        W17054  15.667  42.775  14.031
57794W        W17055   6.363  22.035  13.339
57795W        W17056  20.055   8.666   0.288
57796W        W17057  18.157  10.340   3.361
57797W        W17058  12.173  11.797  12.832
57798W        W17059  18.695  13.778   3.683
57799W        W17060   4.326  33.886  12.090
57800W        W17061  39.996   6.744  13.856
57801W        W17062  39.044  41.029   3.852
57802W        W17063   0.761  30.147   2.685
57803W        W17064   7.898   0.443   2.842
57804W        W17065  35.009  35.946  13.879
57805W        W17066  22.675  20.262  11.536
57806W        W17067  28.039  22.158  10.908
57807W        W17068  21.653  30.128  12.530
57808W        W17069  14.644  28.605   2.819
57809W        W17070  44.763  35.865   3.208
57810W        W17071  18.257   7.866   3.306
57811W        W17072  36.020  37.047  11.513
57812W        W17073  30.620  12.354  13.964
57813W        W17074  26.457  20.669  10.575
57814W        W17075   6.340  36.922   1.834
57815W        W17076  14.784  11.293   2.251
57816W        W17077  43.936  21.023  11.879
57817W        W17078  20.749  21.232   0.757
57818W        W17079  39.850   9.697  12.390
57819W        W17080  22.060  37.373   1.389
57820W        W17081  43.979  36.911   1.737
57821W        W17082  42.517  38.476   1.222
57822W        W17083  28.947  36.849  11.997
57823W        W17084  34.923   6.785   4.808
57824W        W17085  38.928  35.017  14.323
57825W        W17086   9.176  31.979  13.939
57826W        W17087  15.617  36.435   1.900
57827W        W17088  14.173  25.063  13.458
57828W        W17089  40.865  33.445  11.425
57829W        W17090  36.448  21.180  12.486
57830W        W17091  28.594  31.499   4.614
57831W        W17092   5.806  37.448   3.636
57832W        W17093  39.823  34.440  13.854
57833W        W17094  10.331  26.010   3.668
57834W        W17095   7.815   8.294  14.976
57835W        W17096   6.842  12.362  13.946
57836W        W17097  27.490   0.838   0.369
57837W        W17098   7.225  11.200  12.840
57838W        W17099  40.925   0.385   1.303
57839W        W17100  43.408  31.919  14.760
57840W        W17101  25.569  29.472  13.492
57841W        W17102  41.009  11.169  11.393
57842W        W17103  18.177   0.981   3.736
57843W        W17104  25.706  39.510  13.951
57844W        W17105  44.890   3.913  10.581
57845W        W17106  42.951  31.984   2.251
57846W        W17107  34.505  42.424  10.135
57847W        W17108  16.121  42.832   2.666
57848W        W17109   1.829  19.605   2.886
57849W        W17110  33.550  40.984   1.828
57850W        W17111  31.092  17.574   3.266
57851W        W17112  31.616  37.519   2.897
57852W        W17113  35.497   7.876  11.458
57853W        W17114   8.273  29.121  14.932
57854W        W17115  19.757  19.046  12.067
57855W        W17116  30.593  29.130   2.336
57856W        W17117  17.159  44.000  10.520
57857W        W17118  10.382  22.700   2.876
57858W        W17119  20.636  34.969   2.406
57859W        W17120  11.157   9.742   0.356
57860W        W17121  32.600  24.631   1.330
57861W        W17122  39.899  10.243  14.302
57862W        W17123  24.646  25.079  14.457
57863W        W17124  14.209  21.614  11.541
57864W        W17125  14.767  29.015   1.889
57865W        W17126  42.011  40.441   1.733
57866W        W17127  25.489  27.544  12.936
57867W        W17128  14.809  14.169  10.537
57868W        W17129  22.249  42.350   3.384
57869W        W17130   4.401  10.352   3.662
57870W        W17131  31.528  37.989   1.778
57871W        W17132  35.445  39.392  14.866
57872W        W17133  34.470   7.381  10.555
57873W        W17134  33.597  32.958  11.081
57874W        W17135  14.134  38.356   3.177
57875W        W17136  28.006   0.755   3.157
57876W        W17137  29.082   5.885  11.534
57877W        W17138  11.343   6.870  11.470
57878W        W17139  15.743   4.355  10.592
57879W        W17140  26.028  44.884   0.311
57880W        W17141  33.888  24.180  14.390
57881W        W17142   4.412  21.182   0.268
57882W        W17143   0.329  35.980   3.169
57883W        W17144  41.492  11.852  12.346
57884W        W17145  43.779  43.421  12.459
57885W        W17146  28.617  20.581  12.073
57886W        W17147  44.309  20.193   5.260
57887W        W17148  13.175   3.296  10.986
57888W        W17149  42.315  18.169   4.226
57889W        W17150   7.905  37.950  10.645
57890W        W17151  25.520   7.282  11.408
57891W        W17152  42.500  27.482   1.274
57892W        W17153  25.536  31.956   0.773
57893W        W17154  28.102   9.659  10.557
57894W        W17155  31.116   4.743  10.525
57895W        W17156   7.848   0.290  12.514
57896W        W17157  36.479  33.991  13.004
57897W        W17158   8.333   5.891   5.263
57898W        W17159  25.578  40.045  11.489
57899W        W17160  18.209  20.065   1.441
57900W        W17161  36.046  35.557   0.735
57901W        W17162  43.815  10.670   1.887
57902W        W17163  38.421  27.611  14.848
57903W        W17164  15.698  27.970   1.309
57904W        W17165  44.969  42.978  14.847
57905W        W17166  41.308  39.519   3.372
57906W        W17167  11.768  23.688  14.948
57907W        W17168  42.955  21.230   2.875
57908W        W17169  29.123  38.053  12.923
57909W        W17170  33.431  26.956   0.432
57910W        W17171   3.344  27.087  11.121
57911W        W17172  18.703  43.330   2.321
57912W        W17173  39.999  19.125  13.457
57913W        W17174  14.303  36.574   4.625
57914W        W17175  11.237  28.549  13.384
57915W        W17176  34.900   6.836  10.966
57916W        W17177   6.276  19.654  14.012
57917W        W17178  11.138  26.700   0.332
57918W        W17179   6.774  16.785  14.812
57919W        W17180  38.344   1.291   0.416
57920W        W17181  34.413  29.040   0.827
57921W        W17182  14.173  18.142  10.936
57922W        W17183   3.222   9.334   1.846
57923W        W17184   4.877  41.995   2.350
57924W        W17185  26.054  40.367  13.412
57925W        W17186  17.209  20.535  14.795
57926W        W17187  20.556   0.332  12.011
57927W        W17188   3.350  10.210  11.894
57928W        W17189  40.960  18.148   2.334
57929W        W17190   0.823  25.188  14.491
57930W        W17191  27.005  37.875  10.497
57931W        W17192   2.226   6.184   4.613
57932W        W17193  26.987  31.403   0.275
57933W        W17194  21.234  24.565   2.297
57934W        W17195  33.433  44.805  10.135
57935W        W17196   3.738   3.899   1.888
57936W        W17197  11.139  41.847   1.712
57937W        W17198  21.544   4.252  11.386
57938W        W17199  27.969  29.029  11.012
57939W        W17200  27.970  27.990   4.688
57940W        W17201  39.458   8.327   2.725
57941W        W17202   0.450   1.810   3.686
57942W        W17203  19.256  20.260   3.247
57943W        W17204   1.957  26.466  14.913
57944W        W17205   4.315  26.084  14.423
57945W        W17206  25.587  32.476  11.003
57946W        W17207   4.254  31.549  12.478
57947W        W17208  34.418  33.512  14.816
57948W        W17209  17.666  40.985  12.403
57949W        W17210  24.720  19.264   3.223
57950W        W17211  32.411  24.117   4.722
57951W        W17212   4.263  32.073   2.212
57952W        W17213  22.546  42.967  10.940
57953W        W17214   2.335   3.274   3.726
57954W        W17215   6.732  22.191  10.431
57955W        W17216  44.409  27.448   0.347
57956W        W17217  38.440  23.528  14.329
57957W        W17218  37.847  16.587   4.599
57958W        W17219  28.999  44.372  12.052
57959W        W17220  25.468  18.121   0.455
57960W        W17221  39.395  22.675   4.680
57961W        W17222  34.015  18.762   3.695
57962W        W17223  43.325  30.947   4.685
57963W        W17224  43.914  12.228  11.885
57964W        W17225  36.033  24.019   2.823
57965W        W17226  32.605  29.518  12.898
57966W        W17227  19.572  18.280  11.387
57967W        W17228   2.889   2.862  14.851
57968W        W17229  32.031  13.786   4.726
57969W        W17230   5.392  42.949  13.384
57970W        W17231  10.183  15.144  11.918
57971W        W17232  26.580  20.196  12.512
57972W        W17233  35.994   6.267  14.318
57973W        W17234  29.640   8.404   0.804
57974W        W17235   2.302  24.690   2.292
57975W        W17236  12.803   0.373  14.984
57976W        W17237  19.684  29.055  12.993
57977W        W17238   3.909  12.153   2.814
57978W        W17239  13.768   7.869  11.912
57979W        W17240   4.381  32.469  12.025
57980W        W17241  44.410  40.812   0.832
57981W        W17242  42.858  40.352  10.541
57982W        W17243  36.499  38.956  13.946
57983W        W17244   2.262  30.533   0.270
57984W        W17245  37.384   4.409   3.748
57985W        W17246  22.747  25.137  13.539
57986W        W17247   8.774  30.001   3.216
57987W        W17248   5.697   6.238   0.323
57988W        W17249  44.989  34.562   0.935
57989W        W17250  36.424   2.754  10.889
57990W        W17251   9.295  12.823   3.299
57991W        W17252  31.005  42.521   2.877
57992W        W17253  25.649  26.052  10.424
57993W        W17254   2.750  33.451   1.854
57994W        W17255  31.599  13.161  12.503
57995W        W17256  28.063  25.128  13.029
57996W        W17257   8.811  34.051  10.502
57997W        W17258  22.055  30.550  11.125
57998W        W17259  34.994  32.401   4.155
57999W        W17260  12.182  40.491   3.804
58000W        W17261  17.260  15.687  11.049
58001W        W17262  17.170  26.190   2.397
58002W        W17263  21.564  36.064   1.323
58003W        W17264   8.876  24.521   0.271
58004W        W17265  22.225  16.261   4.723
58005W        W17266  30.915  42.318   0.369
58006W        W17267  11.771  37.961  10.593
58007W        W17268   6.399   5.846   0.379
58008W        W17269  26.683  44.307  12.567
58009W        W17270  10.722  36.938  14.801
58010W        W17271  19.203   5.283  11.498
58011W        W17272   6.411   7.331   4.686
58012W        W17273   1.339  23.171   1.395
58013W        W17274  22.093  36.088   3.271
58014W        W17275   4.220  21.617   3.817
58015W        W17276  27.450  31.139  14.322
58016W        W17277   8.719  10.730   9.600
58017W        W17278  26.147  11.347   1.443
58018W        W17279   1.823  26.122   4.831
58019W        W17280   2.341  12.809  14.459
58020W        W17281   7.263   6.838   1.288
58021W        W17282  37.434  21.116  13.489
58022W        W17283  24.630  40.030   3.852
58023W        W17284  12.293  10.646  13.921
58024W        W17285   3.925  11.646   2.239
58025W        W17286  27.101  35.396   1.906
58026W        W17287  40.340   8.394  12.074
58027W        W17288  13.177  11.672   3.768
58028W        W17289  28.665  34.559  10.119
58029W        W17290   7.351  39.063   3.708
58030W        W17291  36.569   7.878   2.346
58031W        W17292  41.831   0.848   4.179
58032W        W17293  39.933  40.885  10.575
58033W        W17294  30.114  27.689  14.828
58034W        W17295   6.893  39.931   3.694
58035W        W17296   2.390   4.419  12.000
58036W        W17297   5.396  35.494   1.912
58037W        W17298  43.778  41.412   4.618
58038W        W17299  38.417  13.224   3.231
58039W        W17300  22.146  35.876   3.868
58040W        W17301   9.208  12.709   2.842
58041W        W17302  27.955   6.351   3.355
58042W        W17303  29.047   5.407  10.979
58043W        W17304  12.628  38.917   0.843
58044W        W17305  40.514   3.849   1.759
58045W        W17306  10.170  15.134  11.475
58046W        W17307  29.633  12.826  12.567
58047W        W17308  19.635  33.486  10.614
58048W        W17309  25.160  39.049  14.874
58049W        W17310  41.948  37.521  10.950
58050W        W17311  13.268   7.708   4.334
58051W        W17312  36.481   3.816   2.194
58052W        W17313  20.626  15.263  12.480
58053W        W17314   8.226  36.546   2.385
58054W        W17315   9.696  15.087  12.521
58055W        W17316  31.945  43.950  13.378
58056W        W17317  23.147  42.404   1.716
58057W        W17318   0.829  38.959  14.489
58058W        W17319   2.422   5.932   4.673
58059W        W17320   4.399  34.594  14.809
58060W        W17321  26.007  18.596   4.714
58061W        W17322   2.870  23.033   2.837
58062W        W17323   7.685  27.983   1.348
58063W        W17324  35.879  39.032  10.494
58064W        W17325  36.479  33.105   1.328
58065W        W17326  41.033  42.367   0.907
58066W        W17327  10.173  15.605  14.328
58067W        W17328  27.137  12.850   0.475
58068W        W17329  26.558   9.760   1.849
58069W        W17330  32.394  19.603  14.904
58070W        W17331  19.168  14.181  11.963
58071W        W17332  44.374  17.683   1.741
58072W        W17333  25.630   2.336  12.017
58073W        W17334  30.013   9.328  10.551
58074W        W17335  18.239   3.230   3.733
58075W        W17336  33.098  38.472  14.391
58076W        W17337   9.290   5.767   0.404
58077W        W17338  24.655  28.082  11.042
58078W        W17339  12.338  39.881  12.504
58079W        W17340  15.788  41.375  11.942
58080W        W17341   5.770  39.838   4.157
58081W        W17342  32.943  40.400  10.066
58082W        W17343  28.027  20.638   0.887
58083W        W17344  44.452  11.665  12.915
58084W        W17345  41.985  34.604  12.037
58085W        W17346   0.903  41.428  14.804
58086W        W17347   7.896  40.882   4.662
58087W        W17348   1.830  20.122  14.371
58088W        W17349  36.379  32.936   4.625
58089W        W17350  30.109  17.684  10.928
58090W        W17351  29.984   3.391   1.831
58091W        W17352  12.121  40.427  13.525
58092W        W17353  22.740  37.366   1.925
58093W        W17354   7.823   5.736  13.042
58094W        W17355   7.831   5.396  11.062
58095W        W17356  13.337  10.845   1.796
58096W        W17357  43.385  42.914   5.295
58097W        W17358  10.254  27.126  13.827
58098W        W17359  33.084  25.646   0.895
58099W        W17360   1.942  14.613   4.668
58100W        W17361   2.828  20.251  13.357
58101W        W17362  20.213   8.847  13.042
58102W        W17363  12.632  44.994   3.261
58103W        W17364  43.783  19.145  12.022
58104W        W17365  38.440   2.343  11.081
58105W        W17366   5.905  29.426  13.546
58106W        W17367   9.345  39.906   1.698
58107W        W17368  18.586   8.682   1.436
58108W        W17369  17.762  21.192   2.212
58109W        W17370  20.675  22.727   4.190
58110W        W17371   3.897  20.086  13.908
58111W        W17372   2.839  33.924  12.361
58112W        W17373  27.471   1.759  10.928
58113W        W17374   1.830  40.900  13.909
58114W        W17375  35.905  24.064  13.496
58115W        W17376   0.350  18.212   1.216
58116W        W17377   3.251  24.013  13.969
58117W        W17378  16.707  41.023   1.245
58118W        W17379  28.018  30.535  13.842
58119W        W17380  32.442  21.543  10.522
58120W        W17381   9.278  43.855  11.526
58121W        W17382   3.760  44.367  10.604
58122W        W17383   4.749   6.352   1.338
58123W        W17384   2.381  11.652  11.925
58124W        W17385   2.239  21.156  14.956
58125W        W17386  17.735   5.322  14.432
58126W        W17387  26.649  42.802  13.455
58127W        W17388   0.753  24.149   5.214
58128W        W17389  42.326   1.412  12.834
58129W        W17390   2.432  15.731   5.318
58130W        W17391  23.083  26.974   2.288
58131W        W17392  37.962   6.878   3.340
58132W        W17393   8.884  12.749   9.997
58133W        W17394  16.115  29.957  12.931
58134W        W17395   3.822  44.355   3.739
58135W        W17396  31.025   2.794  13.031
58136W        W17397  15.629  41.391   1.293
58137W        W17398  40.438  41.932   2.185
58138W        W17399  25.484  34.921   4.294
58139W        W17400  16.131  17.158  14.832
58140W        W17401  31.053  43.338   1.428
58141W        W17402  41.847  11.258  10.133
58142W        W17403  20.253  44.438  13.004
58143W        W17404  28.608  25.476   4.150
58144W        W17405  37.990  36.065   2.306
58145W        W17406  10.274  14.260  13.977
58146W        W17407  32.077  29.925  11.525
58147W        W17408  40.799  26.967   3.149
58148W        W17409  44.965  29.028  14.339
58149W        W17410   1.337  15.681  13.043
58150W        W17411  35.929   9.811  12.882
58151W        W17412  40.832   6.418  13.351
58152W        W17413  21.727  11.845   2.893
58153W        W17414  13.122  31.600  12.065
58154W        W17415  14.152  32.136   4.163
58155W        W17416   5.386  40.001   0.727
58156W        W17417  37.025  22.650  10.441
58157W        W17418  22.016  13.147  13.963
58158W        W17419  20.245  30.484   1.710
58159W        W17420  43.337  29.654  14.278
58160W        W17421  23.559  12.332   1.409
58161W        W17422  13.804  41.946   1.928
58162W        W17423   9.890  17.138  13.467
58163W        W17424  30.641   3.888  12.472
58164W        W17425  20.228  38.352  13.524
58165W        W17426  42.895  12.237   1.820
58166W        W17427  18.611  22.097  11.538
58167W        W17428  11.829   4.893  10.458
58168W        W17429   8.680  38.932  11.520
58169W        W17430   0.352  34.524   2.351
58170W        W17431  19.184   5.851  11.598
58171W        W17432  34.454  44.817   2.707
58172W        W17433  28.514  29.580  14.908
58173W        W17434   9.184  31.065  12.544
58174W        W17435  38.917   1.776   3.339
58175W        W17436  24.072  38.563   0.447
58176W        W17437   5.244  23.200   2.317
58177W        W17438  35.047   7.198  14.850
58178W        W17439  44.347  35.858   3.250
58179W        W17440   3.318  33.410   0.333
58180W        W17441  16.672  34.588  12.385
58181W        W17442  29.074   1.438   3.174
58182W        W17443  28.658  28.632   3.261
58183W        W17444  43.344   6.853  11.021
58184W        W17445   6.425  18.205   1.307
58185W        W17446  18.578  40.861   2.774
58186W        W17447  34.114  20.182   0.855
58187W        W17448  23.202  23.659  14.382
58188W        W17449  39.022  11.302  14.807
58189W        W17450  29.605  19.696   2.242
58190W        W17451  11.210  24.148  14.434
58191W        W17452  12.818  43.292   1.442
58192W        W17453  28.659   8.830  12.559
58193W        W17454  11.234  43.855  13.792
58194W        W17455  17.108   1.294  13.505
58195W        W17456  23.237  17.082  12.348
58196W        W17457  35.108  40.047   3.247
58197W        W17458   8.733  18.749  10.541
58198W        W17459  26.669  41.855  14.349
58199W        W17460  16.595  24.687  13.948
58200W        W17461   0.940  24.483   1.917
58201W        W17462  10.287  17.629  13.808
58202W        W17463  20.041  20.097  12.040
58203W        W17464  17.703  24.985   1.389
58204W        W17465   9.779  27.511  10.926
58205W        W17466  13.325   6.863   1.766
58206W        W17467   1.808   3.875  12.890
58207W        W17468   9.730  41.858   4.620
58208W        W17469  41.953   3.860   4.165
58209W        W17470  37.475  16.121  10.923
58210W        W17471  12.282  34.898  13.547
58211W        W17472   1.354  30.929  11.439
58212W        W17473  25.982  27.050  11.049
58213W        W17474  22.715   1.278   3.269
58214W        W17475  19.211   7.769  13.820
58215W        W17476  20.262  37.426   4.272
58216W        W17477   9.809  37.968  14.939
58217W        W17478  42.019   2.250   4.768
58218W        W17479  36.468  28.508   4.653
58219W        W17480  38.846  22.173  13.326
58220W        W17481  41.849   3.280  12.953
58221W        W17482  28.958  24.724  12.439
58222W        W17483   9.677  36.520   1.884
58223W        W17484  12.232  32.595   2.264
58224W        W17485  38.503  40.534   1.798
58225W        W17486  26.144  26.194   9.957
58226W        W17487   8.398  17.168  10.935
58227W        W17488   1.300  27.139  14.027
58228W        W17489  28.185   4.830   2.262
58229W        W17490  12.295  14.685  10.537
58230W        W17491   8.379  20.138  11.471
58231W        W17492  33.460  29.029   4.782
58232W        W17493  15.678  15.284   3.238
58233W        W17494  30.093   9.790   0.732
58234W        W17495  39.999  44.482   3.676
58235W        W17496  42.015  34.915   3.349
58236W        W17497  17.731  18.772  11.551
58237W        W17498  35.075  15.313  10.025
58238W        W17499  28.099  42.008  11.450
58239W        W17500   9.748  20.609  12.909
58240W        W17501  42.322  37.062   9.632
58241W        W17502   9.311  30.543   3.374
58242W        W17503  21.735   3.360   1.271
58243W        W17504  33.941  19.254   0.806
58244W        W17505  31.574  21.722   0.377
58245W        W17506   0.334  18.712  11.396
58246W        W17507   2.281  18.072  12.978
58247W        W17508  26.679  27.692  13.453
58248W        W17509  21.255  30.455  13.423
58249W        W17510  18.775  17.616   1.412
58250W        W17511  21.095  27.547   0.366
58251W        W17512   2.721  20.738   3.697
58252W        W17513  39.525  37.893   0.331
58253W        W17514  14.709  18.093  12.042
58254W        W17515   0.766   1.910   0.329
58255W        W17516  27.683  13.154  12.341
58256W        W17517   0.858  25.576  14.468
58257W        W17518  18.104  10.277   0.895
58258W        W17519  30.621   9.192   0.951
58259W        W17520  13.207  44.916  13.522
58260W        W17521   3.741   1.454  10.608
58261W        W17522  14.720  41.508   2.229
58262W        W17523   7.910   7.712   5.229
58263W        W17524  19.627  26.005  12.946
58264W        W17525  42.502  16.158  12.996
58265W        W17526  31.081  21.239   3.694
58266W        W17527  34.017  24.485   2.803
58267W        W17528  28.503  26.978  13.855
58268W        W17529  31.935  35.412  14.791
58269W        W17530  13.609  26.182   0.360
58270W        W17531  20.219   2.268  10.616
58271W        W17532  20.067  42.935  13.362
58272W        W17533  27.092  32.932  13.362
58273W        W17534  38.023  12.707   3.194
58274W        W17535  30.536   8.374   4.295
58275W        W17536  36.053  36.039   2.361
58276W        W17537  14.338  19.745  14.994
58277W        W17538  44.317  43.887  14.787
58278W        W17539  10.298  37.866  12.571
58279W        W17540   9.781   9.273  10.638
58280W        W17541  24.539   0.943   2.799
58281W        W17542   8.681  24.500  12.574
58282W        W17543  37.375  21.057   5.091
58283W        W17544  21.221  37.878   4.737
58284W        W17545  22.687  43.981   4.617
58285W        W17546  40.885  10.645   0.441
58286W        W17547  22.079   4.398  12.502
58287W        W17548   1.915  25.072  11.967
58288W        W17549  16.137   1.939  13.873
58289W        W17550   8.900  36.068  14.302
58290W        W17551  37.920  43.993   1.754
58291W        W17552  36.063   4.740  10.901
58292W        W17553  44.942  30.907  13.401
58293W        W17554  41.964  20.628  14.287
58294W        W17555   6.836  43.299   1.744
58295W        W17556   1.410  34.868   3.762
58296W        W17557  15.253  36.515  13.844
58297W        W17558  31.079  44.938  14.373
58298W        W17559  13.676  10.663   2.342
58299W        W17560  35.433  38.004  13.361
58300W        W17561  44.370   6.312  13.353
58301W        W17562  27.638  26.488  13.921
58302W        W17563  26.600  27.985   3.261
58303W        W17564  40.936  10.672   4.127
58304W        W17565  31.465  16.745   2.893
58305W        W17566  33.522  24.658   3.661
58306W        W17567  36.910  20.224   0.961
58307W        W17568  36.388  43.936  14.433
58308W        W17569  38.470   3.408   3.818
58309W        W17570  24.626  13.223   4.753
58310W        W17571  35.480   5.205  11.487
58311W        W17572   3.753  33.520  12.068
58312W        W17573   6.392  37.396   3.363
58313W        W17574  25.003  13.155   0.399
58314W        W17575  30.919  24.010   0.323
58315W        W17576  16.637  21.523   3.178
58316W        W17577  18.720  34.556  12.856
58317W        W17578  37.933  42.861  13.053
58318W        W17579  42.001  35.500   4.622
58319W        W17580   2.738  37.409   0.470
58320W        W17581  19.622  26.527   4.694
58321W        W17582   5.726  22.058   0.751
58322W        W17583   8.747  39.343   2.268
58323W        W17584   5.366  41.507   4.788
58324W        W17585  44.359  14.812  10.586
58325W        W17586  12.240  26.005  11.904
58326W        W17587  30.567  32.399   1.725
58327W        W17588  29.652   4.264   2.864
58328W        W17589   1.463  23.196   1.918
58329W        W17590  43.299  29.514   2.217
58330W        W17591   2.330   0.289  10.128
58331W        W17592   5.329   1.335  13.436
58332W        W17593   1.439  16.735  11.941
58333W        W17594  42.933  40.910   0.849
58334W        W17595  25.556  36.094  10.523
58335W        W17596  15.661  24.189  12.551
58336W        W17597  40.001   7.669   3.867
58337W        W17598  14.680  29.443   0.430
58338W        W17599  27.994  27.048  12.980
58339W        W17600  11.331   4.911  13.441
58340W        W17601  42.389  28.113  14.429
58341W        W17602  28.668  17.242  12.049
58342W        W17603   0.748  13.670  14.881
58343W        W17604  27.615   5.419   4.779
58344W        W17605  27.492  10.323  10.030
58345W        W17606  25.641  14.691   4.350
58346W        W17607  13.698  16.193   1.752
58347W        W17608  15.744  21.061   1.219
58348W        W17609   6.706  30.472  12.090
58349W        W17610   2.792  10.327  14.380
58350W        W17611  21.738  13.203  12.983
58351W        W17612  16.300   4.759   5.591
58352W        W17613  17.624  30.589   9.924
58353W        W17614  16.124  35.437  11.373
58354W        W17615  12.197  24.230  13.456
58355W        W17616  19.204   6.299  10.628
58356W        W17617  41.938  18.669  10.889
58357W        W17618  25.065  34.098   3.647
58358W        W17619  35.967   3.832  12.576
58359W        W17620  20.050   4.316   0.380
58360W        W17621  11.755   0.747   5.127
58361W        W17622  16.298   7.330  13.028
58362W        W17623  11.767   9.349   3.677
58363W        W17624  30.040  10.152  10.559
58364W        W17625  33.997  10.728   4.729
58365W        W17626  26.160  18.264   1.739
58366W        W17627  32.599  41.318   3.312
58367W        W17628  16.140  35.085   0.727
58368W        W17629   4.350  33.383  14.858
58369W        W17630  37.854  43.353   1.267
58370W        W17631  11.184  41.477  11.072
58371W        W17632  12.661  27.498   3.805
58372W        W17633   9.832  23.039  12.578
58373W        W17634  35.475  32.444  12.945
58374W        W17635  41.998  12.237   2.814
58375W        W17636  37.955  25.220  11.547
58376W        W17637  11.708  30.496   3.694
58377W        W17638  22.234   4.448  10.611
58378W        W17639  36.042  37.079  13.021
58379W        W17640   1.761  27.596  11.946
58380W        W17641  20.034  13.181   2.344
58381W        W17642  22.673   3.885  14.390
58382W        W17643  32.623  23.633   2.881
58383W        W17644  29.651  17.720   2.321
58384W        W17645  14.249  27.098   1.726
58385W        W17646  16.316  19.771  14.802
58386W        W17647  33.942  30.592  11.084
58387W        W17648  18.618  31.432  12.548
58388W        W17649  19.679  28.148  13.019
58389W        W17650  41.789  42.997  12.073
58390W        W17651  10.860   9.241   1.901
58391W        W17652  43.776  27.558   2.295
58392W        W17653   3.922  25.505  13.821
58393W        W17654  25.211  43.825   2.680
58394W        W17655  21.681  32.407   0.430
58395W        W17656  22.697  16.309  14.952
58396W        W17657  22.633   3.900   0.766
58397W        W17658  22.719   5.383   0.253
58398W        W17659  20.714   2.881  13.858
58399W        W17660   0.933  35.576  10.505
58400W        W17661  13.771  21.755   0.944
58401W        W17662   9.687  40.037   0.804
58402W        W17663  43.445  19.695  14.386
58403W        W17664  33.396  23.183  13.008
58404W        W17665   4.300  19.260  13.438
58405W        W17666  37.855  23.148   1.824
58406W        W17667  42.024  42.887   2.842
58407W        W17668  18.697  28.072   2.388
58408W        W17669  36.417  24.979   0.805
58409W        W17670  12.792  43.368  10.966
58410W        W17671  36.923  43.814  14.990
58411W        W17672   0.836  15.720   4.821
58412W        W17673  28.088  12.164   4.671
58413W        W17674  39.900  40.966  14.875
58414W        W17675  39.940   9.768   0.397
58415W        W17676  17.610  43.938   4.816
58416W        W17677  40.019   2.854  13.437
58417W        W17678  35.571   9.284   2.301
58418W        W17679  35.426   6.703   0.419
58419W        W17680  33.545   3.882  11.947
58420W        W17681  23.052  40.364  12.446
58421W        W17682  19.704  18.749   1.734
58422W        W17683  29.077   5.868  11.069
58423W        W17684   2.832  16.789  10.450
58424W        W17685  26.036  14.214   3.841
58425W        W17686  44.388  24.063   5.191
58426W        W17687  20.048  11.729  12.987
58427W        W17688   6.192  38.896  11.469
58428W        W17689  37.060  42.822   1.874
58429W        W17690  28.935  40.390  11.100
58430W        W17691  15.104  39.007   1.275
58431W        W17692  43.987   1.393   2.338
58432W        W17693  15.118   0.934  11.116
58433W        W17694  21.757  41.392   4.164
58434W        W17695  27.582  40.532   0.945
58435W        W17696   2.939  17.764   1.249
58436W        W17697  22.683  17.256   0.824
58437W        W17698  21.239  37.426  12.427
58438W        W17699  12.849  31.993  12.852
58439W        W17700  36.892  14.737  13.013
58440W        W17701  26.676   5.356   4.762
58441W        W17702   3.354  12.662  12.536
58442W        W17703   6.699  22.741  11.464
58443W        W17704  38.991  25.509  11.096
58444W        W17705  34.525  13.326  10.934
58445W        W17706  38.517   1.338  14.983
58446W        W17707  23.162   7.695  10.414
58447W        W17708  20.764  22.702  12.380
58448W        W17709  43.323  37.037   0.330
58449W        W17710  23.523  26.969  13.500
58450W        W17711  23.003  44.966   2.353
58451W        W17712  15.298  22.169   2.818
58452W        W17713   9.254  17.752  12.942
58453W        W17714  16.110  16.154  13.925
58454W        W17715  28.585  25.615  13.448
58455W        W17716  32.988  12.670  12.833
58456W        W17717  42.388  36.569  12.033
58457W        W17718  13.278  38.506  10.590
58458W        W17719  39.352   2.889  13.946
58459W        W17720   6.679  15.131   4.729
58460W        W17721  18.178  19.084  13.956
58461W        W17722  30.589   7.730   4.764
58462W        W17723  24.507  44.459  14.932
58463W        W17724   1.840  32.985   4.723
58464W        W17725  14.757   5.867   1.933
58465W        W17726  24.563  30.623   4.226
58466W        W17727  43.787  11.147  14.961
58467W        W17728  32.586  38.953   1.293
58468W        W17729   1.339  27.673  11.377
58469W        W17730  31.109  35.401  10.964
58470W        W17731  21.741  29.458  11.927
58471W        W17732  41.043  39.064  11.504
58472W        W17733  34.565  16.568  13.394
58473W        W17734  16.759  35.896   1.350
58474W        W17735  12.260  25.551   4.693
58475W        W17736  43.772  41.511   4.266
58476W        W17737  24.142   2.761  13.894
58477W        W17738  14.104  44.757   3.281
58478W        W17739  36.940  26.601   4.207
58479W        W17740  40.961   4.698  14.496
58480W        W17741  32.040  33.914   9.931
58481W        W17742   1.434  12.832  12.092
58482W        W17743  15.218  36.868   4.654
58483W        W17744  19.635  29.508  10.098
58484W        W17745  29.082  30.614  11.109
58485W        W17746  18.599  25.692  13.997
58486W        W17747  40.927  43.341  11.966
58487W        W17748  23.989  11.169  13.507
58488W        W17749  41.516  39.966  12.869
58489W        W17750  44.430   7.871  14.432
58490W        W17751  19.213  16.706  13.909
58491W        W17752  19.224  12.819   0.334
58492W        W17753   3.939  23.563   1.299
58493W        W17754  40.520   2.796   0.759
58494W        W17755  17.700  24.005   4.777
58495W        W17756  32.480   4.396  11.554
58496W        W17757  35.393  36.093  12.951
58497W        W17758  26.610  20.598   2.733
58498W        W17759  39.318  27.992   4.252
58499W        W17760  41.514  25.089  12.926
58500W        W17761  12.842  43.394  14.840
58501W        W17762  13.112  24.120  12.094
58502W        W17763  38.346  12.194  12.001
58503W        W17764  11.627  25.535  13.830
58504W        W17765  43.277  18.174  14.762
58505W        W17766  12.285  19.555  12.869
58506W        W17767  44.384  31.443  14.503
58507W        W17768  12.793  34.102  11.005
58508W        W17769  13.225  26.621  11.986
58509W        W17770  28.978   0.339   0.383
58510W        W17771  36.521  16.685   0.910
58511W        W17772  10.864  38.847  10.548
58512W        W17773  41.863  17.802   4.249
58513W        W17774   8.159  38.517   4.638
58514W        W17775  41.027  42.974   9.992
58515W        W17776   0.877  35.998  12.966
58516W        W17777  13.271   9.345  13.926
58517W        W17778  35.584  36.408  14.915
58518W        W17779   7.704  16.214   4.808
58519W        W17780   1.304  44.302   3.279
58520W        W17781   7.386  22.110  13.875
58521W        W17782  20.214  16.664  13.980
58522W        W17783   8.325  25.547   3.769
58523W        W17784  34.910  13.252  11.114
58524W        W17785  37.996   2.340  13.440
58525W        W17786  10.163   8.842   2.674
58526W        W17787  34.940  13.275  14.479
58527W        W17788  43.907  21.520   1.704
58528W        W17789  35.454   5.720   0.433
58529W        W17790   5.906  30.025   0.807
58530W        W17791   2.362   2.767  11.041
58531W        W17792  12.289   4.855  11.866
58532W        W17793  23.006   6.909  13.850
58533W        W17794  41.974  40.002   2.855
58534W        W17795  21.542  36.481   4.304
58535W        W17796  14.117   7.692   0.763
58536W        W17797   8.172  35.375   3.710
58537W        W17798  14.332  18.122   2.178
58538W        W17799  17.240  39.903   4.283
58539W        W17800   1.473  25.149  14.424
58540W        W17801  12.263   5.873  12.414
58541W        W17802  34.381   5.698   2.817
58542W        W17803  39.057   1.840   1.797
58543W        W17804   3.413  24.027  13.520
58544W        W17805  29.444  23.594   1.318
58545W        W17806  19.113  30.603   0.303
58546W        W17807  10.228   2.392   0.429
58547W        W17808  20.572  42.422   0.915
58548W        W17809  19.759  11.657  10.921
58549W        W17810  38.333  31.417   0.381
58550W        W17811  29.595  32.443  14.291
58551W        W17812  26.563   3.880  12.534
58552W        W17813  17.200   6.777  13.467
58553W        W17814  36.348  10.259  14.831
58554W        W17815  16.568  39.400   1.784
58555W        W17816  18.174  41.308  11.869
58556W        W17817  40.496  20.220  13.890
58557W        W17818  30.606  29.957  11.877
58558W        W17819   0.472  30.538   1.698
58559W        W17820   5.812   8.744  14.291
58560W        W17821  40.333  23.571  13.313
58561W        W17822  14.649   0.443  13.383
58562W        W17823   5.802  27.952  14.759
58563W        W17824  10.648  40.864  12.577
58564W        W17825  25.115   1.337  12.065
58565W        W17826  34.039  33.889  14.276
58566W        W17827  39.517  42.395  12.525
58567W        W17828  40.006  29.168  11.535
58568W        W17829  41.909  11.239  12.516
58569W        W17830  29.001   8.244   1.439
58570W        W17831   3.251  34.424   0.764
58571W        W17832  33.943  35.468  14.887
58572W        W17833  13.813  31.127  13.962
58573W        W17834   2.930  34.003  11.562
58574W        W17835  17.062  13.805   2.299
58575W        W17836  23.239  10.246   3.350
58576W        W17837  21.114   5.696   1.291
58577W        W17838   1.835  44.463   4.306
58578W        W17839  11.307  17.665   2.867
58579W        W17840   1.846   0.868   0.336
58580W        W17841  29.121  28.526  11.439
58581W        W17842  36.954  42.282  12.039
58582W        W17843  36.032   7.834  12.396
58583W        W17844   5.874  15.582   1.371
58584W        W17845  36.548  38.005  14.374
58585W        W17846  29.658  20.206  14.455
58586W        W17847  34.996  12.775   2.750
58587W        W17848   0.757  23.236   1.824
58588W        W17849  30.144  19.144  12.905
58589W        W17850  28.597  41.384   2.258
58590W        W17851  34.443  15.601   2.273
58591W        W17852  17.100  25.972   1.249
58592W        W17853  15.760  44.931   2.345
58593W        W17854   8.736  34.405  12.390
58594W        W17855   8.295   7.205   2.366
58595W        W17856   6.861  41.423   2.334
58596W        W17857   9.791   9.657   3.214
58597W        W17858   1.860  44.961  12.485
58598W        W17859   3.756  12.855  12.987
58599W        W17860   2.757  34.101   1.911
58600W        W17861  27.159  10.348  12.031
58601W        W17862  14.616  21.089   3.226
58602W        W17863  44.912  33.947   2.736
58603W        W17864  31.088  25.059  14.954
58604W        W17865   7.874  14.188  10.631
58605W        W17866  32.118  44.481   2.193
58606W        W17867  43.856  35.579  10.501
58607W        W17868  36.354  39.908   0.869
58608W        W17869   2.377   5.836  13.831
58609W        W17870  24.056   1.400   2.408
58610W        W17871   0.269  33.943  12.541
58611W        W17872  20.032   7.676  10.449
58612W        W17873  12.218  27.518   4.327
58613W        W17874  39.915   8.789   3.245
58614W        W17875  24.680   4.888  14.945
58615W        W17876   1.801  18.565  14.790
58616W        W17877  13.815  32.492   2.337
58617W        W17878  10.705  42.939   5.183
58618W        W17879  13.731   8.694   2.693
58619W        W17880  20.722  12.791  11.863
58620W        W17881  32.993  14.119   1.303
58621W        W17882  30.988  23.603  12.069
58622W        W17883  30.113  32.107   3.734
58623W        W17884  37.466  29.025  14.819
58624W        W17885  38.548  42.881   3.211
58625W        W17886  25.522  34.563  10.993
58626W        W17887  33.939   7.821  11.003
58627W        W17888  28.659  43.919  13.502
58628W        W17889   9.649  34.503   0.481
58629W        W17890  40.508  24.700   0.275
58630W        W17891  44.334   4.351  14.366
58631W        W17892  30.527  16.793  13.964
58632W        W17893  38.461   5.254  11.449
58633W        W17894  16.654  26.186   5.098
58634W        W17895  29.626  14.199   4.776
58635W        W17896  10.758  33.509   1.736
58636W        W17897  37.039  31.153   0.796
58637W        W17898  36.563  22.191  13.832
58638W        W17899  36.049  18.159  12.558
58639W        W17900  36.847  35.461   9.552
58640W        W17901   1.444   8.713  14.406
58641W        W17902  41.874   7.307  12.443
58642W        W17903   0.833  24.555  14.377
58643W        W17904  16.641  14.724  13.844
58644W        W17905   5.729  30.923  11.934
58645W        W17906   0.343  44.376  13.791
58646W        W17907  15.317  24.035  11.533
58647W        W17908  31.490  31.127   2.798
58648W        W17909  31.112  11.725  12.398
58649W        W17910  37.404  40.027   1.341
58650W        W17911  34.034  22.625  14.387
58651W        W17912  34.426   0.983   2.361
58652W        W17913  15.263  13.128   9.936
58653W        W17914  12.815  11.704  10.562
58654W        W17915  30.643   7.700   2.784
58655W        W17916  32.636  38.938  11.972
58656W        W17917   8.759  26.546   4.639
58657W        W17918  39.389   0.840  10.938
58658W        W17919   0.865  21.140  13.377
58659W        W17920  11.709  17.201  13.804
58660W        W17921  35.452  32.964  10.624
58661W        W17922  39.065  15.579  11.501
58662W        W17923  43.827  31.605   1.758
58663W        W17924  21.714   6.327  12.436
58664W        W17925  36.372  14.751   4.145
58665W        W17926   9.865  18.203   2.256
58666W        W17927  13.119  25.034   5.089
58667W        W17928  24.499  15.613   1.378
58668W        W17929  36.489  29.518  14.851
58669W        W17930  40.910  23.238   0.865
58670W        W17931  33.052  17.178  14.974
58671W        W17932  26.195  43.959   0.363
58672W        W17933  27.036  43.455  13.529
58673W        W17934   9.750  40.914   1.363
58674W        W17935  29.955  22.652   4.716
58675W        W17936   6.712   4.388   2.746
58676W        W17937  27.980  23.060   2.833
58677W        W17938  13.679   2.819   2.765
58678W        W17939  34.552   3.749  14.328
58679W        W17940  36.072   0.924   3.233
58680W        W17941  22.556   0.422  12.008
58681W        W17942  36.574  25.577   1.334
58682W        W17943   3.775   6.823  12.832
58683W        W17944  38.852  36.039  14.021
58684W        W17945  15.686  13.631  13.449
58685W        W17946  26.577  24.977   0.357
58686W        W17947   3.352  21.068  13.917
58687W        W17948  35.445  38.532   0.933
58688W        W17949  21.583   1.427  10.895
58689W        W17950  15.254  37.904   2.729
58690W        W17951  43.865   3.411   0.763
58691W        W17952   2.289  15.179   3.811
58692W        W17953  42.950  10.837   0.952
58693W        W17954  21.688  18.259  12.362
58694W        W17955  31.504   5.845   2.733
58695W        W17956  21.060  15.276  14.328
58696W        W17957  40.491   3.343  11.945
58697W        W17958  10.327  23.653  10.475
58698W        W17959   7.181  17.224  12.927
58699W        W17960   5.749  29.030   1.345
58700W        W17961  42.410  20.691   3.229
58701W        W17962   4.438  14.239  12.353
58702W        W17963  41.032   4.858  11.436
58703W        W17964  15.181  39.508   4.354
58704W        W17965  14.116  35.575  10.617
58705W        W17966  12.155  30.467   3.850
58706W        W17967  34.564  35.468   4.695
58707W        W17968  14.734  36.886   2.786
58708W        W17969  30.152  22.663  13.903
58709W        W17970  40.373  29.963   4.629
58710W        W17971  11.744   6.250   3.176
58711W        W17972  27.573  11.263  11.507
58712W        W17973  41.944   4.766   5.106
58713W        W17974  12.155  31.907  12.351
58714W        W17975  33.109  21.669   1.376
58715W        W17976  37.912  27.668  14.348
58716W        W17977  42.849  31.086   1.745
58717W        W17978  19.135  28.977  12.440
58718W        W17979  36.030  37.496  12.388
58719W        W17980  30.082  14.315   2.234
58720W        W17981  22.568  23.179   1.239
58721W        W17982  22.589  24.043  13.036
58722W        W17983  29.581  23.669   0.925
58723W        W17984  12.661  22.190   0.750
58724W        W17985   6.900  44.278   0.912
58725W        W17986   1.821  42.448   2.183
58726W        W17987  44.475  44.008  14.454
58727W        W17988  11.252  34.388   2.708
58728W        W17989   4.339  25.205  10.572
58729W        W17990  42.917  37.830  14.865
58730W        W17991  41.937  35.416   4.174
58731W        W17992  23.099  40.343  11.536
58732W        W17993  36.075  39.363   0.777
58733W        W17994  25.505  11.677   2.353
58734W        W17995  30.527  42.410   2.816
58735W        W17996  42.287  43.927  13.058
58736W        W17997   1.867   6.838   0.419
58737W        W17998   0.816  32.917   3.356
58738W        W17999  12.193  35.424  12.439
58739W        W18000  31.643  28.633   3.273
58740W        W18001  34.932   4.404   3.869
58741W        W18002  30.055  16.095  14.377
58742W        W18003   8.715   1.477  13.406
58743W        W18004  43.412   1.873  12.936
58744W        W18005   3.761  36.464  10.603
58745W        W18006  28.667  13.660   4.635
58746W        W18007   8.678   9.694   9.643
58747W        W18008   1.272  21.576  13.935
58748W        W18009  26.204  13.171   0.840
58749W        W18010  10.815  22.167  13.014
58750W        W18011  19.534  14.703   1.434
58751W        W18012  34.968  12.754  12.372
58752W        W18013  18.130   7.821   1.360
58753W        W18014  20.666  31.992  13.846
58754W        W18015  16.240  17.559  13.920
58755W        W18016  29.617  12.330   2.773
58756W        W18017  17.236  42.987  14.447
58757W        W18018  27.642  31.405  14.953
58758W        W18019   0.859  28.558   4.280
58759W        W18020  26.540  28.043  13.821
58760W        W18021   9.814  17.754   0.368
58761W        W18022  37.041  10.315   4.655
58762W        W18023  22.236  10.690   3.334
58763W        W18024  13.618  15.747   4.328
58764W        W18025   0.396   7.339   3.816
58765W        W18026   5.290  18.125   3.781
58766W        W18027   9.839  16.215   1.719
58767W        W18028  33.935  19.761  13.829
58768W        W18029  29.148   9.885   1.846
58769W        W18030  11.183  27.692  11.062
58770W        W18031  32.532  15.801  11.983
58771W        W18032   2.964   1.945  10.544
58772W        W18033  10.302   0.828   2.709
58773W        W18034  19.184  14.709   2.227
58774W        W18035  22.521   0.322   4.351
58775W        W18036   1.772  29.066   3.312
58776W        W18037   7.200  26.625   0.285
58777W        W18038  22.062   3.743   2.191
58778W        W18039  11.247  26.061  13.451
58779W        W18040  19.703  21.572   2.198
58780W        W18041   5.250  27.650   3.281
58781W        W18042  25.470  32.009   2.412
58782W        W18043   9.224  29.030   1.929
58783W        W18044   9.153   9.830   0.737
58784W        W18045  11.645   5.418  14.919
58785W        W18046  11.154  34.436  14.470
58786W        W18047  18.780  16.749  12.345
58787W        W18048   5.224  30.628  12.095
58788W        W18049  27.692   6.219   3.171
58789W        W18050  44.812  18.283  10.555
58790W        W18051  39.902  44.385  13.443
58791W        W18052   6.246  29.451   0.776
58792W        W18053  39.006  10.745  11.468
58793W        W18054  30.952  33.988  13.374
58794W        W18055  21.073   2.868  12.371
58795W        W18056  15.811   6.428   4.237
58796W        W18057  36.495  11.373  11.865
58797W        W18058  37.984  39.856  13.322
58798W        W18059   7.833  13.669  14.928
58799W        W18060  17.741  11.240   4.156
58800W        W18061  21.662  39.946  12.941
58801W        W18062  42.024   6.245   3.321
58802W        W18063  37.064  17.566   4.240
58803W        W18064  21.147  33.434   2.255
58804W        W18065  11.146   5.298   1.403
58805W        W18066  26.688  23.497  11.533
58806W        W18067  30.043  34.493   1.434
58807W        W18068  18.591   4.383  13.378
58808W        W18069  19.580  21.176  13.055
58809W        W18070  20.032  29.006  12.981
58810W        W18071  26.994  34.504   4.330
58811W        W18072  32.013  37.462  14.829
58812W        W18073  26.636  38.348  14.766
58813W        W18074  17.172  10.726  13.936
58814W        W18075  16.312  40.978   1.404
58815W        W18076  14.775  34.044   3.786
58816W        W18077  26.580   8.199   5.270
58817W        W18078  29.558  38.873   0.733
58818W        W18079  40.505   1.745   5.223
58819W        W18080  26.111   1.971   1.792
58820W        W18081  25.551  25.990   9.994
58821W        W18082  23.095  33.025   2.239
58822W        W18083  16.228   7.382   0.790
58823W        W18084  38.010   9.339   1.731
58824W        W18085  21.222   1.440   1.374
58825W        W18086  38.061  37.963   1.908
58826W        W18087   7.210  19.125  10.933
58827W        W18088  22.714  22.069   1.894
58828W        W18089  32.930  12.172   0.353
58829W        W18090  29.632   5.752  12.407
58830W        W18091  40.995  28.517   1.375
58831W        W18092  18.632  36.001  12.981
58832W        W18093  41.307   6.295  11.966
58833W        W18094  36.392  10.176  12.467
58834W        W18095   3.354  16.727   4.354
58835W        W18096  17.265  43.786   4.749
58836W        W18097   0.901   0.746   3.158
58837W        W18098   3.270  26.627  11.969
58838W        W18099  10.224  30.448  13.541
58839W        W18100   3.441  33.086  10.973
58840W        W18101  34.112  39.472   2.200
58841W        W18102  17.126  18.288  13.453
58842W        W18103  38.877  16.716   3.764
58843W        W18104  43.874  32.406  13.403
58844W        W18105  26.684  12.811  12.415
58845W        W18106  12.130  14.669   5.690
58846W        W18107  24.571   0.347   3.253
58847W        W18108  10.729   2.344  12.395
58848W        W18109  27.551  30.549  11.579
58849W        W18110  33.970  30.011   2.276
58850W        W18111   6.867  23.659  10.633
58851W        W18112  32.480  17.781   1.736
58852W        W18113  10.311  30.038  14.878
58853W        W18114  43.398  15.170  10.445
58854W        W18115   6.205  18.209   5.295
58855W        W18116  12.176   7.189  12.557
58856W        W18117  35.089  38.377  12.044
58857W        W18118  12.279  36.054   4.738
58858W        W18119  13.633  15.275  12.433
58859W        W18120  31.072   6.794  13.795
58860W        W18121  26.608  22.170  12.951
58861W        W18122  25.482  34.456  12.075
58862W        W18123  36.464  17.123  14.388
58863W        W18124  30.967   8.169  13.890
58864W        W18125  13.221  18.679  13.916
58865W        W18126  44.971  26.575  12.023
58866W        W18127  25.497   9.267  11.904
58867W        W18128  29.105  35.096  13.365
58868W        W18129  12.343  44.795   4.203
58869W        W18130   8.723   6.701   2.178
58870W        W18131   0.794   5.354  13.924
58871W        W18132  10.685  17.771   4.266
58872W        W18133  29.588   6.700   4.266
58873W        W18134   9.352  32.968  11.101
58874W        W18135   1.760  10.821   3.870
58875W        W18136  39.522   7.373  12.855
58876W        W18137  14.121  23.228   2.664
58877W        W18138  29.498  42.806   2.276
58878W        W18139  33.462  11.333   0.307
58879W        W18140   1.322   7.838  14.906
58880W        W18141   1.947  43.492   4.213
58881W        W18142   2.885   5.430   4.689
58882W        W18143  21.584  28.500   0.828
58883W        W18144  37.430  20.660  13.469
58884W        W18145  19.261  43.936   0.450
58885W        W18146  36.916  24.171  12.998
58886W        W18147   6.423  23.662   5.145
58887W        W18148  31.460  43.022  10.420
58888W        W18149  21.151  34.388   0.780
58889W        W18150  40.519  10.359   4.776
58890W        W18151  41.344  40.320  11.486
58891W        W18152  37.512  34.576   2.711
58892W        W18153  21.753  11.677   3.315
58893W        W18154   1.800  30.047   4.218
58894W        W18155   9.837  15.320   3.689
58895W        W18156   4.206   5.244   1.390
58896W        W18157  26.702  31.485  10.929
58897W        W18158  36.883  28.049   2.238
58898W        W18159   0.869   6.182  11.901
58899W        W18160  12.681  20.734   3.837
58900W        W18161   8.767  44.783  12.896
58901W        W18162  25.661  42.779  14.955
58902W        W18163  41.335   1.247   3.236
58903W        W18164  20.222  33.494   2.375
58904W        W18165  22.677  21.528   0.370
58905W        W18166  14.312  37.548   0.765
58906W        W18167  20.212  15.590  11.967
58907W        W18168  41.886  41.017   1.784
58908W        W18169  33.913  22.691   4.255
58909W        W18170  25.170  10.320   3.362
58910W        W18171  44.395  19.555   1.826
58911W        W18172  10.848  42.511  13.805
58912W        W18173   6.274  21.175   0.435
58913W        W18174   9.798  44.309   1.932
58914W        W18175   7.718  29.543   3.735
58915W        W18176  36.441  36.041  10.139
58916W        W18177  12.821  43.854   1.302
58917W        W18178  25.075  28.164   3.859
58918W        W18179   6.902  38.985   4.828
58919W        W18180  28.493  43.952   1.895
58920W        W18181  42.854   4.908   1.239
58921W        W18182  32.126   0.811  12.388
58922W        W18183  16.615  34.977   4.718
58923W        W18184   5.389   2.958  12.452
58924W        W18185  22.583   7.387   4.316
58925W        W18186  32.020  16.099   1.332
58926W        W18187   6.190  33.387  12.460
58927W        W18188  12.274   8.201   4.291
58928W        W18189  28.014   5.728  13.432
58929W        W18190  15.670   5.743   0.808
58930W        W18191  20.668  24.214   3.284
58931W        W18192   5.705  28.453   4.690
58932W        W18193   8.795  42.291  12.460
58933W        W18194  12.839  14.625  13.507
58934W        W18195  17.653  27.564  13.960
58935W        W18196  15.756  29.923  13.041
58936W        W18197  19.600   3.235  10.624
58937W        W18198  28.468  39.360  10.983
58938W        W18199   3.812   2.740  12.032
58939W        W18200  20.182   1.311  14.381
58940W        W18201   2.234   9.198   4.661
58941W        W18202  27.106  38.868  12.856
58942W        W18203  36.098  12.676   5.582
58943W        W18204  17.702  40.401  11.480
58944W        W18205  41.387  42.383   4.320
58945W        W18206  14.242  44.312  12.494
58946W        W18207  33.964  17.135  14.992
58947W        W18208  33.981  24.147   1.379
58948W        W18209  12.711  25.505   3.157
58949W        W18210   5.207  43.780   0.836
58950W        W18211  22.145  17.650  13.903
58951W        W18212  27.671  43.297   1.305
58952W        W18213  42.956  22.574  11.968
58953W        W18214  14.607   8.305   2.296
58954W        W18215  17.068  40.307  10.490
58955W        W18216  18.276  11.856   4.820
58956W        W18217   2.907  30.436   3.338
58957W        W18218  28.137  21.737   3.316
58958W        W18219  12.762   6.787   4.631
58959W        W18220  44.468  32.617  12.937
58960W        W18221  43.985  43.347   1.366
58961W        W18222  28.175  10.383   2.668
58962W        W18223  10.146  38.043   1.301
58963W        W18224   3.767  35.014  12.867
58964W        W18225  15.183  24.977   3.312
58965W        W18226  44.927  19.562   3.380
58966W        W18227   5.916  22.247   1.759
58967W        W18228  29.026   4.838   1.743
58968W        W18229  22.156  23.531  11.893
58969W        W18230  26.044  22.097   1.290
58970W        W18231  33.428  22.170  11.998
58971W        W18232  11.755  18.230  10.073
58972W        W18233  37.059  42.485   3.179
58973W        W18234  27.001  25.592   3.777
58974W        W18235  10.786   3.450   5.273
58975W        W18236   0.386  30.600  12.966
58976W        W18237  11.214   7.891   0.777
58977W        W18238  29.574   0.284  10.581
58978W        W18239  42.331  15.097  13.476
58979W        W18240   0.324  14.127  13.928
58980W        W18241  20.565  30.110  12.423
58981W        W18242  30.634  13.330  10.413
58982W        W18243   7.351  35.056  12.938
58983W        W18244  20.120  32.453   2.416
58984W        W18245  11.825  12.763  12.422
58985W        W18246  28.959  28.139   3.300
58986W        W18247  43.903  16.190  13.424
58987W        W18248  32.598  41.951  12.454
58988W        W18249   0.366  31.637   1.277
58989W        W18250  29.124  44.466  10.469
58990W        W18251  13.330  42.418  13.491
58991W        W18252  37.552  19.049  13.490
58992W        W18253  16.213  31.598   2.190
58993W        W18254  10.314  21.681  12.360
58994W        W18255  23.560   5.384   2.279
58995W        W18256  37.053  30.460   4.228
58996W        W18257  19.263  24.177  14.930
58997W        W18258  17.299  22.168   1.694
58998W        W18259  40.446  30.108   0.743
58999W        W18260  44.418  13.121   1.776
59000W        W18261  10.352  29.099   0.842
59001W        W18262   5.874   4.246   2.216
59002W        W18263   4.746   7.332   0.903
59003W        W18264  26.027  32.506  11.933
59004W        W18265   0.270  42.439   0.271
59005W        W18266   5.339   7.717  14.507
59006W        W18267  10.807  19.722   2.801
59007W        W18268   9.171  23.631  10.428
59008W        W18269  17.622  38.954  13.905
59009W        W18270  30.029  10.738   1.823
59010W        W18271  34.597   8.220  11.522
59011W        W18272  38.570  39.007   1.844
59012W        W18273  33.432  41.298  13.431
59013W        W18274  12.826   6.226   5.795
59014W        W18275   7.672  31.987   3.148
59015W        W18276  30.004  37.532  14.979
59016W        W18277  16.762  16.113  13.452
59017W        W18278   0.414  39.036  10.584
59018W        W18279   0.987  14.232  11.466
59019W        W18280  38.349  39.344  13.933
59020W        W18281  13.653   0.915  14.439
59021W        W18282  31.532   7.226  13.836
59022W        W18283   2.961   0.440   4.672
59023W        W18284  18.640   8.373  11.557
59024W        W18285  38.505   7.705   2.361
59025W        W18286  10.699  24.078   1.446
59026W        W18287  42.281   1.866   3.860
59027W        W18288  37.548  41.985   2.739
59028W        W18289  18.656  41.337  11.979
59029W        W18290  19.563   5.391   3.282
59030W        W18291  37.021   9.283  13.038
59031W        W18292   7.393  40.422  10.531
59032W        W18293  15.808  20.683  12.518
59033W        W18294  25.478   8.673   0.795
59034W        W18295  31.445  28.622  11.555
59035W        W18296   9.672  37.496   4.197
59036W        W18297  36.094  15.214  13.455
59037W        W18298   6.252  38.905  14.355
59038W        W18299  14.108   3.888   1.922
59039W        W18300  30.003   4.298  12.342
59040W        W18301  29.613  19.724  10.567
59041W        W18302  27.998  42.786   3.337
59042W        W18303  16.691  26.194   1.814
59043W        W18304  20.745  24.159   4.635
59044W        W18305  22.223   8.687  14.401
59045W        W18306  38.876  40.307  11.574
59046W        W18307  39.895  28.959   1.727
59047W        W18308  41.409  13.735   0.368
59048W        W18309  14.653  33.966  12.026
59049W        W18310  11.217  41.803  11.559
59050W        W18311  34.614  38.393  12.949
59051W        W18312  30.061  25.525  13.860
59052W        W18313  27.069  16.790   1.341
59053W        W18314   2.378  43.353   0.373
59054W        W18315  33.950  40.046  13.906
59055W        W18316  41.435  12.244  13.926
59056W        W18317  23.217  23.077  14.999
59057W        W18318  24.160  20.204  12.421
59058W        W18319   0.324   0.949   1.787
59059W        W18320   7.762   4.884   2.760
59060W        W18321  44.759  44.469  14.873
59061W        W18322   0.812  37.480  13.863
59062W        W18323  25.670  23.115  14.357
59063W        W18324   9.385  29.938  13.828
59064W        W18325   0.878  12.198  14.377
59065W        W18326   0.947  44.297   2.709
59066W        W18327   5.297  34.070  12.948
59067W        W18328  31.069  38.074   2.856
59068W        W18329  43.350   8.196   3.663
59069W        W18330  11.337  30.115  14.839
59070W        W18331  19.084  37.056  12.499
59071W        W18332  16.707  36.460   1.789
59072W        W18333  40.909  27.024  11.587
59073W        W18334   2.260   5.758   1.768
59074W        W18335  32.510  24.499  13.872
59075W        W18336   1.390  17.113   0.454
59076W        W18337  37.922  44.945  12.907
59077W        W18338  33.080  30.919  14.329
59078W        W18339   4.378  13.316  13.309
59079W        W18340  32.435  31.084  10.594
59080W        W18341   4.315  23.635  13.055
59081W        W18342  21.730  14.099   2.338
59082W        W18343  40.498  11.836  13.539
59083W        W18344  37.994   3.317   3.346
59084W        W18345  44.810  16.101   3.667
59085W        W18346  37.358   0.803  14.449
59086W        W18347  37.503  38.864  11.394
59087W        W18348  39.912  29.447   4.142
59088W        W18349  41.794  33.923   2.816
59089W        W18350  22.043  21.189  10.157
59090W        W18351  19.773  35.931   0.335
59091W        W18352  15.329  37.979   1.286
59092W        W18353  31.998  31.439  12.892
59093W        W18354  35.885  23.512  10.517
59094W        W18355  30.989   0.948  14.477
59095W        W18356  39.407  24.597  10.938
59096W        W18357   9.818  38.435   4.664
59097W        W18358  39.962   2.870   0.863
59098W        W18359  44.791  37.867  13.988
59099W        W18360   8.885  31.418   1.846
59100W        W18361  13.846  31.544  12.048
59101W        W18362  40.893  33.882  10.109
59102W        W18363  40.306  22.512  13.017
59103W        W18364  30.031  32.974  12.538
59104W        W18365  39.019   4.875   1.258
59105W        W18366   4.703  17.612   4.173
59106W        W18367  33.990  32.892   0.386
59107W        W18368   5.280  31.994  10.583
59108W        W18369  37.395  12.742   3.703
59109W        W18370  11.817   5.706   0.750
59110W        W18371   4.287  35.562   1.315
59111W        W18372  21.589  35.381  11.497
59112W        W18373  13.723  36.363  13.487
59113W        W18374  18.546  31.153   1.298
59114W        W18375  18.144   1.762  11.923
59115W        W18376  39.001  44.316   4.605
59116W        W18377  24.004  22.042   3.344
59117W        W18378  36.925  42.790   2.189
59118W        W18379  14.717   8.232  13.052
59119W        W18380  23.987   0.424   4.224
59120W        W18381  34.904  31.589   2.205
59121W        W18382  14.593  20.217  14.863
59122W        W18383  38.929  37.062  13.000
59123W        W18384  10.168  19.283  12.511
59124W        W18385  40.360  25.168  11.033
59125W        W18386  35.364  23.541   3.701
59126W        W18387  12.671   7.259  10.610
59127W        W18388  35.426  33.617   0.962
59128W        W18389  34.572  28.649  13.874
59129W        W18390  13.767   9.680  10.627
59130W        W18391  24.162   6.779  13.817
59131W        W18392  21.098  19.138   2.377
59132W        W18393  23.622  16.291   1.856
59133W        W18394   4.702  23.039  12.503
59134W        W18395  36.921  38.447   4.703
59135W        W18396  37.503   0.888   0.758
59136W        W18397   2.377  35.497  11.495
59137W        W18398  16.251  12.223   3.828
59138W        W18399  31.005  25.702  13.839
59139W        W18400  21.602   3.743   1.697
59140W        W18401   9.819  34.891   1.740
59141W        W18402  44.864  18.278   4.220
59142W        W18403   7.784   6.390   1.713
59143W        W18404  19.767   7.252   3.807
59144W        W18405  15.100  39.062   4.279
59145W        W18406   6.340   2.827   2.357
59146W        W18407  10.819  11.704  14.489
59147W        W18408  10.359   8.396  10.620
59148W        W18409   6.699  44.315  11.611
59149W        W18410  16.165  15.814  14.946
59150W        W18411  44.277  23.102   4.290
59151W        W18412  34.042  19.543  12.450
59152W        W18413  22.692  10.216   1.252
59153W        W18414  14.675  14.332   1.211
59154W        W18415  15.800  35.019   0.385
59155W        W18416  42.894   0.291  11.954
59156W        W18417  37.546  34.470  13.829
59157W        W18418  12.198  10.653  12.013
59158W        W18419  10.367  18.741   0.756
59159W        W18420  43.995   8.281   4.236
59160W        W18421  14.122  14.326  13.427
59161W        W18422   0.448  15.274   2.851
59162W        W18423  15.200   5.735   1.757
59163W        W18424   0.958  12.229  11.076
59164W        W18425  31.009  18.135  10.150
59165W        W18426  33.597  23.529  12.029
59166W        W18427  38.952   9.721  11.042
59167W        W18428  31.436  25.585   1.418
59168W        W18429  22.249   3.818  12.358
59169W        W18430  32.914  30.932  11.387
59170W        W18431  17.745  23.084  11.988
59171W        W18432  14.137   6.292   3.810
59172W        W18433  37.949  15.138  13.966
59173W        W18434  28.468  38.825  10.642
59174W        W18435  25.968   8.662   2.745
59175W        W18436  30.155  30.435  12.963
59176W        W18437  42.784  27.167  13.461
59177W        W18438  21.595  19.682   2.827
59178W        W18439   1.452  25.101   0.744
59179W        W18440  27.583   9.645  12.460
59180W        W18441  25.024  20.652   4.185
59181W        W18442  10.821  20.167   2.882
59182W        W18443  40.015   2.448  12.879
59183W        W18444  25.026  16.214  14.797
59184W        W18445  10.212  28.623   3.182
59185W        W18446  25.045  35.432  10.475
59186W        W18447  12.152  36.364  14.278
59187W        W18448   6.320  32.975   4.802
59188W        W18449  21.601  20.682   1.750
59189W        W18450  32.501  16.788  10.544
59190W        W18451  30.052  15.310   4.229
59191W        W18452   2.810   4.822  13.355
59192W        W18453  43.346   6.236   4.675
59193W        W18454  13.766  43.014  13.546
59194W        W18455  30.001  32.535  13.960
59195W        W18456  38.907   0.436   3.652
59196W        W18457   3.290  29.975  14.418
59197W        W18458  33.456  18.096   3.642
59198W        W18459   9.239  17.158   2.288
59199W        W18460  31.442  17.147  12.578
59200W        W18461   2.308   9.722   2.220
59201W        W18462   1.318  18.678   1.389
59202W        W18463   2.388  24.649   4.157
59203W        W18464  20.162   7.191  12.908
59204W        W18465  28.513  17.748   2.215
59205W        W18466   5.743  18.076   3.667
59206W        W18467   4.444  37.055  10.465
59207W        W18468  29.161  27.570  12.343
59208W        W18469  29.638  15.703   3.670
59209W        W18470  19.618   1.969  11.498
59210W        W18471  41.792  12.156   4.134
59211W        W18472  22.689  39.985   2.678
59212W        W18473  34.595  41.957   3.333
59213W        W18474  25.549  42.494   0.480
59214W        W18475  31.045   4.290  13.867
59215W        W18476  33.995  14.748   2.282
59216W        W18477  44.302  30.598  14.426
59217W        W18478  28.533  33.100  13.857
59218W        W18479  23.650   8.358   1.448
59219W        W18480  17.801  34.547   1.295
59220W        W18481  39.890  22.681   0.352
59221W        W18482  33.514  27.071   4.192
59222W        W18483   2.302  41.309  11.114
59223W        W18484  34.892  26.115  14.504
59224W        W18485  41.391  15.182   4.671
59225W        W18486  36.352  34.562  14.293
59226W        W18487  32.446   5.239   3.148
59227W        W18488  22.528  33.521  12.419
59228W        W18489  38.381  41.006   0.733
59229W        W18490   4.832  21.514   0.314
59230W        W18491   1.881  35.367   0.454
59231W        W18492   6.877  15.294   0.766
59232W        W18493  28.665  33.452  11.105
59233W        W18494  13.768  27.198   2.667
59234W        W18495  19.046  20.749   0.450
59235W        W18496  26.598  11.166   0.893
59236W        W18497  22.680  31.961   4.694
59237W        W18498   4.328  32.529  14.927
59238W        W18499  19.646   8.377   4.210
59239W        W18500   4.900  42.360  13.004
59240W        W18501  39.851   8.403  10.456
59241W        W18502  25.146  15.298  13.500
59242W        W18503  15.815  18.172  14.861
59243W        W18504  18.563  22.151  14.463
59244W        W18505  42.524  14.325  11.540
59245W        W18506  11.828   2.471  14.303
59246W        W18507  23.998   9.743  11.381
59247W        W18508   5.931   9.325   2.381
59248W        W18509  26.096  15.110  10.404
59249W        W18510  11.341   2.307   4.246
59250W        W18511  33.005  23.511   1.852
59251W        W18512  19.050  25.561  13.426
59252W        W18513   2.928  43.908   4.644
59253W        W18514  23.992  33.511   9.984
59254W        W18515  30.056  30.436   4.705
59255W        W18516   2.338  16.683  11.419
59256W        W18517  17.578  39.940   4.709
59257W        W18518  32.952  21.606  13.380
59258W        W18519  29.173  30.146   2.757
59259W        W18520  23.186  21.096  11.894
59260W        W18521  26.574   6.690   0.388
59261W        W18522  40.007  40.826   2.711
59262W        W18523  38.973  34.412   0.298
59263W        W18524  17.097  31.493   3.336
59264W        W18525  40.798  36.350   0.319
59265W        W18526  35.031  42.866   4.807
59266W        W18527  18.155  13.273   3.338
59267W        W18528   0.345  13.210   3.202
59268W        W18529   3.351  38.921  14.969
59269W        W18530  15.614  37.875  14.369
59270W        W18531  34.058  35.020  11.389
59271W        W18532  38.489  28.638  12.547
59272W        W18533  36.389  35.965  12.059
59273W        W18534  37.994  37.941  14.782
59274W        W18535  42.352  16.698   4.339
59275W        W18536  13.600  38.439  11.000
59276W        W18537  27.545  15.088  12.833
59277W        W18538  38.478  30.112   2.289
59278W        W18539  24.162  40.832   4.350
59279W        W18540   3.756  42.994   1.320
59280W        W18541  41.485   6.752  13.362
59281W        W18542   1.388  32.002   1.795
59282W        W18543  19.066   4.410  14.408
59283W        W18544   2.325  34.507  14.935
59284W        W18545  14.797  14.835  11.902
59285W        W18546  40.320   9.773  12.426
59286W        W18547  17.632  39.982   2.339
59287W        W18548  44.775  17.294   3.797
59288W        W18549  35.436  10.202   0.791
59289W        W18550   0.263   2.773  14.003
59290W        W18551   5.928  31.440  12.865
59291W        W18552  40.457   7.248   2.349
59292W        W18553  27.959  36.879  12.902
59293W        W18554  17.664  31.629   5.086
59294W        W18555  41.884  29.511  13.873
59295W        W18556   9.282   8.735  11.439
59296W        W18557  28.519  24.564   2.292
59297W        W18558  14.330  42.283   2.310
59298W        W18559   7.741  10.299  12.461
59299W        W18560  41.362  41.491   0.927
59300W        W18561  24.047  35.520  12.575
59301W        W18562   5.366   7.181  13.495
59302W        W18563  31.909  18.689   2.878
59303W        W18564  37.344  22.512   1.253
59304W        W18565  27.674  23.015   1.407
59305W        W18566  37.960   9.279   0.397
59306W        W18567  23.510  32.107   2.670
59307W        W18568  25.205  44.340   0.917
59308W        W18569   2.726  31.017  11.954
59309W        W18570  21.243  15.268   3.734
59310W        W18571   3.860  36.592   4.831
59311W        W18572  21.541  41.954   4.606
59312W        W18573  13.712   0.871   9.976
59313W        W18574  39.445   1.817   2.753
59314W        W18575   7.373  34.895  12.371
59315W        W18576  33.496  26.980   0.848
59316W        W18577  18.204  32.394  11.544
59317W        W18578  43.350  13.669   1.330
59318W        W18579  16.734  31.104   1.248
59319W        W18580  41.808  30.537   1.819
59320W        W18581  33.060  14.117  11.858
59321W        W18582  10.154  42.002   2.309
59322W        W18583  18.702   4.363   4.223
59323W        W18584   1.776  25.985  11.969
59324W        W18585  26.639  18.585  13.374
59325W        W18586  24.160  17.107  14.279
59326W        W18587  21.647  42.310  13.440
59327W        W18588   5.415  21.687   1.699
59328W        W18589   4.900  30.431   3.732
59329W        W18590  22.231  43.365   4.632
59330W        W18591  13.124  42.344  10.622
59331W        W18592  22.084  41.461   1.262
59332W        W18593  26.951  15.107   2.252
59333W        W18594  21.179  18.608   2.380
59334W        W18595  31.106  29.517  11.955
59335W        W18596   0.317  12.851  12.986
59336W        W18597   3.847  28.172  12.453
59337W        W18598  41.982  31.444   3.176
59338W        W18599   3.850  36.426   4.257
59339W        W18600  22.158  18.269  14.026
59340W        W18601  11.313  41.832   2.364
59341W        W18602  33.517  35.890  13.849
59342W        W18603  14.790   2.361  13.439
59343W        W18604  28.605  14.804   0.283
59344W        W18605  15.739  13.705   3.332
59345W        W18606  22.222  11.639  12.976
59346W        W18607   2.364   3.910  12.075
59347W        W18608   6.772  19.704   0.457
59348W        W18609  26.170  25.576   3.710
59349W        W18610  13.242   3.356   1.410
59350W        W18611  39.494  10.732   1.710
59351W        W18612   8.893  44.393  13.356
59352W        W18613   8.302   1.306  11.910
59353W        W18614  31.464   4.335  11.116
59354W        W18615  27.513  13.621  10.576
59355W        W18616  34.441  28.663  11.610
59356W        W18617  18.654  38.518  13.326
59357W        W18618  33.413   7.866  12.063
59358W        W18619   8.296  37.388  11.097
59359W        W18620   7.870  11.289  11.459
59360W        W18621  17.662  43.831   1.291
59361W        W18622  41.350  29.462  14.991
59362W        W18623  44.420  38.937   0.931
59363W        W18624  12.329  33.567  12.071
59364W        W18625   9.787   1.402   2.368
59365W        W18626  18.684   9.760  14.293
59366W        W18627  25.544  16.273   4.653
59367W        W18628  34.043  41.364  14.942
59368W        W18629   6.752  24.483  13.000
59369W        W18630  34.998  19.194  12.540
59370W        W18631  33.989  38.539   0.476
59371W        W18632  43.274  20.064  11.015
59372W        W18633   0.948   4.861  14.934
59373W        W18634  24.667  15.171  11.927
59374W        W18635  41.322   9.376   0.877
59375W        W18636  16.148  22.112   1.846
59376W        W18637  29.575  39.387   3.800
59377W        W18638   6.851  20.627   0.414
59378W        W18639   6.859   9.752   5.153
59379W        W18640   6.813   7.885  13.961
59380W        W18641   8.854  13.286   2.282
59381W        W18642  31.099  31.990   9.987
59382W        W18643   0.473  30.141   2.678
59383W        W18644  22.523  13.801   2.870
59384W        W18645   1.261  18.623   3.273
59385W        W18646   3.951   3.295  11.536
59386W        W18647  20.143  19.089   2.382
59387W        W18648  31.470  25.195  14.344
59388W        W18649   7.897  25.710   2.298
59389W        W18650  23.061  16.298   4.207
59390W        W18651  21.599   3.910   0.765
59391W        W18652   3.897  15.789   1.923
59392W        W18653  21.096  21.719   0.742
59393W        W18654  12.742   4.444   3.313
59394W        W18655  34.444  20.582   2.323
59395W        W18656   5.849   1.833  10.917
59396W        W18657   9.709  27.461  13.844
59397W        W18658   2.805  18.695   3.812
59398W        W18659  43.904  26.152   4.186
59399W        W18660   0.964  44.340  11.995
59400W        W18661  36.984   3.833   3.764
59401W        W18662  44.364  11.751  13.426
59402W        W18663  21.549  31.074   0.894
59403W        W18664  21.152  19.719   1.383
59404W        W18665  30.034  43.869   2.861
59405W        W18666  29.454  28.125  14.774
59406W        W18667  30.483  20.127  10.997
59407W        W18668  17.207  12.236  13.435
59408W        W18669  20.261  11.231  12.978
59409W        W18670  38.998   8.263  12.377
59410W        W18671  43.876  12.803  12.360
59411W        W18672  18.191   9.768  11.098
59412W        W18673   4.913  40.018  14.953
59413W        W18674  33.585   8.348   2.388
59414W        W18675  15.258  34.073  13.001
59415W        W18676   7.855  42.985  11.959
59416W        W18677  40.377  35.392  11.550
59417W        W18678   9.328   9.331  14.353
59418W        W18679  24.181   6.695  10.503
59419W        W18680  38.565  21.255  14.488
59420W        W18681  20.120  25.640  11.102
59421W        W18682   6.692  11.733   2.771
59422W        W18683  17.652  24.538  13.914
59423W        W18684  44.937  19.261  10.529
59424W        W18685   8.199  37.573   0.882
59425W        W18686  42.292  30.486   1.350
59426W        W18687   7.216  10.164  11.588
59427W        W18688   4.725   0.468  11.899
59428W        W18689  10.325   3.215   3.342
59429W        W18690  10.278  40.417  12.095
59430W        W18691  21.527  23.238  11.938
59431W        W18692  42.829   8.768  14.904
59432W        W18693  25.646  17.747  12.382
59433W        W18694  36.465  26.504  14.333
59434W        W18695  10.319  16.789  12.870
59435W        W18696   3.387  14.271   2.875
59436W        W18697  32.019  20.081   3.225
59437W        W18698  14.609  15.752   1.219
59438W        W18699  35.479  32.087  14.953
59439W        W18700  35.576  24.095  12.866
59440W        W18701  27.543   5.202  10.419
59441W        W18702  37.995  35.100  12.465
59442W        W18703  37.480  10.356  11.379
59443W        W18704  20.029  22.532   1.390
59444W        W18705  37.887  21.515  13.532
59445W        W18706  13.239  25.105   2.317
59446W        W18707  42.326  33.960  12.875
59447W        W18708   0.794   4.724  11.536
59448W        W18709  28.986  21.222  11.902
59449W        W18710  40.998  17.763  10.950
59450W        W18711   8.760  27.677   2.276
59451W        W18712   5.197   5.399  14.489
59452W        W18713  10.155   7.849   4.172
59453W        W18714   8.341  10.324   0.861
59454W        W18715   9.240   7.846   0.781
59455W        W18716  22.013  20.745   3.760
59456W        W18717  30.103   7.209   0.875
59457W        W18718   1.963   2.273   0.314
59458W        W18719  25.208  14.166  13.889
59459W        W18720   8.355   7.911  13.801
59460W        W18721  18.232   4.784  10.645
59461W        W18722  24.555  34.098   1.316
59462W        W18723   2.847  10.821  12.527
59463W        W18724  14.764  20.670  11.986
59464W        W18725  21.663  10.177  10.606
59465W        W18726   5.707   7.382  14.849
59466W        W18727  19.051  17.104   9.942
59467W        W18728  41.443   6.324  14.866
59468W        W18729  19.712  21.575  14.962
59469W        W18730   0.973  36.532   4.741
59470W        W18731  35.566  37.437  10.459
59471W        W18732  17.065  16.776   4.297
59472W        W18733  27.628  36.089  10.503
59473W        W18734  37.907   6.404  10.112
59474W        W18735  15.674  29.938  12.064
59475W        W18736  22.598  13.153  13.045
59476W        W18737  19.057  37.929   4.236
59477W        W18738  14.777  33.936  11.392
59478W        W18739  22.631  34.405  14.844
59479W        W18740  22.159  21.578  12.893
59480W        W18741  23.634  35.928   4.236
59481W        W18742  23.183  39.434  10.432
59482W        W18743  32.452  38.409   0.911
59483W        W18744  24.634  33.560  13.946
59484W        W18745   8.317  22.504  14.000
59485W        W18746  16.652  24.671  11.068
59486W        W18747  29.500  26.164  14.798
59487W        W18748  31.567   9.259  10.941
59488W        W18749  12.331  40.448  10.490
59489W        W18750  11.702  23.194   1.785
59490W        W18751  42.337  19.207   0.375
59491W        W18752  17.736   3.753   4.618
59492W        W18753   3.804   3.856  13.432
59493W        W18754  29.452  23.138  11.543
59494W        W18755  44.386  32.482   0.823
59495W        W18756  12.224  16.686  10.465
59496W        W18757  32.030  18.051  13.471
59497W        W18758  26.040  29.062   2.383
59498W        W18759  15.691  37.544   2.758
59499W        W18760  10.212   5.891  12.991
59500W        W18761  37.072  20.729   2.390
59501W        W18762  35.996   3.240   0.831
59502W        W18763  11.788  44.331  10.971
59503W        W18764  13.177   1.309  10.989
59504W        W18765   4.790   6.833   2.756
59505W        W18766  13.323   7.248   1.803
59506W        W18767  39.558  33.069   3.646
59507W        W18768  27.158  23.505   0.341
59508W        W18769   2.316  38.838   1.698
59509W        W18770  43.354   3.420   1.334
59510W        W18771  40.310   8.274   0.911
59511W        W18772  42.500  22.999  10.931
59512W        W18773  31.059  28.448   3.738
59513W        W18774  41.018  23.561  14.450
59514W        W18775  19.673   2.379  12.072
59515W        W18776  28.116   0.464  10.149
59516W        W18777  24.989  12.144  12.365
59517W        W18778  32.129  33.609   1.396
59518W        W18779  15.292  33.429   3.864
59519W        W18780  21.258   1.303  11.100
59520W        W18781  24.725   6.410   4.234
59521W        W18782   6.814  29.513   0.756
59522W        W18783  20.138  32.038   1.402
59523W        W18784  31.080  40.893  12.869
59524W        W18785  38.516  26.174   3.209
59525W        W18786  41.939  23.231  11.571
59526W        W18787  13.772   3.807  11.072
59527W        W18788  18.130  44.321  13.399
59528W        W18789   1.395  39.867  10.569
59529W        W18790  18.665  32.094  11.871
59530W        W18791  29.595   1.952   9.996
59531W        W18792  28.515  32.011   3.723
59532W        W18793  36.045  26.984   0.356
59533W        W18794  38.324  33.583   0.411
59534W        W18795  31.459  22.021  12.527
59535W        W18796  32.946  21.753   3.159
59536W        W18797  14.829  28.075   3.670
59537W        W18798  30.142  33.957   1.882
59538W        W18799  41.895  16.603   1.381
59539W        W18800  35.499  30.961  11.116
59540W        W18801  22.141   0.924  11.597
59541W        W18802   6.252   0.399  13.368
59542W        W18803  34.479  39.358   2.215
59543W        W18804  25.620  20.127  10.618
59544W        W18805  17.601   2.449  14.406
59545W        W18806  37.855  23.660  12.366
59546W        W18807   1.819  29.608  11.486
59547W        W18808   2.831  32.406   3.320
59548W        W18809  19.775   7.301   3.217
59549W        W18810  16.278   4.289  11.882
59550W        W18811  21.061  28.099  11.020
59551W        W18812  23.662  37.422  14.303
59552W        W18813  41.798  38.891   4.806
59553W        W18814  14.632  41.903  14.464
59554W        W18815   8.757  13.348  14.968
59555W        W18816  21.063  44.853   2.244
59556W        W18817  13.834  19.658   4.262
59557W        W18818  37.450  38.075   1.364
59558W        W18819  15.663  27.176  12.475
59559W        W18820  29.949  22.572  10.426
59560W        W18821  34.408   2.925  13.974
59561W        W18822  37.993  29.555   4.780
59562W        W18823   1.964   3.784   2.765
59563W        W18824  26.963  17.736   4.153
59564W        W18825  29.156  39.972  12.464
59565W        W18826  27.581  43.008  14.321
59566W        W18827  31.454  26.059  11.945
59567W        W18828  25.665  26.665  14.806
59568W        W18829   6.710  38.565  10.932
59569W        W18830  29.581  36.397  12.883
59570W        W18831  44.287  26.107   2.851
59571W        W18832  13.298  28.933   0.746
59572W        W18833  26.085   7.246   2.665
59573W        W18834  43.807   0.945  11.451
59574W        W18835  43.835   8.298   3.633
59575W        W18836  29.142   7.787  10.629
59576W        W18837  12.295  10.329  14.920
59577W        W18838  29.010   1.749   0.323
59578W        W18839   0.279  19.249   2.802
59579W        W18840  12.147  18.253  10.932
59580W        W18841  35.474  24.611   0.963
59581W        W18842   2.363  14.136  14.338
59582W        W18843   3.229  20.672  13.473
59583W        W18844  19.574   4.240   1.829
59584W        W18845  41.381  23.733  14.856
59585W        W18846   9.268   3.457   1.804
59586W        W18847  34.421   8.777   1.331
59587W        W18848  40.459   6.709  10.577
59588W        W18849   4.801   5.264  13.945
59589W        W18850  23.534   0.870  12.403
59590W        W18851   7.266   7.857   3.246
59591W        W18852   5.315  10.642   9.532
59592W        W18853   8.809  33.538  12.580
59593W        W18854  17.564  21.614  14.452
59594W        W18855  39.824  41.845   2.383
59595W        W18856  28.675   6.744  13.449
59596W        W18857   2.777  22.532  13.882
59597W        W18858  37.832  20.159  11.108
59598W        W18859   3.319  11.812   4.782
59599W        W18860   1.905  18.084   2.326
59600W        W18861  19.080  11.315   2.732
59601W        W18862  10.727   5.402   2.772
59602W        W18863   3.346  22.689   3.362
59603W        W18864  30.589  44.992   3.752
59604W        W18865  36.977  24.229   3.794
59605W        W18866  30.058  23.201   4.347
59606W        W18867  29.924  32.959  11.029
59607W        W18868  31.482  28.643   1.211
59608W        W18869  14.776   8.655   4.603
59609W        W18870   3.924  21.143  11.517
59610W        W18871  33.005  18.106   1.293
59611W        W18872  33.537  30.151  10.104
59612W        W18873   6.249  19.151   4.271
59613W        W18874  44.006   3.236   1.411
59614W        W18875  29.977   6.874   3.647
59615W        W18876  31.044  28.095  11.918
59616W        W18877  32.397  41.020   4.636
59617W        W18878   5.899  37.463  13.874
59618W        W18879  26.510  43.304  12.901
59619W        W18880  20.690  20.218  13.971
59620W        W18881  40.992   0.337   3.795
59621W        W18882   4.852   3.846  12.424
59622W        W18883  38.374   7.789   3.207
59623W        W18884  28.974  41.464   0.269
59624W        W18885  33.624  37.413   4.154
59625W        W18886   3.733  32.074   2.705
59626W        W18887  39.838   0.312  12.565
59627W        W18888   7.706   7.675   3.156
59628W        W18889  20.197   4.425  12.559
59629W        W18890   5.838  33.495  14.952
59630W        W18891   7.401  24.123  11.451
59631W        W18892  28.105  15.775  10.998
59632W        W18893  26.585  28.502  13.035
59633W        W18894  27.095  19.759  14.475
59634W        W18895  13.801  34.610   3.161
59635W        W18896  32.634   2.855   0.872
59636W        W18897  30.060  29.459   1.433
59637W        W18898  29.176  10.379   1.696
59638W        W18899  19.064   6.830  12.466
59639W        W18900  15.746  19.052  12.052
59640W        W18901  23.032   6.811  12.453
59641W        W18902  40.864   7.311  13.944
59642W        W18903  21.533   5.263  13.980
59643W        W18904  27.123  40.420  14.773
59644W        W18905   5.816  15.094  11.089
59645W        W18906  13.670  10.369  14.374
59646W        W18907  32.553  13.738  13.015
59647W        W18908   9.750  28.651   0.404
59648W        W18909  32.134   1.837   3.277
59649W        W18910  42.844  40.361   0.308
59650W        W18911  43.306   8.896   3.774
59651W        W18912   4.785  42.419   0.835
59652W        W18913   8.818   7.675   4.752
59653W        W18914  44.960  44.352   3.770
59654W        W18915  33.096  29.624   4.131
59655W        W18916  38.324  12.797   4.600
59656W        W18917   2.463  25.177  14.456
59657W        W18918  20.037  18.134  12.845
59658W        W18919  15.097  41.483   3.693
59659W        W18920  16.140  22.085  12.566
59660W        W18921  12.240   3.293   0.736
59661W        W18922  23.214   0.282  11.957
59662W        W18923  14.230   5.822   1.378
59663W        W18924  38.060  41.340   1.251
59664W        W18925  20.231   5.811   4.255
59665W        W18926  31.091  29.597   2.207
59666W        W18927  31.001  29.557   3.745
59667W        W18928  42.779  16.761   2.788
59668W        W18929   0.371  32.969   4.713
59669W        W18930  20.731   5.214   0.462
59670W        W18931  27.123  22.140  10.437
59671W        W18932  38.419  15.634  13.870
59672W        W18933   3.716  12.187   2.323
59673W        W18934  27.485   1.412  12.089
59674W        W18935  44.355   2.446   2.409
59675W        W18936   9.668  30.009  14.850
59676W        W18937   3.751  34.104  11.924
59677W        W18938  12.362  31.619   1.734
59678W        W18939   2.967  23.995  10.564
59679W        W18940   0.464  14.757  14.935
59680W        W18941  28.984  10.844  13.361
59681W        W18942  35.559  17.704   1.302
59682W        W18943  32.574  35.874   0.881
59683W        W18944  23.061  30.912   0.423
59684W        W18945  11.847   5.907   2.405
59685W        W18946  21.595  12.768   0.429
59686W        W18947  13.674   7.717  12.557
59687W        W18948  17.562  11.206   1.815
59688W        W18949  25.195  26.968   4.768
59689W        W18950  40.976  29.078   1.822
59690W        W18951  16.674  19.724   0.318
59691W        W18952  32.941  23.650   0.293
59692W        W18953  38.068  32.940   4.643
59693W        W18954  30.537  17.649  11.931
59694W        W18955  35.504   8.724  11.608
59695W        W18956  16.197  10.295  13.476
59696W        W18957  33.577  26.191   4.711
59697W        W18958  34.567  19.772   0.370
59698W        W18959  42.408  15.732  12.542
59699W        W18960  13.629  15.698   2.749
59700W        W18961   7.884  26.047  12.434
59701W        W18962  43.459  39.889  12.917
59702W        W18963  23.015  29.450   4.694
59703W        W18964   9.395  23.612   2.800
59704W        W18965  26.460  42.931  10.960
59705W        W18966  40.045  16.614  10.607
59706W        W18967  35.560   9.175   1.319
59707W        W18968  35.475  14.755   2.372
59708W        W18969  13.298  42.018   2.314
59709W        W18970   4.220  16.197  13.310
59710W        W18971  15.743  42.300  14.002
59711W        W18972  39.976  41.510   1.914
59712W        W18973  14.834   5.352  11.014
59713W        W18974  12.803  21.516   2.883
59714W        W18975  41.025   4.754   3.813
59715W        W18976  18.555  16.612  11.957
59716W        W18977  13.319  19.264  11.867
59717W        W18978  27.586  29.502   3.715
59718W        W18979  36.379  43.299  10.445
59719W        W18980  38.003  17.151  13.921
59720W        W18981   5.368  26.029   2.694
59721W        W18982  14.201  19.174   1.900
59722W        W18983  22.537  36.017   3.669
59723W        W18984   5.294  36.564   3.824
59724W        W18985  42.814  19.172   1.857
59725W        W18986  38.445  33.487   3.376
59726W        W18987  39.525  40.355  12.878
59727W        W18988  17.199   2.739   4.241
59728W        W18989  20.750  40.483   4.699
59729W        W18990  31.532  40.822   4.225
59730W        W18991  37.462  43.469  11.887
59731W        W18992   5.215  17.678  13.542
59732W        W18993  40.012  43.874  10.968
59733W        W18994   6.736  12.219  12.896
59734W        W18995  20.634  32.577  14.024
59735W        W18996  36.474  29.652  13.817
59736W        W18997   1.281  28.010   2.345
59737W        W18998  28.613  35.396  12.972
59738W        W18999  28.040  35.467   0.878
59739W        W19000   5.406   5.791   2.236
59740W        W19001  10.654  32.104   2.410
59741W        W19002  31.138   2.756   2.755
59742W        W19003  22.165   8.896  11.859
59743W        W19004  37.577   3.934  11.926
59744W        W19005  10.650  26.060  11.501
59745W        W19006  21.123  29.543  11.512
59746W        W19007  26.027  15.698  13.040
59747W        W19008  38.482  32.935   4.216
59748W        W19009  28.459   3.712   1.233
59749W        W19010  11.264   5.915   2.682
59750W        W19011  12.857  23.103  12.358
59751W        W19012  20.632  36.075  14.330
59752W        W19013  25.703  24.166   2.674
59753W        W19014  20.529   1.383  13.945
59754W        W19015   8.757  12.149  13.522
59755W        W19016  18.101   2.732  12.950
59756W        W19017   6.889  23.588   0.763
59757W        W19018  42.451  10.222   3.312
59758W        W19019  28.153  33.381  11.958
59759W        W19020  39.365  36.545  14.374
59760W        W19021  44.314  44.401  12.850
59761W        W19022   5.920  26.036  11.568
59762W        W19023  41.976  19.707   1.899
59763W        W19024  20.723  21.686   2.212
59764W        W19025  37.830   5.400   2.179
59765W        W19026  38.487  34.458  12.827
59766W        W19027  27.505   0.452  11.987
59767W        W19028  22.125  41.912   1.897
59768W        W19029  10.308  38.522  12.984
59769W        W19030  38.037  40.305  14.955
59770W        W19031  19.285  16.752  12.368
59771W        W19032  21.672  23.708  11.500
59772W        W19033  12.778  19.202   2.296
59773W        W19034  15.737   3.459  13.337
59774W        W19035  44.418  37.442   4.728
59775W        W19036  16.575  30.658  12.865
59776W        W19037  42.484  23.110   2.733
59777W        W19038  37.461  21.093  12.828
59778W        W19039  40.900   5.753  10.458
59779W        W19040   3.425   4.883  12.988
59780W        W19041  20.127  14.175   1.404
59781W        W19042  23.723  28.127  13.929
59782W        W19043  44.910  41.983  13.017
59783W        W19044   7.264   7.183   3.204
59784W        W19045  33.419  12.151  10.050
59785W        W19046   5.352  14.728  13.854
59786W        W19047   2.965  21.672  11.402
59787W        W19048   2.774  21.687  11.987
59788W        W19049   4.850  37.044  12.576
59789W        W19050  25.015   4.404  12.835
59790W        W19051  41.493  36.063   3.210
59791W        W19052  15.290  18.206   3.820
59792W        W19053  19.546  25.638  13.904
59793W        W19054  17.654  19.753  14.283
59794W        W19055  26.184   9.670   2.901
59795W        W19056  11.273  14.723  11.999
59796W        W19057  14.604   2.924   0.759
59797W        W19058  29.062   4.799   4.653
59798W        W19059  35.463  17.176  11.890
59799W        W19060  38.954  27.497   1.284
59800W        W19061  39.025  10.262  14.360
59801W        W19062  31.590  31.979  13.917
59802W        W19063  41.992  29.460  10.994
59803W        W19064  42.853  20.176   2.419
59804W        W19065  25.573   1.424  11.052
59805W        W19066  23.095  31.540  12.385
59806W        W19067  28.011  20.620   4.193
59807W        W19068  22.142  23.546   1.783
59808W        W19069  14.266  11.761  11.507
59809W        W19070  42.797  21.511  10.451
59810W        W19071  28.487   4.835  11.596
59811W        W19072  23.150   1.387   0.336
59812W        W19073  25.067  34.368  12.024
59813W        W19074  37.411   9.811   2.302
59814W        W19075   5.700  15.169   0.315
59815W        W19076  35.050   3.773   1.315
59816W        W19077  34.991  44.356   1.770
59817W        W19078  43.911  17.595  12.060
59818W        W19079  35.875  40.434   1.739
59819W        W19080  20.113  26.501   4.623
59820W        W19081   6.692  37.959   2.891
59821W        W19082  38.434  18.773  10.924
59822W        W19083   4.207  44.443  14.283
59823W        W19084  38.868  11.651  12.904
59824W        W19085   5.850  14.197  14.870
59825W        W19086  43.501  23.639   1.230
59826W        W19087   7.350  26.113   3.287
59827W        W19088  20.092  31.574  14.824
59828W        W19089  26.981  36.884   4.656
59829W        W19090  38.038   2.232  11.572
59830W        W19091  42.919  39.504  13.054
59831W        W19092  14.259  33.620  12.057
59832W        W19093  21.024  34.409   0.436
59833W        W19094  39.480   8.290   4.246
59834W        W19095   1.424  27.122  10.559
59835W        W19096  26.057   2.799   3.698
59836W        W19097   7.778  20.638  14.326
59837W        W19098  10.723   2.808  11.050
59838W        W19099  41.524  21.139  10.406
59839W        W19100  22.519  33.607  14.870
59840W        W19101   5.718  21.225   0.901
59841W        W19102  42.353   1.461  12.352
59842W        W19103  32.954  24.697  13.439
59843W        W19104   9.185  40.466  11.608
59844W        W19105  11.249   8.767   1.825
59845W        W19106   1.759  14.126   4.289
59846W        W19107  10.764   0.810  13.397
59847W        W19108  14.212  14.802   4.259
59848W        W19109  32.039  43.453  11.974
59849W        W19110  26.483  35.361   0.308
59850W        W19111   0.900   2.319   1.706
59851W        W19112   2.273  16.154  10.550
59852W        W19113  14.307  19.564  12.986
59853W        W19114  14.644  11.339  13.980
59854W        W19115  39.507   4.370   4.808
59855W        W19116  22.723   5.385  13.447
59856W        W19117  36.589  16.647  14.419
59857W        W19118  14.326  14.809   1.398
59858W        W19119  39.378  22.501   1.269
59859W        W19120   3.437   2.416  10.527
59860W        W19121   9.348   1.479  13.002
59861W        W19122  40.047  15.636   2.293
59862W        W19123  18.744   0.399  13.918
59863W        W19124  29.100  30.566   0.732
59864W        W19125  14.678  33.524   4.326
59865W        W19126  13.232  24.145   1.885
59866W        W19127  39.551  17.664   0.879
59867W        W19128  37.382  26.993   0.362
59868W        W19129  43.374  12.809   4.671
59869W        W19130  42.993   9.723  10.984
59870W        W19131   5.387  13.137   4.260
59871W        W19132  43.803  43.439   4.179
59872W        W19133  23.502  24.099  10.465
59873W        W19134  23.057  37.431   1.728
59874W        W19135  25.649  10.318   0.414
59875W        W19136  12.194  27.002   1.810
59876W        W19137  13.278  14.218  11.124
59877W        W19138   2.784  36.347   3.292
59878W        W19139  22.593  35.070  12.969
59879W        W19140  11.211  42.431   3.665
59880W        W19141   2.929  30.031   4.756
59881W        W19142  13.167  31.131   4.320
59882W        W19143  14.324   9.791  10.892
59883W        W19144  28.677   3.393   5.220
59884W        W19145   3.847   4.773   0.936
59885W        W19146  33.996  44.787   1.811
59886W        W19147   3.892  16.205   1.793
59887W        W19148  26.671  10.833  10.913
59888W        W19149  24.623  23.237  11.029
59889W        W19150  28.028  22.234   4.665
59890W        W19151   6.794  34.886  11.044
59891W        W19152  25.682  14.744  14.330
59892W        W19153  21.097  32.556  11.606
59893W        W19154  14.596  18.678  10.431
59894W        W19155  12.743  40.525  11.855
59895W        W19156   5.367  41.452  11.855
59896W        W19157  36.865  15.239  10.545
59897W        W19158  41.327  44.482  13.905
59898W        W19159   9.883   9.314   4.704
59899W        W19160   6.302  24.210  11.525
59900W        W19161  40.854  42.017   4.234
59901W        W19162  28.953   6.373   3.236
59902W        W19163   4.363   9.308  14.439
59903W        W19164  14.133  18.179   9.934
59904W        W19165  44.797  39.448  13.008
59905W        W19166  10.200  44.382   0.433
59906W        W19167  23.612  29.921   4.615
59907W        W19168   0.895  28.988  10.984
59908W        W19169  23.663   9.202  12.079
59909W        W19170  11.701   1.279  11.084
59910W        W19171  24.636  15.647  11.886
59911W        W19172  36.032  43.892  13.485
59912W        W19173  16.626  36.422  11.042
59913W        W19174  13.748  39.322   3.735
59914W        W19175   2.789  19.097  12.574
59915W        W19176  29.111   4.764   3.353
59916W        W19177  41.476  31.522   4.750
59917W        W19178   0.361  30.657  10.443
59918W        W19179  12.679  31.444   2.842
59919W        W19180  14.110   1.307  13.949
59920W        W19181  39.501  33.046   4.692
59921W        W19182  32.396  12.282   3.685
59922W        W19183  19.555  38.475   3.681
59923W        W19184  43.834   7.253   1.826
59924W        W19185   5.264  24.562  11.959
59925W        W19186  10.854  12.185  12.533
59926W        W19187  38.008  31.904  13.316
59927W        W19188   4.352  22.707  10.982
59928W        W19189  10.343  36.444  10.936
59929W        W19190   4.896  35.077   4.135
59930W        W19191   0.450  36.581  13.795
59931W        W19192  25.198  43.921  11.089
59932W        W19193   8.851  43.431   0.927
59933W        W19194  15.208  13.750  13.016
59934W        W19195  16.106  10.729  11.923
59935W        W19196  36.846  36.931   1.918
59936W        W19197   0.352   4.355   0.409
59937W        W19198  13.720  35.599   3.346
59938W        W19199  21.155   7.694   1.850
59939W        W19200  27.570  30.599  13.984
59940W        W19201  10.154  27.651   1.787
59941W        W19202  38.991  40.353   1.841
59942W        W19203  23.169   1.372  11.379
59943W        W19204  36.094  21.034   3.841
59944W        W19205  41.486  40.967  13.427
59945W        W19206   1.967  29.501   2.213
59946W        W19207  19.773   6.299  12.963
59947W        W19208   5.889  24.201  13.385
59948W        W19209   3.710  35.490   4.207
59949W        W19210  36.531   5.699   2.242
59950W        W19211  10.254   7.734  13.394
59951W        W19212  42.369   5.325   2.722
59952W        W19213  18.052  19.283   2.843
59953W        W19214  43.778  41.314   1.887
59954W        W19215  25.638  29.985  13.054
59955W        W19216  38.507  33.958   2.340
59956W        W19217  19.180  24.553   9.605
59957W        W19218  38.053  25.010  10.541
59958W        W19219  37.561   6.703  11.950
59959W        W19220  14.595   3.813  13.899
59960W        W19221  26.003  36.419   4.666
59961W        W19222  29.108   1.350   4.639
59962W        W19223  24.612   7.272   4.630
59963W        W19224  34.520  25.199   1.315
59964W        W19225  35.993  41.399  11.961
59965W        W19226  38.401   4.365  13.329
59966W        W19227  21.055  14.194   0.850
59967W        W19228  36.089  19.695   2.286
59968W        W19229  22.225  25.653   5.678
59969W        W19230  37.850  41.463  11.513
59970W        W19231  38.381  15.187  14.310
59971W        W19232   2.381  13.271  10.465
59972W        W19233  29.084  26.564   9.955
59973W        W19234   9.812   1.876   3.742
59974W        W19235   4.284   5.837   5.565
59975W        W19236  36.941  41.907  13.955
59976W        W19237   4.713  39.425   2.755
59977W        W19238  13.748  14.613   4.742
59978W        W19239  26.616  12.844   1.318
59979W        W19240  10.644  10.764  11.104
59980W        W19241   0.309  30.480  13.397
59981W        W19242   7.873  10.633   0.447
59982W        W19243  21.161  11.765  13.810
59983W        W19244   1.879  37.406   3.156
59984W        W19245  35.871  21.051   3.204
59985W        W19246  30.607  20.260   3.145
59986W        W19247  14.139  20.155   5.212
59987W        W19248  19.663  41.391   2.725
59988W        W19249  25.173   6.867   2.872
59989W        W19250  22.741  12.803   2.718
59990W        W19251   0.960  17.582  12.365
59991W        W19252  43.828  28.510  11.915
59992W        W19253   3.453  31.137   4.271
59993W        W19254  32.129   8.784  13.902
59994W        W19255  11.268  14.710   5.193
59995W        W19256  22.067  34.568  11.995
59996W        W19257  18.656   0.835  12.541
59997W        W19258   3.415  10.374  10.566
59998W        W19259  24.135   0.803  12.555
59999W        W19260  44.415  21.533  12.489
60000W        W19261   2.228  22.688  11.963
60001W        W19262  23.583  35.073  14.893
60002W        W19263   0.744  16.705  10.458
60003W        W19264  43.459  35.455  14.438
60004W        W19265  20.096  12.718  10.610
60005W        W19266  22.251  42.452   2.853
60006W        W19267  15.212  20.200   4.835
60007W        W19268  23.533  38.344  11.112
60008W        W19269  24.098   4.393  13.505
60009W        W19270   9.692  40.518   4.787
60010W        W19271   1.409   8.816  11.506
60011W        W19272   2.247   7.799  12.953
60012W        W19273  27.583  21.731   1.799
60013W        W19274  25.645   1.424   0.895
60014W        W19275  22.717  17.570  14.828
60015W        W19276   3.740  23.679  14.837
60016W        W19277  30.082  12.234  12.438
60017W        W19278   9.825   2.427  13.025
60018W        W19279  26.589   1.919  14.401
60019W        W19280  38.446   0.945   2.408
60020W        W19281  30.535  29.994  12.381
60021W        W19282  31.480   5.228   3.274
60022W        W19283  20.750  26.568  12.501
60023W        W19284   7.365  29.995   0.348
60024W        W19285   1.306  42.993  12.382
60025W        W19286   2.805  12.284   1.376
60026W        W19287  33.040  26.589   5.194
60027W        W19288  16.601   1.749   1.234
60028W        W19289  44.996  23.126   1.843
60029W        W19290  33.972   2.412  12.075
60030W        W19291  43.460  24.650  14.929
60031W        W19292  40.053   1.941  10.434
60032W        W19293  26.585  24.123  11.943
60033W        W19294  39.327  14.622   1.724
60034W        W19295   9.712  27.991  13.354
60035W        W19296  20.725  15.184  14.760
60036W        W19297  35.875   3.309   2.835
60037W        W19298  23.241  15.214  12.022
60038W        W19299  40.442  12.846   4.353
60039W        W19300  36.557  18.128  12.964
60040W        W19301  10.162  36.954   2.181
60041W        W19302  30.587   1.470   3.376
60042W        W19303   9.819  24.512  13.420
60043W        W19304  35.576  42.527  11.417
60044W        W19305  33.380  23.588   9.929
60045W        W19306  29.633   6.703  11.604
60046W        W19307  19.248  22.008   3.772
60047W        W19308  10.685  42.033   2.711
60048W        W19309   0.925  17.565   1.896
60049W        W19310  14.700  42.328   1.426
60050W        W19311  25.198   2.816  14.948
60051W        W19312   6.875  33.954   2.414
60052W        W19313  27.067  13.341   1.234
60053W        W19314  23.709  42.021   1.430
60054W        W19315  25.196  25.642  14.888
60055W        W19316  26.626   3.275   4.820
60056W        W19317   7.820  16.277   2.720
60057W        W19318  26.684  11.831   4.350
60058W        W19319  37.572  15.785   0.745
60059W        W19320  42.359  20.630  10.982
60060W        W19321  10.687   6.701   9.973
60061W        W19322  23.064   5.390   3.195
60062W        W19323  20.123   2.243   4.219
60063W        W19324  39.047   8.734  12.454
60064W        W19325  23.706  18.165   4.614
60065W        W19326   0.326  38.336   0.770
60066W        W19327  11.146  30.004  12.882
60067W        W19328  39.895  32.118   2.385
60068W        W19329  38.035   2.357  10.508
60069W        W19330   3.413  16.734   4.724
60070W        W19331   6.421  43.828  12.978
60071W        W19332  38.524   4.247   4.288
60072W        W19333  34.560  39.942   4.670
60073W        W19334  19.051   9.806   3.158
60074W        W19335  32.074   6.199   5.141
60075W        W19336  41.313  18.735  10.891
60076W        W19337  27.664  11.774   2.677
60077W        W19338  40.427  19.625  14.952
60078W        W19339  28.477   8.341  13.536
60079W        W19340  32.390  40.981   3.241
60080W        W19341   8.229   5.414   1.790
60081W        W19342  20.558  36.512  12.951
60082W        W19343  21.083  30.912   2.812
60083W        W19344  22.675  25.964   0.922
60084W        W19345   7.807  40.310   3.253
60085W        W19346   8.697   9.819   3.341
60086W        W19347  21.535  12.653  10.945
60087W        W19348   3.926   6.281  13.064
60088W        W19349  38.389  16.630   4.128
60089W        W19350  37.033   3.430  12.445
60090W        W19351  38.358  29.508  10.899
60091W        W19352  44.325   9.390  14.956
60092W        W19353  20.187  13.786   1.418
60093W        W19354  25.573  17.694  12.048
60094W        W19355   9.788  27.027   0.760
60095W        W19356   2.426  12.359   4.235
60096W        W19357  30.980   3.735   3.769
60097W        W19358   1.938   1.409  14.415
60098W        W19359  22.031  36.875  13.038
60099W        W19360  11.863  20.625  13.905
60100W        W19361  37.854  13.247   2.874
60101W        W19362  44.783  33.624   1.351
60102W        W19363  29.981  32.530   2.891
60103W        W19364  41.870  21.539   1.299
60104W        W19365  38.415   0.364   0.468
60105W        W19366  32.067  29.983  11.047
60106W        W19367   5.802   5.860   2.852
60107W        W19368  39.404  15.761   0.848
60108W        W19369  23.073   4.794  13.014
60109W        W19370  30.419  11.299  11.495
60110W        W19371   7.727  24.169   2.786
60111W        W19372  20.119  32.987   4.613
60112W        W19373  21.519  25.154  13.455
60113W        W19374   4.337  20.751  13.837
60114W        W19375  28.998  13.620  10.899
60115W        W19376   9.805  30.919   0.318
60116W        W19377  12.261  12.667   4.640
60117W        W19378  17.262  37.935  10.500
60118W        W19379  38.012  31.507   0.250
60119W        W19380  34.867  25.710  12.946
60120W        W19381   9.875   5.345  11.064
60121W        W19382  18.673  19.543   0.329
60122W        W19383  30.999   4.427   2.362
60123W        W19384   3.405  33.383  11.454
60124W        W19385  40.389  40.378  13.442
60125W        W19386  29.603  20.745  14.829
60126W        W19387  10.316  29.053  10.477
60127W        W19388  31.999  42.462  14.943
60128W        W19389  24.523  36.935  11.483
60129W        W19390  29.587  23.128   3.185
60130W        W19391  25.529  43.372   0.751
60131W        W19392  15.109  40.504   4.810
60132W        W19393   3.317  34.988   4.192
60133W        W19394  43.366  20.072  11.390
60134W        W19395  15.623  41.020   5.290
60135W        W19396  14.634  36.528   4.294
60136W        W19397   8.750   4.856   2.702
60137W        W19398  12.189  24.696  14.802
60138W        W19399  39.389  23.202   0.309
60139W        W19400  39.029   4.709  13.364
60140W        W19401  15.613  42.447   3.780
60141W        W19402  24.598   3.770   2.825
60142W        W19403  21.045  44.803  12.837
60143W        W19404   3.286  20.643  10.636
60144W        W19405   4.780  19.194   3.740
60145W        W19406   1.467  42.406   4.174
60146W        W19407  38.846  15.685   0.361
60147W        W19408  33.392   9.656   0.761
60148W        W19409  36.377  14.748   2.764
60149W        W19410  42.458  20.099   1.352
60150W        W19411  40.843  25.142  12.346
60151W        W19412  39.007  36.464  14.452
60152W        W19413  31.522  18.108   0.394
60153W        W19414  13.251  29.490  11.064
60154W        W19415  29.492   3.242  12.421
60155W        W19416   7.357  25.025   2.764
60156W        W19417  38.455  37.374   4.827
60157W        W19418   9.203  34.439  12.505
60158W        W19419  31.535  19.684  10.941
60159W        W19420  14.625  21.515  11.524
60160W        W19421  11.845  37.450  12.967
60161W        W19422  22.511  30.542  12.061
60162W        W19423  43.848  11.783  11.605
60163W        W19424  18.624  40.450  12.495
60164W        W19425  27.663  28.640  12.980
60165W        W19426  39.403  27.467   3.689
60166W        W19427   7.766  22.091   0.913
60167W        W19428  23.507  37.044   4.126
60168W        W19429  27.508  13.734  11.028
60169W        W19430  36.986  27.600   1.843
60170W        W19431   8.281   4.744   2.796
60171W        W19432  42.789   2.315   5.123
60172W        W19433   7.354  15.750  13.311
60173W        W19434  35.026  15.124   1.729
60174W        W19435  34.570   1.891   0.947
60175W        W19436  16.278  11.730   2.368
60176W        W19437  33.965  40.909  12.082
60177W        W19438  11.632  28.606  10.436
60178W        W19439  44.436  31.405   1.285
60179W        W19440  26.973  39.369  13.859
60180W        W19441  41.297   3.242   3.252
60181W        W19442  38.559  43.819   1.300
60182W        W19443  32.919  23.211  14.764
60183W        W19444  37.007  17.737   0.914
60184W        W19445  12.176   1.275   4.334
60185W        W19446  28.082  41.314   1.780
60186W        W19447   9.652  13.145   3.678
60187W        W19448   8.362  34.573   4.670
60188W        W19449   3.755  27.138  13.389
60189W        W19450  44.344  28.056   4.763
60190W        W19451  36.566  25.998   3.865
60191W        W19452  25.105  36.361  14.767
60192W        W19453   7.723  23.036  11.596
60193W        W19454  42.022  24.480  12.447
60194W        W19455   1.411  35.377   1.358
60195W        W19456  16.301  35.446  11.042
60196W        W19457  32.599  42.309   1.839
60197W        W19458   2.861  40.000  14.426
60198W        W19459  39.369   0.833  12.936
60199W        W19460  35.386  36.482   1.284
60200W        W19461  43.830  17.251   0.848
60201W        W19462  25.036   3.808   0.895
60202W        W19463  18.157   2.774  13.840
60203W        W19464   7.304  27.060   2.667
60204W        W19465  32.007  27.186   1.432
60205W        W19466  32.615  42.000   3.227
60206W        W19467  13.165  43.329  12.494
60207W        W19468  37.560  21.697  14.938
60208W        W19469  41.838  40.477   4.725
60209W        W19470  10.170  25.577   1.814
60210W        W19471  23.120  13.620  11.096
60211W        W19472  44.880  24.124  12.983
60212W        W19473  12.731  15.248   3.847
60213W        W19474  28.000  24.088   2.828
60214W        W19475  14.235  30.509   1.293
60215W        W19476  19.130  39.033   3.854
60216W        W19477   4.941  24.065   3.748
60217W        W19478  21.236  44.418  13.047
60218W        W19479   9.733  40.807   2.873
60219W        W19480  32.006  15.267   2.309
60220W        W19481  30.607  44.795  12.028
60221W        W19482  21.514  35.988   3.813
60222W        W19483  21.174  15.785  14.466
60223W        W19484  15.174  23.105   1.237
60224W        W19485  22.204  44.343  11.863
60225W        W19486  39.944  38.535   2.721
60226W        W19487   5.225  36.552   2.735
60227W        W19488  42.364  16.733   0.270
60228W        W19489  19.239   6.834  12.051
60229W        W19490  14.098  43.903  11.385
60230W        W19491  34.021   3.898   4.746
60231W        W19492   0.872   7.686   3.212
60232W        W19493  41.004  10.859  12.548
60233W        W19494  33.517   5.821  11.480
60234W        W19495  10.306  11.208  13.047
60235W        W19496   8.200   1.311  13.934
60236W        W19497  24.574  44.424   4.689
60237W        W19498  26.486  35.932  10.515
60238W        W19499  11.633   3.362  12.361
60239W        W19500  25.652   6.302  10.570
60240W        W19501  33.469  17.624  13.906
60241W        W19502   1.413   9.742  13.993
60242W        W19503  19.175  30.909   2.304
60243W        W19504  15.276  32.568   3.180
60244W        W19505  22.510  38.957  13.033
60245W        W19506  14.680  28.660   9.618
60246W        W19507   6.686  25.705   1.932
60247W        W19508  35.862  26.486  11.947
60248W        W19509   1.424  27.676  10.422
60249W        W19510   3.311  42.289  12.090
60250W        W19511  31.985  19.253  12.365
60251W        W19512  44.965  34.096   3.368
60252W        W19513  36.542  18.104  11.043
60253W        W19514  15.165  12.619   1.769
60254W        W19515   8.697  11.695   1.392
60255W        W19516  24.656  37.500  14.906
60256W        W19517  17.304  19.584   0.860
60257W        W19518   0.251  44.484   4.602
60258W        W19519  37.497  30.991   4.130
60259W        W19520  22.577  24.115  12.342
60260W        W19521  13.675   5.348   0.807
60261W        W19522   1.904   6.834  11.115
60262W        W19523  32.027  34.102   0.922
60263W        W19524  10.790  29.994   4.714
60264W        W19525   3.729   8.262  12.576
60265W        W19526  13.316  33.482  13.336
60266W        W19527  25.576  31.425   3.673
60267W        W19528   5.303  34.915   2.302
60268W        W19529   9.321  33.426   3.328
60269W        W19530  43.800   4.389  14.031
60270W        W19531  25.553  39.015   4.188
60271W        W19532  26.698  11.746   3.693
60272W        W19533  30.002   0.457   4.296
60273W        W19534   1.785  21.557   0.921
60274W        W19535   2.244  10.220  10.642
60275W        W19536  27.458  14.712  10.452
60276W        W19537  42.423  18.253   2.891
60277W        W19538  27.603  16.790   1.846
60278W        W19539  19.041  18.219   3.714
60279W        W19540  37.995  35.896  13.401
60280W        W19541   5.834  13.286   0.776
60281W        W19542  36.533   6.808  12.567
60282W        W19543  44.314  37.492  14.504
60283W        W19544  35.570  39.906   2.294
60284W        W19545  26.608   4.819   3.782
60285W        W19546  29.946  41.307   0.479
60286W        W19547  24.667  41.995  14.858
60287W        W19548   0.819  33.557  12.898
60288W        W19549  26.152  24.587   0.887
60289W        W19550  33.594   6.806   4.114
60290W        W19551  42.510  36.591   0.451
60291W        W19552   0.851  12.674   4.341
60292W        W19553  11.167  40.459  13.843
60293W        W19554  10.698   8.326  13.037
60294W        W19555  34.520  11.784   0.423
60295W        W19556  23.092  39.974  11.065
60296W        W19557  14.734  30.530  12.353
60297W        W19558  14.156   8.251   1.931
60298W        W19559   1.784  17.235  12.968
60299W        W19560  27.035  16.193   1.450
60300W        W19561  28.936  35.960  10.425
60301W        W19562  23.600  40.869  14.416
60302W        W19563  29.576   9.248   3.175
60303W        W19564  27.097  30.657  13.857
60304W        W19565  40.437  40.393  14.335
60305W        W19566   6.908  40.986   0.306
60306W        W19567  31.077  35.512  14.965
60307W        W19568   0.949  24.518  12.522
60308W        W19569  35.043  39.983  11.458
60309W        W19570  40.476  23.648   1.357
60310W        W19571  26.560  41.322  11.081
60311W        W19572  43.780  41.038  15.000
60312W        W19573   1.307  16.567  11.425
60313W        W19574  38.438  16.126  12.837
60314W        W19575   0.308  32.409  11.865
60315W        W19576  34.613  35.368   0.912
60316W        W19577   6.301   8.850   9.948
60317W        W19578  36.066  29.113  12.038
60318W        W19579  40.455  13.151   3.320
60319W        W19580   1.404  37.884  11.044
60320W        W19581  24.147  27.454  11.395
60321W        W19582  18.130  33.614  12.538
60322W        W19583  21.752  27.626   3.750
60323W        W19584   7.898  34.115   1.707
60324W        W19585  14.195  28.052  12.343
60325W        W19586   9.766  25.649  11.050
60326W        W19587  33.534  17.715   0.358
60327W        W19588  21.604  25.148   2.798
60328W        W19589  35.507   4.863  13.972
60329W        W19590  42.465   2.276   1.262
60330W        W19591   5.275   5.824  12.404
60331W        W19592   5.301  30.053  14.992
60332W        W19593  21.649  39.839  14.343
60333W        W19594  38.876  43.449  12.341
60334W        W19595  20.570  36.400  14.860
60335W        W19596   0.890  10.288  12.947
60336W        W19597   4.929  22.649  12.928
60337W        W19598   6.828  27.603  11.893
60338W        W19599  42.382  43.016   4.295
60339W        W19600  16.767  36.398  14.765
60340W        W19601  16.725  11.153   2.286
60341W        W19602  36.374   3.450  10.023
60342W        W19603   5.429   7.808   1.742
60343W        W19604  23.090  41.946   2.352
60344W        W19605  12.282   3.424  13.865
60345W        W19606   6.371  28.963   3.308
60346W        W19607  15.686  22.524  12.074
60347W        W19608  13.154  13.795  12.074
60348W        W19609  29.433  41.977  13.013
60349W        W19610  11.804  37.843   4.834
60350W        W19611  21.588  43.310   3.179
60351W        W19612  35.423  28.613   2.859
60352W        W19613  42.995   2.722  14.402
60353W        W19614  33.610  33.589  11.546
60354W        W19615  26.022  22.174   1.781
60355W        W19616  42.938  26.496  14.331
60356W        W19617  19.721  32.600  10.425
60357W        W19618   5.428  29.927  12.435
60358W        W19619  30.158  31.623   4.156
60359W        W19620   2.438   9.743   2.692
60360W        W19621  28.645   3.837   0.296
60361W        W19622  42.932  33.995  14.421
60362W        W19623   7.693   4.706   5.278
60363W        W19624   9.284   5.280   9.497
60364W        W19625  10.370  41.374   1.764
60365W        W19626  25.217   0.301   4.832
60366W        W19627  40.410  30.577   2.854
60367W        W19628  35.577  24.688  14.867
60368W        W19629  12.166   7.792  13.003
60369W        W19630  31.517  36.942   0.948
60370W        W19631  32.945  38.061   1.374
60371W        W19632  43.904  15.671   1.813
60372W        W19633  30.014  36.089   3.217
60373W        W19634  29.001  13.218   2.304
60374W        W19635  23.614  13.301   0.817
60375W        W19636   8.197  10.849   3.694
60376W        W19637   8.321  14.825  11.956
60377W        W19638  38.969  25.106  13.951
60378W        W19639  16.103  10.679   0.290
60379W        W19640  15.770  26.054   4.344
60380W        W19641  31.068  37.375   3.712
60381W        W19642  25.597  20.068  13.986
60382W        W19643  25.055   7.690   2.719
60383W        W19644  20.604   4.742   4.315
60384W        W19645  17.670  42.832  13.855
60385W        W19646  16.787  43.407  11.432
60386W        W19647   7.341  39.413  12.990
60387W        W19648  10.336  24.175  10.972
60388W        W19649  10.310  37.935   0.835
60389W        W19650  16.803  42.803  11.571
60390W        W19651  27.644  41.036  13.377
60391W        W19652   1.779  33.984   4.631
60392W        W19653   4.372  41.322  12.424
60393W        W19654  43.502   7.395  13.791
60394W        W19655  41.522  38.539   1.275
60395W        W19656  30.449  21.636  12.996
60396W        W19657  13.790  11.643   0.461
60397W        W19658  17.611   0.937   4.746
60398W        W19659  11.730  15.235   1.295
60399W        W19660  17.145  35.545  10.473
60400W        W19661   1.359  33.130  13.825
60401W        W19662  15.578   1.260   2.880
60402W        W19663  43.944  17.676  11.371
60403W        W19664  17.263  26.589  11.936
60404W        W19665  20.628  42.430   0.249
60405W        W19666  12.133   4.286  13.999
60406W        W19667   8.779  19.550   3.787
60407W        W19668  14.753  23.985   3.227
60408W        W19669   6.375  37.546  11.909
60409W        W19670   7.896  15.795  11.385
60410W        W19671  21.589  21.616  12.897
60411W        W19672  11.198  37.377  11.049
60412W        W19673   9.806  23.106  11.509
60413W        W19674   1.271  21.113   1.248
60414W        W19675   5.893   0.278  13.532
60415W        W19676  35.071  29.932   4.181
60416W        W19677  35.556  24.035   2.902
60417W        W19678   1.474  18.580  14.968
60418W        W19679  33.510  44.448  12.526
60419W        W19680  42.478  39.418   4.612
60420W        W19681  36.385   9.320   0.304
60421W        W19682   1.429  18.088  13.460
60422W        W19683  40.884  11.336   3.204
60423W        W19684  32.408  43.447   2.207
60424W        W19685  43.276  15.308   0.761
60425W        W19686   5.220  27.486  10.623
60426W        W19687  21.235  32.526  13.319
60427W        W19688  37.577   0.789   2.664
60428W        W19689  24.010  41.858  10.459
60429W        W19690  23.550  13.187   1.788
60430W        W19691   6.816  43.994  13.435
60431W        W19692  38.980  32.599  10.549
60432W        W19693  13.320  11.329   0.431
60433W        W19694  39.026  16.252  11.988
60434W        W19695  30.581  30.940   1.440
60435W        W19696  41.440  37.053  13.352
60436W        W19697   6.393  24.544  10.915
60437W        W19698  18.633  29.989  10.426
60438W        W19699  34.534  40.418   4.234
60439W        W19700   4.791  19.694   2.185
60440W        W19701  28.000  12.343   1.415
60441W        W19702  39.414  16.812   0.841
60442W        W19703  42.518  33.590   0.253
60443W        W19704  25.145  31.050  11.416
60444W        W19705   2.759  15.246   4.134
60445W        W19706  13.750  19.141   3.733
60446W        W19707  31.065  38.857  13.827
60447W        W19708  40.909  10.794  13.500
60448W        W19709  40.970  32.623  11.999
60449W        W19710  22.100  27.448  14.793
60450W        W19711   6.871  28.548  14.016
60451W        W19712  36.018  34.107   4.745
60452W        W19713  23.729  35.084   3.815
60453W        W19714  15.328  43.352  12.999
60454W        W19715   8.255  31.913   1.451
60455W        W19716  38.485   0.351  13.374
60456W        W19717  37.529  26.014  14.447
60457W        W19718   8.740  25.648   2.699
60458W        W19719  42.840  32.133  14.359
60459W        W19720  11.285   6.252  14.889
60460W        W19721   0.304  33.942   2.818
60461W        W19722  24.079  40.011   1.858
60462W        W19723  37.454  19.612   3.687
60463W        W19724   4.849  26.549   0.449
60464W        W19725  21.543  39.970  12.006
60465W        W19726  42.450  26.037  11.426
60466W        W19727  43.310  29.668   1.906
60467W        W19728   0.412  40.052  13.813
60468W        W19729  18.229  17.083   1.812
60469W        W19730  17.790  43.291  13.871
60470W        W19731  41.420  29.491   1.228
60471W        W19732  38.433   4.374  11.499
60472W        W19733  34.446  21.127  13.835
60473W        W19734  10.316  10.143  12.961
60474W        W19735  23.652   7.210   2.188
60475W        W19736   8.747  15.238   5.111
60476W        W19737   2.310  24.228   5.266
60477W        W19738  24.115  36.547  10.893
60478W        W19739   4.315  35.510  12.561
60479W        W19740  18.084  19.248  13.367
60480W        W19741  26.995  29.165   4.227
60481W        W19742  32.960   8.331   0.959
60482W        W19743  31.550  42.000   9.633
60483W        W19744  42.858  33.101  14.500
60484W        W19745  31.476  42.309   1.822
60485W        W19746  12.211  33.108   2.899
60486W        W19747  14.614  42.807   4.224
60487W        W19748  38.961   7.233  12.564
60488W        W19749  43.405   8.755  14.852
60489W        W19750  24.986  12.834   0.270
60490W        W19751  15.604   7.225   1.256
60491W        W19752  34.932  21.175  10.405
60492W        W19753  40.044  29.927  12.953
60493W        W19754  41.452  12.246   2.187
60494W        W19755  21.021   4.743  13.853
60495W        W19756  39.374  11.852  13.035
60496W        W19757  11.350  31.035   4.328
60497W        W19758  30.069  25.211   2.198
60498W        W19759  28.055  26.187   1.812
60499W        W19760  35.518  29.475  13.501
60500W        W19761  42.845   1.761  14.284
60501W        W19762  15.709  28.065   2.767
60502W        W19763   4.303  41.509   0.250
60503W        W19764   3.862  32.590  10.899
60504W        W19765  43.293  15.663  10.412
60505W        W19766   7.668   8.343  12.467
60506W        W19767  17.702  13.661  14.787
60507W        W19768   5.261  26.035   2.283
60508W        W19769   0.446  15.713   3.377
60509W        W19770  37.515  19.701   0.754
60510W        W19771  12.690  35.568   1.726
60511W        W19772  12.201  34.877  11.404
60512W        W19773  31.088  32.001  13.499
60513W        W19774  43.507  15.248   4.675
60514W        W19775  27.661  24.570  11.419
60515W        W19776  34.979   8.892  14.986
60516W        W19777  19.548  22.251   2.757
60517W        W19778  32.478   9.662   3.239
60518W        W19779  22.111  13.105   1.434
60519W        W19780  28.503  12.856   0.839
60520W        W19781  21.569  24.119  12.520
60521W        W19782   6.401  27.673  14.990
60522W        W19783  29.443  12.308  10.539
60523W        W19784  32.985  27.105   1.391
60524W        W19785  24.020  36.592  13.812
60525W        W19786  42.800   5.709   1.828
60526W        W19787  34.513   6.401   0.813
60527W        W19788  29.971  23.123  14.903
60528W        W19789  23.514   2.845  12.833
60529W        W19790  17.565   7.848   1.432
60530W        W19791   5.227  19.585  12.930
60531W        W19792  23.121  16.725   3.646
60532W        W19793  25.490  34.119  11.062
60533W        W19794   5.210  42.987   2.311
60534W        W19795  28.644  15.678   2.316
60535W        W19796  31.502  39.445   1.319
60536W        W19797  24.659  30.108   2.334
60537W        W19798  34.369  16.267  12.937
60538W        W19799  35.402  35.934  14.474
60539W        W19800  18.791  16.705   2.271
60540W        W19801  33.405  19.110   4.803
60541W        W19802  27.554  17.561  11.453
60542W        W19803  11.726  32.505   1.426
60543W        W19804  20.527  18.777  14.011
60544W        W19805  44.777  41.851  12.391
60545W        W19806  35.909  37.844   3.799
60546W        W19807   3.762   8.191   2.292
60547W        W19808  11.244  24.181   1.380
60548W        W19809  30.638  35.859   5.200
60549W        W19810  38.058   6.395   3.643
60550W        W19811  44.456   7.711  10.996
60551W        W19812   0.319  36.366  13.480
60552W        W19813  16.779  44.802  14.339
60553W        W19814  43.767   2.425   2.786
60554W        W19815  12.142  29.163   3.715
60555W        W19816  18.074  21.204  12.940
60556W        W19817  18.608  21.593   3.311
60557W        W19818  42.953   7.400   4.622
60558W        W19819  10.648  12.142   1.297
60559W        W19820  28.520  40.857  14.905
60560W        W19821   9.781   4.733  11.030
60561W        W19822   5.878  18.256  12.933
60562W        W19823  38.866  25.602   3.346
60563W        W19824  35.027  29.986   1.315
60564W        W19825  29.439  30.484  13.980
60565W        W19826   4.877  24.088   1.322
60566W        W19827  36.856   3.763  14.473
60567W        W19828  26.012   2.944   1.342
60568W        W19829  22.723  37.894  13.469
60569W        W19830  33.052   0.885  14.373
60570W        W19831   4.214  11.714  13.822
60571W        W19832   9.863  19.051   2.865
60572W        W19833  43.452  25.177   3.706
60573W        W19834  22.679  13.706   2.214
60574W        W19835  28.057  40.005  14.796
60575W        W19836  30.467  16.222  14.391
60576W        W19837  39.868  17.709  10.921
60577W        W19838   7.236  41.799   0.381
60578W        W19839   7.853   7.894   1.851
60579W        W19840   1.823  12.123   0.348
60580W        W19841  41.532  31.447  14.505
60581W        W19842   6.735  34.490   0.732
60582W        W19843  23.048  22.620   3.637
60583W        W19844   2.720  42.313   4.300
60584W        W19845  27.534   7.263   0.400
60585W        W19846  32.109  33.500  11.437
60586W        W19847  44.849   5.258  14.902
60587W        W19848  21.535  28.182  11.064
60588W        W19849   1.424   1.957   1.864
60589W        W19850  17.212  23.552   0.770
60590W        W19851  13.293   1.820   0.255
60591W        W19852  44.368   0.292  11.003
60592W        W19853  19.215  10.201  12.902
60593W        W19854  32.068  42.851   3.868
60594W        W19855  42.012  25.700  11.902
60595W        W19856  17.750  14.222  13.064
60596W        W19857  11.211   0.428  12.567
60597W        W19858  20.210  10.153   0.316
60598W        W19859  31.433  42.970  12.843
60599W        W19860  12.662  33.388  12.574
60600W        W19861  16.728  24.564   1.286
60601W        W19862  40.357   5.707  11.540
60602W        W19863   2.802  40.421  11.043
60603W        W19864  21.080   5.736  13.920
60604W        W19865  17.746  26.663   0.444
60605W        W19866  35.386  18.208   4.302
60606W        W19867   0.826  43.514   0.388
60607W        W19868  24.542  42.892  14.514
60608W        W19869   1.307  10.726  13.950
60609W        W19870   6.370  19.776  14.849
60610W        W19871  34.868  16.607   1.911
60611W        W19872  13.656  27.651  14.760
60612W        W19873  40.373   1.442  10.413
60613W        W19874  25.634   3.804   1.291
60614W        W19875  10.864  24.546  14.863
60615W        W19876  38.916  32.544  12.491
60616W        W19877   7.729   3.756   0.322
60617W        W19878  17.708   7.352   0.308
60618W        W19879   9.773   9.266  11.395
60619W        W19880  35.497  21.055   4.141
60620W        W19881  32.085  15.685  12.016
60621W        W19882  26.548  44.353  12.039
60622W        W19883  21.597  21.107   0.914
60623W        W19884  14.789  34.057   2.278
60624W        W19885  21.175  32.410   4.624
60625W        W19886   9.163   1.380  12.075
60626W        W19887  16.775  17.179  11.932
60627W        W19888  43.907  35.075   2.261
60628W        W19889  32.109  39.507   3.222
60629W        W19890  40.418  31.007  12.947
60630W        W19891  12.161   2.283   5.667
60631W        W19892  37.929  33.510   3.793
60632W        W19893  25.969   4.851   0.934
60633W        W19894  24.990  27.108  13.060
60634W        W19895  26.703  21.123   0.348
60635W        W19896  35.885   7.890  11.919
60636W        W19897  24.663  31.024   2.727
60637W        W19898  29.479  41.361  11.468
60638W        W19899   9.312   8.789  14.389
60639W        W19900  33.498  35.919   3.273
60640W        W19901  41.371  25.625  14.906
60641W        W19902  37.483  27.513  11.439
60642W        W19903  27.659  17.570  10.633
60643W        W19904  33.048  30.986   4.615
60644W        W19905  39.973  34.917   1.810
60645W        W19906  33.927   8.171   0.866
60646W        W19907  23.617  31.570   3.287
60647W        W19908  13.317   5.702  12.074
60648W        W19909  44.947  13.662   2.211
60649W        W19910  25.473  29.632   3.216
60650W        W19911  27.552  34.083  13.342
60651W        W19912  29.970  22.012  10.962
60652W        W19913  12.732  33.108  14.425
60653W        W19914   3.763  14.802   0.390
60654W        W19915   4.221  32.033  10.922
60655W        W19916  18.272  30.131   0.791
60656W        W19917  41.951  37.510   4.238
60657W        W19918  27.975   8.740   5.152
60658W        W19919   6.403  34.403   1.838
60659W        W19920  35.538  12.637  13.821
60660W        W19921  31.077  41.357   3.792
60661W        W19922  35.488   6.281  12.824
60662W        W19923  10.668  35.445  11.407
60663W        W19924  28.152  37.402  12.412
60664W        W19925  18.573  44.505  14.392
60665W        W19926  33.420  31.925   4.758
60666W        W19927  43.961  28.032  11.462
60667W        W19928  35.558  24.591   1.726
60668W        W19929  24.596  33.559   4.279
60669W        W19930   3.861  33.020  11.456
60670W        W19931  27.690  35.020   4.702
60671W        W19932  15.600  24.987   3.719
60672W        W19933  34.031  38.570   4.766
60673W        W19934   2.442  29.471  14.380
60674W        W19935  24.070   7.793   3.267
60675W        W19936  24.138  35.854  12.836
60676W        W19937  17.586  43.768   3.385
60677W        W19938  14.812  20.634   0.371
60678W        W19939  23.570  27.049   3.717
60679W        W19940  13.345  41.028  13.865
60680W        W19941  34.019  30.553  10.488
60681W        W19942   8.859   1.270   0.295
60682W        W19943  19.672  41.803   1.307
60683W        W19944   1.935  13.804   1.284
60684W        W19945   3.715  33.456  11.020
60685W        W19946  11.137  26.105  11.122
60686W        W19947  34.918  34.546  13.978
60687W        W19948  40.454  21.656   3.183
60688W        W19949  21.116  22.747  10.052
60689W        W19950  24.486  30.571  11.935
60690W        W19951   3.221   9.170  12.362
60691W        W19952  25.002   6.363   3.733
60692W        W19953   2.453  16.590   2.681
60693W        W19954  15.305  18.078   0.450
60694W        W19955  26.643  19.203   4.233
60695W        W19956  30.941  39.432   2.415
60696W        W19957  33.932  28.582  11.015
60697W        W19958   5.784  30.450   0.384
60698W        W19959   3.409  15.089   0.880
60699W        W19960  27.623  43.417  11.073
60700W        W19961   1.340  44.824   4.120
60701W        W19962  22.018  10.330  10.906
60702W        W19963  18.680  33.107   4.211
60703W        W19964  31.541  13.841   3.299
60704W        W19965   1.449  37.437  14.451
60705W        W19966  44.283   0.966  13.905
60706W        W19967  40.971  28.663  13.957
60707W        W19968  27.610   3.830   2.845
60708W        W19969  43.488  35.008   3.675
60709W        W19970  35.414  29.431  13.820
60710W        W19971  36.348  41.472  12.849
60711W        W19972   7.764   8.161   0.318
60712W        W19973  12.262  42.521   4.805
60713W        W19974  42.355  27.038   1.400
60714W        W19975  11.245  20.701  12.880
60715W        W19976  30.097  37.976   2.788
60716W        W19977  43.366   5.930   0.763
60717W        W19978   3.412   7.352  11.114
60718W        W19979  22.185  36.888  11.996
60719W        W19980  28.182  21.615  14.447
60720W        W19981  42.400   3.399  14.857
60721W        W19982  36.028  20.527   0.434
60722W        W19983   7.199  14.812   0.294
60723W        W19984   3.430  41.915   1.865
60724W        W19985  44.818  27.550  14.020
60725W        W19986   2.874  37.376  13.879
60726W        W19987  39.935  18.202   1.302
60727W        W19988  24.670   4.916  13.988
60728W        W19989  17.105  35.909   3.806
60729W        W19990  29.642  29.112  10.454
60730W        W19991  25.613  13.795  14.293
60731W        W19992  42.849  24.226   4.659
60732W        W19993   7.229  22.651  10.415
60733W        W19994  37.408   4.913  13.904
60734W        W19995  12.229  24.078   0.339
60735W        W19996  10.166  12.275   4.193
60736W        W19997  39.526   8.260  12.085
60737W        W19998  41.436  16.783   2.283
60738W        W19999  31.897  34.880   2.271
60739W        W20000  33.583   2.852   0.946
60740W        W20001   0.855  16.093  10.632
60741W        W20002  20.724   9.834  13.063
60742W        W20003  14.136   2.263   0.256
60743W        W20004  32.973  39.032   4.765
60744W        W20005  35.523  27.666   1.843
60745W        W20006  44.326   2.788  10.594
60746W        W20007   0.425  28.541   3.160
60747W        W20008   1.765   7.701   3.337
60748W        W20009  21.693  11.251  11.558
60749W        W20010  34.079  29.965  10.448
60750W        W20011  44.979   5.895   0.467
60751W        W20012  21.745  28.180  12.000
60752W        W20013  26.652  11.215   2.223
60753W        W20014  29.029  40.333  13.436
60754W        W20015  33.958  36.986  12.037
60755W        W20016  43.373   0.904   4.130
60756W        W20017  29.453  15.307   3.841
60757W        W20018  41.361  21.106  11.965
60758W        W20019  17.073  13.232  14.306
60759W        W20020  14.628  34.010  10.563
60760W        W20021  38.329  29.986  12.888
60761W        W20022  23.094  25.696   1.434
60762W        W20023  22.115  18.606   2.232
60763W        W20024  28.459  30.080   0.791
60764W        W20025   8.713  42.349  10.512
60765W        W20026  41.014  15.648  13.501
60766W        W20027   6.227  23.041  12.549
60767W        W20028  42.963  38.407   1.315
60768W        W20029  42.784  39.484  13.428
60769W        W20030  22.156   7.229   0.806
60770W        W20031  19.705  43.360  13.910
60771W        W20032   5.433  32.408  12.021
60772W        W20033  30.560   2.858  12.033
60773W        W20034  12.828  12.737  13.805
60774W        W20035  10.350  36.459  13.531
60775W        W20036  32.449  23.536   3.798
60776W        W20037  34.612  13.248  12.018
60777W        W20038  26.517   1.249   0.400
60778W        W20039  39.858   9.793   1.361
60779W        W20040  28.486   5.219  12.897
60780W        W20041  14.193  22.692   3.860
60781W        W20042  13.625  15.128   4.121
60782W        W20043  34.066  31.904   3.319
60783W        W20044  10.270  41.949  12.880
60784W        W20045   9.822  30.595  11.430
60785W        W20046  32.922  29.976  12.009
60786W        W20047  18.578  20.235   1.238
60787W        W20048  30.546   8.743   0.922
60788W        W20049  12.733  12.687   0.922
60789W        W20050  23.063   0.792  10.487
60790W        W20051  34.431  17.764   1.813
60791W        W20052   3.381   1.867  13.519
60792W        W20053  26.019  13.166  11.566
60793W        W20054  15.086  34.604   4.296
60794W        W20055  41.877  33.509  10.447
60795W        W20056   1.902  29.140  10.525
60796W        W20057  16.286   1.340   3.643
60797W        W20058  22.165  39.941   4.122
60798W        W20059  34.102  14.167   1.711
60799W        W20060  26.007   8.885   0.804
60800W        W20061  32.885  39.897  14.378
60801W        W20062  27.537  17.586   3.334
60802W        W20063  10.271  35.050  14.991
60803W        W20064   9.373  25.038   3.249
60804W        W20065  10.148   9.783  11.505
60805W        W20066  37.865  20.583  13.362
60806W        W20067  30.967  26.619  10.441
60807W        W20068  41.385   5.816  11.921
60808W        W20069   0.292  18.101  12.570
60809W        W20070   6.355  41.873  11.900
60810W        W20071  43.817  34.567  11.920
60811W        W20072  39.316   8.321  10.612
60812W        W20073  29.546   2.313  14.817
60813W        W20074  31.912  10.803  13.047
60814W        W20075  33.959  27.064  13.878
60815W        W20076  22.238  12.755  12.496
60816W        W20077   3.915   1.399  13.359
60817W        W20078  28.619   9.336  11.030
60818W        W20079  11.351  27.114  12.523
60819W        W20080  21.155  11.762  14.848
60820W        W20081  31.934  38.990  13.926
60821W        W20082  34.524  39.016  13.878
60822W        W20083   5.868  34.515  14.380
60823W        W20084  20.202  13.842  11.419
60824W        W20085  18.665   7.773  12.456
60825W        W20086  41.950  38.384   0.483
60826W        W20087  24.136   3.786   1.794
60827W        W20088  43.357  18.063   2.380
60828W        W20089  17.654  44.918  12.507
60829W        W20090  13.653  20.677   4.222
60830W        W20091   7.723   4.747   3.816
60831W        W20092  28.650  40.957  13.419
60832W        W20093  39.472   9.807   2.748
60833W        W20094  17.690  16.685   1.383
60834W        W20095  29.004  23.192   1.292
60835W        W20096  10.361   6.385  11.910
60836W        W20097  20.054  23.063   3.732
60837W        W20098  11.235  26.119   0.903
60838W        W20099  38.861  14.618  11.071
60839W        W20100  18.237  22.180  11.436
60840W        W20101  44.762  17.172   2.327
60841W        W20102   4.707  10.737  14.959
60842W        W20103   4.875  24.491   5.192
60843W        W20104  21.629  23.214   1.801
60844W        W20105   0.425  26.594  12.566
60845W        W20106  42.353   0.396   4.797
60846W        W20107  20.553  41.350   2.394
60847W        W20108  36.465  41.377   0.951
60848W        W20109  35.951  29.654  11.119
60849W        W20110  17.650  20.130  14.994
60850W        W20111  11.210  27.177   4.180
60851W        W20112  32.909  19.599  11.529
60852W        W20113  33.932  31.981  13.031
60853W        W20114  17.665   6.343  10.499
60854W        W20115  29.453  35.001  13.843
60855W        W20116  29.955  14.827  11.988
60856W        W20117   9.830  24.642  11.585
60857W        W20118  38.020  40.326  13.923
60858W        W20119  35.911  28.612  12.475
60859W        W20120  21.554  30.928  14.010
60860W        W20121  35.046  14.651   2.209
60861W        W20122  25.556  29.036  11.887
60862W        W20123  30.050  31.645  12.459
60863W        W20124  31.129  41.440   4.598
60864W        W20125  15.308  10.267  12.406
60865W        W20126   5.434   5.295  11.991
60866W        W20127   3.261  10.159   1.857
60867W        W20128  42.300  36.923   9.948
60868W        W20129  42.368  41.992  10.527
60869W        W20130  36.398  37.458   3.837
60870W        W20131  22.206  25.134  13.794
60871W        W20132   1.876   0.930   1.722
60872W        W20133  35.091   5.841  14.015
60873W        W20134  29.509  19.285   3.734
60874W        W20135  20.102  17.687   0.332
60875W        W20136   7.370   6.747  14.401
60876W        W20137  22.711   9.335  12.507
60877W        W20138  15.653  20.559  11.114
60878W        W20139  16.791  40.842   4.691
60879W        W20140  21.253  44.896   4.706
60880W        W20141  39.064   6.782   4.251
60881W        W20142  43.473   8.671   4.732
60882W        W20143   4.736  10.242   2.247
60883W        W20144  36.055  40.540  12.577
60884W        W20145  42.415  28.659   4.122
60885W        W20146  12.644  32.906   3.708
60886W        W20147  29.954  25.539  12.564
60887W        W20148  13.213  14.315   2.853
60888W        W20149  11.340  43.410  12.890
60889W        W20150  36.548  25.187  10.620
60890W        W20151  26.048  14.734   1.272
60891W        W20152  16.303  32.530  14.327
60892W        W20153  24.679  39.318  13.834
60893W        W20154  12.315  15.109  10.436
60894W        W20155  14.129  36.535   2.255
60895W        W20156   8.895  30.574   9.935
60896W        W20157  13.286  19.211   4.211
60897W        W20158   9.323  34.061   3.689
60898W        W20159  18.228  11.205   0.266
60899W        W20160  40.013  37.521  14.014
60900W        W20161  10.147  12.697  13.348
60901W        W20162   7.294  44.436  14.893
60902W        W20163   1.443  11.298   2.241
60903W        W20164  40.449  11.765   3.820
60904W        W20165  23.179  39.812  14.870
60905W        W20166  36.907  15.294   1.243
60906W        W20167  11.287  13.733  13.030
60907W        W20168  21.237  24.639  10.057
60908W        W20169  39.509  10.380  14.791
60909W        W20170  14.699   2.881  11.069
60910W        W20171  28.591  23.106  10.434
60911W        W20172  10.336   4.919   1.720
60912W        W20173  10.749   3.786   9.462
60913W        W20174  25.017   4.215  14.957
60914W        W20175  29.442  22.030  10.950
60915W        W20176  21.144   9.796   1.317
60916W        W20177  27.119   4.742   2.897
60917W        W20178   7.232  42.985  13.844
60918W        W20179   8.854  10.663  10.972
60919W        W20180  18.659   7.894  14.909
60920W        W20181  44.995  41.337   2.713
60921W        W20182   5.841   5.894   4.757
60922W        W20183  23.712  16.580   0.309
60923W        W20184  41.812  25.706   1.805
60924W        W20185   9.777  20.616   2.231
60925W        W20186  13.836   8.264  12.884
60926W        W20187  38.000   7.239  14.930
60927W        W20188  32.397  35.373  14.820
60928W        W20189  38.433   2.733   2.700
60929W        W20190  39.958  10.740   1.873
60930W        W20191  16.236  40.900  10.510
60931W        W20192   4.711  26.161   2.805
60932W        W20193  35.905  36.869   3.359
60933W        W20194  20.229  17.244  12.368
60934W        W20195  44.000  28.474  14.411
60935W        W20196  28.071  43.927  12.052
60936W        W20197  43.943  26.524   2.868
60937W        W20198   5.243  37.398   0.397
60938W        W20199  28.506  10.636  14.949
60939W        W20200  10.693  40.868   1.349
60940W        W20201  11.290  43.796  11.940
60941W        W20202  15.629  25.991   3.666
60942W        W20203  26.562  34.389  12.553
60943W        W20204  44.902   8.310  12.904
60944W        W20205  13.768  26.055   4.194
60945W        W20206  44.865  20.671  13.526
60946W        W20207  42.359  28.939   3.199
60947W        W20208  38.028  41.930  12.847
60948W        W20209   9.759   6.242  13.973
60949W        W20210  23.223  43.911  12.510
60950W        W20211  29.443  14.779  14.900
60951W        W20212  21.735   5.780   0.373
60952W        W20213  22.121   7.377  12.083
60953W        W20214  42.309  10.673  10.618
60954W        W20215   3.417   6.780  12.554
60955W        W20216   3.336  19.232   4.170
60956W        W20217   3.252  16.806  13.801
60957W        W20218   8.278  42.917  14.382
60958W        W20219  10.823  30.975  10.891
60959W        W20220  14.294  32.617  11.559
60960W        W20221   2.811  40.024   3.730
60961W        W20222  26.628   5.377  10.435
60962W        W20223  42.521  22.086  14.852
60963W        W20224   9.379  37.017  11.422
60964W        W20225   8.774   9.877   0.247
60965W        W20226  14.196   9.729  14.422
60966W        W20227  34.571  25.052  13.048
60967W        W20228  17.631   6.336  12.928
60968W        W20229  18.745  32.607  13.499
60969W        W20230  23.579  18.115   1.291
60970W        W20231   0.446  12.251   4.254
60971W        W20232   9.364  30.538  10.944
60972W        W20233  28.455  29.004  11.014
60973W        W20234  10.843  23.560  13.866
60974W        W20235  39.355  19.205  12.907
60975W        W20236  37.024  37.465  11.415
60976W        W20237  21.517  16.692  13.802
60977W        W20238  20.207  16.187   3.827
60978W        W20239  10.833  44.412   2.366
60979W        W20240  32.497   6.332   2.185
60980W        W20241  24.625  41.528  11.591
60981W        W20242  38.999  24.517  10.616
60982W        W20243  14.605   2.935  13.435
60983W        W20244  18.151  20.167   0.470
60984W        W20245  11.776  24.060   0.823
60985W        W20246  21.081  20.756   2.396
60986W        W20247  28.974   5.379   2.788
60987W        W20248  25.489  35.572   2.272
60988W        W20249  42.346  33.558   2.340
60989W        W20250  37.393   9.225   3.673
60990W        W20251  11.143  31.936  10.606
60991W        W20252   0.887  31.466  13.881
60992W        W20253   8.343   4.933   3.664
60993W        W20254  19.757  20.215   3.186
60994W        W20255  38.542  31.628  11.069
60995W        W20256  40.951  30.127   3.811
60996W        W20257  17.104  12.730   0.311
60997W        W20258  35.368  18.107   0.439
60998W        W20259   6.313  21.585  14.009
60999W        W20260  22.008  41.948  10.539
61000W        W20261  39.971  23.104  13.020
61001W        W20262  44.827  30.621   3.745
61002W        W20263  35.517  15.644  12.386
61003W        W20264  24.501  37.386   5.147
61004W        W20265  44.262  27.946   0.248
61005W        W20266  38.387  31.524  11.951
61006W        W20267  24.564   3.340   1.298
61007W        W20268   8.698  20.140  11.443
61008W        W20269   0.274  33.951   1.854
61009W        W20270  36.522   9.344  10.917
61010W        W20271  41.526   5.711   0.894
61011W        W20272  39.377  15.730  11.120
61012W        W20273   1.246  28.113   3.246
61013W        W20274  44.469  10.713  14.306
61014W        W20275  25.117  36.031   0.336
61015W        W20276  44.950  30.593   2.311
61016W        W20277   1.974   4.232   3.685
61017W        W20278  40.805   0.396  14.422
61018W        W20279   9.236  16.717  12.926
61019W        W20280  37.059  27.456   1.309
61020W        W20281  30.591  16.582  14.311
61021W        W20282  41.872  14.808   1.276
61022W        W20283  30.631  36.541   4.607
61023W        W20284   0.935  41.369   4.738
61024W        W20285  24.101   8.748  10.071
61025W        W20286  23.644  40.494  12.920
61026W        W20287  36.528   5.221  13.954
61027W        W20288  44.778  37.850   3.244
61028W        W20289   4.811  37.375   1.228
61029W        W20290  11.178  43.946  12.985
61030W        W20291  36.528  20.547   3.203
61031W        W20292  10.723  11.737  11.998
61032W        W20293  33.917  13.653  12.827
61033W        W20294  23.609  36.913   0.935
61034W        W20295   6.702  16.754  14.483
61035W        W20296   9.325  20.115  11.075
61036W        W20297   8.882   1.362   1.345
61037W        W20298  37.985  19.074  14.017
61038W        W20299  32.403  16.112   0.771
61039W        W20300   6.796  43.908   2.255
61040W        W20301  24.088  10.784   3.176
61041W        W20302  27.577   1.331   0.865
61042W        W20303  28.042   3.288  12.351
61043W        W20304  30.525   0.962   4.818
61044W        W20305   2.756  37.361  12.571
61045W        W20306   7.258  33.498   1.389
61046W        W20307  17.132  44.845  13.444
61047W        W20308  41.022   0.256  11.463
61048W        W20309  11.257  11.844  11.501
61049W        W20310   9.165  25.208   2.227
61050W        W20311  31.940   8.891  12.012
61051W        W20312  10.831   6.849   4.304
61052W        W20313  40.008  42.406   2.387
61053W        W20314  12.175  16.156   3.248
61054W        W20315  34.979  43.399  14.987
61055W        W20316  17.595  41.935   1.851
61056W        W20317  33.050  21.627  10.476
61057W        W20318  13.774   8.676   0.792
61058W        W20319  38.019  38.395  10.969
61059W        W20320  16.740  10.147   0.451
61060W        W20321   6.881  10.878  13.369
61061W        W20322  30.084  38.331  10.466
61062W        W20323  23.205  34.056   4.213
61063W        W20324   8.271   9.704  11.970
61064W        W20325  14.332   0.272   1.798
61065W        W20326  13.656  26.134   3.693
61066W        W20327   6.332  12.148  13.827
61067W        W20328  22.019  28.669   3.254
61068W        W20329  27.578  16.273   2.385
61069W        W20330  44.265  42.986   1.865
61070W        W20331  29.122  36.427  13.335
61071W        W20332  34.468  31.565  14.929
61072W        W20333  18.158  31.491   0.328
61073W        W20334  29.459  40.524  10.619
61074W        W20335  39.553  28.110  11.555
61075W        W20336  33.092   8.390   5.728
61076W        W20337  20.234  19.775  13.330
61077W        W20338  40.011  42.937  14.797
61078W        W20339  13.838  24.133   1.249
61079W        W20340   0.864  44.487   3.379
61080W        W20341  18.732  39.021   4.668
61081W        W20342  13.275   7.808  12.940
61082W        W20343  23.990  22.225  13.373
61083W        W20344  23.222  23.525  11.400
61084W        W20345   3.714  23.675  11.960
61085W        W20346  10.703  36.865  14.482
61086W        W20347  19.618  21.225  14.482
61087W        W20348  25.989  10.350   0.811
61088W        W20349   6.399  18.129  10.114
61089W        W20350  22.514   7.858  13.382
61090W        W20351  11.302  37.038  14.436
61091W        W20352  11.278  17.220  14.336
61092W        W20353  35.967  10.291  11.087
61093W        W20354  33.501  22.121   4.341
61094W        W20355   3.223  41.883  11.913
61095W        W20356  43.815  12.288  14.780
61096W        W20357  44.317  18.160   3.364
61097W        W20358  21.024  32.451   1.340
61098W        W20359  15.213   1.356  13.407
61099W        W20360  40.347  23.519  11.956
61100W        W20361  24.567  15.656  14.453
61101W        W20362   2.436  21.663   3.268
61102W        W20363  15.752  26.097  11.401
61103W        W20364  24.150   5.755   1.865
61104W        W20365  31.610  32.448   0.269
61105W        W20366  21.612  17.242   3.657
61106W        W20367  43.856  13.182   4.311
61107W        W20368  41.475  18.240  14.298
61108W        W20369  16.177  21.621  11.111
61109W        W20370   8.735  10.662   1.410
61110W        W20371  41.012  36.980   3.820
61111W        W20372   5.223  13.652   1.296
61112W        W20373   1.356  29.468   4.776
61113W        W20374  21.546   1.872   2.826
61114W        W20375   1.869  36.377  14.363
61115W        W20376   1.401   1.473  12.467
61116W        W20377  12.713   3.904  11.404
61117W        W20378  27.662   1.445   0.450
61118W        W20379  26.592  16.754  11.400
61119W        W20380  10.718  24.552   1.887
61120W        W20381  27.969   5.409   3.382
61121W        W20382   5.909  31.979  13.437
61122W        W20383   2.231  12.200   0.483
61123W        W20384  11.354  17.559   5.218
61124W        W20385  12.295  32.030   0.302
61125W        W20386  12.857  38.470   1.399
61126W        W20387  18.056  22.622   4.244
61127W        W20388  17.588  42.827  14.445
61128W        W20389  11.722  33.428  10.404
61129W        W20390  35.567  43.316  11.959
61130W        W20391  13.338  19.599   3.677
61131W        W20392  25.112  29.164  11.505
61132W        W20393  10.677  26.136  13.812
61133W        W20394  13.603   6.306   4.297
61134W        W20395  44.009  17.106   1.767
61135W        W20396  44.475  33.108   1.289
61136W        W20397  29.988  31.503   0.849
61137W        W20398  41.409  14.123   4.267
61138W        W20399  25.093  17.596   1.846
61139W        W20400   1.339  35.539   2.393
61140W        W20401  28.566  26.039   2.315
61141W        W20402  13.756  10.684  14.938
61142W        W20403  36.037   6.410  11.128
61143W        W20404  16.231  36.518   4.260
61144W        W20405  34.590  42.834  14.326
61145W        W20406  21.656  38.454  12.898
61146W        W20407  21.539  30.924   0.308
61147W        W20408  42.426  38.524   2.827
61148W        W20409  35.411   2.329  13.801
61149W        W20410  35.561   8.765   3.303
61150W        W20411  43.398  20.047  13.055
61151W        W20412   0.817  40.880  10.571
61152W        W20413  39.880  32.637   3.652
61153W        W20414  24.208   9.721  12.082
61154W        W20415  35.502  24.147   0.449
61155W        W20416  40.814  23.163  10.597
61156W        W20417  30.072  33.923   1.376
61157W        W20418  41.461   0.276   2.181
61158W        W20419  31.106  21.675  14.499
61159W        W20420  44.894   8.267  11.581
61160W        W20421   0.796  42.366  14.455
61161W        W20422  12.771  42.365  11.983
61162W        W20423  10.205  41.478   2.783
61163W        W20424  27.559  21.571  14.015
61164W        W20425  10.797   5.696  10.488
61165W        W20426   4.372  20.238   2.668
61166W        W20427  22.012  18.656   1.314
61167W        W20428  38.967  10.205  13.915
61168W        W20429  16.708  38.361   2.688
61169W        W20430   1.280   9.305   4.164
61170W        W20431  31.000  44.475  10.587
61171W        W20432  20.744  35.084  13.481
61172W        W20433   6.221   3.379   0.249
61173W        W20434   9.772  10.723  12.988
61174W        W20435  40.413  25.011  12.076
61175W        W20436  35.463  26.952   2.878
61176W        W20437   1.878  28.973  10.917
61177W        W20438  35.963   9.863   1.846
61178W        W20439  20.215  11.794   3.654
61179W        W20440  23.166   9.750  14.308
61180W        W20441  21.533  30.616   2.722
61181W        W20442  11.219  34.885   2.863
61182W        W20443  36.580  44.980   5.312
61183W        W20444  20.092  28.060  13.996
61184W        W20445   7.297  15.584  13.022
61185W        W20446  28.570  20.751   0.889
61186W        W20447  20.067  32.621  12.921
61187W        W20448  23.005  28.992  11.113
61188W        W20449  41.295   9.884   4.776
61189W        W20450  19.268  20.633   3.377
61190W        W20451  10.384  14.094   4.826
61191W        W20452   1.252  20.098   3.863
61192W        W20453   0.343  42.939   1.423
61193W        W20454  17.062   7.368  10.095
61194W        W20455   9.860  41.006  11.478
61195W        W20456  37.521   7.269   2.309
61196W        W20457   8.672  23.537   1.319
61197W        W20458  33.938  15.721   2.324
61198W        W20459  24.569   4.701   0.933
61199W        W20460  34.043   3.410   4.751
61200W        W20461   6.308  12.254   4.154
61201W        W20462  43.916  32.397  14.873
61202W        W20463  43.392  39.429   3.194
61203W        W20464   8.780  44.307   3.638
61204W        W20465  20.749  26.953   9.524
61205W        W20466  17.703  38.952   4.253
61206W        W20467  38.535  16.588  11.502
61207W        W20468  12.722  15.126   1.380
61208W        W20469  13.239  36.910  12.887
61209W        W20470   1.362  16.705  10.544
61210W        W20471  33.976  35.524  14.008
61211W        W20472  33.882  26.533   0.765
61212W        W20473  25.988  37.516   4.300
61213W        W20474  31.986  12.843  12.030
61214W        W20475  23.627  38.072  12.439
61215W        W20476   1.930  24.623   4.150
61216W        W20477   4.914  25.570   2.667
61217W        W20478  25.673  14.179  13.850
61218W        W20479  37.363  33.401  10.434
61219W        W20480  34.543  13.781  13.433
61220W        W20481  14.145   8.890   0.347
61221W        W20482   2.228  18.572  12.376
61222W        W20483  17.264  21.513   1.306
61223W        W20484  30.453   7.399   1.793
61224W        W20485  39.439  33.416   4.293
61225W        W20486  13.631  17.585  14.277
61226W        W20487   4.366  28.998  14.930
61227W        W20488  42.782  19.759   1.863
61228W        W20489   0.960  34.376  14.913
61229W        W20490   1.449  36.385   1.878
61230W        W20491  17.156   6.288   4.831
61231W        W20492  26.998  12.711   4.792
61232W        W20493   2.815   4.738   4.689
61233W        W20494  14.095   8.839   4.699
61234W        W20495  38.043   2.343  14.994
61235W        W20496  42.479   2.854  11.561
61236W        W20497  44.258  36.912   3.846
61237W        W20498  33.404  42.501   2.698
61238W        W20499  23.031   2.945  12.558
61239W        W20500  19.545  24.047   3.778
61240W        W20501  34.095  30.505   2.715
61241W        W20502  32.053  16.712   4.794
61242W        W20503   1.837  36.593  12.090
61243W        W20504  29.097  18.739  10.645
61244W        W20505  29.155  15.161   1.414
61245W        W20506   4.752  44.503   5.145
61246W        W20507  25.621  30.606   3.665
61247W        W20508  14.827  43.385  11.991
61248W        W20509   2.439   1.464   2.843
61249W        W20510  36.039  17.208   2.390
61250W        W20511  13.196   5.757  13.539
61251W        W20512  29.562  14.267   3.842
61252W        W20513  35.902   2.925   3.686
61253W        W20514  35.946  33.417  13.041
61254W        W20515   4.327  10.337   1.922
61255W        W20516  12.316  29.548  12.923
61256W        W20517  34.426  16.746  11.405
61257W        W20518  21.721  31.630   3.805
61258W        W20519   6.301   2.391   0.313
61259W        W20520  34.419  26.179  12.931
61260W        W20521  23.201  43.833   0.463
61261W        W20522  31.980  21.140  10.915
61262W        W20523   1.298  36.080  13.882
61263W        W20524  21.226  19.689  11.973
61264W        W20525  32.430  32.012  12.923
61265W        W20526  38.522  32.035   4.655
61266W        W20527   8.792  26.079  12.355
61267W        W20528   9.685  29.042   2.317
61268W        W20529  10.366  21.625   2.380
61269W        W20530  23.039  17.236   1.325
61270W        W20531  22.019   1.854   3.786
61271W        W20532  40.013  12.738   4.805
61272W        W20533  37.538   8.858  13.983
61273W        W20534  17.148  10.375  13.459
61274W        W20535  19.059  40.992  14.512
61275W        W20536  12.696  28.582   1.904
61276W        W20537  22.192  31.116  12.963
61277W        W20538   7.341   0.757  10.487
61278W        W20539  34.552   7.282   2.792
61279W        W20540  44.755  42.410  12.046
61280W        W20541  43.972  24.541  12.526
61281W        W20542  34.067   0.964   2.892
61282W        W20543  18.732   8.328  13.049
61283W        W20544   9.350  24.704   4.201
61284W        W20545  25.612  41.317   2.806
61285W        W20546   8.871  24.212   2.705
61286W        W20547  35.515   7.192   2.755
61287W        W20548  20.651   7.812  11.503
61288W        W20549   3.789   5.289   0.782
61289W        W20550  34.970  10.683  12.560
61290W        W20551  30.622  21.182   3.267
61291W        W20552   1.880  27.197   1.732
61292W        W20553  27.188   5.303   3.325
61293W        W20554  40.445  31.087   2.385
61294W        W20555  28.676  35.880   3.838
61295W        W20556  24.129  39.469   2.901
61296W        W20557  26.577   3.426   2.694
61297W        W20558  17.065  23.178  14.966
61298W        W20559   7.246  33.884   3.327
61299W        W20560  24.139  40.823   1.415
61300W        W20561  30.451  24.110   3.737
61301W        W20562  27.482  20.747   2.282
61302W        W20563  14.109  41.339  11.901
61303W        W20564  34.952   8.386  10.592
61304W        W20565  18.730  33.015  14.874
61305W        W20566  10.748  14.708   4.628
61306W        W20567  18.696  33.572   2.180
61307W        W20568  10.724  13.124   0.348
61308W        W20569  38.433   2.780  11.457
61309W        W20570   7.370  24.131   0.760
61310W        W20571  17.068   5.787   2.207
61311W        W20572  39.992  28.451  13.401
61312W        W20573  25.502  44.973  12.833
61313W        W20574  42.978  44.757  10.448
61314W        W20575  26.480  17.689  14.482
61315W        W20576  33.512  29.553   3.649
61316W        W20577  39.919   3.711   2.187
61317W        W20578  28.504  30.091  13.801
61318W        W20579  36.893  42.018   1.326
61319W        W20580  16.098  33.028  13.541
61320W        W20581   0.480   3.728   1.782
61321W        W20582  28.642  32.549   3.147
61322W        W20583  15.111  34.872   1.911
61323W        W20584  18.679  40.401  14.978
61324W        W20585  31.633  29.141  12.905
61325W        W20586  20.200   8.659  14.381
61326W        W20587  31.646  44.970  10.112
61327W        W20588  18.721  16.722   1.381
61328W        W20589  17.606  34.600   1.697
61329W        W20590  37.854  39.811   1.356
61330W        W20591  10.671  21.740  10.471
61331W        W20592   1.773   1.436  10.515
61332W        W20593  31.923  30.571  14.778
61333W        W20594  28.625  23.116   3.629
61334W        W20595  22.236  36.460  13.511
61335W        W20596  28.616  24.042  12.879
61336W        W20597   4.238   9.301   4.649
61337W        W20598   0.475  38.040  12.445
61338W        W20599  26.051  31.006   4.242
61339W        W20600  44.921  21.165  14.293
61340W        W20601   8.805   3.771   0.735
61341W        W20602   7.801  34.922  13.803
61342W        W20603  13.180   1.824   2.266
61343W        W20604  43.336  22.253   1.895
61344W        W20605  34.890  41.457   0.726
61345W        W20606  40.973  37.489   3.172
61346W        W20607  44.474  12.174   3.213
61347W        W20608  34.559  28.566  14.431
61348W        W20609  40.482  40.993  10.602
61349W        W20610  15.639  18.183   2.837
61350W        W20611  12.222  18.179   3.346
61351W        W20612   0.778  42.402   4.137
61352W        W20613  32.417  18.121  13.887
61353W        W20614  44.292  44.420  11.537
61354W        W20615  34.576   0.368  10.496
61355W        W20616  27.989   6.676  12.956
61356W        W20617  19.103   4.939   1.266
61357W        W20618  29.037  23.621   3.777
61358W        W20619  37.511  41.488   4.650
61359W        W20620   0.854  18.081  11.416
61360W        W20621   9.323   1.250  13.926
61361W        W20622  36.381  37.032  14.375
61362W        W20623  25.557  19.583  14.827
61363W        W20624  19.726  27.963  14.846
61364W        W20625  36.977  29.091  13.863
61365W        W20626  40.317  11.763   4.674
61366W        W20627  17.650  14.768  11.074
61367W        W20628  38.970   7.788  13.842
61368W        W20629  34.078  22.130  14.998
61369W        W20630   3.711  42.446   1.908
61370W        W20631  35.012  42.955  13.050
61371W        W20632  35.518   7.287  12.008
61372W        W20633  32.096  41.511   1.783
61373W        W20634  28.006  16.627  10.961
61374W        W20635  37.983  35.392  12.829
61375W        W20636  23.107  44.476   3.349
61376W        W20637  12.767  36.486  14.423
61377W        W20638  29.546  41.924   2.881
61378W        W20639  29.625   1.944   3.805
61379W        W20640  11.245   1.777   2.758
61380W        W20641  15.782  14.761   1.918
61381W        W20642  40.046   5.869  12.389
61382W        W20643   1.923  28.624   4.288
61383W        W20644  31.103  38.048  14.357
61384W        W20645  44.929   7.216  14.013
61385W        W20646   6.853  36.092  14.758
61386W        W20647  29.074   4.846  12.947
61387W        W20648   6.357  17.757  14.888
61388W        W20649   3.810  43.843   2.382
61389W        W20650   2.372  29.092  14.810
61390W        W20651  39.012  11.352  13.888
61391W        W20652   2.328  25.603  14.829
61392W        W20653  12.638  33.930   2.195
61393W        W20654  27.523   2.430   4.182
61394W        W20655  12.295  34.596   4.119
61395W        W20656  31.908  13.232  10.432
61396W        W20657  10.161  21.219  12.030
61397W        W20658  22.082   5.334  13.485
61398W        W20659   8.190  13.677  14.951
61399W        W20660  38.047  24.991   3.228
61400W        W20661  12.741  11.668  13.044
61401W        W20662  36.500  27.516   0.837
61402W        W20663  35.853  25.048  11.598
61403W        W20664  26.500  36.352  11.891
61404W        W20665  41.515  44.878  10.974
61405W        W20666  35.898   1.449  11.495
61406W        W20667   8.663  28.969  11.504
61407W        W20668  34.970  40.846  13.394
61408W        W20669  32.124  30.971  12.971
61409W        W20670  40.319  41.807   0.820
61410W        W20671  40.999   1.335   2.205
61411W        W20672   0.768  10.307   3.164
61412W        W20673  21.511  15.250   3.730
61413W        W20674  41.858  24.133  10.639
61414W        W20675  17.172  11.342   3.226
61415W        W20676  15.094   9.758  14.016
61416W        W20677  31.952  25.496  14.016
61417W        W20678  35.978  31.433  10.604
61418W        W20679  15.669  29.460  13.812
61419W        W20680  36.444   5.723   3.866
61420W        W20681  10.290  16.616   3.242
61421W        W20682  26.020  20.741   4.285
61422W        W20683  33.474  19.642   2.324
61423W        W20684  37.003  23.628   1.325
61424W        W20685  41.453  23.732   4.179
61425W        W20686  30.045   5.890  11.547
61426W        W20687  26.586  37.553  12.428
61427W        W20688  16.087  42.014   1.310
61428W        W20689  23.003  40.027   3.753
61429W        W20690  38.486  25.058   3.717
61430W        W20691  36.422  22.010   3.313
61431W        W20692   8.194  23.734  13.494
61432W        W20693   4.909  29.531  10.996
61433W        W20694  15.589  14.773  10.588
61434W        W20695  42.516   3.321   0.734
61435W        W20696  10.273   6.409   0.838
61436W        W20697  17.592   6.820   4.341
61437W        W20698  35.032   6.743   1.752
61438W        W20699  34.873   7.817  12.861
61439W        W20700   3.938  37.487  12.888
61440W        W20701  30.655  26.554   1.386
61441W        W20702   8.896  25.028  12.825
61442W        W20703   9.710   4.333  10.595
61443W        W20704  34.378  44.378  12.429
61444W        W20705  18.565  15.300   1.849
61445W        W20706  21.562  12.206  13.953
61446W        W20707  18.149  34.399   3.647
61447W        W20708  43.864  24.130   1.739
61448W        W20709   0.743   9.760   4.121
61449W        W20710   3.454  20.676   3.721
61450W        W20711  29.048  13.244   2.830
61451W        W20712  38.921  43.800   0.321
61452W        W20713   3.788  28.091  10.635
61453W        W20714   9.790  28.177  14.016
61454W        W20715  10.142  40.909   4.265
61455W        W20716  25.148  37.894   0.943
61456W        W20717  30.626  16.223  13.498
61457W        W20718  32.533  33.968  13.016
61458W        W20719  12.306  15.136   2.857
61459W        W20720  35.977  22.702   2.767
61460W        W20721   2.852  21.147  12.874
61461W        W20722  24.158  36.933   3.773
61462W        W20723  18.656  22.010   3.310
61463W        W20724   5.377  44.276  12.557
61464W        W20725  13.246  38.560   2.673
61465W        W20726  18.701   9.181   2.781
61466W        W20727  30.089  17.209   3.686
61467W        W20728  39.509   8.827   3.658
61468W        W20729  16.714  26.175  11.544
61469W        W20730  16.588  30.013  12.559
61470W        W20731   9.781  42.817  13.477
61471W        W20732  30.634   6.297  12.094
61472W        W20733  10.283  27.159  10.948
61473W        W20734  35.033   2.244  12.991
61474W        W20735   6.265  36.974   0.920
61475W        W20736  17.693   0.791  13.928
61476W        W20737   6.306  39.884  12.974
61477W        W20738  42.862  42.806   0.245
61478W        W20739  20.524   7.321  13.022
61479W        W20740  12.338  37.339  10.565
61480W        W20741  28.450  40.347  13.950
61481W        W20742  43.281   7.741   4.703
61482W        W20743  25.080   4.231   3.184
61483W        W20744  25.689  33.025  13.909
61484W        W20745  10.141   9.292  11.062
61485W        W20746  28.450  37.957  14.434
61486W        W20747   6.327  15.098  13.848
61487W        W20748  43.926  18.193   2.884
61488W        W20749  25.535  33.611  13.468
61489W        W20750  16.635  13.738   4.737
61490W        W20751  20.568  24.667   9.529
61491W        W20752  34.470  29.977  14.938
61492W        W20753  17.202   1.745  12.507
61493W        W20754   8.724  15.791  14.505
61494W        W20755  13.255  30.650   1.800
61495W        W20756   8.861   8.797   4.229
61496W        W20757   6.359  43.299   1.882
61497W        W20758  13.786  15.679  14.374
61498W        W20759  44.756  29.438  14.798
61499W        W20760  36.897  11.818  12.552
61500W        W20761  26.520   1.909   0.340
61501W        W20762  36.909  22.138   1.239
61502W        W20763  40.544  42.872  10.015
61503W        W20764  14.103   0.260   3.185
61504W        W20765   6.225  36.085   3.182
61505W        W20766  34.906  35.067   4.172
61506W        W20767  29.032  21.117   4.770
61507W        W20768  38.406   1.761  10.976
61508W        W20769  42.012   2.465  13.854
61509W        W20770   5.252  40.835   2.356
61510W        W20771  38.020  23.004   3.765
61511W        W20772  36.410   6.905   3.679
61512W        W20773  13.329  23.502   2.416
61513W        W20774   4.234  40.890   2.319
61514W        W20775   9.789  44.959   1.797
61515W        W20776  14.339  27.455   4.608
61516W        W20777  30.616   5.925  12.917
61517W        W20778  42.315  14.170  12.086
61518W        W20779   6.277   4.320  14.881
61519W        W20780  41.037   5.850  14.313
61520W        W20781  20.583  35.012   4.600
61521W        W20782   7.698   2.277   2.672
61522W        W20783  26.982  26.526  11.099
61523W        W20784  11.638  27.647  10.576
61524W        W20785  41.901  12.816  10.549
61525W        W20786   3.316  19.571  12.893
61526W        W20787  44.379   3.338   0.871
61527W        W20788  14.610  19.545   2.735
61528W        W20789   4.869   6.416   4.814
61529W        W20790  25.035  27.097  11.500
61530W        W20791  37.477  41.811   5.306
61531W        W20792  24.645   1.794   0.364
61532W        W20793   9.784  39.887  12.834
61533W        W20794  34.461   6.919  11.543
61534W        W20795  23.131  41.862   3.842
61535W        W20796  16.631  29.479  14.288
61536W        W20797  30.046   9.299  12.973
61537W        W20798  43.768   4.792   0.381
61538W        W20799  29.561  25.162  12.391
61539W        W20800  30.958  12.357   2.232
61540W        W20801  27.526  36.412  14.896
61541W        W20802  16.788  39.441   4.621
61542W        W20803  41.385  21.719   2.298
61543W        W20804  43.916  41.869  12.061
61544W        W20805  18.652   2.269   0.299
61545W        W20806  44.354  11.161   0.776
61546W        W20807  43.316  28.954   2.253
61547W        W20808  35.016  15.127   4.732
61548W        W20809  37.431  37.349   3.858
61549W        W20810   8.248   4.250   1.933
61550W        W20811  18.148  44.298   2.382
61551W        W20812  43.882  26.621   1.449
61552W        W20813  31.646  23.726  13.963
61553W        W20814  26.186  11.750  10.457
61554W        W20815  37.029  10.287  12.034
61555W        W20816  20.634  40.969   2.207
61556W        W20817  11.166  14.163  13.440
61557W        W20818  17.140  35.504   0.747
61558W        W20819  26.175  27.533  14.496
61559W        W20820  18.080  10.704  14.480
61560W        W20821  10.194  38.546   0.331
61561W        W20822  11.281   0.473   1.275
61562W        W20823  11.632  36.447   1.900
61563W        W20824   9.245  24.577   1.805
61564W        W20825  43.347  25.051  14.871
61565W        W20826  31.032  27.105  14.464
61566W        W20827  38.873   6.351  12.547
61567W        W20828  14.735   0.348  13.028
61568W        W20829  13.124   8.840   1.358
61569W        W20830  31.427  41.947   5.685
61570W        W20831  11.161   5.222  13.342
61571W        W20832  41.431  30.615  13.436
61572W        W20833  42.409  43.791   3.317
61573W        W20834  13.317  27.017   2.763
61574W        W20835   5.381  11.660   1.755
61575W        W20836  33.448  31.505   0.311
61576W        W20837  31.552  16.773  13.508
61577W        W20838  29.176  12.171  12.907
61578W        W20839   0.381   2.233  12.044
61579W        W20840  26.986  15.655  11.497
61580W        W20841  33.081  21.683   1.878
61581W        W20842  37.486  33.454   3.238
61582W        W20843  27.144  36.359  11.604
61583W        W20844  33.019  44.980   0.304
61584W        W20845   9.186  22.175   2.680
61585W        W20846  19.769  27.170  11.471
61586W        W20847  42.996  35.964   4.283
61587W        W20848  31.041  32.022  10.944
61588W        W20849  35.445  16.088   2.223
61589W        W20850   7.694  24.072   1.436
61590W        W20851  30.948  19.615  14.316
61591W        W20852   9.325  14.265  13.447
61592W        W20853  32.622   6.210   9.981
61593W        W20854  19.257  41.398   1.816
61594W        W20855   6.415  33.971   2.207
61595W        W20856  18.167  33.495  14.393
61596W        W20857  37.534  24.193  11.094
61597W        W20858  29.116  14.766  14.397
61598W        W20859  44.981  33.460   0.472
61599W        W20860  35.553  23.147   1.333
61600W        W20861  14.270  42.457  13.511
61601W        W20862  24.667   2.361   4.666
61602W        W20863  32.540  24.046   4.319
61603W        W20864  31.624  41.874  11.484
61604W        W20865  36.560  13.114  12.969
61605W        W20866  27.162  28.558   4.252
61606W        W20867   5.203  40.797  13.368
61607W        W20868   8.234  37.498   1.294
61608W        W20869  27.587  16.244  13.494
61609W        W20870  40.855  12.646  14.383
61610W        W20871  14.710  12.131   4.184
61611W        W20872  10.283  39.874  10.594
61612W        W20873  11.652  44.984  13.931
61613W        W20874  26.463  17.295   5.170
61614W        W20875  16.679  15.609  13.843
61615W        W20876   6.676   0.448   1.242
61616W        W20877  33.448  33.423   0.472
61617W        W20878  39.889  20.143   1.366
61618W        W20879   5.886  26.990   4.599
61619W        W20880  31.480   7.723  11.420
61620W        W20881  43.880  40.441  11.984
61621W        W20882   5.355   2.917  11.012
61622W        W20883  22.691  36.029   4.826
61623W        W20884  39.034  10.652   3.853
61624W        W20885  17.109  10.177  11.876
61625W        W20886  41.386  10.801   0.762
61626W        W20887  42.786  42.497   1.797
61627W        W20888  40.814  18.101  14.880
61628W        W20889  42.358   5.776   3.345
61629W        W20890  22.213  16.569   1.314
61630W        W20891   4.758  11.740   4.312
61631W        W20892   6.852  26.456  14.833
61632W        W20893   7.235  42.826  10.111
61633W        W20894   8.244  29.990   3.635
61634W        W20895  28.990   1.918   2.686
61635W        W20896  14.192  10.691  11.001
61636W        W20897  20.203  23.218   2.799
61637W        W20898  39.435  23.081   3.799
61638W        W20899  38.891  39.559   4.702
61639W        W20900   4.232  13.279  14.360
61640W        W20901  42.380  16.282   0.444
61641W        W20902  21.128   7.297   2.754
61642W        W20903   3.341   5.322  12.088
61643W        W20904  27.640  20.564   0.371
61644W        W20905  31.134  22.217   0.905
61645W        W20906  40.819  18.144   0.273
61646W        W20907  20.638   7.381   3.216
61647W        W20908  19.666  38.049   4.114
61648W        W20909  42.401  27.613  14.985
61649W        W20910  16.117  33.612   5.318
61650W        W20911  32.552   4.333   4.232
61651W        W20912  28.973  44.971   1.367
61652W        W20913  34.956  17.765  10.558
61653W        W20914  41.502  34.531  14.284
61654W        W20915  32.063  42.852  12.046
61655W        W20916  18.555  23.613   2.676
61656W        W20917  13.107  11.713  10.913
61657W        W20918  21.187  24.091  12.069
61658W        W20919  38.521  11.689   2.681
61659W        W20920  28.176  17.230  13.050
61660W        W20921  30.135  12.794  14.435
61661W        W20922   6.795  42.313   4.186
61662W        W20923  38.899  13.346  10.565
61663W        W20924   2.408  37.554  10.437
61664W        W20925   2.912  38.011   3.335
61665W        W20926  19.552   3.870   4.296
61666W        W20927  38.480  43.958   3.358
61667W        W20928  37.945  35.991   0.481
61668W        W20929   0.343  36.532   4.272
61669W        W20930   5.886   1.265  11.962
61670W        W20931   7.738  17.246  11.387
61671W        W20932  17.125  11.758   4.663
61672W        W20933  32.549   3.372   5.187
61673W        W20934   6.814   3.804   1.831
61674W        W20935   8.245  38.028  12.855
61675W        W20936  18.212  16.693  14.799
61676W        W20937  10.141  29.621   4.691
61677W        W20938  38.442   0.428   1.238
61678W        W20939  13.641  37.416   1.873
61679W        W20940  42.886  32.544   2.374
61680W        W20941  16.794   5.714  13.527
61681W        W20942  24.610  21.672  11.606
61682W        W20943   4.435   1.374  12.515
61683W        W20944  23.216  44.006   2.233
61684W        W20945  15.266  21.193  14.801
61685W        W20946  24.987  27.033   0.354
61686W        W20947  23.622  20.664   0.776
61687W        W20948  40.933   9.201  11.903
61688W        W20949  17.256  17.682   3.819
61689W        W20950  42.985   6.411  12.522
61690W        W20951  12.776  18.551   4.214
61691W        W20952  26.033  26.096  11.408
61692W        W20953  27.456  39.355  12.459
61693W        W20954  34.865   3.947  14.451
61694W        W20955   5.295  19.124  14.833
61695W        W20956   2.823  40.459   1.817
61696W        W20957  41.811  13.162  12.571
61697W        W20958  15.601  32.412   3.263
61698W        W20959  16.675   5.750   2.303
61699W        W20960   1.391   2.928   4.182
61700W        W20961   3.306   7.315  10.549
61701W        W20962  12.328  37.012  14.439
61702W        W20963  36.959   6.781  12.905
61703W        W20964  12.774  26.984   4.153
61704W        W20965  13.675  43.850  12.502
61705W        W20966  23.051   7.895   3.680
61706W        W20967  28.483  36.875  12.529
61707W        W20968  41.878  11.672  14.496
61708W        W20969  33.981  32.900  10.159
61709W        W20970  25.972   1.262  13.955
61710W        W20971  18.141  20.133  13.947
61711W        W20972  33.964  32.436  11.924
61712W        W20973   8.273   6.797   0.797
61713W        W20974  15.662  23.051   2.734
61714W        W20975   3.794  17.657  13.384
61715W        W20976  22.048  20.046  12.415
61716W        W20977   6.246  37.436   5.087
61717W        W20978  23.138   8.288  14.859
61718W        W20979   0.417  22.593  12.080
61719W        W20980  15.584   6.778   2.892
61720W        W20981   5.289  14.636   3.329
61721W        W20982  24.979  26.639  13.947
61722W        W20983  25.586  27.620   3.347
61723W        W20984  18.642  21.035   3.332
61724W        W20985   0.456  37.549  12.442
61725W        W20986  20.176  16.699   4.657
61726W        W20987  13.310   2.313  14.417
61727W        W20988  24.542  19.084   0.355
61728W        W20989  35.865  21.619   0.284
61729W        W20990  36.858  12.286   2.234
61730W        W20991  17.764  20.690   9.568
61731W        W20992   7.372  11.855  11.542
61732W        W20993  20.695  39.391   3.277
61733W        W20994  24.031  33.419   3.637
61734W        W20995  29.649  16.317   2.240
61735W        W20996  26.004  33.487  12.956
61736W        W20997   6.897  23.660   2.866
61737W        W20998  37.435   5.834   1.364
61738W        W20999  20.701  27.036  11.472
61739W        W21000  24.214   5.732   3.750
61740W        W21001  33.501  22.550   2.725
61741W        W21002  10.732  29.469  10.925
61742W        W21003  41.847  42.023  13.911
61743W        W21004  14.095  17.582  12.533
61744W        W21005   1.794  19.757   0.862
61745W        W21006  39.461  34.888   1.781
61746W        W21007  12.752  32.111  14.888
61747W        W21008  31.086   1.481  11.435
61748W        W21009  32.989  42.524  13.849
61749W        W21010  33.577  40.031  11.527
61750W        W21011   2.849  44.760  14.008
61751W        W21012  18.685  42.375  14.386
61752W        W21013  25.547  44.801   0.754
61753W        W21014  20.749  25.604  10.084
61754W        W21015   7.182  17.205   4.682
61755W        W21016   6.324  32.032   0.796
61756W        W21017  36.972  21.165  13.438
61757W        W21018  26.692  15.102  13.459
61758W        W21019  18.663   4.710  12.024
61759W        W21020  33.591   1.811   0.325
61760W        W21021  30.598  40.332  10.158
61761W        W21022  30.584  19.157   3.197
61762W        W21023  15.606   2.321   2.740
61763W        W21024  22.639  11.624   3.314
61764W        W21025  16.191  43.445  12.470
61765W        W21026  16.273  37.894  10.508
61766W        W21027  39.410  20.739  13.023
61767W        W21028   6.715  44.930   4.330
61768W        W21029  17.640  24.687  14.491
61769W        W21030  38.957  23.165   0.845
61770W        W21031  43.503  44.792   2.778
61771W        W21032   3.895  20.622  12.996
61772W        W21033  23.209   2.348  12.360
61773W        W21034  12.270  25.968   2.755
61774W        W21035  32.428   2.372  14.857
61775W        W21036   3.721  26.200  11.498
61776W        W21037  34.026  33.928   3.377
61777W        W21038  28.541   5.213   0.801
61778W        W21039  23.155  23.051  10.411
61779W        W21040  12.307  43.785  12.879
61780W        W21041  25.611   8.796   1.390
61781W        W21042   6.844   0.368   2.223
61782W        W21043  10.695  15.166   1.309
61783W        W21044  24.072  31.648  10.934
61784W        W21045  29.667   2.374   4.791
61785W        W21046  22.545  17.162  10.459
61786W        W21047  14.116  29.552  13.365
61787W        W21048  34.436  42.414  11.603
61788W        W21049  10.735   3.385  14.992
61789W        W21050  21.561  37.049  12.864
61790W        W21051  27.462  35.566  13.484
61791W        W21052  30.933  28.513  13.927
61792W        W21053   1.287  12.330  11.519
61793W        W21054   5.438  35.073  11.511
61794W        W21055  29.587  36.886   0.862
61795W        W21056  14.331  35.398   3.236
61796W        W21057  37.470   8.161  11.098
61797W        W21058  29.622  22.631   1.431
61798W        W21059  32.001  34.912  14.030
61799W        W21060  26.595  30.024   4.778
61800W        W21061   8.856  27.515   1.885
61801W        W21062  10.179  42.970   3.677
61802W        W21063  34.098  36.947  12.375
61803W        W21064  32.890  33.591  11.474
61804W        W21065  33.128  29.019  11.088
61805W        W21066  17.229  34.897  12.524
61806W        W21067  21.577   6.801   2.339
61807W        W21068  30.910  18.287  13.308
61808W        W21069  25.181  11.841  13.002
61809W        W21070  26.601   1.372   1.212
61810W        W21071  35.428  23.728  13.326
61811W        W21072  41.490  25.619   0.273
61812W        W21073  28.482   0.307   4.320
61813W        W21074   1.880   9.708   1.709
61814W        W21075  33.517  27.630  12.383
61815W        W21076  12.854   9.202   4.643
61816W        W21077  21.088  28.674   1.297
61817W        W21078  27.605  28.182   3.291
61818W        W21079  44.941  26.974  11.870
61819W        W21080  28.134  17.173   4.794
61820W        W21081  10.237  43.953  11.931
61821W        W21082  35.517  44.940  11.029
61822W        W21083  28.186  29.538   4.814
61823W        W21084  32.516  29.995  10.557
61824W        W21085  14.677  30.514  12.958
61825W        W21086  42.890  36.476  11.881
61826W        W21087  36.391  38.552   4.128
61827W        W21088   9.646  27.178   1.728
61828W        W21089  34.054  21.726   3.328
61829W        W21090  16.289   1.394   0.484
61830W        W21091  10.869  27.187   3.160
61831W        W21092  34.989  41.951   1.853
61832W        W21093   4.786  32.906  10.413
61833W        W21094  32.994   2.379  14.909
61834W        W21095  32.950   9.811  14.427
61835W        W21096  30.144  28.939   2.366
61836W        W21097  40.851  24.513   4.681
61837W        W21098   0.274   8.298  13.457
61838W        W21099  23.060  33.008  11.102
61839W        W21100   7.837  22.058  14.848
61840W        W21101  35.984   1.295  10.908
61841W        W21102   2.441  11.166   4.333
61842W        W21103  43.510  28.160  14.457
61843W        W21104  44.358  23.693  10.011
61844W        W21105  40.911  24.636   3.839
61845W        W21106   7.894   5.770   3.223
61846W        W21107  16.219   2.404  12.878
61847W        W21108  44.275  35.366  11.126
61848W        W21109  14.825  21.648   3.775
61849W        W21110  42.448   1.732  11.069
61850W        W21111  15.749  21.575  10.161
61851W        W21112  23.042  11.801  10.588
61852W        W21113  39.536  33.874  14.352
61853W        W21114  38.967  14.763  12.558
61854W        W21115  38.048  41.902   0.833
61855W        W21116  18.071   9.245   2.785
61856W        W21117  14.705   0.442  11.480
61857W        W21118  28.032  31.099  14.387
61858W        W21119   6.320  25.689   4.306
61859W        W21120  16.740   9.777   4.260
61860W        W21121  10.265   4.889  13.401
61861W        W21122  40.901  11.360   1.401
61862W        W21123  17.746  35.413   2.311
61863W        W21124  10.278  30.581   4.271
61864W        W21125  42.872  41.849   4.824
61865W        W21126  18.717  39.883  11.099
61866W        W21127  30.004   5.202  12.461
61867W        W21128  34.607  11.222   2.277
61868W        W21129  28.580   9.828   4.198
61869W        W21130   1.452   3.395  12.832
61870W        W21131  39.898  39.502   2.678
61871W        W21132  12.843  32.929  11.984
61872W        W21133  30.562  23.065   2.384
61873W        W21134   9.395   8.773   0.346
61874W        W21135  28.454  28.077  12.885
61875W        W21136  42.891  42.380   3.647
61876W        W21137   8.896  28.123   4.346
61877W        W21138   7.743  22.597  13.890
61878W        W21139  38.037  14.284  12.513
61879W        W21140  34.387  15.285  14.014
61880W        W21141  29.494   6.213   1.290
61881W        W21142  27.105  31.593  12.861
61882W        W21143  10.330  38.863  13.013
61883W        W21144  38.518  16.637   4.813
61884W        W21145   5.745  40.905  11.532
61885W        W21146  28.467  29.977   3.816
61886W        W21147   7.885  21.730   3.318
61887W        W21148  33.604   6.332   4.621
61888W        W21149  26.970  44.844   3.770
61889W        W21150   0.792  10.254   1.328
61890W        W21151  19.053  19.157   3.332
61891W        W21152   9.361  43.482  12.019
61892W        W21153   9.695  19.581  11.519
61893W        W21154   4.274  19.076   0.818
61894W        W21155  26.113  34.023  11.005
61895W        W21156  40.317  20.580  13.308
61896W        W21157   0.358  14.204  10.453
61897W        W21158  13.284  32.456  11.489
61898W        W21159  31.982  28.640   3.747
61899W        W21160  12.199  16.294   4.782
61900W        W21161  10.826  30.608  11.866
61901W        W21162  41.017   5.870  10.920
61902W        W21163   5.914   5.436   4.776
61903W        W21164  19.590  12.317   3.271
61904W        W21165  31.079   2.416  11.068
61905W        W21166  19.062  30.136   1.255
61906W        W21167  18.149  25.591   3.824
61907W        W21168  11.335  20.620  10.466
61908W        W21169  11.245  12.773  12.352
61909W        W21170   7.720  23.560  11.372
61910W        W21171  24.620  44.498  11.869
61911W        W21172  36.887  24.123   0.324
61912W        W21173  14.803   1.848   1.820
61913W        W21174  23.053  22.175   2.310
61914W        W21175  16.676  22.627   2.682
61915W        W21176  12.664  40.841  11.573
61916W        W21177   3.817  26.128  14.308
61917W        W21178  14.790  21.722   3.327
61918W        W21179  17.713   9.198   0.945
61919W        W21180  30.946  37.042  11.939
61920W        W21181   6.886  20.175   3.776
61921W        W21182  21.180  16.279   4.235
61922W        W21183  27.667  44.955   0.476
61923W        W21184   8.184  43.934   0.835
61924W        W21185   3.338  12.244   1.426
61925W        W21186  26.703  39.037   0.796
61926W        W21187   9.890  32.439  14.329
61927W        W21188  12.707   7.849   4.830
61928W        W21189  42.317  23.096   1.866
61929W        W21190  36.084  42.951   1.749
61930W        W21191  35.984  44.008  10.908
61931W        W21192   3.735  26.629   0.315
61932W        W21193  23.528  43.460   1.731
61933W        W21194  11.698  17.600   0.829
61934W        W21195  36.035   7.679   1.310
61935W        W21196   4.924  38.424   2.714
61936W        W21197  42.994  28.609  13.884
61937W        W21198  37.403  41.474  13.874
61938W        W21199  10.368  43.997  14.433
61939W        W21200  41.942   0.337   2.747
61940W        W21201  38.524  31.506   1.450
61941W        W21202  36.540  17.199   2.667
61942W        W21203  35.372  10.671   1.287
61943W        W21204  21.542  41.364  12.477
61944W        W21205  17.713  15.708  12.981
61945W        W21206  16.087  18.577  10.446
61946W        W21207  25.079  10.698   0.448
61947W        W21208  14.693   9.170  10.505
61948W        W21209  26.986  26.119  14.768
61949W        W21210  28.554  25.083  11.428
61950W        W21211  31.920  44.481   3.736
61951W        W21212  30.018  44.401  13.007
61952W        W21213  16.304  44.314   2.797
61953W        W21214  20.618  13.790   0.826
61954W        W21215  16.248  43.801  12.534
61955W        W21216  16.169   4.401   2.287
61956W        W21217  28.031  26.643   3.247
61957W        W21218  10.756  16.112  12.544
61958W        W21219  24.500  24.701  11.858
61959W        W21220   2.951  41.417   2.674
61960W        W21221   1.287  17.210   2.196
61961W        W21222  17.270  41.515  12.393
61962W        W21223  21.624  24.036   0.926
61963W        W21224  17.581  20.249   3.319
61964W        W21225  36.844   0.947  11.451
61965W        W21226  18.600  22.728   2.303
61966W        W21227   0.973   2.405  12.394
61967W        W21228  40.934  18.111   1.425
61968W        W21229  11.721  38.869   1.399
61969W        W21230  17.218  19.557   3.343
61970W        W21231  11.134  20.751   4.778
61971W        W21232  28.093  31.111   0.263
61972W        W21233  40.894  44.473  12.442
61973W        W21234   9.870  20.732  11.059
61974W        W21235  40.361  33.979   1.308
61975W        W21236  33.568  12.625  11.941
61976W        W21237  12.639  26.167  10.518
61977W        W21238   4.743  18.657   3.315
61978W        W21239  38.553  14.211  12.020
61979W        W21240  17.120  41.871  14.919
61980W        W21241  43.775  36.907   4.170
61981W        W21242   5.858  27.997   4.694
61982W        W21243   2.256   2.807   2.279
61983W        W21244  18.666  29.081  14.390
61984W        W21245  27.000  17.306   3.805
61985W        W21246   3.929  24.495  13.019
61986W        W21247   8.840  17.748  11.397
61987W        W21248  18.176  22.018   4.129
61988W        W21249  42.031  11.632  12.559
61989W        W21250  32.133  31.521  14.289
61990W        W21251  11.795  30.450  10.023
61991W        W21252   5.742   4.218   4.191
61992W        W21253  11.175  22.535  13.887
61993W        W21254  31.420  33.476   0.266
61994W        W21255  44.991  18.120  13.922
61995W        W21256  41.424  44.769  12.057
61996W        W21257  42.001  35.047  12.050
61997W        W21258  44.912   9.371   4.209
61998W        W21259  37.349  14.292   2.396
61999W        W21260  11.759  18.756  12.352
62000W        W21261  17.105  12.144   2.716
62001W        W21262  29.069  25.605  14.468
62002W        W21263  32.616  43.921  12.345
62003W        W21264  43.392  33.102  12.832
62004W        W21265  33.952   0.485   4.654
62005W        W21266   1.369  36.522   3.189
62006W        W21267  43.983  40.367   0.265
62007W        W21268   8.202  12.612  12.536
62008W        W21269  31.554  14.204  13.892
62009W        W21270  41.960   6.893  14.428
62010W        W21271  25.160  43.851  14.296
62011W        W21272  17.306  16.264  12.517
62012W        W21273  20.048   1.429   1.741
62013W        W21274  38.893  29.150   2.830
62014W        W21275   2.957  43.001   0.872
62015W        W21276  35.980  38.071   1.283
62016W        W21277  24.063  27.011   2.365
62017W        W21278  16.103   7.373  13.972
62018W        W21279  20.163  39.414  13.323
62019W        W21280  16.666  25.001   2.778
62020W        W21281  24.171  27.514  12.423
62021W        W21282  29.496  18.251  11.510
62022W        W21283   3.304  28.582   4.721
62023W        W21284  29.532   9.228  12.879
62024W        W21285  26.541  25.134  10.597
62025W        W21286  33.879  11.317   4.706
62026W        W21287  40.896  24.547   0.332
62027W        W21288  24.710  12.788  12.539
62028W        W21289  32.581  15.785  10.459
62029W        W21290   3.325  12.791   0.383
62030W        W21291  12.297   5.425   0.377
62031W        W21292  21.077  21.056  11.551
62032W        W21293  11.864  42.979  10.109
62033W        W21294  39.387  26.535  12.402
62034W        W21295  18.737  13.112  11.375
62035W        W21296  33.080  24.163  12.982
62036W        W21297  40.953  16.096   0.853
62037W        W21298  36.584   0.320   2.898
62038W        W21299  36.505  28.465   2.300
62039W        W21300  38.556  10.371  11.944
62040W        W21301  22.507  22.200  12.984
62041W        W21302  14.708   2.444   5.197
62042W        W21303  21.720  24.665   4.175
62043W        W21304  17.273  31.088   1.288
62044W        W21305   2.838  29.025   0.276
62045W        W21306  41.329  23.034  11.024
62046W        W21307  41.871  21.526  12.025
62047W        W21308   9.282  17.285   3.302
62048W        W21309  40.893  33.549   2.798
62049W        W21310  37.555   0.949   3.858
62050W        W21311  32.127  30.121   4.318
62051W        W21312   4.315  12.248  10.934
62052W        W21313  13.672   0.935   1.285
62053W        W21314  31.899  30.990   2.401
62054W        W21315  30.498  36.864  14.276
62055W        W21316  11.347  28.645  14.296
62056W        W21317  44.921  15.601  12.364
62057W        W21318  39.429  32.463   4.212
62058W        W21319  27.047  13.689  11.985
62059W        W21320   9.297   4.705  12.376
62060W        W21321  37.918  11.807   3.284
62061W        W21322  15.723  23.720   3.231
62062W        W21323  17.198  17.207  10.917
62063W        W21324   1.477  12.160  12.990
62064W        W21325   2.813  38.439   4.160
62065W        W21326  36.888  13.615  12.975
62066W        W21327  12.240   3.308  14.942
62067W        W21328  12.802   4.917   9.973
62068W        W21329  37.084  31.901   1.920
62069W        W21330  28.010  14.699  12.863
62070W        W21331  40.918  42.448   2.210
62071W        W21332  40.050  26.538   5.155
62072W        W21333  18.167  38.462  12.051
62073W        W21334   6.887  29.660  14.484
62074W        W21335   8.196   5.872   2.791
62075W        W21336   0.255  23.039   3.702
62076W        W21337  40.441  38.517  10.496
62077W        W21338  30.955  42.515  14.917
62078W        W21339  32.479  23.703  13.970
62079W        W21340  40.031  37.380  13.428
62080W        W21341   8.267  29.507  11.608
62081W        W21342  24.118  11.352  14.400
62082W        W21343   3.742  28.448  12.023
62083W        W21344   9.393  12.117   4.598
62084W        W21345  35.416  39.893   0.433
62085W        W21346  15.306  29.485  10.525
62086W        W21347  27.467  20.723  11.913
62087W        W21348   6.811   3.416   3.633
62088W        W21349   0.825  11.194   3.665
62089W        W21350  35.863  39.391  11.948
62090W        W21351  35.083   0.947   1.744
62091W        W21352   1.781  40.329   3.169
62092W        W21353  17.609  25.181   4.782
62093W        W21354   1.253  16.681   3.257
62094W        W21355  23.680  41.940  11.903
62095W        W21356  10.779  37.552  11.499
62096W        W21357   1.346   0.764   4.746
62097W        W21358  12.241   6.415  10.461
62098W        W21359  19.697  10.671  14.799
62099W        W21360  22.644   9.825  10.993
62100W        W21361  40.992  15.154   0.329
62101W        W21362  25.592   7.720  13.015
62102W        W21363   2.919  36.904  11.608
62103W        W21364  31.103  26.123   4.113
62104W        W21365  34.574  30.465   0.740
62105W        W21366  39.348  22.203  11.900
62106W        W21367  40.459   8.668  11.022
62107W        W21368   6.853  30.031  14.383
62108W        W21369  11.290  29.969   0.341
62109W        W21370  40.042  32.086   1.765
62110W        W21371   2.804  22.017   1.899
62111W        W21372   0.786  36.593   0.424
62112W        W21373  36.067  10.799   4.154
62113W        W21374  37.974  20.530  10.616
62114W        W21375  20.622  32.950  14.884
62115W        W21376  27.033   3.895  12.873
62116W        W21377  16.651   0.778  11.894
62117W        W21378  40.968   5.420  10.504
62118W        W21379   0.814  24.029  14.916
62119W        W21380  26.993  33.013  14.314
62120W        W21381  11.642  31.595   1.450
62121W        W21382   5.394  26.583  10.459
62122W        W21383   5.932  23.045   0.295
62123W        W21384  18.605  26.607   1.342
62124W        W21385  39.922  38.337  13.804
62125W        W21386  35.094  20.179  11.502
62126W        W21387   2.811   1.950  12.972
62127W        W21388  42.990   1.801  10.128
62128W        W21389  31.478  19.701  12.978
62129W        W21390  17.083  17.098   1.864
62130W        W21391   1.962  35.930   2.871
62131W        W21392  15.672   2.788   5.257
62132W        W21393  29.465  40.849  11.108
62133W        W21394  37.504  35.011  12.375
62134W        W21395  34.044  23.712  14.469
62135W        W21396  30.659   2.332  11.541
62136W        W21397  23.062  16.117   0.926
62137W        W21398  23.239  26.079   3.343
62138W        W21399   9.799  40.837   4.174
62139W        W21400   4.225  35.000   0.827
62140W        W21401  17.295   4.381   0.315
62141W        W21402  44.954  26.150  14.421
62142W        W21403  30.457  23.592  10.459
62143W        W21404   7.327  29.450   2.743
62144W        W21405  32.505  25.195   5.241
62145W        W21406   0.779  13.797  10.641
62146W        W21407   0.481  24.123   1.859
62147W        W21408   9.301  33.572   0.945
62148W        W21409  25.107  18.103  10.433
62149W        W21410   5.845  29.482  12.507
62150W        W21411  44.300   7.763   3.754
62151W        W21412   7.840  14.103   5.301
62152W        W21413  22.121  26.589   3.232
62153W        W21414  28.036   3.239  11.411
62154W        W21415  17.214  12.314   0.462
62155W        W21416  11.757  37.905   4.179
62156W        W21417  11.842  30.162   3.195
62157W        W21418  19.210  15.155  14.323
62158W        W21419  36.941   1.851   1.923
62159W        W21420  37.506  17.765   3.674
62160W        W21421  13.189  14.636  12.366
62161W        W21422   0.914  35.965   2.311
62162W        W21423   4.204  17.144   4.219
62163W        W21424  26.078  23.132  11.002
62164W        W21425  34.871  18.611  12.914
62165W        W21426   0.835  40.430   4.771
62166W        W21427   9.811  17.104  14.874
62167W        W21428  24.018   8.393   2.871
62168W        W21429  35.382  17.103   1.329
62169W        W21430  14.811  14.792  13.408
62170W        W21431  32.460  12.817   9.920
62171W        W21432  26.461  29.440  12.092
62172W        W21433   8.763   8.713  13.017
62173W        W21434   5.414  40.918  10.988
62174W        W21435  11.624  42.492  12.037
62175W        W21436  26.636  13.644   3.319
62176W        W21437  13.178  40.347   3.697
62177W        W21438  21.093  41.339   9.952
62178W        W21439  37.860   1.965   3.223
62179W        W21440   8.165  41.952   3.632
62180W        W21441   6.285  39.866   2.269
62181W        W21442  28.939  14.735   9.595
62182W        W21443  22.174  32.011  10.442
62183W        W21444  35.539  22.528   2.339
62184W        W21445  32.120  44.895  14.324
62185W        W21446   0.982  30.589  12.400
62186W        W21447  11.712   2.723   0.365
62187W        W21448  26.611   9.227   3.296
62188W        W21449  23.705  40.029   1.271
62189W        W21450   5.370  30.105   4.631
62190W        W21451  41.423  16.667  13.899
62191W        W21452  29.079  14.294   5.160
62192W        W21453  25.016  21.090  12.360
62193W        W21454  19.059  41.032   4.744
62194W        W21455  29.087  10.267   1.256
62195W        W21456  36.012  25.060   3.648
62196W        W21457   8.661  39.057   2.854
62197W        W21458  41.884  28.103  10.126
62198W        W21459  38.498  42.336   4.249
62199W        W21460  27.134  36.868   4.203
62200W        W21461  17.762  25.707  11.965
62201W        W21462  15.640  12.162   0.480
62202W        W21463   1.278  40.029  14.466
62203W        W21464   8.345  42.854  13.407
62204W        W21465   8.264   1.791  13.915
62205W        W21466   6.719  17.623   2.390
62206W        W21467  31.601  37.870   4.642
62207W        W21468  28.563   6.317   2.290
62208W        W21469  33.987  35.515   2.784
62209W        W21470  29.986  26.128   3.674
62210W        W21471   0.845   1.253   4.617
62211W        W21472  30.527  14.151  12.540
62212W        W21473  30.092  18.780   2.752
62213W        W21474  32.924  15.319   2.268
62214W        W21475  30.499  40.811  10.448
62215W        W21476  31.590  40.313  12.985
62216W        W21477  10.349  37.508   2.409
62217W        W21478  14.096  20.546   0.261
62218W        W21479  17.631   2.828   1.356
62219W        W21480  15.636   7.912  12.840
62220W        W21481  27.635  35.088  14.337
62221W        W21482  11.686  21.156  13.494
62222W        W21483  10.252  21.569  10.609
62223W        W21484  29.114  26.194  13.872
62224W        W21485  25.617  43.390  14.793
62225W        W21486  10.277   5.197   2.398
62226W        W21487  18.625  30.034  11.086
62227W        W21488   0.879  34.513   0.873
62228W        W21489  11.833  44.010   1.857
62229W        W21490  33.577   2.383  10.902
62230W        W21491  30.922  30.093   4.334
62231W        W21492  42.403  32.941   2.256
62232W        W21493  26.523  23.591  10.924
62233W        W21494  27.983  28.572   0.278
62234W        W21495  15.203  44.299   2.717
62235W        W21496  41.458   7.786   1.304
62236W        W21497  37.464  35.539  14.789
62237W        W21498  30.536   7.235  14.935
62238W        W21499  33.471  38.991  12.491
62239W        W21500  33.996  19.282   4.653
62240W        W21501  10.180  41.349  10.582
62241W        W21502   2.430  31.429  14.889
62242W        W21503  29.599  11.865   1.704
62243W        W21504   7.301   8.756   2.371
62244W        W21505  20.038   8.358  11.507
62245W        W21506   9.823  15.182  12.840
62246W        W21507  30.966  14.308   2.699
62247W        W21508  41.833   9.662   3.748
62248W        W21509  39.961   7.400   2.849
62249W        W21510  19.235   6.760   4.176
62250W        W21511  16.099  17.081  13.875
62251W        W21512  18.219  17.732  13.518
62252W        W21513  26.128  23.101  10.056
62253W        W21514  37.568   1.312   0.803
62254W        W21515  26.688  43.928  11.383
62255W        W21516  31.568  33.015  10.896
62256W        W21517  41.987   9.698  13.433
62257W        W21518  22.181  31.109  13.794
62258W        W21519  36.500  12.673  11.043
62259W        W21520  20.069  13.837   2.807
62260W        W21521  40.408  27.574   2.845
62261W        W21522   1.244  26.645   5.254
62262W        W21523   0.295  27.513  12.023
62263W        W21524  13.697  10.695   2.801
62264W        W21525   0.363   2.858  13.382
62265W        W21526  25.108  21.089  11.913
62266W        W21527   9.885   3.304   1.765
62267W        W21528  38.987  40.917  13.990
62268W        W21529  14.695  37.344  12.505
62269W        W21530  19.077  14.626  13.857
62270W        W21531   6.317  12.611   9.955
62271W        W21532  17.276  44.938  13.937
62272W        W21533  11.637  41.814  12.373
62273W        W21534  36.937  31.122  10.599
62274W        W21535  33.972   8.838   1.700
62275W        W21536   5.869  11.129   0.387
62276W        W21537  31.044  15.120  11.098
62277W        W21538  11.650  30.541   4.194
62278W        W21539  15.270  16.747   0.953
62279W        W21540   4.902  22.701  11.536
62280W        W21541   9.878  31.919  11.553
62281W        W21542  18.129   3.768  10.624
62282W        W21543   3.922  21.062  14.892
62283W        W21544  37.896  13.725  12.413
62284W        W21545  12.152  22.051  11.548
62285W        W21546  44.989  13.271  13.942
62286W        W21547  23.634  27.592  10.429
62287W        W21548  44.814  13.149   1.696
62288W        W21549  41.409  10.806  11.549
62289W        W21550  24.550   4.861  12.451
62290W        W21551   9.331  12.299   1.746
62291W        W21552  25.111  14.688   2.286
62292W        W21553  44.357  16.101   4.169
62293W        W21554  29.637  25.505   1.213
62294W        W21555  32.506   6.781  11.543
62295W        W21556  12.740  17.595   4.608
62296W        W21557  31.633  30.026   2.811
62297W        W21558  43.801  34.428   4.279
62298W        W21559  34.101   0.988  12.884
62299W        W21560  12.230  18.224  12.005
62300W        W21561  29.957   9.839  11.553
62301W        W21562   3.862  10.199  13.911
62302W        W21563  30.573  32.425  13.440
62303W        W21564  32.130  20.548  14.842
62304W        W21565  10.210  31.141   4.314
62305W        W21566   4.774  14.727  13.468
62306W        W21567  28.500  29.928  12.882
62307W        W21568  34.935  26.973  14.375
62308W        W21569   5.399  28.526  14.298
62309W        W21570  40.987  10.652   1.839
62310W        W21571  13.675  14.183  14.925
62311W        W21572  10.273  24.627   3.715
62312W        W21573  37.545  11.659  12.887
62313W        W21574  24.571  26.023  13.795
62314W        W21575   0.894   2.809  12.062
62315W        W21576   4.925  28.150  13.920
62316W        W21577  42.515  20.719  10.466
62317W        W21578  38.871  35.515   2.786
62318W        W21579  26.066  33.578  14.332
62319W        W21580   8.746  16.149  10.993
62320W        W21581  34.434  31.429   1.703
62321W        W21582  21.744  31.480   3.299
62322W        W21583  11.719  38.453   0.477
62323W        W21584  33.086  14.232   1.841
62324W        W21585   1.740   2.745  13.370
62325W        W21586  15.319  39.484  11.939
62326W        W21587  24.517  27.962   0.840
62327W        W21588  11.731  26.648  12.065
62328W        W21589  19.681  13.249  10.501
62329W        W21590   3.903  24.140   2.875
62330W        W21591  12.180   0.432   4.676
62331W        W21592  39.500  20.235   1.894
62332W        W21593  14.161   7.758  10.457
62333W        W21594  37.541  13.680   1.283
62334W        W21595  37.993  19.720  11.027
62335W        W21596   7.271  29.650  12.441
62336W        W21597  43.773  28.632   4.769
62337W        W21598  15.795  29.498  12.051
62338W        W21599  43.479  10.348   3.236
62339W        W21600   8.196  24.054  13.056
62340W        W21601  40.947  34.469   0.480
62341W        W21602  40.934  35.471   0.855
62342W        W21603  14.749  33.086  13.314
62343W        W21604  30.620  19.253   1.220
62344W        W21605   8.667   5.711   1.344
62345W        W21606  19.214  12.626  12.013
62346W        W21607  31.439  18.558   0.854
62347W        W21608  18.199   2.865  14.497
62348W        W21609   6.862  16.079  10.953
62349W        W21610  32.069  33.116   4.255
62350W        W21611   7.830  29.131  12.451
62351W        W21612  20.602   8.170   4.831
62352W        W21613  36.979  29.653  14.832
62353W        W21614   0.938  27.476  11.565
62354W        W21615   0.425  27.034   2.676
62355W        W21616  13.129  20.183  13.456
62356W        W21617   0.930  13.207  12.931
62357W        W21618  21.258  11.849   4.252
62358W        W21619  36.906  16.638   3.835
62359W        W21620  21.241  32.910  11.469
62360W        W21621  39.925  40.043  12.433
62361W        W21622  13.794  21.125  12.507
62362W        W21623  33.075  40.498   3.258
62363W        W21624  11.712   0.311   1.844
62364W        W21625  37.504  17.167  14.511
62365W        W21626  28.588  44.008   0.867
62366W        W21627  39.005  37.908   3.338
62367W        W21628  21.545  28.447  14.779
62368W        W21629  22.672  44.864  13.346
62369W        W21630  38.391  29.071  11.517
62370W        W21631  17.643  27.586   1.225
62371W        W21632  34.394  43.344  12.482
62372W        W21633  44.302   1.942  13.464
62373W        W21634   2.458  32.968   0.425
62374W        W21635  19.257   2.325   4.665
62375W        W21636   9.171  23.093  11.444
62376W        W21637  44.846  43.276  10.903
62377W        W21638  42.816  31.545   1.239
62378W        W21639   8.711  19.149   3.851
62379W        W21640  44.793  24.607  14.777
62380W        W21641  41.953  27.626  14.910
62381W        W21642  42.515  39.495  10.403
62382W        W21643  14.281  37.981   1.359
62383W        W21644  22.092  22.145  10.043
62384W        W21645  22.127  30.103  13.526
62385W        W21646  23.052  15.809   1.315
62386W        W21647   9.272  19.181  12.002
62387W        W21648  12.282  15.258   0.339
62388W        W21649  21.049  25.486   4.801
62389W        W21650   2.781  29.463  13.857
62390W        W21651  33.061   2.448   2.340
62391W        W21652  10.271  35.475  12.992
62392W        W21653  20.656   8.880  12.368
62393W        W21654   8.804  40.409  14.953
62394W        W21655  12.136  28.075   0.963
62395W        W21656   4.777  32.945  13.051
62396W        W21657  10.207  40.326  11.525
62397W        W21658  15.229   0.473  13.546
62398W        W21659  19.558   5.713  11.870
62399W        W21660  44.385  43.336  14.862
62400W        W21661  25.963  19.283  13.797
62401W        W21662  16.683  44.783  13.390
62402W        W21663  32.430  25.987  14.856
62403W        W21664  15.742  19.617  14.282
62404W        W21665   8.731   8.403  10.980
62405W        W21666  32.996   7.849   1.447
62406W        W21667  39.429   1.740   3.356
62407W        W21668   6.796   2.298  14.342
62408W        W21669  38.849  38.494  14.371
62409W        W21670   2.951   8.737   4.781
62410W        W21671   7.273  40.016  13.396
62411W        W21672  26.031  13.243   3.748
62412W        W21673  43.853  25.709   2.855
62413W        W21674   3.818  26.600  14.981
62414W        W21675  17.245   9.674  13.939
62415W        W21676  32.013  36.946  11.385
62416W        W21677  40.510   2.278  11.454
62417W        W21678   6.722  35.444  13.000
62418W        W21679  24.115  43.935  12.019
62419W        W21680  18.606  37.561   0.917
62420W        W21681  25.490  13.806   0.908
62421W        W21682  27.976  41.389   5.231
62422W        W21683  27.679  35.398  14.918
62423W        W21684  34.394  28.052  12.419
62424W        W21685  32.125   6.315  14.375
62425W        W21686   4.291   3.307   4.274
62426W        W21687  18.205  29.660   4.132
62427W        W21688  32.945  24.009   4.177
62428W        W21689  28.559   0.258   1.367
62429W        W21690   6.267   1.330   4.130
62430W        W21691   4.931  35.059   1.242
62431W        W21692  28.034  35.095   4.201
62432W        W21693  29.556  30.118   1.251
62433W        W21694  36.526  24.715  11.990
62434W        W21695   2.791  39.510   1.808
62435W        W21696   3.799  42.898   4.269
62436W        W21697  40.814   7.836   1.886
62437W        W21698  18.694  15.280   3.758
62438W        W21699  24.997  24.211  13.498
62439W        W21700  12.135  18.585  11.545
62440W        W21701  35.879  39.045  10.994
62441W        W21702  11.633  33.984   0.443
62442W        W21703  20.739   4.302   3.832
62443W        W21704   6.835  40.519   0.458
62444W        W21705  32.567  27.591  14.304
62445W        W21706  26.577  31.011  11.916
62446W        W21707  23.680  22.238  13.001
62447W        W21708  30.964   7.266  13.049
62448W        W21709  12.258  25.505   3.379
62449W        W21710  13.147  23.074  14.906
62450W        W21711  29.608  30.624  13.459
62451W        W21712  30.627  17.292  10.468
62452W        W21713  39.835  34.590   0.886
62453W        W21714  21.663   5.884   2.715
62454W        W21715  28.483  15.159  14.772
62455W        W21716   3.811  11.759  10.155
62456W        W21717  25.499  21.114  12.363
62457W        W21718  36.507   0.897  11.926
62458W        W21719   5.291   7.348   9.574
62459W        W21720  38.331  17.604  14.341
62460W        W21721  31.459  31.906   2.363
62461W        W21722  22.699  23.048  14.357
62462W        W21723  40.356  10.154  11.423
62463W        W21724   9.817  13.142  12.533
62464W        W21725  41.492  31.149   2.330
62465W        W21726  37.949  31.033  13.377
62466W        W21727  26.060  11.675  12.980
62467W        W21728   2.333  44.371   1.761
62468W        W21729  27.009  19.069   3.311
62469W        W21730  29.648  40.853  13.010
62470W        W21731  10.369  11.716  10.937
62471W        W21732   7.225   5.722   0.842
62472W        W21733  24.491  14.704   2.844
62473W        W21734  21.251  25.016   0.922
62474W        W21735  35.418   9.393   4.227
62475W        W21736  10.330   2.435   3.244
62476W        W21737  32.985  17.561   0.858
62477W        W21738  16.159  21.207   3.249
62478W        W21739  13.644  17.578  13.486
62479W        W21740  27.574  39.994  11.438
62480W        W21741  11.250   7.333   4.752
62481W        W21742   1.344   2.958   1.792
62482W        W21743   3.415  35.011  13.886
62483W        W21744   3.766  39.053   1.930
62484W        W21745  34.383  20.210   0.957
62485W        W21746  35.592   3.289   1.722
62486W        W21747  23.037  42.457  13.369
62487W        W21748   2.347  33.101   1.737
62488W        W21749  39.917  44.347   4.249
62489W        W21750  34.039  37.979  10.999
62490W        W21751  19.151  42.924  11.995
62491W        W21752  13.159  25.038  14.023
62492W        W21753  37.959  43.274  14.969
62493W        W21754  36.926   2.327   0.837
62494W        W21755   3.439  39.412   1.376
62495W        W21756  15.639   2.782   3.150
62496W        W21757  33.124  42.851  14.892
62497W        W21758  38.378  40.514   4.246
62498W        W21759  40.928  17.598   4.632
62499W        W21760  44.968  10.805  12.444
62500W        W21761  38.373  20.210  13.356
62501W        W21762  10.771  30.442  13.418
62502W        W21763  22.129  33.418   3.755
62503W        W21764  27.595  17.748  13.878
62504W        W21765   2.358  17.239   3.668
62505W        W21766  26.523  34.572   2.722
62506W        W21767  29.429   0.805  11.494
62507W        W21768  25.522   5.247  12.522
62508W        W21769  14.268  27.174   1.248
62509W        W21770  41.358  38.491   3.858
62510W        W21771   4.877   2.331   4.169
62511W        W21772  11.148  23.041   3.632
62512W        W21773   9.764  39.356   3.664
62513W        W21774  36.553  34.050   0.358
62514W        W21775   7.912  29.588   1.307
62515W        W21776  20.723  19.681   5.565
62516W        W21777  31.953  28.586  14.772
62517W        W21778  29.645  27.657   4.646
62518W        W21779  18.631   4.890   4.303
62519W        W21780  18.269  42.443  10.423
62520W        W21781  41.800  34.022  10.576
62521W        W21782  30.512  31.000  14.344
62522W        W21783  21.731  22.185  13.527
62523W        W21784  43.410  35.501   3.291
62524W        W21785  40.385  36.348   0.334
62525W        W21786  16.100   6.890   4.291
62526W        W21787   7.212  43.777  13.896
62527W        W21788  23.079  43.445  14.957
62528W        W21789   1.907  44.850  11.001
62529W        W21790  20.242   1.825   1.315
62530W        W21791  41.821   7.800  11.054
62531W        W21792  37.875  34.030   3.770
62532W        W21793  33.544  16.602   1.379
62533W        W21794  24.645  31.570  14.016
62534W        W21795   4.420  22.605   1.922
62535W        W21796  35.387  24.112  13.476
62536W        W21797   7.303  18.218  11.591
62537W        W21798  16.772  19.046  14.284
62538W        W21799  15.650  14.594   0.283
62539W        W21800  12.137  25.612   3.784
62540W        W21801   1.887  37.068   0.783
62541W        W21802  39.971   9.302  14.904
62542W        W21803  36.592  25.168  14.287
62543W        W21804  38.960  37.947  10.613
62544W        W21805  34.900  15.116  13.004
62545W        W21806  39.503  43.321  12.466
62546W        W21807  17.564   9.248  14.815
62547W        W21808  26.509  26.559  14.442
62548W        W21809  26.093  26.701  12.068
62549W        W21810  27.047  30.485   0.474
62550W        W21811   9.780  31.418   3.193
62551W        W21812  31.441  36.856   2.270
62552W        W21813  25.111   4.356  11.033
62553W        W21814   0.443  32.043   5.253
62554W        W21815   6.290  16.662  14.304
62555W        W21816  16.807  31.116  10.590
62556W        W21817  12.212   1.764   5.681
62557W        W21818  17.308   0.308   3.820
62558W        W21819   3.906  14.607   2.667
62559W        W21820  39.029   8.819  10.011
62560W        W21821   6.341  44.266  14.463
62561W        W21822  18.225  28.951   2.823
62562W        W21823  39.504   0.361  12.511
62563W        W21824   9.379  37.942  13.371
62564W        W21825  37.526  31.635   1.766
62565W        W21826  21.548  20.547  10.553
62566W        W21827  25.542   4.236  11.980
62567W        W21828  35.891  32.581   1.369
62568W        W21829   9.234  22.028   4.128
62569W        W21830  24.705  23.193   3.757
62570W        W21831   8.843  25.210   0.813
62571W        W21832  16.299  14.648   4.833
62572W        W21833   6.248  37.991  12.977
62573W        W21834  41.402   5.757   3.831
62574W        W21835   7.289  40.960   4.330
62575W        W21836  31.109  24.629  14.470
62576W        W21837  39.460  16.132   1.237
62577W        W21838  41.990  32.136  14.008
62578W        W21839  32.930  27.130   2.836
62579W        W21840  26.097   2.419   0.913
62580W        W21841  42.467   2.739  14.022
62581W        W21842   4.398  35.528  11.612
62582W        W21843   8.754  35.024   1.705
62583W        W21844   1.931   2.739   2.378
62584W        W21845  23.147   3.279  11.108
62585W        W21846  43.402  27.527   2.286
62586W        W21847  17.070  39.873   3.646
62587W        W21848  39.034  11.745   4.175
62588W        W21849  23.603  11.751  11.452
62589W        W21850  44.286  41.437   4.669
62590W        W21851  42.286  14.156   1.771
62591W        W21852  32.115   5.427   3.376
62592W        W21853  34.503  32.629  12.910
62593W        W21854   7.875  18.274   3.310
62594W        W21855  12.664  42.406   4.181
62595W        W21856  42.988  30.627   4.169
62596W        W21857  18.056  36.017  13.962
62597W        W21858  36.032  36.508   0.398
62598W        W21859  13.604   1.784  11.481
62599W        W21860  25.971  35.904   0.859
62600W        W21861  28.005  27.189  13.417
62601W        W21862  34.432  26.601   4.705
62602W        W21863  22.514  31.414   2.300
62603W        W21864  44.369   5.226  10.555
62604W        W21865  39.047  31.100  14.510
62605W        W21866  26.127  44.760  10.451
62606W        W21867  43.495  18.703   1.833
62607W        W21868  40.810  27.464   1.361
62608W        W21869  25.635   7.911   2.417
62609W        W21870  24.171  17.797  12.904
62610W        W21871  33.502  41.298   0.777
62611W        W21872   5.869   5.353  13.436
62612W        W21873   5.847  36.373   0.343
62613W        W21874  14.742   0.944   4.626
62614W        W21875  17.735  15.689   0.450
62615W        W21876  39.966  17.643   1.248
62616W        W21877  12.347  41.328   0.245
62617W        W21878  44.927  42.022  11.451
62618W        W21879  23.565  31.420   0.935
62619W        W21880  25.593  31.898   0.325
62620W        W21881   8.380  43.004   4.746
62621W        W21882   7.744  31.904  14.921
62622W        W21883   4.841  28.109   1.889
62623W        W21884  16.243  34.936  14.925
62624W        W21885  43.936   7.797  11.524
62625W        W21886  23.534  22.505  14.345
62626W        W21887  40.904  44.355  13.035
62627W        W21888   4.719  40.357  10.976
62628W        W21889  30.623   7.753   0.289
62629W        W21890   2.893  25.129  11.043
62630W        W21891  22.625   4.232  13.992
62631W        W21892  21.205  22.737  10.491
62632W        W21893  22.035  11.295   0.762
62633W        W21894  11.623  39.898   2.374
62634W        W21895  21.662   1.374  14.861
62635W        W21896  24.508   3.293   4.137
62636W        W21897  39.526  38.916   2.823
62637W        W21898  15.262  35.894  13.418
62638W        W21899  16.125  11.630   4.720
62639W        W21900   6.253   1.881  12.950
62640W        W21901   1.260  42.365   3.768
62641W        W21902  12.276   9.221   3.342
62642W        W21903  19.068  20.530  13.367
62643W        W21904   8.862  16.308  10.619
62644W        W21905  18.611  13.649  10.908
62645W        W21906  10.708  33.931   3.727
62646W        W21907  36.506  40.965  13.523
62647W        W21908  35.483  31.434   1.836
62648W        W21909  21.138   5.744  10.053
62649W        W21910  38.551  21.755  13.006
62650W        W21911  39.505  22.708  12.961
62651W        W21912  41.409  15.664   3.167
62652W        W21913   2.328  24.630   3.251
62653W        W21914  31.529  36.948   3.303
62654W        W21915  37.998  14.642  10.623
62655W        W21916  37.581   5.274  14.437
62656W        W21917  20.739   8.798  14.289
62657W        W21918  39.523  26.574  13.795
62658W        W21919  27.540  16.790   3.634
62659W        W21920  18.630  38.415   0.428
62660W        W21921   2.269  13.710  11.959
62661W        W21922   5.419  16.592   3.749
62662W        W21923  36.588  10.327   2.190
62663W        W21924   1.325  33.550   3.730
62664W        W21925  35.400  22.180  10.965
62665W        W21926   5.872  26.649  11.053
62666W        W21927  28.130  40.308  12.409
62667W        W21928   0.819  30.113   0.767
62668W        W21929  36.971  23.211  10.411
62669W        W21930  22.549   0.272  11.407
62670W        W21931  32.450  37.385   3.802
62671W        W21932  21.043  33.466  11.102
62672W        W21933  32.048  11.837  13.965
62673W        W21934  17.570  32.492  13.503
62674W        W21935  39.505  27.606  12.876
62675W        W21936  28.047  30.657   0.854
62676W        W21937  14.750  39.831   1.808
62677W        W21938  21.166  28.456  12.535
62678W        W21939   7.872  44.369  11.073
62679W        W21940  41.295  33.566  13.041
62680W        W21941  37.022   6.921  14.340
62681W        W21942   9.729  41.865  12.426
62682W        W21943  37.031  10.764  10.441
62683W        W21944  22.025  19.081   3.868
62684W        W21945   4.936  17.794   0.840
62685W        W21946   5.218  18.577   0.348
62686W        W21947   7.858   9.713  13.924
62687W        W21948  29.962   1.927  10.565
62688W        W21949   4.311   0.845  13.914
62689W        W21950  38.890  26.696   1.406
62690W        W21951  31.507  14.263   2.886
62691W        W21952  32.941  25.607  13.005
62692W        W21953  21.519   1.271   3.260
62693W        W21954  18.221  44.282   2.866
62694W        W21955  27.657  18.620   3.382
62695W        W21956  11.333  27.952   1.917
62696W        W21957  41.372  42.307   0.784
62697W        W21958   1.774  18.231  11.881
62698W        W21959  21.070  39.423  14.910
62699W        W21960  27.525  12.194  12.339
62700W        W21961  32.490  21.581  14.342
62701W        W21962  42.838   3.250  14.783
62702W        W21963  30.956  17.275   4.827
62703W        W21964  44.875  24.198   1.887
62704W        W21965  19.276   9.817  13.314
62705W        W21966  10.759  37.516   4.661
62706W        W21967  34.387  16.233  12.355
62707W        W21968   6.342  24.594   0.479
62708W        W21969   6.345  29.604  12.560
62709W        W21970  25.648  33.110  10.512
62710W        W21971  35.523  44.993  14.912
62711W        W21972   4.385   3.371   3.687
62712W        W21973   7.883  29.518   3.296
62713W        W21974  44.775   6.860  11.082
62714W        W21975  15.620  17.582  12.475
62715W        W21976  43.354   4.216   4.652
62716W        W21977  18.183  11.157   3.150
62717W        W21978  23.586  25.104  11.396
62718W        W21979  21.121  27.607   3.649
62719W        W21980   4.742  16.113  14.321
62720W        W21981  40.017  13.795  13.821
62721W        W21982  27.995  12.856  10.471
62722W        W21983   4.783  44.433   3.811
62723W        W21984  14.108  21.135   0.923
62724W        W21985  23.712  42.386  14.007
62725W        W21986  40.321  19.187  11.049
62726W        W21987  15.160  14.829  13.477
62727W        W21988   5.758  41.857   3.313
62728W        W21989  17.126  26.580  13.463
62729W        W21990   0.381  13.770   0.451
62730W        W21991  41.304   0.887   4.607
62731W        W21992   5.921   3.341   4.288
62732W        W21993  11.644  14.709   4.170
62733W        W21994  33.976   7.861  13.362
62734W        W21995   3.839  34.869  11.373
62735W        W21996  26.041  22.017  14.928
62736W        W21997   2.334  34.992   4.655
62737W        W21998  28.121  25.712  13.950
62738W        W21999  11.833   1.871  13.014
62739W        W22000  19.767   9.678  10.918
62740W        W22001  33.443  19.249  12.385
62741W        W22002  36.435  43.878   4.285
62742W        W22003  38.365  39.903   3.816
62743W        W22004  23.569  29.495  13.839
62744W        W22005  38.394  18.718  14.000
62745W        W22006  32.402  14.608  11.417
62746W        W22007   0.283  44.769  10.521
62747W        W22008  15.312  41.786   3.801
62748W        W22009  25.982   1.879  11.448
62749W        W22010   8.777  23.575  12.862
62750W        W22011  35.907   1.909  10.992
62751W        W22012  44.285  34.604   3.274
62752W        W22013  15.129   2.929  14.852
62753W        W22014   9.661   5.762  10.444
62754W        W22015   5.798  24.055   4.316
62755W        W22016  24.547  31.958  12.391
62756W        W22017  43.309  17.241  10.577
62757W        W22018  21.518  28.475  11.088
62758W        W22019  26.979  28.552   3.197
62759W        W22020  19.073  44.788   2.303
62760W        W22021  36.558  38.343  11.601
62761W        W22022   2.295   7.245  13.427
62762W        W22023  35.982  15.303  12.975
62763W        W22024   9.220  22.738  11.523
62764W        W22025  23.524  29.475   3.819
62765W        W22026  29.971  21.671   1.887
62766W        W22027   3.922  22.224   3.157
62767W        W22028  17.604  42.378  11.397
62768W        W22029   5.895  28.161  10.595
62769W        W22030   0.341  40.459   3.655
62770W        W22031  17.671  22.162   3.158
62771W        W22032  30.112  14.760   4.787
62772W        W22033   9.235  11.156  11.928
62773W        W22034  22.708  19.193   0.825
62774W        W22035  24.482  40.396  10.544
62775W        W22036  25.004  42.315   4.250
62776W        W22037  23.035  18.698  12.020
62777W        W22038  23.730  38.430  12.888
62778W        W22039  36.352  13.628   2.818
62779W        W22040  35.581   2.924   2.334
62780W        W22041   6.321   4.752   1.219
62781W        W22042   0.366  17.693   2.716
62782W        W22043   1.386  44.963   0.934
62783W        W22044   3.429  28.508   0.923
62784W        W22045   6.875  17.646  10.458
62785W        W22046  20.147  26.517  13.496
62786W        W22047  37.449  22.557  14.776
62787W        W22048  43.377   3.857  10.449
62788W        W22049  33.477   3.754   3.303
62789W        W22050  15.160  25.588  12.829
62790W        W22051  35.873  28.573  10.439
62791W        W22052   0.429  37.448   0.764
62792W        W22053  21.675  40.908   2.259
62793W        W22054  24.187  35.887  13.910
62794W        W22055  40.482  11.196  10.553
62795W        W22056  16.700  30.626   2.795
62796W        W22057   9.759  22.214   3.689
62797W        W22058   9.658   7.334  10.575
62798W        W22059   7.752  40.510  11.023
62799W        W22060  20.559  33.964  13.998
62800W        W22061  14.112  38.926  12.345
62801W        W22062  42.407  40.854  14.384
62802W        W22063  27.519  35.985  14.824
62803W        W22064  40.362  44.347  12.529
62804W        W22065  13.739  42.375   0.769
62805W        W22066  32.519   0.400   0.802
62806W        W22067  28.186  19.602  11.560
62807W        W22068   0.935  37.033   2.284
62808W        W22069   1.891   7.381  11.474
62809W        W22070  11.370  33.126   2.706
62810W        W22071   0.863   9.365  12.550
62811W        W22072  34.915  34.437   2.250
62812W        W22073  28.493  13.835  14.431
62813W        W22074  14.199  32.471   0.460
62814W        W22075  38.948   9.337  13.529
62815W        W22076  11.678  28.002   0.923
62816W        W22077  35.404  34.458  12.002
62817W        W22078   5.343  28.960   4.184
62818W        W22079  16.297  26.524  12.000
62819W        W22080  10.217  22.028   2.771
62820W        W22081   9.290  36.911   1.730
62821W        W22082   6.677  17.153   4.139
62822W        W22083  21.106  24.208  14.379
62823W        W22084  32.081  26.999  11.978
62824W        W22085   6.367  38.504  11.862
62825W        W22086   4.378  29.639   2.329
62826W        W22087  30.927   2.375  10.534
62827W        W22088  23.631   2.303  12.079
62828W        W22089  28.999  23.709   2.380
62829W        W22090  14.253  38.949  11.994
62830W        W22091  19.756   8.220  14.914
62831W        W22092  41.401  42.432  10.426
62832W        W22093  18.281   0.817   4.337
62833W        W22094  23.576  19.733  10.919
62834W        W22095  21.752  26.541  13.929
62835W        W22096  22.573   0.479   1.366
62836W        W22097   4.934  21.245  13.031
62837W        W22098   8.211  29.106   4.346
62838W        W22099  31.607  35.578   0.731
62839W        W22100  23.176  18.759   4.637
62840W        W22101  20.616  38.324  14.963
62841W        W22102  39.876   3.833  13.317
62842W        W22103  12.272  26.667   5.316
62843W        W22104  11.643   9.160  14.335
62844W        W22105  10.328  36.584   4.743
62845W        W22106  15.149  40.346  11.097
62846W        W22107  39.353  15.182   1.841
62847W        W22108   3.287  27.573   3.854
62848W        W22109  27.157  18.269  11.448
62849W        W22110  31.427  29.656  11.023
62850W        W22111  20.524  33.115   4.236
62851W        W22112  14.225  19.149  10.945
62852W        W22113   6.817  39.361   4.275
62853W        W22114  31.477  15.613   0.312
62854W        W22115  32.086  23.048  13.351
62855W        W22116  39.427   9.309  10.426
62856W        W22117  14.255  41.034  12.378
62857W        W22118  17.152  15.782  12.574
62858W        W22119  31.589   4.317  13.480
62859W        W22120   6.679  26.688   2.867
62860W        W22121  42.347   7.262   1.739
62861W        W22122   1.748  25.690   2.406
62862W        W22123  28.177  17.666   4.813
62863W        W22124  17.152  32.605  14.872
62864W        W22125  20.241  16.172  12.865
62865W        W22126  24.170  32.125   2.797
62866W        W22127  19.673  31.091  14.866
62867W        W22128  17.213  18.237   1.330
62868W        W22129   7.190   0.971   2.728
62869W        W22130  43.395  41.361  12.959
62870W        W22131  16.182  27.557  12.496
62871W        W22132  17.766  27.000  12.004
62872W        W22133  19.236  17.710   9.546
62873W        W22134  18.087  12.314   0.295
62874W        W22135  43.504  41.518  11.568
62875W        W22136   8.760  26.066  11.872
62876W        W22137  44.474  10.269  12.078
62877W        W22138  32.029  22.649   2.665
62878W        W22139   5.285  23.732   1.424
62879W        W22140  37.479  16.726   2.687
62880W        W22141  19.114  12.258  11.611
62881W        W22142  35.459  35.013   2.396
62882W        W22143   5.923  23.010  14.348
62883W        W22144  30.924   6.276   0.263
62884W        W22145  18.227  27.660  13.042
62885W        W22146  33.031  27.163   0.735
62886W        W22147  32.929  22.697  10.979
62887W        W22148  15.578  44.893   0.332
62888W        W22149  33.494  18.092   1.434
62889W        W22150  17.275   5.778   2.720
62890W        W22151  37.478  19.613  14.888
62891W        W22152  32.093  20.275   1.312
62892W        W22153  26.160  37.517   0.740
62893W        W22154  31.549  28.127   2.378
62894W        W22155   6.344  27.103  12.556
62895W        W22156  10.287  14.162   2.680
62896W        W22157  25.166  33.029  14.370
62897W        W22158   1.314  38.418   0.828
62898W        W22159  14.096  12.151   1.345
62899W        W22160  25.625  37.979  13.461
62900W        W22161  29.093  15.615  12.950
62901W        W22162  32.933   6.410   1.796
62902W        W22163   6.325  17.279   1.320
62903W        W22164   1.829   3.863   0.881
62904W        W22165  19.671  29.164   2.730
62905W        W22166  43.831  10.652  11.046
62906W        W22167  41.904  40.895  12.930
62907W        W22168  24.077   7.891   2.763
62908W        W22169  37.061   6.425  14.846
62909W        W22170  43.856  33.129  12.999
62910W        W22171  37.472  13.697  12.955
62911W        W22172   2.423  44.943  13.052
62912W        W22173  27.981   6.420   0.266
62913W        W22174  35.078  32.918  13.353
62914W        W22175  27.189  10.693   0.245
62915W        W22176  40.490   6.313  10.627
62916W        W22177  43.476  18.558  13.317
62917W        W22178  23.637  11.824  11.901
62918W        W22179  13.774  14.115   1.343
62919W        W22180  15.318   6.318  14.307
62920W        W22181  30.928  38.448  11.447
62921W        W22182  32.051  14.162   0.474
62922W        W22183  20.712  41.319  13.877
62923W        W22184  26.536  23.587  11.978
62924W        W22185  25.141  15.622   0.834
62925W        W22186  11.855   3.915   0.963
62926W        W22187  13.227   5.779  14.353
62927W        W22188  29.038  15.273   3.373
62928W        W22189  16.595   5.328   2.222
62929W        W22190  27.476  36.876   0.403
62930W        W22191  20.105  14.175   4.693
62931W        W22192  32.582  22.999   2.780
62932W        W22193   3.740  14.190  11.472
62933W        W22194  37.989  12.634   3.862
62934W        W22195  25.567   4.310   3.293
62935W        W22196  24.162   2.741   1.780
62936W        W22197  26.174  10.279  12.488
62937W        W22198  35.573   9.711  14.445
62938W        W22199  36.505   3.244  12.915
62939W        W22200  23.993  19.261   4.834
62940W        W22201  13.169  25.028  14.350
62941W        W22202  23.531  12.128  10.516
62942W        W22203  16.098  37.840  11.576
62943W        W22204  18.635  19.746  12.534
62944W        W22205  16.099  34.482  10.604
62945W        W22206  26.182  15.780   9.922
62946W        W22207   0.985  33.935  13.821
62947W        W22208  29.008  31.440   4.192
62948W        W22209  42.338  15.291  14.028
62949W        W22210   3.787  33.418   3.300
62950W        W22211  32.102  36.944   2.299
62951W        W22212   5.853   4.810   2.860
62952W        W22213   9.774  14.652  13.794
62953W        W22214  23.183  19.255   3.849
62954W        W22215  19.734  19.218  11.427
62955W        W22216  35.564  40.859   2.775
62956W        W22217  10.197   6.342   4.279
62957W        W22218   2.782  21.094   1.861
62958W        W22219  31.612  21.154   1.326
62959W        W22220  17.682  21.241  13.030
62960W        W22221   5.414   6.719   0.360
62961W        W22222   8.688  24.587  14.818
62962W        W22223   1.888  20.683   4.221
62963W        W22224  25.085   5.275   1.906
62964W        W22225  42.429  39.867  12.341
62965W        W22226   9.690  19.264  13.051
62966W        W22227  35.987  36.417   3.155
62967W        W22228  16.257  14.300  11.576
62968W        W22229  21.739  20.233  13.417
62969W        W22230  14.668   6.819   3.749
62970W        W22231  11.705   6.210   1.724
62971W        W22232   9.170  22.173  10.638
62972W        W22233   7.771   9.348   3.844
62973W        W22234  11.721  13.691  11.520
62974W        W22235   2.342  21.607   4.831
62975W        W22236   1.977   2.861  11.433
62976W        W22237  11.737  39.531  14.959
62977W        W22238  43.871  35.523  12.451
62978W        W22239  36.933  22.162   3.682
62979W        W22240  40.498   1.782  11.543
62980W        W22241  39.994  20.236   3.727
62981W        W22242   8.331   2.867  14.798
62982W        W22243   3.716  10.256  11.567
62983W        W22244  36.467  27.990   0.789
62984W        W22245  38.428  33.997  14.812
62985W        W22246  36.031  13.689  14.313
62986W        W22247  13.126   8.401   4.693
62987W        W22248   1.271  10.713  11.906
62988W        W22249  42.496  17.679  11.071
62989W        W22250  12.253  11.270   0.272
62990W        W22251  14.238   2.307   3.660
62991W        W22252  44.970  39.053   0.821
62992W        W22253  41.459  15.287   2.248
62993W        W22254  41.837   3.336   0.903
62994W        W22255   0.336  21.031  12.389
62995W        W22256   9.186  19.779   2.881
62996W        W22257   1.461   9.186   2.334
62997W        W22258  23.242  26.988  14.904
62998W        W22259  21.585  43.924  14.427
62999W        W22260  23.984  18.747  13.318
63000W        W22261  21.145  37.032  11.863
63001W        W22262  24.220  33.619   5.102
63002W        W22263  13.164   4.357   2.879
63003W        W22264  16.153  42.006  13.056
63004W        W22265  26.963  19.110   1.858
63005W        W22266  24.592  20.071   1.440
63006W        W22267  14.630   7.744   1.736
63007W        W22268  42.855  30.139   4.167
63008W        W22269   4.928  30.981  13.393
63009W        W22270  43.862  43.798  11.870
63010W        W22271  32.446  18.592   2.419
63011W        W22272  17.195  20.174   1.781
63012W        W22273  21.715  38.879   0.317
63013W        W22274  25.640  19.603   3.343
63014W        W22275   5.230  31.482   0.778
63015W        W22276  23.672  19.631  11.473
63016W        W22277  29.612  22.222  14.809
63017W        W22278  12.756  42.797   3.862
63018W        W22279  44.326  40.844   1.831
63019W        W22280   1.329   5.247  14.797
63020W        W22281   1.972  24.098  11.980
63021W        W22282  10.288  21.132   1.292
63022W        W22283  32.938  44.331  11.084
63023W        W22284  30.584  10.828   1.710
63024W        W22285  43.303  35.040   0.467
63025W        W22286  18.576  15.765   5.095
63026W        W22287  20.101  11.705   0.918
63027W        W22288  26.502  26.595   1.450
63028W        W22289   5.773  26.120   4.328
63029W        W22290  34.423  25.056   3.180
63030W        W22291   8.889  41.906   1.890
63031W        W22292  22.016  14.269  12.544
63032W        W22293  28.040   8.811   4.781
63033W        W22294  35.033  17.669   0.373
63034W        W22295   5.759  43.873   2.306
63035W        W22296  29.978  12.324  13.502
63036W        W22297  32.525  30.549   4.815
63037W        W22298  21.029  35.079   1.299
63038W        W22299  28.553  40.323  11.943
63039W        W22300  35.364   5.839   4.818
63040W        W22301  23.558   9.667  12.073
63041W        W22302  25.709  41.979   3.685
63042W        W22303   5.687  34.903  10.947
63043W        W22304  27.101  23.517  14.803
63044W        W22305  22.580  44.432  11.914
63045W        W22306  24.030   1.426   3.634
63046W        W22307  35.072  44.348   1.429
63047W        W22308  10.331  26.105  11.932
63048W        W22309  12.651  19.629  13.021
63049W        W22310  30.131  30.156   2.690
63050W        W22311  30.007  36.094   1.702
63051W        W22312  17.125  34.113   4.744
63052W        W22313  34.378  33.972   9.656
63053W        W22314  21.126  14.111   5.102
63054W        W22315   3.320  22.235   3.309
63055W        W22316  16.648   8.661  12.444
63056W        W22317  32.402  10.301  11.514
63057W        W22318  26.593  17.160   2.773
63058W        W22319  27.075  18.180   2.723
63059W        W22320  33.459  27.635   0.779
63060W        W22321  34.486  19.751  14.341
63061W        W22322  10.242   4.431  12.534
63062W        W22323  36.486  23.992  12.956
63063W        W22324  22.598  24.544   3.242
63064W        W22325  36.510  43.842   1.771
63065W        W22326  25.470  36.847   3.383
63066W        W22327  36.583   0.912   1.367
63067W        W22328  35.057   9.668   3.736
63068W        W22329  26.113  24.090  14.948
63069W        W22330  28.612  41.864  12.450
63070W        W22331   3.759  38.446  12.953
63071W        W22332  37.896  36.449  11.380
63072W        W22333  44.489   4.338   3.636
63073W        W22334  23.732   9.349  11.472
63074W        W22335   1.400   9.883  10.609
63075W        W22336  12.792  44.425  12.362
63076W        W22337  26.687   3.447   4.338
63077W        W22338  34.023   8.222  11.581
63078W        W22339  35.917  41.995   3.212
63079W        W22340  39.463  21.097  11.373
63080W        W22341   8.265  15.213   1.836
63081W        W22342  37.458  27.663  12.900
63082W        W22343  10.820  39.398  14.415
63083W        W22344  16.166  29.660  14.855
63084W        W22345  31.600   8.717  13.364
63085W        W22346  23.992  20.268  10.449
63086W        W22347  32.528   0.939   0.303
63087W        W22348  20.756   2.863   3.633
63088W        W22349  19.058  33.598  12.485
63089W        W22350  34.032  17.637  12.043
63090W        W22351   7.224  43.291   2.845
63091W        W22352  40.809  16.785  14.766
63092W        W22353  13.231   7.344   2.878
63093W        W22354   6.348  11.775   2.345
63094W        W22355   6.774   5.350  13.394
63095W        W22356   6.789  18.637  12.525
63096W        W22357  22.191  36.548  11.548
63097W        W22358   7.728   5.932   1.876
63098W        W22359   1.362   4.394   0.279
63099W        W22360   4.423  17.099  14.503
63100W        W22361  17.268  40.370   5.084
63101W        W22362  22.504  39.007   4.152
63102W        W22363   7.758   9.392   1.438
63103W        W22364  41.325   2.822   4.350
63104W        W22365  36.053  17.702  12.414
63105W        W22366  10.153  27.062   2.776
63106W        W22367  11.216  27.658  14.954
63107W        W22368   7.753  37.552  10.440
63108W        W22369   8.884   7.325  13.020
63109W        W22370  22.719  41.385  10.106
63110W        W22371  39.065  38.869   3.314
63111W        W22372  39.924   2.274  11.872
63112W        W22373   2.827   0.901  13.857
63113W        W22374   9.844  40.040   1.908
63114W        W22375  14.236  29.991   3.741
63115W        W22376  25.076  17.285   2.360
63116W        W22377  27.143  32.546   2.233
63117W        W22378  27.682  27.473  11.120
63118W        W22379   9.243  36.078  10.446
63119W        W22380  26.065   4.777  14.936
63120W        W22381  38.561  39.879  14.456
63121W        W22382  27.004  39.815  14.290
63122W        W22383  35.431   5.818  11.434
63123W        W22384   6.249   8.319   2.275
63124W        W22385  12.296   3.274  14.280
63125W        W22386   4.344  23.572  13.448
63126W        W22387  41.907   4.342   2.859
63127W        W22388  25.162   3.446   3.844
63128W        W22389  16.098  26.152  13.404
63129W        W22390   3.869   1.954  12.843
63130W        W22391  36.433   4.253  12.507
63131W        W22392  28.662  12.720  12.874
63132W        W22393  41.856  39.811   1.376
63133W        W22394   5.873  42.799  12.431
63134W        W22395  21.195  26.538  11.418
63135W        W22396   6.353  36.896  13.866
63136W        W22397  12.669   9.158  14.789
63137W        W22398   9.337  11.656   4.722
63138W        W22399  44.963  36.519  14.781
63139W        W22400  13.616  14.198   2.327
63140W        W22401   6.892  27.624  12.994
63141W        W22402  13.334  10.365   0.935
63142W        W22403   5.258   0.294  10.972
63143W        W22404  18.141  13.698  13.423
63144W        W22405   6.704  39.394   3.331
63145W        W22406  32.927  18.189  13.460
63146W        W22407  23.164  12.636  12.475
63147W        W22408   0.328  28.992   0.388
63148W        W22409  18.708  27.049  14.410
63149W        W22410  24.013  37.384   3.860
63150W        W22411  22.637  14.142  11.067
63151W        W22412  32.037  14.094   3.635
63152W        W22413  35.377   1.247   3.844
63153W        W22414  21.692   9.375   1.762
63154W        W22415  25.016   2.756  10.558
63155W        W22416  29.619  30.627   0.823
63156W        W22417  29.610  12.754   9.959
63157W        W22418  42.311   1.909   4.726
63158W        W22419   0.948   3.398   2.745
63159W        W22420  10.204   6.294  13.811
63160W        W22421   0.959  24.167   4.296
63161W        W22422  37.434   7.270  11.111
63162W        W22423  31.525  20.679   2.182
63163W        W22424  41.977  26.519  14.836
63164W        W22425  14.253  24.585  11.548
63165W        W22426  29.481   2.350   4.192
63166W        W22427   6.862  10.801  11.062
63167W        W22428  15.736  19.554  13.063
63168W        W22429  29.483   7.367   2.708
63169W        W22430  30.141  25.013  11.028
63170W        W22431  14.111  12.754   3.808
63171W        W22432   3.426   2.361   1.704
63172W        W22433  32.135  22.574  14.032
63173W        W22434  25.187   6.782   2.321
63174W        W22435  16.152   2.816  12.471
63175W        W22436  22.579  32.067  12.514
63176W        W22437  20.167  14.110  14.976
63177W        W22438  11.225  26.564  10.444
63178W        W22439   1.772   8.785  13.888
63179W        W22440  36.506  43.488   3.181
63180W        W22441  40.545  34.920  13.950
63181W        W22442  36.591   1.868   4.120
63182W        W22443  19.141  35.515  10.644
63183W        W22444  26.659  21.123   4.176
63184W        W22445  28.442   2.354   3.326
63185W        W22446  17.102  15.137   3.737
63186W        W22447   6.260  36.390   1.429
63187W        W22448   7.391  38.503  10.916
63188W        W22449   9.392  24.512   1.332
63189W        W22450   3.350  32.508  12.838
63190W        W22451  17.117  42.914   2.763
63191W        W22452  33.457  33.438   0.782
63192W        W22453   1.940  21.701  13.964
63193W        W22454  14.816  31.556   2.319
63194W        W22455  22.219  18.643  14.318
63195W        W22456   5.390  27.970   3.868
63196W        W22457  22.067  18.584   3.728
63197W        W22458   2.740   1.863   3.339
63198W        W22459  28.654  31.441   3.687
63199W        W22460  19.185  39.493  10.642
63200W        W22461  12.753  36.007   0.475
63201W        W22462  31.506  28.962   3.774
63202W        W22463   8.848  10.306  14.890
63203W        W22464   7.704  22.191  12.434
63204W        W22465  10.304  12.337   3.768
63205W        W22466  32.514  38.879  12.572
63206W        W22467  24.033   6.839   0.379
63207W        W22468  23.730  19.050  11.971
63208W        W22469  10.155  32.092  14.022
63209W        W22470   3.275  36.587   0.300
63210W        W22471   4.753  36.077   3.344
63211W        W22472  33.129   9.391   1.450
63212W        W22473  44.822  29.095   2.691
63213W        W22474  20.650  15.632  14.464
63214W        W22475  20.092  15.130   3.680
63215W        W22476   2.239  11.705  14.815
63216W        W22477  18.594  23.227   4.748
63217W        W22478   7.329  32.038  11.936
63218W        W22479  29.592  39.955   5.145
63219W        W22480  20.216  23.213  11.951
63220W        W22481  41.463  14.697  10.905
63221W        W22482  11.193  34.566   4.232
63222W        W22483   2.911   5.783  14.490
63223W        W22484  28.047   9.829   4.750
63224W        W22485  43.508  41.516   1.408
63225W        W22486  38.896  25.155   1.311
63226W        W22487  14.111   2.856   0.295
63227W        W22488  30.140  38.513  12.472
63228W        W22489  43.361  27.105  14.788
63229W        W22490   8.303  31.985  12.452
63230W        W22491  15.751  32.915   4.779
63231W        W22492  36.426  20.708  12.017
63232W        W22493  12.349  32.447   0.476
63233W        W22494  28.471  21.723  13.032
63234W        W22495  34.473   2.957   2.211
63235W        W22496  34.972  28.947  12.539
63236W        W22497   9.772  40.525  14.422
63237W        W22498  33.067  26.973  11.428
63238W        W22499  43.394  27.942   2.672
63239W        W22500  12.802  19.081  11.085
63240W        W22501  28.944  42.787   3.192
63241W        W22502  32.889  18.201  12.475
63242W        W22503  18.783  16.663   0.739
63243W        W22504   4.925  33.622   3.359
63244W        W22505  23.052   7.757  12.479
63245W        W22506  13.759  10.713   1.735
63246W        W22507   1.383  20.647  10.454
63247W        W22508  34.066   1.293   1.904
63248W        W22509  20.558  28.004   1.695
63249W        W22510  34.515   6.903   1.749
63250W        W22511  22.227   5.198  13.881
63251W        W22512  24.033   6.889   1.729
63252W        W22513  10.687  23.545  13.476
63253W        W22514  42.358  24.081   3.222
63254W        W22515  17.789   6.389  12.505
63255W        W22516  15.211  37.878  12.869
63256W        W22517  34.080  28.182  11.977
63257W        W22518  33.554  23.239   2.291
63258W        W22519  39.363  18.209  10.570
63259W        W22520  31.076  43.428   9.558
63260W        W22521   4.226  12.722   3.747
63261W        W22522  29.156   2.315   2.250
63262W        W22523   0.814  25.543  10.414
63263W        W22524  14.205   9.889   3.793
63264W        W22525  36.451  32.538  13.798
63265W        W22526  15.718  35.469   2.236
63266W        W22527  22.122  33.411  12.986
63267W        W22528  44.269  30.085   1.933
63268W        W22529  34.077   6.745   2.249
63269W        W22530  40.489   6.215   4.627
63270W        W22531  23.619  18.609  12.040
63271W        W22532  36.426  32.019  11.584
63272W        W22533  39.045  26.514  10.469
63273W        W22534   1.939  35.488  12.470
63274W        W22535   7.371  31.009   1.239
63275W        W22536   1.838  39.832  13.035
63276W        W22537  44.431  20.208  13.346
63277W        W22538   3.756  20.115  11.967
63278W        W22539  16.207  16.664   2.805
63279W        W22540  14.777   2.932   3.761
63280W        W22541  36.379  36.401   0.753
63281W        W22542  42.986  23.699   2.342
63282W        W22543  30.139   5.690  14.018
63283W        W22544  18.597   9.159   3.264
63284W        W22545   4.891  13.300  14.920
63285W        W22546  26.969  37.490  12.991
63286W        W22547   0.459   6.739  11.425
63287W        W22548  42.370  35.419  11.589
63288W        W22549  40.395   1.907   1.928
63289W        W22550  40.924  36.499   1.259
63290W        W22551  19.209   0.890   3.307
63291W        W22552  37.952  31.012   3.839
63292W        W22553   5.811  37.401  13.337
63293W        W22554  12.164  41.945   1.876
63294W        W22555  40.320  42.946  14.453
63295W        W22556   3.763  39.400   2.824
63296W        W22557  34.613   1.328   1.376
63297W        W22558  26.952  40.319  13.401
63298W        W22559  26.086  28.175   0.410
63299W        W22560   6.829  20.584  14.976
63300W        W22561  35.512  12.259   4.215
63301W        W22562   4.831  33.494   1.302
63302W        W22563   6.360  20.163  11.537
63303W        W22564   0.402   2.774  12.019
63304W        W22565  38.937  20.548   1.447
63305W        W22566  29.639  14.717   1.405
63306W        W22567   7.384  28.672   2.847
63307W        W22568  27.954  19.549   4.686
63308W        W22569   9.173  32.464  11.069
63309W        W22570  12.252  14.773  13.826
63310W        W22571  21.658  16.241   3.786
63311W        W22572  22.716  12.726   3.328
63312W        W22573  31.141  19.152  13.407
63313W        W22574  30.136  26.193  14.909
63314W        W22575   2.779  23.647   4.835
63315W        W22576  36.869  28.641   0.768
63316W        W22577  16.257  44.786   1.242
63317W        W22578   5.385  30.152  11.975
63318W        W22579   6.235   4.336  12.060
63319W        W22580  10.153  10.715  14.338
63320W        W22581  27.058  27.062   3.828
63321W        W22582  13.208  22.649  10.596
63322W        W22583  41.514   5.792  11.567
63323W        W22584  18.239  22.546  11.521
63324W        W22585  16.118  20.226   1.426
63325W        W22586  30.102  18.155  13.834
63326W        W22587  32.905  14.781   2.251
63327W        W22588  31.981   1.247   4.340
63328W        W22589  12.351  39.947   3.755
63329W        W22590  23.553  26.511   5.146
63330W        W22591   3.320  20.743  13.912
63331W        W22592   1.244  34.549   1.733
63332W        W22593  19.086  15.771  13.850
63333W        W22594  44.983  39.521   1.871
63334W        W22595  34.106  43.450   4.820
63335W        W22596  40.471  32.492  11.507
63336W        W22597  19.710  26.201  12.083
63337W        W22598   2.361  14.203  12.411
63338W        W22599  15.269  20.200  12.005
63339W        W22600   3.262  24.601  11.502
63340W        W22601  44.351   5.922  12.012
63341W        W22602   6.252  36.353  11.900
63342W        W22603  36.566  33.586   2.193
63343W        W22604  37.960   0.894   2.885
63344W        W22605  22.035  22.233   0.931
63345W        W22606  32.095  28.577  13.982
63346W        W22607   2.328  37.858  10.890
63347W        W22608  32.613  10.336  10.110
63348W        W22609  25.693  38.862   3.209
63349W        W22610  11.839  23.205  11.517
63350W        W22611  17.769   5.336  13.808
63351W        W22612   8.680  37.894  14.925
63352W        W22613   6.356  12.339  11.011
63353W        W22614   9.185  12.239  14.824
63354W        W22615  11.769   8.748  12.476
63355W        W22616  36.046  13.720   1.878
63356W        W22617  17.233  44.979  12.014
63357W        W22618   0.874  34.554  12.393
63358W        W22619   0.425  30.441   2.780
63359W        W22620  35.952  43.292  14.950
63360W        W22621  21.618  23.014   2.356
63361W        W22622  16.150  16.260   0.415
63362W        W22623   2.763  11.153   0.365
63363W        W22624   1.800  32.976  11.927
63364W        W22625   9.351  43.902  13.486
63365W        W22626  12.250  43.439   0.855
63366W        W22627  12.195   3.848  12.348
63367W        W22628  28.495  24.199   0.727
63368W        W22629  30.046  20.222   2.839
63369W        W22630   9.699   9.162   0.850
63370W        W22631  44.892  12.697   0.863
63371W        W22632  19.116  15.121  11.099
63372W        W22633   8.726  17.602  12.082
63373W        W22634  39.857  20.643   1.306
63374W        W22635  34.083  17.704  11.027
63375W        W22636  28.959  23.512  13.341
63376W        W22637  41.812   3.409  11.557
63377W        W22638   9.859  10.292  13.520
63378W        W22639  22.648  40.032   4.788
63379W        W22640  17.154  37.458   5.260
63380W        W22641  42.874  18.095   1.730
63381W        W22642  38.019   0.946   2.327
63382W        W22643   3.790  20.208  11.431
63383W        W22644  25.547   9.327   1.870
63384W        W22645  14.283   9.777   2.842
63385W        W22646   4.823   7.716   0.858
63386W        W22647  40.048  23.232  13.371
63387W        W22648   6.762  12.704  12.347
63388W        W22649  41.809  40.473   3.665
63389W        W22650  31.091  27.197  14.878
63390W        W22651  23.173   3.765  12.566
63391W        W22652  17.577   9.343  10.594
63392W        W22653  10.302   6.801   4.808
63393W        W22654  37.421   1.400  10.507
63394W        W22655  20.686   3.853  12.962
63395W        W22656  29.005  28.582  11.108
63396W        W22657  13.157  42.487  13.007
63397W        W22658  24.147  25.617   3.770
63398W        W22659   1.318  25.670  10.610
63399W        W22660   3.402  38.571  14.894
63400W        W22661  41.514  29.086   1.266
63401W        W22662  37.939  41.320  10.035
63402W        W22663  39.992  38.858  14.325
63403W        W22664   2.445  39.463   0.856
63404W        W22665  19.760  22.117  11.559
63405W        W22666  13.765  15.088  13.429
63406W        W22667  41.944  44.869   2.403
63407W        W22668  31.441  36.001   1.857
63408W        W22669   7.403  23.572  10.455
63409W        W22670   5.409   8.363   4.160
63410W        W22671  27.109  35.472   0.376
63411W        W22672  21.191  39.556   4.270
63412W        W22673  40.371   6.306   1.213
63413W        W22674  40.845  23.652   4.748
63414W        W22675  20.096  27.136  14.963
63415W        W22676  34.455  22.715  12.074
63416W        W22677   4.759  16.751  13.508
63417W        W22678  22.187   0.279   2.345
63418W        W22679  18.685  22.678   3.174
63419W        W22680   1.291  13.635   0.247
63420W        W22681  43.936  36.372  12.400
63421W        W22682   6.695  17.219  13.360
63422W        W22683   4.204  23.606   2.759
63423W        W22684  17.299  40.038   0.786
63424W        W22685   4.924  41.513   1.706
63425W        W22686  23.195   9.298  13.952
63426W        W22687  37.086  25.122  10.460
63427W        W22688   0.471  43.890  11.471
63428W        W22689  21.595  35.027  13.397
63429W        W22690   7.833  34.579  13.370
63430W        W22691   4.447  38.918   3.182
63431W        W22692   1.870   3.305   3.152
63432W        W22693  17.244  41.792  12.995
63433W        W22694  27.664  42.524  14.022
63434W        W22695  11.263  23.719   0.323
63435W        W22696   2.298  29.943   3.289
63436W        W22697  35.905  23.167  13.459
63437W        W22698  17.578   6.193  13.858
63438W        W22699  36.927  42.510   1.310
63439W        W22700   1.744  17.733  14.801
63440W        W22701  30.012  16.715   4.609
63441W        W22702   0.349   5.902  12.484
63442W        W22703  34.593  23.496  11.880
63443W        W22704  44.955  10.657   2.184
63444W        W22705  18.754  42.287  11.948
63445W        W22706  20.103  27.501   4.628
63446W        W22707  16.796  26.639   5.721
63447W        W22708  31.537   0.276  11.534
63448W        W22709  24.634  14.715   4.672
63449W        W22710  35.553  35.397   3.240
63450W        W22711   2.874   4.699   0.382
63451W        W22712  25.573  12.758   3.828
63452W        W22713  37.470   0.472   4.738
63453W        W22714  16.080  20.165   1.833
63454W        W22715  12.160  20.681  13.994
63455W        W22716  34.107   4.735  12.069
63456W        W22717   4.751   2.445   4.665
63457W        W22718  35.381   6.756  13.020
63458W        W22719  31.096  23.572  10.485
63459W        W22720   4.250   1.441   4.755
63460W        W22721  20.234  43.363   4.174
63461W        W22722  10.716  43.940   4.259
63462W        W22723   4.292  28.447   3.870
63463W        W22724  41.536   5.806   4.211
63464W        W22725  13.325  33.479  11.609
63465W        W22726  33.059   7.223  14.968
63466W        W22727  26.583  42.491  14.799
63467W        W22728   6.390  24.623   4.205
63468W        W22729   9.795  12.838  10.464
63469W        W22730  10.638  15.813   1.296
63470W        W22731  25.497  11.136  14.856
63471W        W22732  16.603  27.146   2.874
63472W        W22733  40.018  37.963   0.357
63473W        W22734  31.033  23.534  11.593
63474W        W22735   2.782  15.678   1.788
63475W        W22736  29.437  31.592  11.540
63476W        W22737  24.000  17.167   2.856
63477W        W22738  43.837  30.073  11.505
63478W        W22739   2.272  20.662   2.868
63479W        W22740   1.864  35.500   3.728
63480W        W22741  26.953  37.512   1.258
63481W        W22742  42.467  12.279  13.035
63482W        W22743  18.264  23.649   1.921
63483W        W22744  26.693  36.370  13.826
63484W        W22745  11.806  11.197   3.168
63485W        W22746   7.673  24.161  10.499
63486W        W22747   2.260  20.177   3.669
63487W        W22748   6.395  25.512  13.548
63488W        W22749   6.802   3.725   2.807
63489W        W22750  21.559  44.944   1.838
63490W        W22751  42.922  31.412   0.748
63491W        W22752  29.446  31.477   4.804
63492W        W22753   0.745  30.084  11.123
63493W        W22754   5.884  29.978  10.934
63494W        W22755  22.176  37.433  11.481
63495W        W22756  43.936  29.148   3.864
63496W        W22757  32.554  30.025  13.348
63497W        W22758  41.399  28.135   0.883
63498W        W22759  21.256  32.064  14.933
63499W        W22760  35.439  11.710  12.002
63500W        W22761  32.602  18.598  14.822
63501W        W22762  27.565  23.541  14.435
63502W        W22763   2.878  24.053   2.852
63503W        W22764  25.088   4.436  11.919
63504W        W22765  31.527  29.980  12.466
63505W        W22766  10.350  13.294   3.647
63506W        W22767  36.449  14.631  10.932
63507W        W22768  39.399  12.687  12.516
63508W        W22769  20.750   4.331   0.254
63509W        W22770   6.744  10.197   0.829
63510W        W22771   2.333   7.324   1.355
63511W        W22772  34.952  35.094   3.364
63512W        W22773   1.482  42.845  12.920
63513W        W22774  19.226  40.030  10.913
63514W        W22775  18.670   0.918   2.823
63515W        W22776  10.743  16.606  12.886
63516W        W22777  13.659   9.387   1.335
63517W        W22778  14.229  37.513   5.090
63518W        W22779  13.151  37.029   1.924
63519W        W22780  32.602   9.667   4.685
63520W        W22781  16.809  16.283  10.889
63521W        W22782  28.492   2.288  13.865
63522W        W22783  31.942   5.229  12.911
63523W        W22784  16.733  27.564   3.255
63524W        W22785  39.867   3.268   1.779
63525W        W22786  15.217   1.791  10.934
63526W        W22787   1.759  25.044  10.554
63527W        W22788  30.144   9.796  10.988
63528W        W22789  30.941  20.259   2.820
63529W        W22790  36.923  21.719  11.057
63530W        W22791  38.373  30.482   0.774
63531W        W22792   0.389  20.748  11.858
63532W        W22793  32.587  18.786   4.185
63533W        W22794  21.094  31.479  11.472
63534W        W22795  17.168  41.798   2.312
63535W        W22796  39.003  23.587   0.845
63536W        W22797  23.572  34.405   2.409
63537W        W22798  24.990  11.140   4.666
63538W        W22799  40.016  43.418  11.449
63539W        W22800  36.560  37.382   4.631
63540W        W22801  10.836  15.789  12.354
63541W        W22802   5.822  22.583   2.667
63542W        W22803  20.577  12.318  11.109
63543W        W22804  13.841  32.623  12.560
63544W        W22805  13.294  39.398   4.289
63545W        W22806  26.158  21.686  12.444
63546W        W22807   2.287  19.669  14.927
63547W        W22808   2.422  23.122   2.406
63548W        W22809   5.703   6.315   3.292
63549W        W22810  32.114  37.864   0.905
63550W        W22811  35.882  13.622  11.432
63551W        W22812   7.386  25.160   0.805
63552W        W22813   8.851   9.349  10.967
63553W        W22814  42.408   8.839   3.227
63554W        W22815  31.493  19.153   3.281
63555W        W22816  21.712   6.340   4.224
63556W        W22817   0.468  38.362  14.410
63557W        W22818  29.562   0.334  11.056
63558W        W22819  35.993   5.288  13.384
63559W        W22820   4.416   1.924  14.418
63560W        W22821  23.995  14.648   0.325
63561W        W22822  13.326  16.300  13.466
63562W        W22823  42.292  18.269  13.893
63563W        W22824  11.696   2.468  11.447
63564W        W22825  41.958  13.642   2.868
63565W        W22826  11.859  23.699  13.055
63566W        W22827  13.290  44.291   1.375
63567W        W22828  23.724  30.431  11.387
63568W        W22829  28.092   5.729   1.765
63569W        W22830  17.164   5.878  10.904
63570W        W22831  15.589  12.754  10.632
63571W        W22832  35.933  26.579   2.322
63572W        W22833   7.253  13.742   3.248
63573W        W22834  15.676  35.048  13.407
63574W        W22835  16.247  18.668   3.642
63575W        W22836  25.107  40.889   3.290
63576W        W22837  28.141  34.938   1.219
63577W        W22838   8.748  25.569   0.418
63578W        W22839   7.209  38.970  10.584
63579W        W22840  16.701  30.599   9.987
63580W        W22841  33.059   8.726   2.824
63581W        W22842  10.255  14.668   4.336
63582W        W22843  32.438  24.100   3.726
63583W        W22844  42.834  36.911   4.138
63584W        W22845   9.376  18.753   4.220
63585W        W22846  18.772  17.095  12.849
63586W        W22847  34.395  10.758  12.025
63587W        W22848  40.518  10.156  10.627
63588W        W22849   5.894  28.591   0.809
63589W        W22850   7.412  11.268  14.333
63590W        W22851   4.840  38.847  13.847
63591W        W22852   6.212   1.927  14.398
63592W        W22853  13.697   2.226   2.297
63593W        W22854  42.323   3.850   4.331
63594W        W22855  23.094  23.523   1.826
63595W        W22856  13.614  15.146   3.218
63596W        W22857   6.421  37.558   4.736
63597W        W22858  42.950  39.443  10.911
63598W        W22859  19.231  23.180  11.936
63599W        W22860  25.555   4.940   1.926
63600W        W22861  41.892  23.679   0.958
63601W        W22862  40.933   7.321   4.695
63602W        W22863  13.843   8.771  12.526
63603W        W22864  22.025  11.356  12.437
63604W        W22865  25.590   7.284   1.719
63605W        W22866  40.965  31.994   2.863
63606W        W22867  23.093  12.172   0.814
63607W        W22868  23.595  26.984   3.198
63608W        W22869  43.785  19.228   1.316
63609W        W22870  43.017  43.860  14.424
63610W        W22871  21.064  28.678  13.393
63611W        W22872  33.936  23.219   1.237
63612W        W22873  29.986  20.029  14.992
63613W        W22874  43.008  32.065  13.879
63614W        W22875  15.102  19.181  10.089
63615W        W22876  44.271   8.174   4.206
63616W        W22877  19.547  30.016  10.570
63617W        W22878  37.053  37.369   2.191
63618W        W22879  24.491   8.169   1.853
63619W        W22880   9.786   0.926   0.387
63620W        W22881  30.620  40.409  12.572
63621W        W22882  25.022  14.148   3.230
63622W        W22883  29.564  33.002  14.452
63623W        W22884  23.500  26.684  10.618
63624W        W22885   2.367  18.201   3.175
63625W        W22886  35.522   5.774   0.768
63626W        W22887  16.086  42.942   1.375
63627W        W22888  44.919  26.991   2.213
63628W        W22889  30.551  15.705  12.841
63629W        W22890  31.574  39.508   4.254
63630W        W22891  43.377   0.816   3.379
63631W        W22892  17.769  12.311  10.918
63632W        W22893   3.945  15.760  13.985
63633W        W22894  28.032  16.676  10.152
63634W        W22895  23.012   8.802   3.631
63635W        W22896  14.702  31.124   2.246
63636W        W22897  25.153  18.640   1.834
63637W        W22898  40.863   3.720  13.055
63638W        W22899  18.246   1.278   4.168
63639W        W22900  29.143  16.245  11.447
63640W        W22901  25.047   5.866   4.695
63641W        W22902   0.431   2.351   1.422
63642W        W22903  25.665   1.851   4.265
63643W        W22904   9.783  20.731   0.454
63644W        W22905   3.324  37.471   0.279
63645W        W22906  22.020   4.853   2.739
63646W        W22907  38.074   1.388   2.279
63647W        W22908  44.308  28.956  13.316
63648W        W22909  17.134  28.958  12.968
63649W        W22910  17.747  13.774  11.520
63650W        W22911  32.506  22.540   4.804
63651W        W22912   8.824  10.721   0.896
63652W        W22913   7.322  43.861   3.324
63653W        W22914  11.803  25.656   1.440
63654W        W22915  29.073  16.279   4.274
63655W        W22916  41.329   8.189   2.337
63656W        W22917  29.099  14.618  14.780
63657W        W22918  28.480  18.576  11.490
63658W        W22919  23.214  22.045   1.335
63659W        W22920  22.115   8.741  14.935
63660W        W22921  19.534  27.113   2.715
63661W        W22922  30.530   3.918  13.353
63662W        W22923  32.073  40.386   0.421
63663W        W22924  34.946  34.035   3.234
63664W        W22925  24.039  18.670   2.417
63665W        W22926  39.977   5.250   3.694
63666W        W22927  39.000   5.729  12.057
63667W        W22928   0.939  18.634  11.883
63668W        W22929  31.588  23.087   3.734
63669W        W22930  33.615   7.413   1.838
63670W        W22931   0.416  14.658  14.390
63671W        W22932  13.119  30.100  10.908
63672W        W22933  22.599   4.732  11.470
63673W        W22934  12.250  38.480  14.433
63674W        W22935  42.500  22.730  12.468
63675W        W22936   9.152  38.978  10.085
63676W        W22937  20.218  40.883  10.580
63677W        W22938  29.447  12.356   1.740
63678W        W22939  20.194  39.316  10.555
63679W        W22940  29.018   4.838   1.433
63680W        W22941  12.296   2.907  11.887
63681W        W22942   3.857  40.313   2.805
63682W        W22943  21.751  33.492   1.808
63683W        W22944  25.146  19.669   3.307
63684W        W22945  41.937   2.874   0.819
63685W        W22946   7.808   3.954  13.959
63686W        W22947   0.924  40.353  10.550
63687W        W22948   9.830  38.561   3.214
63688W        W22949   6.309   9.164  13.814
63689W        W22950   5.344  39.029   1.825
63690W        W22951  16.202   0.370  13.928
63691W        W22952  28.027  23.005   0.361
63692W        W22953  21.078   8.679   4.744
63693W        W22954  37.938  17.629  12.358
63694W        W22955  17.684   0.465  11.552
63695W        W22956  22.737  28.661  12.390
63696W        W22957  11.142  15.698   4.174
63697W        W22958   2.454  41.869  12.875
63698W        W22959   2.467  33.471   5.225
63699W        W22960  36.941  11.317  14.410
63700W        W22961  44.822   0.807  11.432
63701W        W22962  36.061  32.985  11.425
63702W        W22963  25.163  33.988   4.597
63703W        W22964  14.809  41.476  13.543
63704W        W22965  17.276   2.288   1.427
63705W        W22966  19.633  33.049  14.029
63706W        W22967  37.576  12.670  13.944
63707W        W22968  39.952  21.219  10.445
63708W        W22969  35.378  40.385  10.410
63709W        W22970  11.719   6.392   2.822
63710W        W22971  11.795  30.456   0.300
63711W        W22972  19.240  22.010  13.343
63712W        W22973  27.607  30.992  11.070
63713W        W22974  12.139  32.523  10.595
63714W        W22975   9.358   2.825   2.703
63715W        W22976   9.303  22.547  14.948
63716W        W22977  16.693  20.591   3.295
63717W        W22978  12.629   1.379  10.018
63718W        W22979  41.449  10.699   1.719
63719W        W22980  10.808   9.698  10.550
63720W        W22981   9.371  16.299   0.297
63721W        W22982  12.844  24.204   2.792
63722W        W22983   2.751  42.325  11.076
63723W        W22984  25.995  24.592   3.174
63724W        W22985  27.189  21.696  13.058
63725W        W22986  40.547  29.524  14.946
63726W        W22987   3.366  18.149  10.617
63727W        W22988   0.797  34.978  10.061
63728W        W22989  18.094   1.451   0.441
63729W        W22990   6.390  42.840  11.038
63730W        W22991   4.791  10.707   0.363
63731W        W22992  22.223  15.689   1.270
63732W        W22993  38.516  19.734   0.766
63733W        W22994  29.601  28.615  12.441
63734W        W22995  16.101  32.494  10.563
63735W        W22996  44.260  40.435  11.533
63736W        W22997  36.896  32.403   3.742
63737W        W22998   0.958  27.969  12.040
63738W        W22999  23.713  38.941  12.410
63739W        W23000   1.799  35.975  10.519
63740W        W23001  43.389  25.009   1.335
63741W        W23002  35.859  19.227   2.306
63742W        W23003  29.658  12.706  11.507
63743W        W23004   6.271  33.949  11.401
63744W        W23005  41.006  37.880  11.939
63745W        W23006  44.907  34.080  13.002
63746W        W23007   3.459  29.471  11.989
63747W        W23008   3.420  40.019  14.892
63748W        W23009   6.376  24.132   4.220
63749W        W23010   1.267  23.116   2.314
63750W        W23011  44.789  25.055  11.379
63751W        W23012  27.518  26.180   4.286
63752W        W23013   9.852  36.466   2.857
63753W        W23014   2.825   2.380   4.125
63754W        W23015  28.093   5.791  11.431
63755W        W23016  32.038   7.744   4.655
63756W        W23017   9.353  17.301  12.376
63757W        W23018  17.228  27.975   0.780
63758W        W23019  13.266   7.317  12.830
63759W        W23020   1.262  19.237  11.947
63760W        W23021  12.119  30.024   2.180
63761W        W23022  20.558  39.057  14.813
63762W        W23023   9.284  25.009  14.333
63763W        W23024  35.398  37.554   3.828
63764W        W23025   8.826  15.217  10.129
63765W        W23026  11.284  31.048  14.963
63766W        W23027  22.627  28.681  12.874
63767W        W23028  17.089  27.620   2.342
63768W        W23029  15.149  31.933   4.176
63769W        W23030  10.672  11.738   1.244
63770W        W23031  12.241  38.045   3.712
63771W        W23032   6.396  42.985   1.839
63772W        W23033  44.868  40.020  10.446
63773W        W23034  30.568  31.153   3.167
63774W        W23035  44.889   7.197   3.359
63775W        W23036   2.388  16.075  14.426
63776W        W23037  29.571  33.007  10.488
63777W        W23038  26.975  25.674  10.956
63778W        W23039  12.749  25.083   2.341
63779W        W23040  15.280  36.551  11.947
63780W        W23041   0.268  35.536  13.939
63781W        W23042  24.665  16.118  12.343
63782W        W23043  36.480  44.796   3.352
63783W        W23044  10.750   4.733   4.814
63784W        W23045   0.477  15.732   2.756
63785W        W23046   3.337  41.812   0.253
63786W        W23047  29.537  30.916   4.147
63787W        W23048  35.924  40.499  10.493
63788W        W23049  19.757  12.133   0.272
63789W        W23050  19.616  10.843  13.924
63790W        W23051  19.629  28.640   0.808
63791W        W23052  10.674  27.173   1.333
63792W        W23053  10.274  43.776   9.935
63793W        W23054  43.399  41.940  11.424
63794W        W23055  27.528  17.170   1.819
63795W        W23056  11.851  25.495  13.023
63796W        W23057  19.720  25.614  11.863
63797W        W23058  18.209  35.458   2.719
63798W        W23059  44.808  31.035   4.215
63799W        W23060  11.826  12.780   3.261
63800W        W23061  22.686   8.893   5.100
63801W        W23062  29.524  34.379  12.835
63802W        W23063  27.161  12.258   3.740
63803W        W23064   9.850   0.457   0.863
63804W        W23065  26.058  32.955  14.910
63805W        W23066  17.265  34.982   2.702
63806W        W23067  29.040  36.508   0.265
63807W        W23068  41.382   4.362  10.598
63808W        W23069  36.947  37.876   3.163
63809W        W23070  21.169  37.523  13.387
63810W        W23071   7.743   5.276   1.301
63811W        W23072  43.970  18.097   0.374
63812W        W23073  34.982  27.003  14.784
63813W        W23074  26.682  29.613   0.845
63814W        W23075  26.968   7.247  14.771
63815W        W23076   7.357   9.703   2.364
63816W        W23077  17.719  37.018  14.885
63817W        W23078  33.596  44.953  10.985
63818W        W23079  34.566  38.033  12.021
63819W        W23080  27.634  40.440   1.797
63820W        W23081  15.274  26.180  14.365
63821W        W23082  21.167  43.457   0.849
63822W        W23083   8.667  33.484  11.580
63823W        W23084  23.653  31.599  11.000
63824W        W23085   1.462   1.443  11.376
63825W        W23086  33.603  18.054  11.033
63826W        W23087  39.923  13.309  14.394
63827W        W23088  12.802  34.087   4.763
63828W        W23089  28.444  14.208   0.882
63829W        W23090   2.934  13.790  13.390
63830W        W23091  34.010   2.772   2.210
63831W        W23092  39.859  33.410  14.769
63832W        W23093  33.874  19.554  12.858
63833W        W23094  36.028  25.671   1.915
63834W        W23095  40.022  30.155  11.569
63835W        W23096  32.987  26.128   1.263
63836W        W23097  20.124  12.726   2.678
63837W        W23098  16.636  36.096   3.781
63838W        W23099  36.459  11.261  11.126
63839W        W23100  15.647  19.108  11.608
63840W        W23101   0.397  10.804   2.240
63841W        W23102  42.358  39.045   4.146
63842W        W23103  41.910  26.182   3.764
63843W        W23104  10.170  31.090   3.729
63844W        W23105   6.686  18.549   4.213
63845W        W23106  41.526  41.820   3.852
63846W        W23107  40.821  14.311   2.298
63847W        W23108  38.048  40.423  14.495
63848W        W23109  13.810  14.307  12.851
63849W        W23110  36.445  23.196   0.957
63850W        W23111  17.080  31.511  13.367
63851W        W23112  30.910   3.264   5.148
63852W        W23113  37.406  38.025   3.644
63853W        W23114  20.182  16.207   4.791
63854W        W23115   2.826  40.052  11.942
63855W        W23116  12.326  20.103   2.840
63856W        W23117  19.700  28.031  11.915
63857W        W23118  39.505  42.904   2.741
63858W        W23119  29.122   7.400  12.480
63859W        W23120  42.916  15.183   2.861
63860W        W23121  42.798  39.845  14.001
63861W        W23122  40.853  19.139   1.229
63862W        W23123  14.697  23.568  13.451
63863W        W23124   5.857  41.841  13.854
63864W        W23125  22.514  36.589  11.024
63865W        W23126  35.383  40.853   5.322
63866W        W23127  25.498  42.976   0.854
63867W        W23128  38.496  26.646   1.427
63868W        W23129  42.823  11.315  14.916
63869W        W23130   5.750   9.645  11.374
63870W        W23131  39.974  37.062  12.526
63871W        W23132  44.001  26.023  13.964
63872W        W23133   7.408  36.426  14.470
63873W        W23134  43.317  14.820   4.325
63874W        W23135   5.312  38.407  10.612
63875W        W23136  28.970  41.488  11.427
63876W        W23137   5.814   0.312   4.253
63877W        W23138  15.691  44.954   2.836
63878W        W23139  38.472  25.154  11.501
63879W        W23140   5.721  32.417  11.395
63880W        W23141  31.521  28.983  13.864
63881W        W23142  44.815  31.970  12.573
63882W        W23143   5.770  33.020  14.421
63883W        W23144  35.446  25.048   4.771
63884W        W23145  13.327  16.297   5.133
63885W        W23146  16.771  11.822   4.783
63886W        W23147  25.130   1.355   1.410
63887W        W23148  28.082  36.990  14.287
63888W        W23149  14.645  41.957  11.896
63889W        W23150  15.605  28.607   1.862
63890W        W23151   9.802  37.863   3.182
63891W        W23152  40.896  20.731  14.764
63892W        W23153  29.079  39.530  12.392
63893W        W23154  38.854  18.564   5.287
63894W        W23155   1.926  41.381  12.554
63895W        W23156  44.765  29.468   0.771
63896W        W23157  40.960  27.976   0.791
63897W        W23158   8.689   9.236   1.370
63898W        W23159  34.021  15.124   1.376
63899W        W23160  19.767  27.611   5.304
63900W        W23161   1.349  24.661   0.276
63901W        W23162  39.461  13.274   3.351
63902W        W23163  35.383  30.466   4.286
63903W        W23164  38.978  41.413  12.895
63904W        W23165   8.201  23.098   2.359
63905W        W23166   8.170   7.368   0.316
63906W        W23167   3.712   3.946   3.718
63907W        W23168  43.817  34.883   1.355
63908W        W23169  20.667  29.474   4.659
63909W        W23170   3.743  35.897  13.323
63910W        W23171  10.659  19.646   3.257
63911W        W23172  40.803  39.868   3.821
63912W        W23173  42.367  35.982  10.458
63913W        W23174  20.662  39.545  10.583
63914W        W23175  33.999   1.356  11.938
63915W        W23176  16.174  19.570  11.989
63916W        W23177   7.219  39.814  11.398
63917W        W23178  22.153  43.837   4.198
63918W        W23179  20.584   7.780  10.632
63919W        W23180   8.727  24.688   4.604
63920W        W23181  41.920  40.993   2.302
63921W        W23182  35.545  24.994  12.487
63922W        W23183  42.329  28.993  10.556
63923W        W23184  10.330  10.240   2.179
63924W        W23185   3.327  26.512   4.222
63925W        W23186   9.297   9.257  13.420
63926W        W23187  16.159   2.912   1.278
63927W        W23188  35.072  40.816   2.706
63928W        W23189  28.635  38.894  11.381
63929W        W23190  21.110   5.813   0.279
63930W        W23191  11.776  30.458   4.646
63931W        W23192  11.828  11.335   1.413
63932W        W23193  14.607  36.562   3.827
63933W        W23194  12.816  43.969  12.509
63934W        W23195  24.026  39.326  12.901
63935W        W23196   5.327   7.309  12.471
63936W        W23197   2.823  28.617  11.125
63937W        W23198  24.061  36.891   1.401
63938W        W23199  16.639  37.052   3.637
63939W        W23200  22.105   8.384  13.883
63940W        W23201  44.797  19.057   2.297
63941W        W23202  38.884  29.938  12.849
63942W        W23203  13.323  12.125   0.903
63943W        W23204  43.330  13.329   3.376
63944W        W23205   5.405  43.908  14.974
63945W        W23206  40.920  32.540  14.950
63946W        W23207  20.053  13.311  10.469
63947W        W23208  23.127   2.414  11.445
63948W        W23209  16.166  25.498  11.468
63949W        W23210  31.924  15.749   2.238
63950W        W23211  38.534  41.307   1.754
63951W        W23212  28.149  34.091   1.901
63952W        W23213  30.966  28.013  14.291
63953W        W23214  30.655  39.447  11.382
63954W        W23215   7.339  42.487  10.909
63955W        W23216  27.516  14.095  12.495
63956W        W23217  24.074  35.415  10.904
63957W        W23218  39.487  44.989   0.766
63958W        W23219  40.494  43.946   4.616
63959W        W23220  29.450  29.003  11.993
63960W        W23221  21.202  25.149  10.946
63961W        W23222   9.229  36.894   0.913
63962W        W23223  29.479  28.104   1.244
63963W        W23224  31.489  32.115  14.405
63964W        W23225  22.670  22.210  12.047
63965W        W23226  12.746  33.433  11.478
63966W        W23227   6.792  14.141   3.223
63967W        W23228   4.380  19.690  14.021
63968W        W23229   9.250  32.421  13.918
63969W        W23230  10.664  28.075  11.426
63970W        W23231  11.367  11.865   0.792
63971W        W23232  42.812  13.816   4.257
63972W        W23233  30.542  21.516   1.296
63973W        W23234  11.713  30.505   1.839
63974W        W23235  36.492   1.737   1.377
63975W        W23236   0.802  26.076   2.326
63976W        W23237  32.141  43.791  14.397
63977W        W23238  38.898   8.767   0.247
63978W        W23239  42.843  12.791  14.285
63979W        W23240  34.896  28.980  13.851
63980W        W23241   3.800   4.794  14.366
63981W        W23242  10.758  21.122   3.164
63982W        W23243   0.987  20.564  13.804
63983W        W23244   3.830  37.498  11.948
63984W        W23245  37.402  25.653  11.545
63985W        W23246  16.742  19.705   9.988
63986W        W23247  16.148  23.023   4.349
63987W        W23248  32.887  36.098   1.438
63988W        W23249  20.205  31.069  11.894
63989W        W23250  13.790   5.339   1.430
63990W        W23251  35.399   3.878   0.463
63991W        W23252   6.750  25.219   1.219
63992W        W23253  26.688   8.667  12.827
63993W        W23254  13.239  32.413   4.731
63994W        W23255   3.235  14.230   4.283
63995W        W23256  32.472  10.372  14.905
63996W        W23257   2.791  11.754   2.756
63997W        W23258   3.766  30.586  13.490
63998W        W23259  31.112  27.197  10.934
63999W        W23260  11.672  36.067  10.147
64000W        W23261  40.817  32.905  14.006
64001W        W23262  14.805  26.987   2.354
64002W        W23263  30.511  12.149  14.432
64003W        W23264  19.129  41.329  10.516
64004W        W23265  26.527  31.959  12.472
64005W        W23266  20.714   0.824   0.390
64006W        W23267  15.600  10.639   1.311
64007W        W23268   3.238   7.272   0.325
64008W        W23269  32.017  43.384   0.768
64009W        W23270  25.605   8.865  13.326
64010W        W23271  20.604  27.090  14.278
64011W        W23272   8.395  15.144   4.774
64012W        W23273   7.797  32.605   0.914
64013W        W23274   4.363  24.687   2.753
64014W        W23275  37.867  25.637  12.055
64015W        W23276   6.397   3.308  12.018
64016W        W23277  37.521   9.778   1.367
64017W        W23278  36.876   4.882  13.506
64018W        W23279   9.379  42.365   3.206
64019W        W23280  11.714  27.450  13.369
64020W        W23281   1.768  23.014  14.316
64021W        W23282  31.542  38.370  11.524
64022W        W23283  43.479  32.574  12.998
64023W        W23284  14.781  23.100  14.313
64024W        W23285  14.657   3.901  14.772
64025W        W23286   6.267  23.718  10.571
64026W        W23287  23.564  37.039  11.487
64027W        W23288  17.063  12.143   1.696
64028W        W23289   8.331  37.375  14.956
64029W        W23290   1.822  13.170   3.730
64030W        W23291  41.840  42.418   1.866
64031W        W23292   7.210   3.354   4.264
64032W        W23293   7.895   1.274  13.975
64033W        W23294  16.301   0.494   1.727
64034W        W23295  39.431  25.084  10.918
64035W        W23296  35.557  16.739   3.316
64036W        W23297  17.630  18.217   5.661
64037W        W23298  15.705  36.550  13.913
64038W        W23299   8.170  21.193   0.820
64039W        W23300   1.270  41.037  11.999
64040W        W23301  39.544   5.867  14.973
64041W        W23302  42.512  16.119  10.443
64042W        W23303  32.031   8.816   0.428
64043W        W23304  13.707  43.969   4.710
64044W        W23305  32.069   9.393  12.394
64045W        W23306  34.077  10.795  12.528
64046W        W23307  23.680  37.047  11.993
64047W        W23308  36.476  27.020  14.504
64048W        W23309  29.929  13.304   3.328
64049W        W23310  43.930  13.176   3.819
64050W        W23311   2.428  17.726  12.825
64051W        W23312  31.534  26.597  12.522
64052W        W23313  41.333  20.103  11.556
64053W        W23314  35.410  17.708   4.646
64054W        W23315  37.887  23.581   1.916
64055W        W23316  19.592  26.671  10.447
64056W        W23317  40.355  24.986   0.339
64057W        W23318  15.641  22.604   3.772
64058W        W23319  15.797  26.606  10.929
64059W        W23320  13.779   8.672  10.919
64060W        W23321  12.198   2.313  10.016
64061W        W23322  37.447  16.681  11.011
64062W        W23323  25.614  24.198   2.335
64063W        W23324  15.147  43.505   0.917
64064W        W23325  43.486   8.219  14.388
64065W        W23326   5.736   5.884   1.298
64066W        W23327  40.044  27.986   3.216
64067W        W23328  44.850  34.411  13.385
64068W        W23329  26.619  40.844   0.895
64069W        W23330   3.224   5.918   4.234
64070W        W23331  38.017   1.861   2.288
64071W        W23332  18.071   4.892   2.327
64072W        W23333  36.909  33.953   0.387
64073W        W23334  42.441   0.457   0.465
64074W        W23335  21.553  34.416  13.836
64075W        W23336  17.228  36.875  12.515
64076W        W23337  43.369  14.274  14.493
64077W        W23338  14.280  40.511  10.949
64078W        W23339  31.929  25.682   1.892
64079W        W23340   8.386  44.792  10.625
64080W        W23341   3.441  44.949   2.326
64081W        W23342  39.544  12.733   0.888
64082W        W23343  15.613   9.223  12.931
64083W        W23344   2.466  34.615   2.794
64084W        W23345  13.122  35.405   2.774
64085W        W23346  12.833   4.724   3.346
64086W        W23347  12.719  20.695   4.838
64087W        W23348  18.633  37.575  12.864
64088W        W23349  24.099  37.945   4.261
64089W        W23350  22.087  24.066   0.794
64090W        W23351   4.739   9.752   0.778
64091W        W23352   1.868  28.979   2.829
64092W        W23353  26.989   5.881   2.821
64093W        W23354  13.719  33.085   1.875
64094W        W23355  18.237   9.763   0.476
64095W        W23356   0.343  18.195   0.465
64096W        W23357  22.139  19.623   4.333
64097W        W23358   7.409  11.784   3.796
64098W        W23359  29.933  31.896   0.953
64099W        W23360  43.372  27.602  12.088
64100W        W23361  40.887  43.330  12.984
64101W        W23362  35.856  22.659  13.393
64102W        W23363  34.579   1.253   1.810
64103W        W23364  42.291  25.673   0.385
64104W        W23365  34.369  32.430   1.850
64105W        W23366   4.915  37.864  14.500
64106W        W23367  32.125  28.539  10.408
64107W        W23368  25.491  21.133   3.817
64108W        W23369  34.498  25.179   4.674
64109W        W23370  11.626  35.101   1.266
64110W        W23371  31.939  13.194   3.656
64111W        W23372  22.148  10.147   2.238
64112W        W23373  13.769  29.519   3.224
64113W        W23374  28.500  41.523  14.385
64114W        W23375  36.843  34.568   4.197
64115W        W23376   3.840  37.855   2.387
64116W        W23377  11.818  13.638  14.505
64117W        W23378  23.572  41.429  12.385
64118W        W23379  36.001  17.727  13.986
64119W        W23380  10.807  23.705  10.944
64120W        W23381  14.675  34.496  14.961
64121W        W23382  43.802  12.783   1.903
64122W        W23383  30.074  18.550   0.898
64123W        W23384  12.185  39.463   0.252
64124W        W23385  11.351  40.897   3.230
64125W        W23386  37.356  14.606  13.057
64126W        W23387  34.509  35.032  12.398
64127W        W23388  25.153  13.632  13.051
64128W        W23389  34.904  20.161   4.222
64129W        W23390  28.468   5.264   4.819
64130W        W23391  29.632  29.452  12.902
64131W        W23392  44.421  20.556  14.347
64132W        W23393  10.645  19.535   5.256
64133W        W23394  30.078  26.143   1.847
64134W        W23395   3.902  19.154  14.369
64135W        W23396   0.863   7.854  10.419
64136W        W23397  16.231  26.141  11.014
64137W        W23398  24.002  26.208  10.637
64138W        W23399  30.544  43.878   3.285
64139W        W23400   9.261  30.419   2.766
64140W        W23401   1.829  28.606  11.907
64141W        W23402  19.123  31.416  11.945
64142W        W23403   0.949  38.499   2.370
64143W        W23404   3.861  21.256   1.399
64144W        W23405  22.167  15.268   0.901
64145W        W23406  37.874  33.053   5.657
64146W        W23407   5.687   4.339  14.777
64147W        W23408  17.130  37.474   2.727
64148W        W23409  31.998   4.366  10.559
64149W        W23410  27.038  31.973   1.359
64150W        W23411  15.094  16.167  10.642
64151W        W23412  36.458  36.444  13.446
64152W        W23413  35.014  15.196   0.929
64153W        W23414  20.526  40.990   1.712
64154W        W23415  40.879  16.188   3.374
64155W        W23416  15.765  39.870   1.215
64156W        W23417  37.493  14.825  10.599
64157W        W23418  22.062  32.476   3.258
64158W        W23419   3.733  39.539  12.887
64159W        W23420  10.230  31.560   5.113
64160W        W23421   6.691  29.436   1.251
64161W        W23422  10.745  10.222   0.910
64162W        W23423  44.903  22.066   3.862
64163W        W23424  13.693   3.268  12.402
64164W        W23425   1.453   4.899   2.300
64165W        W23426  25.617  10.346  10.097
64166W        W23427  19.744   1.875   4.718
64167W        W23428  42.842  18.765  14.937
64168W        W23429  20.228   8.760  14.794
64169W        W23430   0.438  37.528   4.762
64170W        W23431  18.070  38.444  12.906
64171W        W23432  32.415   1.837   2.184
64172W        W23433  30.417  35.861   4.325
64173W        W23434  20.669  35.415  12.424
64174W        W23435  15.294  18.600   4.624
64175W        W23436   5.287  40.928   2.867
64176W        W23437  16.778   9.287  14.348
64177W        W23438  11.706  29.581  11.911
64178W        W23439  42.431  22.627   4.234
64179W        W23440  38.995  34.956   2.344
64180W        W23441  39.535  39.843  11.455
64181W        W23442  11.637   5.807  11.882
64182W        W23443  41.489  21.728  12.555
64183W        W23444  19.767  39.399   0.945
64184W        W23445  24.218   7.861  12.904
64185W        W23446  19.074  16.687   2.715
64186W        W23447  23.731  42.323   2.278
64187W        W23448  13.695  10.229   4.307
64188W        W23449  25.112   1.923  11.480
64189W        W23450   2.302  22.668   4.223
64190W        W23451  19.252   4.845  10.954
64191W        W23452  20.114  22.694  12.860
64192W        W23453  22.713  32.090  12.947
64193W        W23454   4.945   9.360  14.914
64194W        W23455  28.654   1.849   1.927
64195W        W23456  18.704  26.025  13.546
64196W        W23457  16.733  16.300   3.200
64197W        W23458  20.153  20.735   2.323
64198W        W23459  11.837  43.336   2.849
64199W        W23460  26.581   8.317   3.379
64200W        W23461  30.533   6.242   2.866
64201W        W23462  19.576  24.673  11.591
64202W        W23463  32.966  36.875   1.332
64203W        W23464   2.921  38.891   2.687
64204W        W23465  16.791  37.438   0.257
64205W        W23466  32.987  18.785   4.286
64206W        W23467  12.781  16.735   1.335
64207W        W23468  11.705   3.340   0.742
64208W        W23469   1.418  41.384  14.959
64209W        W23470  13.268  32.966  14.773
64210W        W23471  22.605  41.816  14.481
64211W        W23472  14.323  29.427  14.913
64212W        W23473  21.716  28.678   1.343
64213W        W23474  42.806  29.555   4.238
64214W        W23475   1.434   3.840   1.274
64215W        W23476   7.385  41.908  10.566
64216W        W23477   9.328  44.301  14.022
64217W        W23478   3.443  34.492  10.928
64218W        W23479  24.010   1.316  12.024
64219W        W23480  19.211  11.772   4.273
64220W        W23481  30.021  31.019   3.650
64221W        W23482  32.525  18.225   4.723
64222W        W23483  34.482  32.555   3.675
64223W        W23484  44.431  21.628  14.505
64224W        W23485  13.644  35.461  13.425
64225W        W23486  26.562  21.713   1.299
64226W        W23487  35.503  44.282  10.923
64227W        W23488  21.090  27.184  14.791
64228W        W23489   5.731   2.384  13.923
64229W        W23490  32.938   8.797  13.849
64230W        W23491  20.035   7.329   4.829
64231W        W23492  14.237  20.211  10.510
64232W        W23493   3.315   9.844  10.535
64233W        W23494  44.404  41.980  10.564
64234W        W23495   5.748   4.707  10.562
64235W        W23496  10.371   6.820   1.705
64236W        W23497  20.096  23.223  11.115
64237W        W23498  12.260  33.015  10.916
64238W        W23499  14.101  42.296   3.646
64239W        W23500  44.454  24.535   1.695
64240W        W23501  34.566  11.201   3.784
64241W        W23502  20.192   4.724  14.373
64242W        W23503   4.246  29.454  12.403
64243W        W23504  33.094  23.208  10.991
64244W        W23505   5.334  40.014  11.897
64245W        W23506   1.913  29.505  14.450
64246W        W23507  42.478  18.567  14.824
64247W        W23508   0.884   7.685  14.993
64248W        W23509  35.025  29.601  14.798
64249W        W23510  27.537  13.823  13.042
64250W        W23511  38.049  40.971   2.809
64251W        W23512   4.700  34.453  14.792
64252W        W23513   5.862  36.874  11.497
64253W        W23514   8.793  36.581  11.497
64254W        W23515  12.173  19.749  14.340
64255W        W23516  37.867   7.895   2.845
64256W        W23517  16.669  42.499   3.313
64257W        W23518  27.632   0.808   1.889
64258W        W23519  26.535  30.940  12.343
64259W        W23520  23.594   6.378  14.341
64260W        W23521   5.286  42.951  14.324
64261W        W23522   7.273  28.591   2.364
64262W        W23523  14.771  41.439   0.962
64263W        W23524  33.066  28.167  14.361
64264W        W23525  11.700  12.794  11.053
64265W        W23526   9.814  40.464  12.956
64266W        W23527  32.402   0.959   1.255
64267W        W23528  28.166  44.970   1.398
64268W        W23529  31.101  17.275  13.990
64269W        W23530  14.635  11.837  14.775
64270W        W23531   3.433  38.496   4.650
64271W        W23532  28.612   3.290  10.474
64272W        W23533  30.943   2.783  13.887
64273W        W23534  18.651   9.183   0.275
64274W        W23535  34.003  31.982   1.831
64275W        W23536  21.211  25.625  12.051
64276W        W23537   8.714  21.165   1.334
64277W        W23538  36.450  19.198   2.763
64278W        W23539  44.868  18.652  13.913
64279W        W23540  13.776  22.022   3.730
64280W        W23541  16.208  37.919   2.338
64281W        W23542  17.168   1.948  10.543
64282W        W23543  12.208   0.400  12.984
64283W        W23544  43.935  41.928   4.771
64284W        W23545   7.703  26.182  14.816
64285W        W23546   7.684  33.388   4.639
64286W        W23547  24.175   0.431  10.590
64287W        W23548  26.631   0.439   0.885
64288W        W23549  31.084  27.447  14.795
64289W        W23550  37.388  25.052  11.865
64290W        W23551  41.313  31.446  13.984
64291W        W23552   0.808  28.981   3.295
64292W        W23553  29.516  25.676  12.494
64293W        W23554  38.932  12.703   4.256
64294W        W23555  27.128   9.181   3.336
64295W        W23556   9.391  36.448   2.852
64296W        W23557  31.035  39.330  10.440
64297W        W23558  36.003  25.165  14.842
64298W        W23559  40.496  44.952  14.440
64299W        W23560  43.946  41.870   1.706
64300W        W23561  18.691   6.391   1.388
64301W        W23562  39.480  11.180  14.407
64302W        W23563   3.313   7.819  10.156
64303W        W23564  27.175  39.316  12.989
64304W        W23565  24.497  37.466  13.870
64305W        W23566  41.966  17.801   3.345
64306W        W23567  10.226  36.854   0.906
64307W        W23568  15.623   7.403   1.796
64308W        W23569  11.245  26.008  12.840
64309W        W23570  16.120  15.096   5.211
64310W        W23571  23.185  16.718   4.704
64311W        W23572  43.798   0.413  14.776
64312W        W23573   7.801  39.350   3.755
64313W        W23574   6.340  10.250   5.305
64314W        W23575  26.015  43.769   4.670
64315W        W23576   3.884  23.649  11.518
64316W        W23577  10.850  32.469   2.409
64317W        W23578  21.610  15.306  12.954
64318W        W23579  22.116  41.409  13.060
64319W        W23580  23.007  12.826   4.127
64320W        W23581   1.482  41.001  13.337
64321W        W23582   7.695  26.648   4.656
64322W        W23583   2.368  24.574   1.439
64323W        W23584  44.471  20.161   0.332
64324W        W23585   6.768  24.990   0.419
64325W        W23586  44.342   9.270   4.692
64326W        W23587  18.094  44.884   3.173
64327W        W23588   5.409   6.201  13.541
64328W        W23589  37.359   5.757  13.058
64329W        W23590  11.823  14.728  14.825
64330W        W23591  35.585  34.937  14.491
64331W        W23592  29.527  22.241   4.237
64332W        W23593  13.787  41.327  14.768
64333W        W23594  15.620  43.491   4.271
64334W        W23595  15.222  27.466   1.710
64335W        W23596  29.069  17.630  13.050
64336W        W23597  19.774  15.191  13.387
64337W        W23598  22.166  24.051   1.371
64338W        W23599  42.499  11.645  14.333
64339W        W23600  32.617  32.478   4.286
64340W        W23601  25.004  38.564   2.681
64341W        W23602  24.122  15.194   3.191
64342W        W23603   6.413   1.309   2.257
64343W        W23604  16.237  10.863   2.825
64344W        W23605  23.147   0.361  12.825
64345W        W23606  12.170   7.724  10.035
64346W        W23607  37.986  30.435  13.810
64347W        W23608  10.151  21.682   0.392
64348W        W23609  42.888  23.629   4.142
64349W        W23610  13.224  32.082  12.339
64350W        W23611   3.904  26.491  10.563
64351W        W23612  23.685  13.299   1.407
64352W        W23613  36.998  30.144  12.973
64353W        W23614   6.891  18.257  11.461
64354W        W23615  22.617  29.083   5.174
64355W        W23616  39.348  31.628  12.039
64356W        W23617  23.712   9.648  12.947
64357W        W23618  28.967  16.639  12.369
64358W        W23619  13.198  37.025  10.910
64359W        W23620  25.534  24.707   5.231
64360W        W23621  12.132  17.792   1.288
64361W        W23622  32.922  20.181  14.467
64362W        W23623  28.608  11.129  10.091
64363W        W23624  11.146  19.767   4.225
64364W        W23625  33.609   0.295   4.114
64365W        W23626  18.273  31.522   3.374
64366W        W23627  40.362  39.380   0.455
64367W        W23628   9.259   6.835   2.796
64368W        W23629  10.162  16.675   2.765
64369W        W23630  27.543  31.432  13.345
64370W        W23631   3.439  23.665  13.814
64371W        W23632  37.039   2.303   2.194
64372W        W23633   6.260  23.610  11.477
64373W        W23634  43.938  33.975  12.444
64374W        W23635  10.299  17.213   2.717
64375W        W23636   8.246  22.624  10.446
64376W        W23637  28.171  22.012   3.354
64377W        W23638   8.834  12.189   1.803
64378W        W23639   9.316  40.508  13.430
64379W        W23640  21.214  39.495   3.658
64380W        W23641   9.161  23.632   1.710
64381W        W23642   8.187   6.316   3.647
64382W        W23643  17.739  13.310   0.421
64383W        W23644  10.644  13.748   3.183
64384W        W23645  10.793   6.399   2.241
64385W        W23646  33.907  26.672   1.362
64386W        W23647   7.807  36.065  10.983
64387W        W23648  38.054  10.370   4.834
64388W        W23649  22.205  28.978  11.037
64389W        W23650   1.733  18.279  10.618
64390W        W23651   9.774  22.646   2.306
64391W        W23652  32.406  28.577   3.358
64392W        W23653   7.890  34.917   0.386
64393W        W23654  16.792  26.491  12.343
64394W        W23655  12.184  22.229   0.370
64395W        W23656  11.632  33.954  12.034
64396W        W23657  13.231  39.524  12.519
64397W        W23658  44.866   2.356  11.381
64398W        W23659   1.787  33.490   2.866
64399W        W23660   9.765  11.633   0.838
64400W        W23661  44.765  40.902   4.241
64401W        W23662  37.056  10.796   2.803
64402W        W23663   3.242  33.000   2.299
64403W        W23664  32.606  19.620   4.602
64404W        W23665   5.696  10.249   9.508
64405W        W23666  42.782  24.154  12.416
64406W        W23667   8.810  44.827   2.348
64407W        W23668  39.910  44.836   0.755
64408W        W23669  24.064   7.855  11.871
64409W        W23670  20.093  31.016   3.825
64410W        W23671  25.583   6.719  12.541
64411W        W23672  21.627  19.564   4.280
64412W        W23673  16.721   6.330   4.262
64413W        W23674  27.630  16.690  13.427
64414W        W23675  22.666  14.201   1.325
64415W        W23676   7.871  36.463  14.894
64416W        W23677  39.474  19.767   4.613
64417W        W23678  19.132   8.660  13.468
64418W        W23679  31.418  29.656   0.773
64419W        W23680  33.449   4.780  11.540
64420W        W23681  24.129  24.568  14.006
64421W        W23682   8.315   7.835   0.308
64422W        W23683  11.318  15.259   4.338
64423W        W23684  32.013  40.879   3.741
64424W        W23685  12.361  20.659  11.986
64425W        W23686  44.008  14.249  10.897
64426W        W23687  36.916   6.372  13.394
64427W        W23688   5.203  21.602   0.289
64428W        W23689  21.746  20.187  14.932
64429W        W23690   4.803  33.037   0.302
64430W        W23691  37.912  19.227  11.992
64431W        W23692  21.713   2.727  12.443
64432W        W23693  41.512   4.293  13.420
64433W        W23694  31.123  20.531   4.346
64434W        W23695   2.950  37.489   3.631
64435W        W23696   4.906  17.747  14.899
64436W        W23697  34.574  36.505   0.752
64437W        W23698   5.378   8.880   2.183
64438W        W23699   6.237  18.145  11.876
64439W        W23700   3.401   0.945   1.248
64440W        W23701  24.196  19.579   9.961
64441W        W23702  18.273  13.679  12.890
64442W        W23703   6.360   9.262   1.249
64443W        W23704  21.202  15.137   3.235
64444W        W23705  14.169   1.276   2.246
64445W        W23706  14.809  21.656  13.395
64446W        W23707  21.054  40.533  12.578
64447W        W23708  12.311  18.087   1.769
64448W        W23709  38.936  37.511  10.015
64449W        W23710  41.440  16.310   1.710
64450W        W23711  40.015  42.300   4.135
64451W        W23712  24.647  15.742   4.171
64452W        W23713  35.933  17.689   2.353
64453W        W23714  25.665  20.114   0.408
64454W        W23715  16.306   9.680   1.411
64455W        W23716  12.357  11.278   4.644
64456W        W23717  41.812   5.687   1.730
64457W        W23718  26.078  14.234   2.281
64458W        W23719  21.614   2.389  11.473
64459W        W23720  25.684  41.905  14.929
64460W        W23721   8.372  25.973   0.860
64461W        W23722  40.972  43.948   1.708
64462W        W23723  33.089   5.736  14.449
64463W        W23724   5.861  10.671   5.199
64464W        W23725   6.232  14.251   3.685
64465W        W23726  23.078  43.286  11.404
64466W        W23727   9.306  19.607   3.768
64467W        W23728  37.470  11.197  13.819
64468W        W23729  14.710  14.156   4.772
64469W        W23730  25.167  17.657  12.025
64470W        W23731  10.863  38.024   3.167
64471W        W23732   2.884  38.442  12.550
64472W        W23733  40.946   3.875  14.799
64473W        W23734  37.395  38.827   3.636
64474W        W23735  31.538  19.611   3.343
64475W        W23736   5.812  31.643   3.247
64476W        W23737  14.798  10.354   2.749
64477W        W23738  38.984  34.113   1.790
64478W        W23739  30.013  18.572   0.460
64479W        W23740  11.866  22.595   3.360
64480W        W23741  18.092  25.143  13.437
64481W        W23742   0.813  33.386  10.967
64482W        W23743  29.524  36.908  12.467
64483W        W23744   7.246  38.973  13.361
64484W        W23745  34.455  13.742   4.146
64485W        W23746  28.082  27.145  12.412
64486W        W23747  25.053  35.034  10.618
64487W        W23748   9.343  17.787   2.380
64488W        W23749  26.552  17.263   1.838
64489W        W23750   6.735  37.961   0.812
64490W        W23751  26.038  35.980   1.405
64491W        W23752   8.245   7.864  12.453
64492W        W23753  42.016   7.684  14.810
64493W        W23754  11.219  37.569   0.863
64494W        W23755  16.141  12.681   0.961
64495W        W23756  15.300  21.601  14.867
64496W        W23757  18.265  37.569  13.351
64497W        W23758  44.934  31.906   2.203
64498W        W23759  17.614  25.006  11.996
64499W        W23760  14.723   9.208  11.964
64500W        W23761  18.171  37.025   0.919
64501W        W23762  38.539  35.906  14.890
64502W        W23763  26.667  24.559  14.404
64503W        W23764   0.468  27.605   4.140
64504W        W23765  44.846   7.672   0.745
64505W        W23766  28.471  22.667  14.004
64506W        W23767  29.586  24.525   0.386
64507W        W23768  26.176  26.627  14.394
64508W        W23769  19.050  31.587  12.543
64509W        W23770  37.411  32.954  11.461
64510W        W23771  38.375  29.441  12.404
64511W        W23772   2.377  13.225  11.896
64512W        W23773   0.456  14.201   4.207
64513W        W23774  34.492  42.892  13.842
64514W        W23775   4.780   3.852   2.794
64515W        W23776  10.383  41.960  10.451
64516W        W23777  26.186  32.423  12.862
64517W        W23778  40.357  38.854  12.044
64518W        W23779   8.395  24.568   0.283
64519W        W23780  37.945  41.408  14.918
64520W        W23781  14.767  10.149  11.992
64521W        W23782  12.659  28.120  13.451
64522W        W23783  43.378  36.989  13.407
64523W        W23784  14.192  27.051   4.129
64524W        W23785  16.571  16.744  10.465
64525W        W23786  33.530  36.884  13.978
64526W        W23787  41.295  37.425   4.780
64527W        W23788  16.080   3.784   3.748
64528W        W23789  29.090   1.426  13.852
64529W        W23790  24.998  19.731  14.376
64530W        W23791  11.342  44.459   3.220
64531W        W23792  36.436  23.600  14.373
64532W        W23793  40.412  19.654  12.541
64533W        W23794  10.147  38.824   4.703
64534W        W23795   7.260  43.306  11.106
64535W        W23796   2.259  24.154  14.400
64536W        W23797  28.932  37.869  13.398
64537W        W23798  44.392  18.057  14.002
64538W        W23799  22.507  27.105   3.751
64539W        W23800  33.450  17.184  14.894
64540W        W23801  32.591   6.259   1.847
64541W        W23802  26.517  15.632  14.844
64542W        W23803  14.175   6.822  10.552
64543W        W23804  44.302  35.368  12.879
64544W        W23805  23.596  39.823  14.504
64545W        W23806  15.093  24.691   0.889
64546W        W23807  43.944  40.468  13.827
64547W        W23808  40.357  28.681  11.855
64548W        W23809  18.070   5.246  13.398
64549W        W23810  14.195  18.637  10.551
64550W        W23811  12.698   1.273  11.956
64551W        W23812  24.002  17.298   3.665
64552W        W23813  17.650  14.785  12.092
64553W        W23814  27.126  22.022   0.368
64554W        W23815  32.889   0.855   1.214
64555W        W23816  15.808  27.978   0.820
64556W        W23817  32.392  25.583  11.391
64557W        W23818  33.079  33.906   9.936
64558W        W23819  41.999  21.201   2.743
64559W        W23820  16.133  24.675   4.225
64560W        W23821   8.863  20.733   2.247
64561W        W23822  14.179  25.985  10.546
64562W        W23823  31.924   3.254  14.452
64563W        W23824  22.032  17.589   1.326
64564W        W23825   8.789   0.310  13.057
64565W        W23826   3.882   2.448  12.073
64566W        W23827  27.941  16.730  11.582
64567W        W23828  43.294  12.210  12.481
64568W        W23829  27.589  35.987  11.875
64569W        W23830  43.775   5.289  12.878
64570W        W23831  23.731  14.729  14.919
64571W        W23832  24.138  28.463  13.493
64572W        W23833   2.727  15.154  14.355
64573W        W23834   6.791  13.758   2.672
64574W        W23835  41.853   6.222   4.691
64575W        W23836  29.134  34.425  14.429
64576W        W23837   7.699   7.199  11.092
64577W        W23838  22.709  40.346  13.474
64578W        W23839  35.920  38.937   3.281
64579W        W23840   6.297  19.533  11.013
64580W        W23841  29.635  23.999   1.354
64581W        W23842  30.950   1.842  12.944
64582W        W23843  36.020  20.746  13.957
64583W        W23844  33.971  43.507  13.041
64584W        W23845  21.698  22.052   0.323
64585W        W23846  16.317  31.100  14.469
64586W        W23847   8.299  31.916  14.421
64587W        W23848  14.662  35.974  13.797
64588W        W23849  23.114  32.892   1.933
64589W        W23850  42.010  20.558   0.818
64590W        W23851   6.814  29.649  10.564
64591W        W23852  17.662  39.997   1.739
64592W        W23853  40.459  42.822   0.950
64593W        W23854   4.355   6.280   2.759
64594W        W23855   7.240  38.419   1.335
64595W        W23856   3.349  19.666  11.982
64596W        W23857   9.692   8.165   4.152
64597W        W23858  40.416  10.726   2.889
64598W        W23859   1.778  41.999  14.452
64599W        W23860  12.836  44.296  11.933
64600W        W23861  25.534   3.418   0.889
64601W        W23862  15.677  43.002   2.879
64602W        W23863  32.045   6.231  10.991
64603W        W23864  18.212  15.192   4.614
64604W        W23865   9.352  24.522  12.891
64605W        W23866  21.544  19.274   1.907
64606W        W23867   3.752   3.229  14.976
64607W        W23868  39.891  38.068   1.236
64608W        W23869  14.153  19.541   1.316
64609W        W23870  18.142  37.086  13.944
64610W        W23871  26.569   9.782  12.861
64611W        W23872  26.977  16.783  13.318
64612W        W23873  11.712  39.479  12.959
64613W        W23874  20.273  18.670   3.298
64614W        W23875  41.002  34.545   1.378
64615W        W23876   2.895  15.152   2.296
64616W        W23877  30.967  14.828   1.443
64617W        W23878   4.204  28.511   2.366
64618W        W23879  14.306  37.993  10.432
64619W        W23880  11.199  26.030  13.863
64620W        W23881   7.782  21.185  11.465
64621W        W23882  10.332  23.107   3.373
64622W        W23883  13.776  14.334   0.301
64623W        W23884  15.088  15.748  12.571
64624W        W23885  44.928  40.489  13.394
64625W        W23886  36.060  25.599  10.551
64626W        W23887  16.672  24.663  14.292
64627W        W23888   0.983  16.712  14.912
64628W        W23889   3.857  42.454   2.700
64629W        W23890  15.636  29.480   1.721
64630W        W23891  42.785   0.347   4.672
64631W        W23892  23.706  23.578   4.141
64632W        W23893  22.026  14.624   4.774
64633W        W23894  43.379  43.348  12.890
64634W        W23895   5.904  33.470   3.219
64635W        W23896   1.959  27.044  11.554
64636W        W23897  42.419   7.183  11.502
64637W        W23898   3.384  29.556   3.269
64638W        W23899  10.753  19.635   0.255
64639W        W23900   3.418  23.635   3.829
64640W        W23901  41.789  14.211   9.970
64641W        W23902  29.137  23.169   4.731
64642W        W23903  13.236  17.615   2.868
64643W        W23904  31.577  30.073   3.783
64644W        W23905  36.408   6.810  14.798
64645W        W23906  26.488  34.919  12.854
64646W        W23907  15.763  23.513  13.937
64647W        W23908  18.061   5.348  11.889
64648W        W23909  16.207   3.872  14.968
64649W        W23910   9.223  42.005  13.454
64650W        W23911  31.037  42.820   3.836
64651W        W23912  20.692   2.275  11.100
64652W        W23913   4.410  19.628  10.939
64653W        W23914  36.935  10.738  13.531
64654W        W23915   5.840  32.922   1.279
64655W        W23916   5.799  29.590   4.270
64656W        W23917  26.086  39.334   2.890
64657W        W23918   3.238  30.054   4.238
64658W        W23919   6.215  17.295   4.646
64659W        W23920   9.881   8.862   3.827
64660W        W23921  25.983  30.909  13.515
64661W        W23922  17.687  18.562   3.307
64662W        W23923  30.622  40.869   3.870
64663W        W23924  17.658  17.081  11.855
64664W        W23925   6.234   3.309  14.896
64665W        W23926  23.007  30.047   3.358
64666W        W23927  43.317   1.282   3.664
64667W        W23928  21.176  17.269  12.462
64668W        W23929  38.409  25.006   0.472
64669W        W23930   5.353  29.168  10.486
64670W        W23931  33.095  20.076  10.601
64671W        W23932  29.641  37.410   0.797
64672W        W23933  24.051   3.228  10.642
64673W        W23934  12.150   5.362  13.931
64674W        W23935  43.823  26.023  12.092
64675W        W23936  34.992  11.623   2.304
64676W        W23937   7.219  37.493  12.845
64677W        W23938  13.638  19.652  14.974
64678W        W23939  40.452  21.565  13.977
64679W        W23940  23.698   5.718   3.278
64680W        W23941  20.087  24.570  10.991
64681W        W23942  43.481  31.952   1.432
64682W        W23943  15.715  10.377  10.596
64683W        W23944   4.718  32.567  10.602
64684W        W23945  17.218  21.756  12.024
64685W        W23946  28.635   0.896  12.878
64686W        W23947  11.225  28.450  11.028
64687W        W23948  26.572   8.819   0.273
64688W        W23949  17.133  39.361   3.277
64689W        W23950  34.477  21.083  13.324
64690W        W23951  40.996   9.790   2.317
64691W        W23952   5.280   8.268   3.339
64692W        W23953  24.166  15.125  14.386
64693W        W23954  17.096   0.787  14.346
64694W        W23955  24.073  26.074  11.052
64695W        W23956  43.878  32.046   2.325
64696W        W23957  17.671  13.760   2.774
64697W        W23958  32.600   9.822   3.818
64698W        W23959  16.741  18.648   4.790
64699W        W23960  42.901  41.523  14.862
64700W        W23961  32.935  38.013  11.587
64701W        W23962  31.906   5.805  10.581
64702W        W23963   8.265   7.892  11.095
64703W        W23964  10.660   2.368   0.409
64704W        W23965  38.886  16.782   2.737
64705W        W23966  20.716  37.869   1.847
64706W        W23967  43.372  24.217   3.681
64707W        W23968  29.046   9.251  13.504
64708W        W23969  15.175  34.115   1.909
64709W        W23970  39.876  33.546  12.532
64710W        W23971  35.404  22.016   4.626
64711W        W23972  42.329  18.662  13.958
64712W        W23973  12.857   1.273   2.870
64713W        W23974  17.079  16.711  10.493
64714W        W23975   6.393  22.665   0.947
64715W        W23976  28.584   1.407   4.742
64716W        W23977  44.337  15.657  11.605
64717W        W23978  37.871  35.459   1.815
64718W        W23979  11.678  14.769   3.346
64719W        W23980  33.083  39.957  11.052
64720W        W23981  41.396   7.834  12.457
64721W        W23982   2.292   6.279   4.268
64722W        W23983   5.737  23.546  11.070
64723W        W23984  12.236  43.319   1.854
64724W        W23985  36.422  39.025  10.121
64725W        W23986  15.729  39.006  12.935
64726W        W23987  22.168  23.198  11.445
64727W        W23988   3.358  17.727  13.378
64728W        W23989  41.856  35.515  12.053
64729W        W23990  31.477  42.986   0.319
64730W        W23991  18.608  24.520  13.453
64731W        W23992  32.103  28.958   3.334
64732W        W23993  34.931  34.461   4.779
64733W        W23994  28.129  13.300  11.960
64734W        W23995  20.715  42.811  13.041
64735W        W23996  26.588  14.301   0.961
64736W        W23997   4.335   6.308  13.339
64737W        W23998  38.402  30.610   3.265
64738W        W23999  38.835  26.498  13.042
64739W        W24000  11.659  35.542  10.990
64740W        W24001  37.497   6.257   0.751
64741W        W24002  37.831   6.319   1.276
64742W        W24003  35.886   2.844  11.397
64743W        W24004   1.777   8.352   3.188
64744W        W24005   2.806  21.603   2.877
64745W        W24006   9.260  10.860  11.883
64746W        W24007  44.421  18.295   1.340
64747W        W24008  26.000  12.625  10.947
64748W        W24009  29.578   3.214   3.185
64749W        W24010   3.309  21.019  10.553
64750W        W24011   4.707  39.868  12.577
64751W        W24012  39.389  36.537   3.664
64752W        W24013  14.204   2.432  10.047
64753W        W24014  11.283   9.150   0.866
64754W        W24015  42.439  40.038  10.623
64755W        W24016   4.254  28.147   4.649
64756W        W24017   3.747  27.490  12.439
64757W        W24018  20.103  25.028   1.244
64758W        W24019  21.559   0.978   0.732
64759W        W24020  12.298  10.316  10.574
64760W        W24021  10.851  33.099  10.939
64761W        W24022  10.320  14.263  10.017
64762W        W24023   3.251  23.704  13.369
64763W        W24024   4.448  25.057  13.825
64764W        W24025  21.215  43.271  13.020
64765W        W24026  20.631  19.213  10.901
64766W        W24027  34.045   7.796  14.017
64767W        W24028  36.919  24.019   0.791
64768W        W24029  28.565  43.987  10.631
64769W        W24030   1.293   6.731  13.918
64770W        W24031  41.392  32.475   0.884
64771W        W24032   0.407   9.774  14.936
64772W        W24033  22.626  40.957  12.085
64773W        W24034  18.625  11.824   0.767
64774W        W24035  32.450  24.126  10.439
64775W        W24036  40.529   2.240   0.892
64776W        W24037  40.338  28.143  13.023
64777W        W24038  13.221  28.494  10.586
64778W        W24039  20.660  44.857  11.589
64779W        W24040  31.070   0.320   1.357
64780W        W24041  28.623  43.935  13.018
64781W        W24042  44.416  36.528  13.447
64782W        W24043  38.460  38.050   4.352
64783W        W24044  40.844  31.529   3.823
64784W        W24045   4.745  24.186   0.848
64785W        W24046  14.826  24.643   0.728
64786W        W24047  22.602   2.820  12.870
64787W        W24048  14.773  35.443   1.294
64788W        W24049   2.434  28.472  13.015
64789W        W24050  13.111  17.732   1.696
64790W        W24051  36.593  13.802  10.580
64791W        W24052  21.151  30.427  12.000
64792W        W24053  24.489  32.915   4.316
64793W        W24054  36.046   4.228   3.269
64794W        W24055   1.756   0.263  12.087
64795W        W24056  22.727  16.265   1.392
64796W        W24057   3.723  10.264   1.803
64797W        W24058  34.941  26.464   0.301
64798W        W24059  10.192   8.238   0.804
64799W        W24060  40.802  14.139  11.523
64800W        W24061   6.834   1.446   1.852
64801W        W24062   6.698  11.768   5.750
64802W        W24063  40.334  31.413  12.556
64803W        W24064  30.151   1.470  13.815
64804W        W24065   0.438  27.170  10.592
64805W        W24066  13.781   2.251  14.920
64806W        W24067  23.618  32.010  14.946
64807W        W24068  22.635  30.104  12.823
64808W        W24069  20.158  31.636  12.007
64809W        W24070  39.831  29.029  11.002
64810W        W24071  16.789   5.341   1.794
64811W        W24072  44.815  22.190  13.340
64812W        W24073  22.194  33.552  14.894
64813W        W24074  40.998   3.404   3.363
64814W        W24075  38.923  10.324  12.534
64815W        W24076  36.979  41.526  14.771
64816W        W24077  41.005  39.873  11.506
64817W        W24078  12.322  44.884  14.385
64818W        W24079   3.217  13.142   4.139
64819W        W24080   0.386  23.076  14.368
64820W        W24081   5.797  29.664   0.804
64821W        W24082  18.093  12.646   1.446
64822W        W24083   0.307  30.449   3.319
64823W        W24084   7.836   8.219   1.889
64824W        W24085  15.697   1.251   5.280
64825W        W24086   9.766   9.880   4.706
64826W        W24087  41.936  34.086   5.751
64827W        W24088  34.061  18.275  10.888
64828W        W24089   2.394  40.366  10.448
64829W        W24090  17.724   5.271   4.836
64830W        W24091  43.444   4.736   9.986
64831W        W24092  34.077  22.999  13.808
64832W        W24093   0.955  31.057  11.453
64833W        W24094   8.310  11.350  11.056
64834W        W24095  16.591  19.708  13.457
64835W        W24096  38.426  13.600  14.380
64836W        W24097  20.681  15.264   1.343
64837W        W24098  39.340  33.498   3.753
64838W        W24099  23.129  33.899   1.760
64839W        W24100  13.768  29.506   1.696
64840W        W24101  18.789  14.174   9.949
64841W        W24102   6.279  11.698   1.311
64842W        W24103  14.147   3.798   0.836
64843W        W24104  37.853  29.942  14.861
64844W        W24105   9.889  28.087  10.457
64845W        W24106  27.647  21.264   4.620
64846W        W24107   2.400  44.866   1.434
64847W        W24108  16.578  24.022   4.211
64848W        W24109  30.092  18.054  10.636
64849W        W24110  32.993  10.791   4.263
64850W        W24111   8.368  16.202  13.874
64851W        W24112  41.999   1.904   4.733
64852W        W24113  12.713  28.499   0.372
64853W        W24114  41.826  25.092   1.353
64854W        W24115  11.834  25.472   3.360
64855W        W24116  25.618  41.877  13.461
64856W        W24117  10.872  28.650   3.801
64857W        W24118  26.981  27.990   2.212
64858W        W24119   7.739  22.023  11.582
64859W        W24120  40.359  37.531  13.332
64860W        W24121  21.174  28.092   3.270
64861W        W24122   8.294  16.777  12.493
64862W        W24123  30.045   1.370  14.833
64863W        W24124  39.505  28.531  12.016
64864W        W24125  16.199  39.525  13.418
64865W        W24126  38.378  44.296   0.873
64866W        W24127  29.126  36.453  11.479
64867W        W24128  15.327  31.470   2.243
64868W        W24129  35.017   8.291   4.684
64869W        W24130   9.842  24.597   2.676
64870W        W24131  25.611  10.268   2.817
64871W        W24132  33.074  30.567  10.640
64872W        W24133  35.992  40.901   1.833
64873W        W24134  28.603   0.961   4.145
64874W        W24135  15.640  25.132  10.616
64875W        W24136  10.756  11.234   0.402
64876W        W24137  10.702  30.090   3.210
64877W        W24138   1.738   6.360   0.305
64878W        W24139  22.243  17.650   3.805
64879W        W24140  39.551  28.017   0.915
64880W        W24141  42.293  21.091  14.428
64881W        W24142   7.362   0.452   0.483
64882W        W24143  21.625  10.218   0.747
64883W        W24144  37.358  12.776   1.398
64884W        W24145  39.027  31.964  11.450
64885W        W24146  37.063  31.409   0.441
64886W        W24147  26.575   4.403  12.519
64887W        W24148  39.925  42.955   4.831
64888W        W24149  11.294  18.641   1.415
64889W        W24150  32.089   5.239   3.852
64890W        W24151  17.250  29.965   0.735
64891W        W24152  18.227  22.160   3.237
64892W        W24153  44.279   8.295  11.109
64893W        W24154   7.236  42.382   1.835
64894W        W24155   4.351  33.537  12.893
64895W        W24156  25.635  35.430   0.886
64896W        W24157   9.882   8.744  13.456
64897W        W24158  29.128  26.179  11.087
64898W        W24159   0.984  30.136  13.360
64899W        W24160  30.648  17.588  12.515
64900W        W24161   1.966  44.767  11.503
64901W        W24162  31.935  11.217  11.960
64902W        W24163  13.778  23.169   2.418
64903W        W24164   3.349  42.952   3.191
64904W        W24165  36.587  30.424   0.283
64905W        W24166  38.564  35.861  12.064
64906W        W24167  41.300   9.814  12.891
64907W        W24168  34.908   9.377  11.940
64908W        W24169  35.434   3.269  14.402
64909W        W24170  40.912   3.747  11.925
64910W        W24171  19.611  31.900  14.404
64911W        W24172  14.167  36.410  13.547
64912W        W24173   5.722  39.930   2.370
64913W        W24174  12.238   1.937  12.493
64914W        W24175  25.070   5.235   0.816
64915W        W24176  39.958  18.571  11.121
64916W        W24177  18.775  23.096  13.499
64917W        W24178  24.637   5.762  12.522
64918W        W24179  30.107  19.076  13.347
64919W        W24180  44.438  41.983   3.210
64920W        W24181   2.396  35.882   3.660
64921W        W24182  27.961  17.757  11.870
64922W        W24183  20.607  29.068  13.902
64923W        W24184   6.840  18.789   1.366
64924W        W24185  10.763   9.365   1.432
64925W        W24186  42.963   9.736   4.837
64926W        W24187  27.957  31.132   4.683
64927W        W24188  32.611  30.052  11.525
64928W        W24189   3.437  19.240  11.090
64929W        W24190  19.760   6.187  13.896
64930W        W24191  27.054  30.137   0.344
64931W        W24192   7.795  12.745  12.008
64932W        W24193  18.790  40.002  10.411
64933W        W24194  13.774   1.972   2.191
64934W        W24195  33.052  35.363   2.329
64935W        W24196  24.143  26.034  11.449
64936W        W24197  27.089  10.265  12.346
64937W        W24198  21.663  23.531   4.161
64938W        W24199  34.467  27.643  12.541
64939W        W24200  20.247   3.791   2.717
64940W        W24201  37.077  31.402  11.037
64941W        W24202  33.484  37.576  10.408
64942W        W24203  36.005  16.102  10.529
64943W        W24204   8.870   4.833  11.547
64944W        W24205  41.974  41.391  12.980
64945W        W24206  15.598  31.938  14.427
64946W        W24207  27.100  37.362  11.892
64947W        W24208   1.324  16.122  14.504
64948W        W24209  16.680  40.345   4.138
64949W        W24210   0.872  44.298   0.814
64950W        W24211   0.310  44.272   0.765
64951W        W24212  40.542  28.459  11.613
64952W        W24213  14.662  30.968  13.822
64953W        W24214  17.204  23.203  14.011
64954W        W24215   9.215  22.661   3.782
64955W        W24216  29.472  44.958   4.354
64956W        W24217  14.603   7.811   4.156
64957W        W24218  10.376  10.826  14.805
64958W        W24219  27.965  18.649   3.773
64959W        W24220  30.033   2.724   3.733
64960W        W24221   2.409  39.973  11.392
64961W        W24222  10.333   7.706   4.837
64962W        W24223   7.210  40.944  10.944
64963W        W24224  30.036  40.435  14.768
64964W        W24225  24.206   8.817   2.700
64965W        W24226  18.114   2.802  11.857
64966W        W24227  26.529  25.664  10.636
64967W        W24228  23.577  29.668  12.468
64968W        W24229  19.243  38.964   4.628
64969W        W24230   5.693   2.766  14.898
64970W        W24231  30.591  21.039   1.731
64971W        W24232  25.655  42.951   4.211
64972W        W24233  18.207   1.734  12.461
64973W        W24234  30.012  32.035  12.982
64974W        W24235  11.732  27.463  13.017
64975W        W24236  12.681  43.823   2.263
64976W        W24237  39.385  11.301  14.879
64977W        W24238   3.783   5.886   5.668
64978W        W24239  43.890   3.755  14.853
64979W        W24240  17.595  18.288  12.343
64980W        W24241  29.046  34.055   2.824
64981W        W24242   9.333  33.018  12.031
64982W        W24243  14.124   0.354  13.474
64983W        W24244   1.848  21.111  14.379
64984W        W24245  26.573   2.344  14.377
64985W        W24246  17.690  33.570   1.440
64986W        W24247  24.142   3.842  12.470
64987W        W24248   1.458  15.587   0.395
64988W        W24249  42.496  41.515   4.116
64989W        W24250  37.923  32.391  10.989
64990W        W24251   4.325  16.232   0.967
64991W        W24252  25.620  27.666  14.382
64992W        W24253   4.837  12.175   3.216
64993W        W24254   9.162   1.897   3.826
64994W        W24255  39.010  12.335   0.321
64995W        W24256  21.222  19.285  12.392
64996W        W24257   3.388  34.409   1.866
64997W        W24258  37.406  37.411   0.339
64998W        W24259  14.175  24.589  10.988
64999W        W24260  39.472  44.486  12.008
65000W        W24261  30.434   2.729  13.395
65001W        W24262   8.405  32.438  11.008
65002W        W24263  37.535  35.993   0.815
65003W        W24264  31.441  38.972   4.247
65004W        W24265  23.717  12.826  14.453
65005W        W24266  17.721  33.067   3.776
65006W        W24267  22.166  10.834   0.771
65007W        W24268  16.689  24.202   1.894
65008W        W24269  33.937  29.171   2.857
65009W        W24270  10.696   1.428  14.291
65010W        W24271  15.752  16.244  13.518
65011W        W24272   1.820  17.161  12.409
65012W        W24273   8.768   7.775   5.277
65013W        W24274  44.960  11.714  13.028
65014W        W24275  14.261  12.716   5.230
65015W        W24276  12.243   9.178  10.954
65016W        W24277  40.914  28.979   0.849
65017W        W24278  29.495  20.714  14.011
65018W        W24279   0.256   3.943   4.828
65019W        W24280  25.141  33.050  12.071
65020W        W24281  29.163  11.708   2.200
65021W        W24282  14.177  17.737   2.770
65022W        W24283  15.187  38.363   4.283
65023W        W24284  19.169  25.205   3.806
65024W        W24285  13.606  35.483   2.406
65025W        W24286  12.209  35.009  14.873
65026W        W24287  43.884  26.160   1.852
65027W        W24288  44.919  22.627  14.970
65028W        W24289  32.464  15.673   4.164
65029W        W24290  35.487  37.505   2.804
65030W        W24291  19.191  37.051   0.876
65031W        W24292   3.711  44.757  13.853
65032W        W24293  31.499  18.178  13.838
65033W        W24294  24.690  24.549   3.301
65034W        W24295   2.850   1.349   0.741
65035W        W24296   0.836  21.095  10.048
65036W        W24297  23.022   5.883   3.745
65037W        W24298  21.731  33.105  11.093
65038W        W24299  28.620   5.270   4.131
65039W        W24300  34.898  24.648  13.954
65040W        W24301  34.065  38.429   3.858
65041W        W24302  23.008   8.196   2.337
65042W        W24303  22.717  38.968   2.328
65043W        W24304   5.385  27.619   4.318
65044W        W24305  16.162  30.479   0.939
65045W        W24306  11.734  19.113  14.319
65046W        W24307  21.048  41.426   3.848
65047W        W24308   0.340  38.449   2.861
65048W        W24309  15.135   6.186   0.904
65049W        W24310  22.007  21.077   2.386
65050W        W24311   2.916  17.245  11.885
65051W        W24312  34.063  10.674   2.867
65052W        W24313  16.744  37.444   0.761
65053W        W24314  33.445  22.147   0.953
65054W        W24315  13.718  26.620   3.868
65055W        W24316  17.221  39.920   4.644
65056W        W24317  21.756   8.741  12.361
65057W        W24318   3.844  37.509  10.136
65058W        W24319  38.542  13.324   1.788
65059W        W24320  23.620  30.048   2.840
65060W        W24321   5.792  13.844  14.961
65061W        W24322  37.889  11.228   1.737
65062W        W24323  30.432  39.967  10.611
65063W        W24324  43.447  24.565   2.179
65064W        W24325  27.964   3.456  11.108
65065W        W24326  35.396   4.753   2.683
65066W        W24327  25.479  29.157  10.412
65067W        W24328  24.195  42.494  13.846
65068W        W24329  35.435  33.514   3.385
65069W        W24330  31.127   6.229   0.964
65070W        W24331  39.333   2.250   0.783
65071W        W24332  29.002  13.729   1.264
65072W        W24333  40.361   0.909  12.836
65073W        W24334  18.591   8.663  10.900
65074W        W24335  34.414  41.841   2.253
65075W        W24336  25.207   8.776   0.276
65076W        W24337  15.110  18.251  13.980
65077W        W24338  40.947   9.651  14.982
65078W        W24339   9.277  12.846   0.445
65079W        W24340   7.867  18.120   1.799
65080W        W24341  37.886   4.343   2.822
65081W        W24342  21.249  43.957  13.350
65082W        W24343  24.679  40.932   4.201
65083W        W24344  30.605   6.416   0.329
65084W        W24345  27.615  14.798   2.689
65085W        W24346  15.600  35.049   1.217
65086W        W24347  15.310  15.094   1.269
65087W        W24348  19.117  40.024  11.925
65088W        W24349  18.162  18.676   4.792
65089W        W24350  16.667  21.218   0.764
65090W        W24351  32.476  17.752  13.350
65091W        W24352  12.199  26.123  13.548
65092W        W24353  41.798   1.765   2.298
65093W        W24354  24.119  17.641  11.506
65094W        W24355  26.169  16.678  10.457
65095W        W24356  41.840  12.810   2.832
65096W        W24357  14.294  26.111   2.849
65097W        W24358  12.200  21.200   2.259
65098W        W24359  41.842  15.688  13.493
65099W        W24360  39.492  33.081  11.421
65100W        W24361  36.392  36.875   2.826
65101W        W24362  33.538  18.600  14.394
65102W        W24363  33.418  13.137   5.083
65103W        W24364   6.841  30.083   0.938
65104W        W24365  41.807  43.317  10.477
65105W        W24366  40.900   5.280  13.445
65106W        W24367  35.041   9.868  11.569
65107W        W24368  10.159  40.890   3.178
65108W        W24369  16.188  27.517  13.952
65109W        W24370  31.931  14.831   1.351
65110W        W24371  17.143  18.649   4.131
65111W        W24372  41.802   0.318   0.253
65112W        W24373  34.399   0.958   3.288
65113W        W24374  11.775  10.634  13.847
65114W        W24375  34.946  27.630  12.463
65115W        W24376   6.703   4.878   1.873
65116W        W24377   7.199  43.433   3.286
65117W        W24378   4.925  37.360   3.232
65118W        W24379  38.454  43.907  11.005
65119W        W24380  24.214  10.329   4.171
65120W        W24381  28.595  20.759   2.309
65121W        W24382  27.617  40.053  14.025
65122W        W24383  13.182   8.753  12.501
65123W        W24384   8.402  14.228  14.806
65124W        W24385  24.004  26.564   2.366
65125W        W24386  25.031  38.948  11.081
65126W        W24387  33.576  35.532   5.239
65127W        W24388   1.267  25.656   3.351
65128W        W24389  19.738  30.929   4.624
65129W        W24390   5.297  12.326   5.170
65130W        W24391  17.577  40.945  14.357
65131W        W24392  44.270  22.649  13.041
65132W        W24393  25.024  41.850  13.818
65133W        W24394  15.123  14.194  10.560
65134W        W24395  44.481  14.782  13.801
65135W        W24396   0.265  40.937  11.591
65136W        W24397  36.076  40.931   4.144
65137W        W24398   3.364  25.155  10.621
65138W        W24399  16.165  21.144   4.149
65139W        W24400  34.471   6.878  14.919
65140W        W24401  20.677   4.367   3.230
65141W        W24402  24.028  25.028  11.968
65142W        W24403  27.520   9.393   3.235
65143W        W24404  15.796   1.265  10.587
65144W        W24405   3.797  23.556   0.333
65145W        W24406  39.560  24.643  11.548
65146W        W24407  32.008  30.506   1.925
65147W        W24408  18.171  18.549   5.624
65148W        W24409  26.032  44.344   4.668
65149W        W24410  20.191   7.200   4.332
65150W        W24411  15.712   5.429   2.797
65151W        W24412  21.190  19.702  13.800
65152W        W24413  16.196   4.858   1.767
65153W        W24414  10.862   5.205   4.184
65154W        W24415  26.497  42.478   1.875
65155W        W24416  33.496  26.002   0.454
65156W        W24417  41.027  39.500   2.364
65157W        W24418  39.845  15.797  14.025
65158W        W24419  14.288  33.614   2.179
65159W        W24420   7.711  31.607  10.617
65160W        W24421  13.626  42.990  12.402
65161W        W24422  37.453   6.405   2.855
65162W        W24423  44.497  19.231   1.353
65163W        W24424   6.421  32.889   1.417
65164W        W24425  37.018  15.579   4.783
65165W        W24426   1.422  19.629  14.443
65166W        W24427  11.177  40.820   0.893
65167W        W24428  18.231  13.720  14.311
65168W        W24429  33.910  12.716   3.245
65169W        W24430   8.301  16.142   2.686
65170W        W24431   4.899  43.987   3.360
65171W        W24432  43.784  38.365   2.202
65172W        W24433  24.158  39.431  13.909
65173W        W24434   5.921  10.168  14.863
65174W        W24435  29.530  12.191  12.386
65175W        W24436  29.476  20.177  14.838
65176W        W24437  29.580  20.247  10.454
65177W        W24438  22.243  18.131   4.700
65178W        W24439   8.321  24.593  13.511
65179W        W24440  41.016   3.287  13.369
65180W        W24441  10.285  41.511  10.945
65181W        W24442  28.565  25.567  14.779
65182W        W24443  38.867  39.344   3.148
65183W        W24444   1.936  12.212   1.736
65184W        W24445  19.134  33.942  11.548
65185W        W24446  42.895   0.764   0.893
65186W        W24447  14.607   2.898   2.845
65187W        W24448   6.288  18.686   0.831
65188W        W24449   0.840  20.197   2.859
65189W        W24450   0.783   7.904  12.388
65190W        W24451  32.135   1.768   4.189
65191W        W24452  32.585  36.564  10.930
65192W        W24453  26.075   4.432   1.390
65193W        W24454   8.182  36.969  10.888
65194W        W24455  18.131   3.229   2.824
65195W        W24456  36.039  36.064  12.908
65196W        W24457  38.557   6.238  10.640
65197W        W24458   9.384  39.834  12.892
65198W        W24459   6.269  12.781   2.307
65199W        W24460  43.867  39.983  14.990
65200W        W24461   9.781  15.666  13.817
65201W        W24462  33.097  21.204   4.180
65202W        W24463  24.978   2.264  14.459
65203W        W24464  26.090  43.982   3.631
65204W        W24465   6.843  32.572   1.220
65205W        W24466  16.708  37.877  10.962
65206W        W24467  40.990   9.652   0.952
65207W        W24468  11.728  16.685  12.345
65208W        W24469   7.714  19.719  11.560
65209W        W24470  19.193  32.538   3.337
65210W        W24471  21.044   0.823  10.985
65211W        W24472  13.130  23.158   3.629
65212W        W24473  34.993  24.163  13.427
65213W        W24474  31.046  15.602   1.792
65214W        W24475  39.019  14.609  13.334
65215W        W24476  24.209  42.362  13.360
65216W        W24477  39.372  24.108  14.911
65217W        W24478  33.991  25.657   4.609
65218W        W24479  23.697   8.745  10.487
65219W        W24480  33.593   6.793  11.886
65220W        W24481  27.581  30.017   3.220
65221W        W24482   0.263   1.311  11.927
65222W        W24483   0.866   5.867  14.997
65223W        W24484  28.638  35.045  12.448
65224W        W24485  20.675  34.543   0.780
65225W        W24486  35.860  32.549  12.443
65226W        W24487  14.166  11.641  13.047
65227W        W24488  36.876  37.069   3.280
65228W        W24489  31.557  17.661  13.425
65229W        W24490  26.185   3.948   1.283
65230W        W24491  18.233  16.783   1.856
65231W        W24492  27.605  33.126   9.539
65232W        W24493  12.736  20.103  11.127
65233W        W24494  43.305  41.335   3.670
65234W        W24495   5.772  14.222  12.524
65235W        W24496   3.940  25.670   3.810
65236W        W24497  16.716   8.657   0.429
65237W        W24498  44.322   9.274  10.932
65238W        W24499  14.806  42.989   0.745
65239W        W24500  42.385  28.502  11.937
65240W        W24501  43.332  19.563   3.256
65241W        W24502  36.455   9.310   2.252
65242W        W24503  40.421   0.988   5.090
65243W        W24504   6.183   4.303   2.419
65244W        W24505  12.688  30.642  11.428
65245W        W24506  23.043   9.276  12.372
65246W        W24507  23.615  12.350  13.042
65247W        W24508  23.130  10.716   3.161
65248W        W24509  10.309   0.310  13.963
65249W        W24510  28.163  32.021  10.944
65250W        W24511  29.594  44.310  10.954
65251W        W24512  26.055  31.007   1.733
65252W        W24513   8.174  39.919   3.322
65253W        W24514   0.772  19.636  11.557
65254W        W24515  39.051  38.935  11.901
65255W        W24516  16.196  17.633  11.505
65256W        W24517   4.382   4.431  14.991
65257W        W24518  22.534  23.668  13.802
65258W        W24519  34.032  26.998   3.641
65259W        W24520  26.493  43.960   2.372
65260W        W24521  44.494  39.886  14.892
65261W        W24522  10.285   3.282  10.026
65262W        W24523  39.333  38.538  14.767
65263W        W24524  38.378   0.335   3.197
65264W        W24525   8.316  38.416  14.947
65265W        W24526  36.859  22.037   3.185
65266W        W24527  19.049  43.015   2.697
65267W        W24528  19.179  39.520  13.360
65268W        W24529   8.323  44.863   3.332
65269W        W24530  24.156   9.300   0.376
65270W        W24531  10.786   4.875   3.854
65271W        W24532  34.887  36.030   3.785
65272W        W24533   2.722  21.231  10.645
65273W        W24534   1.858   9.264  10.947
65274W        W24535  14.610  38.567   4.165
65275W        W24536   2.413   2.818  10.535
65276W        W24537   8.353  23.554  10.476
65277W        W24538  33.436  37.989  11.564
65278W        W24539   4.742  24.578  11.387
65279W        W24540  39.021  38.914   4.351
65280W        W24541  19.642   8.810   3.212
65281W        W24542  38.486  38.040  13.890
65282W        W24543  34.979   8.804   3.317
65283W        W24544  39.872  27.566   4.275
65284W        W24545  22.546  22.532   2.349
65285W        W24546   1.886   2.399  14.867
65286W        W24547   8.674  40.995  12.409
65287W        W24548   3.254  25.611  13.062
65288W        W24549   4.811   3.938   4.836
65289W        W24550   3.938  34.020  12.365
65290W        W24551  44.997  38.928  10.959
65291W        W24552   6.906  23.237   1.743
65292W        W24553  36.083  27.489   2.209
65293W        W24554   0.271  29.450  13.870
65294W        W24555  30.973   4.334  10.416
65295W        W24556  42.480   9.300   4.626
65296W        W24557  15.308   9.692   2.247
65297W        W24558  41.964  43.959  13.490
65298W        W24559  38.391  15.596   4.255
65299W        W24560  31.440  10.845  13.403
65300W        W24561   1.962   3.435   0.733
65301W        W24562  12.651   1.870   1.816
65302W        W24563  34.372  27.975  13.993
65303W        W24564  20.543  27.128   3.869
65304W        W24565  25.539  40.032  12.433
65305W        W24566  20.143  40.430   4.240
65306W        W24567   7.777  40.334   1.218
65307W        W24568  25.637  39.854   1.255
65308W        W24569   1.267   6.299   2.684
65309W        W24570  10.231   8.677   1.227
65310W        W24571  23.043  25.064  11.929
65311W        W24572  22.089   1.760   4.608
65312W        W24573   0.794   0.318  12.982
65313W        W24574   2.235  18.128  10.990
65314W        W24575  42.501  44.784   3.642
65315W        W24576  16.287  33.936   2.710
65316W        W24577   0.837  18.568  10.505
65317W        W24578  22.692  34.401   4.786
65318W        W24579  31.034   5.198   4.252
65319W        W24580   1.935  38.024  14.284
65320W        W24581  42.296  28.177  12.461
65321W        W24582  37.972  32.107  12.463
65322W        W24583  29.110  28.074  14.852
65323W        W24584  24.005   3.857   3.638
65324W        W24585   9.705  36.513   3.745
65325W        W24586  39.838  31.981   5.305
65326W        W24587  23.506  39.398  13.364
65327W        W24588  32.436  24.985   1.329
65328W        W24589  42.430  10.327  11.052
65329W        W24590  15.611  18.778  14.863
65330W        W24591  31.037  33.933  14.770
65331W        W24592  33.895   3.320  10.558
65332W        W24593  29.586  23.107  12.503
65333W        W24594  11.832  31.478  10.520
65334W        W24595  23.671  21.535  13.356
65335W        W24596  11.162  33.043  12.493
65336W        W24597  15.302  21.215  13.496
65337W        W24598  43.945   9.235   4.265
65338W        W24599   8.319  17.132   0.770
65339W        W24600  15.082  31.139   0.753
65340W        W24601  21.580  27.043   2.187
65341W        W24602  30.584  36.404  14.300
65342W        W24603  37.353  44.841  14.930
65343W        W24604   3.446  19.710  10.117
65344W        W24605   8.827  22.147   4.187
65345W        W24606   0.929  25.501  14.991
65346W        W24607  39.976  38.898   4.825
65347W        W24608  40.901  33.112  13.371
65348W        W24609  32.913  14.826   2.705
65349W        W24610   2.953  16.645   2.278
65350W        W24611   5.819  20.260   0.319
65351W        W24612  15.604  19.573   5.304
65352W        W24613  14.765  39.363  12.378
65353W        W24614  12.168  35.072   2.362
65354W        W24615  36.019  28.504  14.445
65355W        W24616  42.366   1.456  14.934
65356W        W24617  39.976  12.199  12.370
65357W        W24618  40.420  39.417   4.813
65358W        W24619  11.285  40.404  12.878
65359W        W24620  41.317  17.560  10.579
65360W        W24621  25.510  30.620   2.727
65361W        W24622   7.719  17.751   0.481
65362W        W24623  30.115  12.245   5.227
65363W        W24624  31.091  31.607  14.420
65364W        W24625  41.412   5.796  12.494
65365W        W24626  35.485   3.236  12.834
65366W        W24627  41.798   2.930   3.374
65367W        W24628  10.854  22.625   0.287
65368W        W24629  25.058   4.736  14.779
65369W        W24630   3.870  40.052  14.299
65370W        W24631  23.042  16.625  12.040
65371W        W24632  31.935  34.074  12.395
65372W        W24633  15.612  38.886  13.516
65373W        W24634  25.134  36.578   0.366
65374W        W24635  34.052  41.877   4.269
65375W        W24636  19.093  40.464  11.406
65376W        W24637   6.269   8.761  11.574
65377W        W24638  20.586  17.231   3.185
65378W        W24639  15.193  30.119   3.828
65379W        W24640   6.332  42.956  12.056
65380W        W24641  26.012   1.349   1.833
65381W        W24642   4.884  20.139  13.467
65382W        W24643  21.048  26.057   4.715
65383W        W24644  38.439  39.990  12.519
65384W        W24645  27.645  32.634  10.955
65385W        W24646  40.967  38.985   1.842
65386W        W24647  27.038   4.903  10.058
65387W        W24648  14.632  44.989  11.532
65388W        W24649   4.216   0.294   2.267
65389W        W24650  29.993  38.427  13.889
65390W        W24651  11.842  10.803  13.517
65391W        W24652   6.721  44.501  11.006
65392W        W24653  34.524   1.954  12.506
65393W        W24654  12.269  30.525  12.568
65394W        W24655  43.802  42.520  11.524
65395W        W24656   4.866  31.987   0.927
65396W        W24657  37.400  29.947  11.874
65397W        W24658  23.694  20.091  12.085
65398W        W24659  33.876  33.959  10.602
65399W        W24660  43.878   0.744   2.780
65400W        W24661  41.509  33.596   0.843
65401W        W24662  18.076  15.778  10.434
65402W        W24663  22.664  34.568   4.183
65403W        W24664   5.847  41.417   0.419
65404W        W24665  10.679   2.290  12.965
65405W        W24666  26.171  19.775  13.820
65406W        W24667  30.919  24.024   1.230
65407W        W24668   4.335   0.464   3.633
65408W        W24669  41.855  30.071   4.684
65409W        W24670  22.515  15.318   1.214
65410W        W24671  24.101  15.202  14.928
65411W        W24672  41.374  41.929   4.829
65412W        W24673   1.311   0.931  10.956
65413W        W24674   7.825   1.325   3.258
65414W        W24675  19.142  41.492   0.829
65415W        W24676  27.451  33.467   1.337
65416W        W24677  11.822  11.329  14.928
65417W        W24678  38.539  37.560   5.192
65418W        W24679   2.380  36.937   0.432
65419W        W24680  36.025  15.235  10.548
65420W        W24681  38.362  42.424   4.668
65421W        W24682  15.714   1.901   1.820
65422W        W24683  24.033  11.329   1.740
65423W        W24684  24.054  30.979  14.812
65424W        W24685  20.667  11.728  14.848
65425W        W24686   3.391  39.407  14.988
65426W        W24687  34.500  37.962  10.488
65427W        W24688  33.876   2.393   4.321
65428W        W24689  14.127  41.430   4.628
65429W        W24690   1.909  21.091   3.870
65430W        W24691   2.257  29.097   4.774
65431W        W24692  32.396  38.326  12.993
65432W        W24693   1.793  10.205   4.335
65433W        W24694  20.067   7.204  14.962
65434W        W24695  24.567  27.464  12.004
65435W        W24696   6.855   3.286  13.493
65436W        W24697  43.977  42.480   3.741
65437W        W24698  10.758  16.625   0.364
65438W        W24699  38.911  43.310   3.823
65439W        W24700  10.666  11.854  13.967
65440W        W24701  21.600   0.421   2.812
65441W        W24702  44.901  31.428   1.302
65442W        W24703  30.423  42.841  12.968
65443W        W24704  21.179  44.348   2.316
65444W        W24705  31.417   0.811   2.776
65445W        W24706  35.543   8.775  14.986
65446W        W24707   3.258   7.707  12.410
65447W        W24708  22.179   0.489  11.535
65448W        W24709  43.404  38.342   4.599
65449W        W24710   0.474  28.967  14.510
65450W        W24711  26.094  25.012  12.995
65451W        W24712  40.455  14.705  11.447
65452W        W24713   0.742  42.781  11.993
65453W        W24714  36.436  42.816  14.376
65454W        W24715  26.555  42.930   1.231
65455W        W24716   3.844  22.103  14.291
65456W        W24717  36.921  31.038  11.958
65457W        W24718  43.341  44.763   2.189
65458W        W24719   6.890  28.488   0.378
65459W        W24720  15.152   2.757  10.149
65460W        W24721   0.360  40.959   4.219
65461W        W24722  26.543  23.651  14.911
65462W        W24723  41.408  29.132   2.854
65463W        W24724  11.284  18.661   2.764
65464W        W24725  29.561   8.185   2.754
65465W        W24726  19.749  18.643  13.340
65466W        W24727  29.093  19.240  14.481
65467W        W24728  28.105  38.987   1.901
65468W        W24729  24.018   8.293   3.147
65469W        W24730   5.771  24.670   0.397
65470W        W24731  27.675  32.575   0.246
65471W        W24732  21.164  33.970  11.534
65472W        W24733   3.335  39.862  13.031
65473W        W24734   4.411  43.817   0.949
65474W        W24735  17.095  10.637  12.413
65475W        W24736  40.394  20.700  11.111
65476W        W24737  41.452  35.909   2.298
65477W        W24738  41.359  44.936   0.946
65478W        W24739   5.335  32.537   4.209
65479W        W24740  34.959   2.296   1.323
65480W        W24741  44.922  15.309  11.551
65481W        W24742   5.434  27.067   2.243
65482W        W24743  43.478  21.166  14.851
65483W        W24744  43.303  24.569   1.711
65484W        W24745   3.338   8.279  10.504
65485W        W24746  12.730  36.512  14.936
65486W        W24747  42.775  34.042   0.764
65487W        W24748  21.098  14.663   4.246
65488W        W24749   8.871  17.613   0.315
65489W        W24750   8.888  40.978  11.054
65490W        W24751  32.047   7.196   0.294
65491W        W24752   9.215  20.228   4.332
65492W        W24753   5.292  39.372  11.424
65493W        W24754  41.509  32.523   3.367
65494W        W24755  25.055  15.276   4.348
65495W        W24756  29.524  21.556  10.423
65496W        W24757  15.597  10.318   2.722
65497W        W24758  10.688  26.976  14.836
65498W        W24759   3.827  43.957   3.152
65499W        W24760  42.313   0.756  11.913
65500W        W24761  29.046  28.124  11.925
65501W        W24762   4.905  40.833  13.881
65502W        W24763  26.121  13.836  14.815
65503W        W24764   9.862   5.739  11.078
65504W        W24765  41.788  36.533   3.384
65505W        W24766   8.862   8.400  14.775
65506W        W24767  41.866  40.430  14.506
65507W        W24768  29.483  24.598   2.899
65508W        W24769  22.663   6.876  11.974
65509W        W24770  37.507  39.319   2.743
65510W        W24771  21.735  10.177   3.247
65511W        W24772  16.282   3.358   0.848
65512W        W24773  16.714   5.264   4.118
65513W        W24774  14.099  14.796  10.042
65514W        W24775  18.769  38.052  11.494
65515W        W24776  39.893  21.096   9.963
65516W        W24777  41.464  44.361  11.872
65517W        W24778  14.297  24.621  13.058
65518W        W24779  30.968   4.922   3.778
65519W        W24780  26.560   5.882   3.695
65520W        W24781   2.263   1.951  11.105
65521W        W24782  29.161  42.920  10.437
65522W        W24783  32.481  27.048  13.875
65523W        W24784  36.894  36.538   0.751
65524W        W24785  19.238  39.009   0.337
65525W        W24786  10.158  35.473   3.789
65526W        W24787   5.259  39.032  13.823
65527W        W24788  26.059  19.192  12.881
65528W        W24789  43.979  31.047  13.918
65529W        W24790  37.085  21.684   1.426
65530W        W24791  39.980  31.428   1.268
65531W        W24792  17.221  37.569  14.805
65532W        W24793  25.963  13.797  10.896
65533W        W24794   5.702  34.096  14.911
65534W        W24795  42.982  33.095  11.411
65535W        W24796   5.870   4.791   3.826
65536W        W24797  31.012  31.587   3.297
65537W        W24798  34.956  14.235   2.848
65538W        W24799  37.971  44.468  10.617
65539W        W24800  25.714  35.572   4.313
65540W        W24801  29.072  31.092  10.949
65541W        W24802  26.014  35.977   4.673
65542W        W24803  14.621  13.122   4.198
65543W        W24804   3.771  43.013   3.636
65544W        W24805  33.003  29.633   1.923
65545W        W24806  43.936  19.056  12.878
65546W        W24807  43.356  38.847   3.694
65547W        W24808  36.066  19.689   0.935
65548W        W24809  29.071  21.113   2.285
65549W        W24810  22.056  22.132   1.265
65550W        W24811   3.714   6.919   4.208
65551W        W24812  36.390   6.745   0.918
65552W        W24813  26.488  44.839  12.970
65553W        W24814  25.004  15.695   2.724
65554W        W24815  16.282  11.647  12.530
65555W        W24816   2.773   8.245  13.968
65556W        W24817   9.260  44.912  12.516
65557W        W24818  31.551  39.903  14.004
65558W        W24819  37.953   8.838   2.859
65559W        W24820  22.115  13.629  14.858
65560W        W24821  43.989  40.934   3.288
65561W        W24822  33.444  42.355   0.257
65562W        W24823  13.680  42.363  10.517
65563W        W24824  20.069   2.917  12.413
65564W        W24825   2.397  22.249  12.978
65565W        W24826   0.309   7.867  12.090
65566W        W24827   7.743  14.122  12.576
65567W        W24828  39.376  37.984  11.387
65568W        W24829  28.031  13.111  10.635
65569W        W24830  32.490  19.147  10.894
65570W        W24831   0.780  22.056   1.264
65571W        W24832  10.637  29.471   1.786
65572W        W24833   9.162  16.759   3.227
65573W        W24834  35.886  23.993   4.287
65574W        W24835  39.066   8.398  13.805
65575W        W24836  36.097   8.317   1.774
65576W        W24837   8.232  24.995  11.083
65577W        W24838  35.892   3.928   1.224
65578W        W24839   7.382  23.180   0.257
65579W        W24840   8.280   0.439  12.452
65580W        W24841  25.525   2.896  14.486
65581W        W24842  26.561  21.131  12.436
65582W        W24843  37.395  31.542   1.225
65583W        W24844   1.732  14.284   2.338
65584W        W24845  22.651  38.548  11.117
65585W        W24846  31.584  43.933  11.566
65586W        W24847  31.150  31.081   4.744
65587W        W24848   2.760  14.686  14.296
65588W        W24849   6.275  30.053   4.273
65589W        W24850  27.564   6.355   2.893
65590W        W24851  18.693   0.372   2.664
65591W        W24852   4.765  25.023  10.579
65592W        W24853  26.002  14.237   1.371
65593W        W24854  44.318  23.729  10.976
65594W        W24855  33.564  16.275  14.846
65595W        W24856   3.364   8.230   2.882
65596W        W24857  16.720  15.155  14.991
65597W        W24858  42.023  38.536  12.837
65598W        W24859   8.193   1.814   3.806
65599W        W24860  36.506  23.037  13.420
65600W        W24861  12.169  10.197   4.187
65601W        W24862   9.769  42.502   0.859
65602W        W24863  28.126  13.180   4.745
65603W        W24864  43.823  39.355   4.267
65604W        W24865  11.208  14.818  10.419
65605W        W24866   6.905  26.594  14.490
65606W        W24867  31.620  18.731   2.205
65607W        W24868  22.235  43.958  12.836
65608W        W24869   7.334  23.499  13.539
65609W        W24870  18.249  39.342   4.259
65610W        W24871   4.727  15.095   1.211
65611W        W24872  17.690  34.454   0.822
65612W        W24873  32.056  39.343   0.401
65613W        W24874   0.969  10.245  10.124
65614W        W24875  33.085  33.049   3.668
65615W        W24876  11.753   2.910  11.906
65616W        W24877   1.405  35.925  11.985
65617W        W24878   2.842  39.868   0.413
65618W        W24879  29.136  23.133  12.829
65619W        W24880  44.897  27.484   4.810
65620W        W24881  37.869   3.430  11.930
65621W        W24882   2.928  20.051   2.770
65622W        W24883  16.750   4.757  14.479
65623W        W24884   1.308   9.331  12.351
65624W        W24885  32.461  36.858  13.895
65625W        W24886   5.286  39.967  14.483
65626W        W24887  23.617  33.511   3.790
65627W        W24888   1.754  11.214   4.224
65628W        W24889  31.599  21.563   0.963
65629W        W24890   4.377  38.377   2.302
65630W        W24891  11.683   4.230  13.025
65631W        W24892  22.145  36.533  12.992
65632W        W24893  11.236  29.436   3.187
65633W        W24894  23.697  32.492   2.678
65634W        W24895  41.942  19.255   4.827
65635W        W24896  28.058   7.263  10.927
65636W        W24897  41.487  33.970  12.043
65637W        W24898  16.657  12.340   1.742
65638W        W24899  26.667  22.095  11.982
65639W        W24900  10.647  32.065   3.762
65640W        W24901  22.124   7.381   2.707
65641W        W24902  13.154   5.398  13.820
65642W        W24903   1.248  12.122  10.588
65643W        W24904   7.272  30.450   0.950
65644W        W24905  40.488  19.613   4.190
65645W        W24906  20.722  28.551   3.230
65646W        W24907  33.893  30.554   0.882
65647W        W24908  18.196   8.250  11.473
65648W        W24909  28.018  24.715  10.476
65649W        W24910  40.376  44.851   3.257
65650W        W24911  12.664  32.441  14.316
65651W        W24912  39.062  25.577   1.849
65652W        W24913   5.197  22.136  13.313
65653W        W24914  15.097  32.053   4.766
65654W        W24915  29.600   9.866   0.872
65655W        W24916  39.994  38.476  10.006
65656W        W24917  10.844  32.603   2.726
65657W        W24918   7.190  28.151   1.384
65658W        W24919  22.251  44.280  14.515
65659W        W24920  37.868  33.494   1.927
65660W        W24921  43.810   7.194   3.278
65661W        W24922   0.915  33.935   3.831
65662W        W24923   9.356   7.748   3.821
65663W        W24924  22.708  43.885  10.605
65664W        W24925   3.802  25.130  13.958
65665W        W24926   7.812   9.372   0.280
65666W        W24927  13.331  22.029   2.894
65667W        W24928  37.023  22.596  14.340
65668W        W24929   6.203   9.191   0.741
65669W        W24930   5.318   4.325   1.378
65670W        W24931  11.867  18.730   2.710
65671W        W24932  42.996  31.405   2.707
65672W        W24933  12.667  43.403  13.431
65673W        W24934   9.335  33.485  11.993
65674W        W24935   6.922   6.848  11.892
65675W        W24936  25.109   2.832  13.400
65676W        W24937  11.289  36.516  12.566
65677W        W24938   8.201  30.418   0.354
65678W        W24939  30.605  15.641   0.474
65679W        W24940  26.553  18.074  11.859
65680W        W24941  27.062  38.996   1.922
65681W        W24942  28.656   3.221  12.966
65682W        W24943  24.100  21.533  12.486
65683W        W24944  15.598  23.710  13.517
65684W        W24945  37.946  13.616  13.909
65685W        W24946  36.582  15.790   3.185
65686W        W24947   4.311  19.611   4.666
65687W        W24948   2.941  41.888   4.235
65688W        W24949  31.044  39.856   3.669
65689W        W24950  37.026  42.309  10.482
65690W        W24951  19.183  15.118   3.813
65691W        W24952  16.713   9.341   1.704
65692W        W24953  13.601  32.945  13.527
65693W        W24954  11.719   0.309  14.986
65694W        W24955   4.343   8.800  12.517
65695W        W24956  22.192   1.462   3.763
65696W        W24957  36.578  42.950  10.560
65697W        W24958   7.269   4.758  13.487
65698W        W24959   3.456  20.626   1.288
65699W        W24960   9.877  12.247  12.386
65700W        W24961  35.511   0.309  12.048
65701W        W24962  17.741  26.557  12.981
65702W        W24963   0.306  30.093   3.329
65703W        W24964  24.614  43.891  10.551
65704W        W24965  27.449   2.946  13.369
65705W        W24966   1.924   6.366  12.004
65706W        W24967  40.368  39.340  11.073
65707W        W24968  21.521  39.944  10.404
65708W        W24969  19.723  22.227   3.219
65709W        W24970  43.276  38.562   3.652
65710W        W24971  31.989   9.705   0.901
65711W        W24972   6.277  18.211  11.047
65712W        W24973   3.734  43.394  12.458
65713W        W24974  42.989  35.070  12.917
65714W        W24975  44.791   1.751   4.297
65715W        W24976  24.486  13.296  13.791
65716W        W24977  13.266  10.172   2.850
65717W        W24978  34.989  29.528  12.391
65718W        W24979  20.547  11.698  14.513
65719W        W24980  28.506  34.482   4.219
65720W        W24981   2.290   1.257   1.932
65721W        W24982  27.495  44.345  13.320
65722W        W24983  21.709  12.643  12.941
65723W        W24984  24.131  20.168   3.794
65724W        W24985  42.959   3.373   3.286
65725W        W24986   2.836  30.074   2.698
65726W        W24987   4.830  35.542   4.810
65727W        W24988  22.708   2.729  10.563
65728W        W24989   8.722  24.066   3.700
65729W        W24990   7.320  22.725  14.972
65730W        W24991  10.873  37.471  13.537
65731W        W24992  29.534  11.346  13.906
65732W        W24993  41.874  29.543   4.194
65733W        W24994  34.023  16.210  10.984
65734W        W24995  21.215  33.029   2.772
65735W        W24996  31.603  14.226  14.920
65736W        W24997  31.086   4.916   2.757
65737W        W24998  20.078  16.315  10.894
65738W        W24999  17.241   0.963   3.848
65739W        W25000  25.998  39.846   4.194
65740W        W25001  30.477   9.381  12.467
65741W        W25002   4.304  19.267   4.652
65742W        W25003   9.263  16.792  11.517
65743W        W25004  17.159  30.560  14.328
65744W        W25005  34.979  19.582  13.884
65745W        W25006  40.976  12.813  13.444
65746W        W25007  11.314  22.088   3.739
65747W        W25008  12.294  21.516  11.080
65748W        W25009  26.039  17.680  13.542
65749W        W25010  13.610   4.405  11.906
65750W        W25011   7.358  43.829  10.566
65751W        W25012  43.909  35.948   2.802
65752W        W25013  23.177   7.681   0.917
65753W        W25014   6.911  35.950   4.780
65754W        W25015   1.930  16.211  11.493
65755W        W25016  32.430  14.178  14.279
65756W        W25017  14.631   0.393  14.296
65757W        W25018  17.563  26.587   1.766
65758W        W25019  16.078  33.984   2.206
65759W        W25020  32.582  20.634  10.442
65760W        W25021  34.016  33.092   1.853
65761W        W25022   4.819  26.641   4.776
65762W        W25023  34.027   2.812   3.792
65763W        W25024  32.609  32.404   3.376
65764W        W25025  25.537  36.355  10.596
65765W        W25026  29.027  41.517  12.870
65766W        W25027  42.937  43.839   4.343
65767W        W25028   8.778  31.443  14.354
65768W        W25029  34.931   7.910  14.382
65769W        W25030  39.845   4.345  14.326
65770W        W25031  16.595  28.958   3.740
65771W        W25032  31.054  16.264  11.442
65772W        W25033  27.080  10.737   1.827
65773W        W25034  18.781  16.305   1.239
65774W        W25035  13.728  20.035  14.796
65775W        W25036  40.012  28.114  11.938
65776W        W25037  21.025  23.671   3.178
65777W        W25038  44.955  40.832   2.740
65778W        W25039   3.367  33.534   2.382
65779W        W25040   3.778  22.550   3.773
65780W        W25041  39.372   9.864   0.825
65781W        W25042  20.165  37.014  13.326
65782W        W25043  44.299  23.614   4.794
65783W        W25044  11.801  14.149   1.844
65784W        W25045  39.538  34.956  12.966
65785W        W25046   3.718   3.276   0.460
65786W        W25047  14.830  16.760  11.066
65787W        W25048  27.165   6.788  10.539
65788W        W25049  14.333  24.685  12.343
65789W        W25050  24.191   4.875  11.888
65790W        W25051   5.234  38.846  10.541
65791W        W25052  22.617  16.671  13.945
65792W        W25053  12.789  17.140   2.261
65793W        W25054  35.064  32.546  12.826
65794W        W25055  36.526   5.693  14.414
65795W        W25056  23.695  34.943   0.885
65796W        W25057  15.226   9.301  10.575
65797W        W25058  31.502   9.157   2.902
65798W        W25059  23.562  13.672   3.669
65799W        W25060  17.208  26.050   3.815
65800W        W25061   5.699  29.038   2.703
65801W        W25062  24.007  19.269   3.633
65802W        W25063  32.025  17.142  10.639
65803W        W25064  10.296  11.645  12.383
65804W        W25065  31.458  27.981   2.720
65805W        W25066  16.284  24.531  10.523
65806W        W25067  28.126  42.836  14.820
65807W        W25068  13.348   2.282  10.593
65808W        W25069  39.840  17.618  14.479
65809W        W25070  22.610  26.026  10.492
65810W        W25071  26.544  30.435  14.773
65811W        W25072  26.038  18.653   0.739
65812W        W25073  37.338  24.042   1.746
65813W        W25074   7.865   3.790   1.410
65814W        W25075  26.608  33.615   1.275
65815W        W25076  15.659   9.352  10.413
65816W        W25077  44.863   3.448   0.310
65817W        W25078  10.715  24.138   1.852
65818W        W25079  26.025   5.265   1.275
65819W        W25080  30.942  23.148   1.780
65820W        W25081  32.998  16.677   2.868
65821W        W25082  23.505  44.379   0.354
65822W        W25083  13.606   1.775   1.301
65823W        W25084   1.463   9.883  14.899
65824W        W25085  20.603  24.177   1.837
65825W        W25086  35.503   1.827   3.831
65826W        W25087  24.986   6.338  14.965
65827W        W25088   6.301  15.617   3.374
65828W        W25089  18.180   1.483   3.638
65829W        W25090  42.314  29.005   1.447
65830W        W25091  42.956  36.536  14.953
65831W        W25092  41.037  35.458   1.735
65832W        W25093  11.251   8.756   2.787
65833W        W25094   9.348  14.188   4.651
65834W        W25095   5.339  20.242   3.778
65835W        W25096  18.707  43.020   3.275
65836W        W25097   2.327  31.418  10.582
65837W        W25098  39.532  40.449   3.855
65838W        W25099   6.293  21.651  10.593
65839W        W25100  20.627  16.799  12.849
65840W        W25101  37.838   9.783  13.480
65841W        W25102  43.337  42.908  13.803
65842W        W25103  44.945  42.979   1.742
65843W        W25104  12.846  30.582  14.440
65844W        W25105  18.219  19.278   9.936
65845W        W25106  13.219  20.219  11.385
65846W        W25107  21.058  31.077  11.606
65847W        W25108  42.032  15.113  12.940
65848W        W25109   4.344   4.408  13.476
65849W        W25110  26.964  32.097   0.274
65850W        W25111  36.089  14.725  14.917
65851W        W25112  19.626  39.491   4.708
65852W        W25113  32.400  35.109  14.374
65853W        W25114  28.028  37.065   2.242
65854W        W25115  26.519   6.428   0.346
65855W        W25116  36.550  40.979   5.210
65856W        W25117   1.457   8.244   4.117
65857W        W25118   5.729   1.483  11.591
65858W        W25119  30.421  25.120   0.796
65859W        W25120  31.557  44.400  10.149
65860W        W25121  29.648  16.663   2.762
65861W        W25122  10.371   8.874   0.806
65862W        W25123   9.712  32.015  12.047
65863W        W25124  24.507  23.568  10.918
65864W        W25125   9.348  35.963  13.332
65865W        W25126  24.671  43.822   4.754
65866W        W25127  23.672  23.592   3.727
65867W        W25128  13.843  39.383  10.605
65868W        W25129  40.804  15.210  13.794
65869W        W25130  14.178  24.594   3.663
65870W        W25131  30.014  15.190   3.343
65871W        W25132  21.085   0.488  11.989
65872W        W25133  41.927  36.878  13.462
65873W        W25134   5.405   3.719   1.694
65874W        W25135   5.262  37.049  14.827
65875W        W25136   9.857  27.056  10.940
65876W        W25137  18.065  23.098  11.419
65877W        W25138   0.781  21.226   1.230
65878W        W25139  16.308  35.470   3.839
65879W        W25140  23.554  35.891   3.208
65880W        W25141  41.820  11.238  13.030
65881W        W25142  40.867   3.248  14.315
65882W        W25143   3.844  26.163  13.471
65883W        W25144  10.149  21.255   3.159
65884W        W25145  44.762  35.067  12.536
65885W        W25146  19.550  18.289  13.427
65886W        W25147   3.950   3.880   2.192
65887W        W25148  22.734  34.878  13.412
65888W        W25149  17.267   8.700   2.262
65889W        W25150   7.880  30.960   3.261
65890W        W25151   5.264  17.176  11.900
65891W        W25152   8.843   6.696  11.549
65892W        W25153  28.563  40.873   2.300
65893W        W25154  25.482   8.174  11.393
65894W        W25155  20.570  23.031  14.510
65895W        W25156  42.884  28.649  13.521
65896W        W25157   2.268  42.931   0.441
65897W        W25158  38.946  27.578   2.749
65898W        W25159  31.488  20.260  11.025
65899W        W25160   3.262  32.997   3.689
65900W        W25161  16.303  31.123   0.451
65901W        W25162  36.564   2.916  14.984
65902W        W25163  26.132   8.702  10.527
65903W        W25164  20.087  28.169   4.777
65904W        W25165  21.739   1.864  13.326
65905W        W25166  13.814  18.578  13.313
65906W        W25167  30.044  21.551  12.831
65907W        W25168  13.252  37.358   3.726
65908W        W25169   2.934  16.740  14.511
65909W        W25170  20.258  14.154  12.548
65910W        W25171  41.300  33.454  11.950
65911W        W25172  36.485  44.411   9.968
65912W        W25173  18.159  44.004   0.878
65913W        W25174  44.813  35.897   3.647
65914W        W25175  28.522   3.392  14.470
65915W        W25176  43.856  36.405  12.831
65916W        W25177   9.813  19.087  14.993
65917W        W25178  20.138  18.763  12.901
65918W        W25179   8.841  33.467   0.787
65919W        W25180  40.458  29.962  10.588
65920W        W25181  15.211  43.992  11.990
65921W        W25182  24.626  39.825   1.407
65922W        W25183  20.525  32.007  11.412
65923W        W25184  12.781  43.301   1.816
65924W        W25185  31.063   9.156   1.723
65925W        W25186  20.574  23.216  12.978
65926W        W25187   6.264   5.853  10.518
65927W        W25188  43.831  30.611  11.129
65928W        W25189   1.443  24.143  13.354
65929W        W25190  11.371  27.447  12.479
65930W        W25191  19.766  43.902  14.961
65931W        W25192  37.367  14.150   1.716
65932W        W25193   2.285  34.574  12.095
65933W        W25194  20.096  33.550   1.800
65934W        W25195  35.492  12.747  12.017
65935W        W25196  15.220  29.563  13.806
65936W        W25197  22.596  19.657   1.753
65937W        W25198  37.874  34.060  11.568
65938W        W25199  44.266  44.456   4.807
65939W        W25200  30.067  15.100  12.351
65940W        W25201  17.210  20.725  14.514
65941W        W25202  31.127  10.330   1.340
65942W        W25203   0.745  16.810   1.911
65943W        W25204  38.065  10.363  14.953
65944W        W25205  32.422  25.705   4.833
65945W        W25206  15.084  42.943   3.229
65946W        W25207  38.360  16.118  11.495
65947W        W25208  33.621  27.090  10.614
65948W        W25209   3.935   1.740   1.918
65949W        W25210  21.641   8.702   0.443
65950W        W25211  37.005  44.331   3.783
65951W        W25212  18.789  19.141   3.706
65952W        W25213  25.085  27.151  12.451
65953W        W25214  28.662  33.618   4.174
65954W        W25215  39.460  23.549  12.371
65955W        W25216  39.047  21.176   3.321
65956W        W25217   5.717  33.903  10.495
65957W        W25218  35.953  20.064  14.304
65958W        W25219  16.164  23.552  14.309
65959W        W25220  34.949  23.211   3.865
65960W        W25221  25.542  43.465  13.416
65961W        W25222  17.252  43.363  11.402
65962W        W25223  16.706  13.264   0.482
65963W        W25224  26.070  11.153   1.752
65964W        W25225  27.069   0.450   4.639
65965W        W25226  31.569   2.230   4.282
65966W        W25227  34.013  21.146   0.322
65967W        W25228   7.213  28.999  10.471
65968W        W25229  14.646   7.404  11.387
65969W        W25230  24.690   5.352   0.923
65970W        W25231  44.495  34.390   2.870
65971W        W25232  20.109  28.943  13.522
65972W        W25233  22.141   0.747   2.382
65973W        W25234  29.517  17.264   2.666
65974W        W25235   0.342  41.986  13.378
65975W        W25236   1.304  18.200   0.859
65976W        W25237   1.806  25.113  14.458
65977W        W25238   6.407   5.242   2.383
65978W        W25239  28.950  22.513  11.509
65979W        W25240  18.545  35.038  11.068
65980W        W25241  37.072  31.598   0.936
65981W        W25242  12.211  12.627  10.990
65982W        W25243  33.925  43.353  13.880
65983W        W25244  33.941   7.289  14.866
65984W        W25245  36.869   4.713  11.461
65985W        W25246  31.621  14.787  11.444
65986W        W25247  30.161  16.780  14.890
65987W        W25248  33.399   7.287  11.459
65988W        W25249  13.702  43.457   4.167
65989W        W25250   4.721   8.385  13.335
65990W        W25251  33.386  27.652  10.121
65991W        W25252  11.708   5.823  14.007
65992W        W25253  12.818  31.105   0.742
65993W        W25254   5.357  15.282  12.362
65994W        W25255  39.466  30.644  11.573
65995W        W25256   2.301  44.923  13.326
65996W        W25257  34.116  28.650  12.043
65997W        W25258  31.021  44.469  10.036
65998W        W25259   5.751  36.935  11.063
65999W        W25260  25.044   8.219  13.907
66000W        W25261   5.752  44.432   2.402
66001W        W25262  30.443  19.063  10.926
66002W        W25263  26.983  27.152   2.202
66003W        W25264   2.345  15.290  11.035
66004W        W25265   2.455  27.946  14.936
66005W        W25266  13.199  23.695  14.312
66006W        W25267  13.656  28.460   9.565
66007W        W25268   7.234  34.561  13.922
66008W        W25269  34.593  24.210   4.609
66009W        W25270  14.810  19.751   9.978
66010W        W25271  27.542   2.255  14.460
66011W        W25272  39.337  34.512  12.946
66012W        W25273  27.989   9.743  13.956
66013W        W25274  19.618  17.586   0.480
66014W        W25275  31.151  24.098   4.217
66015W        W25276  36.983  37.985  12.471
66016W        W25277   3.811  27.560  13.340
66017W        W25278  25.136  33.056  11.122
66018W        W25279   5.336  17.748  10.994
66019W        W25280  34.965   4.836   0.466
66020W        W25281   8.228  40.339   4.750
66021W        W25282  30.443   5.872   4.291
66022W        W25283  13.720   5.411  11.992
66023W        W25284  15.608  41.991   3.717
66024W        W25285   9.757  37.357   2.841
66025W        W25286  23.139  13.224  14.378
66026W        W25287   6.744   7.866  14.300
66027W        W25288   6.690   2.952   2.318
66028W        W25289   5.836  25.601  13.374
66029W        W25290   4.886   6.359  14.387
66030W        W25291   3.920   8.836   3.189
66031W        W25292  15.120  39.843   2.391
66032W        W25293  24.662   6.221  12.862
66033W        W25294  24.485   7.878  12.460
66034W        W25295  25.641   6.876   0.731
66035W        W25296  34.438  30.105   4.303
66036W        W25297   8.698  42.462  14.318
66037W        W25298  37.466   6.842   3.372
66038W        W25299  26.568  14.298  14.968
66039W        W25300  24.513   4.444  10.517
66040W        W25301  43.941  26.068   0.933
66041W        W25302  35.511  23.034   4.734
66042W        W25303  21.719  21.594   3.862
66043W        W25304  23.550  21.580   3.843
66044W        W25305   9.159  27.644   1.804
66045W        W25306   0.467  14.335  14.766
66046W        W25307  25.690  15.627  14.476
66047W        W25308  16.290  33.522   3.161
66048W        W25309  10.787   8.253   0.255
66049W        W25310  44.465  42.391  11.056
66050W        W25311  25.062  36.485   1.708
66051W        W25312  42.965  16.767  11.080
66052W        W25313  26.185  10.779  11.890
66053W        W25314  11.227  41.494   2.750
66054W        W25315   3.720   7.254  13.963
66055W        W25316  42.411  16.691   3.221
66056W        W25317   8.706  40.898   3.353
66057W        W25318  36.082  39.412  12.541
66058W        W25319  26.170   5.343  12.886
66059W        W25320  31.530  44.272  13.505
66060W        W25321  40.339  11.163  13.518
66061W        W25322  44.970   6.788   4.143
66062W        W25323  10.210  33.945   2.699
66063W        W25324  39.472  42.495  14.330
66064W        W25325   7.754  38.351  11.112
66065W        W25326  30.563  13.651  10.443
66066W        W25327   0.908  35.370  11.007
66067W        W25328  39.340  16.654   2.880
66068W        W25329  43.790  19.617  14.287
66069W        W25330  32.502  29.656   0.465
66070W        W25331   8.318  40.329   1.265
66071W        W25332  39.891  30.128   0.263
66072W        W25333   3.294  26.513   3.282
66073W        W25334   2.833  10.172  11.938
66074W        W25335  35.889   6.732   0.815
66075W        W25336  15.088  11.844   1.914
66076W        W25337  20.032  27.598  11.037
66077W        W25338   7.703  28.439   1.358
66078W        W25339  10.844   2.235   0.887
66079W        W25340  15.772  31.618   2.260
66080W        W25341   7.363  18.122   3.829
66081W        W25342  22.052  20.684   2.393
66082W        W25343  43.451  26.149   0.411
66083W        W25344  28.446  32.605  13.322
66084W        W25345  11.795  25.545   0.889
66085W        W25346  13.105  31.021  13.540
66086W        W25347   4.390  37.873  10.438
66087W        W25348  36.087   5.204  12.410
66088W        W25349  11.133   4.273   1.449
66089W        W25350  41.913  16.703  11.058
66090W        W25351  28.680  28.561   3.818
66091W        W25352  21.662  28.485   3.316
66092W        W25353  13.307  25.598   3.343
66093W        W25354  26.532  41.030  11.910
66094W        W25355  10.732  20.709   3.684
66095W        W25356   7.817  24.227  11.062
66096W        W25357   3.299   3.239   4.673
66097W        W25358   5.737  38.938  13.514
66098W        W25359  27.035  36.019   3.692
66099W        W25360   7.174  38.514   4.126
66100W        W25361  41.837   1.757   3.791
66101W        W25362  17.697   6.726  11.869
66102W        W25363   5.366  34.871  13.803
66103W        W25364  11.151   4.427   4.127
66104W        W25365  42.824  17.781  12.066
66105W        W25366  41.469  40.308  10.447
66106W        W25367   1.758  40.314   1.281
66107W        W25368  44.774  38.471  13.403
66108W        W25369   4.819   4.750   4.781
66109W        W25370   1.449  38.043   0.380
66110W        W25371  12.765   0.905  13.347
66111W        W25372  30.442  28.554  14.918
66112W        W25373  41.992  24.574  12.064
66113W        W25374  30.037   7.866   4.724
66114W        W25375   8.332  22.064   4.235
66115W        W25376  32.489   6.898   0.775
66116W        W25377   6.728  27.671   2.900
66117W        W25378  32.497  10.721   1.891
66118W        W25379  22.231  20.260   4.693
66119W        W25380   2.374  18.555   0.961
66120W        W25381   1.961  31.050   2.723
66121W        W25382  33.519  31.923   4.157
66122W        W25383  23.680  33.067  14.342
66123W        W25384  34.978  16.106  12.080
66124W        W25385  15.659   3.218   3.357
66125W        W25386  20.590  13.149   1.738
66126W        W25387  20.161  21.551  14.026
66127W        W25388  31.647  38.995   5.114
66128W        W25389  38.979   9.160   5.275
66129W        W25390  36.092  37.046  14.890
66130W        W25391  30.997  41.889   2.359
66131W        W25392  24.175  11.237  12.489
66132W        W25393  34.050  43.789  13.856
66133W        W25394  32.048  42.493   4.801
66134W        W25395  10.809  25.035  10.511
66135W        W25396  21.630  22.076   3.279
66136W        W25397  10.827  43.483   2.307
66137W        W25398  34.005   2.384  14.959
66138W        W25399   0.324   4.394   4.150
66139W        W25400  42.298  11.854   0.420
66140W        W25401   0.434  18.640  12.466
66141W        W25402  27.459  36.869  12.565
66142W        W25403  44.878  10.248  11.497
66143W        W25404  44.478  19.128   2.670
66144W        W25405  42.502  21.189  12.077
66145W        W25406  24.008  36.887   2.811
66146W        W25407   2.888  30.612   3.666
66147W        W25408  36.941  39.558  10.503
66148W        W25409  15.731  33.505   0.321
66149W        W25410  28.608  12.199  11.519
66150W        W25411  37.540  18.681   3.348
66151W        W25412  11.169  22.511   2.242
66152W        W25413  43.967  11.864  10.493
66153W        W25414  19.225  19.585  14.384
66154W        W25415  23.022  20.120   0.467
66155W        W25416  40.978  36.572  14.763
66156W        W25417  12.743  19.540  11.477
66157W        W25418  39.460  16.759  12.383
66158W        W25419  14.228   7.377   1.329
66159W        W25420  32.905  30.162   2.222
66160W        W25421   0.832   9.367  14.850
66161W        W25422   4.335  36.552  12.348
66162W        W25423  24.178  29.025   3.348
66163W        W25424   1.469  35.390  11.056
66164W        W25425  18.564  26.036  11.399
66165W        W25426  39.335  15.215   2.394
66166W        W25427  40.334  23.104   2.212
66167W        W25428  30.445  26.531  10.981
66168W        W25429  41.294  43.954   3.146
66169W        W25430  30.974  41.355   2.863
66170W        W25431  35.003   5.815   1.331
66171W        W25432  27.563  20.709  12.974
66172W        W25433  28.477  35.056   2.204
66173W        W25434  18.117   8.827  12.534
66174W        W25435   6.773  11.136  14.813
66175W        W25436   9.320  44.776   1.320
66176W        W25437   4.371  36.446   3.663
66177W        W25438  25.684   9.380  14.506
66178W        W25439   3.922  22.696  10.532
66179W        W25440  20.162   2.278   0.459
66180W        W25441  36.519   0.451  10.132
66181W        W25442  24.540  40.947  14.974
66182W        W25443  12.329  34.610  11.383
66183W        W25444  21.055  26.072  10.559
66184W        W25445   8.787   8.397  14.367
66185W        W25446  26.074  24.573   0.288
66186W        W25447  42.008  28.073  13.409
66187W        W25448  12.815   8.261  10.966
66188W        W25449   8.292  13.294   4.635
66189W        W25450  35.529   2.929  14.955
66190W        W25451  19.235   6.712  10.956
66191W        W25452  15.135   6.919   0.310
66192W        W25453  27.092  30.979  10.569
66193W        W25454  33.948   9.766  13.400
66194W        W25455   5.422   2.402  14.480
66195W        W25456   7.767  24.139  14.860
66196W        W25457  21.096  28.449   5.156
66197W        W25458  15.724  42.811   4.789
66198W        W25459  15.710  40.807   1.390
66199W        W25460  15.609   3.356   2.284
66200W        W25461  40.926  25.022  13.395
66201W        W25462  19.093  19.184  11.977
66202W        W25463  20.034   8.345   0.860
66203W        W25464  41.306  35.504  10.066
66204W        W25465  20.753   8.826  11.877
66205W        W25466  40.365  38.423  11.530
66206W        W25467  43.894  31.612  14.474
66207W        W25468   0.443   6.725   2.301
66208W        W25469  41.038  27.171  10.455
66209W        W25470   6.214  36.069  11.865
66210W        W25471  43.905  27.995   4.320
66211W        W25472  11.758  25.697  10.534
66212W        W25473  21.032   0.975  14.350
66213W        W25474   0.272  38.411  10.520
66214W        W25475  30.636   9.289  13.450
66215W        W25476  13.608  14.192   2.876
66216W        W25477  32.118   3.318  14.992
66217W        W25478  30.616  14.609  12.981
66218W        W25479  15.242  21.700  12.973
66219W        W25480  41.992  40.971   1.413
66220W        W25481  27.651  37.000  13.833
66221W        W25482  35.861  28.619  13.493
66222W        W25483  44.491  40.882  12.970
66223W        W25484   1.286  36.379  12.911
66224W        W25485  19.158  12.259   3.867
66225W        W25486   0.922   2.916   4.754
66226W        W25487  41.845  15.218  10.621
66227W        W25488  44.781  34.556   3.698
66228W        W25489  42.311   2.839  11.867
66229W        W25490   4.390  10.351   2.667
66230W        W25491   7.256  43.861  12.998
66231W        W25492  14.157  17.095  10.006
66232W        W25493  28.449  14.208   1.820
66233W        W25494  35.387  10.692  13.395
66234W        W25495  24.012  28.990  12.354
66235W        W25496  19.085  23.082   3.832
66236W        W25497   9.675   0.317   4.247
66237W        W25498   1.882  12.793   0.380
66238W        W25499  16.124  15.191  10.097
66239W        W25500  19.225  11.731  12.567
66240W        W25501  24.213  17.669   2.199
66241W        W25502  12.271  29.637  11.903
66242W        W25503  15.645  26.129  14.001
66243W        W25504  12.618  13.655  10.943
66244W        W25505  42.374  42.293   0.423
66245W        W25506  20.095  13.845  13.922
66246W        W25507  29.572  39.351   2.796
66247W        W25508  40.466  39.853  14.915
66248W        W25509  12.330  25.206   2.692
66249W        W25510  30.523  17.188  12.462
66250W        W25511  28.054  42.802   5.216
66251W        W25512   2.252  40.383   0.804
66252W        W25513  30.507  39.929  13.449
66253W        W25514  21.018  29.565  14.019
66254W        W25515  14.727  29.442  13.015
66255W        W25516  35.017  39.914  14.836
66256W        W25517  15.272  17.704   1.431
66257W        W25518  19.177  21.639  14.832
66258W        W25519  19.565  25.214  12.075
66259W        W25520  31.086  25.001  10.140
66260W        W25521   9.754  19.070   1.763
66261W        W25522  22.620   9.690  13.803
66262W        W25523  40.501  41.848  13.820
66263W        W25524   4.383  25.047   1.888
66264W        W25525  31.562  27.948   0.962
66265W        W25526   3.284  25.104   2.777
66266W        W25527  39.460  41.337   4.263
66267W        W25528  14.729  36.878  10.534
66268W        W25529  29.443  43.284  10.446
66269W        W25530  37.359  40.507  12.478
66270W        W25531  33.526  23.706  14.477
66271W        W25532  44.284  30.916   3.369
66272W        W25533  21.237  18.223   4.325
66273W        W25534   4.769  33.566   0.369
66274W        W25535  30.592   3.768  11.883
66275W        W25536  41.837  26.537   4.205
66276W        W25537  23.669  28.103   0.434
66277W        W25538  25.032  19.138   4.683
66278W        W25539  42.810  14.625  12.004
66279W        W25540  38.390  25.478  11.990
66280W        W25541   0.926  28.665   3.736
66281W        W25542  11.202  25.685   3.313
66282W        W25543  39.480   1.288  14.865
66283W        W25544   7.336  39.493   3.715
66284W        W25545  22.620  40.503   3.384
66285W        W25546  26.054  29.044   2.886
66286W        W25547  38.850  34.984   0.850
66287W        W25548   6.186  39.000   5.280
66288W        W25549  27.031  17.168  11.040
66289W        W25550   3.851  35.879  14.968
66290W        W25551  41.972  15.762   2.775
66291W        W25552  34.590   6.352  12.389
66292W        W25553  14.650   5.763  10.906
66293W        W25554   6.737  11.719   1.921
66294W        W25555  20.591  34.397   1.819
66295W        W25556  32.575  41.901   2.735
66296W        W25557  22.088  36.361   0.348
66297W        W25558  42.494  16.292   0.812
66298W        W25559  23.560  22.740  13.912
66299W        W25560  29.932  29.560   3.765
66300W        W25561  16.185  14.153  11.070
66301W        W25562  14.310  37.996   3.174
66302W        W25563  19.223   3.422   0.373
66303W        W25564   5.360  43.388  14.277
66304W        W25565  28.663   9.312   4.742
66305W        W25566  11.176  36.015  13.468
66306W        W25567  23.611  12.708  11.917
66307W        W25568  44.886  26.561   1.844
66308W        W25569  35.377   1.396  11.086
66309W        W25570  38.066  22.637   4.610
66310W        W25571  23.097   2.910  13.983
66311W        W25572  22.183  22.639  14.348
66312W        W25573  14.676  13.171  10.895
66313W        W25574  18.578  21.646   3.794
66314W        W25575   0.443  12.203   2.882
66315W        W25576  24.518  18.767  13.877
66316W        W25577   7.170  40.004  12.907
66317W        W25578  13.129  29.119  14.311
66318W        W25579  19.240   4.216  13.973
66319W        W25580  39.860  41.300   3.149
66320W        W25581  40.994  27.005   1.799
66321W        W25582  38.860   5.349   2.740
66322W        W25583  22.085  34.397   2.817
66323W        W25584  14.614  42.386  13.414
66324W        W25585  30.909  36.455   1.788
66325W        W25586   6.786  14.161   3.803
66326W        W25587  38.891  24.611  11.417
66327W        W25588  36.501  40.434  12.408
66328W        W25589  39.465  12.718  11.963
66329W        W25590  42.512  14.126  13.375
66330W        W25591  37.502  43.857  10.972
66331W        W25592  19.119   3.721  14.459
66332W        W25593   5.362  33.987   1.844
66333W        W25594  29.152   8.161  11.038
66334W        W25595  41.967   6.288  13.820
66335W        W25596  16.138   1.389  10.588
66336W        W25597  27.578   6.915   3.799
66337W        W25598  11.738  14.230  14.276
66338W        W25599  44.390  22.674  13.922
66339W        W25600  20.720  36.519  10.999
66340W        W25601  21.140  24.692  13.914
66341W        W25602  24.118  31.148  10.964
66342W        W25603  31.916  43.337   2.753
66343W        W25604  44.307  16.732   2.727
66344W        W25605  37.537  44.502  10.019
66345W        W25606   3.886   6.842   1.366
66346W        W25607  33.950   5.796   4.180
66347W        W25608   6.709  33.385   0.460
66348W        W25609  28.174  29.060  13.524
66349W        W25610   1.466  23.541   0.398
66350W        W25611  15.785  26.643  11.936
66351W        W25612  12.764  41.400  10.509
66352W        W25613  33.486  23.559  13.378
66353W        W25614  32.004  26.167  14.828
66354W        W25615  32.008  10.251  11.984
66355W        W25616   3.399   4.767   0.283
66356W        W25617  19.745   0.477  13.832
66357W        W25618  43.294  44.490  13.329
66358W        W25619  36.858   8.192  12.856
66359W        W25620  19.610  24.115   4.835
66360W        W25621  39.832  27.540  11.554
66361W        W25622  12.180  28.112  11.069
66362W        W25623  10.749  14.676  14.926
66363W        W25624  20.720  43.314  14.907
66364W        W25625   9.212  25.041   2.890
66365W        W25626  10.166   5.221  12.506
66366W        W25627  25.661  19.769  13.059
66367W        W25628  14.216   1.264  14.364
66368W        W25629  12.790  36.404   3.241
66369W        W25630   5.844  25.542   2.667
66370W        W25631  31.131  32.969   0.298
66371W        W25632  41.010  22.090  13.346
66372W        W25633  22.148   5.866   0.912
66373W        W25634  13.334   1.954  13.000
66374W        W25635  12.283  41.963   1.347
66375W        W25636  35.950   5.872   1.253
66376W        W25637  29.627  25.578   3.337
66377W        W25638  15.187  32.129   3.654
66378W        W25639  40.897  20.137   4.819
66379W        W25640  24.107  22.733   4.722
66380W        W25641  19.071  14.672   1.732
66381W        W25642  30.592   6.407   3.700
66382W        W25643  10.696  42.300  13.384
66383W        W25644  39.484  32.137   5.694
66384W        W25645  16.297  21.250  11.539
66385W        W25646  19.559  37.952   1.885
66386W        W25647  23.605  35.453   4.615
66387W        W25648  12.219  30.103   3.151
66388W        W25649  44.808  18.227  14.958
66389W        W25650  37.382  22.691   4.734
66390W        W25651   9.273   6.883  11.066
66391W        W25652  31.994   1.373  10.452
66392W        W25653   2.437  34.401   4.736
66393W        W25654  38.362  44.767  13.866
66394W        W25655   2.922  23.666   3.237
66395W        W25656  26.966  20.126   3.638
66396W        W25657  16.713  12.328  10.582
66397W        W25658  20.186  36.551  13.978
66398W        W25659  40.979  27.977   4.228
66399W        W25660  41.305  41.339  12.025
66400W        W25661  40.036   0.808  13.416
66401W        W25662  14.687  21.558  12.550
66402W        W25663   1.829  44.461   1.319
66403W        W25664  28.627  17.291   2.395
66404W        W25665  40.888  16.225   3.636
66405W        W25666  22.734  36.068   0.895
66406W        W25667  39.816  39.431  11.519
66407W        W25668  36.585  17.736   2.795
66408W        W25669  30.594  13.297   3.871
66409W        W25670   3.867  21.578  11.416
66410W        W25671  22.050  44.282  12.838
66411W        W25672  36.434  41.454   9.959
66412W        W25673  16.110   5.768  14.456
66413W        W25674   1.397  19.723  10.908
66414W        W25675  36.406  27.029   0.947
66415W        W25676   9.280  21.237  11.874
66416W        W25677  16.733   1.285   3.302
66417W        W25678  23.572  15.122  14.959
66418W        W25679  27.162  20.527   0.740
66419W        W25680  21.148  30.064  11.612
66420W        W25681  12.226   2.755  12.520
66421W        W25682  19.589  24.204   1.394
66422W        W25683  25.022  16.075  12.393
66423W        W25684  23.165  22.735   1.318
66424W        W25685   1.794  39.559   0.907
66425W        W25686  36.979  19.753   3.637
66426W        W25687  43.449   2.936  12.833
66427W        W25688  36.409  19.179  14.788
66428W        W25689  19.765  33.125  11.067
66429W        W25690  12.202   3.955   1.449
66430W        W25691  15.160  27.658   4.781
66431W        W25692   6.264  44.278   1.883
66432W        W25693  17.157  30.562  14.032
66433W        W25694   7.203  37.500   4.652
66434W        W25695  11.829  27.529   1.716
66435W        W25696  33.887  24.128   4.611
66436W        W25697  37.948  27.181   4.282
66437W        W25698   6.305  26.542   5.274
66438W        W25699  28.054   4.867  10.588
66439W        W25700   8.258  36.356  12.009
66440W        W25701  26.026  15.633  13.422
66441W        W25702  13.284  41.440   2.820
66442W        W25703  29.544  20.674  12.859
66443W        W25704  38.532  31.431   3.235
66444W        W25705  43.834  25.501  14.866
66445W        W25706  12.158  14.778   3.703
66446W        W25707  11.699  19.649  14.821
66447W        W25708  44.402   7.703   2.353
66448W        W25709  26.493  11.357  10.100
66449W        W25710  30.486   1.394  10.487
66450W        W25711  15.212   1.776  13.049
66451W        W25712  21.668  32.471  13.438
66452W        W25713  27.164   5.405   2.794
66453W        W25714  16.629  18.117   0.252
66454W        W25715  15.689   2.443  13.460
66455W        W25716  26.959  21.165   4.146
66456W        W25717  29.045  12.361  12.557
66457W        W25718  13.123   8.718   4.351
66458W        W25719  38.948  20.752  11.089
66459W        W25720  36.962  13.642  10.518
66460W        W25721  42.817   3.374   1.386
66461W        W25722  26.493  18.291  11.574
66462W        W25723  42.867  25.478   3.342
66463W        W25724   3.723  35.057  10.084
66464W        W25725  37.393   3.289  12.342
66465W        W25726  10.662  34.377  12.466
66466W        W25727   3.834  10.792  11.383
66467W        W25728  27.476  14.325   3.742
66468W        W25729  27.651   1.379  13.454
66469W        W25730  11.807  20.621  12.843
66470W        W25731  33.550   9.243   3.692
66471W        W25732  10.851  27.037  10.615
66472W        W25733  10.803  29.456   0.811
66473W        W25734  38.341  32.566   3.673
66474W        W25735  42.790  32.520  12.428
66475W        W25736  37.930  41.010   1.424
66476W        W25737  25.477  29.166   0.251
66477W        W25738   1.333  26.634  12.872
66478W        W25739  23.202  12.328  12.462
66479W        W25740  41.346  42.435  14.025
66480W        W25741   4.315   9.345  13.907
66481W        W25742  41.509  32.975   2.360
66482W        W25743  36.426  14.680  10.144
66483W        W25744  30.031  24.581   3.635
66484W        W25745  29.440  10.234  14.393
66485W        W25746  15.136  23.675  12.528
66486W        W25747   6.758  36.462   0.450
66487W        W25748   3.946  36.952  13.986
66488W        W25749  35.873   6.906  13.005
66489W        W25750   8.296  32.142   4.670
66490W        W25751  43.909  18.681   3.704
66491W        W25752  38.966  11.662  11.921
66492W        W25753  27.156   7.769   2.688
66493W        W25754  38.855   7.394   2.306
66494W        W25755  32.028  44.456  13.520
66495W        W25756  29.128  24.576   0.968
66496W        W25757  25.027   3.263  12.351
66497W        W25758  35.477  42.988  14.836
66498W        W25759  29.658  40.813   4.142
66499W        W25760   6.756  14.188  12.075
66500W        W25761  10.297  28.079   4.665
66501W        W25762  26.126  17.088  13.045
66502W        W25763  23.506   7.711  11.985
66503W        W25764  28.665  16.295  13.811
66504W        W25765  43.853   8.767  14.014
66505W        W25766   1.288  25.506  11.048
66506W        W25767  10.279   0.398  10.629
66507W        W25768  22.158  18.650  11.472
66508W        W25769  23.653  17.583  14.013
66509W        W25770  33.620   1.404  12.066
66510W        W25771  12.807  31.114   5.170
66511W        W25772  27.595   3.372   0.435
66512W        W25773   9.268   0.329  10.474
66513W        W25774  13.318  20.274   0.758
66514W        W25775  13.133  18.594   5.091
66515W        W25776  44.505   5.295  10.967
66516W        W25777  15.695   4.280  13.431
66517W        W25778  39.018  20.163  12.881
66518W        W25779  13.757  27.512  11.961
66519W        W25780  27.657  34.435  12.516
66520W        W25781  14.741   2.787  14.321
66521W        W25782  12.255  26.972  11.053
66522W        W25783  25.141  40.455  12.562
66523W        W25784   6.224   3.391  13.792
66524W        W25785   3.781  18.678  12.096
66525W        W25786  12.756  15.741  14.975
66526W        W25787  37.452  30.155   3.701
66527W        W25788  10.274  17.118  14.486
66528W        W25789  39.971  26.558  11.129
66529W        W25790  41.966   0.806  11.390
66530W        W25791  32.075  24.718  12.887
66531W        W25792  38.546  27.046   1.731
66532W        W25793   1.766  36.038   0.423
66533W        W25794  25.992   3.232   4.195
66534W        W25795   2.803  21.523  10.510
66535W        W25796  21.252  21.754  12.398
66536W        W25797   7.256  11.281   2.246
66537W        W25798  36.377   2.331   0.428
66538W        W25799  26.642  32.541   0.288
66539W        W25800  12.209  22.030   1.296
66540W        W25801  39.992  34.379  14.420
66541W        W25802  16.595  21.044  11.893
66542W        W25803  28.076   9.386   4.191
66543W        W25804   7.857  10.645  13.499
66544W        W25805   8.296   6.923   3.674
66545W        W25806  11.754  37.408  11.059
66546W        W25807  28.019   3.283   5.208
66547W        W25808  15.798  28.613   2.258
66548W        W25809  20.071  38.971   4.333
66549W        W25810  23.162   2.458   0.373
66550W        W25811  35.583   9.271  13.907
66551W        W25812  34.902   7.832  10.528
66552W        W25813   8.202  22.560   0.852
66553W        W25814  30.552  36.929   0.830
66554W        W25815  17.778  11.297   0.937
66555W        W25816  37.374   8.687  11.450
66556W        W25817   3.780  29.623   1.844
66557W        W25818  38.476  38.888   3.805
66558W        W25819  31.989  17.283  14.911
66559W        W25820  17.172   1.809  13.845
66560W        W25821   0.843   1.318   3.220
66561W        W25822  43.484  26.205  10.961
66562W        W25823  42.321   2.471  10.926
66563W        W25824  44.780  36.044  14.030
66564W        W25825  37.477  42.479  13.994
66565W        W25826  43.410  29.963   4.238
66566W        W25827   0.447  44.803   3.744
66567W        W25828  16.623   3.334   3.658
66568W        W25829   9.702  41.331  10.589
66569W        W25830  31.046  39.887  13.513
66570W        W25831  34.417  12.758   0.825
66571W        W25832  25.602  22.666   4.681
66572W        W25833  20.224  11.664  11.490
66573W        W25834  21.662  10.241   2.289
66574W        W25835  44.928  18.077   1.378
66575W        W25836   0.866  12.218  12.938
66576W        W25837   1.260  40.049   0.303
66577W        W25838  29.022  13.780   3.710
66578W        W25839   8.826  31.105  11.451
66579W        W25840   0.863  32.432  12.360
66580W        W25841  17.111  22.504  11.028
66581W        W25842  33.442  12.189  11.893
66582W        W25843   3.226  43.514   2.234
66583W        W25844   5.785   0.482  11.059
66584W        W25845  15.228   3.432   3.352
66585W        W25846  21.122  21.167   4.762
66586W        W25847  40.867  36.067  12.996
66587W        W25848   7.340  42.882  14.300
66588W        W25849   7.705   5.196   0.827
66589W        W25850  35.084  20.614  11.432
66590W        W25851  33.957  38.862   2.835
66591W        W25852   0.441  14.803   0.963
66592W        W25853  15.292  21.638   1.243
66593W        W25854   6.897  22.022  13.495
66594W        W25855  42.849  24.582  14.004
66595W        W25856   0.785   0.763  13.434
66596W        W25857  36.862  16.297   0.832
66597W        W25858  13.823  16.755  11.378
66598W        W25859   6.762  13.129   4.187
66599W        W25860  38.488  25.112  10.618
66600W        W25861  26.667  43.799   1.772
66601W        W25862   7.330  23.533   2.849
66602W        W25863   6.765  16.218   0.766
66603W        W25864  24.665  10.160   3.719
66604W        W25865  40.526   5.401   1.879
66605W        W25866  15.256  42.509   2.379
66606W        W25867   0.948  22.220   2.235
66607W        W25868   5.756   7.770  13.480
66608W        W25869  39.921   6.253  11.038
66609W        W25870  23.047  35.102   0.436
66610W        W25871  37.498  43.800   3.356
66611W        W25872  23.563   9.834  11.379
66612W        W25873   2.856  15.695  11.866
66613W        W25874  30.141  43.311   1.349
66614W        W25875  10.205  25.609  13.852
66615W        W25876  13.678  30.928   1.781
66616W        W25877  28.931  31.928  12.993
66617W        W25878  10.845  19.563  11.563
66618W        W25879  11.150  22.048   0.739
66619W        W25880   2.368  43.305   1.247
66620W        W25881  44.853   5.373  10.586
66621W        W25882  37.024  44.860   1.697
66622W        W25883  23.595  13.124   4.616
66623W        W25884  33.548  10.253  13.814
66624W        W25885  21.604  39.867   0.814
66625W        W25886  34.087  30.449  13.963
66626W        W25887  15.204   4.296   1.751
66627W        W25888  31.133  23.091   0.806
66628W        W25889  12.728  38.372   3.655
66629W        W25890  12.310   6.707  13.423
66630W        W25891  19.177  38.867  12.472
66631W        W25892  26.109  20.183  13.008
66632W        W25893  18.618  44.409   2.183
66633W        W25894  17.193  35.875   2.385
66634W        W25895  30.481  11.154   1.853
66635W        W25896  30.421  13.727  13.943
66636W        W25897  31.602  20.527   3.186
66637W        W25898  19.771   8.862   2.392
66638W        W25899  33.564  11.646  14.330
66639W        W25900  11.736  41.852   4.260
66640W        W25901   2.397  14.657   1.383
66641W        W25902  42.301  40.002   1.399
66642W        W25903  30.972  35.897   5.734
66643W        W25904  20.241  39.458  11.604
66644W        W25905   2.903  42.917  13.845
66645W        W25906  37.482  36.468  14.973
66646W        W25907  38.571  41.519  14.955
66647W        W25908  37.038  36.450   1.417
66648W        W25909  11.752  15.822  13.483
66649W        W25910  25.559  11.293   3.656
66650W        W25911  43.806  25.588  14.486
66651W        W25912   5.841  15.610   0.967
66652W        W25913  35.882  29.614   1.272
66653W        W25914  38.922  17.707   0.848
66654W        W25915  12.688  24.613  11.567
66655W        W25916  33.069  34.461   0.276
66656W        W25917  22.105  32.568   4.705
66657W        W25918  13.659   6.194   3.351
66658W        W25919  23.726  43.927   0.385
66659W        W25920   7.226  26.638   1.330
66660W        W25921  22.659  27.672  12.849
66661W        W25922   3.872  29.019  11.914
66662W        W25923   1.480  31.595  14.315
66663W        W25924  34.605  30.636  13.831
66664W        W25925   5.310  27.071  10.534
66665W        W25926  40.045  31.511   2.807
66666W        W25927  30.140  17.279   0.366
66667W        W25928   0.250  21.675  12.840
66668W        W25929   7.276  11.664   2.266
66669W        W25930  32.482   8.324  13.535
66670W        W25931   2.773  26.463  11.592
66671W        W25932  21.103  39.922   1.846
66672W        W25933   6.700  36.951  12.346
66673W        W25934  30.047  33.497  14.836
66674W        W25935  13.257  22.998   2.357
66675W        W25936  16.631   0.295   0.935
66676W        W25937  14.249   5.929  11.464
66677W        W25938   1.892   5.771  12.539
66678W        W25939   5.346  15.596  12.570
66679W        W25940  15.326  44.393  11.609
66680W        W25941  14.197  20.687  14.940
66681W        W25942   9.890  32.432  11.505
66682W        W25943   6.189  18.207  11.461
66683W        W25944   6.836  20.705   1.808
66684W        W25945   5.904   0.341   2.272
66685W        W25946  17.710  22.565   2.771
66686W        W25947  34.944  34.530  13.312
66687W        W25948  38.844  30.574   4.815
66688W        W25949  30.036   4.905  13.456
66689W        W25950   9.323   6.856  12.577
66690W        W25951  25.611  20.096  14.820
66691W        W25952  43.971  13.662   2.230
66692W        W25953   3.870  27.499  12.901
66693W        W25954   2.915  39.435  13.870
66694W        W25955  26.083  38.830  11.979
66695W        W25956  29.155  22.663   3.868
66696W        W25957   9.274  22.504   0.933
66697W        W25958   3.374  30.659  13.368
66698W        W25959  21.088   2.927  14.355
66699W        W25960  34.005  42.481   1.418
66700W        W25961  24.621  10.286  10.521
66701W        W25962   1.892  36.526  10.936
66702W        W25963   9.786  26.961   4.171
66703W        W25964   0.411  37.556   2.359
66704W        W25965  42.006  32.544  14.796
66705W        W25966  26.497  24.489  10.059
66706W        W25967  33.980  10.666   5.240
66707W        W25968  43.394  15.131  11.111
66708W        W25969  30.100  29.084   0.830
66709W        W25970  20.763   4.773   0.849
66710W        W25971  42.515  11.814   4.256
66711W        W25972   6.902   3.820  12.947
66712W        W25973  17.592  42.929   3.212
66713W        W25974  32.577  26.526   1.404
66714W        W25975   6.205  40.916  11.015
66715W        W25976  16.079   2.791   9.983
66716W        W25977  37.081   9.392  14.485
66717W        W25978   2.771   3.226  13.366
66718W        W25979  11.776  29.935  10.541
66719W        W25980  13.150  37.535   2.662
66720W        W25981   2.778   3.248  14.830
66721W        W25982  23.619  11.834   2.706
66722W        W25983  21.198  25.641  13.483
66723W        W25984  41.789  21.054  11.965
66724W        W25985  14.169  28.541  10.110
66725W        W25986  24.579  23.491   9.933
66726W        W25987  42.419   2.304   3.303
66727W        W25988  19.176  36.547   3.809
66728W        W25989  27.617   4.875   2.183
66729W        W25990   5.930   8.851   3.314
66730W        W25991   3.442  23.636   0.331
66731W        W25992  30.059  38.352   3.324
66732W        W25993  28.630  34.398   5.279
66733W        W25994  41.036  12.121  13.481
66734W        W25995   5.786  37.384   0.913
66735W        W25996   2.773   1.907  12.012
66736W        W25997  30.613  31.066  10.564
66737W        W25998  37.083  26.047  11.561
66738W        W25999  28.010  43.882  13.383
66739W        W26000  11.174  17.121  12.391
66740W        W26001  24.677  13.281  14.503
66741W        W26002  29.626  39.343  13.995
66742W        W26003  22.207  18.669   9.505
66743W        W26004  24.216  41.304   2.701
66744W        W26005  22.712  38.871  13.855
66745W        W26006  30.978  11.624   1.774
66746W        W26007  30.066  20.129  13.360
66747W        W26008  16.747   8.861   0.786
66748W        W26009  28.945  27.025   3.687
66749W        W26010  10.367   7.199  12.043
66750W        W26011  29.048  10.818  13.806
66751W        W26012  19.074  39.965   1.283
66752W        W26013  21.642  13.287   1.346
66753W        W26014   7.787   7.308   1.746
66754W        W26015  11.323   1.809   0.272
66755W        W26016   9.657  13.623  13.936
66756W        W26017  24.509   1.244   4.154
66757W        W26018   4.444  40.852  11.063
66758W        W26019  40.890  22.663   4.161
66759W        W26020  14.224   0.946  13.991
66760W        W26021  12.148   8.758   4.177
66761W        W26022  20.570   4.740   1.408
66762W        W26023  10.231   2.232  13.867
66763W        W26024  27.596   7.290  11.007
66764W        W26025  20.724  24.509   1.829
66765W        W26026  44.927  40.848   0.829
66766W        W26027  29.163  34.509   1.308
66767W        W26028  14.111  43.486  13.311
66768W        W26029  34.581  40.504   2.316
66769W        W26030  38.863  30.487   9.941
66770W        W26031  23.553  27.111   1.874
66771W        W26032  42.283  42.495  10.968
66772W        W26033  31.432   8.666   9.595
66773W        W26034  33.563  31.593   4.672
66774W        W26035  40.428  10.319   0.824
66775W        W26036  20.566  22.594  14.930
66776W        W26037   4.341   7.403  13.058
66777W        W26038   6.834  36.508   3.809
66778W        W26039  31.117  44.393   1.694
66779W        W26040  26.537  25.531   4.693
66780W        W26041  13.123  28.457   1.791
66781W        W26042  19.731  32.489  11.976
66782W        W26043  36.590  21.539   4.684
66783W        W26044  17.166  25.216  12.499
66784W        W26045  24.663  36.514   1.906
66785W        W26046  25.635  27.186  13.027
66786W        W26047  16.301  40.916  13.868
66787W        W26048  43.397  15.609   4.151
66788W        W26049  14.683  38.935   0.474
66789W        W26050  32.978  10.274   0.965
66790W        W26051   8.348  41.392   3.758
66791W        W26052  33.504  20.755  14.418
66792W        W26053  37.896  30.468  14.348
66793W        W26054  40.472  22.143  10.526
66794W        W26055  39.907  27.572   1.921
66795W        W26056  31.942  27.501   1.826
66796W        W26057  16.315  32.404   2.410
66797W        W26058  32.093  11.262   3.294
66798W        W26059  26.592  26.176   3.267
66799W        W26060  18.641  26.181  12.929
66800W        W26061  17.685  30.007   4.288
66801W        W26062  35.360  25.700  14.408
66802W        W26063  10.702  44.280  10.594
66803W        W26064  11.140  16.813   2.180
66804W        W26065  16.647   1.457   3.803
66805W        W26066  38.000  25.472  12.568
66806W        W26067  28.628  20.154   3.314
66807W        W26068   2.411  25.535  13.887
66808W        W26069  16.085  12.247   3.246
66809W        W26070  32.098  40.809   0.758
66810W        W26071  22.072   2.258  14.927
66811W        W26072   2.390  12.221  11.499
66812W        W26073  42.296   5.359   1.897
66813W        W26074  14.322  11.743  14.895
66814W        W26075   2.826  11.750  12.909
66815W        W26076  30.481  17.728   0.852
66816W        W26077  36.567  22.546   1.302
66817W        W26078   7.313  17.624   4.259
66818W        W26079   3.425   3.803  12.081
66819W        W26080  36.470  32.890   4.195
66820W        W26081  16.121  11.346   2.298
66821W        W26082  40.892   5.879   4.672
66822W        W26083  25.697   4.777   2.390
66823W        W26084  42.810  34.571  13.950
66824W        W26085  37.925  22.571   2.667
66825W        W26086  15.813  43.469   2.814
66826W        W26087   7.668  35.005  13.373
66827W        W26088   7.172  16.740   0.435
66828W        W26089  28.506  16.129   0.260
66829W        W26090  38.437  36.070  14.453
66830W        W26091  10.686  10.829   1.442
66831W        W26092  14.297   4.740   5.107
66832W        W26093  29.474   2.759  12.064
66833W        W26094  42.029  41.983   3.166
66834W        W26095  38.428  17.576  11.016
66835W        W26096   0.463  35.084  14.432
66836W        W26097  14.625   8.320   4.181
66837W        W26098  19.108  38.938  14.355
66838W        W26099   5.912  11.836   3.236
66839W        W26100  10.763   5.247   0.790
66840W        W26101  36.501  22.716   2.805
66841W        W26102  19.087  28.063  14.960
66842W        W26103  38.823  22.148  11.575
66843W        W26104  23.212  14.770  12.377
66844W        W26105  19.574   7.767   3.633
66845W        W26106  43.800  22.606  11.485
66846W        W26107   4.729  17.256  10.983
66847W        W26108   0.843  34.000  10.471
66848W        W26109  28.611   4.323  12.061
66849W        W26110  19.726  11.250  13.963
66850W        W26111  37.980  29.569   4.269
66851W        W26112  29.039   8.740  11.493
66852W        W26113  44.961  35.409  10.456
66853W        W26114  25.003   0.459  14.877
66854W        W26115  18.612  17.632   5.252
66855W        W26116  26.660  14.625  11.861
66856W        W26117  20.705  27.192   3.344
66857W        W26118   7.324  14.774   2.201
66858W        W26119  27.622  28.934   3.297
66859W        W26120   8.723   4.327   3.300
66860W        W26121   5.291  42.848  12.047
66861W        W26122  32.624  38.438   4.829
66862W        W26123   4.427  30.635   1.435
66863W        W26124  14.755  16.806  14.890
66864W        W26125  19.586  30.627  13.000
66865W        W26126  31.515  18.608  10.552
66866W        W26127  40.454  12.724   3.775
66867W        W26128  28.594  36.911   3.697
66868W        W26129  25.037   1.951  14.791
66869W        W26130  10.167  17.153   4.231
66870W        W26131  41.851   4.854  14.978
66871W        W26132  10.235  36.860   2.869
66872W        W26133  36.928  41.027   2.206
66873W        W26134  39.914   5.900  14.398
66874W        W26135   0.806  32.020   2.897
66875W        W26136   6.349  40.506   5.176
66876W        W26137  43.332  35.564   2.377
66877W        W26138  15.667   0.983  11.120
66878W        W26139  43.447  18.777   4.635
66879W        W26140  44.884  10.348  14.814
66880W        W26141  32.507   5.884  13.479
66881W        W26142   3.399  42.941  12.050
66882W        W26143  19.153   4.706   1.829
66883W        W26144  39.322  19.091  13.817
66884W        W26145  37.918  18.174  11.934
66885W        W26146  24.034  17.296  12.943
66886W        W26147  37.534   9.380   1.371
66887W        W26148  23.242   6.288  12.369
66888W        W26149  40.490  42.492   4.149
66889W        W26150  26.102  27.068  13.984
66890W        W26151  23.064  40.802   0.251
66891W        W26152  25.621  40.962   0.387
66892W        W26153  19.709  17.236   3.200
66893W        W26154  41.974  44.381  14.819
66894W        W26155  35.421  32.020   4.117
66895W        W26156  38.466  16.598   0.429
66896W        W26157  21.178  29.524   3.737
66897W        W26158  37.500  37.080  12.349
66898W        W26159  12.669  23.049   0.272
66899W        W26160   3.239  20.655  14.798
66900W        W26161   4.212  43.828  11.465
66901W        W26162   4.794  28.439  13.522
66902W        W26163  21.532  39.338  13.853
66903W        W26164  29.982  37.374   4.202
66904W        W26165  30.592   7.195   3.802
66905W        W26166  30.656  18.779  14.804
66906W        W26167  38.499  32.492  13.532
66907W        W26168   7.403   2.868  12.571
66908W        W26169  11.846  10.241  14.980
66909W        W26170  27.972  43.377   1.714
66910W        W26171  32.056   2.857   0.273
66911W        W26172  18.209  10.312   0.273
66912W        W26173  17.559  38.019  14.779
66913W        W26174  33.399  34.022  10.095
66914W        W26175  35.885  36.952  13.307
66915W        W26176  23.050  37.351   2.662
66916W        W26177  31.460  23.180  13.060
66917W        W26178  21.089  34.432  14.879
66918W        W26179  19.119  29.163   0.409
66919W        W26180  40.832  32.056  11.939
66920W        W26181  42.954  28.050  12.944
66921W        W26182  44.381  24.708   0.779
66922W        W26183  20.621   3.235   3.338
66923W        W26184  10.778   7.284   1.796
66924W        W26185  13.182  44.887  11.580
66925W        W26186  19.045  34.424   1.859
66926W        W26187   5.729   2.795  12.949
66927W        W26188  15.194  38.451   3.377
66928W        W26189  16.607  29.059  10.636
66929W        W26190  35.044  24.993  14.373
66930W        W26191  15.637  20.191  14.434
66931W        W26192   7.695  30.094   4.828
66932W        W26193   6.739  38.878   0.901
66933W        W26194  20.101  10.199  11.991
66934W        W26195  41.917  28.059   3.644
66935W        W26196  39.363  30.936  11.611
66936W        W26197  20.676  19.182   3.675
66937W        W26198   6.355  31.641  11.946
66938W        W26199  34.433  14.139   2.231
66939W        W26200  40.015  24.147   2.312
66940W        W26201  22.242  33.381   1.415
66941W        W26202   9.647   8.816   0.774
66942W        W26203  32.942  38.456  10.098
66943W        W26204   0.373  35.593  12.928
66944W        W26205  15.206  24.094   3.671
66945W        W26206   6.709  34.605   2.678
66946W        W26207  36.481   2.828  12.393
66947W        W26208  36.495   1.347   0.834
66948W        W26209  32.513  13.683   9.583
66949W        W26210   1.371  38.822   3.370
66950W        W26211  10.833  29.134   2.275
66951W        W26212   8.735  38.959  12.523
66952W        W26213  15.252   1.433  14.818
66953W        W26214  36.511  27.112   1.854
66954W        W26215  14.328  25.586  14.936
66955W        W26216  28.672  35.058  12.920
66956W        W26217  40.518  20.713  12.477
66957W        W26218  15.176  31.052   1.353
66958W        W26219  18.780  33.560   1.373
66959W        W26220   5.918   9.246  12.956
66960W        W26221  10.203  17.751  14.341
66961W        W26222   4.901   5.222   0.369
66962W        W26223  27.066  20.653   2.832
66963W        W26224  21.696  32.537   2.795
66964W        W26225  33.615  34.072  14.432
66965W        W26226  43.997  15.126   3.799
66966W        W26227  13.126  41.358  11.991
66967W        W26228  12.272  12.767   3.353
66968W        W26229  17.574  26.972   0.452
66969W        W26230  20.680  19.115   0.743
66970W        W26231  44.347  18.566  11.606
66971W        W26232  36.015   3.899   4.207
66972W        W26233  13.161  14.163   1.451
66973W        W26234   0.251   4.910   2.772
66974W        W26235  19.592   5.318   1.721
66975W        W26236  16.301  22.036   3.174
66976W        W26237   8.312   8.658  12.381
66977W        W26238  42.398  37.949   4.620
66978W        W26239  16.715  13.608  10.641
66979W        W26240  34.043  37.413  11.507
66980W        W26241  34.110  16.725  11.573
66981W        W26242  28.509   4.413  12.996
66982W        W26243   0.491  26.633   2.400
66983W        W26244  23.021  20.212   1.251
66984W        W26245  20.688  18.683   4.179
66985W        W26246  20.140  41.008   2.207
66986W        W26247   0.492  23.072   4.285
66987W        W26248  43.387  32.065   3.299
66988W        W26249  21.251   4.404  11.495
66989W        W26250  23.547  12.134   2.727
66990W        W26251  13.185  16.138  14.816
66991W        W26252   2.446  40.396   2.897
66992W        W26253   8.757  35.493  14.032
66993W        W26254   5.264  16.695  12.976
66994W        W26255   5.378   7.223  11.420
66995W        W26256  30.591  11.842  13.014
66996W        W26257  34.511  19.170  11.513
66997W        W26258  17.671  44.816  10.943
66998W        W26259  38.373  34.054   2.850
66999W        W26260  17.758  23.030   4.247
67000W        W26261  38.917  20.535   0.878
67001W        W26262  36.992  42.506  10.915
67002W        W26263   4.933  19.645  10.573
67003W        W26264  29.990  40.403  10.528
67004W        W26265  40.815  13.263   0.831
67005W        W26266   0.816  31.533   2.841
67006W        W26267  41.008  25.548   4.641
67007W        W26268  18.662  44.841  14.439
67008W        W26269  35.571   7.410   4.182
67009W        W26270   3.804  16.619  11.108
67010W        W26271  12.303  18.238  12.378
67011W        W26272  26.103  36.952   1.713
67012W        W26273  18.631  21.261  11.921
67013W        W26274  39.558  44.954  13.453
67014W        W26275  40.370  37.015   2.331
67015W        W26276  33.480  40.805   1.342
67016W        W26277  44.437   3.300  11.565
67017W        W26278  13.295  22.240  11.071
67018W        W26279  15.715  33.045  12.517
67019W        W26280   2.355  16.747  12.075
67020W        W26281  42.491  19.737  14.834
67021W        W26282  37.074   2.808   1.274
67022W        W26283  22.636  32.909   4.709
67023W        W26284  35.085   1.731   3.667
67024W        W26285   1.732  30.969  11.052
67025W        W26286   0.902  28.107   0.875
67026W        W26287  28.681  12.177   4.304
67027W        W26288  30.152  34.009  13.952
67028W        W26289  22.123  33.504  11.606
67029W        W26290   0.867  38.432  14.770
67030W        W26291  31.525   1.963  10.460
67031W        W26292  29.158  28.080   1.362
67032W        W26293   8.901   6.880  14.452
67033W        W26294  15.742  10.853   4.207
67034W        W26295  36.972  28.978  10.955
67035W        W26296  28.558  19.769   2.821
67036W        W26297   3.867  18.092   3.792
67037W        W26298  12.696   7.234   3.382
67038W        W26299  36.492  43.419  13.897
67039W        W26300  39.025  29.016  14.826
67040W        W26301  42.909  39.998  12.079
67041W        W26302  14.287  31.505  11.503
67042W        W26303   4.236   2.936  13.981
67043W        W26304  38.958  20.100   3.685
67044W        W26305  11.664   1.931  12.410
67045W        W26306   8.161  21.633   4.232
67046W        W26307  35.911  18.083  13.826
67047W        W26308  38.488   8.216   4.788
67048W        W26309   4.742   8.680  14.482
67049W        W26310  35.567  11.766   2.874
67050W        W26311  20.093  36.097  11.609
67051W        W26312  17.090  20.271  12.435
67052W        W26313  23.080  32.433   1.308
67053W        W26314  33.123  16.682   4.346
67054W        W26315  14.186  25.208  14.340
67055W        W26316  25.009  15.184  10.899
67056W        W26317  18.763  30.500   0.284
67057W        W26318  29.439   6.907   0.758
67058W        W26319   1.275  30.142   1.716
67059W        W26320  18.179  13.139   4.235
67060W        W26321  21.109  13.131   4.338
67061W        W26322  18.220  41.470  12.454
67062W        W26323   2.239  42.453   0.306
67063W        W26324   2.869  38.339  11.993
67064W        W26325   7.692   3.401   1.866
67065W        W26326  43.488   7.317  11.985
67066W        W26327  41.014  27.970  10.977
67067W        W26328  29.134  12.674  12.874
67068W        W26329  25.519   3.950  13.353
67069W        W26330  28.542  23.569  12.480
67070W        W26331  16.727  33.403   3.675
67071W        W26332   1.241  34.480  11.397
67072W        W26333   9.150  42.889  11.424
67073W        W26334  11.294  31.105  12.879
67074W        W26335  25.110   5.800   3.800
67075W        W26336   2.896   9.780   3.859
67076W        W26337  26.596   8.692  14.887
67077W        W26338  15.671   4.895  11.472
67078W        W26339  16.801  26.675  14.303
67079W        W26340  44.406   8.709  13.504
67080W        W26341   2.419  23.179   0.792
67081W        W26342  12.225  10.309   0.474
67082W        W26343   3.272  44.763   3.278
67083W        W26344  39.006  26.020   4.204
67084W        W26345  20.160  30.431   4.777
67085W        W26346   2.228   0.470  11.893
67086W        W26347  30.541  20.608  10.507
67087W        W26348  41.864   0.962  11.101
67088W        W26349  41.337  11.646  10.939
67089W        W26350  36.887   5.911  10.412
67090W        W26351  26.680  31.973  11.984
67091W        W26352   7.220  41.962  12.460
67092W        W26353  23.602  28.475   2.409
67093W        W26354  38.412  17.286  10.957
67094W        W26355  22.716  30.576  13.829
67095W        W26356  37.551  29.439   2.673
67096W        W26357   0.378  36.402  14.871
67097W        W26358  10.735   6.705   2.240
67098W        W26359  37.946  17.557  10.506
67099W        W26360  33.424  38.377  13.986
67100W        W26361  40.514  33.500  11.427
67101W        W26362  15.085  24.628  12.931
67102W        W26363  43.309  29.139  10.570
67103W        W26364  32.428  32.043   4.175
67104W        W26365   4.238  19.048  12.077
67105W        W26366  39.347   8.817   4.333
67106W        W26367   7.769  13.239  14.002
67107W        W26368  25.212  27.625   3.211
67108W        W26369  31.902  27.120   3.862
67109W        W26370   1.415   5.728  14.816
67110W        W26371  22.717  12.763  10.536
67111W        W26372   9.157  42.509   2.822
67112W        W26373   9.671  25.628  14.763
67113W        W26374  17.295  36.074  10.926
67114W        W26375  16.308   2.402  11.564
67115W        W26376  44.910  37.054  11.944
67116W        W26377  38.436   8.224   4.197
67117W        W26378  41.458  17.661   1.313
67118W        W26379   0.413  25.576  11.376
67119W        W26380  11.712  43.818  10.897
67120W        W26381   4.881  12.297  12.397
67121W        W26382  33.532  37.072   2.666
67122W        W26383  34.030   4.373   4.239
67123W        W26384  38.345   8.268   0.915
67124W        W26385  38.355  38.435  13.877
67125W        W26386  35.426  28.650   1.780
67126W        W26387  24.495  10.749   4.643
67127W        W26388  36.973   7.681  14.480
67128W        W26389  18.765  21.062  10.149
67129W        W26390  11.698  43.944  12.085
67130W        W26391  17.298   0.769   1.720
67131W        W26392   7.881  17.775   3.367
67132W        W26393  32.424  17.566  11.938
67133W        W26394  36.546  32.635   2.271
67134W        W26395   0.291   0.813  10.458
67135W        W26396  10.866  21.187  13.976
67136W        W26397  20.603  35.582   1.416
67137W        W26398  35.422  15.294  12.841
67138W        W26399  11.267  17.652   3.340
67139W        W26400  20.248  32.087  13.962
67140W        W26401  16.599  40.992  11.041
67141W        W26402   4.935  40.823   4.229
67142W        W26403  40.869  21.589   4.246
67143W        W26404  23.023  22.016   5.143
67144W        W26405  12.275  43.937   3.234
67145W        W26406  18.641   0.345  12.039
67146W        W26407  44.837  44.927  14.349
67147W        W26408  33.451  32.572  10.539
67148W        W26409  25.077   1.274  13.042
67149W        W26410  29.654  23.662   3.384
67150W        W26411  25.514  12.826   9.991
67151W        W26412   2.269  40.461   1.398
67152W        W26413  17.762  26.194   3.727
67153W        W26414  38.077   9.224  10.935
67154W        W26415  10.863  17.283  11.959
67155W        W26416   7.292  36.053   0.349
67156W        W26417  42.355  24.674  11.589
67157W        W26418  28.067  33.502  13.811
67158W        W26419   3.909  23.033  10.611
67159W        W26420  26.172  18.127  13.798
67160W        W26421  35.412  38.049  14.773
67161W        W26422  25.686  42.466   2.343
67162W        W26423  32.489  18.707  10.625
67163W        W26424  31.005  20.076  10.475
67164W        W26425  18.651  41.810   5.094
67165W        W26426   6.351  17.616  11.527
67166W        W26427  35.475  33.454   2.693
67167W        W26428  34.552  29.944  13.023
67168W        W26429   2.390  32.520   4.760
67169W        W26430  44.463  43.804   4.738
67170W        W26431  40.461  10.382   5.115
67171W        W26432  27.482   7.693  11.500
67172W        W26433  25.208  10.369   3.736
67173W        W26434   3.440  12.275  11.874
67174W        W26435  22.713  29.075   2.776
67175W        W26436   4.426   9.851  12.426
67176W        W26437  24.198  39.912   0.793
67177W        W26438  27.067  26.059  12.004
67178W        W26439   6.891  21.577   0.402
67179W        W26440  13.645  20.534   2.296
67180W        W26441  44.379  11.866   2.266
67181W        W26442  32.958  24.044   2.837
67182W        W26443  39.809  12.116  10.543
67183W        W26444  20.640  13.344  14.930
67184W        W26445  16.643  18.174   1.381
67185W        W26446   8.702  35.596  14.909
67186W        W26447   4.210  12.729   1.931
67187W        W26448  19.659  38.484  11.482
67188W        W26449   1.450   5.363   4.284
67189W        W26450  32.129   9.349  14.937
67190W        W26451  27.590  32.936  10.457
67191W        W26452  27.096   4.445   4.159
67192W        W26453   2.865   5.738   4.320
67193W        W26454   1.748  39.994   2.815
67194W        W26455  13.267  21.079   1.851
67195W        W26456  27.085  25.013   4.227
67196W        W26457  32.022  25.526  11.030
67197W        W26458   3.255   1.973   1.832
67198W        W26459  21.126  33.473  12.834
67199W        W26460  25.145  29.157  10.996
67200W        W26461  19.631  38.821   5.120
67201W        W26462  34.921  12.341   0.290
67202W        W26463  16.629  27.129  11.870
67203W        W26464   4.371   7.910   3.185
67204W        W26465  12.122  36.028   2.370
67205W        W26466   6.241  20.755  13.457
67206W        W26467  28.507   1.889  11.868
67207W        W26468  40.034  33.093   1.379
67208W        W26469  22.190  32.539  14.360
67209W        W26470  40.995  44.923   4.176
67210W        W26471  38.832   4.833   4.279
67211W        W26472   4.276   1.322   0.402
67212W        W26473  27.636  28.006   2.258
67213W        W26474  23.545   5.380   3.149
67214W        W26475   7.259  34.502   3.666
67215W        W26476  23.190  30.912   4.232
67216W        W26477  22.065   1.336  14.031
67217W        W26478  27.524  37.991  11.856
67218W        W26479  29.460  16.299   1.903
67219W        W26480  34.031  14.646   0.736
67220W        W26481  40.953  13.265   1.420
67221W        W26482  27.614  38.018   4.288
67222W        W26483   9.870  23.066   3.175
67223W        W26484   4.769  36.383  12.363
67224W        W26485  22.546  16.169   3.159
67225W        W26486  12.634  36.974   3.315
67226W        W26487  34.567  41.808  10.032
67227W        W26488  30.475  40.368   3.373
67228W        W26489  13.135   1.821  12.056
67229W        W26490  15.189   6.919  13.485
67230W        W26491  17.800  19.106   9.505
67231W        W26492  27.158   2.416   1.280
67232W        W26493  13.789  25.962  13.317
67233W        W26494  19.773  34.402  11.500
67234W        W26495   5.846  10.845   1.289
67235W        W26496  23.686  35.098  14.297
67236W        W26497  11.651  27.507  14.447
67237W        W26498   6.399  29.155   4.667
67238W        W26499  33.605  10.764   1.771
67239W        W26500   2.760  35.375   4.740
67240W        W26501  11.319  19.574   3.306
67241W        W26502  12.618   7.357   2.815
67242W        W26503  35.038  18.722  11.460
67243W        W26504  10.679  18.738   4.122
67244W        W26505  33.422  34.956  13.973
67245W        W26506   4.432  25.212  14.766
67246W        W26507  28.502  19.260   0.866
67247W        W26508  34.981  33.050  14.375
67248W        W26509   1.733  12.328   2.834
67249W        W26510  40.480  29.638  10.954
67250W        W26511  11.835  39.006  14.455
67251W        W26512  17.714  42.482  12.554
67252W        W26513  19.240  15.190   0.464
67253W        W26514  20.763  20.654   3.757
67254W        W26515   7.797   1.273   2.725
67255W        W26516   7.783   8.661   2.242
67256W        W26517  37.074  16.202  14.915
67257W        W26518  25.634  37.380  11.037
67258W        W26519  19.661   9.152  10.533
67259W        W26520  17.565  17.728  12.479
67260W        W26521   9.227  25.509   0.787
67261W        W26522  19.731  20.622  13.966
67262W        W26523   5.436  27.020   3.308
67263W        W26524  24.533  36.368   3.635
67264W        W26525  24.530  27.030  11.593
67265W        W26526  11.820  10.682  11.589
67266W        W26527  16.177   5.871   2.247
67267W        W26528  18.733   1.738   2.328
67268W        W26529  27.534   1.863   3.829
67269W        W26530  34.485   1.240   3.816
67270W        W26531  10.378   9.877  13.347
67271W        W26532  11.360   2.312  13.485
67272W        W26533  14.826  22.539  13.036
67273W        W26534  31.149  13.300  12.449
67274W        W26535  31.899   7.844   3.780
67275W        W26536  14.282   5.836  13.478
67276W        W26537  24.201  43.993   2.857
67277W        W26538  24.720  28.025  12.414
67278W        W26539  39.951   5.696  13.033
67279W        W26540  12.821   1.891   2.207
67280W        W26541  31.982  22.687  14.362
67281W        W26542  32.948  27.044   4.677
67282W        W26543  44.819   5.697   1.778
67283W        W26544  20.249  18.603   2.679
67284W        W26545  14.777  36.582   2.405
67285W        W26546  23.644   0.296   0.408
67286W        W26547   4.885  32.532  13.386
67287W        W26548  11.259   4.424   2.362
67288W        W26549  28.453  35.396  10.438
67289W        W26550  17.790  16.694  11.378
67290W        W26551   5.366  28.542  11.101
67291W        W26552  18.074   7.395  10.471
67292W        W26553  38.944  13.641   3.283
67293W        W26554   4.702  29.130   0.854
67294W        W26555  43.507  27.582   2.803
67295W        W26556   8.723   8.716  10.932
67296W        W26557  23.728  32.392   1.373
67297W        W26558  21.147  16.788   3.744
67298W        W26559  42.380  11.654  10.523
67299W        W26560   9.156  20.758   0.262
67300W        W26561  30.033  30.032   1.237
67301W        W26562   4.210   1.459   2.314
67302W        W26563  14.679  22.666  14.298
67303W        W26564  35.371  36.081   0.881
67304W        W26565  43.468  22.081  14.987
67305W        W26566  22.210   5.875   4.198
67306W        W26567  21.538  31.128  10.471
67307W        W26568   4.919  27.091   3.348
67308W        W26569  14.805  23.219   2.184
67309W        W26570  25.514   1.799   0.962
67310W        W26571  36.098  38.528   0.271
67311W        W26572  32.130   4.376  10.910
67312W        W26573  22.583  13.333   0.286
67313W        W26574  32.059  32.524   2.665
67314W        W26575  13.712  40.944  11.960
67315W        W26576  38.966  22.079   4.163
67316W        W26577  25.622  40.323  10.052
67317W        W26578  30.595  19.071  11.417
67318W        W26579  44.372  13.299  13.898
67319W        W26580  37.002  29.968  13.943
67320W        W26581  10.643  17.106  10.072
67321W        W26582  16.080  13.743   0.370
67322W        W26583  23.543  18.266   4.340
67323W        W26584  28.104   4.873   9.962
67324W        W26585  32.948   2.352  13.311
67325W        W26586   8.793   6.251  10.610
67326W        W26587   2.449  21.644  12.823
67327W        W26588  25.165  14.115   1.361
67328W        W26589  39.897  36.440  12.575
67329W        W26590  10.657   2.257   9.923
67330W        W26591  13.214   8.867  10.970
67331W        W26592  43.312  30.042   3.352
67332W        W26593  40.464  19.104  11.431
67333W        W26594  42.917  27.023   3.667
67334W        W26595  39.870  42.892  10.510
67335W        W26596  29.590  38.856   5.293
67336W        W26597   7.898  41.983   1.922
67337W        W26598  43.944   1.972   3.707
67338W        W26599  14.301  40.482   4.315
67339W        W26600   5.787  44.888  11.969
67340W        W26601  31.124  15.817  12.548
67341W        W26602  18.049  23.516  11.985
67342W        W26603   1.287   2.882  13.344
67343W        W26604  22.243  42.355   1.835
67344W        W26605  40.020  24.717  13.948
67345W        W26606  11.277  34.963  12.996
67346W        W26607  28.027  13.304   2.410
67347W        W26608  15.607  42.010   2.206
67348W        W26609   4.862  27.961  10.625
67349W        W26610  44.266  32.006   0.932
67350W        W26611  10.226   0.783   4.342
67351W        W26612  29.954  19.719  14.314
67352W        W26613  36.475   2.892   4.729
67353W        W26614  27.661  34.030   0.464
67354W        W26615   1.315  31.959  13.809
67355W        W26616   6.796  22.633   3.346
67356W        W26617   4.736  38.937  12.892
67357W        W26618  25.486   4.322  13.475
67358W        W26619  29.018  40.354   0.766
67359W        W26620  12.695  39.908  14.428
67360W        W26621   4.271  35.048  14.970
67361W        W26622  33.927   0.923  13.819
67362W        W26623  30.107  14.164   9.531
67363W        W26624  25.211  24.579  13.382
67364W        W26625  15.703  39.828   2.816
67365W        W26626  42.946   3.793   4.310
67366W        W26627  17.178  11.848   5.249
67367W        W26628  13.794  44.328   1.758
67368W        W26629  25.986  29.125   1.851
67369W        W26630  19.754   1.244  14.879
67370W        W26631  28.597  15.327   4.723
67371W        W26632   4.784  26.165   9.951
67372W        W26633   1.297   1.754  13.919
67373W        W26634  30.047  12.243  13.057
67374W        W26635  25.001  41.821  11.533
67375W        W26636  25.692  15.621  12.378
67376W        W26637  38.474  33.079  11.041
67377W        W26638  10.811   1.283  11.922
67378W        W26639  16.670  25.603  11.513
67379W        W26640  36.398   4.262   2.268
67380W        W26641   1.344  14.171  14.804
67381W        W26642  32.035  37.944  11.475
67382W        W26643  40.833  33.025  13.048
67383W        W26644   3.737   9.190  11.477
67384W        W26645  19.680  42.857  12.407
67385W        W26646  17.302  12.244  14.335
67386W        W26647  20.210  19.542  12.536
67387W        W26648  31.417   7.417   4.220
67388W        W26649  29.667   0.956  11.944
67389W        W26650  43.947   9.206  13.491
67390W        W26651  29.521   5.263   0.781
67391W        W26652  21.550  22.150   3.797
67392W        W26653   4.226  12.332   1.261
67393W        W26654  20.682   4.402  14.827
67394W        W26655  44.458  43.985  12.414
67395W        W26656  38.042  14.807   4.202
67396W        W26657  21.172   4.390  13.792
67397W        W26658   1.261   8.739  12.443
67398W        W26659  39.884   6.888   2.396
67399W        W26660  41.027  16.111  14.008
67400W        W26661   3.361  21.750   0.791
67401W        W26662   4.285  16.659   3.228
67402W        W26663  16.252  44.949  13.992
67403W        W26664  23.685   9.336   1.337
67404W        W26665  30.530  12.180  12.567
67405W        W26666  27.578  19.106   2.189
67406W        W26667  38.470  29.436   3.366
67407W        W26668  18.780   7.269  12.845
67408W        W26669  23.007   7.696   4.295
67409W        W26670  13.731  43.502   2.776
67410W        W26671  35.429  37.427  14.832
67411W        W26672  33.395  35.433   0.283
67412W        W26673  44.940  30.417  12.382
67413W        W26674  13.223   4.903   3.714
67414W        W26675  12.818   9.163   3.810
67415W        W26676  44.905  26.506  13.928
67416W        W26677  15.264   3.240  12.544
67417W        W26678  38.989  42.520   1.846
67418W        W26679  22.581  17.112  11.420
67419W        W26680   3.282  11.154  13.804
67420W        W26681  30.015   6.732   4.137
67421W        W26682  27.962  19.719   3.751
67422W        W26683  28.502   5.867   2.734
67423W        W26684  44.959   3.761  12.884
67424W        W26685  37.435   3.910  12.508
67425W        W26686  16.213  29.168  14.394
67426W        W26687   9.390  34.062  14.936
67427W        W26688   0.296  19.563   4.757
67428W        W26689   0.841   2.366   0.399
67429W        W26690  21.619  23.627  14.775
67430W        W26691   7.698  28.124  12.960
67431W        W26692  15.688  37.029   0.393
67432W        W26693  43.766  12.129  10.565
67433W        W26694  38.460  36.034   2.724
67434W        W26695  19.627  20.680  11.516
67435W        W26696  19.766  41.972  11.506
67436W        W26697  26.497  16.276  13.966
67437W        W26698  41.921   5.335  14.008
67438W        W26699  24.147   6.326  13.480
67439W        W26700   4.389   4.792   4.815
67440W        W26701  38.896  29.983  11.529
67441W        W26702  33.550   3.422   1.398
67442W        W26703  43.460   1.374   3.318
67443W        W26704  38.400   8.891   3.203
67444W        W26705  40.486  15.671   0.442
67445W        W26706  38.371  16.164   3.703
67446W        W26707  20.703  25.169  11.099
67447W        W26708  18.272  12.644  12.900
67448W        W26709  43.378   7.687   0.273
67449W        W26710  21.248  37.054   2.370
67450W        W26711   8.701  37.354   1.787
67451W        W26712  41.996  25.632  11.395
67452W        W26713  18.757   8.219  11.079
67453W        W26714   9.644  33.038   2.328
67454W        W26715  41.933  40.054  11.565
67455W        W26716  11.248   7.872  14.465
67456W        W26717  39.051  33.882  12.934
67457W        W26718  10.838  32.041  13.049
67458W        W26719  38.011  22.250  14.311
67459W        W26720  17.771  12.321  11.891
67460W        W26721  15.752  39.471  11.531
67461W        W26722  26.189  17.157   2.833
67462W        W26723  25.468  41.507   4.610
67463W        W26724  19.094  34.445  13.994
67464W        W26725  16.672  13.216  12.855
67465W        W26726   0.889   9.293   0.952
67466W        W26727   5.910  29.927   1.756
67467W        W26728  42.940  21.050  11.918
67468W        W26729  26.972   8.235   0.412
67469W        W26730  23.657   0.796  12.025
67470W        W26731   9.647  10.672   4.325
67471W        W26732  34.467  15.626   5.239
67472W        W26733  13.823   2.288   5.209
67473W        W26734   6.235  11.652  10.982
67474W        W26735  13.218  33.562  14.765
67475W        W26736  38.977  28.151  11.062
67476W        W26737  33.039  26.158  11.926
67477W        W26738  14.168  12.654  10.620
67478W        W26739  18.763  29.493  11.935
67479W        W26740   6.402  35.483   3.196
67480W        W26741  32.002  35.483   5.186
67481W        W26742   7.400  14.675  12.064
67482W        W26743  17.149  13.753  13.412
67483W        W26744  29.170  36.974  14.291
67484W        W26745   5.761   9.668   1.921
67485W        W26746  23.725  44.416   0.919
67486W        W26747  24.090   1.784   0.801
67487W        W26748   1.866  13.187  10.626
67488W        W26749  31.931   8.341   0.837
67489W        W26750  23.691  34.536  13.822
67490W        W26751  28.971  15.667   1.238
67491W        W26752  24.685  25.980   3.386
67492W        W26753   3.775  38.988  11.002
67493W        W26754  37.931  43.853   1.443
67494W        W26755   2.763  37.013   3.331
67495W        W26756  40.547  24.135   2.214
67496W        W26757  33.105  38.519  11.924
67497W        W26758  26.484  35.390  12.428
67498W        W26759  28.647  43.818  12.535
67499W        W26760  43.276  42.323   2.715
67500W        W26761   4.746  30.925   2.889
67501W        W26762  26.499  42.995   0.815
67502W        W26763  19.675  13.677   4.613
67503W        W26764  13.167   7.384   2.384
67504W        W26765  44.274  10.649   0.482
67505W        W26766  29.033  20.064  13.994
67506W        W26767  11.688  36.886   1.888
67507W        W26768  15.205  26.106   0.900
67508W        W26769  34.387  32.910   2.875
67509W        W26770   1.414   5.357   3.706
67510W        W26771  23.151   9.787   1.903
67511W        W26772  42.989   5.749   4.610
67512W        W26773  11.191  30.637  12.973
67513W        W26774  32.076  28.175   0.840
67514W        W26775   4.910  17.217  13.003
67515W        W26776  12.337  24.198  12.854
67516W        W26777  10.353  32.139  14.844
67517W        W26778   8.894  40.340  12.345
67518W        W26779  11.229  34.906  12.001
67519W        W26780  29.018  41.033  11.964
67520W        W26781   7.736  27.487  14.335
67521W        W26782  40.462  33.877  13.821
67522W        W26783  27.451  41.304   4.666
67523W        W26784  21.537  24.605   5.101
67524W        W26785   1.829  30.556  13.046
67525W        W26786  22.167  36.410  10.421
67526W        W26787  42.337  11.214  14.822
67527W        W26788  13.754   5.706   1.259
67528W        W26789  34.578  21.727   4.598
67529W        W26790  23.053  30.917   3.232
67530W        W26791  38.491  43.336  11.890
67531W        W26792   2.242  25.511   4.179
67532W        W26793  30.918  38.380  10.454
67533W        W26794   9.746  44.843  10.460
67534W        W26795  28.467   3.901  13.357
67535W        W26796  40.980  10.354   3.192
67536W        W26797  31.488  33.418  10.424
67537W        W26798  43.764  25.113   4.718
67538W        W26799  17.201  12.258   2.219
67539W        W26800  28.992  24.986  13.034
67540W        W26801  15.789   9.258   2.406
67541W        W26802  31.541  10.835  10.557
67542W        W26803  29.148   3.938  12.434
67543W        W26804   8.189  38.565   3.200
67544W        W26805  30.936  11.847   0.935
67545W        W26806  28.060  41.831  12.903
67546W        W26807  18.296  38.049   4.807
67547W        W26808  21.632   8.226   4.145
67548W        W26809  10.255  10.798  13.992
67549W        W26810  35.020  14.776   1.321
67550W        W26811   2.465   3.842   0.951
67551W        W26812  21.171  15.663  11.890
67552W        W26813  24.518  38.529   2.398
67553W        W26814  32.058  30.921  13.843
67554W        W26815  35.518  15.173   3.786
67555W        W26816  41.039  15.764   4.141
67556W        W26817  39.871  34.108   3.708
67557W        W26818   2.280   6.251   3.321
67558W        W26819  36.418  24.524   1.737
67559W        W26820   1.264  12.186  14.496
67560W        W26821  15.167  40.933   1.294
67561W        W26822   7.669  19.597   4.187
67562W        W26823   3.894  30.452   5.241
67563W        W26824  30.649   8.242   0.847
67564W        W26825   4.940  14.094   0.764
67565W        W26826  18.172   5.852   0.247
67566W        W26827  27.985  29.064  11.905
67567W        W26828  31.029  35.416  10.626
67568W        W26829  31.588  16.199   1.378
67569W        W26830   4.219  15.123  14.495
67570W        W26831   6.676  34.482   1.339
67571W        W26832  42.322   8.182  12.425
67572W        W26833   4.934  25.178   2.327
67573W        W26834  21.139   1.843  13.823
67574W        W26835  42.444  40.435  12.381
67575W        W26836  36.525  21.529  12.898
67576W        W26837  43.911   5.280  10.412
67577W        W26838  20.046   0.417   1.324
67578W        W26839  38.944   9.216   2.751
67579W        W26840  27.067  20.732  12.446
67580W        W26841  28.475  32.973   2.277
67581W        W26842  44.005  12.637  10.619
67582W        W26843  11.237  21.228   3.685
67583W        W26844  20.086  10.283   2.787
67584W        W26845  26.654   9.716   0.961
67585W        W26846  26.642  38.891  14.982
67586W        W26847  19.630  20.575  12.536
67587W        W26848  18.610  36.576  10.434
67588W        W26849  21.539  11.672  10.049
67589W        W26850  28.040   6.339   3.756
67590W        W26851   7.296  38.926  12.890
67591W        W26852  24.606  12.204   3.718
67592W        W26853  40.980  27.637   3.172
67593W        W26854  26.567  40.049  13.898
67594W        W26855  33.512  36.960   0.952
67595W        W26856  29.654  37.430   0.378
67596W        W26857  37.008  39.441  13.889
67597W        W26858  10.213  44.302  13.395
67598W        W26859  24.197   6.338   5.166
67599W        W26860  37.924   3.388   4.282
67600W        W26861  43.326   1.732  14.344
67601W        W26862   3.335  13.829  10.499
67602W        W26863  18.054  36.887  14.429
67603W        W26864  10.189  31.591  13.422
67604W        W26865  10.351  13.298   0.935
67605W        W26866  11.729   6.799   0.274
67606W        W26867  37.884   1.340   1.357
67607W        W26868  34.395  32.018  10.518
67608W        W26869  27.093   6.211   1.738
67609W        W26870  10.688  33.096  12.926
67610W        W26871  26.072  11.276   2.837
67611W        W26872  32.904   2.878  12.410
67612W        W26873  22.142  43.006  14.934
67613W        W26874  34.375  24.612  14.496
67614W        W26875  33.130  39.873   3.222
67615W        W26876  17.695   4.339   4.334
67616W        W26877  40.903  35.430   2.244
67617W        W26878  38.949  25.008  11.444
67618W        W26879  29.968  30.634  14.292
67619W        W26880  33.986  40.465  13.915
67620W        W26881  31.960  27.181  13.848
67621W        W26882  37.868  18.271  10.559
67622W        W26883  40.919  34.402  11.481
67623W        W26884  26.543  31.614   1.383
67624W        W26885   1.336   5.776  13.945
67625W        W26886   7.760  33.567   3.705
67626W        W26887  19.069  34.019  13.965
67627W        W26888  26.989   5.229  11.896
67628W        W26889  40.412  42.343   2.696
67629W        W26890   3.725  21.184  13.061
67630W        W26891   7.357  23.182   3.158
67631W        W26892  35.551  19.536   4.240
67632W        W26893  29.939  18.606  12.896
67633W        W26894  35.878  23.690  12.943
67634W        W26895  27.467  40.412  14.288
67635W        W26896  14.280  10.808   0.310
67636W        W26897  27.636  18.621   4.663
67637W        W26898  11.287   9.217  11.035
67638W        W26899   1.771  42.017  13.839
67639W        W26900  23.085  20.225  13.493
67640W        W26901  14.118  38.399   1.366
67641W        W26902   8.824  31.041   2.206
67642W        W26903  44.498  10.781  11.995
67643W        W26904  38.436  39.443   1.895
67644W        W26905  24.581   4.326   3.188
67645W        W26906  12.310  17.254   2.757
67646W        W26907  24.066  15.250   0.890
67647W        W26908  10.210  10.248   0.747
67648W        W26909  40.806   0.936  10.591
67649W        W26910  32.994  20.564   4.735
67650W        W26911  38.540  36.389   3.724
67651W        W26912  37.367   1.303  14.873
67652W        W26913  36.074  36.356   2.679
67653W        W26914  40.394  26.612   9.956
67654W        W26915  23.226   5.197  10.591
67655W        W26916  37.983  15.189   3.360
67656W        W26917  37.444  31.030   4.756
67657W        W26918  28.149  23.229  13.432
67658W        W26919  36.513   5.422  12.848
67659W        W26920  42.407  12.830   1.406
67660W        W26921  29.966  39.397   9.932
67661W        W26922  20.043  12.118   3.778
67662W        W26923  34.055  29.620   2.685
67663W        W26924   8.172  38.957   3.755
67664W        W26925  24.669   9.749  14.792
67665W        W26926  20.031  30.965  11.508
67666W        W26927  18.193  40.956  12.504
67667W        W26928   4.334  31.986   0.369
67668W        W26929  12.809   9.851   0.823
67669W        W26930   1.290  25.513  11.929
67670W        W26931  29.960  26.108   2.900
67671W        W26932  19.232   1.757   0.289
67672W        W26933   0.309  27.953   1.925
67673W        W26934  27.554  21.584   3.644
67674W        W26935  41.359   4.804   1.899
67675W        W26936   4.872  22.170  14.417
67676W        W26937   3.951   2.736   4.138
67677W        W26938  18.076  34.392  14.857
67678W        W26939  40.472  15.234  13.477
67679W        W26940  33.960  28.944   0.866
67680W        W26941  27.127  22.651  11.515
67681W        W26942  29.054  43.512  12.406
67682W        W26943  20.610   4.924   1.859
67683W        W26944  30.995   6.717  12.389
67684W        W26945  33.467  16.203  13.423
67685W        W26946  19.192  21.554   4.333
67686W        W26947  15.188   9.247  13.874
67687W        W26948  11.720  32.044  10.911
67688W        W26949  14.703   3.255  14.294
67689W        W26950  42.423  26.129   2.300
67690W        W26951  25.493  20.242   1.360
67691W        W26952  33.538  20.124  11.966
67692W        W26953  33.521  16.576  11.061
67693W        W26954   3.452  26.964  13.424
67694W        W26955  35.929  35.502  13.918
67695W        W26956  11.257  14.122   3.167
67696W        W26957  38.349   9.760  12.910
67697W        W26958  43.353  37.945   2.197
67698W        W26959  18.600  13.843  12.951
67699W        W26960  35.489  29.535   0.344
67700W        W26961  38.434  15.085   2.244
67701W        W26962   9.353   3.810   3.845
67702W        W26963  36.920  23.180  12.090
67703W        W26964  22.117  32.927  12.420
67704W        W26965  31.422  31.069  10.981
67705W        W26966  36.499  17.266   1.331
67706W        W26967  32.007   2.365   4.826
67707W        W26968  33.031  27.454  14.409
67708W        W26969  31.641  21.623  14.844
67709W        W26970  31.147  27.667   4.757
67710W        W26971  44.301  43.939  12.057
67711W        W26972  28.108  25.654  14.813
67712W        W26973  15.686  10.680  11.105
67713W        W26974  13.223  19.683   0.264
67714W        W26975  15.694  42.294  14.823
67715W        W26976  22.200  13.673   3.373
67716W        W26977  32.473  20.136  10.601
67717W        W26978  31.434  34.539  13.506
67718W        W26979  27.609  13.746   0.851
67719W        W26980   8.807  40.010   3.726
67720W        W26981  28.608  23.694  10.938
67721W        W26982  22.193   0.862   4.792
67722W        W26983  40.525  40.304  12.039
67723W        W26984  17.560   5.868  14.306
67724W        W26985  17.217  16.761   4.824
67725W        W26986  22.055  44.980   3.693
67726W        W26987  40.871  14.752  11.013
67727W        W26988  24.179  39.874  12.514
67728W        W26989  35.928  34.418   1.417
67729W        W26990  32.586  11.758   0.411
67730W        W26991   1.763  36.513   2.725
67731W        W26992  36.053   0.309  11.564
67732W        W26993  18.561  38.915   4.252
67733W        W26994  39.035   6.288   4.767
67734W        W26995  27.689   3.289   2.671
67735W        W26996  44.336  25.167   4.752
67736W        W26997  22.648   4.761  14.334
67737W        W26998  12.746   5.852   4.215
67738W        W26999  36.555   0.885   3.867
67739W        W27000  16.187  39.379  14.826
67740W        W27001  23.570  43.967  12.041
67741W        W27002   7.768  43.813   1.884
67742W        W27003  36.871  28.591  11.127
67743W        W27004  23.130  39.407   1.444
67744W        W27005  10.329  24.616   0.872
67745W        W27006  41.835  24.221  13.869
67746W        W27007  14.737  24.591   2.182
67747W        W27008  26.088  35.915   3.696
67748W        W27009   4.819  39.834  10.443
67749W        W27010  44.901   2.303   0.905
67750W        W27011  14.298   1.375  14.798
67751W        W27012   3.715  10.752   9.953
67752W        W27013  24.067   2.742  11.912
67753W        W27014  42.403  13.266   1.850
67754W        W27015  37.870  41.940   1.362
67755W        W27016  21.728   0.437  14.330
67756W        W27017  43.499  14.333   3.224
67757W        W27018  22.236   3.392  14.932
67758W        W27019   8.708  28.046  12.861
67759W        W27020  29.507  29.552  13.330
67760W        W27021  22.115  20.177  13.829
67761W        W27022  33.581  10.811   2.247
67762W        W27023  38.494  38.560   3.259
67763W        W27024  33.488  44.296  11.898
67764W        W27025  35.551  42.954   4.810
67765W        W27026  25.685   0.867   2.771
67766W        W27027  27.570   2.337  12.468
67767W        W27028  32.398  28.146  14.988
67768W        W27029   5.260  26.662   3.382
67769W        W27030  13.283   7.766  11.876
67770W        W27031  25.022  27.029  12.037
67771W        W27032  10.737   8.680  14.950
67772W        W27033  15.657  43.780   1.443
67773W        W27034  30.018   0.924  12.924
67774W        W27035  34.523  10.370   4.765
67775W        W27036   6.222  10.785   0.476
67776W        W27037  18.623  37.881   4.790
67777W        W27038   1.861  40.011  11.437
67778W        W27039  36.022  27.681   3.195
67779W        W27040  27.524  24.631   9.624
67780W        W27041  23.030  43.846   1.445
67781W        W27042  38.014  29.497  14.343
67782W        W27043  31.997   9.848  12.451
67783W        W27044  15.754  35.035  14.891
67784W        W27045  17.599   3.339  11.867
67785W        W27046  31.058  42.007   3.824
67786W        W27047   5.882  11.146  10.016
67787W        W27048  29.170  32.088  14.996
67788W        W27049  38.914  26.667   5.104
67789W        W27050  29.560   1.960  13.063
67790W        W27051  19.559  21.682   4.209
67791W        W27052  34.931  39.376  11.101
67792W        W27053   8.895   5.735   2.245
67793W        W27054  18.187  26.592  14.515
67794W        W27055  34.577  35.950   0.898
67795W        W27056  42.883   2.305  12.859
67796W        W27057  11.839  15.687  13.943
67797W        W27058  37.930  38.542  10.467
67798W        W27059   8.692  41.875   3.264
67799W        W27060  23.227  24.139  14.429
67800W        W27061  24.994  33.004  12.393
67801W        W27062  17.663  12.295  13.931
67802W        W27063  38.396  16.237  11.008
67803W        W27064  24.127  10.150  11.454
67804W        W27065  30.991  38.915  12.426
67805W        W27066   2.393   2.825   1.218
67806W        W27067  18.089  22.130   4.788
67807W        W27068  18.773   4.264  12.830
67808W        W27069   3.321   4.341   0.949
67809W        W27070  20.218  22.502   3.334
67810W        W27071  20.084  34.576  14.002
67811W        W27072   4.940  11.735  13.027
67812W        W27073   2.924  21.218   4.822
67813W        W27074  13.682  39.524   2.383
67814W        W27075  28.065  30.046   3.800
67815W        W27076  30.569  44.767   2.821
67816W        W27077   0.871   8.218  10.635
67817W        W27078   5.416  26.978   0.924
67818W        W27079  40.517  37.441  14.352
67819W        W27080   9.670   6.752  12.343
67820W        W27081  32.973  39.016   4.122
67821W        W27082   6.881   3.930   0.461
67822W        W27083   1.329   8.323   3.370
67823W        W27084  36.889  19.064   3.755
67824W        W27085   5.318  13.830   2.757
67825W        W27086  39.360  44.819  11.601
67826W        W27087  10.707  27.671   3.764
67827W        W27088   5.745   5.740  14.298
67828W        W27089  14.230  19.222   0.277
67829W        W27090  38.842   1.832  11.375
67830W        W27091   2.269  19.548   2.327
67831W        W27092  11.799  34.546   2.294
67832W        W27093  40.305  33.959  14.351
67833W        W27094   7.391  11.280  11.468
67834W        W27095  31.007  24.655  13.946
67835W        W27096   7.282  11.211  13.527
67836W        W27097  33.581  15.161   4.234
67837W        W27098   8.886  20.132   0.268
67838W        W27099  27.975   5.345  11.971
67839W        W27100  30.105   1.282  12.027
67840W        W27101  22.031  34.548   1.330
67841W        W27102   1.924  12.168  12.061
67842W        W27103  19.209  10.358  14.368
67843W        W27104  12.821  14.337  13.311
67844W        W27105  22.509  19.591  13.522
67845W        W27106  21.050  24.570   9.674
67846W        W27107   4.266   9.350  12.438
67847W        W27108  29.986   9.872  14.032
67848W        W27109  28.083   5.370  13.949
67849W        W27110  28.438  15.649  14.771
67850W        W27111  37.856   0.261  14.821
67851W        W27112  39.437  41.391   3.736
67852W        W27113  39.491  35.009   1.373
67853W        W27114  44.936   0.986  14.295
67854W        W27115  27.005  42.012   1.723
67855W        W27116  30.942  27.102  13.441
67856W        W27117   5.744   7.339  12.933
67857W        W27118  18.584   3.796  12.009
67858W        W27119  17.757  40.947  11.403
67859W        W27120  31.488  37.906  14.914
67860W        W27121  36.515  31.502   0.346
67861W        W27122  37.842  18.196   0.923
67862W        W27123  12.658  11.212  13.962
67863W        W27124  35.475  30.567  11.008
67864W        W27125   9.710   3.248  11.023
67865W        W27126   7.395   3.709   1.372
67866W        W27127  33.467  32.985   3.190
67867W        W27128  16.660  23.123   2.318
67868W        W27129  37.399  22.590  11.390
67869W        W27130  40.817  20.208   1.265
67870W        W27131  32.519  27.575   4.780
67871W        W27132  16.215   1.875   4.627
67872W        W27133  29.036  26.563   2.390
67873W        W27134  33.007  14.186  12.883
67874W        W27135   0.448  21.143  11.898
67875W        W27136  28.125  31.523   0.941
67876W        W27137  44.845  32.081   2.669
67877W        W27138  25.151   7.902   2.186
67878W        W27139   7.673  13.189  12.459
67879W        W27140  13.162  27.976  14.959
67880W        W27141  31.635  23.988   1.388
67881W        W27142  23.651  40.428  12.028
67882W        W27143  32.991  24.657  11.910
67883W        W27144  13.252  29.918  13.331
67884W        W27145  38.987  41.356  11.112
67885W        W27146  38.409  32.988  13.811
67886W        W27147  21.695  41.328  12.878
67887W        W27148  33.535  41.810   2.772
67888W        W27149   4.297  31.446   0.329
67889W        W27150  25.082   2.263   1.225
67890W        W27151  16.660   8.785  10.513
67891W        W27152  18.117   1.798  13.955
67892W        W27153  39.537   6.714  11.079
67893W        W27154   2.927  37.418  14.998
67894W        W27155  38.076  24.996   1.435
67895W        W27156  28.607   9.215  10.544
67896W        W27157  29.019  41.848  10.972
67897W        W27158   7.263  28.590   3.778
67898W        W27159  17.598  34.460  14.415
67899W        W27160  32.546  29.952   1.746
67900W        W27161  24.182  15.299   1.853
67901W        W27162  42.383  31.477   4.201
67902W        W27163  33.908  23.055   0.843
67903W        W27164  17.725  33.595  12.557
67904W        W27165   7.325   9.209   4.168
67905W        W27166  24.674  28.957  10.903
67906W        W27167  17.642   4.796  12.521
67907W        W27168  38.017  18.628  11.096
67908W        W27169  33.113  10.651  14.832
67909W        W27170  38.446  41.860   2.785
67910W        W27171  32.966  13.158   5.125
67911W        W27172  23.559  39.864  11.000
67912W        W27173  18.640  18.585   5.211
67913W        W27174  44.823  18.547  12.569
67914W        W27175  17.704   7.237  12.924
67915W        W27176  12.198  15.120  10.069
67916W        W27177  34.057  14.702   3.172
67917W        W27178   5.361  27.131   4.784
67918W        W27179  34.589  26.981   1.814
67919W        W27180   8.268  19.690  13.908
67920W        W27181  13.688  44.427  12.951
67921W        W27182  41.391  22.200   1.822
67922W        W27183   5.745  14.195  12.934
67923W        W27184  29.479  19.761   9.944
67924W        W27185  14.244   7.753  14.454
67925W        W27186  44.876  17.654  11.920
67926W        W27187   5.199  23.663  14.485
67927W        W27188  13.197  24.213  13.798
67928W        W27189  30.483  19.072  12.995
67929W        W27190   3.948  42.910  14.928
67930W        W27191  25.176  11.626   3.281
67931W        W27192   2.801  23.213   1.385
67932W        W27193  23.736  38.855  10.499
67933W        W27194  14.733  12.711   1.808
67934W        W27195  42.992   7.694   4.631
67935W        W27196   3.852  29.065   4.626
67936W        W27197  37.930  19.694   4.793
67937W        W27198  21.657  17.190  11.125
67938W        W27199  14.300  37.431   2.234
67939W        W27200   0.922   1.389  10.464
67940W        W27201  18.741  18.644   1.906
67941W        W27202   9.873  21.232   3.694
67942W        W27203  35.485  31.414  13.520
67943W        W27204  44.915   6.751  14.306
67944W        W27205  44.363   5.813   9.985
67945W        W27206  12.143  22.733  11.560
67946W        W27207   0.756  25.617   4.745
67947W        W27208  43.356   1.385  13.802
67948W        W27209  35.360  43.486   2.194
67949W        W27210   3.870  24.537  14.938
67950W        W27211  23.225   7.788   1.236
67951W        W27212   0.332   3.913  14.502
67952W        W27213  43.395  22.526  10.106
67953W        W27214   0.311  38.407  13.922
67954W        W27215  28.102  16.176  10.537
67955W        W27216   9.690  17.770  11.875
67956W        W27217  15.129   0.457   3.678
67957W        W27218  13.834  31.469   4.316
67958W        W27219  38.499  39.333   4.277
67959W        W27220  12.202  24.617   4.213
67960W        W27221  43.942  21.216  14.928
67961W        W27222  24.036  21.090  11.953
67962W        W27223  31.447  25.058  12.082
67963W        W27224  14.754   5.323  11.978
67964W        W27225  27.052  31.994  13.424
67965W        W27226  26.644   1.775  12.565
67966W        W27227  37.873   6.814  13.530
67967W        W27228  16.647  11.769   0.425
67968W        W27229   7.803  43.510  11.473
67969W        W27230  26.180   0.401  13.435
67970W        W27231  25.629  22.509  14.820
67971W        W27232  40.819   9.245  10.625
67972W        W27233  11.135  15.803  14.862
67973W        W27234  12.316  36.411   0.739
67974W        W27235  16.123  21.603   1.770
67975W        W27236  21.756  22.721  13.833
67976W        W27237  36.541  25.589   1.709
67977W        W27238  42.018  13.344   1.259
67978W        W27239  43.372  37.950   1.411
67979W        W27240  21.238  18.179   0.885
67980W        W27241  42.503   2.746  11.105
67981W        W27242  18.236   5.881   3.855
67982W        W27243  10.146  33.078  10.016
67983W        W27244  42.895  12.623  10.005
67984W        W27245  40.039   7.197   3.703
67985W        W27246  16.313   8.735   1.351
67986W        W27247  34.034  40.906   3.196
67987W        W27248   7.703  21.042   2.202
67988W        W27249   3.338  44.829  14.382
67989W        W27250  35.600  14.310   2.214
67990W        W27251  39.041  31.018  11.393
67991W        W27252  24.537   5.292  12.365
67992W        W27253  37.866  22.609   0.295
67993W        W27254  29.424  15.164   0.939
67994W        W27255  26.459  21.196  12.829
67995W        W27256   4.284  11.263  14.403
67996W        W27257  33.114  38.341   4.168
67997W        W27258  26.630  14.218  12.445
67998W        W27259   3.733  12.160  11.019
67999W        W27260   0.272  11.261   4.262
68000W        W27261  38.884   6.187   2.318
68001W        W27262  37.540  24.230   0.303
68002W        W27263  38.931  36.885  13.345
68003W        W27264  42.374  29.039  11.378
68004W        W27265  15.191  16.316   9.464
68005W        W27266  22.151  40.502   3.760
68006W        W27267   7.877   0.420   3.823
68007W        W27268  34.468   4.747  13.540
68008W        W27269   9.184  15.803  12.540
68009W        W27270  11.689  23.995   2.782
68010W        W27271   7.710  40.313   0.775
68011W        W27272  40.849  30.050  12.482
68012W        W27273  41.492   0.781  11.866
68013W        W27274   2.745  20.225  12.359
68014W        W27275  26.603  26.114   3.669
68015W        W27276   0.386  24.665   1.304
68016W        W27277  42.903  16.700   4.678
68017W        W27278   2.811   7.840   0.443
68018W        W27279  44.380  10.170  12.458
68019W        W27280  20.669  17.250   2.412
68020W        W27281  14.736  22.560   0.248
68021W        W27282  35.520  21.740   4.182
68022W        W27283   1.825  37.956   1.377
68023W        W27284  13.167  42.439   2.785
68024W        W27285   2.244  44.380   3.838
68025W        W27286  23.097  32.432  13.338
68026W        W27287  42.334  13.234  12.949
68027W        W27288  34.056  31.499   1.920
68028W        W27289  16.619   1.282  13.386
68029W        W27290   1.389  18.562   2.182
68030W        W27291  26.013  34.086  13.366
68031W        W27292  34.584  42.454   3.302
68032W        W27293  40.824  19.583   0.327
68033W        W27294  14.206  16.726   0.903
68034W        W27295  20.743   3.300   3.746
68035W        W27296   4.700   7.402  11.558
68036W        W27297  15.593  42.888   1.240
68037W        W27298   9.254  36.062   3.214
68038W        W27299  31.941  17.143  12.400
68039W        W27300  37.555   4.935   4.291
68040W        W27301  22.659  22.577  10.946
68041W        W27302  10.248  40.941   2.684
68042W        W27303   3.387  18.256   3.693
68043W        W27304  16.166  41.899  14.438
68044W        W27305  24.082  16.799  12.992
68045W        W27306   3.254  17.764  10.987
68046W        W27307   7.199  24.630  13.539
68047W        W27308  35.404  37.039   3.722
68048W        W27309  22.069  21.141  14.466
68049W        W27310  18.125  10.654  14.938
68050W        W27311  44.767  24.024  13.877
68051W        W27312  31.034   9.173   4.225
68052W        W27313  37.360  44.924  11.378
68053W        W27314  16.282  25.613   1.733
68054W        W27315  24.004  34.457   2.830
68055W        W27316  36.969  24.095  12.025
68056W        W27317  30.964  34.896  11.928
68057W        W27318  13.210   1.392   3.815
68058W        W27319  34.585  23.589   1.811
68059W        W27320  21.650  14.616  10.414
68060W        W27321  28.652  14.332  10.432
68061W        W27322  33.617  16.171   0.301
68062W        W27323  17.162  25.657   2.690
68063W        W27324  41.949  29.669   1.703
68064W        W27325   0.971  27.098  13.461
68065W        W27326   7.312  23.503  11.986
68066W        W27327  17.261  14.182   3.832
68067W        W27328  30.921  12.619   2.270
68068W        W27329  31.936  44.760   9.924
68069W        W27330  16.728  33.942   4.295
68070W        W27331   1.801  25.034  13.829
68071W        W27332   9.354  44.871   0.788
68072W        W27333  23.084  39.967  11.577
68073W        W27334  37.413  25.629   4.279
68074W        W27335  42.013  43.415   0.407
68075W        W27336  39.877  14.609  13.497
68076W        W27337  10.792  27.969   0.923
68077W        W27338  39.996   1.395   3.734
68078W        W27339  39.465  10.239   2.870
68079W        W27340  33.894  18.230   4.815
68080W        W27341  21.722   2.339  10.999
68081W        W27342  13.216   7.869  12.350
68082W        W27343  31.487  41.802   5.191
68083W        W27344  29.556   7.322  12.024
68084W        W27345  22.657  38.861   0.439
68085W        W27346  22.173  15.667   2.712
68086W        W27347  36.373  38.565  13.470
68087W        W27348  27.631   5.270  12.909
68088W        W27349   2.845  20.546  10.487
68089W        W27350  24.206  25.122  11.559
68090W        W27351  35.499   2.947  12.488
68091W        W27352   7.813   4.819  10.973
68092W        W27353  29.544   0.910   2.303
68093W        W27354  26.044  16.306   1.313
68094W        W27355  37.033  29.602  13.899
68095W        W27356  29.642  10.343   0.279
68096W        W27357  30.088  23.237  11.396
68097W        W27358  39.903  38.026   2.889
68098W        W27359  36.563   1.738   0.755
68099W        W27360  29.458   2.419   2.854
68100W        W27361  12.318  36.076   0.343
68101W        W27362  43.767  33.411   4.133
68102W        W27363  22.226  35.520  10.494
68103W        W27364  41.910  15.207   1.211
68104W        W27365  27.132  35.954  12.366
68105W        W27366  41.421   4.434  11.459
68106W        W27367  18.118  40.521  12.918
68107W        W27368  20.765  25.149   2.818
68108W        W27369  22.076  18.724  12.527
68109W        W27370  41.875  40.363   3.357
68110W        W27371  13.303  38.069   3.288
68111W        W27372  10.375  39.038   1.287
68112W        W27373  30.593  20.215  11.397
68113W        W27374  11.675  26.600   1.846
68114W        W27375  42.381   4.290  13.055
68115W        W27376  16.806  22.998  11.546
68116W        W27377  31.988  31.007   4.228
68117W        W27378  16.773  39.453   2.266
68118W        W27379  21.721   5.802  14.412
68119W        W27380  15.762  16.210  14.417
68120W        W27381  42.522  13.324   0.456
68121W        W27382  33.452  33.984   1.280
68122W        W27383  40.457   8.399  12.576
68123W        W27384  31.456  38.020  13.452
68124W        W27385  40.417  32.038  14.786
68125W        W27386  43.010  31.057  11.039
68126W        W27387  17.232   2.413   2.298
68127W        W27388  41.440  29.546   4.621
68128W        W27389  25.050  27.506  13.947
68129W        W27390  25.580   0.843  14.393
68130W        W27391   5.266  29.034  11.512
68131W        W27392  16.311  20.672   0.387
68132W        W27393  10.861   8.311   4.313
68133W        W27394  23.495  18.599   3.708
68134W        W27395   4.276   3.776  11.498
68135W        W27396  31.445  37.407   0.315
68136W        W27397   7.397  35.093  11.857
68137W        W27398   1.477  20.735  12.424
68138W        W27399  30.951  38.007   4.178
68139W        W27400   4.716  18.167   4.714
68140W        W27401  34.514  31.050  10.629
68141W        W27402  27.176   9.309   3.735
68142W        W27403  24.167  36.990  13.052
68143W        W27404  10.203  22.165  10.509
68144W        W27405  37.008  22.655   4.605
68145W        W27406  39.379  42.006   3.281
68146W        W27407  16.093  38.553  11.024
68147W        W27408  44.430   3.832  13.496
68148W        W27409  16.243  28.544  13.405
68149W        W27410  14.772  44.457   9.937
68150W        W27411   8.751   6.402  12.501
68151W        W27412  27.631  42.851   3.676
68152W        W27413  14.808  13.159   3.245
68153W        W27414  26.088  16.166   3.652
68154W        W27415  15.282  39.058  14.029
68155W        W27416  26.465   1.880   3.712
68156W        W27417  24.199  32.563  11.940
68157W        W27418  27.458   2.426   0.396
68158W        W27419  37.415  12.210   0.267
68159W        W27420   3.265   1.431  14.501
68160W        W27421  19.176  20.562   1.697
68161W        W27422  23.704  37.415   4.838
68162W        W27423  12.251  14.221  13.360
68163W        W27424  23.621   9.321   3.181
68164W        W27425  29.963  23.667   3.330
68165W        W27426  19.669  41.803   2.788
68166W        W27427   7.253   9.162   1.305
68167W        W27428  40.434  24.718  13.478
68168W        W27429  33.120  35.936  13.493
68169W        W27430   3.724  20.568   1.211
68170W        W27431  20.029  18.653   4.141
68171W        W27432   1.483  35.518  13.879
68172W        W27433  21.157  37.025  11.471
68173W        W27434  11.845  23.584  10.406
68174W        W27435  35.509  25.090  10.932
68175W        W27436  27.644   0.422   3.157
68176W        W27437  31.585   8.690   1.908
68177W        W27438  14.686  35.535  11.417
68178W        W27439   9.844  41.502  12.406
68179W        W27440  16.106  30.036  13.837
68180W        W27441  13.177  29.431   3.783
68181W        W27442  42.440  41.387   1.274
68182W        W27443  28.551  12.151  12.558
68183W        W27444  14.791   8.305   3.693
68184W        W27445  44.470  42.025   4.759
68185W        W27446  23.552  14.115  12.961
68186W        W27447  21.107  13.761  14.428
68187W        W27448   2.233  42.481  14.959
68188W        W27449  26.187  31.403  14.929
68189W        W27450  10.729  11.149  12.889
68190W        W27451   7.369   2.888   3.630
68191W        W27452   8.288  14.613   2.384
68192W        W27453  44.969  21.143   0.478
68193W        W27454  11.726  12.181  10.497
68194W        W27455  41.897  44.881  14.837
68195W        W27456   2.799  17.589   1.869
68196W        W27457  19.566  44.408  11.391
68197W        W27458  27.685  28.536   1.715
68198W        W27459  40.980  19.636  10.952
68199W        W27460  35.359  38.010   0.965
68200W        W27461  33.128  39.051  12.377
68201W        W27462  11.354  37.401  13.545
68202W        W27463  27.027  39.042  13.335
68203W        W27464  29.993   5.916  12.852
68204W        W27465  28.607  35.447   2.271
68205W        W27466   8.238  19.190   2.355
68206W        W27467  17.175  23.627   1.211
68207W        W27468   1.925  44.390   2.785
68208W        W27469  39.918  31.897  11.443
68209W        W27470  39.500  14.709  13.335
68210W        W27471  24.993   8.386   0.471
68211W        W27472  22.667   4.398   2.342
68212W        W27473  10.836  12.851   3.254
68213W        W27474  22.156  35.873   4.118
68214W        W27475  35.012  11.853   5.717
68215W        W27476  10.773  22.203  12.497
68216W        W27477  17.092  15.127  13.521
68217W        W27478  21.571  10.340  13.392
68218W        W27479  20.035  32.496   2.690
68219W        W27480  24.498  20.076   3.643
68220W        W27481  41.954  43.332   4.252
68221W        W27482  17.607  15.141   0.393
68222W        W27483  36.549  19.612   0.251
68223W        W27484  21.622   7.691   2.710
68224W        W27485  16.598  38.325   3.765
68225W        W27486   4.322  30.919  11.097
68226W        W27487   8.865  10.781   2.402
68227W        W27488  11.760  20.175   2.199
68228W        W27489  42.287  31.081   2.839
68229W        W27490  23.054  15.734   0.726
68230W        W27491  42.954  17.282  11.505
68231W        W27492  32.987   7.308  12.472
68232W        W27493  39.011  15.224   0.880
68233W        W27494  33.124   1.812  14.784
68234W        W27495  17.626   6.274  11.994
68235W        W27496  16.198  37.515   0.783
68236W        W27497   5.193  17.170   1.448
68237W        W27498  29.551  37.949   1.362
68238W        W27499  30.079  40.958   0.944
68239W        W27500  22.513  21.221   4.165
68240W        W27501  13.646  27.687   2.783
68241W        W27502  43.442  11.341  12.012
68242W        W27503  38.947  23.231   2.275
68243W        W27504  33.062  28.035   3.363
68244W        W27505  13.199  16.740  11.525
68245W        W27506  22.726   0.455   3.844
68246W        W27507   7.867  39.976   0.272
68247W        W27508   2.793   7.314   4.352
68248W        W27509  43.786   7.881  13.471
68249W        W27510  15.647  13.254   5.286
68250W        W27511  31.448  34.897  12.476
68251W        W27512  35.927  37.079  11.964
68252W        W27513  40.486  18.184  13.035
68253W        W27514  24.687  18.288   4.317
68254W        W27515  36.990  33.045   2.824
68255W        W27516   3.231   0.917  14.992
68256W        W27517   7.307  33.547  12.010
68257W        W27518  29.547  35.888   2.815
68258W        W27519  17.248  27.980  13.948
68259W        W27520  35.360  21.065   0.247
68260W        W27521   6.719  42.805   3.728
68261W        W27522  30.526   3.875  13.995
68262W        W27523   9.728  41.992  13.057
68263W        W27524   3.760  36.085   3.351
68264W        W27525  32.102  34.578  13.462
68265W        W27526  28.954  18.234   0.819
68266W        W27527  23.158  16.571   3.299
68267W        W27528  12.117   8.276   0.819
68268W        W27529   9.840  44.483   2.370
68269W        W27530  29.644   8.867  12.500
68270W        W27531  25.686  22.520   0.348
68271W        W27532  25.680  41.928   2.261
68272W        W27533   1.428  39.004   0.461
68273W        W27534  22.569  32.079  12.056
68274W        W27535  42.833  33.605   4.151
68275W        W27536  10.669  43.800   4.622
68276W        W27537  42.435  21.178  11.429
68277W        W27538  33.508  30.519  11.440
68278W        W27539  36.056  14.310   3.232
68279W        W27540  34.615  18.124   3.836
68280W        W27541  29.593  28.167   2.719
68281W        W27542  42.441  30.047  11.042
68282W        W27543  16.776  11.345  14.411
68283W        W27544  30.967  10.270   2.682
68284W        W27545  15.631  27.181  13.925
68285W        W27546  25.173  14.775   2.822
68286W        W27547  29.023  40.490   1.842
68287W        W27548   6.392  39.558  13.006
68288W        W27549  26.059  32.481   4.743
68289W        W27550   9.662   1.872   0.361
68290W        W27551  28.993   1.954   4.696
68291W        W27552  24.063  35.898   0.429
68292W        W27553   5.346  21.584  13.533
68293W        W27554  20.072  35.041   3.374
68294W        W27555  42.866   3.883   1.710
68295W        W27556   1.866  43.353  13.984
68296W        W27557  25.667  35.026  12.486
68297W        W27558   7.205  24.084  13.470
68298W        W27559  39.361  29.163   4.243
68299W        W27560  10.319  38.881   0.266
68300W        W27561   3.402   7.847   1.884
68301W        W27562  37.043  16.623   1.808
68302W        W27563  30.656  16.312   0.272
68303W        W27564   5.742  33.577  10.978
68304W        W27565  30.609  11.740   0.903
68305W        W27566  22.508  14.603   2.845
68306W        W27567  33.044   0.970   4.130
68307W        W27568  31.633   9.723   0.955
68308W        W27569  36.514  44.849  11.381
68309W        W27570  16.681  32.511  11.978
68310W        W27571  21.573  18.751  12.860
68311W        W27572  20.647  39.997  13.935
68312W        W27573  30.135  20.702  11.537
68313W        W27574  44.380  44.382  14.823
68314W        W27575   4.371  31.434  11.112
68315W        W27576  40.884  31.945  10.946
68316W        W27577  25.608   9.190   2.871
68317W        W27578  26.648  44.495  12.963
68318W        W27579  24.627   9.847  14.416
68319W        W27580  34.369  43.315   0.372
68320W        W27581   3.289  37.513  11.522
68321W        W27582   3.261  44.915  14.822
68322W        W27583   6.848  10.669   4.803
68323W        W27584  16.567   1.967  13.521
68324W        W27585  27.949  24.119   1.356
68325W        W27586  24.099  27.084  10.522
68326W        W27587  44.435  21.600  10.907
68327W        W27588  26.119  32.999   4.668
68328W        W27589  40.836  11.791   2.722
68329W        W27590  28.168  29.611   1.396
68330W        W27591  26.506  21.080  14.022
68331W        W27592  35.023   4.450   2.296
68332W        W27593  14.272  37.055   2.765
68333W        W27594  17.771   3.792   4.316
68334W        W27595  32.391  16.674   2.287
68335W        W27596  19.539   2.879   3.259
68336W        W27597  24.555  28.133  11.498
68337W        W27598  41.846  35.368   3.681
68338W        W27599   3.447  44.951  12.945
68339W        W27600  43.339  43.786  13.034
68340W        W27601  38.073  11.696   4.144
68341W        W27602  18.234   1.469  13.440
68342W        W27603  34.591   3.840   3.747
68343W        W27604  42.871  18.127   3.233
68344W        W27605  14.295  31.620   1.781
68345W        W27606   7.348  12.639  14.018
68346W        W27607   6.889  21.646   3.826
68347W        W27608  41.017  37.391   2.746
68348W        W27609  34.904  15.189   0.339
68349W        W27610  16.085  28.464  11.003
68350W        W27611   2.807   6.216  10.449
68351W        W27612   8.193  10.214  11.026
68352W        W27613  40.313  18.144  10.106
68353W        W27614  36.450  14.720  12.054
68354W        W27615  29.019   9.867   3.682
68355W        W27616  31.551   8.332  10.545
68356W        W27617  13.176   3.743   0.455
68357W        W27618  21.623  40.905   0.262
68358W        W27619  35.391  44.857   9.604
68359W        W27620  43.376  18.150  14.281
68360W        W27621  40.837  31.137   3.840
68361W        W27622  43.977  18.178  12.949
68362W        W27623   0.381  43.513   1.289
68363W        W27624  20.763  43.407  10.556
68364W        W27625   6.333  16.302   2.221
68365W        W27626   1.411  42.859  14.503
68366W        W27627   7.842  38.894  12.826
68367W        W27628  43.938  16.092  14.324
68368W        W27629  34.517  25.216  11.037
68369W        W27630   8.277  27.607  13.894
68370W        W27631  41.854   1.245  12.987
68371W        W27632   4.450   9.652   0.383
68372W        W27633  19.266  43.463  13.338
68373W        W27634   5.860  32.525   3.330
68374W        W27635  42.480  34.377  11.105
68375W        W27636  24.708   3.811  13.060
68376W        W27637   9.709  35.593  12.029
68377W        W27638  28.029  43.972  12.460
68378W        W27639  16.730  17.573  10.605
68379W        W27640  19.768  17.608   2.334
68380W        W27641  13.235  30.598   3.261
68381W        W27642  38.870  41.815   4.622
68382W        W27643  32.596  12.764   4.353
68383W        W27644  24.596  37.366  10.953
68384W        W27645  36.996  11.284   4.602
68385W        W27646   2.383  15.294   2.178
68386W        W27647   9.161  11.674  14.001
68387W        W27648  17.592  25.042  14.453
68388W        W27649  17.750  21.591   4.802
68389W        W27650  10.841  23.068   0.326
68390W        W27651  33.081  38.854   2.330
68391W        W27652  32.072  35.980  11.987
68392W        W27653   1.291  12.118   2.377
68393W        W27654  20.030  26.087   0.839
68394W        W27655  12.640  44.355   4.719
68395W        W27656  43.984  42.412  13.037
68396W        W27657  20.075  41.036   4.330
68397W        W27658  13.784   4.434  10.142
68398W        W27659   8.316  40.046   2.377
68399W        W27660  19.697  43.777  10.450
68400W        W27661  41.333   1.977  14.416
68401W        W27662  27.481  43.368   0.307
68402W        W27663  44.009  37.050  10.976
68403W        W27664  28.617   5.702   1.851
68404W        W27665  37.980   9.788  12.530
68405W        W27666   3.267  18.126  13.507
68406W        W27667  33.438  28.655  10.577
68407W        W27668  19.571  33.084   3.749
68408W        W27669  17.225  44.813   4.610
68409W        W27670   8.728   3.242  11.867
68410W        W27671  39.523  10.800  14.841
68411W        W27672  20.665   6.782  12.956
68412W        W27673  36.899  16.086  11.090
68413W        W27674  15.141  17.250  12.016
68414W        W27675  10.335  42.850  11.450
68415W        W27676  37.504   3.953   3.756
68416W        W27677   0.292   4.811  14.282
68417W        W27678  12.747  27.489  11.934
68418W        W27679  41.373  31.094   2.755
68419W        W27680  24.051  22.616  14.938
68420W        W27681   9.284  33.396  14.437
68421W        W27682  24.103  44.265   2.418
68422W        W27683  41.301  28.557   0.734
68423W        W27684  10.201  44.955   1.850
68424W        W27685  12.699  37.027   0.393
68425W        W27686  36.554   6.228   2.235
68426W        W27687  25.677  17.201   4.342
68427W        W27688  23.667   9.654  14.970
68428W        W27689  20.747  29.485   1.220
68429W        W27690  26.979  42.523  14.340
68430W        W27691  18.197  29.668  10.958
68431W        W27692   8.174  14.320   5.146
68432W        W27693  35.958  13.779   3.366
68433W        W27694   2.469  15.143  12.959
68434W        W27695  19.586  43.382  11.050
68435W        W27696  22.124  24.095   2.856
68436W        W27697   0.328   0.767   3.737
68437W        W27698  30.023  24.160  12.374
68438W        W27699  43.319  31.935   2.299
68439W        W27700  21.067  41.328   1.780
68440W        W27701  20.607  24.663  13.822
68441W        W27702   3.852  35.534  10.909
68442W        W27703   6.711  23.989  10.489
68443W        W27704  26.976  32.916   0.874
68444W        W27705  42.822  11.182  11.544
68445W        W27706  37.376  20.099   4.131
68446W        W27707  34.483  37.036   2.372
68447W        W27708  40.983  17.739   3.157
68448W        W27709  23.120   5.387  12.518
68449W        W27710  21.560  29.166   0.291
68450W        W27711  19.680  23.201   3.724
68451W        W27712  36.066   1.752   0.475
68452W        W27713  22.227   9.822   2.191
68453W        W27714   9.367  23.063   3.192
68454W        W27715  40.901  19.115  10.460
68455W        W27716  12.780  35.962   1.386
68456W        W27717   8.377   1.389   2.866
68457W        W27718  27.057  39.351  12.580
68458W        W27719  23.106  36.400   1.758
68459W        W27720  42.889   2.963  12.007
68460W        W27721  23.039  25.126  13.521
68461W        W27722   8.729  21.720  10.605
68462W        W27723   4.323  24.657  10.638
68463W        W27724  42.822  44.346  11.429
68464W        W27725   7.388  11.668   1.803
68465W        W27726   7.272  13.669  13.850
68466W        W27727  34.053  33.486  13.979
68467W        W27728  14.636  41.823  11.499
68468W        W27729   4.759   6.213  13.358
68469W        W27730  22.702  36.948   4.211
68470W        W27731  22.202   4.916   3.182
68471W        W27732  38.428  22.716  11.015
68472W        W27733  16.307   2.367  14.385
68473W        W27734  13.668  24.135  12.350
68474W        W27735  44.818   8.218   0.269
68475W        W27736  22.248   6.894  14.871
68476W        W27737  26.690  12.664  13.799
68477W        W27738   7.383  44.791   0.292
68478W        W27739   5.356  15.182   3.659
68479W        W27740  35.431  36.418  14.005
68480W        W27741  34.962  31.418  11.864
68481W        W27742   6.827   0.247  10.976
68482W        W27743  41.024   1.312  12.466
68483W        W27744  36.574  35.088  13.486
68484W        W27745  17.760   7.814  13.435
68485W        W27746  33.397  11.354   2.733
68486W        W27747  32.537  12.850  11.906
68487W        W27748  30.059  21.031  14.999
68488W        W27749  38.518  11.141  11.049
68489W        W27750  20.662  10.668  13.806
68490W        W27751  34.024  28.653  13.031
68491W        W27752  11.268  14.823  13.486
68492W        W27753  40.490  35.487  14.312
68493W        W27754  18.158  43.304   0.799
68494W        W27755   1.886  30.418  11.079
68495W        W27756  10.675  31.936   1.295
68496W        W27757   5.899  17.634  10.471
68497W        W27758  38.556   9.251   1.777
68498W        W27759  39.531  18.118   1.345
68499W        W27760  38.413  11.768  11.955
68500W        W27761  32.021   6.417   4.712
68501W        W27762  28.528  34.104   3.772
68502W        W27763  16.634   3.826  12.543
68503W        W27764   4.210  23.160  14.020
68504W        W27765  43.016   6.729   3.191
68505W        W27766  35.887  18.580  11.948
68506W        W27767   2.840  15.144   1.827
68507W        W27768   2.447  33.015   1.445
68508W        W27769  10.292  29.611   1.421
68509W        W27770  30.523  26.624  13.980
68510W        W27771   7.784  43.411   2.713
68511W        W27772  14.179  32.979   0.827
68512W        W27773   4.882   8.874  12.579
68513W        W27774  40.478  21.201   1.920
68514W        W27775  18.074  40.358   3.718
68515W        W27776  25.569  25.525   0.243
68516W        W27777  34.377  23.099   3.311
68517W        W27778  41.927  19.164  13.952
68518W        W27779  19.677  23.241  10.410
68519W        W27780   6.359  39.389  14.835
68520W        W27781  33.403  14.182   0.759
68521W        W27782   3.751   7.416   0.331
68522W        W27783  13.775   9.788  11.577
68523W        W27784  20.758   8.836   3.805
68524W        W27785  36.935  22.135  10.899
68525W        W27786  23.099   7.412  13.983
68526W        W27787  23.520   7.337   1.281
68527W        W27788   4.308   4.835   3.678
68528W        W27789  22.060  26.126  14.441
68529W        W27790  42.847  25.509   1.348
68530W        W27791   0.853  39.032   2.698
68531W        W27792  25.981  40.475   0.891
68532W        W27793  23.613   0.435   1.363
68533W        W27794  26.181  34.025   2.322
68534W        W27795  20.211  17.282   2.830
68535W        W27796  43.490  13.711   3.302
68536W        W27797  16.207  44.938  11.452
68537W        W27798  24.545   2.930  11.418
68538W        W27799  37.924  40.504  12.467
68539W        W27800   8.403   3.806  14.962
68540W        W27801  26.999  38.931  10.041
68541W        W27802  11.145  16.648   1.404
68542W        W27803  14.780  10.189   4.279
68543W        W27804  33.047  19.752   5.237
68544W        W27805  39.029  33.453  14.290
68545W        W27806  35.006  26.550   5.227
68546W        W27807  11.348   9.294  10.549
68547W        W27808  33.899  31.134   3.281
68548W        W27809  23.675   9.887   4.146
68549W        W27810   3.358  12.357   1.890
68550W        W27811  28.468  40.486   1.758
68551W        W27812  17.684   3.422   1.215
68552W        W27813   0.744  13.642  13.839
68553W        W27814   2.331  31.948  10.007
68554W        W27815  18.581   9.880   3.685
68555W        W27816  30.100   9.750  11.914
68556W        W27817  13.752   2.402   3.643
68557W        W27818  36.469  18.147   1.761
68558W        W27819   6.920  32.000   3.306
68559W        W27820  38.915  43.837   1.805
68560W        W27821   2.413  20.091   1.343
68561W        W27822   5.702  15.187   1.214
68562W        W27823  15.687  23.223  13.016
68563W        W27824   5.219  12.136  14.318
68564W        W27825   9.804  16.625   5.195
68565W        W27826  30.557   6.383   4.204
68566W        W27827  36.858  10.335   5.299
68567W        W27828  42.298  22.555  12.946
68568W        W27829   6.900  43.870  14.030
68569W        W27830   0.286  26.600   0.936
68570W        W27831   8.352   5.812  10.893
68571W        W27832  28.933  11.258  12.887
68572W        W27833  19.078   8.288  12.901
68573W        W27834  44.869  43.514   0.316
68574W        W27835  25.153  42.848   4.125
68575W        W27836  16.764  25.211  12.371
68576W        W27837  39.361  19.050  10.590
68577W        W27838  22.164  40.830  11.915
68578W        W27839   2.887  44.309   1.285
68579W        W27840  13.691   7.315   3.814
68580W        W27841  10.781  38.414   0.479
68581W        W27842  37.949  31.549   4.793
68582W        W27843  31.411  37.431   2.412
68583W        W27844  42.910  31.523  10.530
68584W        W27845  35.072  26.565  11.044
68585W        W27846  43.362  36.886  14.490
68586W        W27847  30.108  37.058  13.459
68587W        W27848  36.045  21.058  12.495
68588W        W27849  15.821  14.683   3.723
68589W        W27850  15.623  15.222   5.189
68590W        W27851  14.734  32.464  11.382
68591W        W27852  39.992  17.748   4.257
68592W        W27853  33.080   0.327  11.451
68593W        W27854  39.982   6.695  12.047
68594W        W27855  26.101  30.648   1.390
68595W        W27856   7.790   0.471  11.487
68596W        W27857  15.718  44.303   0.833
68597W        W27858  23.007   0.366   0.739
68598W        W27859  23.016   9.861  13.965
68599W        W27860  12.125  12.317  10.437
68600W        W27861  10.845  42.346  11.376
68601W        W27862  42.305  18.084   2.209
68602W        W27863  28.436   9.278   1.358
68603W        W27864  37.941   1.419   3.820
68604W        W27865  10.848  33.924  11.916
68605W        W27866  25.574  37.849  12.880
68606W        W27867  43.890  28.953  14.979
68607W        W27868  36.525  40.893   3.797
68608W        W27869  11.699  18.790   3.758
68609W        W27870  11.305  37.938   4.775
68610W        W27871  13.670   4.926  13.858
68611W        W27872   2.256  15.701   0.726
68612W        W27873  22.672   2.288   2.197
68613W        W27874  19.281  40.950  11.386
68614W        W27875  30.518  42.020  11.567
68615W        W27876  18.260   7.862  14.512
68616W        W27877  24.525  36.403   3.147
68617W        W27878  20.670  15.217  10.525
68618W        W27879  34.558  35.366   3.771
68619W        W27880   2.777   9.149   4.687
68620W        W27881  32.617  27.469   3.279
68621W        W27882  13.837  26.662  12.537
68622W        W27883  38.057  16.166   0.276
68623W        W27884   8.881  23.676  13.462
68624W        W27885  11.626  36.053  14.510
68625W        W27886  32.933  39.403   0.878
68626W        W27887  20.633  39.843   0.966
68627W        W27888   5.778   1.307  11.055
68628W        W27889  33.986  32.074  13.493
68629W        W27890   5.373  17.182   9.923
68630W        W27891   7.253  20.718   3.161
68631W        W27892   6.765   2.320   1.794
68632W        W27893  37.506   5.800  14.977
68633W        W27894  36.568  20.731   4.673
68634W        W27895  16.290   3.954   1.413
68635W        W27896  31.111   8.211   1.266
68636W        W27897  32.618  22.158  13.409
68637W        W27898  21.614  25.127   9.488
68638W        W27899  43.855  42.903  13.329
68639W        W27900   4.848  33.539   2.297
68640W        W27901  18.781   5.321   0.424
68641W        W27902  16.252   9.159  12.053
68642W        W27903  40.455  13.197   1.863
68643W        W27904  44.338  23.554  14.003
68644W        W27905  43.978  30.421   4.338
68645W        W27906  17.266  33.558  13.868
68646W        W27907  37.031  33.091  13.920
68647W        W27908  38.504  37.877   1.256
68648W        W27909  42.479  44.966  14.493
68649W        W27910   6.799  29.130   1.870
68650W        W27911   0.399  30.082  11.894
68651W        W27912  41.485   2.921  14.502
68652W        W27913   0.786  19.690   2.231
68653W        W27914  26.972  40.503  13.980
68654W        W27915  18.696  26.615   5.736
68655W        W27916   6.254   5.743  11.881
68656W        W27917  40.455  23.234   1.242
68657W        W27918  27.156  34.979  13.791
68658W        W27919  43.793  28.000  10.623
68659W        W27920  15.652   7.387  14.490
68660W        W27921  25.678  13.172  13.359
68661W        W27922  16.735  16.191   4.731
68662W        W27923  18.549  16.729  10.542
68663W        W27924  24.036  18.641   1.730
68664W        W27925  29.923  22.683  14.994
68665W        W27926  40.395  44.785   2.794
68666W        W27927  36.877  32.942   3.739
68667W        W27928  30.598  30.471   0.297
68668W        W27929  11.751  20.112  10.429
68669W        W27930  16.219  15.734   3.842
68670W        W27931   7.691  24.092  11.855
68671W        W27932  26.565  23.987   3.256
68672W        W27933   0.953  43.387  14.958
68673W        W27934  19.215  14.778  10.538
68674W        W27935   7.774   8.851   3.215
68675W        W27936  40.397  23.184   4.821
68676W        W27937   9.805  29.474  13.838
68677W        W27938  38.569  28.442  11.480
68678W        W27939  32.607  28.578  14.768
68679W        W27940  40.007   9.189  11.417
68680W        W27941  15.619  19.216   0.368
68681W        W27942  13.174  39.048  12.884
68682W        W27943  40.801  25.621  11.375
68683W        W27944  21.534  18.053   0.466
68684W        W27945  37.915   5.400   1.439
68685W        W27946  30.985  15.690  10.118
68686W        W27947  21.624  20.259  12.841
68687W        W27948  15.225  24.697  13.482
68688W        W27949  33.542   5.232  14.489
68689W        W27950  25.062   2.833   2.284
68690W        W27951  36.436  38.917  12.911
68691W        W27952  44.365  31.055  11.939
68692W        W27953  12.764  35.902  14.800
68693W        W27954   8.856  40.490   4.166
68694W        W27955  26.504  27.107   3.332
68695W        W27956  32.618   6.887  14.794
68696W        W27957  14.252  16.635  10.967
68697W        W27958  42.891  35.449  14.287
68698W        W27959  16.112  17.114   2.180
68699W        W27960  31.538  43.367   3.320
68700W        W27961  39.442  10.655  11.936
68701W        W27962  25.655  40.053  14.402
68702W        W27963   4.830  19.108  14.783
68703W        W27964  22.567   3.732  11.417
68704W        W27965  14.176  10.172  14.998
68705W        W27966  44.376  13.803   1.360
68706W        W27967  13.793  29.923   0.964
68707W        W27968   5.256  20.547   2.235
68708W        W27969   5.779  34.560   3.211
68709W        W27970   0.488  31.054   4.735
68710W        W27971  19.616   3.231  14.385
68711W        W27972  37.853  21.090  14.361
68712W        W27973  20.233  29.429   4.162
68713W        W27974  22.677   0.803  12.405
68714W        W27975  44.493  27.559   3.287
68715W        W27976  41.407  20.175   1.870
68716W        W27977   3.427  12.677   4.128
68717W        W27978  10.663  18.552  12.954
68718W        W27979  28.491  36.518   1.894
68719W        W27980  42.366  44.308  12.346
68720W        W27981   7.752  28.520   3.225
68721W        W27982  44.496  37.867  10.574
68722W        W27983  26.113  10.259   3.271
68723W        W27984   7.199  38.047   4.144
68724W        W27985  25.100  15.258   2.362
68725W        W27986   7.274  18.653  13.878
68726W        W27987  21.579  26.026   2.304
68727W        W27988  21.087  25.108  12.991
68728W        W27989  12.166  11.634  14.925
68729W        W27990  14.229  34.901  11.109
68730W        W27991  25.993   1.422   2.853
68731W        W27992  42.875   5.689  11.594
68732W        W27993  42.413  22.177   1.874
68733W        W27994  17.698  12.758   1.299
68734W        W27995  42.868  22.570  13.362
68735W        W27996  32.903   7.247  13.894
68736W        W27997  20.615  26.637  13.328
68737W        W27998  11.623  39.374  13.981
68738W        W27999  24.666  13.768   4.618
68739W        W28000   5.697  40.545   3.324
68740W        W28001  14.117  44.306   3.382
68741W        W28002  20.534  16.758   4.197
68742W        W28003  19.252  14.727   4.622
68743W        W28004  43.485  21.064   1.367
68744W        W28005  19.143  44.802   4.834
68745W        W28006  42.432  24.202  13.929
68746W        W28007  41.939   2.252  11.450
68747W        W28008  14.811  13.260  13.949
68748W        W28009   7.670  24.184   4.186
68749W        W28010  18.659   9.243   0.923
68750W        W28011   5.270  31.013  12.940
68751W        W28012   5.817   1.776   2.264
68752W        W28013  31.514   6.245   2.813
68753W        W28014  27.559  14.795  14.857
68754W        W28015   2.368  41.515   0.317
68755W        W28016  17.246  16.776   2.795
68756W        W28017  39.985  24.978  14.378
68757W        W28018  13.621  34.438  12.423
68758W        W28019  27.192  19.708  13.440
68759W        W28020  32.627  44.923   3.381
68760W        W28021  33.474  30.951   4.649
68761W        W28022  35.945  40.327  11.938
68762W        W28023  10.846   4.224   3.644
68763W        W28024   1.388  10.729   0.244
68764W        W28025  19.559  14.773  11.127
68765W        W28026   8.733  21.063   4.837
68766W        W28027  43.327  40.451   3.689
68767W        W28028  16.237  30.112  13.321
68768W        W28029  35.566  18.052   2.182
68769W        W28030   5.354  10.369  13.031
68770W        W28031  10.347   8.826  10.096
68771W        W28032   9.319   8.218   1.711
68772W        W28033  14.604  28.504  13.897
68773W        W28034  10.878  39.553  11.510
68774W        W28035  42.281   0.283  14.886
68775W        W28036  36.851  26.092  11.944
68776W        W28037  23.527  37.439  14.889
68777W        W28038  40.035  44.303   2.310
68778W        W28039  15.793   2.353  14.911
68779W        W28040  37.938  29.118   4.602
68780W        W28041  43.510  26.035   3.261
68781W        W28042   2.831  40.421   2.708
68782W        W28043  41.013  15.635  11.528
68783W        W28044   7.731  28.643  13.325
68784W        W28045  28.562  22.011   2.748
68785W        W28046  21.562  44.454   0.424
68786W        W28047   0.370  15.147  11.098
68787W        W28048  42.882  27.129  12.998
68788W        W28049  20.676   4.778   3.816
68789W        W28050  38.939  41.837   2.275
68790W        W28051  30.649  38.348   4.688
68791W        W28052   3.889  27.064   2.779
68792W        W28053  16.724  13.756  14.841
68793W        W28054   3.251  19.228   0.953
68794W        W28055  17.208  35.459  11.456
68795W        W28056  37.353  41.010  11.602
68796W        W28057  39.319   6.836   4.653
68797W        W28058  13.717  42.981   3.712
68798W        W28059  41.531  18.245   2.840
68799W        W28060  11.364  25.163  13.955
68800W        W28061  20.574   0.792  13.890
68801W        W28062  34.046   1.765   3.717
68802W        W28063  26.644  37.979  11.402
68803W        W28064  15.164  18.738   1.396
68804W        W28065  44.436   2.852  13.403
68805W        W28066  42.459  32.962   1.741
68806W        W28067  13.145   2.318   3.655
68807W        W28068  20.268  33.488   3.718
68808W        W28069  39.046  12.277  10.627
68809W        W28070   7.171   1.370   3.187
68810W        W28071  13.234  10.362   0.423
68811W        W28072  23.050  15.263  12.447
68812W        W28073  39.964  11.737  10.488
68813W        W28074  23.719  33.525  12.540
68814W        W28075  19.224  28.441  12.341
68815W        W28076   9.339  19.640   9.970
68816W        W28077  12.143  15.252   1.347
68817W        W28078  25.711  33.425   4.749
68818W        W28079  23.530   2.942  11.112
68819W        W28080  14.657  37.043  11.558
68820W        W28081  43.272   1.941  13.962
68821W        W28082  21.225   6.811  14.488
68822W        W28083  32.022   6.764   1.774
68823W        W28084  44.423  37.406  12.461
68824W        W28085  23.734  21.152   1.743
68825W        W28086  13.177  39.870  10.555
68826W        W28087  36.545  22.120   0.448
68827W        W28088  22.710  42.431  11.984
68828W        W28089  12.757  31.566   0.291
68829W        W28090   3.265  34.556  13.901
68830W        W28091   8.231  44.968  10.912
68831W        W28092  32.569  10.813  10.003
68832W        W28093  37.928  24.192   1.728
68833W        W28094  28.097  22.075   3.685
68834W        W28095   7.261   0.984  14.373
68835W        W28096  21.706   9.722   4.740
68836W        W28097  26.999  32.036  10.073
68837W        W28098   3.859  18.586  12.402
68838W        W28099  33.594  19.154   3.167
68839W        W28100   8.733  38.944  11.055
68840W        W28101   6.304   4.700   3.810
68841W        W28102   6.885   2.279   3.655
68842W        W28103  25.565   8.303   2.312
68843W        W28104  40.545  37.400  11.004
68844W        W28105   4.368  36.414  13.896
68845W        W28106  43.335   0.390  12.970
68846W        W28107  13.677  24.692  14.905
68847W        W28108  19.676  29.100  10.070
68848W        W28109  34.998  40.511   4.336
68849W        W28110  17.745  16.679  10.933
68850W        W28111  33.461  14.703  12.346
68851W        W28112  42.950  32.476  12.969
68852W        W28113  29.567  26.093   0.935
68853W        W28114  40.954  12.361  13.958
68854W        W28115  22.638  40.032   4.208
68855W        W28116  43.343  19.659   4.782
68856W        W28117  10.147  29.032  13.370
68857W        W28118  33.382  14.791   1.812
68858W        W28119  22.235  31.611  12.096
68859W        W28120  16.262  18.055   3.150
68860W        W28121   9.230  37.858  14.323
68861W        W28122  10.274  36.520   1.846
68862W        W28123  27.068   2.395   3.307
68863W        W28124   2.418  26.691   1.259
68864W        W28125  29.999  24.155  10.607
68865W        W28126  38.895  16.186  13.980
68866W        W28127   6.787   7.861   1.452
68867W        W28128  29.996  30.080  11.412
68868W        W28129  40.488  24.016   4.802
68869W        W28130  11.863   9.171   2.223
68870W        W28131  27.184   3.231   9.959
68871W        W28132  40.964   5.310  13.044
68872W        W28133   9.331   8.728   3.866
68873W        W28134  27.120  10.870  13.529
68874W        W28135  12.202  27.661   1.359
68875W        W28136  28.101  40.823  11.607
68876W        W28137  14.776  18.079   2.718
68877W        W28138  29.608  35.404  12.938
68878W        W28139  21.685  10.357  14.759
68879W        W28140  39.485  23.145  14.977
68880W        W28141  22.545   3.242  10.076
68881W        W28142  31.530  38.531   1.406
68882W        W28143  30.027   2.807  11.542
68883W        W28144  16.302   4.699   5.221
68884W        W28145  34.890   9.833   5.286
68885W        W28146  44.800  18.761   2.886
68886W        W28147  37.509  26.006  10.412
68887W        W28148  19.174   7.342  12.876
68888W        W28149  17.204  30.510   3.210
68889W        W28150  41.494   3.347   0.761
68890W        W28151  42.920  34.107  13.975
68891W        W28152  43.901  21.747   2.418
68892W        W28153  34.964  41.014   1.270
68893W        W28154  30.059   5.688  14.763
68894W        W28155  35.997  25.200   3.286
68895W        W28156  14.104  19.164   0.932
68896W        W28157  20.726  16.710   3.695
68897W        W28158  38.949  29.621   5.273
68898W        W28159  33.624  39.359  13.794
68899W        W28160  30.457  40.891  11.957
68900W        W28161  33.921   4.868   2.897
68901W        W28162  23.655   0.777   3.650
68902W        W28163  40.932  37.062  11.059
68903W        W28164   7.203  42.851   4.692
68904W        W28165   1.894  25.126  13.031
68905W        W28166  40.491  34.057  13.032
68906W        W28167  31.052   3.292  14.516
68907W        W28168  30.649   6.376   0.832
68908W        W28169  22.006   2.894  14.020
68909W        W28170  21.656   1.815  14.337
68910W        W28171  18.609  35.937   4.327
68911W        W28172   3.422  11.347  14.343
68912W        W28173  18.075   7.912  13.409
68913W        W28174  41.520  28.550   1.694
68914W        W28175  20.586  13.323   3.256
68915W        W28176  44.373   5.720   1.863
68916W        W28177  41.894  35.505  13.335
68917W        W28178  22.996  11.692   3.249
68918W        W28179   6.307  40.381   1.252
68919W        W28180  12.748  20.137   0.780
68920W        W28181  44.291  36.000   0.943
68921W        W28182  26.651  21.541  13.052
68922W        W28183  39.024  43.939   4.694
68923W        W28184  20.753  22.644  14.028
68924W        W28185  13.127  23.997  11.072
68925W        W28186  27.136  15.153  10.960
68926W        W28187  18.093  28.105  13.395
68927W        W28188   5.340  42.882  12.955
68928W        W28189   4.301   5.870   3.274
68929W        W28190  40.407   2.446  13.921
68930W        W28191  40.981  19.713   4.722
68931W        W28192  12.628  15.803  14.305
68932W        W28193   6.353   6.417   5.249
68933W        W28194  12.854  41.816  12.950
68934W        W28195  42.315  17.225   2.234
68935W        W28196  36.418  21.210   3.724
68936W        W28197  32.577  28.109  14.497
68937W        W28198   5.880  13.658  11.124
68938W        W28199   4.411  15.095   0.309
68939W        W28200   9.860  38.432   1.257
68940W        W28201  26.607  37.496   3.354
68941W        W28202  13.776  10.293  12.444
68942W        W28203  44.275  36.861  12.089
68943W        W28204   3.719  12.828   0.832
68944W        W28205  23.213  18.614   0.892
68945W        W28206   5.745  42.397  10.591
68946W        W28207  29.996  44.376  11.985
68947W        W28208  11.356  28.516  12.005
68948W        W28209  19.559   4.256  10.639
68949W        W28210   7.876  39.516   0.378
68950W        W28211  23.036   8.837   0.801
68951W        W28212  37.425  18.695   5.188
68952W        W28213  18.157   8.793   1.707
68953W        W28214   9.818  43.989  10.635
68954W        W28215  32.527  16.612  12.394
68955W        W28216   3.357  17.092  11.063
68956W        W28217  34.602  19.544   4.783
68957W        W28218   9.277  24.155   4.778
68958W        W28219  30.086   1.925  11.415
68959W        W28220  24.703  35.359  14.308
68960W        W28221  44.895  14.593  11.450
68961W        W28222  33.400  39.939   1.368
68962W        W28223  39.525   7.176   0.930
68963W        W28224  12.710   6.423   5.233
68964W        W28225  30.531  24.062  10.950
68965W        W28226  39.972   5.372  14.312
68966W        W28227   6.198  31.915  11.396
68967W        W28228   6.289  32.911   0.375
68968W        W28229   2.959   6.195   1.787
68969W        W28230  28.165  16.648  14.813
68970W        W28231  22.587  14.239   1.819
68971W        W28232  13.253  42.500  12.043
68972W        W28233  38.517  25.163  13.943
68973W        W28234  36.562  14.702  14.417
68974W        W28235   3.307  20.574  11.379
68975W        W28236  20.644  11.240  13.382
68976W        W28237  33.429  28.061   1.721
68977W        W28238   9.656  33.899  11.492
68978W        W28239  39.314   0.291   1.347
68979W        W28240  34.924  22.222  11.916
68980W        W28241  26.698  32.613   0.889
68981W        W28242  17.119   2.244  14.922
68982W        W28243  17.674  41.486   4.340
68983W        W28244  43.869  19.224  10.947
68984W        W28245  15.230  14.324   1.794
68985W        W28246   5.435  20.642   2.662
68986W        W28247  22.708   9.814   0.756
68987W        W28248  40.350  11.775   2.210
68988W        W28249  39.999  35.059  13.534
68989W        W28250  30.033   1.447   1.324
68990W        W28251  29.973  15.236   1.428
68991W        W28252  33.023  10.716  11.564
68992W        W28253  31.592  13.821  13.485
68993W        W28254  23.059  20.275   4.765
68994W        W28255   0.935   5.282   4.262
68995W        W28256  44.759  39.367   0.954
68996W        W28257  15.817   1.872   2.809
68997W        W28258   0.774  25.490   0.897
68998W        W28259  25.580  32.084  14.507
68999W        W28260   0.897  36.914   0.263
69000W        W28261   2.433  11.205  12.452
69001W        W28262  44.880  43.904   0.828
69002W        W28263  36.503  14.748   4.637
69003W        W28264  19.622  18.708  12.414
69004W        W28265  14.638  17.713   4.785
69005W        W28266  19.194  12.139  13.805
69006W        W28267  28.002  41.529  12.861
69007W        W28268   9.293  14.828   0.413
69008W        W28269  19.727  23.014  13.534
69009W        W28270   0.370   1.770  12.073
69010W        W28271  20.090  42.909   3.738
69011W        W28272  11.348  31.642   1.826
69012W        W28273  16.184  26.647   1.309
69013W        W28274  44.971  42.460  14.471
69014W        W28275  11.276  19.764   4.780
69015W        W28276  38.386  24.021   3.357
69016W        W28277  13.317  34.004  11.053
69017W        W28278  36.080  29.942  13.050
69018W        W28279  12.782  37.478  13.859
69019W        W28280  37.477  33.031   0.923
69020W        W28281  34.979   0.403   1.884
69021W        W28282  17.790  34.941  11.493
69022W        W28283  35.504  39.503  13.503
69023W        W28284  32.068  20.769  11.048
69024W        W28285   6.821  21.675  11.548
69025W        W28286  44.456  44.331   0.364
69026W        W28287  30.536  41.400  10.604
69027W        W28288  20.674  41.008   0.736
69028W        W28289  31.598  38.454  10.921
69029W        W28290  27.052  25.982   5.220
69030W        W28291  33.975  30.019   4.131
69031W        W28292  26.096  17.664   3.708
69032W        W28293  38.544  27.579   2.812
69033W        W28294  11.347  19.076  14.469
69034W        W28295  39.046  17.699   4.226
69035W        W28296  16.240   9.838  11.058
69036W        W28297  23.234  13.747   0.437
69037W        W28298  26.183  24.590  11.928
69038W        W28299  29.575  21.187  13.902
69039W        W28300  16.656  32.391  13.036
69040W        W28301  22.689  31.507  11.411
69041W        W28302   3.258  42.834  11.016
69042W        W28303  26.652  33.383  14.331
69043W        W28304  16.809  25.158  10.467
69044W        W28305  31.617  43.304  10.932
69045W        W28306  38.043  12.844  13.384
69046W        W28307  12.841   8.376  13.517
69047W        W28308  16.633  13.310  10.563
69048W        W28309  37.912  17.284   3.784
69049W        W28310  39.424   5.370  12.915
69050W        W28311  36.468  26.477  10.475
69051W        W28312  39.527   2.246  13.944
69052W        W28313  21.743  43.337   0.478
69053W        W28314  31.541   3.293  12.944
69054W        W28315  29.472   1.328   0.909
69055W        W28316  44.333   8.794   2.788
69056W        W28317  12.737  15.768   9.964
69057W        W28318  39.884   6.688   0.911
69058W        W28319   9.391  20.261  12.010
69059W        W28320  23.213  30.520  13.375
69060W        W28321  12.183  23.004   3.629
69061W        W28322  29.072  26.018  13.402
69062W        W28323  40.535  14.158  11.915
69063W        W28324  41.801   8.220   0.872
69064W        W28325  41.299   9.364  10.510
69065W        W28326  30.049  13.751   0.301
69066W        W28327  29.634  12.792  10.956
69067W        W28328  31.411  32.982   4.773
69068W        W28329  31.626  19.141  14.303
69069W        W28330   8.345  39.486  10.427
69070W        W28331  33.464  19.757   1.432
69071W        W28332  18.222   3.741   2.378
69072W        W28333  22.669  15.672   2.351
69073W        W28334   3.719  23.653   3.838
69074W        W28335  13.166  17.159   4.166
69075W        W28336  41.487  13.214   1.381
69076W        W28337  43.310  29.157  11.440
69077W        W28338  36.429   4.439  14.386
69078W        W28339  42.864  15.716  13.459
69079W        W28340  44.011  27.682  12.933
69080W        W28341  22.016   2.788   4.705
69081W        W28342  29.442   9.382  14.795
69082W        W28343  14.288  15.260   0.927
69083W        W28344  39.547   0.762   1.424
69084W        W28345  37.917   4.730   4.156
69085W        W28346  37.340  33.010  12.558
69086W        W28347  11.314  41.361  13.848
69087W        W28348  14.593  17.078  12.487
69088W        W28349  42.300  19.620  10.457
69089W        W28350  11.236  31.449   1.423
69090W        W28351  15.183  20.725  12.839
69091W        W28352  15.219  11.815   0.850
69092W        W28353  19.101  10.296  14.897
69093W        W28354  32.016  13.743  11.445
69094W        W28355   2.369  42.496  14.515
69095W        W28356  30.438   7.240  14.002
69096W        W28357  19.135  37.900   3.150
69097W        W28358   9.308   3.898   4.644
69098W        W28359   9.742  29.560  12.870
69099W        W28360  42.413  36.547  10.533
69100W        W28361  21.262   9.696  14.949
69101W        W28362  20.537  28.572  13.907
69102W        W28363  37.413  43.932  11.548
69103W        W28364  32.055  13.789   4.322
69104W        W28365  27.457  28.006   1.416
69105W        W28366  38.518  17.794   4.685
69106W        W28367   3.762   1.274   1.717
69107W        W28368  44.876  35.993  10.963
69108W        W28369  21.081  12.667  13.047
69109W        W28370  34.432  20.252  10.967
69110W        W28371  11.194  22.741  13.310
69111W        W28372  38.930  28.608  14.336
69112W        W28373  31.110  35.397   3.814
69113W        W28374  28.498  38.842  14.320
69114W        W28375  41.920  11.749  13.033
69115W        W28376  33.539   5.287  11.572
69116W        W28377  21.575  43.341   4.272
69117W        W28378  22.009   3.910   2.675
69118W        W28379   4.793  10.338   1.711
69119W        W28380  38.961  25.000  10.940
69120W        W28381  44.774  33.886   1.930
69121W        W28382  34.093  43.480  11.046
69122W        W28383  38.463  43.471  12.545
69123W        W28384  13.816  40.883   2.809
69124W        W28385  15.091   9.764  14.913
69125W        W28386  22.569   6.317  11.110
69126W        W28387  44.314   3.895   3.825
69127W        W28388   0.908  28.944  11.465
69128W        W28389  20.078  24.005  14.831
69129W        W28390  41.802  37.880   0.447
69130W        W28391   9.810  11.170  11.386
69131W        W28392  35.900  35.933   5.779
69132W        W28393  24.145  28.998   4.722
69133W        W28394  10.248   0.887  13.546
69134W        W28395  39.822   7.214  14.794
69135W        W28396   9.255  17.154   4.609
69136W        W28397  13.694   6.224   1.245
69137W        W28398  34.423  43.387  14.408
69138W        W28399  11.165  37.404  14.926
69139W        W28400   8.286  31.992  13.031
69140W        W28401  39.549  40.862  11.989
69141W        W28402  44.339  24.997   3.334
69142W        W28403  17.137   2.413   3.680
69143W        W28404  24.544  42.436  12.572
69144W        W28405   9.162  29.961   1.824
69145W        W28406  10.795  10.318   4.716
69146W        W28407  40.430  22.038  12.382
69147W        W28408  35.573  21.612   3.332
69148W        W28409  44.334  16.622   2.304
69149W        W28410  13.239   6.384  13.417
69150W        W28411  24.537  27.056   5.162
69151W        W28412  34.582  23.612   4.807
69152W        W28413  26.554   4.905  11.117
69153W        W28414  28.611  26.161  12.890
69154W        W28415  20.748   7.382  12.378
69155W        W28416  37.020  40.973   3.700
69156W        W28417  10.826  42.884   1.906
69157W        W28418  33.431  24.704  12.958
69158W        W28419  20.071  39.023   1.724
69159W        W28420   5.230   0.352   2.696
69160W        W28421  38.840  20.559  12.347
69161W        W28422  18.067   6.732   3.370
69162W        W28423  41.807  16.130  12.498
69163W        W28424   1.962  23.586   1.809
69164W        W28425  17.701  12.205  12.533
69165W        W28426  39.337  34.446   0.272
69166W        W28427   3.854   6.243  14.941
69167W        W28428  33.557  17.220  12.404
69168W        W28429   0.866  38.875  14.899
69169W        W28430  25.042   3.799   3.184
69170W        W28431   8.340   3.292   2.288
69171W        W28432  24.218  19.146  14.028
69172W        W28433  43.805  26.562  13.946
69173W        W28434  39.991  41.882   1.325
69174W        W28435  32.449  41.479   3.816
69175W        W28436  29.136  38.526   2.312
69176W        W28437  43.382  13.762   2.856
69177W        W28438   9.733  35.908  14.511
69178W        W28439   4.321  11.202   4.234
69179W        W28440  37.568   7.668  10.610
69180W        W28441  22.509  35.402  10.076
69181W        W28442  27.674   7.729   0.928
69182W        W28443  24.573   5.865   3.182
69183W        W28444  29.554  21.725   4.761
69184W        W28445  18.212   8.888   3.201
69185W        W28446   0.471  15.701  13.363
69186W        W28447  36.449  28.499   3.150
69187W        W28448  10.658  43.966  10.576
69188W        W28449  40.832  23.062   2.272
69189W        W28450  14.134   3.741   0.462
69190W        W28451  28.040  40.346  13.343
69191W        W28452  35.536   8.374  10.638
69192W        W28453  29.098  27.044  11.372
69193W        W28454   7.280  40.843  14.865
69194W        W28455  41.031  36.059   9.996
69195W        W28456  28.569   6.231   3.633
69196W        W28457  33.486  37.452  14.414
69197W        W28458  28.560  44.823   2.321
69198W        W28459  42.778   0.936   4.211
69199W        W28460  38.507  44.354  14.914
69200W        W28461  31.152  23.710   2.400
69201W        W28462  37.535  43.995   2.748
69202W        W28463   7.335  20.762   4.768
69203W        W28464  28.035  21.741  14.760
69204W        W28465  25.210  21.658  12.432
69205W        W28466  33.406  21.038  13.501
69206W        W28467  44.419  42.442   0.243
69207W        W28468  37.559  18.636   2.374
69208W        W28469  41.359  24.614   0.306
69209W        W28470  35.563  38.458  10.585
69210W        W28471  35.501  25.124  11.948
69211W        W28472   6.413   5.240  13.521
69212W        W28473  10.325  10.265   2.898
69213W        W28474  39.869  25.688  13.516
69214W        W28475   8.794   0.404   0.846
69215W        W28476  19.732   8.745  14.019
69216W        W28477  18.292  39.017   4.800
69217W        W28478  19.238  24.538   4.600
69218W        W28479  30.060  34.587   2.383
69219W        W28480  42.962  19.122   3.385
69220W        W28481  35.384  25.980  14.017
69221W        W28482  21.662   6.799   3.764
69222W        W28483  44.901   0.318  12.953
69223W        W28484  14.330  37.563   1.871
69224W        W28485  11.669  26.697  11.059
69225W        W28486  15.691   3.304  10.533
69226W        W28487  29.923  29.508   0.781
69227W        W28488   6.219  43.288  12.079
69228W        W28489   8.674   8.851  14.967
69229W        W28490  24.584   0.850  13.465
69230W        W28491  16.118   9.697  12.441
69231W        W28492  24.204  32.439   0.254
69232W        W28493  20.526  37.069   2.884
69233W        W28494  14.597  43.387  13.486
69234W        W28495   8.268  34.555  12.516
69235W        W28496  40.996  21.630   3.356
69236W        W28497   4.217  38.068  11.034
69237W        W28498  34.371  24.128  12.909
69238W        W28499   1.448  28.449  12.983
69239W        W28500  18.730  22.189   3.770
69240W        W28501  14.170  18.706   2.329
69241W        W28502  10.651  15.299   4.752
69242W        W28503  43.786  20.152  14.333
69243W        W28504  12.637  39.451  14.991
69244W        W28505  40.893  40.532  12.475
69245W        W28506   0.862   0.923   0.924
69246W        W28507  22.105  24.975   0.438
69247W        W28508  19.738  41.963  11.018
69248W        W28509  39.973  22.095  13.963
69249W        W28510  36.085  44.833   0.951
69250W        W28511  27.479  43.787  11.504
69251W        W28512  39.369  23.017  12.057
69252W        W28513  29.572  11.217   3.354
69253W        W28514  15.215  11.173   4.322
69254W        W28515  38.060   1.425  12.968
69255W        W28516   1.363  24.479  15.000
69256W        W28517  39.435   7.691  12.985
69257W        W28518   6.796  19.633  12.056
69258W        W28519  39.905   3.419   2.348
69259W        W28520   8.830  23.102  13.862
69260W        W28521  28.036  41.314  14.779
69261W        W28522  20.622  31.530   1.863
69262W        W28523  11.347  27.053  10.531
69263W        W28524  29.451  31.971   4.176
69264W        W28525  31.523  19.101   0.316
69265W        W28526  34.426  36.382  13.042
69266W        W28527   1.254   2.436   4.342
69267W        W28528   3.268  16.587   1.381
69268W        W28529   2.864  32.889  10.994
69269W        W28530  29.976  25.653   3.637
69270W        W28531  29.082  23.704   1.301
69271W        W28532   2.326  29.124  13.353
69272W        W28533   3.936  35.887   1.912
69273W        W28534  41.957  17.679   2.808
69274W        W28535   1.962  27.167   1.269
69275W        W28536  22.654   1.467   4.688
69276W        W28537   8.887  26.699   2.756
69277W        W28538  36.924  13.191   2.377
69278W        W28539  23.490  43.919  14.910
69279W        W28540  11.750  21.550  11.052
69280W        W28541  22.239  10.194   0.330
69281W        W28542  43.768  19.162   3.801
69282W        W28543  20.681  36.546   3.821
69283W        W28544   1.794  19.768   1.888
69284W        W28545  17.646  21.147  12.021
69285W        W28546  41.495   2.262   4.348
69286W        W28547  37.569   8.364  13.439
69287W        W28548  44.484  11.641   4.724
69288W        W28549   3.889  36.541   3.275
69289W        W28550  31.096  26.190   0.326
69290W        W28551  13.688  27.049   3.665
69291W        W28552  28.012   3.267   2.688
69292W        W28553  33.583  28.145   5.286
69293W        W28554  12.287  44.370  14.775
69294W        W28555  31.432  38.523   4.711
69295W        W28556  15.582  37.462   3.657
69296W        W28557  26.629  10.680   0.935
69297W        W28558  26.176  44.494  12.876
69298W        W28559   0.299  12.317   1.337
69299W        W28560  42.003  33.418   1.874
69300W        W28561  11.318  36.438   0.268
69301W        W28562  36.889  42.313   1.838
69302W        W28563   3.916  36.931  11.524
69303W        W28564  44.261  10.810   3.371
69304W        W28565   3.748  41.020   1.779
69305W        W28566  33.443  17.131   1.405
69306W        W28567   5.394  43.383  13.883
69307W        W28568   9.670   8.742   0.314
69308W        W28569  14.677  14.656   2.277
69309W        W28570  22.159  20.619  11.449
69310W        W28571  38.432  26.629  10.545
69311W        W28572  35.980  33.583   0.927
69312W        W28573   7.186  27.528  13.022
69313W        W28574   8.846  16.243   0.882
69314W        W28575  10.316  33.450  12.890
69315W        W28576  33.413  30.653   4.668
69316W        W28577   7.258  16.138   2.271
69317W        W28578  40.442  39.937  12.071
69318W        W28579  39.964  24.180  11.964
69319W        W28580  32.063  33.439  12.868
69320W        W28581  42.381  30.501   2.276
69321W        W28582  37.850  32.439   3.324
69322W        W28583  36.537  18.592   4.765
69323W        W28584  13.131  12.185   0.423
69324W        W28585  15.823  32.541  13.537
69325W        W28586  31.522  26.132   1.899
69326W        W28587  26.470  37.385   2.706
69327W        W28588  43.368   2.242  10.946
69328W        W28589  14.794  27.031   2.710
69329W        W28590   6.356  44.420   4.287
69330W        W28591  18.206  30.496   2.295
69331W        W28592  34.421   6.853   4.156
69332W        W28593  30.161  21.210  12.035
69333W        W28594  21.578  25.651  14.384
69334W        W28595  24.224  17.648   4.736
69335W        W28596  10.859  11.349  13.538
69336W        W28597  14.607   5.792  12.053
69337W        W28598  32.934   6.834  14.025
69338W        W28599  23.134   1.798  14.868
69339W        W28600  26.965  27.124   3.163
69340W        W28601  23.671  16.566   1.792
69341W        W28602  14.594  14.101   3.385
69342W        W28603  28.093   3.224   3.638
69343W        W28604  34.390  39.900   3.328
69344W        W28605  16.722   3.860   0.786
69345W        W28606  15.125  20.663   3.354
69346W        W28607  20.599  24.021   0.298
69347W        W28608  42.842  11.151   0.896
69348W        W28609  28.144  28.164   0.458
69349W        W28610  18.768   6.855   2.668
69350W        W28611  18.116   6.889   0.329
69351W        W28612   5.902  11.761  12.423
69352W        W28613  17.655  20.588   0.912
69353W        W28614  16.639  31.993   1.742
69354W        W28615  21.116  29.565  12.040
69355W        W28616  18.616  11.818   1.310
69356W        W28617  22.117   0.969  14.998
69357W        W28618  23.178  36.006  14.364
69358W        W28619   7.711  13.798   3.804
69359W        W28620  34.968  40.993  12.948
69360W        W28621   7.240  24.199  11.937
69361W        W28622  24.676  32.501  13.013
69362W        W28623   0.795  36.947   2.821
69363W        W28624   7.692   1.238   0.375
69364W        W28625   1.779  40.940   0.756
69365W        W28626  15.602  11.811   3.770
69366W        W28627  26.190  27.467  13.934
69367W        W28628  42.480  25.703  13.340
69368W        W28629   8.687  37.565   0.468
69369W        W28630  18.572  15.807  12.998
69370W        W28631  34.073  33.528   9.970
69371W        W28632  25.059  38.488   2.339
69372W        W28633   0.425  16.727   0.437
69373W        W28634  42.918  44.276   1.364
69374W        W28635  29.144  33.889  11.949
69375W        W28636  16.787  28.566   4.602
69376W        W28637  26.971   7.711   3.334
69377W        W28638  40.358  40.366   4.597
69378W        W28639  28.483  14.744   4.161
69379W        W28640  39.469   7.277  11.544
69380W        W28641  22.218  31.152   2.785
69381W        W28642  31.588  14.248   0.421
69382W        W28643   7.298   9.758  13.364
69383W        W28644  41.448  38.429  12.456
69384W        W28645  44.966   4.716  13.470
69385W        W28646  21.117   1.450   1.816
69386W        W28647  15.239  35.503  12.377
69387W        W28648   7.773  31.627  11.890
69388W        W28649  24.178  18.180   4.645
69389W        W28650  31.453  24.230   1.875
69390W        W28651  44.871   3.947   2.415
69391W        W28652  22.165  28.148  11.122
69392W        W28653  21.650  36.046  14.870
69393W        W28654   5.727  39.849   1.935
69394W        W28655  18.631  11.844   4.786
69395W        W28656  34.477  15.635   1.407
69396W        W28657  20.623  29.961   1.839
69397W        W28658   5.418  30.114  12.857
69398W        W28659   2.898  19.198   0.332
69399W        W28660  43.434   4.772   3.382
69400W        W28661  27.002   5.215  11.444
69401W        W28662  22.515  15.738   3.720
69402W        W28663  26.116   6.846   0.365
69403W        W28664   0.475  19.055  13.339
69404W        W28665  43.346   6.284  12.066
69405W        W28666  43.448  31.631  10.490
69406W        W28667  16.670  25.104   0.435
69407W        W28668  40.993  28.100  12.843
69408W        W28669  20.529  41.928   0.430
69409W        W28670  12.622  13.779  10.480
69410W        W28671  13.181  30.582  11.509
69411W        W28672  23.647  32.422  13.792
69412W        W28673  15.201  13.745   4.773
69413W        W28674   9.875  32.470  12.072
69414W        W28675  22.681  43.381   1.720
69415W        W28676  41.296  33.117  14.408
69416W        W28677  39.019  38.345  14.810
69417W        W28678   6.680  18.583  13.334
69418W        W28679  40.388   1.439   4.143
69419W        W28680  12.200   6.410  14.992
69420W        W28681  35.014  25.643   3.661
69421W        W28682   5.236   1.884  14.386
69422W        W28683  36.562  43.444  11.564
69423W        W28684  13.295  39.524  14.308
69424W        W28685   5.223  19.087   4.698
69425W        W28686   6.264  16.726   4.639
69426W        W28687  42.932  13.781  11.525
69427W        W28688  20.676   8.239  11.585
69428W        W28689  26.549  28.668   2.681
69429W        W28690  22.184   3.949   1.757
69430W        W28691  41.440   7.781   4.113
69431W        W28692  20.241  27.548   3.857
69432W        W28693  25.617  14.253  10.406
69433W        W28694  30.054  35.913   1.409
69434W        W28695  36.372  41.944   3.276
69435W        W28696  12.657  10.230   1.803
69436W        W28697  11.334  15.583   3.807
69437W        W28698  36.376  34.921  14.276
69438W        W28699  25.650  15.118  14.510
69439W        W28700  21.649  26.003   0.911
69440W        W28701  11.646  31.567  11.085
69441W        W28702  28.176  29.473   0.928
69442W        W28703  11.202  14.629  14.930
69443W        W28704  30.917   7.295  11.885
69444W        W28705   7.699  34.458  11.987
69445W        W28706  25.676  28.062  14.810
69446W        W28707  40.498  36.458  14.845
69447W        W28708   3.893   8.666  12.013
69448W        W28709   1.920   3.848  11.062
69449W        W28710  24.985   7.738   4.663
69450W        W28711   1.759   3.377   0.311
69451W        W28712  38.481  35.422  11.995
69452W        W28713  20.726  18.209   1.894
69453W        W28714  34.084   6.422   3.207
69454W        W28715   2.239   5.222  13.011
69455W        W28716  31.084  26.566  13.433
69456W        W28717  20.531  25.517  11.612
69457W        W28718  39.366  17.622  10.414
69458W        W28719   3.714  32.582  12.495
69459W        W28720  24.593  38.939  11.602
69460W        W28721  38.546  32.504   2.382
69461W        W28722  28.141  17.259   1.757
69462W        W28723  41.889  43.928   2.880
69463W        W28724  38.851  19.207   2.356
69464W        W28725  17.720  29.950   2.318
69465W        W28726  38.563  44.827   3.301
69466W        W28727  25.534  38.434   4.835
69467W        W28728  14.172  44.444   5.176
69468W        W28729  28.649  43.476   4.343
69469W        W28730  34.568  14.652   3.699
69470W        W28731  26.974  42.340   4.718
69471W        W28732  39.453  31.421   3.250
69472W        W28733   9.219  20.071  14.952
69473W        W28734  22.006  27.001  10.964
69474W        W28735  19.656  14.248  10.409
69475W        W28736  13.819  24.105  14.308
69476W        W28737   8.844   6.780   4.168
69477W        W28738  13.697  43.511  10.480
69478W        W28739  41.374   3.803   3.787
69479W        W28740  42.331  29.502  12.910
69480W        W28741  23.644  26.700   1.322
69481W        W28742  44.852  28.459   0.263
69482W        W28743  30.556   0.868   1.882
69483W        W28744  41.875  10.278   2.249
69484W        W28745  17.748  21.113  13.318
69485W        W28746   2.257   4.859  10.990
69486W        W28747  34.546  44.989  11.048
69487W        W28748   7.808  26.128  10.411
69488W        W28749  24.547  19.185  14.277
69489W        W28750  10.780  19.141  12.072
69490W        W28751  19.616  29.088   1.917
69491W        W28752  26.549  13.708  14.913
69492W        W28753  44.477  16.708   0.823
69493W        W28754  39.425  26.648   4.285
69494W        W28755  28.949   7.406  12.979
69495W        W28756  32.432  15.646   1.436
69496W        W28757  15.328  17.167   0.813
69497W        W28758  16.619  10.275  12.918
69498W        W28759  42.446  42.295   2.751
69499W        W28760  25.554  19.224   3.303
69500W        W28761   0.333   2.941  12.358
69501W        W28762   1.832  31.918   0.864
69502W        W28763  18.711  16.316  14.808
69503W        W28764  26.688   4.820  10.030
69504W        W28765   7.902   2.455  11.496
69505W        W28766  18.107  16.161   1.897
69506W        W28767  44.878  34.896  13.527
69507W        W28768   0.278   2.362  13.313
69508W        W28769  31.082  21.223   2.794
69509W        W28770  35.583  11.274   1.702
69510W        W28771  27.129  18.737  14.862
69511W        W28772  10.301   7.316  12.477
69512W        W28773  43.903  44.941  14.298
69513W        W28774  14.158  16.603  13.983
69514W        W28775  38.524  14.601  14.501
69515W        W28776  31.064  23.576   1.444
69516W        W28777   7.790  29.006  14.831
69517W        W28778  11.159  27.460  11.461
69518W        W28779  14.222  13.142  11.920
69519W        W28780  42.945  28.942  11.008
69520W        W28781  36.063  11.296   1.324
69521W        W28782  27.570  21.106   3.369
69522W        W28783  44.768  12.272  12.861
69523W        W28784  30.003  39.367  11.891
69524W        W28785  13.831  37.058   1.385
69525W        W28786  38.864   2.360  13.008
69526W        W28787  28.633   1.751   4.176
69527W        W28788   7.733  34.575   2.895
69528W        W28789  30.606  42.781  10.113
69529W        W28790  40.049  34.048  12.497
69530W        W28791  41.012   0.865   3.319
69531W        W28792  15.328  25.585   1.735
69532W        W28793  34.603  40.403  12.963
69533W        W28794  27.943   6.747  11.538
69534W        W28795   3.389  23.574  11.874
69535W        W28796  24.030   0.261   1.330
69536W        W28797  23.080  35.059  10.974
69537W        W28798  10.141  28.506  12.037
69538W        W28799  25.050  41.316   3.684
69539W        W28800  21.185  23.705  12.840
69540W        W28801  39.866  31.114   2.413
69541W        W28802  43.455  26.034  13.968
69542W        W28803  36.081  38.905  14.959
69543W        W28804  18.191   7.874  12.088
69544W        W28805  36.951   6.681   4.193
69545W        W28806   1.468   7.395   2.674
69546W        W28807  41.957   5.332   1.280
69547W        W28808  24.101  17.773   1.783
69548W        W28809  19.744  32.558  14.276
69549W        W28810  44.931  37.875   1.756
69550W        W28811  10.229   9.742   1.922
69551W        W28812   5.860  18.590  12.496
69552W        W28813  21.062  11.757   3.281
69553W        W28814   0.940  34.543  14.484
69554W        W28815  17.672  16.725  13.996
69555W        W28816   7.859  12.233  14.507
69556W        W28817   9.799   3.295  10.568
69557W        W28818  41.443  44.769  11.514
69558W        W28819   8.789   9.886  14.480
69559W        W28820  40.446   5.854   0.871
69560W        W28821  35.410  22.728  14.423
69561W        W28822  24.076  19.660  12.357
69562W        W28823  20.653  26.054  11.521
69563W        W28824  29.085  37.922   4.245
69564W        W28825  27.612  39.428   3.775
69565W        W28826  16.742  37.931  10.631
69566W        W28827  41.330  12.645  12.983
69567W        W28828   8.269  17.277  13.932
69568W        W28829  19.661   6.293   2.856
69569W        W28830  40.993  15.643  13.811
69570W        W28831  32.431   5.233  13.895
69571W        W28832  33.392  35.527  10.616
69572W        W28833  41.308  40.885  12.847
69573W        W28834  40.894  12.634  12.958
69574W        W28835  24.513   0.343   2.387
69575W        W28836  27.964  25.649   2.249
69576W        W28837  37.934  35.430  14.411
69577W        W28838   0.881  35.923   2.882
69578W        W28839  12.703  30.500   2.808
69579W        W28840  35.564  34.451   1.342
69580W        W28841  22.169   9.885  10.567
69581W        W28842   7.359  30.972   1.799
69582W        W28843  32.436  16.072  12.032
69583W        W28844  19.209  17.272   4.352
69584W        W28845  38.842  31.048  11.982
69585W        W28846  30.046  19.705  14.834
69586W        W28847  28.448  37.954  10.021
69587W        W28848  23.725   2.938   3.639
69588W        W28849  13.260  26.495  14.366
69589W        W28850   7.795  35.954   1.391
69590W        W28851  44.350   5.274   0.425
69591W        W28852  44.456   7.309  10.627
69592W        W28853  16.610  28.957   1.307
69593W        W28854   9.318  37.083  10.560
69594W        W28855   5.819  33.000   0.371
69595W        W28856  36.514  13.694  14.445
69596W        W28857   5.708  10.257   3.338
69597W        W28858   0.791  30.518  10.569
69598W        W28859  31.424   9.322   0.395
69599W        W28860  32.516  35.604   1.253
69600W        W28861  25.080  37.859  14.282
69601W        W28862  41.308  40.803   4.278
69602W        W28863  26.465  29.174   1.752
69603W        W28864  33.459  24.114  11.492
69604W        W28865  41.508  41.787  11.010
69605W        W28866  17.137  41.477   0.321
69606W        W28867  31.036   1.945   4.793
69607W        W28868  34.983  10.758  11.437
69608W        W28869  12.743  41.475  11.117
69609W        W28870  36.861  26.583   0.393
69610W        W28871   8.347  21.224  12.404
69611W        W28872  42.027  41.306  14.476
69612W        W28873   4.364   2.431   3.675
69613W        W28874  36.397  41.965   0.772
69614W        W28875  30.120   2.451  14.445
69615W        W28876   3.334  13.142  12.094
69616W        W28877   0.333   1.956  10.524
69617W        W28878  23.163   5.905   4.310
69618W        W28879  34.408  33.417   3.188
69619W        W28880   2.267  36.017   4.779
69620W        W28881  18.120  18.119   4.643
69621W        W28882  26.106  10.758   0.478
69622W        W28883   9.822  22.229   4.290
69623W        W28884  31.914  43.792  12.409
69624W        W28885  43.003  40.905  10.608
69625W        W28886  41.924  41.481   2.901
69626W        W28887  39.991  42.444  10.632
69627W        W28888  15.703  12.344   3.256
69628W        W28889  12.688   4.437  12.456
69629W        W28890   8.837  23.168   0.827
69630W        W28891   3.290   3.326  13.064
69631W        W28892   1.841   1.378   0.836
69632W        W28893  28.468  33.949   9.976
69633W        W28894   9.720  12.794  11.605
69634W        W28895  12.771  39.909   0.351
69635W        W28896  20.107  37.575  10.895
69636W        W28897  29.599  29.424   5.267
69637W        W28898  15.089  19.580   1.271
69638W        W28899  35.497  15.649   3.377
69639W        W28900  40.361  35.600  14.993
69640W        W28901   8.729  33.014   2.215
69641W        W28902  39.422   5.264   0.820
69642W        W28903  35.022  11.337  14.835
69643W        W28904   0.769  28.488  11.460
69644W        W28905  11.837  28.631   2.259
69645W        W28906   9.259   8.894   4.311
69646W        W28907  32.565  32.124  11.487
69647W        W28908  39.862  14.212  13.377
69648W        W28909  17.223  10.777   1.256
69649W        W28910  42.433  38.571  12.352
69650W        W28911  30.511  27.638  12.985
69651W        W28912  40.484  28.537   1.927
69652W        W28913   1.273   0.861  10.630
69653W        W28914   6.751   1.416   1.287
69654W        W28915  13.779  22.192  11.527
69655W        W28916  23.116   5.384   0.805
69656W        W28917  24.083   4.330  13.863
69657W        W28918   0.951   9.840  11.607
69658W        W28919  44.367   7.245   4.692
69659W        W28920  32.609  15.750  11.121
69660W        W28921   7.381   1.751  11.950
69661W        W28922   5.297  39.808   0.399
69662W        W28923  16.084  41.475  10.913
69663W        W28924  15.271  43.837   3.161
69664W        W28925   1.325   6.730  14.814
69665W        W28926  39.553  11.190   3.198
69666W        W28927  16.798   1.900  11.861
69667W        W28928   1.327   5.317  10.974
69668W        W28929  11.300   0.946   1.696
69669W        W28930  41.035  13.272  12.380
69670W        W28931  11.207  15.188  12.838
69671W        W28932  16.185  14.111  14.455
69672W        W28933  36.427   6.333  11.429
69673W        W28934  41.456  44.906  10.447
69674W        W28935  20.135  37.450   2.180
69675W        W28936  27.619  30.604   0.457
69676W        W28937   0.824   1.242   1.436
69677W        W28938   3.387  42.779   1.312
69678W        W28939  33.977   8.832   2.686
69679W        W28940  32.056  41.483  13.325
69680W        W28941  30.648  18.613   0.752
69681W        W28942  23.521   0.280   3.634
69682W        W28943  18.776  34.468  14.454
69683W        W28944  43.445  14.281  11.023
69684W        W28945  32.913  25.179  12.886
69685W        W28946  26.200   7.191   3.220
69686W        W28947   0.908   0.822   1.406
69687W        W28948  42.943  19.278   2.254
69688W        W28949  21.209  36.429  13.497
69689W        W28950   2.915  44.322   0.315
69690W        W28951   6.855  14.764  13.919
69691W        W28952  13.646  21.516   1.699
69692W        W28953  11.782  15.092  10.935
69693W        W28954  12.807   5.932   4.665
69694W        W28955  22.622  17.194  14.766
69695W        W28956  40.020  19.192   0.438
69696W        W28957  42.803  43.322   4.315
69697W        W28958  30.495  31.928   1.310
69698W        W28959  19.730  44.445  14.895
69699W        W28960  15.330  42.866   0.766
69700W        W28961  43.369  17.097  12.096
69701W        W28962  23.143  26.545   2.687
69702W        W28963   6.751  40.797   0.771
69703W        W28964  24.100   9.216  11.563
69704W        W28965   7.831   5.205   3.327
69705W        W28966  40.386  18.179   4.272
69706W        W28967  44.982  15.225  14.869
69707W        W28968   8.825  36.874  10.963
69708W        W28969  36.521  39.545  11.558
69709W        W28970  43.278  41.881   0.245
69710W        W28971  43.886   4.928  12.005
69711W        W28972   4.443  15.275   1.239
69712W        W28973  12.300  40.343   0.737
69713W        W28974  36.573   0.987  10.420
69714W        W28975   0.312  37.570  13.813
69715W        W28976  21.199   0.262   0.424
69716W        W28977  16.209  13.793  11.498
69717W        W28978  35.449   9.872  13.983
69718W        W28979  42.338  30.575  12.448
69719W        W28980  29.945   3.770  13.337
69720W        W28981  12.282  23.691  14.881
69721W        W28982   1.248  33.112  10.580
69722W        W28983  16.122   1.411  13.030
69723W        W28984   1.397  13.722   4.694
69724W        W28985  18.234  20.669   1.239
69725W        W28986   8.815  31.565   0.311
69726W        W28987  10.263  22.546  11.548
69727W        W28988  28.017  36.360  11.089
69728W        W28989  31.519  15.736   4.800
69729W        W28990   5.362  44.795   4.165
69730W        W28991  33.597  30.628  12.926
69731W        W28992   5.345  43.461  14.884
69732W        W28993  35.376  25.642   4.215
69733W        W28994  27.162   2.330  10.603
69734W        W28995  20.138  21.167   0.419
69735W        W28996  16.093  31.066   3.260
69736W        W28997  20.205  40.885   0.327
69737W        W28998  18.112  17.707   4.237
69738W        W28999   8.181  21.115  10.636
69739W        W29000  22.594  13.777   1.884
69740W        W29001  21.612  13.217  12.074
69741W        W29002  39.051  44.274  13.511
69742W        W29003   6.356  44.494   3.664
69743W        W29004  43.422  42.800   2.884
69744W        W29005  29.060  32.900  14.992
69745W        W29006   0.382  44.332  11.876
69746W        W29007   9.728  14.818  11.528
69747W        W29008  42.356  41.510  11.990
69748W        W29009  34.386  19.248   0.289
69749W        W29010  25.099  19.701   4.679
69750W        W29011  11.317  12.272  14.832
69751W        W29012   8.228  29.929   3.285
69752W        W29013  14.252  38.895  12.924
69753W        W29014  21.137  21.233   5.098
69754W        W29015  40.368  20.653  14.364
69755W        W29016  10.178  34.030   0.436
69756W        W29017  18.584  15.314  13.454
69757W        W29018  40.030  38.991   2.794
69758W        W29019   3.835  23.055   0.264
69759W        W29020   9.859  39.918   0.291
69760W        W29021   9.681   1.434   1.408
69761W        W29022  21.697  16.167   2.709
69762W        W29023   3.858  25.169   9.939
69763W        W29024  24.184  11.271  10.968
69764W        W29025   2.230  34.921  13.434
69765W        W29026  27.511  34.371  11.934
69766W        W29027  44.429   0.372   0.912
69767W        W29028  28.632  38.345   1.726
69768W        W29029  31.573  43.358   4.144
69769W        W29030   8.778  12.825   1.319
69770W        W29031  23.176  32.066  12.355
69771W        W29032  25.070  20.632   3.219
69772W        W29033  24.527  23.602   0.303
69773W        W29034  23.140  22.128  11.123
69774W        W29035  28.547  24.175   3.701
69775W        W29036   4.405  39.906   0.251
69776W        W29037  40.409   3.400  13.857
69777W        W29038   1.944  15.263  12.448
69778W        W29039   2.957  44.296   2.217
69779W        W29040  16.139  35.383   0.743
69780W        W29041  35.987   2.732   1.275
69781W        W29042  25.037  15.597  14.292
69782W        W29043   1.329  14.719   1.372
69783W        W29044  11.664  41.430  13.002
69784W        W29045  14.329  41.463  11.521
69785W        W29046  18.073   3.763  11.397
69786W        W29047  44.390  16.301  12.577
69787W        W29048  17.123  35.469   4.773
69788W        W29049  39.433   4.387  10.561
69789W        W29050  24.220   8.208   3.857
69790W        W29051  40.955   2.952   3.209
69791W        W29052   2.843  34.120  13.533
69792W        W29053  20.218  10.726   3.304
69793W        W29054  41.451   7.370   2.688
69794W        W29055   6.704  12.241   5.686
69795W        W29056  11.328  28.157   0.417
69796W        W29057  43.995  26.104  13.009
69797W        W29058   7.901   1.915   1.768
69798W        W29059  24.689  14.813   0.451
69799W        W29060  32.405  13.259   2.850
69800W        W29061  19.725  44.310   1.713
69801W        W29062  36.462  24.976  13.307
69802W        W29063   0.258  44.822   3.186
69803W        W29064  37.443  26.170  12.845
69804W        W29065   8.199  28.440   4.655
69805W        W29066   0.322  29.562  11.964
69806W        W29067  10.215  20.232  12.842
69807W        W29068  21.238  18.694  14.358
69808W        W29069  33.070  33.610  13.933
69809W        W29070   5.300  23.145   3.264
69810W        W29071  18.721  44.488   9.934
69811W        W29072  11.293  39.465   0.385
69812W        W29073   8.770  21.164  13.346
69813W        W29074  44.420  18.745   0.448
69814W        W29075  27.962  11.791  12.910
69815W        W29076  14.251   0.766  12.998
69816W        W29077  12.183  22.224  13.512
69817W        W29078  24.020  18.122  10.577
69818W        W29079   8.382   8.352   1.860
69819W        W29080  37.897  39.385  11.075
69820W        W29081   5.722  44.008   2.817
69821W        W29082  38.924   0.943  11.387
69822W        W29083  13.804  14.255  12.576
69823W        W29084  39.973  12.315  11.068
69824W        W29085  24.696  21.681  10.580
69825W        W29086  28.546   4.914   0.888
69826W        W29087  28.935  38.500   3.366
69827W        W29088   9.757  26.649   2.356
69828W        W29089  34.430  13.728   1.351
69829W        W29090   9.672  12.315   3.701
69830W        W29091   0.786   1.412  14.842
69831W        W29092  26.058   5.719  13.982
69832W        W29093   2.923  29.424  14.308
69833W        W29094  17.115  10.732   3.271
69834W        W29095  29.139   2.756  11.565
69835W        W29096  21.750  13.698  11.500
69836W        W29097   9.178   6.419   2.687
69837W        W29098   7.820  29.654  10.453
69838W        W29099   9.180  18.104   2.729
69839W        W29100  13.323  33.604  12.557
69840W        W29101  10.278  38.979  12.381
69841W        W29102  35.098   5.793  10.642
69842W        W29103  21.733   3.253  13.545
69843W        W29104  16.568  44.993  14.017
69844W        W29105  12.332  31.409   3.748
69845W        W29106  41.468   1.443  10.464
69846W        W29107  32.923  37.576   0.270
69847W        W29108  25.613   2.788  12.470
69848W        W29109   7.171  35.930  14.976
69849W        W29110  38.554  17.189  13.333
69850W        W29111  17.202   6.796   3.374
69851W        W29112  10.180  28.097  11.120
69852W        W29113  23.235   9.889   2.396
69853W        W29114  35.057  17.264   0.341
69854W        W29115   0.278   0.325  11.555
69855W        W29116  16.288   4.270  12.461
69856W        W29117  11.773  18.102   1.695
69857W        W29118  14.770  35.412  14.485
69858W        W29119  36.366  30.063   4.126
69859W        W29120   8.249  19.182  10.489
69860W        W29121  15.168  12.840  12.905
69861W        W29122  30.547  43.828  10.638
69862W        W29123   4.367  23.516  14.274
69863W        W29124  43.884   5.362   4.242
69864W        W29125  12.121  34.445  14.792
69865W        W29126   1.956  38.478  12.505
69866W        W29127  36.351   0.389   0.884
69867W        W29128   5.762   9.845   3.838
69868W        W29129  21.070   9.852   4.625
69869W        W29130  44.793  11.286   2.206
69870W        W29131   1.437  21.223   3.295
69871W        W29132   7.883   6.336   4.315
69872W        W29133  25.636  34.009  12.388
69873W        W29134  39.938  34.933   3.347
69874W        W29135  10.144  44.434   3.186
69875W        W29136  31.040  28.575   1.805
69876W        W29137  44.979  35.555  14.807
69877W        W29138   5.255  12.677  14.354
69878W        W29139   2.283  41.912  11.898
69879W        W29140  28.449  36.466  12.058
69880W        W29141  29.081  30.151  14.024
69881W        W29142  41.421  14.681  13.453
69882W        W29143  10.855  16.808  12.431
69883W        W29144   2.301   4.939  10.530
69884W        W29145  23.056  41.354   0.877
69885W        W29146   6.250  16.105  13.487
69886W        W29147  39.027  14.786  14.976
69887W        W29148  29.485  26.549   4.141
69888W        W29149  37.341  13.181   2.387
69889W        W29150  38.528  36.002   2.193
69890W        W29151  22.702  19.079   2.693
69891W        W29152  39.373  33.545   0.890
69892W        W29153  40.945   3.876  13.487
69893W        W29154   0.455  38.341   2.345
69894W        W29155  18.269  43.428  13.464
69895W        W29156   7.309  19.175  13.947
69896W        W29157  33.041  11.823  14.476
69897W        W29158   2.896  25.968  14.921
69898W        W29159  27.581  27.664  14.952
69899W        W29160   0.327  22.182  10.965
69900W        W29161  29.070  28.670   4.817
69901W        W29162  20.531   2.387  11.948
69902W        W29163   9.834  30.956   3.823
69903W        W29164   9.801  35.542   4.836
69904W        W29165  26.091   3.819   2.206
69905W        W29166   4.352   1.951   2.854
69906W        W29167  19.119   3.826   0.250
69907W        W29168  35.518  28.941   2.288
69908W        W29169   6.269  20.128  14.359
69909W        W29170  24.661  17.579  13.360
69910W        W29171  13.844   2.939  13.925
69911W        W29172  34.946   2.857  11.521
69912W        W29173  32.527  30.454  11.882
69913W        W29174  35.477  26.967   4.167
69914W        W29175  19.709  13.306  11.053
69915W        W29176  36.081  16.652   1.904
69916W        W29177  30.005   1.929  12.389
69917W        W29178  20.577  17.774  10.077
69918W        W29179  44.005  25.581   1.222
69919W        W29180  34.582  35.541  13.881
69920W        W29181  25.646  22.512   2.345
69921W        W29182  21.634  34.546   2.363
69922W        W29183  17.166  38.824   4.601
69923W        W29184  34.431   1.784   3.766
69924W        W29185   0.772   9.260  13.989
69925W        W29186  25.468   0.803  11.110
69926W        W29187   5.264   6.198   4.622
69927W        W29188  15.805  24.545   0.771
69928W        W29189   9.329   6.854   1.756
69929W        W29190  44.331  28.940   0.871
69930W        W29191  37.418  42.330  11.429
69931W        W29192  35.554  28.932   0.943
69932W        W29193  33.552  14.764   4.754
69933W        W29194  16.261  41.918   3.366
69934W        W29195  41.425  22.582  11.600
69935W        W29196  26.996  33.900   3.644
69936W        W29197   1.288  19.674   2.819
69937W        W29198  11.828   8.188   1.790
69938W        W29199  13.331  11.198   1.929
69939W        W29200   0.355  10.799  13.923
69940W        W29201  21.686   5.760   4.832
69941W        W29202  18.646  32.996  13.031
69942W        W29203  31.076   8.406  12.369
69943W        W29204  33.878  12.730   9.546
69944W        W29205  23.565   9.697  10.615
69945W        W29206  17.145  33.047  11.896
69946W        W29207  44.314   7.279  14.460
69947W        W29208  30.529  28.438  11.961
69948W        W29209   4.825  27.167  12.342
69949W        W29210   7.670  21.140  10.974
69950W        W29211  17.095   4.742   2.692
69951W        W29212  36.546  28.531  14.005
69952W        W29213  14.653  14.304  14.879
69953W        W29214  15.301  27.449   2.212
69954W        W29215  39.941  37.845  12.528
69955W        W29216  25.150  29.171  14.951
69956W        W29217  20.144  36.461  14.815
69957W        W29218   1.377  43.287   1.323
69958W        W29219  42.990  33.878  10.887
69959W        W29220   6.691  20.189   2.670
69960W        W29221  18.609  38.494   4.820
69961W        W29222  27.112  33.945  10.570
69962W        W29223  25.158  44.796  14.482
69963W        W29224  42.940  29.457  12.921
69964W        W29225  26.061   5.346  14.916
69965W        W29226  30.020  41.343   2.740
69966W        W29227  18.700  44.282   2.677
69967W        W29228  25.645  40.887   4.222
69968W        W29229  44.753  10.802  10.565
69969W        W29230  28.034  35.423   0.456
69970W        W29231  43.834  31.496   0.743
69971W        W29232  11.709  17.156   0.943
69972W        W29233   5.223   6.862  14.324
69973W        W29234  27.025  28.134   4.147
69974W        W29235  22.221  26.149   5.306
69975W        W29236  40.830  35.973  14.904
69976W        W29237   8.696   2.286  10.976
69977W        W29238  13.806  27.546  12.925
69978W        W29239  23.629  32.079   1.249
69979W        W29240  29.579  32.463   3.671
69980W        W29241   5.201   7.885   0.339
69981W        W29242   4.283  28.512   1.367
69982W        W29243  32.426   4.447   2.726
69983W        W29244  11.850   5.382  11.924
69984W        W29245  17.749  24.491   2.191
69985W        W29246  31.003  37.565  14.289
69986W        W29247  39.945   8.167   1.394
69987W        W29248  42.483  37.036  14.008
69988W        W29249  19.041   5.351   2.792
69989W        W29250  24.067   8.396  11.119
69990W        W29251  14.605  42.791  11.021
69991W        W29252  36.370  20.119   0.932
69992W        W29253  31.942  18.131  11.584
69993W        W29254  33.463   9.775   2.341
69994W        W29255  23.150   9.155  11.598
69995W        W29256   0.861  35.496   4.239
69996W        W29257  20.260  14.639   2.326
69997W        W29258  15.203   7.338  12.520
69998W        W29259   8.178   5.699   1.707
69999W        W29260  17.637   2.267   3.278
70000W        W29261  35.054  14.251  12.862
70001W        W29262  28.014  37.348   5.215
70002W        W29263  19.108  41.998   2.372
70003W        W29264  15.670  26.491  12.860
70004W        W29265  34.947   7.184   4.270
70005W        W29266  19.591  28.000  10.143
70006W        W29267  24.506  43.464  13.934
70007W        W29268  27.010  19.544  12.919
70008W        W29269   1.252  10.362   1.263
70009W        W29270  17.253  33.555   3.771
70010W        W29271  14.137  39.345   4.700
70011W        W29272  16.263   8.356   0.355
70012W        W29273  35.924  20.725   4.799
70013W        W29274  28.450   8.213  10.512
70014W        W29275  23.617  41.036   0.861
70015W        W29276  24.706  26.683   2.893
70016W        W29277   6.889  11.187  11.869
70017W        W29278  43.900   8.739  11.972
70018W        W29279   2.807   7.886  12.466
70019W        W29280  12.338  24.663   1.431
70020W        W29281  17.703  31.589   0.878
70021W        W29282   2.314  16.798   1.420
70022W        W29283  24.193  12.797  13.442
70023W        W29284  31.456  30.929  12.386
70024W        W29285  10.749  20.154  13.927
70025W        W29286   5.227  25.511  12.906
70026W        W29287  15.169   5.392  14.968
70027W        W29288  30.659  25.063  10.589
70028W        W29289  38.994  13.343  11.899
70029W        W29290  37.907   4.708   0.458
70030W        W29291  23.202  30.431   1.802
70031W        W29292   3.862  32.397   4.742
70032W        W29293  29.023  14.197   9.459
70033W        W29294  37.388   1.795  13.014
70034W        W29295   2.242  20.120  13.941
70035W        W29296  41.521  22.069  13.815
70036W        W29297  23.170  40.027  14.445
70037W        W29298  20.748  24.532   2.781
70038W        W29299   2.771  24.131  11.487
70039W        W29300  43.301   5.717  13.963
70040W        W29301  14.110  27.671   2.340
70041W        W29302  22.115  16.726  12.472
70042W        W29303  34.410   6.721   2.672
70043W        W29304   2.967  11.269  14.515
70044W        W29305   9.303  23.655   5.160
70045W        W29306  21.645   9.797   0.888
70046W        W29307  40.350  22.536   1.741
70047W        W29308  43.958   6.859  13.857
70048W        W29309  20.120  35.414   4.278
70049W        W29310  17.794  35.560  11.907
70050W        W29311  39.985  32.961  12.979
70051W        W29312  26.459  29.514   4.705
70052W        W29313  39.043  33.560   5.088
70053W        W29314  30.942  43.447  14.335
70054W        W29315  17.076  24.066   4.249
70055W        W29316  43.341  35.864   4.251
70056W        W29317  40.921  30.414   2.690
70057W        W29318  28.099  31.102   3.692
70058W        W29319   7.724  20.032   0.846
70059W        W29320   6.697  41.314  12.004
70060W        W29321  37.337  23.101   0.313
70061W        W29322  15.327  23.501   3.678
70062W        W29323  26.102  41.393   3.668
70063W        W29324  30.437   6.677  14.814
70064W        W29325  11.663  24.086  14.275
70065W        W29326  35.557  29.949  11.856
70066W        W29327  23.555   8.257   4.753
70067W        W29328  36.420  44.822  11.002
70068W        W29329  25.102  37.045  13.534
70069W        W29330   7.837  26.111  13.884
70070W        W29331   6.880   0.801  13.423
70071W        W29332  43.422  39.411  11.528
70072W        W29333  37.859  36.397  10.615
70073W        W29334  25.642  38.073   4.219
70074W        W29335  11.782   0.327  11.524
70075W        W29336  16.210  23.117   1.422
70076W        W29337  10.234  32.050   3.258
70077W        W29338  13.807   0.271   4.235
70078W        W29339  38.871  32.560   1.242
70079W        W29340   5.381  40.872   4.696
70080W        W29341  16.101   3.848   0.283
70081W        W29342  16.661  34.022  13.926
70082W        W29343  19.070  22.029   4.814
70083W        W29344  34.495  43.775   3.848
70084W        W29345  10.807   5.738  13.009
70085W        W29346  32.550  41.432  13.916
70086W        W29347  23.704   3.417  11.068
70087W        W29348  26.625  10.874   2.860
70088W        W29349  33.938   7.172   0.739
70089W        W29350  33.436  25.998  11.015
70090W        W29351  16.101  12.173   0.827
70091W        W29352  27.067   6.855   0.362
70092W        W29353   5.209  25.188  11.495
70093W        W29354  25.102  34.943  11.930
70094W        W29355  43.502  29.623  10.123
70095W        W29356  41.835  35.599   9.929
70096W        W29357  29.155  35.864  11.547
70097W        W29358  15.754  39.467   2.810
70098W        W29359  30.054  33.566   5.151
70099W        W29360  26.023   4.865  12.963
70100W        W29361  12.268  13.762  13.967
70101W        W29362   5.276   3.264   4.233
70102W        W29363  23.000  20.661   4.329
70103W        W29364  14.150   8.659   5.173
70104W        W29365  10.650  33.496  12.368
70105W        W29366  36.398  14.304  13.925
70106W        W29367  15.115  18.097  10.070
70107W        W29368   2.797  31.511   0.336
70108W        W29369  21.746  20.526   0.873
70109W        W29370  40.507   3.269  14.897
70110W        W29371   4.786  14.736  11.453
70111W        W29372  38.910  42.837  11.973
70112W        W29373  21.029  21.719   1.221
70113W        W29374   2.835  31.540  14.286
70114W        W29375  15.728  13.147   4.296
70115W        W29376   6.850  37.386   0.362
70116W        W29377  20.176   3.236  11.447
70117W        W29378   0.377  30.496  11.431
70118W        W29379  23.210  24.673  12.958
70119W        W29380  33.902  20.570  12.936
70120W        W29381  26.119  28.015  12.072
70121W        W29382  28.088   8.659   9.934
70122W        W29383  13.252  22.713   0.742
70123W        W29384  15.758   0.947   0.445
70124W        W29385  11.337  39.449  12.884
70125W        W29386  26.499  30.038  12.912
70126W        W29387   9.696   2.453  13.528
70127W        W29388  18.765   5.220   2.791
70128W        W29389  10.724  37.521   2.260
70129W        W29390  23.568  28.494  11.911
70130W        W29391  42.500  40.876  14.858
70131W        W29392  41.806  25.989   1.423
70132W        W29393  35.490  13.289   3.257
70133W        W29394   6.428  25.501  12.402
70134W        W29395   4.789   8.177  13.808
70135W        W29396  16.787  10.338   3.635
70136W        W29397   2.789   2.782   3.772
70137W        W29398  27.140  40.820   3.737
70138W        W29399   7.739  16.571  11.019
70139W        W29400  13.114  44.492   0.772
70140W        W29401  44.296  25.562  11.433
70141W        W29402   9.862  35.093  14.987
70142W        W29403   1.774  10.259   0.268
70143W        W29404  26.603  22.551  13.485
70144W        W29405   8.292  22.153  13.506
70145W        W29406  40.361   2.826   2.737
70146W        W29407  25.533  24.638   0.807
70147W        W29408  44.306   4.422   5.230
70148W        W29409  28.582  43.947  13.793
70149W        W29410  22.076  31.645  14.990
70150W        W29411  15.091  32.985   3.150
70151W        W29412  44.346  41.966  14.460
70152W        W29413   8.328   9.235  13.381
70153W        W29414  15.260  21.608   1.803
70154W        W29415   2.914  10.792   3.262
70155W        W29416  34.499  33.968   3.753
70156W        W29417   0.813   2.349  11.021
70157W        W29418  26.967  37.496   4.346
70158W        W29419   0.799  34.480  12.882
70159W        W29420  10.207  24.670  10.571
70160W        W29421  42.827   1.840   1.815
70161W        W29422  16.313   0.800  14.350
70162W        W29423  16.127  44.393   9.948
70163W        W29424  35.414  26.197   3.155
70164W        W29425  44.471  24.037  11.372
70165W        W29426  32.408   7.225  12.032
70166W        W29427  19.718   5.827   0.335
70167W        W29428  37.990  31.641   2.185
70168W        W29429  42.993  36.923   0.958
70169W        W29430   8.685  40.425  13.028
70170W        W29431   9.246  39.991   2.890
70171W        W29432  21.123  42.873  14.001
70172W        W29433  29.447  43.387  14.786
70173W        W29434  26.584   5.256   2.201
70174W        W29435  40.002   6.897   4.130
70175W        W29436   6.229  38.828   1.413
70176W        W29437  12.360  42.454  12.883
70177W        W29438  21.712  13.664  13.339
70178W        W29439  34.510  18.680   0.799
70179W        W29440  22.591   3.420  12.477
70180W        W29441   1.795  44.274  11.956
70181W        W29442  37.529   9.194  12.870
70182W        W29443  23.235  34.087  10.939
70183W        W29444  18.717  40.548  14.345
70184W        W29445  28.117  30.965  11.079
70185W        W29446   7.756  39.839  13.496
70186W        W29447  21.108   0.353  11.560
70187W        W29448  43.388  12.308   3.204
70188W        W29449  33.951   4.367  11.067
70189W        W29450   6.694  13.114   0.952
70190W        W29451  15.277  18.294  12.466
70191W        W29452  41.871  12.688  11.575
70192W        W29453  42.449  22.704   0.478
70193W        W29454  28.562   9.276  11.952
70194W        W29455  36.453  43.359   1.300
70195W        W29456  10.877  32.392   1.934
70196W        W29457  32.038   4.383  14.350
70197W        W29458  29.959   8.249  11.576
70198W        W29459  38.501  20.121   0.254
70199W        W29460  37.016  36.498   2.840
70200W        W29461  22.069  35.918   1.344
70201W        W29462  32.601   0.296   3.205
70202W        W29463  34.511  16.792   4.639
70203W        W29464  27.090  14.128   4.339
70204W        W29465  42.957  39.435   1.721
70205W        W29466  36.973  19.071  13.016
70206W        W29467  13.312  26.196   3.194
70207W        W29468  32.928  44.315  12.478
70208W        W29469   7.714  28.147   0.818
70209W        W29470  38.487   6.349  13.040
70210W        W29471  16.189   3.923   0.961
70211W        W29472  29.661  39.832   2.404
70212W        W29473   0.485  21.170  10.027
70213W        W29474  34.031  35.548   9.994
70214W        W29475  41.519   1.787   3.693
70215W        W29476   0.253  11.844  12.877
70216W        W29477  26.632  21.543   0.371
70217W        W29478   3.269  22.141  10.578
70218W        W29479  18.789  22.525  12.568
70219W        W29480  33.437  39.416  14.493
70220W        W29481   8.688  29.124   3.198
70221W        W29482   8.390  15.613   5.130
70222W        W29483  19.186   9.805   1.450
70223W        W29484  42.012   6.919   1.749
70224W        W29485  33.089  37.015   1.926
70225W        W29486  19.723  26.529   4.244
70226W        W29487  28.162  25.698  11.586
70227W        W29488  43.296  39.395  11.969
70228W        W29489  30.952  27.986  10.623
70229W        W29490  29.173   7.787   1.901
70230W        W29491  18.733  37.845   1.803
70231W        W29492  30.946  37.342   5.303
70232W        W29493  35.907  37.842   2.667
70233W        W29494  31.144  20.230   2.295
70234W        W29495  26.459  19.692   2.750
70235W        W29496  18.199  18.164  12.931
70236W        W29497  41.494  26.486  10.613
70237W        W29498   4.704   5.843   2.704
70238W        W29499  15.639  14.275  11.507
70239W        W29500   9.222  14.287  10.891
70240W        W29501  40.371  29.451   5.315
70241W        W29502  36.356   5.206  10.504
70242W        W29503  39.809  22.236  13.336
70243W        W29504  13.327  36.519  10.935
70244W        W29505  27.078  34.015   2.679
70245W        W29506  44.466  15.213  13.055
70246W        W29507  44.324   7.220  13.025
70247W        W29508   3.345  15.720  12.924
70248W        W29509  32.132  38.984   0.301
70249W        W29510  40.477  21.177  11.114
70250W        W29511   0.419  19.646  12.956
70251W        W29512  33.590  24.076  11.899
70252W        W29513   8.306  21.181  12.968
70253W        W29514  33.978   1.917   2.777
70254W        W29515  38.546  16.266   1.227
70255W        W29516   3.441  17.251  14.289
70256W        W29517   9.244  25.034  12.956
70257W        W29518  17.655  26.981   2.419
70258W        W29519  31.569  18.101   1.789
70259W        W29520  37.887  30.418  12.494
70260W        W29521   8.382  35.003  12.506
70261W        W29522  25.555  41.321  13.056
70262W        W29523  10.138  33.540  14.907
70263W        W29524  22.177  20.728   1.319
70264W        W29525   7.354  31.106   2.240
70265W        W29526  44.846  16.255   3.236
70266W        W29527  31.547  12.159   2.890
70267W        W29528   8.390   1.813   4.824
70268W        W29529  26.557  44.853  14.950
70269W        W29530  14.148  28.065  10.144
70270W        W29531  35.967  37.843  14.890
70271W        W29532   6.890  17.563  13.053
70272W        W29533  14.679  27.951   4.167
70273W        W29534  29.937  24.099  14.352
70274W        W29535   5.765   2.351   4.803
70275W        W29536  28.458  38.419  14.781
70276W        W29537  27.557  27.501  14.335
70277W        W29538  33.439  41.459   0.401
70278W        W29539   5.809   1.302  14.769
70279W        W29540  22.219   5.216  14.888
70280W        W29541   5.901  19.078  12.034
70281W        W29542   6.836  41.421   3.763
70282W        W29543  11.186  12.171   9.620
70283W        W29544  10.362   4.428  10.137
70284W        W29545  44.373   2.942   3.831
70285W        W29546  37.571   1.912   1.393
70286W        W29547  42.000  28.465   0.331
70287W        W29548   8.775  39.344  12.834
70288W        W29549  17.107   3.223  12.915
70289W        W29550  15.772  42.977   3.719
70290W        W29551  41.450  24.017   1.396
70291W        W29552  19.125  21.204  12.522
70292W        W29553   1.816   6.294   2.230
70293W        W29554  34.889  28.169   0.951
70294W        W29555  41.018   3.875   3.235
70295W        W29556  29.114  16.583   1.758
70296W        W29557  34.595   7.364   2.330
70297W        W29558  38.936  25.968  14.340
70298W        W29559  14.279  42.869  10.530
70299W        W29560   2.233  36.551   3.368
70300W        W29561   8.230  44.870  14.873
70301W        W29562  39.487   1.295   2.875
70302W        W29563  12.123  41.513   3.340
70303W        W29564   5.430   6.796   4.281
70304W        W29565   0.430  21.211   2.670
70305W        W29566  19.208  41.325   4.643
70306W        W29567  15.282  43.851  13.985
70307W        W29568  30.061  17.134  10.583
70308W        W29569  28.180  36.850  12.393
70309W        W29570  15.102  37.863   3.202
70310W        W29571  18.577  25.150   5.306
70311W        W29572  40.385   4.447  12.361
70312W        W29573  29.578  42.471  13.329
70313W        W29574  18.602   2.334  10.598
70314W        W29575   1.906  31.573   4.274
70315W        W29576  28.979  42.950  11.988
70316W        W29577  31.561   5.919   3.748
70317W        W29578  17.273   4.351   3.286
70318W        W29579  26.126  36.907  12.527
70319W        W29580  16.275  40.358  13.539
70320W        W29581  32.012  15.604   1.712
70321W        W29582  18.669  42.836   5.250
70322W        W29583  22.712  35.524   3.375
70323W        W29584   4.857  28.131   0.445
70324W        W29585  14.655  40.856   4.627
70325W        W29586  26.606  25.654   1.395
70326W        W29587  12.207  31.944  10.469
70327W        W29588  29.631  14.306  14.971
70328W        W29589  37.362   3.396  13.377
70329W        W29590  35.485  25.045  11.543
70330W        W29591  38.867   6.861   2.714
70331W        W29592   6.735  42.996  13.525
70332W        W29593  21.023  39.360   1.739
70333W        W29594   7.892  30.639  13.896
70334W        W29595  43.891  14.288  11.548
70335W        W29596  32.468  20.694  11.008
70336W        W29597  26.594   0.899   4.803
70337W        W29598  31.445  23.116   2.758
70338W        W29599  30.625  17.653   4.755
70339W        W29600  16.149  33.126  12.050
70340W        W29601  28.525  12.233   3.719
70341W        W29602  10.244   5.355   3.339
70342W        W29603  17.150   6.753   0.728
70343W        W29604  17.701  15.779   2.666
70344W        W29605   6.190  44.426  11.550
70345W        W29606   3.315   6.811  13.977
70346W        W29607  18.618  11.715   0.335
70347W        W29608  24.584  15.581   0.837
70348W        W29609   3.279  16.241   2.823
70349W        W29610   6.284  23.495   1.826
70350W        W29611  43.928  30.516  14.850
70351W        W29612  12.630  38.462  14.921
70352W        W29613  21.214   5.819   3.641
70353W        W29614  28.001  23.227   1.789
70354W        W29615  41.812  18.288  14.400
70355W        W29616   8.200   4.251   0.304
70356W        W29617  39.361   8.720  13.539
70357W        W29618  41.842  32.081  13.446
70358W        W29619  40.846  18.276  14.351
70359W        W29620  33.901  18.236  13.037
70360W        W29621  15.125   4.909  13.934
70361W        W29622   0.787   1.336  14.497
70362W        W29623  31.548  36.580   0.849
70363W        W29624  21.733   2.913  14.806
70364W        W29625   8.807   7.184   9.555
70365W        W29626  42.415  22.613  11.409
70366W        W29627   4.442  22.043  12.886
70367W        W29628   5.710  34.104  10.956
70368W        W29629  42.447   4.348   0.832
70369W        W29630   8.898  37.030  12.010
70370W        W29631  18.143  14.149  11.911
70371W        W29632  15.738  20.607   1.391
70372W        W29633  37.536  29.633   2.416
70373W        W29634  10.746  37.055   0.440
70374W        W29635  44.495   7.396   1.226
70375W        W29636  21.025  32.459   2.327
70376W        W29637  15.109  21.710  11.911
70377W        W29638  39.546  44.461   3.223
70378W        W29639  21.166  41.917   1.746
70379W        W29640  21.036  40.045  10.504
70380W        W29641   2.333   9.214   4.342
70381W        W29642  28.489   8.892  14.761
70382W        W29643  17.257  16.784  14.431
70383W        W29644  40.462  37.450   4.152
70384W        W29645  20.673  40.873  10.562
70385W        W29646   5.273  36.390   0.303
70386W        W29647   8.197   9.360  12.553
70387W        W29648   9.166  34.601  12.053
70388W        W29649  16.260  28.556   3.836
70389W        W29650   9.740  12.677   1.325
70390W        W29651  42.834  43.509  12.995
70391W        W29652  40.949  44.820   2.235
70392W        W29653  37.892  24.562   1.278
70393W        W29654  26.104   6.207   0.824
70394W        W29655  30.063  18.673   1.322
70395W        W29656  37.880   5.220  13.425
70396W        W29657   0.976   1.405  11.569
70397W        W29658   1.882  16.211   3.704
70398W        W29659  39.928  15.635  10.422
70399W        W29660   0.296  28.614  13.516
70400W        W29661   4.758  35.597   1.313
70401W        W29662  41.974  38.512   2.858
70402W        W29663  35.458  29.587  10.912
70403W        W29664  41.435  43.298   1.783
70404W        W29665   7.683  21.259   0.943
70405W        W29666  43.469  35.596   0.247
70406W        W29667  28.930   7.309  11.566
70407W        W29668  34.943   3.335   1.867
70408W        W29669   7.891  21.050  14.377
70409W        W29670  24.087  22.145   2.868
70410W        W29671  39.375   9.315  10.945
70411W        W29672  10.769  39.367   2.831
70412W        W29673  10.772   9.163   4.168
70413W        W29674  21.071   6.761   2.677
70414W        W29675   1.856   9.149   4.821
70415W        W29676  24.612  16.113  11.860
70416W        W29677  21.189  20.115  12.403
70417W        W29678  41.371  24.550  11.456
70418W        W29679  41.787  16.608  11.584
70419W        W29680  24.092  23.595  10.429
70420W        W29681  26.115  15.803   1.886
70421W        W29682  30.024  39.975  13.064
70422W        W29683  14.245  41.003  14.759
70423W        W29684  37.968  17.175   2.381
70424W        W29685  15.691  35.073   0.906
70425W        W29686  14.215  23.596  12.470
70426W        W29687   7.296  18.674  12.358
70427W        W29688  29.617  27.457  13.338
70428W        W29689  11.807  39.544   2.312
70429W        W29690  27.997   0.948  14.785
70430W        W29691  19.700  40.898  14.938
70431W        W29692  35.098  26.108   0.828
70432W        W29693  17.120   4.746  12.073
70433W        W29694   4.333  40.531  12.935
70434W        W29695  43.832  25.015  14.031
70435W        W29696  31.460   8.891   5.585
70436W        W29697  10.858  26.595   4.774
70437W        W29698  16.235  30.496  10.491
70438W        W29699   6.420  18.116   3.280
70439W        W29700  36.592  30.992  10.545
70440W        W29701  18.221  32.136   1.332
70441W        W29702  33.981  25.625   3.155
70442W        W29703  19.072  10.367   3.710
70443W        W29704  21.556   5.314   3.247
70444W        W29705   9.720  43.320   1.344
70445W        W29706  37.544  35.982   1.771
70446W        W29707   3.407  29.481  12.972
70447W        W29708  20.082   6.258  12.557
70448W        W29709  39.465  37.545  13.430
70449W        W29710  42.508   2.739  13.384
70450W        W29711  43.870  22.601  14.515
70451W        W29712   9.168   6.321  14.865
70452W        W29713  28.971   0.917  11.952
70453W        W29714  28.947  42.917  14.764
70454W        W29715  26.156  43.488   4.267
70455W        W29716  30.500  44.997  10.526
70456W        W29717  15.211  43.960  14.396
70457W        W29718  34.431   8.886  11.053
70458W        W29719   0.749   0.826   3.710
70459W        W29720   6.692  34.048   0.965
70460W        W29721  11.199  30.633  13.967
70461W        W29722  24.672   9.858   0.757
70462W        W29723  15.214  23.540  12.895
70463W        W29724  30.005  12.631   1.923
70464W        W29725  24.605  17.301  14.032
70465W        W29726  40.304  17.254   2.787
70466W        W29727  29.593  31.117  14.947
70467W        W29728  36.382   3.884  11.425
70468W        W29729  32.534  11.640  11.010
70469W        W29730  27.482  11.315   1.448
70470W        W29731  44.890   0.932  10.640
70471W        W29732  22.052   5.711  13.033
70472W        W29733  40.340  43.382  10.963
70473W        W29734  32.948  29.025  12.063
70474W        W29735  38.498  11.250  11.521
70475W        W29736  16.599  26.636   3.826
70476W        W29737  32.924   3.307   3.736
70477W        W29738  14.628  10.751   2.872
70478W        W29739  17.661  40.981   2.409
70479W        W29740  44.906  41.372   5.284
70480W        W29741  13.324  35.535  14.918
70481W        W29742   2.946  38.939  11.866
70482W        W29743  13.141   0.381  10.541
70483W        W29744   4.902  34.082   4.332
70484W        W29745  16.127  30.654   2.293
70485W        W29746  43.294  43.020   0.411
70486W        W29747  43.003  12.703  14.926
70487W        W29748  35.872  21.206   1.400
70488W        W29749  37.056  18.146  14.459
70489W        W29750   8.693  41.521  10.421
70490W        W29751  29.154  11.255   2.409
70491W        W29752  35.513   1.400   4.285
70492W        W29753  36.888   1.856   0.383
70493W        W29754   0.803  24.139   1.761
70494W        W29755   1.251  26.555   0.758
70495W        W29756  29.950  29.448  10.448
70496W        W29757  19.596  41.370   2.323
70497W        W29758  28.954   6.416   0.926
70498W        W29759  11.659  18.117  11.893
70499W        W29760  29.490  15.669  10.963
70500W        W29761  33.130  24.691  11.467
70501W        W29762  36.426  13.146  13.966
70502W        W29763   0.787  39.947  11.970
70503W        W29764  26.519   1.918   0.845
70504W        W29765  25.595  18.697  14.769
70505W        W29766   6.330  16.792  12.507
70506W        W29767  44.267  31.902  11.915
70507W        W29768  28.084  44.486  14.951
70508W        W29769  37.558  21.163   0.466
70509W        W29770  34.428  44.478   5.151
70510W        W29771  36.947  10.368  11.036
70511W        W29772  30.052  39.031  12.560
70512W        W29773   1.461  24.075   0.759
70513W        W29774   4.723  44.909  10.899
70514W        W29775   9.836   1.976  10.467
70515W        W29776  38.927   0.386   1.270
70516W        W29777  19.126  11.808  14.431
70517W        W29778  39.886   8.876   0.310
70518W        W29779   5.733  20.106   1.377
70519W        W29780  36.561  31.002  12.860
70520W        W29781  37.950  18.099  13.954
70521W        W29782  35.459  22.056   2.198
70522W        W29783  20.105  23.016  14.412
70523W        W29784  42.857  17.729   3.856
70524W        W29785  44.330  34.892  13.880
70525W        W29786   5.283  18.763   4.835
70526W        W29787   2.424  10.792  14.018
70527W        W29788   3.333  39.990  11.499
70528W        W29789  26.026   3.456  14.000
70529W        W29790  29.445  40.890   0.341
70530W        W29791  39.427  19.675   4.240
70531W        W29792  18.707  25.006  12.512
70532W        W29793  15.183   5.306   1.439
70533W        W29794  32.064  17.556   2.231
70534W        W29795  26.527   4.878  11.992
70535W        W29796  19.135  22.696  11.054
70536W        W29797  33.966  20.664  14.275
70537W        W29798   5.872  33.876  11.450
70538W        W29799  37.072  39.518  11.439
70539W        W29800   9.281  12.290  12.045
70540W        W29801  25.600  44.970  14.430
70541W        W29802  41.028  36.922  13.348
70542W        W29803   6.775  41.361  14.769
70543W        W29804  28.122  24.052  12.367
70544W        W29805   5.793  28.993   0.957
70545W        W29806  32.052  31.051  10.891
70546W        W29807  21.073  27.555  13.517
70547W        W29808  35.554  17.628  12.500
70548W        W29809  35.945  31.607   2.788
70549W        W29810   4.329  41.309   3.643
70550W        W29811  34.876   6.826   2.347
70551W        W29812  37.404  27.678   4.835
70552W        W29813  24.698  11.246   4.655
70553W        W29814  11.666  40.931  13.400
70554W        W29815  27.982  31.045  10.042
70555W        W29816  28.128   2.234  12.860
70556W        W29817  29.985  15.736  10.987
70557W        W29818  29.017  21.079   3.657
70558W        W29819  44.774   3.863   4.201
70559W        W29820  23.995  31.412  14.419
70560W        W29821  23.101  42.302   0.301
70561W        W29822  20.058   1.479  12.421
70562W        W29823  10.736  20.069  14.298
70563W        W29824  35.071  37.475  10.466
70564W        W29825  34.997  22.688  12.985
70565W        W29826  23.037  41.349   3.848
70566W        W29827  28.947  16.140  14.935
70567W        W29828  10.696  11.724   0.741
70568W        W29829  43.941   9.277   1.218
70569W        W29830  36.882  18.589   3.222
70570W        W29831  30.984  27.605  11.394
70571W        W29832  18.773   6.861   3.637
70572W        W29833  25.198  14.262  12.360
70573W        W29834  37.392   7.245  13.904
70574W        W29835  18.063  28.185  12.470
70575W        W29836  36.385  24.603  10.404
70576W        W29837  39.975  30.547   3.293
70577W        W29838  30.942   7.793  10.518
70578W        W29839  42.439  11.714  13.938
70579W        W29840  35.959  19.734  12.571
70580W        W29841  22.117  23.073   1.437
70581W        W29842   3.864  42.943  10.456
70582W        W29843  31.644  27.020  13.383
70583W        W29844  26.516   2.727   0.368
70584W        W29845  27.051  19.564  11.915
70585W        W29846  27.471  37.987  11.506
70586W        W29847   8.735  25.207   1.810
70587W        W29848  33.591  39.356   9.972
70588W        W29849   4.402  29.502   2.886
70589W        W29850  38.028  13.323  10.453
70590W        W29851  12.709  42.511  13.537
70591W        W29852   4.270  25.066  13.059
70592W        W29853  24.506   8.236   4.215
70593W        W29854   2.265  44.448  13.937
70594W        W29855  29.168  33.519   1.754
70595W        W29856   9.336  35.975   1.443
70596W        W29857   9.308  37.513   3.724
70597W        W29858  32.404  13.812  14.995
70598W        W29859  20.651  16.243  10.426
70599W        W29860  15.328  39.867   2.894
70600W        W29861  28.176  30.613  10.040
70601W        W29862  33.580   5.786  13.058
70602W        W29863  40.498  31.584   3.296
70603W        W29864  37.010  31.982   2.277
70604W        W29865   1.959  26.609   3.233
70605W        W29866  15.305  19.548  10.435
70606W        W29867   3.439  37.528   1.449
70607W        W29868  20.135   1.248   0.384
70608W        W29869  29.510   5.925  14.471
70609W        W29870  16.292  43.014   0.933
70610W        W29871   0.791  23.734   2.708
70611W        W29872  14.629  10.847  12.455
70612W        W29873   4.777  36.568  14.484
70613W        W29874  14.641  32.997  12.954
70614W        W29875  33.578   8.768   1.281
70615W        W29876  32.587  15.799   3.303
70616W        W29877  33.044  31.424   3.738
70617W        W29878  42.992  41.948   5.277
70618W        W29879  17.210  14.767  11.886
70619W        W29880  19.590  18.613  11.910
70620W        W29881  21.682   8.762  13.520
70621W        W29882   6.777  18.192  14.795
70622W        W29883  23.537  22.216  14.426
70623W        W29884  25.700   1.866  11.942
70624W        W29885  35.963  18.546  11.581
70625W        W29886   4.931   9.311  13.403
70626W        W29887  26.693  10.331  13.334
70627W        W29888  27.593   9.185   2.280
70628W        W29889  40.823  28.565   3.255
70629W        W29890  22.664  18.587   1.699
70630W        W29891   5.203   6.679  10.136
70631W        W29892  28.654  33.881   2.335
70632W        W29893  38.851   1.478  11.109
70633W        W29894  28.125  11.151  12.448
70634W        W29895  33.042  44.970  11.553
70635W        W29896  30.059  36.909  13.916
70636W        W29897  37.366  42.840   4.272
70637W        W29898  13.111   6.396   1.724
70638W        W29899  43.361  16.200   0.953
70639W        W29900  27.496  31.118   3.379
70640W        W29901  43.472  23.065  12.955
70641W        W29902  29.569  26.691  10.093
70642W        W29903  42.823  25.077   0.872
70643W        W29904  17.726  12.849   1.702
70644W        W29905  29.494  10.707  14.992
70645W        W29906   7.403  29.609  11.958
70646W        W29907  15.325   0.315   4.788
70647W        W29908   1.421  42.343   0.744
70648W        W29909  30.573  43.875  10.961
70649W        W29910  18.279   4.301  10.567
70650W        W29911   2.444   0.435   2.846
70651W        W29912  44.502  34.528   5.299
70652W        W29913  31.919  42.818  11.474
70653W        W29914   0.923  23.061  12.564
70654W        W29915  26.996  42.915   1.372
70655W        W29916  20.563  23.575   2.181
70656W        W29917   7.685  17.564   1.841
70657W        W29918  13.694  22.583   1.242
70658W        W29919  18.775  41.376   4.615
70659W        W29920   3.227  13.790  11.097
70660W        W29921  26.625  37.906  12.518
70661W        W29922  15.586  21.127  13.959
70662W        W29923  42.353  23.135  14.384
70663W        W29924  10.372   9.715  11.117
70664W        W29925  30.157  25.634   4.743
70665W        W29926  28.026  28.966  10.421
70666W        W29927  26.068  18.724   3.286
70667W        W29928  30.467  34.072   3.717
70668W        W29929  35.875  44.938  13.939
70669W        W29930  39.945   3.893   4.658
70670W        W29931  21.652  38.831  11.073
70671W        W29932  12.339  29.029  12.546
70672W        W29933   6.193   4.712  11.932
70673W        W29934  37.939  16.158   2.776
70674W        W29935  37.044   8.295   3.351
70675W        W29936  34.451  15.782   2.796
70676W        W29937   9.301  13.181  10.003
70677W        W29938  22.141  33.458  12.560
70678W        W29939  15.616  28.131   0.416
70679W        W29940  26.185  44.756   1.705
70680W        W29941  28.031  39.429   0.390
70681W        W29942  10.383  10.349   1.214
70682W        W29943   4.890  22.226  13.953
70683W        W29944  41.391  32.002  14.424
70684W        W29945  14.222  15.655  13.819
70685W        W29946  23.130  31.979   2.899
70686W        W29947  37.887   2.851  11.930
70687W        W29948  15.313  10.232   2.800
70688W        W29949  12.245  21.614  12.899
70689W        W29950  11.799  38.494  13.329
70690W        W29951   6.895  39.548  14.407
70691W        W29952   7.391  30.001   4.203
70692W        W29953  23.068  36.359  14.801
70693W        W29954  35.954   9.327  13.829
70694W        W29955  27.112   7.676  13.420
70695W        W29956   9.651  22.242  10.469
70696W        W29957  13.333  37.547  14.965
70697W        W29958  28.096  25.591   0.838
70698W        W29959  23.597   0.865   3.176
70699W        W29960   6.856   3.758  11.586
70700W        W29961   1.967  32.936  14.450
70701W        W29962   6.380  12.237  12.466
70702W        W29963  25.610  34.019  11.593
70703W        W29964   6.420  11.672  12.465
70704W        W29965  44.325  40.513  11.948
70705W        W29966   5.816  19.227  10.556
70706W        W29967  16.706  21.603   2.265
70707W        W29968   0.746  16.276   1.797
70708W        W29969  44.279  33.594   1.813
70709W        W29970  37.349   3.264  14.313
70710W        W29971  24.159  44.786  14.279
70711W        W29972   7.367   2.764  14.837
70712W        W29973   2.451   9.717   3.336
70713W        W29974  31.025  36.996  14.839
70714W        W29975  34.915  12.154  13.337
70715W        W29976  41.901   7.237  11.557
70716W        W29977  44.875  29.954   3.740
70717W        W29978   2.447  42.933  14.837
70718W        W29979   5.397  31.928   4.293
70719W        W29980  25.972  42.951  12.885
70720W        W29981  20.079   5.866   1.373
70721W        W29982   2.748  21.662  13.021
70722W        W29983  15.743  24.103   0.854
70723W        W29984  14.337  38.408   2.400
70724W        W29985  36.489  30.481   1.238
70725W        W29986  19.543  35.859   0.728
70726W        W29987  42.952  39.852  11.082
70727W        W29988  19.700  37.378  14.471
70728W        W29989  36.417  24.691   2.220
70729W        W29990  36.044   2.784   4.319
70730W        W29991   8.830   0.937   3.804
70731W        W29992  42.404  15.673  11.934
70732W        W29993  39.919  33.527  10.981
70733W        W29994  26.030  10.834   1.316
70734W        W29995  12.196  25.498  14.919
70735W        W29996  25.220  36.965   3.701
70736W        W29997   6.799   4.716  12.048
70737W        W29998  19.099  34.954   4.700
70738W        W29999  20.729  42.856   1.866
70739W        W30000  19.048  44.767  10.969
70740W        W30001  15.586  42.933  10.570
70741W        W30002   8.874   6.800  13.504
70742W        W30003  23.226  37.064  13.486
70743W        W30004  29.448  12.244   0.424
70744W        W30005   9.733  23.567   3.653
70745W        W30006   5.758   3.951   1.333
70746W        W30007  41.416   0.458  13.805
70747W        W30008   4.921   6.373   5.621
70748W        W30009  24.586  37.068   3.849
70749W        W30010  12.822   3.305  13.330
70750W        W30011  42.477   4.786   0.803
70751W        W30012  29.598  32.593   2.800
70752W        W30013  17.065   2.277   0.769
70753W        W30014  19.606   1.908  14.973
70754W        W30015  39.062  18.168  11.093
70755W        W30016   7.226  27.513   0.750
70756W        W30017  27.134   7.414   4.798
70757W        W30018  31.610   7.877  12.396
70758W        W30019  34.606  44.430   0.865
70759W        W30020  38.983   2.769  10.613
70760W        W30021  40.512  42.846   0.442
70761W        W30022  44.990   0.302  12.344
70762W        W30023  24.207   1.325  10.946
70763W        W30024  42.955   9.272  11.450
70764W        W30025  22.730  33.954  11.001
70765W        W30026  37.365  26.469  11.927
70766W        W30027  26.022  23.599  13.847
70767W        W30028   2.304   8.355   4.148
70768W        W30029   9.756  20.656  13.518
70769W        W30030  43.917  38.538  12.072
70770W        W30031  28.150  39.405  10.975
70771W        W30032  23.185   3.405  12.554
70772W        W30033   4.755  16.597   4.632
70773W        W30034  34.526  21.243   0.341
70774W        W30035  37.889  42.316   2.891
70775W        W30036  38.951  44.011  11.410
70776W        W30037  43.897  38.955   3.242
70777W        W30038  41.913  44.470  13.466
70778W        W30039   3.270  21.618  12.837
70779W        W30040  19.157  41.972   4.354
70780W        W30041  32.090  29.624  14.465
70781W        W30042  12.613  19.732   4.207
70782W        W30043  15.108   5.281  12.925
70783W        W30044  30.413  40.927  11.547
70784W        W30045  38.976  15.096   4.308
70785W        W30046  15.721  17.159   3.825
70786W        W30047  40.387   9.288   0.920
70787W        W30048  16.302  23.624  11.381
70788W        W30049   4.277   4.924  14.436
70789W        W30050  39.002  18.551  14.292
70790W        W30051  31.032  44.331  13.846
70791W        W30052   3.916   4.323   2.242
70792W        W30053   3.714  15.230  10.622
70793W        W30054  36.508   2.363   4.659
70794W        W30055  31.971   6.765   0.923
70795W        W30056  21.515  12.708   0.800
70796W        W30057   0.322  28.575   4.634
70797W        W30058   9.655  26.680   3.370
70798W        W30059  22.019   2.794  12.945
70799W        W30060  43.435  37.977   1.874
70800W        W30061  41.903  43.959   0.940
70801W        W30062  26.953   7.849  13.806
70802W        W30063  20.213   4.287  12.916
70803W        W30064  25.003  38.368  14.809
70804W        W30065  35.488  26.703  13.028
70805W        W30066  10.270  23.498  13.540
70806W        W30067  17.074   9.254   2.860
70807W        W30068  11.138  35.862   2.742
70808W        W30069  24.550  17.654  12.578
70809W        W30070  16.270   3.289   2.386
70810W        W30071  41.906   1.919  13.523
70811W        W30072  17.729  41.410  14.860
70812W        W30073  25.068  14.299  11.517
70813W        W30074  19.114  34.412  12.385
70814W        W30075  34.986  27.089   4.122
70815W        W30076  40.979  21.722  11.555
70816W        W30077   6.388   5.818   3.794
70817W        W30078  35.078  35.076  14.860
70818W        W30079  28.549  11.781  14.320
70819W        W30080   0.426   6.300   0.738
70820W        W30081  44.320   8.364   1.323
70821W        W30082  22.734  24.008  11.871
70822W        W30083  31.490  23.532  14.881
70823W        W30084  21.607   4.278   1.749
70824W        W30085  13.602  30.647  14.452
70825W        W30086  23.709  24.039   3.747
70826W        W30087   3.730  34.058  10.642
70827W        W30088  36.037  11.854   1.878
70828W        W30089  33.884  32.905  13.426
70829W        W30090  39.835  39.501  12.438
70830W        W30091  22.604   3.729   4.291
70831W        W30092  14.336  13.351   1.854
70832W        W30093  26.702  13.793  12.994
70833W        W30094  32.922   3.423  14.386
70834W        W30095  13.774  11.130  14.760
70835W        W30096  33.454  31.048  11.414
70836W        W30097  13.754  16.793   4.235
70837W        W30098  37.561  29.970   4.262
70838W        W30099  43.512  20.527  12.575
70839W        W30100  17.575   6.731  13.922
70840W        W30101  24.047  10.261  14.440
70841W        W30102  38.536  32.454   0.440
70842W        W30103  22.051  31.021  11.969
70843W        W30104   6.919  34.969  13.473
70844W        W30105  13.222  23.199  12.433
70845W        W30106  14.324  10.195  11.443
70846W        W30107  23.592  20.752  13.413
70847W        W30108  32.631  27.079   0.458
70848W        W30109   3.883  38.987   0.955
70849W        W30110  37.513  27.456   3.665
70850W        W30111  34.611  29.124  13.885
70851W        W30112   4.800  43.290  12.407
70852W        W30113   0.986  41.383   1.278
70853W        W30114  31.414  11.203  12.343
70854W        W30115   3.449   5.915   2.836
70855W        W30116   5.865  30.145  11.412
70856W        W30117  15.307  15.640  11.995
70857W        W30118  27.512  37.490   4.627
70858W        W30119  19.101   3.417   3.384
70859W        W30120  37.502  18.148   1.367
70860W        W30121   4.384  25.990  10.949
70861W        W30122  11.225  21.731   2.677
70862W        W30123  37.353   8.672   3.829
70863W        W30124  35.025   3.789  11.865
70864W        W30125  37.451  35.405   9.572
70865W        W30126  14.769   7.873  14.916
70866W        W30127  42.797  29.061  14.499
70867W        W30128  41.835   7.414   2.239
70868W        W30129  40.921  23.228  12.352
70869W        W30130  16.198  15.767  14.510
70870W        W30131  34.998  23.690  12.993
70871W        W30132  15.704  29.582   3.158
70872W        W30133  26.539  21.244  14.350
70873W        W30134  11.357  37.846  10.471
70874W        W30135  42.453  27.176  12.963
70875W        W30136  23.688  13.145  11.876
70876W        W30137  40.849  42.380   3.706
70877W        W30138  19.270   1.448  13.973
70878W        W30139  43.846  16.210  14.904
70879W        W30140  25.472  10.754   3.220
70880W        W30141  34.915   1.812   1.214
70881W        W30142  12.834  15.687   2.866
70882W        W30143  10.183  13.776   5.797
70883W        W30144  41.393  14.711  12.531
70884W        W30145  18.140  17.580   2.323
70885W        W30146  17.279  24.598  14.917
70886W        W30147  19.159   7.761   4.792
70887W        W30148  15.307  14.151  14.795
70888W        W30149   3.772  18.653   0.359
70889W        W30150  27.576  40.504   2.344
70890W        W30151  11.779  40.912   3.755
70891W        W30152  41.325   2.469   2.185
70892W        W30153   9.798  17.601  11.597
70893W        W30154  10.681  35.383   2.232
70894W        W30155   2.762  41.815   3.809
70895W        W30156  39.499   3.396   0.840
70896W        W30157  17.796  12.286  10.458
70897W        W30158   0.253  19.592  11.124
70898W        W30159  33.882  36.029  12.949
70899W        W30160  39.002   1.929   2.279
70900W        W30161   2.397  13.767  14.864
70901W        W30162  43.425   2.929   4.824
70902W        W30163   6.721  34.513   4.754
70903W        W30164   4.905  20.734  12.491
70904W        W30165  40.359  30.652  13.029
70905W        W30166   1.250   5.274  14.301
70906W        W30167   7.755  20.254  13.456
70907W        W30168  36.358  43.790   3.337
70908W        W30169   6.395  10.691  10.924
70909W        W30170  19.594  19.206  13.958
70910W        W30171  14.335  33.499  13.465
70911W        W30172  41.343  18.091  12.359
70912W        W30173  27.450  28.472   4.171
70913W        W30174  24.479  31.576   4.115
70914W        W30175  38.877   8.355   4.647
70915W        W30176  15.802  37.963  13.457
70916W        W30177   5.789  36.395   3.354
70917W        W30178  33.613  30.648   0.893
70918W        W30179  27.543  44.504   1.259
70919W        W30180  24.506  43.880   3.840
70920W        W30181  21.191  22.512  13.905
70921W        W30182  13.198  17.089  11.874
70922W        W30183  22.203  33.909   1.402
70923W        W30184  30.544  20.690  14.327
70924W        W30185   1.474  16.092  14.921
70925W        W30186  14.325  29.042  10.582
70926W        W30187  19.606  42.940   2.256
70927W        W30188  37.062  34.086   9.472
70928W        W30189  26.063   1.340   0.893
70929W        W30190  11.651   5.858   1.911
70930W        W30191  42.316  38.876   0.347
70931W        W30192  10.353  36.860   0.381
70932W        W30193  14.697  11.261   0.393
70933W        W30194  11.167  10.822  12.992
70934W        W30195   8.713  29.113   4.158
70935W        W30196  17.198  42.355   4.676
70936W        W30197   3.372  38.535  12.505
70937W        W30198  15.195  24.644   1.891
70938W        W30199   6.782  21.654  12.462
70939W        W30200  29.592  42.424  13.901
70940W        W30201  26.975  23.669   1.217
70941W        W30202  25.196  41.921   2.297
70942W        W30203  14.319   9.688   4.305
70943W        W30204  10.318   4.353  14.004
70944W        W30205  27.990  40.464  12.898
70945W        W30206   2.754   5.289   1.408
70946W        W30207   8.656  40.324   0.288
70947W        W30208  12.724   3.394  11.498
70948W        W30209   0.352  10.144  10.534
70949W        W30210  15.242  18.569  14.490
70950W        W30211  42.883  37.935   2.322
70951W        W30212   1.812  34.943  10.958
70952W        W30213  20.620   1.882   2.845
70953W        W30214  21.716  36.482   3.751
70954W        W30215  34.561   9.763   3.290
70955W        W30216  29.022  23.046   3.211
70956W        W30217  36.937   4.252   3.268
70957W        W30218  22.717  36.538  13.381
70958W        W30219  39.978  34.410  14.999
70959W        W30220  34.904  12.692   0.948
70960W        W30221   0.404   0.785   4.222
70961W        W30222  14.741  30.653   4.708
70962W        W30223  33.982   0.254   1.793
70963W        W30224  27.448   2.723  10.938
70964W        W30225  24.565  41.838   0.922
70965W        W30226   7.272   2.362   2.855
70966W        W30227  20.686  18.652  13.408
70967W        W30228  26.194  10.361   0.324
70968W        W30229  28.974  35.365  13.849
70969W        W30230  40.993  28.617  13.348
70970W        W30231  18.750  43.871  10.531
70971W        W30232   8.876   0.409  10.950
70972W        W30233  36.515  19.712  14.332
70973W        W30234  21.638  42.989   2.215
70974W        W30235  39.362  10.683   4.180
70975W        W30236   4.768  31.558  14.022
70976W        W30237   8.236  24.145   1.859
70977W        W30238  11.715  42.964   0.844
70978W        W30239   4.218   2.407   2.347
70979W        W30240   3.796  34.110   2.884
70980W        W30241  26.492  20.760   1.235
70981W        W30242  26.570  12.183  13.908
70982W        W30243  21.079  13.180   4.799
70983W        W30244   4.350  15.719   0.364
70984W        W30245  23.732  42.519   1.261
70985W        W30246   7.668  18.152   2.239
70986W        W30247  13.715  18.266  13.985
70987W        W30248  42.379  17.569  12.459
70988W        W30249  35.025  19.657   1.862
70989W        W30250  22.233  18.266  12.865
70990W        W30251  27.958  25.212  14.499
70991W        W30252  31.513  38.400   5.174
70992W        W30253  41.350  29.581   2.662
70993W        W30254  19.157  38.895   1.279
70994W        W30255  43.774  38.551   4.602
70995W        W30256  44.846  42.004  14.396
70996W        W30257   0.971  42.022  12.090
70997W        W30258  44.385   0.421  13.428
70998W        W30259   0.887  14.097   0.248
70999W        W30260   7.690  41.311   4.813
71000W        W30261  31.050  31.952   1.367
71001W        W30262  21.544   9.792  10.915
71002W        W30263  24.599  31.643   2.770
71003W        W30264  12.759  22.726   3.326
71004W        W30265  27.640  29.001  11.020
71005W        W30266   6.253  24.635  10.488
71006W        W30267  35.587  34.519  12.916
71007W        W30268  12.637   3.869  12.580
71008W        W30269  10.365  19.617  14.888
71009W        W30270  40.500   0.985  12.407
71010W        W30271   3.866   4.425   1.788
71011W        W30272  36.859  16.113   4.230
71012W        W30273  10.830   0.292  10.498
71013W        W30274   7.336   0.799   4.824
71014W        W30275  44.456   2.433  13.953
71015W        W30276   5.396  26.091  12.953
71016W        W30277   2.847   2.876  12.832
71017W        W30278   0.410  14.160  10.961
71018W        W30279  12.632   6.399  10.509
71019W        W30280  37.449  12.820   1.743
71020W        W30281  37.959  23.501  12.980
71021W        W30282  12.855   8.900  13.465
71022W        W30283  21.578  19.228   4.227
71023W        W30284   8.190  16.698   1.341
71024W        W30285  20.236   1.269  10.632
71025W        W30286  37.894  40.468   4.315
71026W        W30287  17.696  17.560   5.119
71027W        W30288  14.807  22.192   3.276
71028W        W30289  29.573  19.214   3.232
71029W        W30290   9.272  10.651   4.290
71030W        W30291  23.550  43.332  11.539
71031W        W30292  41.040   7.186   1.239
71032W        W30293   3.776  18.102   0.870
71033W        W30294  10.863  19.642  12.376
71034W        W30295  15.236  27.571  14.780
71035W        W30296  22.115   3.268   1.325
71036W        W30297  27.092   6.264   2.883
71037W        W30298  17.653  39.396   2.821
71038W        W30299  12.302  38.325  13.465
71039W        W30300  16.231  33.585  11.409
71040W        W30301  38.971   6.887  14.442
71041W        W30302  40.996  12.215  14.970
71042W        W30303  30.011   4.928   2.785
71043W        W30304  22.670  38.461  13.314
71044W        W30305  18.109   8.300   4.215
71045W        W30306   8.164   9.660   1.348
71046W        W30307  12.213  16.670  13.877
71047W        W30308  15.659  38.925   3.683
71048W        W30309   9.727   5.847  14.925
71049W        W30310  37.560  16.646  11.389
71050W        W30311  34.104  41.905  13.039
71051W        W30312  38.377  35.072  13.840
71052W        W30313  17.175  11.839   2.299
71053W        W30314  38.543   6.306  14.918
71054W        W30315  38.850  37.377  14.459
71055W        W30316  13.756  41.808   0.964
71056W        W30317  43.362  12.693   0.417
71057W        W30318   2.925  25.669   3.332
71058W        W30319   1.454  39.492  11.070
71059W        W30320  13.181  39.003  14.286
71060W        W30321  21.617   9.334   3.166
71061W        W30322  30.163  25.962   0.851
71062W        W30323  34.909  15.112  13.371
71063W        W30324  15.172  21.580   4.281
71064W        W30325  15.234  15.239  11.967
71065W        W30326   1.375  18.623   4.730
71066W        W30327  39.999   0.807  13.943
71067W        W30328  24.597  18.096  11.896
71068W        W30329  32.946   3.399  12.370
71069W        W30330  14.257  29.004   1.892
71070W        W30331   8.876   4.395  12.420
71071W        W30332  18.584  35.942  10.980
71072W        W30333   9.756  30.947   4.205
71073W        W30334  24.161  32.399  13.331
71074W        W30335   5.845  28.548  13.397
71075W        W30336  24.079  19.144  11.541
71076W        W30337   5.290  41.313   2.403
71077W        W30338  42.925   7.417  14.760
71078W        W30339   2.381  21.042  14.380
71079W        W30340  32.048   5.842  14.793
71080W        W30341  37.925  32.046  12.851
71081W        W30342   4.918  33.023  12.481
71082W        W30343  40.886  32.400   4.679
71083W        W30344  29.969  30.447   1.730
71084W        W30345  37.543  10.649   4.123
71085W        W30346   5.726   4.234  13.494
71086W        W30347  16.637  24.110  11.099
71087W        W30348  34.118  42.965   0.909
71088W        W30349  36.452  31.616  14.835
71089W        W30350  34.487  15.777  11.993
71090W        W30351  31.003  36.514  13.548
71091W        W30352   7.740  37.462   3.787
71092W        W30353  33.442  21.102  14.825
71093W        W30354  26.953   9.243   0.947
71094W        W30355  36.592  17.620   1.228
71095W        W30356  30.457   6.701   3.691
71096W        W30357  40.912  12.256   4.839
71097W        W30358  34.513  28.619   2.773
71098W        W30359  14.148   9.200  14.416
71099W        W30360   8.244  26.486  14.760
71100W        W30361   6.206  41.535   5.170
71101W        W30362  30.523   0.258   3.283
71102W        W30363   8.284   7.371  14.868
71103W        W30364  14.233  18.770   2.900
71104W        W30365  37.994   6.279  14.943
71105W        W30366  22.736  26.460  10.479
71106W        W30367  10.855  23.000  13.328
71107W        W30368   1.801  27.112  11.116
71108W        W30369  35.991   9.384   0.428
71109W        W30370  29.491   2.816   4.242
71110W        W30371  18.208  23.562   4.743
71111W        W30372   7.765  20.067  11.944
71112W        W30373  15.805  27.604   2.818
71113W        W30374  21.177  40.405  13.893
71114W        W30375  25.155  40.877   4.770
71115W        W30376  19.538  17.681  14.001
71116W        W30377   5.221  14.155  14.364
71117W        W30378   5.715  35.916   2.743
71118W        W30379  29.172  40.856   3.369
71119W        W30380   9.371   5.804  10.486
71120W        W30381  27.488   5.202  11.439
71121W        W30382  24.597  32.022   3.179
71122W        W30383  34.604  28.984  13.413
71123W        W30384   6.220  17.097  11.428
71124W        W30385  39.812  42.299   1.863
71125W        W30386  42.000   1.920   1.877
71126W        W30387   8.279  28.183   1.343
71127W        W30388  43.955   0.850  11.019
71128W        W30389  24.210   6.718  11.912
71129W        W30390  23.118  10.193   4.763
71130W        W30391   0.953  32.968  13.820
71131W        W30392  10.179  33.104   1.746
71132W        W30393   1.473  28.097   1.731
71133W        W30394   8.248  26.602  12.047
71134W        W30395  28.599  15.319   0.807
71135W        W30396  22.699  37.912   4.322
71136W        W30397  44.754  17.214   1.389
71137W        W30398   2.353  38.051   1.289
71138W        W30399  31.982  10.277  12.991
71139W        W30400  16.759  35.514  11.598
71140W        W30401  13.236   4.749   4.276
71141W        W30402  36.011   2.877  13.408
71142W        W30403  11.325  28.180   4.608
71143W        W30404  37.087  43.999  11.413
71144W        W30405   5.713  39.371  12.990
71145W        W30406  37.925   3.747   2.682
71146W        W30407  26.504  16.082  12.895
71147W        W30408  26.056   0.885  12.935
71148W        W30409  27.643  10.776   0.302
71149W        W30410   0.958  26.992  13.899
71150W        W30411  40.392  42.921  14.971
71151W        W30412  37.427  19.702  11.519
71152W        W30413  28.957  19.268   0.352
71153W        W30414  41.962  11.705   3.759
71154W        W30415  28.944  33.409   2.778
71155W        W30416  15.594  10.802   0.462
71156W        W30417  33.452   1.281   3.759
71157W        W30418   0.973  34.035   0.806
71158W        W30419  26.685  15.225  11.547
71159W        W30420   7.727  42.836  13.486
71160W        W30421  27.474  15.603   2.268
71161W        W30422  24.549   9.753  12.953
71162W        W30423   1.939  30.541  12.416
71163W        W30424  41.405  28.630  12.861
71164W        W30425   7.324  23.580   1.293
71165W        W30426  24.565  22.007   5.688
71166W        W30427  22.143  20.101  12.950
71167W        W30428  42.875  35.499   4.131
71168W        W30429  10.856  22.521   2.685
71169W        W30430  18.748   0.276   3.795
71170W        W30431  27.495  29.111  14.031
71171W        W30432   1.272  41.874  13.389
71172W        W30433  43.828   2.870  11.457
71173W        W30434  11.297   0.303  14.491
71174W        W30435  26.618  25.542  12.984
71175W        W30436  29.979  24.155  13.846
71176W        W30437  30.424   4.255  10.607
71177W        W30438   4.805  28.677   4.312
71178W        W30439   5.722   4.323  10.888
71179W        W30440  19.573   7.683  11.506
71180W        W30441  35.501  23.178   4.269
71181W        W30442   4.281  27.512   4.154
71182W        W30443  11.156  14.117   1.256
71183W        W30444  38.916   5.397   0.773
71184W        W30445   2.778  33.062  13.356
71185W        W30446   7.897  26.681   0.388
71186W        W30447  22.101  15.145  14.760
71187W        W30448  39.394   7.265   1.932
71188W        W30449  29.146   6.781   2.745
71189W        W30450   0.974  20.651  10.911
71190W        W30451  30.112  40.826  12.846
71191W        W30452  38.420  24.105  13.346
71192W        W30453  43.791   3.845   4.682
71193W        W30454  27.620  17.696  13.497
71194W        W30455  13.288  41.999   1.224
71195W        W30456  11.238  40.529  13.383
71196W        W30457  35.949   9.292   3.777
71197W        W30458  16.089   2.817  14.290
71198W        W30459  32.500   2.949  13.008
71199W        W30460   2.365  27.046  10.928
71200W        W30461   9.859  44.796   3.175
71201W        W30462   3.359  16.250  13.452
71202W        W30463  32.958  13.685  11.443
71203W        W30464   9.803  16.631   2.339
71204W        W30465  43.927   0.868   2.280
71205W        W30466   7.897   5.313  13.473
71206W        W30467  30.469   5.704  11.109
71207W        W30468   9.153  23.727   0.298
71208W        W30469  19.653  37.450   1.289
71209W        W30470  25.035  23.499   1.303
71210W        W30471  44.855  36.386   1.299
71211W        W30472  28.991  44.463  13.051
71212W        W30473  41.440  44.320  12.951
71213W        W30474   5.372  14.206   2.334
71214W        W30475  23.091  18.697  12.906
71215W        W30476  18.622  39.356   0.735
71216W        W30477  13.677   5.263   2.390
71217W        W30478  37.904  31.642  13.342
71218W        W30479  36.403  22.746  10.968
71219W        W30480  44.330  31.912  14.915
71220W        W30481  32.072  41.878   1.813
71221W        W30482  32.414   3.724   1.752
71222W        W30483  11.657  38.019  13.904
71223W        W30484  11.289   5.380  10.986
71224W        W30485   7.282  30.474  11.548
71225W        W30486   8.271  18.137  11.991
71226W        W30487  38.486  20.755  12.548
71227W        W30488  21.557  12.117   2.392
71228W        W30489  13.694  33.495   2.389
71229W        W30490  33.499   7.778  13.502
71230W        W30491  30.509  14.791  12.500
71231W        W30492  21.064  21.083   0.243
71232W        W30493  44.902  10.156  14.367
71233W        W30494  11.800  13.246   0.923
71234W        W30495  18.191  30.504  13.892
71235W        W30496   2.959  17.213  13.965
71236W        W30497  18.226  42.327   2.711
71237W        W30498   7.804   2.245   3.824
71238W        W30499  10.838  28.967   0.790
71239W        W30500  42.897  10.819   2.237
71240W        W30501   3.822  23.495   4.224
71241W        W30502   0.295  36.504   1.273
71242W        W30503  24.195  29.626   4.345
71243W        W30504  13.181  14.313  13.321
71244W        W30505   8.879  13.713   0.298
71245W        W30506  24.582   1.798  14.486
71246W        W30507   9.157   6.732   1.391
71247W        W30508  36.007  23.054   1.895
71248W        W30509  42.842   8.219   4.792
71249W        W30510  17.728  14.274   4.146
71250W        W30511  27.002  44.368   2.851
71251W        W30512  36.085  35.573  11.899
71252W        W30513   2.732  39.486   3.817
71253W        W30514  22.185  19.570  10.943
71254W        W30515  40.332  34.434   0.465
71255W        W30516  43.361   5.258  12.962
71256W        W30517  17.297  13.605  14.901
71257W        W30518  31.958  23.547  14.461
71258W        W30519  37.073  39.322   0.390
71259W        W30520  44.434  27.618   2.887
71260W        W30521  19.592  33.128  11.977
71261W        W30522  27.586  43.956  13.838
71262W        W30523  19.569   0.798   4.239
71263W        W30524  26.478  14.190   2.886
71264W        W30525  36.415  27.571  13.911
71265W        W30526  27.126  27.654  14.410
71266W        W30527  38.550  41.797  12.445
71267W        W30528  42.939  22.243  14.789
71268W        W30529   2.886  16.734   4.759
71269W        W30530  41.381   8.393  11.888
71270W        W30531   5.211   8.398  14.787
71271W        W30532  21.249  40.445  12.980
71272W        W30533  11.675  35.534   4.694
71273W        W30534  33.523   6.771   2.898
71274W        W30535  37.903   8.171  12.835
71275W        W30536   0.874   9.221   4.681
71276W        W30537  21.037  31.473  13.897
71277W        W30538   0.801  42.436   2.379
71278W        W30539  40.020   7.710  10.898
71279W        W30540  13.651  10.682   3.242
71280W        W30541  36.449  17.752   3.245
71281W        W30542  19.222  22.213   1.871
71282W        W30543  20.267   3.405   3.782
71283W        W30544  35.961  15.655   3.367
71284W        W30545   8.784  37.413   3.270
71285W        W30546  23.163   4.860   1.316
71286W        W30547  10.305  21.050   5.100
71287W        W30548  10.642  33.458   0.768
71288W        W30549   1.378  34.869  10.416
71289W        W30550  12.317  15.823   2.723
71290W        W30551  37.850  21.722   1.898
71291W        W30552  21.120  36.377   1.239
71292W        W30553  32.062  22.678  10.613
71293W        W30554  13.309  26.483   3.312
71294W        W30555  17.605  35.565  12.391
71295W        W30556  20.665  24.706  13.340
71296W        W30557  18.207  16.141  12.376
71297W        W30558  28.558  22.104  11.554
71298W        W30559  14.312  37.058  11.963
71299W        W30560   0.312  30.017  12.827
71300W        W30561  20.045  20.591   1.905
71301W        W30562   1.896  13.115  12.956
71302W        W30563  26.027  29.160   4.828
71303W        W30564  32.412  24.589  14.355
71304W        W30565  43.928  33.579   2.673
71305W        W30566  43.894  25.663  12.497
71306W        W30567   7.893  29.542  12.357
71307W        W30568   8.192  39.819  11.123
71308W        W30569  20.681  22.226  12.899
71309W        W30570   9.706  34.029   0.827
71310W        W30571  20.567  14.689  11.992
71311W        W30572  34.538   8.851   0.833
71312W        W30573  42.951  11.185   3.794
71313W        W30574  40.466  27.611   1.750
71314W        W30575  38.006   6.909   2.254
71315W        W30576  18.269  17.617   3.652
71316W        W30577  43.851   3.805  10.643
71317W        W30578  31.978  35.106   0.445
71318W        W30579  41.388  11.737   3.192
71319W        W30580  13.749  33.049   3.631
71320W        W30581  16.081  25.187  12.849
71321W        W30582   5.703  20.703   1.308
71322W        W30583  24.157  15.689   4.839
71323W        W30584  22.029  27.525  12.544
71324W        W30585  22.690  33.579  14.299
71325W        W30586  18.740  41.335   2.736
71326W        W30587  13.650  23.602   0.255
71327W        W30588   0.921  21.060  13.990
71328W        W30589  11.642  11.747  13.957
71329W        W30590  35.545  38.430   3.176
71330W        W30591  20.224   1.804  11.062
71331W        W30592  22.152   6.818   1.805
71332W        W30593  18.682  43.846   0.373
71333W        W30594  41.797   6.294  12.504
71334W        W30595  14.224  43.516  12.847
71335W        W30596  14.180  30.609   3.792
71336W        W30597  15.659  21.175   5.176
71337W        W30598  20.057   4.932  12.438
71338W        W30599  33.470  21.151  11.037
71339W        W30600  32.975   6.224   2.856
71340W        W30601  24.561  26.598  13.913
71341W        W30602   2.854   4.937   3.223
71342W        W30603  19.696  36.508  13.438
71343W        W30604  12.214  37.849   1.792
71344W        W30605  26.018  30.967   0.913
71345W        W30606  24.714  15.739  11.101
71346W        W30607  22.075  42.945   4.704
71347W        W30608  44.307  44.297  12.040
71348W        W30609  28.667  24.068   0.258
71349W        W30610  15.723  32.604   0.447
71350W        W30611  35.917   8.746   1.341
71351W        W30612  15.198   3.263   2.834
71352W        W30613  20.566  34.042  12.478
71353W        W30614  10.853  40.526   1.327
71354W        W30615  11.796  28.082   1.825
71355W        W30616  43.897   1.253  10.608
71356W        W30617  26.611   6.795   0.778
71357W        W30618  26.154   8.659  12.015
71358W        W30619   2.266   6.754   2.893
71359W        W30620  12.768  19.112   3.634
71360W        W30621  16.243  27.607  11.977
71361W        W30622  36.881  21.570  10.474
71362W        W30623   0.259  15.771   4.773
71363W        W30624  40.802  12.641   3.741
71364W        W30625  31.109  38.826   4.204
71365W        W30626  13.701  11.188   5.691
71366W        W30627  32.890  34.943   0.243
71367W        W30628  22.134  12.766  14.801
71368W        W30629  44.499  12.818   3.695
71369W        W30630  12.137   0.888  13.389
71370W        W30631  14.779  44.987  10.495
71371W        W30632  39.482  24.503   4.772
71372W        W30633   9.240  10.369  12.508
71373W        W30634  40.366  41.467   4.170
71374W        W30635   9.262  23.610   9.987
71375W        W30636  40.504   2.740  13.501
71376W        W30637   9.807  24.980  13.308
71377W        W30638   0.806  39.436  12.892
71378W        W30639  16.084   3.303  12.093
71379W        W30640  17.277  14.621   2.259
71380W        W30641  29.617  40.508   2.761
71381W        W30642  37.492   1.296   1.384
71382W        W30643  41.330  21.528  10.915
71383W        W30644  18.172  34.084  14.302
71384W        W30645   8.791   1.975  13.902
71385W        W30646  28.129  26.036  13.795
71386W        W30647  37.548  35.106  12.839
71387W        W30648   4.902  27.949   3.181
71388W        W30649  42.907   1.341  12.540
71389W        W30650   2.279  44.412   1.235
71390W        W30651   2.374  19.107   2.280
71391W        W30652  16.138  15.737   0.796
71392W        W30653  42.003  21.073   5.314
71393W        W30654  12.773  21.622   2.288
71394W        W30655  19.271  41.313   2.357
71395W        W30656   9.287  27.673  12.945
71396W        W30657  29.585  25.044   0.469
71397W        W30658  41.510  10.360  10.606
71398W        W30659  15.300  22.574   2.186
71399W        W30660  15.152  34.396  14.762
71400W        W30661  43.888  38.552   2.736
71401W        W30662  41.991   7.253   1.370
71402W        W30663  20.652  23.087   4.216
71403W        W30664  16.608  33.121  14.813
71404W        W30665  30.437  44.983   4.767
71405W        W30666  38.830  30.631  14.985
71406W        W30667   1.350  40.974  12.917
71407W        W30668  31.136  43.395   2.802
71408W        W30669  38.050  29.451   0.965
71409W        W30670  17.112  22.508   4.155
71410W        W30671   5.871  20.762   3.831
71411W        W30672  17.302  19.283   4.818
71412W        W30673  31.915  36.012  14.432
71413W        W30674  29.607  20.169   0.441
71414W        W30675  15.185  41.328   2.773
71415W        W30676   6.225   7.820  12.348
71416W        W30677   8.271   0.986   0.332
71417W        W30678  11.658  25.636   4.165
71418W        W30679  44.339  38.403   1.211
71419W        W30680  17.269   1.328   2.878
71420W        W30681   3.731  13.754   3.843
71421W        W30682  34.111   9.838  14.326
71422W        W30683  28.478  26.532   1.212
71423W        W30684  43.978   4.395   2.776
71424W        W30685  36.415  16.134   4.192
71425W        W30686  11.271   7.851   2.349
71426W        W30687  32.446  27.597   1.422
71427W        W30688  25.994  31.914  10.498
71428W        W30689  20.058  35.856  12.959
71429W        W30690  18.640   9.874  12.011
71430W        W30691  22.624  23.612   1.821
71431W        W30692   7.843  31.118  14.852
71432W        W30693  38.842  32.103  11.900
71433W        W30694  21.758  23.186  11.499
71434W        W30695  41.511  23.576  14.018
71435W        W30696  35.870  35.562   3.814
71436W        W30697  22.109  12.834  14.311
71437W        W30698  26.104  24.109   1.244
71438W        W30699   5.375   3.413  13.799
71439W        W30700  25.970  42.017   2.394
71440W        W30701   1.453  18.746   1.702
71441W        W30702  40.418  18.262  14.908
71442W        W30703  36.045   9.802  14.300
71443W        W30704   6.295  14.210   0.938
71444W        W30705  38.434   3.243   0.929
71445W        W30706  39.944   9.776   0.854
71446W        W30707  18.297  12.294   3.307
71447W        W30708  18.670  41.849  10.942
71448W        W30709  22.626  44.281  12.550
71449W        W30710  27.187  10.723  10.472
71450W        W30711  17.601  32.518   4.353
71451W        W30712  13.733  36.049   4.750
71452W        W30713  10.676  11.864  11.103
71453W        W30714  23.645   8.776  12.018
71454W        W30715  33.442  39.932  14.514
71455W        W30716  21.175   3.238   2.835
71456W        W30717  36.963   8.748  11.089
71457W        W30718  10.851  23.720   1.365
71458W        W30719  16.637  26.558  13.938
71459W        W30720  20.542  19.705  12.498
71460W        W30721   2.838  36.549   0.343
71461W        W30722  40.055  43.010   0.846
71462W        W30723  27.674  33.407   0.879
71463W        W30724  39.547  31.542   1.318
71464W        W30725   7.298  13.696  11.063
71465W        W30726  43.291  22.059  10.539
71466W        W30727  39.543  31.069   4.158
71467W        W30728  10.732   4.240   1.435
71468W        W30729  38.924  14.785   2.805
71469W        W30730  18.258  23.638   3.792
71470W        W30731  26.609  15.729   1.375
71471W        W30732  23.565  22.539  12.876
71472W        W30733  27.118  42.870   9.978
71473W        W30734  36.844  15.232   4.282
71474W        W30735  11.329  44.797   2.842
71475W        W30736  17.559  24.014   1.219
71476W        W30737  33.416   4.248   9.967
71477W        W30738  33.513  36.081  12.944
71478W        W30739  14.115   8.712   1.869
71479W        W30740  28.490  36.930  13.503
71480W        W30741  27.119  32.505  13.897
71481W        W30742  22.646   9.687  13.347
71482W        W30743  21.536  12.277  13.489
71483W        W30744   2.858  21.676   1.731
71484W        W30745   0.443  26.460   1.770
71485W        W30746  25.023  44.869  10.604
71486W        W30747  10.179   1.973   4.828
71487W        W30748  33.457  23.667   2.188
71488W        W30749  14.646  28.100  12.972
71489W        W30750   4.811  13.670   4.116
71490W        W30751   9.726  13.609   0.856
71491W        W30752  19.755  14.307   4.664
71492W        W30753  30.608  39.933   2.719
71493W        W30754   7.749  39.553  12.902
71494W        W30755  28.073  35.433  14.468
71495W        W30756  28.636  12.735  14.826
71496W        W30757   5.815  31.464  13.912
71497W        W30758   9.208  21.258  12.840
71498W        W30759  24.154  40.039   4.225
71499W        W30760  23.535  33.438  13.870
71500W        W30761  27.043   2.899  14.950
71501W        W30762  16.288  36.517   4.754
71502W        W30763  25.040  10.862  13.473
71503W        W30764  24.001  16.793   4.261
71504W        W30765  32.023  15.689  13.523
71505W        W30766   5.751  12.709   1.234
71506W        W30767   2.415  22.714  12.554
71507W        W30768  22.529  13.196  11.995
71508W        W30769  10.810  40.448  14.452
71509W        W30770  28.676  37.514   1.381
71510W        W30771  11.668   2.735   2.268
71511W        W30772   8.257  19.562   4.286
71512W        W30773  44.833  23.694  14.000
71513W        W30774  14.284  42.462  12.885
71514W        W30775   6.221  22.653  10.990
71515W        W30776  33.045  32.534  12.575
71516W        W30777  25.031   6.905  10.557
71517W        W30778   1.355   6.196  13.441
71518W        W30779  40.372  15.117   0.310
71519W        W30780  30.583   9.709   0.401
71520W        W30781  15.182  37.077  13.360
71521W        W30782  21.115  41.517   2.398
71522W        W30783  12.210  21.081  11.870
71523W        W30784  10.266   5.235  12.875
71524W        W30785   7.702  27.648  12.385
71525W        W30786   9.234  29.136  12.899
71526W        W30787  23.121  18.730  12.572
71527W        W30788   0.324  12.157  14.318
71528W        W30789  23.194   8.742   2.848
71529W        W30790  12.688  22.040   1.256
71530W        W30791  40.333  43.294   4.810
71531W        W30792  21.048  41.511   3.291
71532W        W30793  16.148  34.504  13.881
71533W        W30794  13.750  36.919  11.500
71534W        W30795   3.776  31.076   3.170
71535W        W30796  39.837  28.604   2.337
71536W        W30797  44.264  17.159  12.970
71537W        W30798  44.479   0.372   2.419
71538W        W30799   4.336  23.561  12.087
71539W        W30800  12.711  35.090   3.173
71540W        W30801  28.604  27.167   1.431
71541W        W30802  23.171  37.879  14.464
71542W        W30803  17.637  37.582  13.893
71543W        W30804   5.424  28.631   2.668
71544W        W30805   2.470  19.575  11.902
71545W        W30806  29.011  33.935  14.888
71546W        W30807   0.808  39.886  10.577
71547W        W30808  42.320  35.478   0.903
71548W        W30809  30.959  28.022  13.014
71549W        W30810  17.655  28.083   1.729
71550W        W30811  30.998  13.621   2.252
71551W        W30812   7.761   8.781  12.064
71552W        W30813  26.164  16.755  14.876
71553W        W30814   7.280  43.844  13.454
71554W        W30815  35.470  28.519   0.372
71555W        W30816  36.434   7.737  11.901
71556W        W30817  15.801   2.287  11.918
71557W        W30818  40.358  43.991   1.900
71558W        W30819  16.679   7.759  11.885
71559W        W30820  38.990  19.080  14.327
71560W        W30821  40.975  19.688  13.028
71561W        W30822  11.701  16.794   3.296
71562W        W30823  26.502   6.260  14.416
71563W        W30824  44.461  34.914  11.879
71564W        W30825  41.300  40.871  11.964
71565W        W30826  33.057   5.789   1.806
71566W        W30827   9.209  30.947  14.324
71567W        W30828  13.631  33.991  11.970
71568W        W30829  17.261  11.280   2.770
71569W        W30830  44.292  26.142  13.046
71570W        W30831  34.923   0.936  12.834
71571W        W30832  16.655  18.106  11.554
71572W        W30833   0.327  39.487  14.880
71573W        W30834   7.322  33.124   3.195
71574W        W30835   2.791  33.065   0.825
71575W        W30836  17.692  29.078  10.056
71576W        W30837  25.493  27.447  13.367
71577W        W30838  15.726   6.787  12.074
71578W        W30839  31.028  10.795   1.230
71579W        W30840   0.755  19.637   1.708
71580W        W30841  41.518  12.753   2.235
71581W        W30842   0.854  37.498  13.021
71582W        W30843  27.075  21.631   2.892
71583W        W30844  27.072   6.829  14.959
71584W        W30845   6.717  13.165   1.755
71585W        W30846  14.716  27.957  14.905
71586W        W30847  21.648  32.895  11.584
71587W        W30848   1.873   9.767  10.604
71588W        W30849  42.951   4.784  13.958
71589W        W30850  34.909   5.379   1.885
71590W        W30851  21.753  33.604  10.459
71591W        W30852  30.420  44.357  14.474
71592W        W30853  14.284  37.438   3.213
71593W        W30854  13.805   7.234   4.135
71594W        W30855  14.708  43.807   3.201
71595W        W30856  23.735  32.922   1.256
71596W        W30857  40.930   2.827  11.457
71597W        W30858  14.733  30.482   3.660
71598W        W30859  30.090   4.283  11.464
71599W        W30860   1.893   8.864   1.320
71600W        W30861  32.019  16.700   0.743
71601W        W30862   0.466  14.141   1.905
71602W        W30863  31.446  42.840  13.895
71603W        W30864  34.404  26.662  13.802
71604W        W30865  17.074  36.915  13.027
71605W        W30866   2.731   4.308  14.989
71606W        W30867   7.290  28.581  13.987
71607W        W30868  41.042  28.483  11.092
71608W        W30869   4.369   5.765   1.912
71609W        W30870  30.024  25.006   1.826
71610W        W30871  25.475  15.663  13.342
71611W        W30872  42.341  13.296  10.455
71612W        W30873  15.297   4.819   0.939
71613W        W30874  39.050  30.084  13.954
71614W        W30875  34.590  13.123  12.977
71615W        W30876  41.339  20.732   4.131
71616W        W30877  41.371  15.765   0.322
71617W        W30878  14.316   4.255   1.772
71618W        W30879  39.004  13.199  14.950
71619W        W30880  19.760  27.104   3.740
71620W        W30881  13.139  38.394   4.333
71621W        W30882  12.632  22.156  12.550
71622W        W30883  18.189   6.324  11.096
71623W        W30884  40.417   3.828  14.925
71624W        W30885  31.033  43.774  11.491
71625W        W30886  27.005   3.407  13.332
71626W        W30887  12.160   8.179   1.899
71627W        W30888  27.955  16.806   4.242
71628W        W30889  23.505  10.721  12.455
71629W        W30890  38.329   1.753  13.891
71630W        W30891  36.574  18.761   2.360
71631W        W30892  26.088  34.115  11.424
71632W        W30893  39.054  19.204  11.047
71633W        W30894  21.757  18.652  13.542
71634W        W30895  25.664  24.130  13.023
71635W        W30896   2.466  28.116   4.647
71636W        W30897  27.642  12.827  12.520
71637W        W30898  13.623   5.290   3.313
71638W        W30899  13.801   3.357   1.730
71639W        W30900  14.774  25.614  11.489
71640W        W30901  16.296  19.588   9.496
71641W        W30902  42.309   6.752   2.310
71642W        W30903  11.665  15.124  10.594
71643W        W30904   6.288  24.500  12.490
71644W        W30905  33.056  29.928  10.627
71645W        W30906  41.972  40.323  12.940
71646W        W30907   6.373   1.773  11.544
71647W        W30908   7.326  38.327  14.029
71648W        W30909   6.797  15.296  12.379
71649W        W30910  26.983  23.653  12.404
71650W        W30911   7.212   0.898   2.211
71651W        W30912  37.853   2.843  14.913
71652W        W30913   2.258  15.135  11.406
71653W        W30914  28.480  17.717  12.396
71654W        W30915  14.335  13.161   4.297
71655W        W30916  27.101  26.957   1.725
71656W        W30917  15.770  19.743  10.423
71657W        W30918  39.058  44.978   0.382
71658W        W30919  23.682   5.887  14.852
71659W        W30920  39.491  21.513  13.031
71660W        W30921  38.984  29.434  13.481
71661W        W30922  15.318   1.446   3.185
71662W        W30923  16.605  42.779  14.354
71663W        W30924  41.840  21.567   2.227
71664W        W30925  38.823  23.645  14.953
71665W        W30926   2.909  12.122   3.373
71666W        W30927   9.688  29.010  11.906
71667W        W30928   7.415  42.469  11.856
71668W        W30929  36.054  15.732  14.944
71669W        W30930  32.630  30.049  12.904
71670W        W30931  44.396  22.113  11.456
71671W        W30932  16.673  29.478   0.726
71672W        W30933  26.033  44.851  11.053
71673W        W30934  40.032  16.297  10.565
71674W        W30935   3.415  38.930   2.708
71675W        W30936  10.225   9.828  13.836
71676W        W30937  42.814  28.107  12.070
71677W        W30938  13.777  36.970   4.710
71678W        W30939  34.028  27.674  13.980
71679W        W30940  39.875  42.397   0.897
71680W        W30941  13.696  40.435  11.390
71681W        W30942  36.074  24.718   1.853
71682W        W30943  14.656  35.473  11.081
71683W        W30944   4.359  11.183  14.905
71684W        W30945  28.087   9.837   0.877
71685W        W30946  24.546  29.641  14.936
71686W        W30947   7.362  10.248  11.867
71687W        W30948   4.218   9.327   3.148
71688W        W30949   4.771  20.769  11.994
71689W        W30950   6.703  27.645  12.405
71690W        W30951   8.850  13.824  14.461
71691W        W30952  27.632  23.155  12.348
71692W        W30953  15.292  30.120   2.896
71693W        W30954  21.563   7.392  12.562
71694W        W30955  26.560   2.815  14.810
71695W        W30956  39.961  22.637  11.876
71696W        W30957  31.521  34.007  14.371
71697W        W30958  37.394  44.989  14.390
71698W        W30959   9.393  24.597  12.414
71699W        W30960  25.964  13.685   1.446
71700W        W30961   7.845  36.396  13.063
71701W        W30962  34.888  14.251  14.902
71702W        W30963  21.170   3.251   1.710
71703W        W30964  10.680  25.539  12.390
71704W        W30965  34.382  34.015   0.379
71705W        W30966  32.601  31.534   0.410
71706W        W30967  28.678   0.349   4.823
71707W        W30968  24.540   1.889  12.845
71708W        W30969  24.525  10.324   0.302
71709W        W30970   1.746  18.641   2.198
71710W        W30971  17.194   1.839  10.898
71711W        W30972  19.558  40.046  13.321
71712W        W30973  42.334  37.504   2.346
71713W        W30974  11.840  28.137  11.493
71714W        W30975  42.484   7.386  11.890
71715W        W30976  12.333  36.071   1.788
71716W        W30977   7.687  40.427  11.930
71717W        W30978  30.063  25.055   1.320
71718W        W30979  26.611  43.318  14.786
71719W        W30980  38.864  31.907  14.923
71720W        W30981  21.217  11.802   2.232
71721W        W30982   2.864  20.199   1.882
71722W        W30983  21.693  12.794  12.081
71723W        W30984  43.411  39.812  13.352
71724W        W30985  11.639  31.458  14.315
71725W        W30986  14.697   1.406   0.751
71726W        W30987   5.372  22.680   1.319
71727W        W30988  36.578  33.093   0.786
71728W        W30989  25.181   4.365   1.743
71729W        W30990  41.913   9.241  14.288
71730W        W30991  38.339  28.048  12.376
71731W        W30992  24.225  39.532   0.812
71732W        W30993   2.883   5.427  11.377
71733W        W30994  20.259   5.820   4.625
71734W        W30995   6.273  40.940   4.311
71735W        W30996   2.267  33.896  10.517
71736W        W30997  44.462   4.449   0.259
71737W        W30998  34.102  41.024  10.909
71738W        W30999  29.098   3.426   0.789
71739W        W31000   9.732  12.652   2.705
71740W        W31001  29.456  20.580  12.425
71741W        W31002  27.000  24.668  13.838
71742W        W31003  14.327  25.193   4.297
71743W        W31004  21.748  24.196   1.710
71744W        W31005  43.971  10.249  12.343
71745W        W31006  27.474  34.403   2.258
71746W        W31007  42.815  21.644   2.210
71747W        W31008  24.494  11.351  14.807
71748W        W31009  30.598  31.929  11.054
71749W        W31010  24.121  20.213   1.761
71750W        W31011  24.599  40.465  12.019
71751W        W31012  40.491  18.712  14.496
71752W        W31013  18.051   4.236   1.437
71753W        W31014   4.355   3.419  14.357
71754W        W31015  26.982  34.053   1.405
71755W        W31016  35.430  40.518  14.399
71756W        W31017  23.521   8.206  10.906
71757W        W31018  11.755  23.031  14.918
71758W        W31019  24.137  23.193   1.777
71759W        W31020  21.752  16.236  10.512
71760W        W31021  37.381   1.821   3.839
71761W        W31022  18.687  40.328  14.015
71762W        W31023  17.710   5.391   2.195
71763W        W31024  41.459  40.976  14.014
71764W        W31025  35.950  15.253  14.956
71765W        W31026  20.695  33.439  14.835
71766W        W31027  15.140  32.990   2.737
71767W        W31028  14.336   4.916   1.900
71768W        W31029  20.643  25.491  12.943
71769W        W31030  43.957  24.149  11.020
71770W        W31031  40.375   1.790  14.791
71771W        W31032   4.341  35.053   4.340
71772W        W31033  44.882  12.276   1.270
71773W        W31034  20.145   8.723  10.048
71774W        W31035   9.888  15.676   4.350
71775W        W31036  19.561   5.374   2.336
71776W        W31037  17.717  23.613   2.834
71777W        W31038  22.723  25.975  14.896
71778W        W31039  24.167  23.650  10.975
71779W        W31040  25.543  39.050   0.795
71780W        W31041  25.192  13.638  11.120
71781W        W31042   1.440   6.218   2.201
71782W        W31043   7.260  41.846   4.770
71783W        W31044  41.958  42.424   4.690
71784W        W31045  34.976  10.347  11.428
71785W        W31046  11.154  12.712   0.377
71786W        W31047   5.919   0.338  12.480
71787W        W31048  10.761  14.620   2.178
71788W        W31049  14.099  26.125  14.886
71789W        W31050  27.691  38.366  14.511
71790W        W31051   3.950  16.775  13.548
71791W        W31052  16.781  31.631  13.019
71792W        W31053  44.272  24.637   0.294
71793W        W31054  38.953  39.901   2.840
71794W        W31055   9.772  34.434   3.789
71795W        W31056  28.647   0.297  10.917
71796W        W31057  21.676   7.764   3.347
71797W        W31058  35.007  29.443   3.791
71798W        W31059  34.511   3.884   4.255
71799W        W31060   2.234  41.356   1.429
71800W        W31061   6.771   2.801   1.306
71801W        W31062  34.902  21.098  14.479
71802W        W31063   0.346  16.762  10.550
71803W        W31064   4.912   4.297  10.584
71804W        W31065  41.315  41.406  11.431
71805W        W31066  23.082  22.033   2.828
71806W        W31067  33.079  18.280  10.480
71807W        W31068  20.531  32.627  13.371
71808W        W31069  15.130  33.075   4.173
71809W        W31070  37.899   5.768  13.457
71810W        W31071  34.979  36.076  11.580
71811W        W31072  44.960  26.660   2.358
71812W        W31073  11.711  31.545   4.216
71813W        W31074  19.178   4.707   2.418
71814W        W31075  14.188   0.881   4.716
71815W        W31076   2.443  21.722  14.344
71816W        W31077  33.938  29.948   3.639
71817W        W31078  22.199  20.103   3.300
71818W        W31079  14.251  21.634   1.713
71819W        W31080   9.304  37.463   0.457
71820W        W31081  12.303  15.660  14.943
71821W        W31082  24.498  20.578  12.999
71822W        W31083  40.354   9.171  12.047
71823W        W31084  33.548  44.938  10.624
71824W        W31085  27.472  43.402   3.758
71825W        W31086  33.076  33.092   2.844
71826W        W31087  15.284  38.326  14.867
71827W        W31088  13.116   8.833  13.349
71828W        W31089  44.435  19.583  12.894
71829W        W31090  19.734  10.327   3.381
71830W        W31091  42.973  14.617   4.176
71831W        W31092  39.485   3.721   2.733
71832W        W31093  33.565  25.024  14.881
71833W        W31094  43.395   8.277   0.398
71834W        W31095   5.808  32.920  12.919
71835W        W31096  38.836  24.549   0.339
71836W        W31097  11.186  30.465   2.347
71837W        W31098  19.658  34.035  11.126
71838W        W31099   0.427  15.160   3.236
71839W        W31100  29.536  28.555   2.314
71840W        W31101  38.364  38.862  11.438
71841W        W31102  24.065   3.901   2.759
71842W        W31103  16.192  12.119   0.265
71843W        W31104  21.040  27.470   2.399
71844W        W31105  15.636  36.010   4.738
71845W        W31106  15.174   4.829   4.665
71846W        W31107  41.536  10.854  14.805
71847W        W31108  14.291  44.309  14.345
71848W        W31109  18.127   6.317   0.362
71849W        W31110  26.164  15.778   1.223
71850W        W31111  11.823   8.881   3.344
71851W        W31112  11.290  40.912  11.455
71852W        W31113  29.531   4.765  11.917
71853W        W31114  35.470  31.124   2.403
71854W        W31115  35.589  17.611  14.432
71855W        W31116  39.952   1.424   0.384
71856W        W31117   6.347  31.025   2.808
71857W        W31118  15.581   0.906   3.796
71858W        W31119   1.942  18.169   1.714
71859W        W31120   7.817  16.246   1.421
71860W        W31121  40.477  27.665  12.414
71861W        W31122  11.647   3.312  14.844
71862W        W31123  20.578  24.150  11.383
71863W        W31124  21.190  36.049  10.576
71864W        W31125  20.542   5.701  12.872
71865W        W31126  35.421   2.458   2.679
71866W        W31127  34.463  28.522  11.894
71867W        W31128  43.324  27.569  13.024
71868W        W31129  22.664  25.145  12.418
71869W        W31130  29.063  30.636  10.633
71870W        W31131  25.035   7.847  10.603
71871W        W31132  39.030   0.377   4.654
71872W        W31133  27.982  30.572   4.614
71873W        W31134  32.525   8.762   0.410
71874W        W31135  28.093  43.791  10.949
71875W        W31136   3.224  32.470  11.451
71876W        W31137  30.642   3.277   3.298
71877W        W31138   7.405   9.808  12.001
71878W        W31139  22.723  40.895  13.897
71879W        W31140  42.951  27.072  13.981
71880W        W31141  43.883   5.327  11.381
71881W        W31142  35.529  32.920   9.645
71882W        W31143  43.499  36.507  12.375
71883W        W31144  13.657  30.928  12.026
71884W        W31145  21.627  17.662   1.917
71885W        W31146  22.599  44.990  11.473
71886W        W31147  32.083   7.235  12.065
71887W        W31148  43.360  34.404   3.805
71888W        W31149  29.510  27.167  12.369
71889W        W31150  24.019  32.494   3.210
71890W        W31151  10.215  39.904   3.359
71891W        W31152  28.070  18.750   2.775
71892W        W31153  23.603  34.027   3.729
71893W        W31154   4.347  40.369  12.485
71894W        W31155  35.876  26.107  14.867
71895W        W31156   7.693  13.708   3.381
71896W        W31157   7.760   5.198  12.350
71897W        W31158  44.491  21.144   3.647
71898W        W31159  43.462  35.513  10.470
71899W        W31160  41.032   7.292  11.561
71900W        W31161  14.133  25.182   0.954
71901W        W31162  24.678   2.399  13.517
71902W        W31163  22.622  15.280   1.714
71903W        W31164  30.003  39.972   1.301
71904W        W31165  14.315  33.430  10.084
71905W        W31166  33.965  29.951   1.314
71906W        W31167  22.163  11.258   4.135
71907W        W31168  33.078  11.168  12.051
71908W        W31169   6.350  28.976  14.859
71909W        W31170  25.074  11.724  14.948
71910W        W31171  30.098  30.972  14.466
71911W        W31172   1.282   7.824  13.825
71912W        W31173  10.144  24.674  12.841
71913W        W31174  30.433  14.631   5.282
71914W        W31175  11.313   9.648  14.844
71915W        W31176  32.019  23.639   3.282
71916W        W31177  28.012  21.591   0.795
71917W        W31178  26.000  19.584  13.474
71918W        W31179  17.207  17.136  14.401
71919W        W31180  27.097  29.473   3.301
71920W        W31181  31.610   6.882  10.516
71921W        W31182  28.121  20.059  12.493
71922W        W31183   1.352  13.641  11.383
71923W        W31184  43.852  18.080  10.615
71924W        W31185   0.481  16.677  12.093
71925W        W31186  30.920  14.771  14.468
71926W        W31187  34.580  37.407   4.271
71927W        W31188  11.781  12.154   3.767
71928W        W31189  14.776  29.091  10.016
71929W        W31190  13.836   7.348   9.932
71930W        W31191  15.819  13.137  11.082
71931W        W31192  31.004  22.194  12.426
71932W        W31193  41.001  27.003   0.772
71933W        W31194  25.552  18.552  12.833
71934W        W31195  36.904  39.882  14.865
71935W        W31196  16.116  44.965   0.782
71936W        W31197   5.791  24.550   2.240
71937W        W31198   0.319   9.309  12.402
71938W        W31199  35.400  14.170  14.010
71939W        W31200  40.956  39.457   4.607
71940W        W31201  24.704  37.388  10.421
71941W        W31202  31.926  18.156  14.461
71942W        W31203  28.962  26.126  14.846
71943W        W31204  33.617  44.797   2.829
71944W        W31205  16.695  29.465   2.805
71945W        W31206  29.107  36.067   0.945
71946W        W31207  18.155  21.252   2.902
71947W        W31208  37.943  13.680  13.011
71948W        W31209  30.981  25.215   3.740
71949W        W31210  12.786  19.721  10.585
71950W        W31211  43.925   3.260   2.373
71951W        W31212  25.498   5.285   2.890
71952W        W31213  35.555  21.713  14.476
71953W        W31214  35.972  40.496  10.950
71954W        W31215  32.127  40.883   1.376
71955W        W31216  16.663  29.501   1.843
71956W        W31217  26.635  35.415  11.429
71957W        W31218  30.500  33.407  14.942
71958W        W31219  19.588  35.980  14.442
71959W        W31220   0.886  37.566  14.990
71960W        W31221   5.925   6.385  12.934
71961W        W31222  41.953  39.471  11.976
71962W        W31223   3.453  39.475   3.385
71963W        W31224  28.628  27.049   0.263
71964W        W31225  41.432   8.269  14.333
71965W        W31226   7.730   7.323  11.872
71966W        W31227   7.334  34.951   2.673
71967W        W31228   3.370   9.681  11.953
71968W        W31229  23.588  25.476   1.315
71969W        W31230  29.961  15.182  11.866
71970W        W31231   9.781  13.613   2.889
71971W        W31232   9.149  41.513  13.797
71972W        W31233  20.744  24.590  10.980
71973W        W31234   6.878  18.266  12.851
71974W        W31235  40.006  33.967   2.670
71975W        W31236  33.876  10.795  11.394
71976W        W31237  18.596  19.259  12.916
71977W        W31238   6.349  18.141   3.765
71978W        W31239  37.845  10.281   2.314
71979W        W31240  25.025  15.246  10.456
71980W        W31241  26.525   6.862  12.417
71981W        W31242   4.264  38.511   4.211
71982W        W31243  26.529  35.031   1.350
71983W        W31244   4.848  42.373  14.346
71984W        W31245  36.382  28.069  10.605
71985W        W31246  16.587   3.728   1.267
71986W        W31247  24.214  20.170  12.888
71987W        W31248  27.049  10.764   3.761
71988W        W31249  27.489  26.691   1.405
71989W        W31250  19.685  20.730   9.991
71990W        W31251   2.753  42.289   2.867
71991W        W31252  10.650  42.994   3.320
71992W        W31253   9.717   8.391  14.819
71993W        W31254  12.646   9.367  11.420
71994W        W31255  29.439  29.653  13.973
71995W        W31256  30.525  23.514  13.889
71996W        W31257  44.348  21.534   4.626
71997W        W31258  15.189  43.322  14.455
71998W        W31259  26.466  24.625  13.544
71999W        W31260  22.241   1.881  14.816
72000W        W31261  10.206  37.911   9.967
72001W        W31262  15.789   2.456  13.848
72002W        W31263  36.949  41.310  14.466
72003W        W31264  32.405  35.857   0.357
72004W        W31265  11.788  26.556   1.352
72005W        W31266  32.127  27.019  12.825
72006W        W31267  17.227  22.060  11.877
72007W        W31268  38.412   8.893  13.547
72008W        W31269  13.700  35.484  11.449
72009W        W31270  10.780  41.315  14.274
72010W        W31271  21.186  42.441  11.430
72011W        W31272  35.925   3.913   2.394
72012W        W31273  36.083  18.569  14.489
72013W        W31274  17.117  20.079   0.393
72014W        W31275   8.853   1.367  13.831
72015W        W31276  37.558   4.932   0.789
72016W        W31277   1.280  39.861  12.879
72017W        W31278   0.799  35.002   4.236
72018W        W31279  11.663   8.666  13.002
72019W        W31280  12.814  44.367   0.385
72020W        W31281   2.320  21.167  11.557
72021W        W31282  20.151  44.477  14.930
72022W        W31283  29.535   1.343  11.446
72023W        W31284  27.517  37.028   3.671
72024W        W31285  12.825  36.920   1.914
72025W        W31286  13.203  19.068   1.388
72026W        W31287   5.844   3.893   2.284
72027W        W31288  31.941  43.840  11.960
72028W        W31289  25.480  24.569   3.769
72029W        W31290  12.195  14.249   3.648
72030W        W31291  28.037  11.670  10.914
72031W        W31292   1.359  14.288  11.566
72032W        W31293  23.011  40.839   3.336
72033W        W31294  22.036  25.589   9.612
72034W        W31295  44.825  44.350   2.719
72035W        W31296   1.953  27.555   4.688
72036W        W31297  19.053  24.543   2.261
72037W        W31298  28.609   6.829   3.801
72038W        W31299  21.699  42.947   1.913
72039W        W31300  27.633  44.497   3.221
72040W        W31301  36.060  19.538  14.489
72041W        W31302  44.505  29.559  12.928
72042W        W31303  36.356  11.331   4.142
72043W        W31304  12.624  20.708  13.490
72044W        W31305  41.028   2.376   2.842
72045W        W31306  43.008  10.224   1.278
72046W        W31307  30.934  43.356  11.037
72047W        W31308  20.740  25.472   1.737
72048W        W31309  27.508  15.652  13.515
72049W        W31310  16.107   5.235   5.629
72050W        W31311   3.843   1.801   4.778
72051W        W31312  31.401  22.504  11.930
72052W        W31313   3.940  41.537  10.000
72053W        W31314  15.633  16.658  14.471
72054W        W31315  17.619  35.534  10.544
72055W        W31316  40.392  31.481  10.489
72056W        W31317  34.087  25.969   3.711
72057W        W31318  36.379  36.944  12.001
72058W        W31319   1.241  34.964   3.319
72059W        W31320  25.211  40.959   4.211
72060W        W31321  33.989   2.917  11.550
72061W        W31322   1.848  11.682  12.995
72062W        W31323  29.485  34.482  12.049
72063W        W31324  17.250  21.530  12.550
72064W        W31325  26.608  42.403  14.285
72065W        W31326  26.594  25.169   4.223
72066W        W31327  42.783  34.393  11.023
72067W        W31328  10.761  24.006   0.871
72068W        W31329  24.011   2.331  10.461
72069W        W31330  15.653  18.630   2.287
72070W        W31331  37.958  39.442   4.824
72071W        W31332  19.074  16.579   2.327
72072W        W31333  27.488   7.885   4.720
72073W        W31334  36.534  19.757   2.182
72074W        W31335  17.278  18.608  12.033
72075W        W31336  40.037  12.702  12.505
72076W        W31337  13.206  36.410   2.179
72077W        W31338  43.323  36.990  12.889
72078W        W31339  11.699  17.595   2.751
72079W        W31340  18.596   2.896   1.326
72080W        W31341   6.833  26.964   4.119
72081W        W31342  39.829  33.570   0.769
72082W        W31343  36.937   6.911  12.433
72083W        W31344  26.206  34.506  10.523
72084W        W31345  44.497  23.635  13.056
72085W        W31346  16.810  27.460  11.124
72086W        W31347   9.343  28.055   0.823
72087W        W31348  25.084  13.342  14.872
72088W        W31349  27.155  21.630  14.290
72089W        W31350  44.876  28.515   0.884
72090W        W31351   1.407  16.739   4.166
72091W        W31352  26.997  20.159  12.910
72092W        W31353  22.501   2.818   2.855
72093W        W31354  31.048  32.946  14.759
72094W        W31355   9.834  26.059  11.535
72095W        W31356   3.370  40.480  12.555
72096W        W31357  25.093  29.117   1.813
72097W        W31358  13.175   7.376   4.208
72098W        W31359  12.153  12.663  10.439
72099W        W31360  26.109  26.586   4.219
72100W        W31361  14.706  44.455   0.748
72101W        W31362  38.356  25.586  13.382
72102W        W31363  28.944   6.818   3.862
72103W        W31364  44.310  39.917  10.034
72104W        W31365   1.267  28.984   4.186
72105W        W31366  27.580  11.854  11.957
72106W        W31367  42.361  26.593   0.864
72107W        W31368  38.942  24.618  14.777
72108W        W31369  41.797  30.913   1.795
72109W        W31370  13.619  41.889  14.421
72110W        W31371  30.537  23.521  13.320
72111W        W31372  20.680  42.955  14.806
72112W        W31373  11.858  19.130   3.640
72113W        W31374  22.241  43.982   2.706
72114W        W31375   1.268   0.259   1.879
72115W        W31376  36.481  41.491  11.399
72116W        W31377   7.689  28.969  13.461
72117W        W31378  41.834  32.587  13.314
72118W        W31379  37.344  29.132   3.343
72119W        W31380  19.629  15.219  13.830
72120W        W31381  43.433  24.692  12.360
72121W        W31382  26.050  16.660   3.175
72122W        W31383  27.111  44.292  11.997
72123W        W31384  37.020  38.910  11.606
72124W        W31385   7.183  15.776  12.492
72125W        W31386   2.813   1.462   4.207
72126W        W31387  29.485   7.406  10.552
72127W        W31388  34.958  11.628   0.268
72128W        W31389   9.761  24.127   4.746
72129W        W31390  39.826   8.771   1.929
72130W        W31391  34.890  42.308   9.943
72131W        W31392  37.008  32.622  14.492
72132W        W31393  39.966  36.462   4.601
72133W        W31394  39.506   3.765  13.438
72134W        W31395  44.756  37.081   2.319
72135W        W31396  36.578  40.462  11.525
72136W        W31397  20.071  35.990   0.482
72137W        W31398  41.350  26.563  12.898
72138W        W31399   1.238  10.217  14.003
72139W        W31400  28.178  27.052  13.900
72140W        W31401  17.117   9.643  12.067
72141W        W31402  24.484  21.199   9.968
72142W        W31403   8.229  44.451  11.482
72143W        W31404  34.926  18.129   2.749
72144W        W31405  22.635  20.571   2.670
72145W        W31406  17.681  43.399  11.960
72146W        W31407  19.259   2.847  10.897
72147W        W31408  37.532  14.289   9.922
72148W        W31409  42.999  14.214   0.745
72149W        W31410  27.670  29.603   0.279
72150W        W31411  24.009  28.970  11.423
72151W        W31412  19.628   6.201   4.648
72152W        W31413  32.018  32.475  11.098
72153W        W31414  31.106  31.022   0.963
72154W        W31415  30.051  40.845  12.397
72155W        W31416  28.674   9.369   0.899
72156W        W31417  32.626   3.446  14.977
72157W        W31418  28.594  14.313  13.878
72158W        W31419   0.319  42.922   2.203
72159W        W31420  40.342  27.612   0.785
72160W        W31421   7.886  32.921  12.399
72161W        W31422  34.497  30.966  13.920
72162W        W31423  25.640  17.232  12.863
72163W        W31424   6.324   1.322  13.374
72164W        W31425   1.352  39.859   3.319
72165W        W31426  21.718   9.770   1.840
72166W        W31427  10.789   6.879   3.651
72167W        W31428  36.355   3.723  13.384
72168W        W31429  22.086  39.496  14.486
72169W        W31430  11.329   2.777   1.346
72170W        W31431  38.034   7.670  10.924
72171W        W31432  11.272  36.458  10.636
72172W        W31433   7.256  12.241   2.761
72173W        W31434  28.057   6.207  11.372
72174W        W31435  16.226  16.793   3.795
72175W        W31436  29.590  39.379  11.949
72176W        W31437  28.037  35.982   0.908
72177W        W31438  15.733   3.298  11.584
72178W        W31439  21.714   2.407  13.381
72179W        W31440  14.202  38.046  14.516
72180W        W31441  18.158  36.513   1.850
72181W        W31442  44.346  16.791   0.256
72182W        W31443  19.582   6.314  11.523
72183W        W31444  35.399   9.210   4.818
72184W        W31445   1.963   5.429  12.575
72185W        W31446   7.743  34.564   3.747
72186W        W31447  25.616  18.106  12.381
72187W        W31448  17.148   2.868  10.061
72188W        W31449  20.208   2.947   1.318
72189W        W31450  15.729  17.620  12.962
72190W        W31451  32.957  33.919  13.037
72191W        W31452  15.751  32.000   1.364
72192W        W31453  44.781  12.154  10.414
72193W        W31454  10.239   7.681  10.505
72194W        W31455  30.588   2.351   3.781
72195W        W31456  25.132   1.483   3.811
72196W        W31457  22.633  13.729  11.577
72197W        W31458  39.974  41.826  14.414
72198W        W31459   4.799   6.855  10.476
72199W        W31460  34.562   1.256   4.800
72200W        W31461   8.262  28.057  11.609
72201W        W31462  37.955  23.172   4.177
72202W        W31463  27.463  13.291  11.412
72203W        W31464  43.294  37.992  12.571
72204W        W31465  11.807  39.939   4.751
72205W        W31466   7.188  36.022  10.910
72206W        W31467   2.335  29.992   1.346
72207W        W31468  18.212  24.191   1.210
72208W        W31469  11.305  10.831   2.239
72209W        W31470  38.326  40.456   2.723
72210W        W31471  25.207  33.898  12.862
72211W        W31472  29.945  37.020  14.801
72212W        W31473  25.666  21.031   2.864
72213W        W31474  37.010  22.097  13.797
72214W        W31475  26.072   9.845  12.084
72215W        W31476   5.241  36.903  13.392
72216W        W31477   0.842   1.461  12.404
72217W        W31478   4.436   4.923  12.888
72218W        W31479  43.332  42.309  11.064
72219W        W31480   6.193  31.531  11.115
72220W        W31481  33.457  34.082  14.920
72221W        W31482  22.518   6.728   0.323
72222W        W31483  41.491  26.185  13.012
72223W        W31484   7.389  34.553   0.358
72224W        W31485  35.510  31.648  13.016
72225W        W31486  31.581  16.252  13.933
72226W        W31487  40.336  20.252  13.442
72227W        W31488  37.879   2.388   0.275
72228W        W31489  26.503  40.414   0.371
72229W        W31490  42.454  25.537   3.741
72230W        W31491  38.955   0.327   2.238
72231W        W31492  12.137   7.899   0.456
72232W        W31493  38.520   7.277  10.567
72233W        W31494   5.696  20.031  13.369
72234W        W31495  44.495  31.913  13.507
72235W        W31496  26.655  19.059   1.699
72236W        W31497  41.862  33.439   0.952
72237W        W31498  28.603  25.512  11.903
72238W        W31499  39.938  43.429   3.712
72239W        W31500  32.032   4.708   2.258
72240W        W31501  20.262  31.062  12.996
72241W        W31502   3.313  40.313   3.772
72242W        W31503  42.406  16.758  13.977
72243W        W31504  21.241   1.917  14.433
72244W        W31505  13.264  20.716   2.337
72245W        W31506  17.632  22.578  13.350
72246W        W31507  11.795  44.756   3.179
72247W        W31508  18.268  14.637  11.541
72248W        W31509  23.057  14.703  10.472
72249W        W31510  35.900  28.623   1.724
72250W        W31511  16.308  44.803  10.530
72251W        W31512  32.963  20.254  13.514
72252W        W31513   1.419  44.809   4.608
72253W        W31514   1.295  33.889   1.712
72254W        W31515  36.390   0.464   3.204
72255W        W31516  25.125  10.766  11.965
72256W        W31517  34.088  16.784   4.751
72257W        W31518  20.166   5.768  14.460
72258W        W31519  40.032  39.018  12.539
72259W        W31520  14.222   7.240   1.868
72260W        W31521  37.498   0.352  11.124
72261W        W31522  29.111  23.609   3.157
72262W        W31523  18.672  15.161   4.216
72263W        W31524   5.369  43.327  12.438
72264W        W31525  27.670  10.698   3.269
72265W        W31526   4.275  24.098   1.414
72266W        W31527  17.579  21.136   0.391
72267W        W31528  26.977  30.001  14.865
72268W        W31529   9.385   7.240  14.325
72269W        W31530  36.072  11.357   9.607
72270W        W31531  43.494  21.646  14.515
72271W        W31532  20.526  17.606   3.229
72272W        W31533   3.399  23.604   4.148
72273W        W31534   9.720  29.140  14.944
72274W        W31535  28.133  24.636   2.349
72275W        W31536  24.713   5.307  14.810
72276W        W31537   8.287  21.150   1.312
72277W        W31538  24.218  17.594  14.763
72278W        W31539  35.106   1.296  12.825
72279W        W31540  11.827  27.068   1.394
72280W        W31541  41.381  25.189   0.905
72281W        W31542  40.889  18.777   0.364
72282W        W31543  17.248  34.959   4.702
72283W        W31544  38.855  25.107  12.028
72284W        W31545  42.955  13.768   0.906
72285W        W31546  19.778  44.893  12.864
72286W        W31547  16.717  32.131  11.549
72287W        W31548  37.902  26.665  13.373
72288W        W31549  38.529  23.222   1.930
72289W        W31550  19.044  23.223   1.819
72290W        W31551  25.081  41.410   1.408
72291W        W31552   5.904  21.746  14.784
72292W        W31553  40.910  35.392  12.007
72293W        W31554  26.662  34.422  13.330
72294W        W31555  21.741  31.124   2.204
72295W        W31556  44.821  17.615  11.531
72296W        W31557  42.310   9.274   3.237
72297W        W31558   3.940   1.871   3.867
72298W        W31559  20.068  44.808  11.605
72299W        W31560  36.011  12.747   1.413
72300W        W31561  13.696   4.924   1.309
72301W        W31562  29.965  33.044   2.199
72302W        W31563  15.195  25.009  14.032
72303W        W31564  44.856  16.289  10.530
72304W        W31565  28.169   2.237  13.992
72305W        W31566  40.877  30.918  11.959
72306W        W31567  15.110   3.734  12.088
72307W        W31568  27.612  36.503   3.248
72308W        W31569  10.299  17.139  10.043
72309W        W31570  28.507   9.841  14.808
72310W        W31571  32.566   2.470  14.015
72311W        W31572  17.150  14.178   4.646
72312W        W31573  39.345  39.904  12.972
72313W        W31574  37.573  41.339   1.824
72314W        W31575  37.071  16.109   1.389
72315W        W31576  30.462  23.655  14.471
72316W        W31577  36.358  28.659  14.387
72317W        W31578  10.776  13.668  14.345
72318W        W31579  41.444   1.797   1.725
72319W        W31580  30.418  20.144   2.823
72320W        W31581  15.629  38.975   3.340
72321W        W31582  27.177  33.380  10.482
72322W        W31583  32.912   2.312  12.052
72323W        W31584   9.251  41.819   4.232
72324W        W31585  29.603  36.873   3.175
72325W        W31586   7.171  39.317  10.927
72326W        W31587  37.340   3.325  13.936
72327W        W31588   9.357   7.362   2.227
72328W        W31589  44.966  38.919   2.294
72329W        W31590   2.845   9.224   2.868
72330W        W31591   9.829  17.708   3.242
72331W        W31592  29.472  11.733   2.372
72332W        W31593  10.646   4.286  14.379
72333W        W31594  21.522   4.929  11.573
72334W        W31595   9.860  10.211  14.833
72335W        W31596  13.160  40.001  13.312
72336W        W31597   5.779   9.231   4.173
72337W        W31598  13.239  33.561  14.462
72338W        W31599  22.183  14.291  13.436
72339W        W31600  26.106   8.701  12.422
72340W        W31601   6.890  13.635  13.983
72341W        W31602  33.921  19.614   1.803
72342W        W31603   0.490  41.940  12.562
72343W        W31604  20.097  34.997  10.542
72344W        W31605  10.723   6.267   4.622
72345W        W31606   5.905   7.686  12.061
72346W        W31607  29.514  33.493  12.362
72347W        W31608  30.656   8.825  14.002
72348W        W31609  10.220  16.183   4.237
72349W        W31610   8.714  20.633  11.921
72350W        W31611  40.478   6.291  14.906
72351W        W31612   3.930  34.476  11.598
72352W        W31613   3.929  30.528  14.784
72353W        W31614   4.277   2.357  12.534
72354W        W31615  13.116   2.851  11.963
72355W        W31616  22.189  41.404   3.748
72356W        W31617  27.993  33.021  14.346
72357W        W31618  16.156   7.404   4.282
72358W        W31619   3.921  26.594   2.720
72359W        W31620   8.800   9.824   4.297
72360W        W31621  33.908  28.042   2.316
72361W        W31622   6.900  13.139  10.572
72362W        W31623  17.562  17.561  13.541
72363W        W31624  26.586  35.070  14.296
72364W        W31625   0.840   8.160  14.017
72365W        W31626   0.401   7.210  10.616
72366W        W31627  17.088  14.327  13.321
72367W        W31628  33.876  39.552   3.717
72368W        W31629  26.466  38.877   3.822
72369W        W31630  37.847  15.712  10.115
72370W        W31631   7.762  25.652  14.416
72371W        W31632  14.096  11.746  12.476
72372W        W31633   5.785  36.854  12.519
72373W        W31634   2.880  34.482   0.411
72374W        W31635  23.604  22.095   0.453
72375W        W31636  37.920  21.639  11.549
72376W        W31637  25.044  37.343  11.922
72377W        W31638  18.275  31.898   4.642
72378W        W31639  25.164   0.360   2.246
72379W        W31640   4.368  34.905   2.719
72380W        W31641  29.439  25.042   0.747
72381W        W31642   4.281  37.448   0.918
72382W        W31643  38.496  38.844  14.916
72383W        W31644  39.876  18.642  13.051
72384W        W31645  10.347  37.990   4.142
72385W        W31646   3.875  38.354   2.810
72386W        W31647   1.333  10.334   3.644
72387W        W31648  36.382  19.259   0.459
72388W        W31649  40.977  21.532  11.971
72389W        W31650  39.902   3.332  13.310
72390W        W31651  27.627   4.323   2.323
72391W        W31652  31.970  29.112   0.385
72392W        W31653  32.022  40.518  12.832
72393W        W31654   6.791  27.596   3.748
72394W        W31655   7.247   7.843   0.935
72395W        W31656  10.798  40.392   2.758
72396W        W31657   6.307  24.985  10.901
72397W        W31658  23.987  36.096  12.559
72398W        W31659  39.876   2.339   4.239
72399W        W31660   6.198  18.705   0.389
72400W        W31661   8.391  26.030  13.954
72401W        W31662  42.499  25.156  13.403
72402W        W31663  15.124  15.713  11.471
72403W        W31664  30.555  35.013  11.982
72404W        W31665  37.373  35.530   1.225
72405W        W31666  31.621   0.793   3.381
72406W        W31667   9.683  27.638  14.825
72407W        W31668  28.066  23.621  11.031
72408W        W31669  20.090  41.990   1.319
72409W        W31670  43.920  26.674  12.911
72410W        W31671  31.016  38.332  14.776
72411W        W31672   3.727  19.772   3.659
72412W        W31673  20.659  25.132  11.389
72413W        W31674   6.344   3.353  12.960
72414W        W31675   8.339  10.813  13.062
72415W        W31676  16.802  24.187  13.947
72416W        W31677   4.913  13.337   4.347
72417W        W31678   1.897   8.757  10.914
72418W        W31679  15.611  13.268  11.561
72419W        W31680  33.397  21.528  13.384
72420W        W31681   3.903  22.551   2.184
72421W        W31682  39.429  39.328  13.852
72422W        W31683  21.034  40.885   3.251
72423W        W31684   4.367  43.020  13.963
72424W        W31685  25.559  17.704  13.535
72425W        W31686   6.775  38.519   0.362
72426W        W31687  11.138  18.058  12.549
72427W        W31688  34.401  30.007  13.805
72428W        W31689  37.527  36.844   2.378
72429W        W31690   6.415  43.788  11.606
72430W        W31691  42.430  42.992  11.393
72431W        W31692   2.375   5.753  10.486
72432W        W31693  15.086   4.900   4.272
72433W        W31694  31.640  36.564   2.263
72434W        W31695  30.949  42.951  12.953
72435W        W31696  21.599  30.505   0.785
72436W        W31697   1.868  31.535  14.278
72437W        W31698   2.261   5.254  14.362
72438W        W31699  34.611  18.169  11.520
72439W        W31700  12.337   7.379  14.877
72440W        W31701  10.666  10.695   1.771
72441W        W31702  21.031  21.684  10.463
72442W        W31703  37.049  14.230  13.998
72443W        W31704  37.387  17.768  13.873
72444W        W31705  38.456  26.577  12.339
72445W        W31706  17.627   5.198  11.518
72446W        W31707  40.972  30.035   0.274
72447W        W31708  25.599  32.451  13.402
72448W        W31709  41.817  39.445   3.861
72449W        W31710  30.644  28.942  11.607
72450W        W31711  26.033  39.447   1.239
72451W        W31712  25.590  36.868   0.370
72452W        W31713  34.991  32.987  10.934
72453W        W31714  15.667  13.695   4.154
72454W        W31715  41.405  40.940   3.292
72455W        W31716  39.908   4.242  13.324
72456W        W31717  12.146  12.314  12.972
72457W        W31718  13.310  32.542  13.479
72458W        W31719   9.672  33.435   4.332
72459W        W31720  27.104  29.044   2.706
72460W        W31721  34.461  17.077  13.038
72461W        W31722  32.529  13.180  11.593
72462W        W31723   0.964  12.838  12.380
72463W        W31724  21.235  36.470  14.389
72464W        W31725  44.996  29.637  13.487
72465W        W31726   6.839  11.200   5.662
72466W        W31727  20.525  11.177   4.790
72467W        W31728  38.046  41.525   4.298
72468W        W31729  10.654  18.122  10.992
72469W        W31730  39.005   5.903  12.841
72470W        W31731  42.840  15.586   4.600
72471W        W31732   7.698   2.412  12.429
72472W        W31733  22.252   0.840  12.856
72473W        W31734  27.995  30.574  12.344
72474W        W31735  10.277  23.617   1.768
72475W        W31736  41.797  32.574  11.602
72476W        W31737  24.003  32.619  14.394
72477W        W31738  37.062  35.428   0.378
72478W        W31739  17.801  30.117   1.444
72479W        W31740  11.143   3.757  11.542
72480W        W31741  26.203   7.765  10.425
72481W        W31742   0.888  36.458   4.227
72482W        W31743  36.430  15.209   0.252
72483W        W31744  21.669  40.899  11.105
72484W        W31745  20.731   8.249  10.640
72485W        W31746  39.514   0.968  14.863
72486W        W31747   9.215  27.627  11.000
72487W        W31748  18.079  21.569  10.635
72488W        W31749  40.320  43.770   3.678
72489W        W31750  24.492  34.895   3.291
72490W        W31751  25.699  29.932  13.975
72491W        W31752   5.710  37.903   2.772
72492W        W31753  32.469  27.019   3.251
72493W        W31754  20.206  15.678   1.358
72494W        W31755  35.557  17.131  13.355
72495W        W31756  34.499  14.632   3.356
72496W        W31757  40.920  43.012   4.287
72497W        W31758  25.569   7.688   1.425
72498W        W31759  12.710   7.691   0.298
72499W        W31760  40.825  13.281   2.687
72500W        W31761  22.103  33.057   2.240
72501W        W31762  40.991   9.190   0.361
72502W        W31763  19.202   4.745  13.316
72503W        W31764  22.223   9.355   3.865
72504W        W31765  30.604  10.702   2.185
72505W        W31766  43.271   8.853   2.831
72506W        W31767  27.488  17.195   0.933
72507W        W31768  23.535  35.033  12.492
72508W        W31769  38.514  28.549   3.851
72509W        W31770  22.252   3.851  13.024
72510W        W31771  10.287  34.471  13.456
72511W        W31772  20.757  16.799  10.423
72512W        W31773  35.433  11.837   1.801
72513W        W31774  12.261   5.363  14.384
72514W        W31775  16.293  35.897   2.185
72515W        W31776  10.186  15.192  10.497
72516W        W31777  29.999  23.088  10.588
72517W        W31778  42.928  23.030  12.075
72518W        W31779   9.859  32.580   0.450
72519W        W31780  15.601  21.549  14.930
72520W        W31781  38.328   3.284  12.433
72521W        W31782  19.640  22.714   0.296
72522W        W31783  10.190  16.623   4.218
72523W        W31784  32.597  43.380   4.645
72524W        W31785  22.590  10.282  11.018
72525W        W31786  21.098  18.071   2.417
72526W        W31787  30.115  14.643   3.257
72527W        W31788  27.178   6.222   2.199
72528W        W31789  41.317  22.200   1.420
72529W        W31790  27.992   7.266  10.568
72530W        W31791  16.234  44.422   0.297
72531W        W31792  35.087  39.022   2.803
72532W        W31793   8.765  35.910   3.847
72533W        W31794  12.641  21.039   0.805
72534W        W31795  41.491   1.357   4.244
72535W        W31796  26.190  40.957  11.464
72536W        W31797  43.969   3.399   2.881
72537W        W31798   9.173   9.320  10.590
72538W        W31799  42.023  36.376  13.005
72539W        W31800   8.341  43.813   2.318
72540W        W31801  37.904  36.351   4.320
72541W        W31802  29.065  35.923   4.738
72542W        W31803  39.972  27.189  11.036
72543W        W31804  16.162  16.763  14.842
72544W        W31805  11.195   1.886  13.987
72545W        W31806  23.064  44.291  10.921
72546W        W31807  34.432   8.349  10.466
72547W        W31808  34.068  29.101  12.893
72548W        W31809  41.479   1.339   4.715
72549W        W31810  44.760  21.104   1.706
72550W        W31811  14.332  12.143  14.349
72551W        W31812  14.105  38.431   4.188
72552W        W31813   1.813   8.375   0.904
72553W        W31814  39.844  12.853  12.881
72554W        W31815  29.643  31.114   4.759
72555W        W31816  38.567  33.914  12.488
72556W        W31817  30.978  19.135   1.300
72557W        W31818  44.324   6.798   4.340
72558W        W31819   7.816  32.979   4.613
72559W        W31820  36.573   6.895   2.676
72560W        W31821  41.792   4.265   2.314
72561W        W31822  14.118  21.566  14.790
72562W        W31823   1.974  18.683  10.961
72563W        W31824   1.889  12.677  13.951
72564W        W31825  30.957  21.731   4.123
72565W        W31826   0.271  28.443  12.452
72566W        W31827  40.965  37.993   2.272
72567W        W31828  28.549  26.554  12.019
72568W        W31829  15.598  19.263  12.497
72569W        W31830  25.588  30.033   0.959
72570W        W31831   3.443   2.797   2.354
72571W        W31832  33.417  38.982  11.446
72572W        W31833  42.496  12.820   2.349
72573W        W31834  10.190   3.264  14.296
72574W        W31835  22.041   6.801  13.009
72575W        W31836  19.696  42.980   4.772
72576W        W31837  42.368   9.815   4.781
72577W        W31838   0.958  21.619   4.809
72578W        W31839   0.322  29.092  11.462
72579W        W31840  34.514  24.691  12.879
72580W        W31841  36.980   3.786  11.961
72581W        W31842  31.998   4.920   5.320
72582W        W31843  18.154   8.335  14.997
72583W        W31844  11.815   3.320   3.257
72584W        W31845   9.170   2.858   0.277
72585W        W31846  30.439  20.137   3.757
72586W        W31847   5.857   9.265  14.504
72587W        W31848   3.830   5.305  13.806
72588W        W31849  44.988  17.567  11.125
72589W        W31850  26.081  37.543  14.456
72590W        W31851  11.184  20.255   0.845
72591W        W31852  18.654  29.971  11.607
72592W        W31853  40.907  24.495  11.924
72593W        W31854  40.810  43.443   1.419
72594W        W31855  43.375   6.750   4.810
72595W        W31856  13.771  27.960   0.796
72596W        W31857  28.108  42.793  13.867
72597W        W31858   0.825   2.940   1.769
72598W        W31859   9.877  27.487   0.460
72599W        W31860   1.850  16.663   0.738
72600W        W31861  21.701  38.872  13.993
72601W        W31862  40.014   3.729  12.521
72602W        W31863  39.831  29.130   1.246
72603W        W31864   1.345  37.940   1.374
72604W        W31865   9.369  24.192   0.414
72605W        W31866  11.635  14.184   0.282
72606W        W31867  28.177   1.283  10.588
72607W        W31868  20.670  44.365   3.353
72608W        W31869  10.677  29.595  11.433
72609W        W31870  21.743  29.931   2.791
72610W        W31871  15.782   7.356   3.638
72611W        W31872   9.326  13.226  12.503
72612W        W31873  16.079  19.220  11.873
72613W        W31874   2.939   0.474  10.903
72614W        W31875   2.928   8.386   2.239
72615W        W31876   2.325  37.439   1.370
72616W        W31877  41.907  17.182  14.849
72617W        W31878   4.844  43.924   2.241
72618W        W31879  27.540  10.201   0.373
72619W        W31880  40.495  27.582  11.018
72620W        W31881  28.529  43.475  11.928
72621W        W31882  23.198  38.007  10.473
72622W        W31883  43.347  21.593   4.146
72623W        W31884  17.688  40.405   4.814
72624W        W31885  37.423  35.005  13.483
72625W        W31886  25.183   1.883   0.913
72626W        W31887  38.900  43.353  10.489
72627W        W31888  24.992  37.437   2.212
72628W        W31889   2.956  17.071  11.516
72629W        W31890  13.259  16.775  13.364
72630W        W31891  31.072  37.961   1.287
72631W        W31892  43.832  18.094   1.695
72632W        W31893  21.594  33.902   3.700
72633W        W31894  21.617  32.006   5.091
72634W        W31895  24.582  24.089   2.250
72635W        W31896  26.206   2.419  13.926
72636W        W31897  28.462  41.423  10.443
72637W        W31898  22.146  23.626  11.037
72638W        W31899  26.553  15.186  13.933
72639W        W31900  15.257   6.792  12.957
72640W        W31901  44.970  43.014  13.064
72641W        W31902  18.761  43.843   2.397
72642W        W31903   9.315   7.721  11.051
72643W        W31904  10.223  20.171  14.819
72644W        W31905  34.486   3.225   4.149
72645W        W31906  30.572  36.404  12.882
72646W        W31907   0.772  15.809  10.954
72647W        W31908  18.586  26.138   5.110
72648W        W31909  42.806  32.141   0.809
72649W        W31910   4.911  39.033   5.162
72650W        W31911  13.187  44.461  12.521
72651W        W31912  11.216  15.197  10.933
72652W        W31913   5.264  24.031   3.216
72653W        W31914   4.835  34.501  11.913
72654W        W31915   4.281  25.167   4.161
72655W        W31916  25.505  37.357   4.189
72656W        W31917  31.434  19.158  10.613
72657W        W31918  12.133  16.105  12.027
72658W        W31919   4.305   7.694  12.904
72659W        W31920   3.729  17.114   4.264
72660W        W31921  19.212  10.740   4.296
72661W        W31922   8.229  15.132   0.877
72662W        W31923  38.038   6.212   1.846
72663W        W31924  16.742  28.593  11.114
72664W        W31925   5.871  29.951  14.870
72665W        W31926  30.907  25.089   4.242
72666W        W31927   1.396  14.736  13.827
72667W        W31928  19.196  18.660  14.319
72668W        W31929  11.276  31.433   0.358
72669W        W31930  21.544  19.168   3.226
72670W        W31931  21.687  10.729   1.802
72671W        W31932  32.616  24.110  11.047
72672W        W31933   2.799  34.105  10.406
72673W        W31934  30.081  25.153  13.535
72674W        W31935  23.520  40.018  11.402
72675W        W31936  23.225  27.969   5.253
72676W        W31937  20.537   2.344   4.765
72677W        W31938  35.600  13.158  11.084
72678W        W31939  17.643  23.622  13.894
72679W        W31940  34.984  33.388   4.222
72680W        W31941  18.180  42.852  14.772
72681W        W31942  42.805  22.648  12.561
72682W        W31943  29.505  25.201  14.028
72683W        W31944  22.181  40.900   1.935
72684W        W31945  25.143  33.081  11.535
72685W        W31946  44.272  18.057   1.694
72686W        W31947  41.426  23.161  11.936
72687W        W31948  31.008  41.946  11.127
72688W        W31949  10.868  26.528   4.199
72689W        W31950  43.969  38.511  13.990
72690W        W31951  27.097   8.324  13.413
72691W        W31952  30.635  35.586   1.263
72692W        W31953  32.988  12.201  14.809
72693W        W31954   1.431  35.097  12.476
72694W        W31955  40.501   5.924  13.904
72695W        W31956  41.530   5.827  10.484
72696W        W31957  24.230  39.345  13.419
72697W        W31958  35.472   4.922   4.124
72698W        W31959   2.263  28.953   4.216
72699W        W31960  17.728   4.425   1.277
72700W        W31961  16.298  40.800   4.725
72701W        W31962   7.754  34.550  10.498
72702W        W31963  30.506  14.272   2.889
72703W        W31964   6.762   5.907   0.789
72704W        W31965  27.121  23.500   0.741
72705W        W31966  30.149  39.510   9.616
72706W        W31967  33.909  15.663  11.389
72707W        W31968  37.506  17.280  13.964
72708W        W31969  20.075   6.767   1.330
72709W        W31970  33.054   7.781  11.470
72710W        W31971  19.078  37.527   2.296
72711W        W31972  40.941  41.514   0.828
72712W        W31973  23.588  18.064  12.892
72713W        W31974  26.001  31.040   2.225
72714W        W31975  14.753  34.394   0.435
72715W        W31976  22.700  22.045   3.154
72716W        W31977   8.877  22.124  11.113
72717W        W31978  24.719  26.500  13.006
72718W        W31979  26.637  30.011  10.614
72719W        W31980   7.324  38.426  13.434
72720W        W31981  34.006  11.867   0.286
72721W        W31982  43.015   0.785  12.860
72722W        W31983  19.649  21.094   2.213
72723W        W31984  30.534   1.322   0.914
72724W        W31985  44.910  29.130  11.007
72725W        W31986  14.666  24.003  11.897
72726W        W31987  13.235  32.404   1.716
72727W        W31988  39.547  36.044  13.397
72728W        W31989   5.416   7.872  12.877
72729W        W31990  13.612  44.315   0.364
72730W        W31991  10.185  40.001  10.019
72731W        W31992  27.452   9.365   3.727
72732W        W31993  20.176  39.027   3.277
72733W        W31994  20.138   2.944  11.493
72734W        W31995  21.558  20.578  10.095
72735W        W31996   2.321  35.089  13.026
72736W        W31997  36.381   3.324  14.857
72737W        W31998  42.899   2.271   2.237
72738W        W31999  23.716  30.539  12.084
72739W        W32000   6.356  32.603  10.999
72740W        W32001  22.512  10.290  12.508
72741W        W32002   8.777   2.417   1.739
72742W        W32003  29.090   3.242   2.885
72743W        W32004  15.804  11.834   5.112
72744W        W32005   0.401  27.485   4.623
72745W        W32006  36.505   1.386  11.862
72746W        W32007   4.247  40.463  14.900
72747W        W32008   6.277  28.084   1.926
72748W        W32009  38.043  41.924   4.135
72749W        W32010  29.053  31.002   0.919
72750W        W32011  42.021  40.358  13.797
72751W        W32012  31.094   7.196  13.453
72752W        W32013  12.776  21.171  10.481
72753W        W32014  33.552   1.856  14.300
72754W        W32015  36.041   5.761   2.825
72755W        W32016   1.756  43.461  12.840
72756W        W32017  27.676   8.281   3.862
72757W        W32018  15.115   5.213  13.870
72758W        W32019  18.657  27.551   1.800
72759W        W32020  41.526  14.274   0.828
72760W        W32021   0.372  44.941  12.965
72761W        W32022   2.953   7.856  12.992
72762W        W32023   2.846  27.098   3.859
72763W        W32024  38.519  30.619  10.522
72764W        W32025  11.684   7.907  14.003
72765W        W32026   5.752   3.334  12.939
72766W        W32027  16.607   6.212   3.752
72767W        W32028  31.984  34.075   5.777
72768W        W32029  33.959  24.572   1.395
72769W        W32030   3.290   3.391  12.023
72770W        W32031  24.179   6.700  13.375
72771W        W32032  38.525   9.351  11.564
72772W        W32033  44.790  44.858  13.809
72773W        W32034  44.489  21.554   3.787
72774W        W32035  20.253  36.999   0.435
72775W        W32036  31.996  38.463   4.678
72776W        W32037  22.194   6.320  12.030
72777W        W32038  22.721   9.225  10.471
72778W        W32039  10.196   0.808   5.216
72779W        W32040   2.799  43.296  12.366
72780W        W32041  41.455   4.329  14.876
72781W        W32042  38.422   4.761   0.399
72782W        W32043  36.077  12.242   4.740
72783W        W32044   7.338  10.160   2.197
72784W        W32045  37.018   9.270  10.601
72785W        W32046  25.496   7.395  10.573
72786W        W32047  23.168  42.935   4.343
72787W        W32048  39.841  34.565  13.358
72788W        W32049  35.013   0.835   2.374
72789W        W32050  26.055  15.688  14.306
72790W        W32051  15.302  34.523   2.310
72791W        W32052  35.081  25.142  11.928
72792W        W32053  32.528  15.181  12.013
72793W        W32054   2.922  44.877   3.198
72794W        W32055  27.558  13.776  11.372
72795W        W32056  23.528  34.505   4.619
72796W        W32057  18.235  11.155  10.501
72797W        W32058   5.317  16.646  11.891
72798W        W32059  31.548  22.659   1.276
72799W        W32060  38.423   7.353  11.401
72800W        W32061  39.880  14.285  11.123
72801W        W32062  35.106   6.236  11.601
72802W        W32063   0.776   0.275   3.343
72803W        W32064  26.149   6.845  13.044
72804W        W32065  36.891  18.199   2.816
72805W        W32066  22.644   7.284  11.473
72806W        W32067   7.863   5.902   0.265
72807W        W32068  33.557   4.406   0.909
72808W        W32069   9.879  16.105   4.317
72809W        W32070  22.552  35.908   5.287
72810W        W32071  25.651   8.893   3.737
72811W        W32072   0.906  15.159  11.961
72812W        W32073  15.329  21.663  10.098
72813W        W32074  30.022  25.075  12.356
72814W        W32075  34.961  28.679   2.372
72815W        W32076  24.024  42.934  11.414
72816W        W32077   0.401  41.302  11.056
72817W        W32078   4.717  29.579  14.867
72818W        W32079  21.208  26.598  12.014
72819W        W32080  36.883  25.202  14.882
72820W        W32081  21.652   6.341   0.428
72821W        W32082  11.856  23.657   4.347
72822W        W32083  18.632  22.542  10.623
72823W        W32084   0.472   8.692   1.805
72824W        W32085  25.166   1.294  13.997
72825W        W32086  14.251  44.264  13.014
72826W        W32087  14.668  39.326   1.836
72827W        W32088   3.414   0.874   3.284
72828W        W32089  39.983   1.811   3.274
72829W        W32090  40.549  40.430  11.434
72830W        W32091  11.724  11.628  11.536
72831W        W32092  26.512  39.980   5.303
72832W        W32093  44.970  34.540  13.955
72833W        W32094  38.346  19.633   4.163
72834W        W32095  16.219  42.439  13.054
72835W        W32096  26.633  31.114   2.180
72836W        W32097  43.988  17.121   2.716
72837W        W32098  20.259  19.160  12.932
72838W        W32099  20.120  37.075  13.884
72839W        W32100  18.227   0.913  14.481
72840W        W32101  28.018  30.074   1.408
72841W        W32102  23.131  43.832  14.456
72842W        W32103  18.687  21.161  14.398
72843W        W32104  42.287   1.777   2.692
72844W        W32105  39.555  28.472   3.383
72845W        W32106  22.673  16.253   1.733
72846W        W32107  21.696  38.518   2.252
72847W        W32108  42.845   4.447   3.771
72848W        W32109  25.167  20.730  12.410
72849W        W32110  14.316  30.152   3.349
72850W        W32111  40.342  37.382   1.377
72851W        W32112   8.189  15.745  10.574
72852W        W32113   9.799  31.991  13.316
72853W        W32114  31.984  20.199   4.201
72854W        W32115  42.852  31.971   5.154
72855W        W32116   7.797  25.625  14.933
72856W        W32117  10.685  41.898  13.924
72857W        W32118  43.012  20.079   0.347
72858W        W32119  16.241  20.540   3.206
72859W        W32120  14.275  24.201   0.460
72860W        W32121  16.752  10.371   4.275
72861W        W32122   4.290  22.639  13.349
72862W        W32123   1.933  28.141  13.463
72863W        W32124   7.679  36.399  11.076
72864W        W32125   2.791  14.328  14.783
72865W        W32126   7.706  33.569   2.807
72866W        W32127  44.261  28.584  13.005
72867W        W32128   1.370   4.866  12.427
72868W        W32129  29.072  40.917  14.880
72869W        W32130   4.793  19.239   0.852
72870W        W32131  37.477   5.342  14.819
72871W        W32132  31.492   4.833   3.734
72872W        W32133   2.309   4.878  11.985
72873W        W32134  43.947  23.132   4.204
72874W        W32135  29.166  33.434  14.300
72875W        W32136   8.839  21.714   4.769
72876W        W32137   6.794   5.884  14.275
72877W        W32138  37.849  25.569   1.362
72878W        W32139  36.013  15.219   1.410
72879W        W32140  13.185   2.373   2.693
72880W        W32141  29.007  40.508  12.495
72881W        W32142   4.885  44.424   9.969
72882W        W32143  26.465  17.717  11.991
72883W        W32144  21.618  34.379  13.326
72884W        W32145  42.925  36.589   4.669
72885W        W32146  31.044   1.376   2.814
72886W        W32147  22.668   8.794   1.404
72887W        W32148  28.116  35.510   3.730
72888W        W32149  14.820  15.130  12.085
72889W        W32150  44.769   0.385  11.070
72890W        W32151  12.211   7.319   4.602
72891W        W32152  35.948   6.209   4.722
72892W        W32153  30.441  11.312   9.538
72893W        W32154  27.525  21.547   4.651
72894W        W32155  32.435  11.789   0.775
72895W        W32156   3.861  21.629   2.691
72896W        W32157  38.517  10.157   3.247
72897W        W32158  41.838   2.793   4.697
72898W        W32159  13.165  26.121   4.635
72899W        W32160   4.751  25.672  13.793
72900W        W32161  23.510   7.894  10.487
72901W        W32162   5.922  11.863   0.316
72902W        W32163  20.081  16.131  14.296
72903W        W32164  30.934  11.132  11.925
72904W        W32165  25.216  19.707   0.277
72905W        W32166  30.124  20.675  14.964
72906W        W32167  33.474  32.913   1.280
72907W        W32168   9.383  31.102  14.971
72908W        W32169   7.416  41.917  11.016
72909W        W32170  31.004  26.612  14.330
72910W        W32171   4.856  40.528   4.219
72911W        W32172  41.904  21.663  11.478
72912W        W32173  27.162  34.009  11.045
72913W        W32174  21.257   4.701  12.516
72914W        W32175  32.513  21.723   2.303
72915W        W32176   6.796  37.351  12.485
72916W        W32177  27.648  14.224   4.235
72917W        W32178   6.377  20.184   1.422
72918W        W32179   9.685   9.269  12.496
72919W        W32180   1.784  21.153   1.911
72920W        W32181   2.243  40.376  13.971
72921W        W32182  27.189  34.419   2.228
72922W        W32183  15.167   5.875  14.362
72923W        W32184   2.733   8.261  10.991
72924W        W32185   1.753  41.982   3.234
72925W        W32186  25.178   8.243   2.853
72926W        W32187  32.501  36.357  13.451
72927W        W32188  14.747  23.725   4.749
72928W        W32189  23.625  32.473  10.978
72929W        W32190  38.056  42.526   9.552
72930W        W32191   3.856  17.109   4.813
72931W        W32192   7.340   1.438   3.674
72932W        W32193   7.306  18.050   1.801
72933W        W32194  30.971   9.394   0.423
72934W        W32195  18.288  23.229   0.294
72935W        W32196  33.979  36.942   2.372
72936W        W32197  17.264  16.097  13.473
72937W        W32198  18.585  22.008   5.753
72938W        W32199  37.892  34.595   2.765
72939W        W32200   9.810   5.910  11.997
72940W        W32201  17.286  39.502  12.845
72941W        W32202  40.405  21.085  14.976
72942W        W32203  19.197  20.036  14.291
72943W        W32204  40.497  25.677   1.841
72944W        W32205  19.207  13.689  14.464
72945W        W32206  25.185  10.357   0.365
72946W        W32207  34.594  20.030   4.621
72947W        W32208   0.843  32.948  10.915
72948W        W32209  41.469  19.718   1.711
72949W        W32210  42.284  37.547   3.836
72950W        W32211  26.618  40.312  14.954
72951W        W32212  19.558  24.102   2.704
72952W        W32213   7.201  43.477   2.383
72953W        W32214  33.995  11.188  13.867
72954W        W32215  29.166  15.172   0.254
72955W        W32216  38.335  38.048   0.849
72956W        W32217  37.544  42.951   1.399
72957W        W32218   7.695   4.845  13.483
72958W        W32219  34.985  17.740  13.511
72959W        W32220  12.258  21.523  14.424
72960W        W32221   3.396  28.045  12.047
72961W        W32222  11.733  24.487  12.006
72962W        W32223   4.786  25.211  12.566
72963W        W32224  18.227  36.478   4.128
72964W        W32225   4.731  10.757  12.034
72965W        W32226  19.552  37.421  12.549
72966W        W32227  41.845  30.115  12.868
72967W        W32228   3.868  25.477  11.573
72968W        W32229   9.247  25.647  12.879
72969W        W32230   5.918  13.188  10.589
72970W        W32231  43.909   4.740  14.449
72971W        W32232  14.095   7.871  11.119
72972W        W32233   4.809  21.576   4.697
72973W        W32234  16.078  12.856  11.932
72974W        W32235  40.018  18.097  10.917
72975W        W32236  40.850   6.409  12.093
72976W        W32237  36.869   8.356  13.370
72977W        W32238  31.609  42.019  10.015
72978W        W32239  26.140  33.500  10.424
72979W        W32240   2.735  27.626  11.074
72980W        W32241  25.009   7.360  14.465
72981W        W32242  12.823  12.122  11.383
72982W        W32243  42.329  31.599   4.657
72983W        W32244  38.331  25.996   2.388
72984W        W32245  17.687   3.804   0.829
72985W        W32246  43.455  37.041  11.041
72986W        W32247  38.972  41.032  11.438
72987W        W32248   6.717  27.986  11.420
72988W        W32249  33.025  17.123   0.793
72989W        W32250  40.043  44.754   2.824
72990W        W32251  16.308  43.489   0.898
72991W        W32252  13.279  27.197  14.346
72992W        W32253  28.930  44.283  14.372
72993W        W32254  34.449  12.256  14.444
72994W        W32255  43.988   7.839   1.234
72995W        W32256  35.061  10.246  11.024
72996W        W32257  16.757   3.332   4.240
72997W        W32258   9.306  38.383   4.604
72998W        W32259  42.507  18.089  14.489
72999W        W32260  42.968  29.031  10.411
73000W        W32261  34.973  18.122   3.182
73001W        W32262   8.406  44.320   1.226
73002W        W32263  24.039  14.617  11.905
73003W        W32264   4.445  12.330  11.971
73004W        W32265  22.640  33.900   3.725
73005W        W32266  44.496  22.530  14.348
73006W        W32267  19.199  44.505  11.933
73007W        W32268  10.677  31.428   4.306
73008W        W32269  23.506  34.065   0.886
73009W        W32270  35.903   2.727  14.878
73010W        W32271  43.898   3.432  10.601
73011W        W32272  16.806   9.670   1.229
73012W        W32273  17.782  35.433   4.151
73013W        W32274  42.372  28.132   2.753
73014W        W32275  37.472  14.160  12.400
73015W        W32276  31.639   2.393  12.529
73016W        W32277  11.230  26.951   0.413
73017W        W32278  33.499  43.985   1.444
73018W        W32279  26.035  44.865  13.522
73019W        W32280  43.302  42.858   4.790
73020W        W32281  26.176  29.122  13.396
73021W        W32282  25.009  37.861   3.147
73022W        W32283   0.819  12.789   2.283
73023W        W32284   6.754  40.317   2.253
73024W        W32285  22.620   9.163   4.187
73025W        W32286  30.151  38.535  14.456
73026W        W32287  29.660  43.416  13.933
73027W        W32288  36.431  29.613   3.377
73028W        W32289  24.057  34.870  14.809
73029W        W32290  29.133  39.057  14.886
73030W        W32291  18.138  13.640   2.394
73031W        W32292  16.307   5.868   4.194
73032W        W32293  30.443   4.254  12.360
73033W        W32294   3.837  19.753  11.019
73034W        W32295   7.693  38.005  13.943
73035W        W32296  37.077   4.323   0.362
73036W        W32297  13.822   0.320   3.827
73037W        W32298   7.743  35.465  13.485
73038W        W32299   3.393  12.677   4.734
73039W        W32300  30.543  35.523   0.417
73040W        W32301  16.214  25.132   1.774
73041W        W32302   1.887   2.315   4.766
73042W        W32303  14.245  15.265   4.772
73043W        W32304  26.062  14.292  14.473
73044W        W32305   4.792  41.438   2.239
73045W        W32306  20.073   4.772   2.336
73046W        W32307  13.815  25.508  11.999
73047W        W32308  44.011   9.758   0.262
73048W        W32309  22.608   6.781   2.340
73049W        W32310  12.362  30.117   0.306
73050W        W32311  29.173  26.525  11.123
73051W        W32312   1.456  24.599  12.886
73052W        W32313  25.984  30.924  14.882
73053W        W32314   1.417  12.250  13.517
73054W        W32315  31.528  21.702  11.972
73055W        W32316   5.264  39.880  12.996
73056W        W32317   8.656  12.686   4.836
73057W        W32318  35.102  23.099   1.735
73058W        W32319  11.261   6.730   0.828
73059W        W32320  34.923  40.973   1.760
73060W        W32321   4.343  35.932   2.866
73061W        W32322  25.577  38.498  12.950
73062W        W32323   7.777   0.955  14.871
73063W        W32324  36.961  20.129   3.793
73064W        W32325  14.237   7.791  11.422
73065W        W32326  43.303   0.752   0.361
73066W        W32327   1.975  23.203   2.754
73067W        W32328   0.290  35.863  12.010
73068W        W32329  26.520  41.466   0.913
73069W        W32330  15.810   1.863  13.390
73070W        W32331  40.332  39.947   3.662
73071W        W32332  30.130   2.867  11.048
73072W        W32333  44.360   4.841  11.081
73073W        W32334  21.715   0.958   4.157
73074W        W32335   2.467  24.203  11.930
73075W        W32336  38.409  25.540  11.381
73076W        W32337  41.928  41.885   3.783
73077W        W32338  30.959  28.140   3.692
73078W        W32339  26.057  16.310  12.028
73079W        W32340  20.051  36.512   4.812
73080W        W32341  27.954  22.627   4.645
73081W        W32342  13.773  11.754  11.014
73082W        W32343   4.939  30.643  12.520
73083W        W32344   5.791  33.411   3.747
73084W        W32345   3.276  37.879   2.412
73085W        W32346  43.897   1.756  12.364
73086W        W32347  24.724   2.857  13.873
73087W        W32348  40.871  43.912  14.845
73088W        W32349  41.476  43.298  12.870
73089W        W32350  39.854   3.440   2.768
73090W        W32351  43.770  29.934  13.526
73091W        W32352  10.196  20.727  12.019
73092W        W32353  10.767  18.084   3.310
73093W        W32354  12.718  15.771   3.802
73094W        W32355  28.163  25.558   4.242
73095W        W32356  20.734  29.985   2.400
73096W        W32357  36.085   1.824  14.508
73097W        W32358   8.790  38.919   2.334
73098W        W32359   3.886  26.986  12.944
73099W        W32360  23.640   6.285  11.918
73100W        W32361  40.397  36.382   1.234
73101W        W32362  15.814  16.241   1.287
73102W        W32363  30.463  22.224  10.579
73103W        W32364  13.162  44.325  11.964
73104W        W32365   9.258  35.098   4.289
73105W        W32366   5.408   9.741   3.173
73106W        W32367  36.394  41.324   1.430
73107W        W32368  29.628   4.892   4.774
73108W        W32369   7.846  26.044   1.735
73109W        W32370  23.107  36.093   3.695
73110W        W32371   7.860  41.392   4.282
73111W        W32372  13.698   8.366  13.924
73112W        W32373  10.360   4.225  11.036
73113W        W32374  12.725  10.684  13.464
73114W        W32375   4.309  21.181   2.803
73115W        W32376  35.593  22.012   1.263
73116W        W32377  16.100  24.185  11.372
73117W        W32378   7.274  44.373   1.701
73118W        W32379  20.663   6.688   2.408
73119W        W32380  44.425   2.434   0.247
73120W        W32381  15.711   0.980  14.354
73121W        W32382  10.691  23.694   0.468
73122W        W32383   9.211  19.098   2.388
73123W        W32384  32.510   0.977  12.844
73124W        W32385   7.387  35.028   3.328
73125W        W32386  29.002  29.036   4.720
73126W        W32387  36.391  10.773   1.819
73127W        W32388   6.386   7.350   2.780
73128W        W32389  29.650  10.209  13.469
73129W        W32390  36.879  38.905  10.435
73130W        W32391  32.412  33.063   2.326
73131W        W32392  14.331  13.160   0.435
73132W        W32393   0.457  33.549   3.650
73133W        W32394   8.387   6.325   1.794
73134W        W32395  22.596   7.698  14.365
73135W        W32396  23.210  43.850  12.041
73136W        W32397   5.780  35.990   4.728
73137W        W32398  21.576  39.487  12.547
73138W        W32399  17.130   3.838  11.478
73139W        W32400   8.384  16.249  11.056
73140W        W32401   5.298  31.448   3.798
73141W        W32402  34.104   0.334  13.903
73142W        W32403  11.196  19.697   2.224
73143W        W32404   8.822  20.194  14.891
73144W        W32405  39.965  21.524   0.901
73145W        W32406  26.626   0.797   1.313
73146W        W32407  24.005   7.712   4.652
73147W        W32408  17.080   9.786   0.786
73148W        W32409  20.555  14.775   2.275
73149W        W32410  15.806  34.082  11.409
73150W        W32411   1.358  42.919   3.840
73151W        W32412  16.727   7.721   3.240
73152W        W32413  27.945  31.961   1.760
73153W        W32414  29.598   9.736  12.410
73154W        W32415  39.443  34.108  11.514
73155W        W32416   0.855   9.708   0.893
73156W        W32417  10.205  12.348  13.979
73157W        W32418  19.538   7.690   1.234
73158W        W32419  16.204   0.886  12.921
73159W        W32420  15.695  30.447   3.734
73160W        W32421   6.825  22.583   4.277
73161W        W32422   7.772  37.558   4.186
73162W        W32423  13.285  26.630  10.905
73163W        W32424  39.947   1.401  13.030
73164W        W32425   9.654  19.227   4.719
73165W        W32426  36.428   0.811   3.209
73166W        W32427  26.582  14.741   1.889
73167W        W32428  43.921  23.531   2.671
73168W        W32429   4.438  12.851   0.848
73169W        W32430   9.653  38.841  10.473
73170W        W32431  12.657  24.132  14.378
73171W        W32432  15.611  21.208   0.737
73172W        W32433  40.885  40.317  13.452
73173W        W32434  23.181  34.075   3.842
73174W        W32435  13.346   5.917  12.545
73175W        W32436  21.599  28.536   1.812
73176W        W32437  42.836  35.009  12.379
73177W        W32438  43.335  17.631   2.265
73178W        W32439  27.057   2.263   2.345
73179W        W32440   9.159  25.965   4.812
73180W        W32441   7.294  18.080   4.667
73181W        W32442  37.528  20.167  12.883
73182W        W32443   9.314  12.349   0.456
73183W        W32444  18.652  22.627   4.235
73184W        W32445  34.522   2.291  11.093
73185W        W32446  14.249  28.063  14.291
73186W        W32447   6.724   0.893  11.884
73187W        W32448  14.336  32.572   3.864
73188W        W32449   8.733  18.785  13.367
73189W        W32450  15.644   7.358   2.821
73190W        W32451   3.221   7.752  13.945
73191W        W32452  32.133  43.832  14.010
73192W        W32453  13.163  16.604   0.803
73193W        W32454  16.183  11.626  14.955
73194W        W32455  11.663   1.369  14.516
73195W        W32456  43.896  31.644   3.830
73196W        W32457  36.376  31.128  13.515
73197W        W32458  21.633  37.469  14.293
73198W        W32459  33.380   9.228  12.385
73199W        W32460  15.255   2.829   2.277
73200W        W32461  35.383  38.952  10.947
73201W        W32462   2.228  36.938   2.267
73202W        W32463  28.524   2.239  10.551
73203W        W32464  15.125  36.015   2.412
73204W        W32465  27.998  39.351  12.946
73205W        W32466  32.487   1.382  14.976
73206W        W32467  18.093   5.240   1.839
73207W        W32468  40.327  34.597  11.967
73208W        W32469  33.128  33.507   4.614
73209W        W32470  13.735  23.689  11.998
73210W        W32471  32.612  28.987  14.467
73211W        W32472   7.871  42.820   4.338
73212W        W32473  26.518  37.909   2.389
73213W        W32474  43.271  36.036   0.737
73214W        W32475   7.378  17.702   0.371
73215W        W32476  18.174  40.460   1.740
73216W        W32477  11.258  35.902  10.581
73217W        W32478  15.244   2.918   4.759
73218W        W32479  35.575  42.409   2.355
73219W        W32480  17.066   1.779   0.339
73220W        W32481   7.394  32.126  12.981
73221W        W32482  27.067   2.942   2.665
73222W        W32483   9.372  44.342   4.697
73223W        W32484   2.305   3.912  11.111
73224W        W32485   1.467  19.224  13.348
73225W        W32486  32.440  15.312  13.363
73226W        W32487   2.893   3.274   1.427
73227W        W32488   0.286  42.927  13.543
73228W        W32489  42.880  44.858  13.918
73229W        W32490  21.216  19.655   0.437
73230W        W32491  11.860  35.514  12.455
73231W        W32492  27.668  19.215  11.459
73232W        W32493   3.813   2.794   1.854
73233W        W32494  20.092  35.554  14.892
73234W        W32495  22.143  39.812  13.906
73235W        W32496  43.432   6.321   1.913
73236W        W32497  29.098  10.673   2.316
73237W        W32498  19.188  43.326  14.322
73238W        W32499  21.533  17.076  13.061
73239W        W32500  29.617   0.474  12.925
73240W        W32501  29.516  41.990   3.186
73241W        W32502  32.096  10.191   1.297
73242W        W32503  14.734  43.436  10.426
73243W        W32504   8.369   5.305  11.595
73244W        W32505  31.533  27.660   0.729
73245W        W32506   6.280  14.195  11.611
73246W        W32507   5.281   0.988  13.311
73247W        W32508  17.695   6.421  13.545
73248W        W32509   2.452  33.404   4.626
73249W        W32510   8.183  36.462  13.453
73250W        W32511  23.186   4.246  12.934
73251W        W32512  33.601  19.651  11.015
73252W        W32513  15.738  22.029  13.487
73253W        W32514   8.731   1.943   2.735
73254W        W32515  12.725  30.052   0.293
73255W        W32516  44.831   7.280  10.944
73256W        W32517  22.088  27.637   0.854
73257W        W32518  23.677  27.576  14.293
73258W        W32519  34.991  30.604  14.373
73259W        W32520  14.608  32.531  10.555
73260W        W32521   7.825   7.228  14.377
73261W        W32522  30.931  27.051   3.342
73262W        W32523  26.534  14.116  10.960
73263W        W32524   2.890  42.886  10.140
73264W        W32525   6.290  21.661   4.182
73265W        W32526  15.272  30.620   1.435
73266W        W32527  15.089   7.669  10.458
73267W        W32528   1.366  44.866   2.843
73268W        W32529   7.835   4.425   2.205
73269W        W32530  25.488  39.523   4.138
73270W        W32531  37.949  16.674   0.396
73271W        W32532  11.645  25.596  10.992
73272W        W32533  41.800  36.521  11.394
73273W        W32534  43.471   1.286  14.919
73274W        W32535  19.700  10.717  11.589
73275W        W32536  15.085  26.025  11.907
73276W        W32537  13.690   2.438  10.642
73277W        W32538  16.757  28.975  14.899
73278W        W32539  28.464  18.274  13.514
73279W        W32540  39.904  15.095  14.833
73280W        W32541  41.024  17.763   2.259
73281W        W32542   0.456  18.544  13.503
73282W        W32543  17.222   9.674  10.543
73283W        W32544  44.444  23.137   4.697
73284W        W32545  26.607  36.845   5.103
73285W        W32546  13.291   0.850  13.950
73286W        W32547  38.834  18.101  10.455
73287W        W32548   4.721   8.664   1.792
73288W        W32549  11.215   0.481  13.422
73289W        W32550  23.665   1.280  10.464
73290W        W32551  40.035  40.807  12.494
73291W        W32552  37.532   1.288   2.407
73292W        W32553  21.668  30.145  14.970
73293W        W32554  36.462  33.044   2.405
73294W        W32555  22.622   7.877   2.205
73295W        W32556  42.358  44.300  11.959
73296W        W32557  21.625   8.290   2.669
73297W        W32558  28.082   0.791  13.497
73298W        W32559   3.871  13.623   3.343
73299W        W32560   8.172  14.684  14.290
73300W        W32561  18.197  13.310  10.483
73301W        W32562  20.669  32.585   4.353
73302W        W32563  28.014  28.001  10.954
73303W        W32564  44.814  38.346   2.715
73304W        W32565  17.281  14.138  12.852
73305W        W32566   4.773  23.223  10.933
73306W        W32567  16.593  25.033  11.005
73307W        W32568  10.141  11.256  14.936
73308W        W32569  44.946  29.994  12.044
73309W        W32570  32.937  37.959  14.320
73310W        W32571  42.307  40.411  14.902
73311W        W32572  26.969   9.648  13.385
73312W        W32573  41.913  18.599   3.278
73313W        W32574  30.584  33.491   3.330
73314W        W32575  36.492  14.661   3.669
73315W        W32576  12.817   5.725  14.950
73316W        W32577   4.226  24.000   3.346
73317W        W32578  39.329   4.918  11.423
73318W        W32579   9.325  28.062   3.865
73319W        W32580  12.287  32.003  11.420
73320W        W32581  15.142   6.336  13.891
73321W        W32582  36.870  41.024  10.051
73322W        W32583   4.760  39.828   4.246
73323W        W32584  43.424  17.127   0.456
73324W        W32585   9.329   7.735  12.090
73325W        W32586  14.830  38.889  12.543
73326W        W32587  38.932   2.846  10.115
73327W        W32588  40.865  13.695   4.655
73328W        W32589  36.425   0.777  13.019
73329W        W32590  43.849  25.115  10.456
73330W        W32591  29.960  34.037   0.810
73331W        W32592  19.741  37.981  12.524
73332W        W32593  20.748  24.100   2.228
73333W        W32594  42.822  18.660   2.205
73334W        W32595  42.477  19.558   3.769
73335W        W32596  33.080  15.109   1.233
73336W        W32597  24.679  21.594   4.303
73337W        W32598  43.013  42.846  13.040
73338W        W32599   8.278  18.278   1.803
73339W        W32600  12.842  43.833  12.889
73340W        W32601  30.007  39.494   4.273
73341W        W32602   0.335  33.440   2.893
73342W        W32603  15.268  21.700  12.348
73343W        W32604   2.411  13.679   1.359
73344W        W32605  15.595  13.160   2.820
73345W        W32606   1.461  26.109  14.776
73346W        W32607   9.184  19.548  10.524
73347W        W32608  14.606   1.251  10.918
73348W        W32609  32.950   8.873  11.482
73349W        W32610  21.630  32.081  13.514
73350W        W32611  16.805  28.456  12.496
73351W        W32612   9.882   0.356  11.040
73352W        W32613  15.266  23.500  11.932
73353W        W32614  25.518  19.272  10.563
73354W        W32615  16.085  38.838  14.463
73355W        W32616  36.490  15.266  14.476
73356W        W32617  24.647   3.739  11.071
73357W        W32618   1.898  37.901  11.913
73358W        W32619  21.211  18.258  13.058
73359W        W32620  27.569  19.597   3.303
73360W        W32621  26.978  22.193  12.070
73361W        W32622  23.038  44.844  10.510
73362W        W32623  31.533  31.506   3.256
73363W        W32624  41.937  38.934   1.895
73364W        W32625   0.488  35.533   0.339
73365W        W32626  36.922  30.047   0.258
73366W        W32627  34.983  30.511  12.454
73367W        W32628  17.138  32.561   4.782
73368W        W32629  11.327  42.788   4.253
73369W        W32630   2.938  24.685   3.256
73370W        W32631  41.379  38.427  14.324
73371W        W32632  13.676  42.914  14.934
73372W        W32633   2.874  29.155   0.920
73373W        W32634  10.786  10.139   3.819
73374W        W32635  26.622   1.459  14.329
73375W        W32636  37.061  20.102  11.541
73376W        W32637  25.092  11.794  14.389
73377W        W32638  36.506  42.905  11.070
73378W        W32639  28.561  39.950   1.707
73379W        W32640  16.651  31.070   0.774
73380W        W32641  17.122  29.649   4.664
73381W        W32642  37.914  13.731   2.664
73382W        W32643  27.042  28.093   2.752
73383W        W32644  38.071  44.365  10.011
73384W        W32645   7.784   5.196  12.067
73385W        W32646  29.032  38.559   4.260
73386W        W32647  30.073  37.021   4.227
73387W        W32648  14.155  22.221  14.513
73388W        W32649  35.478  33.969  13.033
73389W        W32650  36.394  17.618   0.261
73390W        W32651   0.868  35.454  13.958
73391W        W32652  16.593  24.535  13.339
73392W        W32653   2.347  10.267  11.920
73393W        W32654  39.954  33.495   3.281
73394W        W32655  12.781   5.214  13.915
73395W        W32656  30.454   9.260   4.181
73396W        W32657   9.851  41.002   3.806
73397W        W32658  12.714  25.084   4.184
73398W        W32659  30.005   7.729   3.831
73399W        W32660  18.729  14.108  14.981
73400W        W32661   1.823  20.573   4.634
73401W        W32662  34.106  19.747  14.366
73402W        W32663  11.762  38.038  12.052
73403W        W32664  35.911  30.432  10.945
73404W        W32665   9.716  10.648   2.387
73405W        W32666  20.565   8.846  11.036
73406W        W32667   2.320  41.827   3.298
73407W        W32668  24.168   5.343  14.920
73408W        W32669  42.861  35.036   4.236
73409W        W32670  33.479  25.663  12.937
73410W        W32671  34.051  36.080  10.039
73411W        W32672  23.717  14.319  11.020
73412W        W32673  20.754  30.593   1.859
73413W        W32674  19.644  17.597  12.557
73414W        W32675   2.264  39.835   4.770
73415W        W32676   4.936  25.154  13.813
73416W        W32677   4.773  40.964   0.356
73417W        W32678  19.077  37.981  12.568
73418W        W32679  38.077   2.781   3.808
73419W        W32680   8.759  39.548  14.347
73420W        W32681  33.029  38.535  12.547
73421W        W32682  10.350  33.401   4.222
73422W        W32683  15.308  24.536  14.377
73423W        W32684   5.382  11.207   3.693
73424W        W32685  14.773  26.672  14.330
73425W        W32686   1.322  27.547  14.452
73426W        W32687  38.943  19.060  10.518
73427W        W32688  35.957  28.680  12.869
73428W        W32689  37.521  15.708   1.272
73429W        W32690  41.321  44.991  14.498
73430W        W32691  23.070  30.637   2.815
73431W        W32692  19.125  17.627  10.018
73432W        W32693  41.483  20.254   3.188
73433W        W32694   0.353   1.279   1.758
73434W        W32695  15.646  15.692   3.824
73435W        W32696   8.844  29.982   4.720
73436W        W32697  26.120   1.755  13.545
73437W        W32698  29.080  41.914   0.247
73438W        W32699  42.517   1.340  13.503
73439W        W32700  15.595  35.913   2.370
73440W        W32701  33.030  36.443  11.025
73441W        W32702   8.360   8.360  11.956
73442W        W32703  26.681  22.129  10.939
73443W        W32704  24.219  37.998   2.214
73444W        W32705   2.867   8.213   9.474
73445W        W32706  31.088  10.762   0.384
73446W        W32707   3.870  43.885  13.401
73447W        W32708  13.602  17.062   0.876
73448W        W32709  42.900   2.322  14.332
73449W        W32710  36.999  24.597   2.406
73450W        W32711  19.676  32.527  11.444
73451W        W32712  26.536  39.364   3.362
73452W        W32713  28.681  28.466  14.962
73453W        W32714   4.741   4.881  14.936
73454W        W32715  37.351   6.353  10.968
73455W        W32716  26.997  36.948   3.639
73456W        W32717  18.667  17.790   2.701
73457W        W32718  30.637  31.517   2.718
73458W        W32719  42.341  34.071   4.633
73459W        W32720  24.017  12.743  10.907
73460W        W32721  29.435  25.010   1.234
73461W        W32722   5.730  11.674  10.542
73462W        W32723   7.305  17.272  13.386
73463W        W32724  20.255  19.098  12.564
73464W        W32725  22.729  19.583  10.106
73465W        W32726  14.616  38.342  11.944
73466W        W32727  41.367   5.241   1.828
73467W        W32728  31.905  30.993  14.507
73468W        W32729  10.822  32.450   4.353
73469W        W32730  42.506  21.751  14.858
73470W        W32731  16.234  16.711   2.303
73471W        W32732  15.819  24.169   3.371
73472W        W32733  34.025  38.832  10.967
73473W        W32734  30.974  41.359  14.281
73474W        W32735   0.306  22.724   2.672
73475W        W32736  36.890   1.305   1.286
73476W        W32737  28.463  24.487   3.353
73477W        W32738  32.001   6.729  13.915
73478W        W32739   1.837  43.918  11.994
73479W        W32740  36.901  20.558  10.507
73480W        W32741   3.457  29.006  12.411
73481W        W32742   3.330  42.913  13.982
73482W        W32743  19.239   1.328  12.441
73483W        W32744  18.242  18.559  11.857
73484W        W32745  11.744  38.944  10.020
73485W        W32746  10.328  15.261  10.920
73486W        W32747  22.215  33.905   0.273
73487W        W32748  37.533  28.459   1.279
73488W        W32749  44.884  17.786   1.346
73489W        W32750  10.873  30.974  11.384
73490W        W32751  18.162  17.106   2.414
73491W        W32752  40.340  37.382   3.715
73492W        W32753  13.262  36.545  12.411
73493W        W32754  36.368  38.014  14.818
73494W        W32755  34.951  35.377  10.644
73495W        W32756  20.122   9.739   3.237
73496W        W32757  24.164  12.357   1.442
73497W        W32758  26.107  39.337   4.266
73498W        W32759  33.524  24.180   4.198
73499W        W32760  35.961   9.713  13.890
73500W        W32761  37.547   6.190   4.690
73501W        W32762  24.699  11.718   3.192
73502W        W32763  40.857  26.506  11.098
73503W        W32764  21.172  12.796   0.466
73504W        W32765  25.533  18.250  14.472
73505W        W32766   3.313  24.669  14.432
73506W        W32767  37.472   8.176  11.967
73507W        W32768  12.685  36.470   3.669
73508W        W32769   1.777  36.060   4.199
73509W        W32770  34.571   4.938   2.772
73510W        W32771   6.373  33.000   1.921
73511W        W32772  26.106  21.215   1.367
73512W        W32773  41.882   4.935   2.812
73513W        W32774  38.063  38.443   1.754
73514W        W32775  26.073  20.537  13.417
73515W        W32776  20.268   5.895  14.801
73516W        W32777   1.332   9.158  13.389
73517W        W32778  20.559  17.152  11.990
73518W        W32779  16.657   4.769  13.934
73519W        W32780  33.510  38.519   0.854
73520W        W32781  32.536  19.072  13.952
73521W        W32782  38.828  22.241  13.006
73522W        W32783  14.255  29.058  14.423
73523W        W32784  18.729  12.795  13.458
73524W        W32785  21.040  21.045  12.456
73525W        W32786  28.104  16.168  11.961
73526W        W32787  24.168  20.689  14.938
73527W        W32788  38.003  12.708  14.866
73528W        W32789  29.161  34.425   3.855
73529W        W32790  33.598   8.684   4.662
73530W        W32791  28.108  21.720   2.728
73531W        W32792  40.882  10.328  10.447
73532W        W32793   7.789  13.741  10.459
73533W        W32794   6.848   2.898  10.457
73534W        W32795  10.713  29.431   2.734
73535W        W32796  41.326   2.939   1.749
73536W        W32797   1.291  25.131  11.865
73537W        W32798  20.557  31.134   4.160
73538W        W32799  20.144   3.338   2.364
73539W        W32800  18.138  19.237   3.170
73540W        W32801  38.326   6.732  13.360
73541W        W32802  44.493   0.962  11.478
73542W        W32803  43.314   2.725   4.158
73543W        W32804   8.744  21.682   0.740
73544W        W32805  33.045  37.464   3.365
73545W        W32806   0.988  40.945  13.913
73546W        W32807  31.112  20.095  12.552
73547W        W32808  21.189  38.001  14.353
73548W        W32809   4.259  29.997   3.723
73549W        W32810  19.197  11.787   3.654
73550W        W32811  16.795   8.728   2.273
73551W        W32812   8.809  16.751   3.380
73552W        W32813  17.193   7.373   2.234
73553W        W32814   5.276  30.534   0.433
73554W        W32815  25.071   5.788   4.352
73555W        W32816  12.751  32.899   0.929
73556W        W32817  10.816  20.271  12.520
73557W        W32818  26.555  36.515   5.133
73558W        W32819  13.201  17.302  12.982
73559W        W32820  28.670  24.106   4.827
73560W        W32821   9.262   9.181  14.897
73561W        W32822  21.602  24.631   3.154
73562W        W32823   2.403   2.229  13.526
73563W        W32824  42.516  44.385  14.803
73564W        W32825  26.584  43.917  12.831
73565W        W32826  34.050  30.524  12.453
73566W        W32827  39.899   2.400  13.989
73567W        W32828  37.957  21.522   2.198
73568W        W32829  19.126  30.035  10.590
73569W        W32830  39.523   3.247  14.283
73570W        W32831  43.983   0.745   3.208
73571W        W32832  20.614  31.989   4.833
73572W        W32833   2.965  23.102   1.914
73573W        W32834  33.095  19.219  12.895
73574W        W32835  38.565  29.975  14.863
73575W        W32836  20.180  36.503  11.858
73576W        W32837  36.947   5.813  11.939
73577W        W32838  20.589  27.599   0.442
73578W        W32839  25.607  41.001  10.935
73579W        W32840  18.673  26.525   1.905
73580W        W32841  37.393  31.926   0.390
73581W        W32842   5.436   3.383  10.527
73582W        W32843  36.581  26.546   1.833
73583W        W32844  42.440  32.907   9.636
73584W        W32845  20.120  34.374  11.472
73585W        W32846  40.513  29.453  11.903
73586W        W32847  19.099  25.476  13.953
73587W        W32848  40.424   1.252  13.524
73588W        W32849  35.567  43.993   1.422
73589W        W32850  13.735  38.358  10.424
73590W        W32851   9.197  15.129  10.511
73591W        W32852  28.002   1.421   4.725
73592W        W32853  25.204   8.897   2.776
73593W        W32854  32.924  30.154  12.339
73594W        W32855  16.212  15.812  10.626
73595W        W32856  40.393  36.883   3.379
73596W        W32857  37.059  22.585  11.403
73597W        W32858  34.942  29.501   4.251
73598W        W32859  12.677  24.671   3.853
73599W        W32860  23.142  12.681  11.540
73600W        W32861  31.603   3.913  14.510
73601W        W32862  19.125  21.230   4.299
73602W        W32863   8.766  15.109   1.857
73603W        W32864  31.483  39.879  10.558
73604W        W32865  13.836   7.824  11.068
73605W        W32866  26.070   2.391  13.522
73606W        W32867   3.253  26.071   4.672
73607W        W32868  38.928  22.149   0.335
73608W        W32869  43.374  21.247   0.824
73609W        W32870  43.498  21.187   2.300
73610W        W32871  38.895  36.537   4.157
73611W        W32872  37.343  43.021   2.404
73612W        W32873  10.665  26.072  10.562
73613W        W32874  25.592  21.683   1.906
73614W        W32875  16.806  10.797  11.372
73615W        W32876   1.917  33.563  13.397
73616W        W32877  27.187   9.365  14.286
73617W        W32878   4.384  11.249   0.905
73618W        W32879  41.918  16.581  12.986
73619W        W32880  33.474  12.812  13.499
73620W        W32881  39.457  12.298   4.665
73621W        W32882  37.838  23.679   0.378
73622W        W32883  16.774  27.972  10.993
73623W        W32884  16.657  40.002   0.730
73624W        W32885  14.143  44.498  11.893
73625W        W32886  26.539  16.633  14.291
73626W        W32887  33.963   3.811  10.629
73627W        W32888  32.052  44.489  13.976
73628W        W32889  22.568  18.171  11.023
73629W        W32890  26.608  32.616   1.816
73630W        W32891  28.464  24.013   1.369
73631W        W32892  25.008  20.091  11.378
73632W        W32893  26.119  34.409  13.470
73633W        W32894  33.911  24.597  13.969
73634W        W32895   1.253  22.606  14.878
73635W        W32896  29.920  44.933   2.349
73636W        W32897  24.139  12.754   4.351
73637W        W32898   9.381   2.365  10.409
73638W        W32899  28.457  27.534   0.370
73639W        W32900   7.404   4.357   4.278
73640W        W32901  21.194   4.375   4.681
73641W        W32902   4.340   5.429  12.095
73642W        W32903  15.794  12.242   4.742
73643W        W32904  42.844  40.026  14.947
73644W        W32905  30.634  29.076   1.883
73645W        W32906  19.736  42.428   3.300
73646W        W32907  12.695  41.439   3.193
73647W        W32908  14.229  25.019  12.367
73648W        W32909  25.144   7.215   3.217
73649W        W32910  11.288  30.001   2.768
73650W        W32911  15.252   0.900   4.750
73651W        W32912  10.698   9.765  12.539
73652W        W32913   1.319   2.426   0.739
73653W        W32914  40.975  28.130  13.315
73654W        W32915  11.296  19.134  13.844
73655W        W32916  11.219  15.702  12.521
73656W        W32917   3.217   2.365   1.380
73657W        W32918  27.159  34.543   1.355
73658W        W32919  31.508  37.394   3.318
73659W        W32920  39.386   7.829  14.409
73660W        W32921  18.073  10.264  12.060
73661W        W32922   5.737  41.030  12.927
73662W        W32923  36.934  20.211  10.610
73663W        W32924  17.219  34.423   4.205
73664W        W32925  24.663  41.866  10.445
73665W        W32926  15.709   7.896  13.342
73666W        W32927  25.470  31.573  13.059
73667W        W32928  19.155  15.625  13.052
73668W        W32929   3.783  32.006  14.486
73669W        W32930  14.813   1.849   3.837
73670W        W32931  15.680   1.240  11.446
73671W        W32932  14.824  35.403  12.895
73672W        W32933  17.125  25.490  12.479
73673W        W32934  44.365   3.379  10.044
73674W        W32935  16.189  27.062  13.841
73675W        W32936  27.549  19.077  13.339
73676W        W32937  19.103   0.389   1.834
73677W        W32938   7.746   1.481  10.619
73678W        W32939  21.217  22.726  12.965
73679W        W32940   7.380  43.397  14.417
73680W        W32941  26.020  42.459   4.119
73681W        W32942  14.131   1.765   0.449
73682W        W32943  14.298  23.640  13.455
73683W        W32944  39.540  40.992  13.917
73684W        W32945  38.879  38.025  13.510
73685W        W32946   2.880  32.408   0.449
73686W        W32947   3.408  25.156   2.260
73687W        W32948  33.929   7.675  14.492
73688W        W32949  38.396   8.893  10.599
73689W        W32950  41.804   1.393  14.880
73690W        W32951   1.473  16.586   0.905
73691W        W32952   1.448  26.102   3.311
73692W        W32953  18.259  38.402   0.400
73693W        W32954  25.684   3.725   1.930
73694W        W32955  42.398  24.151   0.798
73695W        W32956  18.564  36.970  11.594
73696W        W32957  14.817  20.604  12.540
73697W        W32958  34.041   1.783  14.968
73698W        W32959   8.880  39.888  10.909
73699W        W32960  29.629  10.868  11.467
73700W        W32961  32.406  16.133   9.569
73701W        W32962  18.277  32.992   2.196
73702W        W32963  23.155  25.155   0.950
73703W        W32964  11.346  32.141   0.883
73704W        W32965  43.009  38.986  12.388
73705W        W32966  22.678  37.850   3.347
73706W        W32967  28.008   4.765   0.299
73707W        W32968  22.534  26.632  14.943
73708W        W32969   3.714  42.431   0.814
73709W        W32970  23.495  12.334   0.317
73710W        W32971  20.104   2.867  13.821
73711W        W32972  44.899  26.588  13.035
73712W        W32973  29.131  36.954  11.600
73713W        W32974  32.008  21.191  10.001
73714W        W32975  27.042  43.466  10.953
73715W        W32976  40.035   1.771   2.795
73716W        W32977  17.262  13.825  10.121
73717W        W32978  25.663  34.058   0.424
73718W        W32979  16.664  40.017   3.186
73719W        W32980  28.613  22.999   2.762
73720W        W32981  18.585  40.809   0.300
73721W        W32982  25.001  25.158   0.872
73722W        W32983  22.226  34.573  10.638
73723W        W32984  23.696  10.636   3.200
73724W        W32985  33.625  36.405  11.918
73725W        W32986   2.930  16.116  12.407
73726W        W32987  27.965  38.427  12.566
73727W        W32988   8.262  27.134  13.429
73728W        W32989  33.623  32.538  12.011
73729W        W32990   8.804  28.151   0.940
73730W        W32991  37.889  44.271  13.393
73731W        W32992  28.461   6.728   1.216
73732W        W32993  26.603  19.611   3.856
73733W        W32994  17.690  10.375  14.407
73734W        W32995  25.527  30.601   1.808
73735W        W32996  32.895  22.031   4.147
73736W        W32997  20.692  16.292   4.340
73737W        W32998  32.937   7.354   0.862
73738W        W32999  35.906  41.856  14.882
73739W        W33000   8.252  40.819  13.850
73740W        W33001  15.633  19.554   4.717
73741W        W33002  30.944   1.826  13.876
73742W        W33003  27.659  42.792   1.751
73743W        W33004  14.096  23.717   0.399
73744W        W33005  36.437  42.910  14.848
73745W        W33006   7.822  14.129   4.780
73746W        W33007  24.487  39.474  14.989
73747W        W33008  21.726  29.554   3.653
73748W        W33009  14.803   5.217  13.384
73749W        W33010  18.557  27.965   2.721
73750W        W33011  12.220  34.467   0.752
73751W        W33012  44.476  16.710  12.898
73752W        W33013  22.614   0.909  11.496
73753W        W33014  27.037  30.915  14.442
73754W        W33015  21.746  32.524   3.724
73755W        W33016  34.109  33.954   4.268
73756W        W33017   4.876  19.633   5.318
73757W        W33018   3.371  34.423  12.939
73758W        W33019  41.475  32.109   4.230
73759W        W33020   2.337  17.223   4.621
73760W        W33021  42.917   8.168  13.062
73761W        W33022   3.424  28.943  10.015
73762W        W33023  13.229  11.144   3.312
73763W        W33024  16.248  38.360  12.932
73764W        W33025   3.267  31.032   2.874
73765W        W33026  29.094   2.249  11.595
73766W        W33027  20.068  24.515   0.269
73767W        W33028  14.310  24.148   4.730
73768W        W33029   9.239   4.754   4.338
73769W        W33030  18.766  12.714  10.551
73770W        W33031  17.307   1.974   3.267
73771W        W33032  22.598  44.485  14.441
73772W        W33033   9.819  27.987  12.835
73773W        W33034  24.659  10.782   1.735
73774W        W33035  16.166  29.126  12.849
73775W        W33036  36.919  30.586   2.272
73776W        W33037  39.812  32.496  14.763
73777W        W33038  21.069  25.026  10.580
73778W        W33039  19.279  36.899  13.942
73779W        W33040  23.004  43.272   3.633
73780W        W33041  38.072  32.995   5.118
73781W        W33042  30.954  43.496  12.839
73782W        W33043  32.917   1.477   4.269
73783W        W33044  37.533  42.300  10.607
73784W        W33045  30.415   2.934   4.807
73785W        W33046  19.189   8.664   4.731
73786W        W33047  44.360   4.383  13.969
73787W        W33048  36.891   7.407   0.870
73788W        W33049   4.928   0.982   2.679
73789W        W33050   3.353   8.170   5.657
73790W        W33051  39.506   7.696   0.838
73791W        W33052   2.454  28.545  10.531
73792W        W33053  29.506  19.135  12.926
73793W        W33054   6.250   8.744   1.248
73794W        W33055   1.269  44.942  13.343
73795W        W33056  39.942  27.502  12.465
73796W        W33057  38.546  10.869  12.340
73797W        W33058   1.761  41.952  12.516
73798W        W33059   7.289  25.662   4.606
73799W        W33060  38.510  24.722  11.396
73800W        W33061  42.883  17.183   2.343
73801W        W33062  30.588  38.951   3.386
73802W        W33063  30.052   6.392  13.854
73803W        W33064  42.514   6.871  11.401
73804W        W33065  11.147  40.313  14.514
73805W        W33066  20.227   9.230   1.261
73806W        W33067  44.975  23.600   0.439
73807W        W33068  15.111  15.639  11.058
73808W        W33069  25.663  13.787  11.096
73809W        W33070  22.142  17.097  12.491
73810W        W33071  29.585  12.145  11.930
73811W        W33072  13.328  28.436   4.268
73812W        W33073  31.000  26.036   1.933
73813W        W33074  43.770   0.977  13.913
73814W        W33075   8.347  37.052   3.653
73815W        W33076  31.508  19.688  10.519
73816W        W33077  34.941  44.982   3.792
73817W        W33078  28.183  18.052   1.861
73818W        W33079   3.321  26.030  13.367
73819W        W33080  13.778  36.860   0.449
73820W        W33081  35.042  32.515   0.413
73821W        W33082  23.678  16.764  11.893
73822W        W33083   7.334  33.461   0.726
73823W        W33084   1.351  23.127   2.854
73824W        W33085  15.270  10.257   0.387
73825W        W33086  36.513  14.168  12.974
73826W        W33087  33.880  42.006   1.261
73827W        W33088  41.025  14.714   1.798
73828W        W33089  36.451  39.460   1.789
73829W        W33090  29.439  26.559   3.371
73830W        W33091   0.747  11.255  12.440
73831W        W33092  26.539  44.958  13.926
73832W        W33093  33.491  25.495  14.324
73833W        W33094  25.216  29.076  10.587
73834W        W33095  44.425   8.228  12.471
73835W        W33096  36.390   5.228   0.961
73836W        W33097  32.513  11.170  13.048
73837W        W33098  31.044  33.495  14.961
73838W        W33099  33.978  31.969   2.697
73839W        W33100  15.264  35.923   0.344
73840W        W33101  14.791   0.273  12.384
73841W        W33102  36.388  31.088   2.895
73842W        W33103  41.516   9.714   1.254
73843W        W33104   9.835  23.210   2.694
73844W        W33105  28.574  42.399  11.898
73845W        W33106   6.265   3.833   0.280
73846W        W33107  29.454  42.465   0.839
73847W        W33108  34.905  13.245   1.868
73848W        W33109  38.553   1.781   2.371
73849W        W33110  14.265  29.995  11.474
73850W        W33111   6.384  44.796   4.192
73851W        W33112  43.829  16.630  14.845
73852W        W33113  18.177  39.413  13.846
73853W        W33114  13.724  11.270   2.241
73854W        W33115  41.527  19.200  14.322
73855W        W33116  36.074  30.418  11.607
73856W        W33117   1.906  31.612   1.877
73857W        W33118  16.273  26.960  11.911
73858W        W33119  43.379  28.186   3.804
73859W        W33120  16.631  17.560  11.100
73860W        W33121  26.504  16.187  11.872
73861W        W33122  11.707   2.368  12.347
73862W        W33123  38.439  39.355   3.302
73863W        W33124  41.511  12.660  12.415
73864W        W33125  14.595  32.955  11.576
73865W        W33126  37.485   5.363  12.448
73866W        W33127   5.353  43.440  10.962
73867W        W33128   9.330  10.195   2.210
73868W        W33129  17.225   8.739   0.466
73869W        W33130  15.780  24.511   2.232
73870W        W33131  11.193  42.021  14.807
73871W        W33132  40.807  19.060  11.929
73872W        W33133  10.203   8.681  10.907
73873W        W33134  44.484  14.239   4.215
73874W        W33135  25.615  39.044  13.010
73875W        W33136  32.476  12.855   9.496
73876W        W33137  11.158  33.875   2.217
73877W        W33138  14.179  14.276  13.037
73878W        W33139  21.042   9.344  12.466
73879W        W33140   6.362  25.609  11.460
73880W        W33141   3.355  23.097   1.236
73881W        W33142   5.434  20.597   4.668
73882W        W33143   4.393   5.871  11.932
73883W        W33144   8.900  15.286   4.273
73884W        W33145  16.250  13.784   0.837
73885W        W33146  31.611  14.231  13.008
73886W        W33147  23.990   3.240   4.202
73887W        W33148  27.538  29.098   4.763
73888W        W33149   6.699  21.683   1.435
73889W        W33150   1.434   4.728   1.297
73890W        W33151  39.449  33.928  11.946
73891W        W33152   0.784  34.084   4.637
73892W        W33153   2.804  28.983   2.397
73893W        W33154  16.248  27.941   1.913
73894W        W33155   6.400  36.405   0.779
73895W        W33156  38.850  42.794   0.397
73896W        W33157  29.029   9.776   3.282
73897W        W33158   8.271  35.971   4.159
73898W        W33159  35.067  42.345  13.533
73899W        W33160  24.546  36.955   0.439
73900W        W33161  22.015  23.196   2.670
73901W        W33162  38.377  21.260  14.821
73902W        W33163  18.218  30.131   2.290
73903W        W33164   8.760  44.403  12.870
73904W        W33165  33.066  35.978   5.295
73905W        W33166   4.883  40.983   3.665
73906W        W33167   2.235  23.221  14.356
73907W        W33168  25.690  43.864   0.255
73908W        W33169  29.519  34.086  14.856
73909W        W33170  18.232  26.103   3.281
73910W        W33171   9.787   4.204  11.090
73911W        W33172  15.305  40.520   4.156
73912W        W33173  16.755  41.864   0.746
73913W        W33174  11.329  24.533  12.365
73914W        W33175  11.863   8.235   3.197
73915W        W33176   9.204   2.808   4.740
73916W        W33177  22.177  21.630   2.193
73917W        W33178  21.078   7.293   0.253
73918W        W33179   1.429  12.678  12.553
73919W        W33180  44.774  25.054  12.912
73920W        W33181   4.447   7.329   2.763
73921W        W33182  24.198  42.015  14.008
73922W        W33183  10.865  34.438  13.879
73923W        W33184  41.041  23.493  13.016
73924W        W33185  24.168   3.459   1.760
73925W        W33186  24.005  31.484   3.206
73926W        W33187  18.147  34.472  10.579
73927W        W33188  23.575  27.637   1.853
73928W        W33189  21.584  15.221  13.386
73929W        W33190   7.868  29.638   1.720
73930W        W33191  20.041   4.845  14.846
73931W        W33192  42.292  11.851   3.153
73932W        W33193  26.545  17.738   3.260
73933W        W33194   0.372   4.334   2.247
73934W        W33195  34.434  10.762  11.006
73935W        W33196   8.195  24.128   1.380
73936W        W33197   2.720  30.108  11.382
73937W        W33198   9.313   6.187  14.375
73938W        W33199   5.305  42.419  14.389
73939W        W33200  17.275  38.495   3.831
73940W        W33201  41.006  40.899  12.477
73941W        W33202   3.792  30.542   1.748
73942W        W33203  11.652  30.444  13.942
73943W        W33204  42.446  33.579   4.237
73944W        W33205  31.450   4.862  12.515
73945W        W33206   2.460  33.509  10.911
73946W        W33207   4.244  32.453   2.842
73947W        W33208  33.544  31.933   3.761
73948W        W33209   4.210  31.416   3.256
73949W        W33210  37.996  22.685  11.539
73950W        W33211   4.260   1.806  13.923
73951W        W33212   0.399  44.814  11.956
73952W        W33213  33.010  25.637  11.990
73953W        W33214  19.743   8.258   4.833
73954W        W33215  32.407  31.637   3.857
73955W        W33216   0.763  36.032  13.439
73956W        W33217   5.334   0.479   3.173
73957W        W33218   9.324  29.578  14.510
73958W        W33219  18.562  41.977   0.408
73959W        W33220  10.731   6.336  10.912
73960W        W33221  27.621  15.256  12.404
73961W        W33222  33.621  43.908  11.384
73962W        W33223  24.510  40.007   1.806
73963W        W33224  42.783  40.360  12.079
73964W        W33225  31.123  26.013  10.893
73965W        W33226  42.845  43.445  12.024
73966W        W33227  36.547   7.747   3.850
73967W        W33228   6.313  26.180   0.248
73968W        W33229  18.195  13.345  12.940
73969W        W33230   6.338  36.575  14.858
73970W        W33231   8.182  37.072  10.515
73971W        W33232  27.449  41.349   0.866
73972W        W33233   1.313  23.030  10.598
73973W        W33234  43.969  44.960   2.780
73974W        W33235  29.088  32.947   1.313
73975W        W33236  40.019  14.671  11.578
73976W        W33237   6.703  24.599  13.327
73977W        W33238  20.127   7.739  12.564
73978W        W33239  28.596  44.902   2.850
73979W        W33240  28.038  26.657  11.025
73980W        W33241  13.333  41.827   4.121
73981W        W33242  38.565  23.577  13.341
73982W        W33243  37.873  14.231  14.320
73983W        W33244   1.353  17.561  13.856
73984W        W33245  28.995  16.197  11.954
73985W        W33246   2.943  43.885  13.050
73986W        W33247   7.675  29.629  12.017
73987W        W33248  11.255  18.676   0.941
73988W        W33249  32.492   6.726   3.723
73989W        W33250  17.101  32.406  11.938
73990W        W33251  34.444  26.563  12.829
73991W        W33252  25.970   6.272  12.397
73992W        W33253   6.211  31.409  10.459
73993W        W33254  21.096   5.204  12.537
73994W        W33255  16.615  34.941  13.359
73995W        W33256  27.018  14.332  11.453
73996W        W33257  20.221  11.327   2.893
73997W        W33258  41.008  21.585   4.837
73998W        W33259  33.101   8.825  12.551
73999W        W33260  33.475  28.507  14.305
74000W        W33261  37.074  15.107   0.264
74001W        W33262   1.792   8.743  10.436
74002W        W33263  30.156  17.707   0.336
74003W        W33264   8.370   7.258  12.361
74004W        W33265   5.903   3.847   3.357
74005W        W33266   0.288  20.157   0.479
74006W        W33267  13.184  44.423  13.365
74007W        W33268   0.745  12.313  13.311
74008W        W33269  19.174   6.845   3.745
74009W        W33270  25.187  18.054   3.178
74010W        W33271  14.819  31.628   0.364
74011W        W33272  44.472   6.424  12.490
74012W        W33273  18.670  34.532   2.300
74013W        W33274   5.921  14.129   1.903
74014W        W33275  40.455  26.546  12.534
74015W        W33276   4.730  21.594  10.012
74016W        W33277  27.670   3.773   1.381
74017W        W33278   1.327  15.278  12.945
74018W        W33279  42.906   1.260  13.476
74019W        W33280  39.521  44.260  14.392
74020W        W33281   5.894  41.314   2.224
74021W        W33282  19.171  30.442   3.854
74022W        W33283  28.611   8.771  13.972
74023W        W33284  11.849  18.077   5.166
74024W        W33285  29.653  36.433   0.387
74025W        W33286   1.773  26.586  11.017
74026W        W33287  26.465  37.034   4.343
74027W        W33288   2.815  11.352   9.939
74028W        W33289  23.574  36.486  13.999
74029W        W33290   8.171  31.617   4.224
74030W        W33291  24.169   5.400   0.263
74031W        W33292  41.025  40.042   2.410
74032W        W33293  32.968  32.485   3.244
74033W        W33294  12.123  17.706  13.466
74034W        W33295   9.807   0.272  11.593
74035W        W33296   1.907  16.694   2.275
74036W        W33297   6.744  15.729   0.911
74037W        W33298  18.771   6.760  14.876
74038W        W33299  31.637  43.901   1.326
74039W        W33300  43.452   2.319   3.345
74040W        W33301   5.700  10.725  10.974
74041W        W33302  41.816  42.834   2.239
74042W        W33303  26.052  39.007   1.882
74043W        W33304   6.238  35.588   3.710
74044W        W33305   3.254   0.479  12.991
74045W        W33306  44.488  38.907   4.203
74046W        W33307  34.103  41.823  11.490
74047W        W33308  37.414  44.830  10.571
74048W        W33309  42.019  39.468   1.832
74049W        W33310  20.172  14.619   0.254
74050W        W33311  31.054   8.399   0.728
74051W        W33312  13.647  39.953  11.585
74052W        W33313  18.715  41.801   3.700
74053W        W33314   5.373  44.320  12.097
74054W        W33315   3.941   2.893   4.663
74055W        W33316   2.823  22.072   4.193
74056W        W33317  42.997  28.554   3.835
74057W        W33318   0.482  33.542   3.344
74058W        W33319  31.588  13.262   0.452
74059W        W33320  21.637   0.881  10.639
74060W        W33321  31.060   2.348  13.025
74061W        W33322  33.006  32.516  14.331
74062W        W33323  22.608  33.073  12.942
74063W        W33324  11.748  39.857  14.907
74064W        W33325  15.091   5.383   2.308
74065W        W33326  39.434  32.474   1.228
74066W        W33327  32.394  30.010  14.024
74067W        W33328  37.454  14.647  12.003
74068W        W33329  40.382  42.302  14.864
74069W        W33330   5.778  30.138   4.338
74070W        W33331  23.142   2.461  10.985
74071W        W33332  16.758  19.658  12.410
74072W        W33333   9.327  33.018  12.546
74073W        W33334   3.823   0.298  11.946
74074W        W33335  40.323  40.875   2.679
74075W        W33336  12.651   6.275   2.891
74076W        W33337  29.659  14.615  12.948
74077W        W33338   0.253  25.586   3.275
74078W        W33339  20.136  26.008  11.888
74079W        W33340  17.709  31.493  12.874
74080W        W33341  29.637   6.842   2.289
74081W        W33342  16.286  37.869  11.938
74082W        W33343  13.706  22.124   1.871
74083W        W33344  30.507  11.140   3.703
74084W        W33345  41.378  17.132  12.339
74085W        W33346  39.438  29.431   0.289
74086W        W33347  41.363  42.811  12.436
74087W        W33348  14.245  15.601   4.117
74088W        W33349   2.943  13.289  14.334
74089W        W33350  41.395  16.762  14.879
74090W        W33351  16.683  34.968   2.233
74091W        W33352  14.313  37.466   3.795
74092W        W33353  17.127  14.605  11.475
74093W        W33354  35.986  18.093   3.821
74094W        W33355  21.170  37.545   2.266
74095W        W33356  15.626  39.507  11.987
74096W        W33357   2.755   1.334  14.323
74097W        W33358  42.381  10.807   2.211
74098W        W33359   6.851  42.028   4.684
74099W        W33360  32.966   4.390   4.143
74100W        W33361  26.010   2.258   3.659
74101W        W33362  36.005  38.332   1.928
74102W        W33363  18.225   3.326   3.334
74103W        W33364  32.561  26.179   1.388
74104W        W33365  16.182   7.184   3.858
74105W        W33366  23.631   1.307   2.285
74106W        W33367  26.521  43.779  14.431
74107W        W33368  18.621  29.515   4.197
74108W        W33369  39.006  21.735   4.759
74109W        W33370  34.028  41.920   0.915
74110W        W33371   6.244   0.938   3.835
74111W        W33372  27.464  26.183  12.895
74112W        W33373  12.145  10.277   2.406
74113W        W33374  31.092  44.910  10.143
74114W        W33375  17.745  11.671   0.826
74115W        W33376  40.406  28.508  10.991
74116W        W33377   2.317   9.190  14.389
74117W        W33378  27.197  13.692  10.573
74118W        W33379   4.938  32.956   2.865
74119W        W33380   1.401  31.969   3.732
74120W        W33381  32.115  26.988  11.022
74121W        W33382   3.461  13.626  14.404
74122W        W33383  15.223  35.938   4.670
74123W        W33384   6.887  31.920   0.464
74124W        W33385   1.264  43.475   4.706
74125W        W33386  43.468  12.674  11.605
74126W        W33387  34.950  43.783   5.082
74127W        W33388  12.747  14.109  12.432
74128W        W33389   2.363  40.901  13.533
74129W        W33390   5.203  41.375  13.863
74130W        W33391  20.210  25.585  14.510
74131W        W33392  25.089  42.847   2.774
74132W        W33393  41.792   7.314   3.275
74133W        W33394  42.352  39.865   0.305
74134W        W33395  14.783  35.597   1.829
74135W        W33396   4.754   9.364   3.262
74136W        W33397  26.016  34.575  13.043
74137W        W33398  39.467   9.392   3.369
74138W        W33399   8.386  37.946  11.066
74139W        W33400  38.484  26.693  14.441
74140W        W33401  18.576  10.319  11.508
74141W        W33402  17.247  25.103  10.492
74142W        W33403   2.900  32.451  11.916
74143W        W33404  33.907  44.310   4.665
74144W        W33405  28.159  14.327   0.821
74145W        W33406  10.662  40.445  11.995
74146W        W33407  37.552  42.802  14.985
74147W        W33408  23.179  23.542   4.280
74148W        W33409   9.779  30.426   2.784
74149W        W33410  36.482  41.815   2.254
74150W        W33411  16.101  37.939   3.800
74151W        W33412  22.131  28.151   3.354
74152W        W33413  23.539  40.314  13.890
74153W        W33414  29.513   8.757   1.717
74154W        W33415  26.684  35.000   5.136
74155W        W33416  27.621  18.247  13.348
74156W        W33417  21.621  21.020   9.577
74157W        W33418  24.210  21.085  13.821
74158W        W33419  13.806  41.867   0.370
74159W        W33420  33.072   8.324   2.673
74160W        W33421   3.385  41.410  12.399
74161W        W33422  34.586  32.481   2.329
74162W        W33423   3.758  21.697   3.660
74163W        W33424   1.389  17.724  11.951
74164W        W33425  24.121   9.747   3.188
74165W        W33426  43.452  34.482  14.312
74166W        W33427   9.162   7.784  12.378
74167W        W33428   5.236   7.860  13.334
74168W        W33429  24.116  24.016   2.715
74169W        W33430   9.331  16.809  13.855
74170W        W33431  10.856  41.902   0.811
74171W        W33432  26.661  42.015  13.431
74172W        W33433  23.673   3.905  10.482
74173W        W33434  40.917  21.095  12.402
74174W        W33435  44.998  42.358   4.264
74175W        W33436  32.998  14.255   2.734
74176W        W33437  14.589  36.455  12.883
74177W        W33438  12.799  12.180   0.869
74178W        W33439  10.755  42.779  14.497
74179W        W33440  27.080  14.791  14.953
74180W        W33441  36.527  20.034  12.890
74181W        W33442  17.091  31.599   0.885
74182W        W33443  29.539  20.602   4.806
74183W        W33444  22.122   6.754  12.354
74184W        W33445  11.366   8.838   0.889
74185W        W33446  12.686  22.632   2.334
74186W        W33447  10.726  39.868   0.373
74187W        W33448  24.482  27.448   3.760
74188W        W33449   2.868   7.356   1.810
74189W        W33450   5.723  13.836  14.505
74190W        W33451  19.599  14.785   2.255
74191W        W33452   0.869   7.177   3.778
74192W        W33453  35.538  39.919   4.263
74193W        W33454  38.936  36.503   0.334
74194W        W33455  23.696  29.607   4.152
74195W        W33456   5.709  32.441   0.729
74196W        W33457  35.934  22.579  11.910
74197W        W33458  19.774   4.322  14.031
74198W        W33459  25.483  33.874   1.406
74199W        W33460  23.576  20.559  13.798
74200W        W33461   9.301  38.515  14.974
74201W        W33462  26.118  36.558   3.808
74202W        W33463   1.826  37.040   1.422
74203W        W33464  38.003   9.175  12.533
74204W        W33465  17.578   4.282   1.726
74205W        W33466  39.383  11.329  14.001
74206W        W33467  40.045  38.377  10.930
74207W        W33468  25.500  31.936  10.639
74208W        W33469   5.877   6.415  14.362
74209W        W33470  14.313  22.170   0.824
74210W        W33471  44.311  38.341   3.718
74211W        W33472  28.670  16.568   4.689
74212W        W33473  32.487  16.181   3.776
74213W        W33474   9.696  26.010   0.820
74214W        W33475  40.325  32.075   3.760
74215W        W33476  17.675  38.850  14.975
74216W        W33477  28.124  15.818  14.991
74217W        W33478  43.767  27.473  13.976
74218W        W33479  38.490  18.791   4.261
74219W        W33480  36.549   7.290  13.539
74220W        W33481  22.663  22.075   0.901
74221W        W33482  19.760  31.598   0.960
74222W        W33483  19.134  31.419   1.254
74223W        W33484  16.804   0.391   3.798
74224W        W33485  13.287  23.566  10.588
74225W        W33486  13.653   9.829  13.913
74226W        W33487  41.857  35.452  10.623
74227W        W33488   4.370  24.507   1.738
74228W        W33489   7.770  10.384   1.385
74229W        W33490  43.423  44.844   1.720
74230W        W33491  44.316  25.164  13.375
74231W        W33492  12.620   9.670  11.443
74232W        W33493   3.377  21.612   4.343
74233W        W33494  28.034  35.563  11.859
74234W        W33495  17.678   7.390  13.871
74235W        W33496  21.664  37.355   3.256
74236W        W33497  14.672  26.963   1.796
74237W        W33498  17.134  19.178   2.281
74238W        W33499   1.936  19.643   4.327
74239W        W33500  10.154  18.754  12.005
74240W        W33501   9.206   2.725  14.856
74241W        W33502  32.403  19.594   1.779
74242W        W33503  38.380  34.598  14.985
74243W        W33504  29.004  19.202  11.428
74244W        W33505  24.530  41.319   2.193
74245W        W33506   7.765   0.286  12.069
74246W        W33507  13.123   7.770   1.851
74247W        W33508  18.738  24.568  14.908
74248W        W33509  44.501  22.176  12.550
74249W        W33510  36.000  38.398   0.755
74250W        W33511   9.855  24.716   0.956
74251W        W33512  30.636  23.986  13.524
74252W        W33513  16.727  13.309   1.222
74253W        W33514  22.578  25.644   3.689
74254W        W33515  28.139  42.329  11.965
74255W        W33516  42.895  22.521  11.494
74256W        W33517  11.337  21.618   0.414
74257W        W33518  23.584  21.706  12.568
74258W        W33519  42.514  15.300  10.552
74259W        W33520  22.545   9.309   1.895
74260W        W33521   9.255  27.151   2.313
74261W        W33522  39.360  22.513  12.056
74262W        W33523   1.312   7.697   4.615
74263W        W33524  23.736  39.998  10.627
74264W        W33525  40.413  31.486  14.870
74265W        W33526  16.141  27.038  14.863
74266W        W33527  43.390  20.071   3.322
74267W        W33528  23.624  22.178  12.081
74268W        W33529  21.162  24.669  13.351
74269W        W33530   5.364   8.728  11.965
74270W        W33531  19.559  31.074   1.446
74271W        W33532  10.189  10.222   4.795
74272W        W33533  14.201  30.939  10.978
74273W        W33534  38.993  16.684   3.211
74274W        W33535  11.675   6.307  13.989
74275W        W33536  34.531   0.406  14.360
74276W        W33537  29.044   0.335  12.062
74277W        W33538  24.988  26.669   3.195
74278W        W33539  22.619  15.282  11.909
74279W        W33540  33.480   3.852  14.794
74280W        W33541  41.887   9.777   0.416
74281W        W33542   0.284  43.008  14.835
74282W        W33543  16.293  13.207   0.790
74283W        W33544   0.895  23.652  14.005
74284W        W33545  14.288  12.274  13.861
74285W        W33546  28.655  25.701  12.833
74286W        W33547  19.715  10.298   0.880
74287W        W33548  32.543  35.940  10.913
74288W        W33549  24.654  22.662  12.949
74289W        W33550  41.982   0.816   2.697
74290W        W33551  42.512  25.108  12.580
74291W        W33552  36.914   1.935  11.383
74292W        W33553  14.597  42.383  14.387
74293W        W33554  20.634   8.857   3.362
74294W        W33555  22.224  28.660  14.008
74295W        W33556  29.077   6.833  10.948
74296W        W33557  39.318  22.182   1.217
74297W        W33558  33.416  26.639   3.167
74298W        W33559  18.163  29.050   1.873
74299W        W33560   4.763  37.566   4.124
74300W        W33561  12.278   5.421   2.393
74301W        W33562  35.410  14.180   4.151
74302W        W33563  23.628  34.094   4.714
74303W        W33564  38.472  27.618  13.457
74304W        W33565   3.789  31.643   4.228
74305W        W33566   6.222  26.114   2.860
74306W        W33567  41.008   5.418  12.091
74307W        W33568  22.092   8.260   4.164
74308W        W33569  27.091  29.004   1.360
74309W        W33570  35.532  11.355  10.590
74310W        W33571  41.470  16.118  11.439
74311W        W33572   2.280   9.150  13.447
74312W        W33573  35.526   0.327  11.500
74313W        W33574   0.764  39.007   0.955
74314W        W33575  38.344  25.505  14.968
74315W        W33576  29.476  23.204  10.631
74316W        W33577  37.838   3.894   1.244
74317W        W33578   9.278  30.162   3.257
74318W        W33579  34.398  35.032  14.941
74319W        W33580  35.403  44.807  13.491
74320W        W33581   0.447  10.376  13.336
74321W        W33582  39.827  21.224   1.911
74322W        W33583  32.054  26.468   4.777
74323W        W33584   1.795  20.068   5.144
74324W        W33585  21.616  41.299   4.802
74325W        W33586  26.468  19.165  14.807
74326W        W33587  31.145   6.252  14.807
74327W        W33588   7.276   8.224  13.021
74328W        W33589  37.841  44.289   2.735
74329W        W33590  44.857   3.745   4.637
74330W        W33591   7.721   2.880  12.361
74331W        W33592   8.160   6.817  12.076
74332W        W33593   8.845  21.099   0.319
74333W        W33594  41.846   7.354   4.301
74334W        W33595   0.891  29.076  12.424
74335W        W33596  42.485  14.769  10.994
74336W        W33597  33.515  15.302  10.048
74337W        W33598   8.710   3.443   0.426
74338W        W33599  43.316  42.844   1.247
74339W        W33600  28.017  29.079  12.363
74340W        W33601   0.361  17.070  13.484
74341W        W33602   7.807  14.179   2.889
74342W        W33603  35.007   0.354  13.051
74343W        W33604  23.506   8.809  12.449
74344W        W33605   6.311  37.425  13.807
74345W        W33606  34.443  10.372   1.439
74346W        W33607  13.184  41.847   2.825
74347W        W33608  36.061  19.604   2.758
74348W        W33609  27.602  29.625  12.845
74349W        W33610   3.317  38.068   4.241
74350W        W33611   0.791  40.477   5.094
74351W        W33612  15.651  19.245   2.895
74352W        W33613  30.638  36.400   2.675
74353W        W33614  11.174  44.902  13.368
74354W        W33615  30.995   5.722   3.810
74355W        W33616  18.602   2.236   4.321
74356W        W33617  24.623   1.319  13.509
74357W        W33618  42.879   9.827   1.775
74358W        W33619   0.383  23.132   3.313
74359W        W33620  38.977  34.502  13.840
74360W        W33621   0.943  21.593   4.350
74361W        W33622   8.673   9.384   3.251
74362W        W33623  21.217  36.567  12.489
74363W        W33624  26.973  37.525  11.508
74364W        W33625  23.202  36.348   4.811
74365W        W33626  19.094  24.584   5.731
74366W        W33627   0.367  23.055  13.450
74367W        W33628   4.294  42.337   2.303
74368W        W33629  27.050   5.898   1.762
74369W        W33630   5.218   4.812   3.707
74370W        W33631  15.716  39.827  11.592
74371W        W33632  23.160  25.090  12.555
74372W        W33633  21.145  23.522   3.651
74373W        W33634   3.860   5.439  14.891
74374W        W33635   6.427  22.513  14.293
74375W        W33636  37.068   2.809   1.751
74376W        W33637   2.383  10.863  11.111
74377W        W33638  28.050  35.025  12.419
74378W        W33639  36.061   0.871  14.441
74379W        W33640  38.506   3.751  10.544
74380W        W33641  36.540  18.550   3.686
74381W        W33642  44.447  41.011   3.749
74382W        W33643  43.439  43.512   4.209
74383W        W33644   6.340  11.660  13.332
74384W        W33645   8.224  43.797  11.610
74385W        W33646  36.416   6.254  10.618
74386W        W33647  43.893  36.980   0.932
74387W        W33648  20.687   7.824   3.633
74388W        W33649  38.012   0.748  11.524
74389W        W33650  10.382  42.906  12.452
74390W        W33651  34.371  42.420  13.428
74391W        W33652  28.946  19.596   2.898
74392W        W33653   5.816   7.728   4.297
74393W        W33654   8.207  38.450   1.223
74394W        W33655  36.017  40.458  11.491
74395W        W33656   7.667  35.517   2.726
74396W        W33657  25.656  42.873  11.570
74397W        W33658  17.112  38.927  11.566
74398W        W33659  17.674   9.823   2.900
74399W        W33660   1.843  15.225  14.473
74400W        W33661  35.587  26.997   1.319
74401W        W33662  43.374  11.256  13.401
74402W        W33663  34.549  32.110  11.022
74403W        W33664  34.929   5.349  14.451
74404W        W33665  21.628  36.515  11.410
74405W        W33666  10.848   8.241  11.126
74406W        W33667  20.701  13.143  11.376
74407W        W33668  21.232  16.698   3.298
74408W        W33669  38.060  37.963   3.761
74409W        W33670  43.340   3.393   1.883
74410W        W33671   9.172   5.359   1.324
74411W        W33672  15.182  34.372   3.179
74412W        W33673  42.423   1.481   3.229
74413W        W33674  31.601   1.903  13.520
74414W        W33675  10.767  43.361   2.788
74415W        W33676  35.550   2.466   2.353
74416W        W33677  36.559  27.073   0.308
74417W        W33678  12.764  35.357  13.031
74418W        W33679  43.877  31.040  10.901
74419W        W33680  40.831  12.780  10.594
74420W        W33681  25.683  32.448   4.653
74421W        W33682  23.507   0.861  13.453
74422W        W33683  35.522  15.228  13.359
74423W        W33684  31.553  19.570  14.942
74424W        W33685   4.729   2.449   0.483
74425W        W33686   1.419  11.273   2.703
74426W        W33687   7.329   5.906  12.505
74427W        W33688  36.980  30.593  13.404
74428W        W33689   6.208   9.819   4.293
74429W        W33690  34.037  21.251   9.988
74430W        W33691  44.348  43.961   0.770
74431W        W33692   5.756  41.517  14.836
74432W        W33693  37.457  38.494   4.664
74433W        W33694  42.863  41.302  10.019
74434W        W33695   3.925   2.805   1.354
74435W        W33696   3.840   3.723   4.187
74436W        W33697   2.782  25.643   0.786
74437W        W33698   7.222  16.671   3.649
74438W        W33699  38.325  25.004  13.487
74439W        W33700  28.096  38.000  12.055
74440W        W33701   1.942  40.985  12.956
74441W        W33702  12.640   1.247   0.894
74442W        W33703  10.208  36.578  11.855
74443W        W33704  20.135   2.787   4.808
74444W        W33705   8.661   4.314  14.965
74445W        W33706  31.018   2.451  14.833
74446W        W33707  30.496  35.593   3.301
74447W        W33708  13.189  13.289  14.867
74448W        W33709  40.903  17.068   0.283
74449W        W33710  14.298  12.690  12.355
74450W        W33711  13.279  15.781   1.782
74451W        W33712  22.522  31.983  14.987
74452W        W33713  18.270  28.472  13.449
74453W        W33714  37.388  33.910   2.873
74454W        W33715  26.686  27.138   3.691
74455W        W33716  12.284  42.023  13.462
74456W        W33717   2.925  17.180   2.874
74457W        W33718   0.807   3.830  11.604
74458W        W33719  44.929   5.255   0.483
74459W        W33720  26.549   0.259   2.282
74460W        W33721  33.528  14.230  10.026
74461W        W33722  27.115   8.732   2.788
74462W        W33723  32.523  20.596   3.864
74463W        W33724  24.998  44.349   2.690
74464W        W33725  36.960  40.871  11.500
74465W        W33726   3.871  36.554  11.451
74466W        W33727  39.393   5.333   3.663
74467W        W33728  42.288  33.036  11.583
74468W        W33729  43.441  12.258   3.855
74469W        W33730  17.585  28.958  11.931
74470W        W33731  35.102  33.420  12.347
74471W        W33732  11.799   7.789   1.222
74472W        W33733  24.088  18.071  14.816
74473W        W33734   5.258   3.267   5.264
74474W        W33735  15.602  14.228  10.570
74475W        W33736  10.677  33.595  10.050
74476W        W33737  27.100  14.678  11.083
74477W        W33738  35.025  36.976   0.829
74478W        W33739  15.776  21.640  13.426
74479W        W33740  23.654  13.302  14.952
74480W        W33741  36.527  23.563   1.792
74481W        W33742  37.883  43.504   1.901
74482W        W33743  18.189  42.318   3.760
74483W        W33744   9.784  31.137   1.381
74484W        W33745  17.802  29.171  14.837
74485W        W33746  40.451   6.184   2.335
74486W        W33747  38.552   6.787  10.485
74487W        W33748  32.490  27.944   0.277
74488W        W33749  11.148   7.775   1.250
74489W        W33750  29.555  42.446  14.285
74490W        W33751  22.577  39.435  13.490
74491W        W33752  40.027  13.777   0.847
74492W        W33753  34.415  29.641   3.690
74493W        W33754  30.981  15.616   4.196
74494W        W33755  22.031  24.500  12.976
74495W        W33756  10.327   4.253  13.535
74496W        W33757   9.186  31.597  12.355
74497W        W33758   3.934  19.176   3.306
74498W        W33759  33.132  29.649   4.635
74499W        W33760  33.572  24.184   4.727
74500W        W33761  36.863  34.546   2.719
74501W        W33762  40.037  42.841   2.241
74502W        W33763  29.957  15.709   4.236
74503W        W33764  44.409  21.157   1.401
74504W        W33765  11.264  33.385   3.376
74505W        W33766  26.121  40.045  14.944
74506W        W33767  31.077  38.076  12.962
74507W        W33768   9.690   9.229   3.839
74508W        W33769   3.734  37.983  12.918
74509W        W33770  25.023  15.596  14.961
74510W        W33771   9.169  16.744  13.489
74511W        W33772  37.489  20.719   3.259
74512W        W33773  30.944  30.541   4.317
74513W        W33774  34.398  34.047   1.298
74514W        W33775  10.782   5.828   2.255
74515W        W33776  32.917  43.919   3.187
74516W        W33777   1.967  22.681   2.226
74517W        W33778  30.481  20.676   2.313
74518W        W33779  22.629  19.625  11.004
74519W        W33780  24.663  32.042  13.912
74520W        W33781  21.235  42.336  13.001
74521W        W33782  14.706  26.456  10.973
74522W        W33783  23.164  33.481   3.324
74523W        W33784  36.896   7.230  14.002
74524W        W33785  39.002  33.381   4.208
74525W        W33786  22.714   4.310   4.290
74526W        W33787  40.029  17.212   1.400
74527W        W33788  23.105  18.164   0.815
74528W        W33789  11.784  28.122  10.410
74529W        W33790   6.317   4.756  10.627
74530W        W33791  31.017   4.815   0.335
74531W        W33792  12.622  15.194  13.055
74532W        W33793   0.763   0.941  10.998
74533W        W33794  44.503  34.090   1.295
74534W        W33795  43.473  42.498   1.341
74535W        W33796  26.126  38.951   1.377
74536W        W33797  20.269  39.022  10.907
74537W        W33798   0.752  44.304  13.403
74538W        W33799  17.063  19.546   2.756
74539W        W33800  38.389  12.310  14.504
74540W        W33801  21.192  16.778   2.285
74541W        W33802  41.453  36.464  10.894
74542W        W33803  36.577  17.146   0.366
74543W        W33804  12.150   0.354  11.895
74544W        W33805  13.328  38.845   3.665
74545W        W33806  25.973  30.502  11.018
74546W        W33807  44.967  44.851  13.497
74547W        W33808  42.518  17.654  12.828
74548W        W33809  17.216  35.381   0.324
74549W        W33810  30.142  31.918  12.006
74550W        W33811  10.316  30.542   1.388
74551W        W33812  10.845  14.176  14.810
74552W        W33813   3.912  14.795  10.967
74553W        W33814  25.079   4.420   4.787
74554W        W33815  42.409  12.612  12.992
74555W        W33816  34.545  22.541   2.392
74556W        W33817  17.656   5.777  13.961
74557W        W33818  36.476  11.807   2.413
74558W        W33819  36.977  40.412   4.639
74559W        W33820  24.482  41.967  12.051
74560W        W33821   8.243  31.932   4.306
74561W        W33822  35.976   4.925   3.637
74562W        W33823   7.895   8.335  11.515
74563W        W33824  28.649  27.458  12.874
74564W        W33825  31.527  28.580  12.987
74565W        W33826  34.057  39.857   1.351
74566W        W33827  36.958  30.067  13.379
74567W        W33828  29.565  43.787  13.849
74568W        W33829   0.848   3.750   0.356
74569W        W33830  17.268  33.981   1.768
74570W        W33831  38.970  36.930  12.415
74571W        W33832  14.306  36.378  11.094
74572W        W33833   8.893  23.666   3.239
74573W        W33834  33.506   5.383  10.907
74574W        W33835   4.831  24.079  12.486
74575W        W33836  36.918   7.352   2.363
74576W        W33837  14.107  35.882  10.462
74577W        W33838   7.195  38.858  12.030
74578W        W33839  26.628  39.822   4.598
74579W        W33840  12.657  23.215   1.329
74580W        W33841  37.028   6.881   0.424
74581W        W33842  38.996   5.249  13.055
74582W        W33843  38.371  19.267   0.412
74583W        W33844   5.397  36.047  10.928
74584W        W33845   9.309  14.179  11.416
74585W        W33846   2.328  13.834   3.704
74586W        W33847   1.936   5.929  13.477
74587W        W33848  43.794  12.248   4.225
74588W        W33849  27.494  38.342   4.341
74589W        W33850   3.458  29.576   1.428
74590W        W33851  30.107  27.486  11.518
74591W        W33852  23.566  24.217   0.736
74592W        W33853  20.629   3.383  14.031
74593W        W33854   0.868  17.671   2.334
74594W        W33855  34.018  17.138  14.351
74595W        W33856   2.456  22.075   4.623
74596W        W33857  29.647   3.824  12.870
74597W        W33858  11.775  29.538   2.337
74598W        W33859  30.928   4.790   1.366
74599W        W33860  36.370  35.934   1.720
74600W        W33861  25.598  39.933  12.057
74601W        W33862  10.285  27.972  12.454
74602W        W33863  10.152  44.934  13.844
74603W        W33864  35.408  13.341   4.230
74604W        W33865   4.348  26.195  13.970
74605W        W33866  24.481  41.308  11.918
74606W        W33867  20.596  27.497   4.225
74607W        W33868  15.789   3.838   2.415
74608W        W33869   2.351  29.963  14.278
74609W        W33870  38.997  39.547  10.463
74610W        W33871  44.918  15.628  11.398
74611W        W33872  27.056   9.811  11.043
74612W        W33873  33.878   3.826  12.572
74613W        W33874  36.032  29.101   1.910
74614W        W33875   4.806  44.991  13.949
74615W        W33876   4.836   9.395   9.645
74616W        W33877  21.684  26.546  10.505
74617W        W33878  10.860  20.029   3.335
74618W        W33879  19.665  33.892   2.193
74619W        W33880  16.287   9.835   2.401
74620W        W33881  10.209  27.978  13.808
74621W        W33882  20.115  38.402   1.845
74622W        W33883  40.949  34.995  12.037
74623W        W33884  15.303  36.349  10.521
74624W        W33885  44.754  43.941   3.370
74625W        W33886  27.113   5.196  13.364
74626W        W33887  27.466  33.001   4.764
74627W        W33888  23.210  32.416   2.704
74628W        W33889  10.853   1.436   2.671
74629W        W33890  22.093  25.484   2.801
74630W        W33891  23.142   0.771   1.874
74631W        W33892  24.643   9.357  13.321
74632W        W33893  21.701  20.559   1.309
74633W        W33894  34.888  17.770   2.213
74634W        W33895   9.834   3.399  13.335
74635W        W33896  33.381  43.785  12.908
74636W        W33897  13.796  36.534   2.848
74637W        W33898  23.161   5.198  13.508
74638W        W33899  42.951  43.859  11.948
74639W        W33900  12.650   3.451  13.965
74640W        W33901  19.558  38.568  14.003
74641W        W33902   8.694  42.843  11.937
74642W        W33903  18.184  12.286   4.610
74643W        W33904  28.594  23.679  13.826
74644W        W33905  37.988  29.571   2.320
74645W        W33906  26.036  41.433   0.246
74646W        W33907  43.483  16.176  11.875
74647W        W33908  21.041  12.271   2.189
74648W        W33909  14.243  30.909   1.214
74649W        W33910  43.471   4.436   2.821
74650W        W33911  18.114  13.838  12.350
74651W        W33912   3.881  34.577  12.356
74652W        W33913  28.489  39.963   0.454
74653W        W33914  41.344  25.123  14.871
74654W        W33915   0.886  12.216  13.827
74655W        W33916  13.165   4.795   1.345
74656W        W33917  14.764   1.306  13.846
74657W        W33918  39.054  30.544   3.345
74658W        W33919   9.280  29.109   0.810
74659W        W33920  36.888  15.120  12.843
74660W        W33921  35.964  24.560  13.013
74661W        W33922   5.389  18.131   2.353
74662W        W33923  29.154  33.402  13.812
74663W        W33924  16.315  30.496  11.040
74664W        W33925  19.088  15.687   3.728
74665W        W33926  25.122  37.050   2.190
74666W        W33927  41.826  36.995   3.765
74667W        W33928  38.968  25.697   2.850
74668W        W33929   3.810  44.466   3.290
74669W        W33930  25.209   6.783  10.949
74670W        W33931   0.794   8.391   4.225
74671W        W33932  13.719  29.966   4.294
74672W        W33933  19.612  36.867   4.702
74673W        W33934  29.489  40.865  13.908
74674W        W33935  10.147  15.669  11.996
74675W        W33936  43.344  28.543   4.169
74676W        W33937   6.883  44.293   4.700
74677W        W33938  13.190   3.307  14.786
74678W        W33939   3.712  44.406  14.812
74679W        W33940  16.185  38.834  10.505
74680W        W33941  44.420  37.466   0.283
74681W        W33942  21.755  11.662  14.492
74682W        W33943  14.132  31.061  13.818
74683W        W33944  10.264  32.962  12.837
74684W        W33945  23.581  35.392  12.084
74685W        W33946  22.098  21.536   5.666
74686W        W33947  40.900  41.945  10.438
74687W        W33948  17.742  30.009   3.810
74688W        W33949   4.263  17.166   3.287
74689W        W33950  25.553   9.263  11.425
74690W        W33951  44.329  10.208  13.803
74691W        W33952  37.884  12.797   4.834
74692W        W33953   8.859  28.988   0.855
74693W        W33954  37.841  41.923  14.021
74694W        W33955  10.752  29.505   2.387
74695W        W33956  22.593  27.164  13.867
74696W        W33957  28.537  12.754  11.978
74697W        W33958  16.127  24.540  12.025
74698W        W33959   7.203  24.084   2.806
74699W        W33960   2.394  32.051  11.516
74700W        W33961  10.211  25.199  13.322
74701W        W33962  28.973  13.216   4.337
74702W        W33963  21.585  14.233   0.445
74703W        W33964  12.221  14.106  10.913
74704W        W33965  44.442  11.344  12.894
74705W        W33966  38.458  18.296   3.743
74706W        W33967  12.290  42.876  13.871
74707W        W33968   8.819  19.236   1.795
74708W        W33969   0.360  10.375  14.399
74709W        W33970  42.807  39.981   2.210
74710W        W33971  44.445   7.195  12.025
74711W        W33972  36.893  19.569  12.022
74712W        W33973  27.049   3.227   1.424
74713W        W33974  25.545   6.401   2.800
74714W        W33975  26.130  10.697   3.366
74715W        W33976   6.807  20.057  13.340
74716W        W33977   5.931  10.236   0.294
74717W        W33978  23.618  10.236  12.869
74718W        W33979  36.092  38.928   1.795
74719W        W33980  14.296  22.558  13.794
74720W        W33981   0.330  25.087   1.773
74721W        W33982  17.631  31.424   4.168
74722W        W33983  17.734  17.278  10.574
74723W        W33984   7.849  31.639  13.827
74724W        W33985  40.447  21.559  13.509
74725W        W33986  43.463  40.542  11.980
74726W        W33987  27.091   4.784  13.867
74727W        W33988   1.832  11.806   1.874
74728W        W33989  43.780  43.938   4.216
74729W        W33990   1.324  27.100   2.712
74730W        W33991   2.806  22.995  14.885
74731W        W33992  41.318  20.089   4.711
74732W        W33993  40.028   0.270   4.295
74733W        W33994  37.340   4.741   2.259
74734W        W33995   3.709   2.318  12.365
74735W        W33996   1.321  39.997  11.478
74736W        W33997  35.509  31.042   4.242
74737W        W33998  43.484  17.772   4.197
74738W        W33999  40.798   8.723  12.368
74739W        W34000  28.649  26.507  12.545
74740W        W34001  44.458  35.998   4.761
74741W        W34002   8.293  14.325   1.307
74742W        W34003  43.799  24.723  14.499
74743W        W34004  41.431  23.714  13.497
74744W        W34005  33.473  25.181   1.282
74745W        W34006  26.543  20.603  10.002
74746W        W34007  32.105  16.609  11.478
74747W        W34008  14.229  26.645   3.786
74748W        W34009  38.552  16.606   1.866
74749W        W34010   0.327  13.152  13.059
74750W        W34011   1.793  21.119   0.797
74751W        W34012  32.573  20.114  12.998
74752W        W34013  17.663  13.774   1.805
74753W        W34014   9.857  16.601   0.410
74754W        W34015  27.571  17.146  10.953
74755W        W34016   4.754  34.997   1.850
74756W        W34017  22.600   3.272   2.294
74757W        W34018   3.434  40.348   2.330
74758W        W34019  39.333  11.830   2.881
74759W        W34020  40.815  29.003   4.708
74760W        W34021   8.202  15.112  12.444
74761W        W34022  19.657  44.911   0.826
74762W        W34023  10.793  21.664  12.015
74763W        W34024   5.242  37.938  12.873
74764W        W34025  21.184  13.817   2.858
74765W        W34026  26.702  39.984  13.326
74766W        W34027   9.865   1.893   0.880
74767W        W34028  14.724  13.244  14.957
74768W        W34029   9.185  30.147  11.891
74769W        W34030  36.983  36.061   2.325
74770W        W34031  42.286  17.241  12.083
74771W        W34032   1.339  36.533   4.790
74772W        W34033  39.821   6.384   0.855
74773W        W34034  20.653  16.131  14.902
74774W        W34035  19.565  31.431  11.047
74775W        W34036  34.870  12.697   2.414
74776W        W34037  32.130  15.127  10.896
74777W        W34038   6.747  14.192  12.966
74778W        W34039  17.559   1.408   3.670
74779W        W34040  15.203  33.999   0.734
74780W        W34041   6.386  33.975   4.227
74781W        W34042   7.190   7.818   2.182
74782W        W34043  25.513  11.275  11.020
74783W        W34044   1.735  39.913   4.187
74784W        W34045  34.609  25.674   1.851
74785W        W34046  29.949   9.848   3.153
74786W        W34047  18.235  36.394  14.483
74787W        W34048  25.134  25.517  10.943
74788W        W34049  14.237   1.464  12.488
74789W        W34050  34.026  17.271   3.282
74790W        W34051  34.494  36.391  12.364
74791W        W34052  28.975  33.876  10.111
74792W        W34053  38.537   3.741  11.856
74793W        W34054  43.950  32.934  11.869
74794W        W34055  17.207  40.965   1.286
74795W        W34056  39.056  26.492  12.447
74796W        W34057  26.564  16.599   2.831
74797W        W34058  33.602  34.383  11.986
74798W        W34059  38.999  40.530   4.795
74799W        W34060  27.941  13.604   1.218
74800W        W34061   4.447  26.532   3.715
74801W        W34062  10.702  40.002  11.556
74802W        W34063  21.616  40.346  11.943
74803W        W34064  11.357  10.795  14.888
74804W        W34065  40.532  38.038  14.838
74805W        W34066  12.638   2.936  14.840
74806W        W34067  24.148  22.067   0.483
74807W        W34068  44.333  38.334   0.405
74808W        W34069  25.640  30.989  13.941
74809W        W34070   4.895  16.576  10.467
74810W        W34071  23.156  37.022   2.359
74811W        W34072  20.645  37.871  10.912
74812W        W34073   7.222  10.327   1.733
74813W        W34074   8.327   2.454   2.204
74814W        W34075  33.497  14.168  12.037
74815W        W34076  14.253  14.283   3.357
74816W        W34077  40.470  28.665   2.857
74817W        W34078  35.891  11.272   2.271
74818W        W34079  13.340  11.180  12.372
74819W        W34080  36.013  27.683   0.470
74820W        W34081  20.177  21.580   3.303
74821W        W34082  28.119  34.376   4.788
74822W        W34083  33.470  33.523  13.479
74823W        W34084  41.533  22.723   2.832
74824W        W34085  44.319  39.895   2.359
74825W        W34086  37.425  14.217  10.591
74826W        W34087  17.180  16.197  13.936
74827W        W34088  25.666  43.850  14.443
74828W        W34089  14.732   7.295  10.937
74829W        W34090  39.432  35.911   1.241
74830W        W34091   9.658   9.692  13.518
74831W        W34092  40.035  35.371  14.969
74832W        W34093  18.549   5.745  10.414
74833W        W34094  40.932  39.405  14.287
74834W        W34095  21.521  32.934  13.481
74835W        W34096  17.078  41.306   1.874
74836W        W34097  33.584  16.785   3.325
74837W        W34098  20.031  27.171  13.516
74838W        W34099  29.117  14.667   3.267
74839W        W34100  37.536  18.278  11.595
74840W        W34101   3.827  29.060  10.630
74841W        W34102   9.708  36.860  11.045
74842W        W34103   1.923   7.382   4.347
74843W        W34104  31.006  38.875   2.184
74844W        W34105   9.680  27.506  14.417
74845W        W34106  13.183  28.995   0.472
74846W        W34107  20.551  34.074   3.207
74847W        W34108  41.800   0.300  12.346
74848W        W34109  43.380  40.004   0.884
74849W        W34110  18.061  25.684   3.324
74850W        W34111   2.322  39.939  13.408
74851W        W34112  44.912   1.359  14.767
74852W        W34113  44.004  37.506   2.239
74853W        W34114   7.397   8.342   2.760
74854W        W34115   7.685  43.927  12.027
74855W        W34116  11.828  23.706  10.118
74856W        W34117  37.394  18.682   0.839
74857W        W34118  25.670   0.317  13.310
74858W        W34119  38.053  39.560   1.324
74859W        W34120  38.843  43.018   2.263
74860W        W34121   1.892  16.315  13.398
74861W        W34122  18.740  38.357  12.477
74862W        W34123  12.304  17.072  10.547
74863W        W34124  38.521   8.760   2.290
74864W        W34125  38.982  37.563  11.951
74865W        W34126   1.450  11.133  13.865
74866W        W34127   6.370  21.521  13.541
74867W        W34128  13.320  18.567   2.184
74868W        W34129  13.764  40.364  14.020
74869W        W34130  26.134  35.409  14.455
74870W        W34131  35.982  20.581   0.789
74871W        W34132  11.662  26.509  12.450
74872W        W34133   8.762  20.683  14.961
74873W        W34134  44.266  38.377  13.030
74874W        W34135  18.748  32.066  12.491
74875W        W34136   0.960  30.038  11.411
74876W        W34137  44.428  14.771   2.837
74877W        W34138  34.499  33.481  10.506
74878W        W34139   3.826  29.035  13.336
74879W        W34140  13.130  16.211   3.810
74880W        W34141  15.110  40.426  14.508
74881W        W34142  41.840  28.653  14.773
74882W        W34143  32.402  40.900  13.023
74883W        W34144  42.917  17.240   4.817
74884W        W34145  29.009  42.896  10.995
74885W        W34146  26.094  17.765  11.908
74886W        W34147  36.061  14.672  13.812
74887W        W34148  16.123  33.398  10.920
74888W        W34149  44.479  34.095   0.963
74889W        W34150  14.094  43.811  14.827
74890W        W34151   3.435  39.058   1.934
74891W        W34152  29.461  32.507   0.919
74892W        W34153   9.315  20.663  12.480
74893W        W34154   2.960  40.970   2.277
74894W        W34155  42.318   5.719  13.881
74895W        W34156  23.651  22.726  11.377
74896W        W34157  19.632  40.979  14.457
74897W        W34158  41.372  25.621  13.405
74898W        W34159  24.229   4.786   3.187
74899W        W34160   5.813  42.284  10.952
74900W        W34161  30.908  41.840  12.373
74901W        W34162  10.764  15.115  11.916
74902W        W34163  34.910  17.728  11.921
74903W        W34164  25.158  39.029  12.074
74904W        W34165   5.820  26.003   0.731
74905W        W34166   0.312  37.362  13.361
74906W        W34167  28.632  31.907  13.882
74907W        W34168  27.047  41.320   3.812
74908W        W34169  28.169  29.637  13.873
74909W        W34170  28.654  32.522  12.841
74910W        W34171  24.123  22.556  13.396
74911W        W34172   3.296  36.379  14.951
74912W        W34173   3.908  18.078   2.797
74913W        W34174  36.850   4.737  12.397
74914W        W34175  13.135  32.085  11.538
74915W        W34176  39.957  18.091   4.711
74916W        W34177  42.915  14.162   3.798
74917W        W34178   1.786   1.846   1.220
74918W        W34179  11.159   0.983  12.404
74919W        W34180   9.332  38.859   1.356
74920W        W34181  34.881  13.302  12.949
74921W        W34182  22.623  12.218  13.411
74922W        W34183  32.561  33.596  11.030
74923W        W34184  25.177   3.369  11.398
74924W        W34185  14.758  35.396   3.669
74925W        W34186  41.457   0.374  10.530
74926W        W34187   5.433   2.365  11.493
74927W        W34188   3.403  27.463  10.582
74928W        W34189  18.711  12.251  12.860
74929W        W34190  23.055  16.569   4.302
74930W        W34191  32.570  36.554   4.210
74931W        W34192   1.825  28.657   1.350
74932W        W34193  12.119   4.417  14.494
74933W        W34194  21.608  29.166   1.745
74934W        W34195  28.104  30.652   2.275
74935W        W34196  44.915  14.744  12.382
74936W        W34197  26.622  17.671   4.722
74937W        W34198  17.213   3.382   0.313
74938W        W34199   6.907  22.067  11.437
74939W        W34200  21.148  16.292   1.784
74940W        W34201   1.771  28.544   2.317
74941W        W34202  29.627   1.455  12.407
74942W        W34203  34.990   2.361  14.999
74943W        W34204   7.243  36.407   2.392
74944W        W34205   7.696  28.052   3.255
74945W        W34206  26.055  30.540  13.022
74946W        W34207   1.364  10.268   1.842
74947W        W34208  26.008  13.662   3.342
74948W        W34209  25.541  32.892  12.437
74949W        W34210   1.446  17.169  14.880
74950W        W34211   4.720  22.725   2.240
74951W        W34212  23.563  30.461   3.817
74952W        W34213  23.599  14.755  12.553
74953W        W34214  28.623   4.270   3.835
74954W        W34215  37.846  16.288   2.396
74955W        W34216  43.514   9.313  14.384
74956W        W34217  19.682  28.997   3.205
74957W        W34218  21.525  16.226  11.412
74958W        W34219  40.462  12.130   0.391
74959W        W34220  27.012   6.273   4.160
74960W        W34221   2.278  34.541  12.489
74961W        W34222  32.558  19.103  11.884
74962W        W34223  38.331  15.666  12.985
74963W        W34224  39.497  20.167  14.432
74964W        W34225  23.595  21.238  12.469
74965W        W34226  17.755  35.521  13.389
74966W        W34227  29.475  16.805  13.320
74967W        W34228  28.568  43.328   0.444
74968W        W34229  28.532  38.454  13.517
74969W        W34230  33.590  10.647  12.971
74970W        W34231  31.582  22.575   2.276
74971W        W34232  25.699   0.381  12.545
74972W        W34233  36.865   1.295   0.890
74973W        W34234  35.544  10.145  13.949
74974W        W34235  37.926   1.744  13.329
74975W        W34236  24.613  23.526  13.985
74976W        W34237  22.654  33.612  13.387
74977W        W34238  15.750   2.421  11.058
74978W        W34239  13.252  27.949   5.234
74979W        W34240  38.858  21.163   2.775
74980W        W34241  10.842  15.095   4.204
74981W        W34242  10.290  26.504  11.011
74982W        W34243  33.078  25.119  11.947
74983W        W34244  35.045  21.643  10.953
74984W        W34245  17.671   1.299   4.197
74985W        W34246  36.950  42.972  12.552
74986W        W34247  42.918  21.138  13.050
74987W        W34248  37.538   4.822   4.602
74988W        W34249  25.075  36.524   4.169
74989W        W34250  30.510  42.490  11.488
74990W        W34251  31.015  20.036  13.923
74991W        W34252  18.277  27.650  10.408
74992W        W34253  37.036  26.597  10.475
74993W        W34254  36.549  38.970  14.790
74994W        W34255  30.614  29.172   1.363
74995W        W34256  36.586  10.698  13.422
74996W        W34257   5.347  22.144  11.011
74997W        W34258  12.768   8.226  14.367
74998W        W34259  26.665  34.021  10.572
74999W        W34260  29.559  11.685  12.838
75000W        W34261  22.537  17.156  13.845
75001W        W34262  40.808  21.663  12.521
75002W        W34263  30.548  41.380   3.762
75003W        W34264  19.257  35.917  13.500
75004W        W34265  35.589  10.850  12.420
75005W        W34266  33.012  11.789  13.400
75006W        W34267  14.797  17.656   2.830
75007W        W34268   2.860  39.414   0.727
75008W        W34269  26.976  38.848   2.178
75009W        W34270  36.020  10.780   2.193
75010W        W34271  43.459  30.429   4.141
75011W        W34272  44.935   4.808  14.871
75012W        W34273   8.193   5.381  12.852
75013W        W34274  27.995  14.806  14.382
75014W        W34275  19.143  23.194   2.783
75015W        W34276  11.689  37.516   5.132
75016W        W34277   8.777   6.851   2.766
75017W        W34278  39.396  34.979   0.393
75018W        W34279  31.142  13.117   3.157
75019W        W34280   5.853  14.729  12.026
75020W        W34281  32.968  39.871  11.610
75021W        W34282  31.470  31.474  11.508
75022W        W34283  16.582  22.565   1.733
75023W        W34284  10.773  33.593   0.311
75024W        W34285  20.165   4.430  11.884
75025W        W34286  43.005  39.970  10.468
75026W        W34287  35.881  40.908   0.922
75027W        W34288   4.220  14.279   0.833
75028W        W34289  44.413  19.209   0.294
75029W        W34290  21.078  23.229  10.428
75030W        W34291  34.968  19.054  14.486
75031W        W34292   6.338  12.174  11.885
75032W        W34293  19.632  17.091   3.692
75033W        W34294  26.675  12.661  10.159
75034W        W34295   4.810  35.560  11.390
75035W        W34296   4.286  42.458   1.795
75036W        W34297  31.448  41.012   0.402
75037W        W34298  39.324  43.777   0.443
75038W        W34299   6.281  19.570   1.806
75039W        W34300  17.584  40.454   0.325
75040W        W34301   6.265   4.283  13.937
75041W        W34302  30.632  31.527  13.356
75042W        W34303  18.149  36.063  10.906
75043W        W34304  38.562  32.443   0.918
75044W        W34305  17.621  27.116   3.152
75045W        W34306  26.543   5.922  10.920
75046W        W34307  23.209  34.383  14.314
75047W        W34308   8.198   9.730   4.838
75048W        W34309  38.392  32.042   2.803
75049W        W34310  38.543  42.512   2.840
75050W        W34311  16.318   5.297  11.420
75051W        W34312  28.541  34.465  13.932
75052W        W34313  38.905  44.889  14.343
75053W        W34314  19.769  19.630   0.344
75054W        W34315  31.556  26.470  10.002
75055W        W34316  24.065  42.411  14.899
75056W        W34317   1.250  16.684   1.359
75057W        W34318  28.167  19.756  10.005
75058W        W34319  28.087   7.733  14.793
75059W        W34320  34.466  19.103  11.089
75060W        W34321   9.338   5.424   2.690
75061W        W34322  25.968   3.941   1.849
75062W        W34323  40.364  35.382   2.300
75063W        W34324  14.829  43.316  12.991
75064W        W34325  30.086   2.329  13.828
75065W        W34326   0.833  10.702   3.812
75066W        W34327  12.757  26.671   1.744
75067W        W34328  39.318   8.685   1.223
75068W        W34329  31.481  17.162   1.254
75069W        W34330  43.870  42.403  13.516
75070W        W34331   6.714  27.505  11.397
75071W        W34332  25.693   4.743   0.864
75072W        W34333  27.166  17.781  12.363
75073W        W34334  37.968   0.780  14.002
75074W        W34335  17.627  25.133  11.585
75075W        W34336  16.082  35.950  12.559
75076W        W34337  31.547  32.973  11.396
75077W        W34338   6.182  32.560   0.350
75078W        W34339  20.195  44.009  11.447
75079W        W34340  20.587  43.983  10.561
75080W        W34341  21.136  33.969   3.352
75081W        W34342  26.598   2.245   2.242
75082W        W34343  13.251  32.891  11.560
75083W        W34344  18.116  36.922  12.958
75084W        W34345  11.132  21.040  10.429
75085W        W34346   8.209  34.422  13.501
75086W        W34347  33.915   9.290   2.252
75087W        W34348  25.974   9.335  12.908
75088W        W34349   6.183  38.355  13.953
75089W        W34350  10.685  37.915  10.975
75090W        W34351  11.697   9.288   1.221
75091W        W34352   0.950  43.983  11.022
75092W        W34353   6.827  15.709  12.372
75093W        W34354  24.188   4.719   1.859
75094W        W34355   0.447  22.030  10.459
75095W        W34356  19.275  17.080  12.951
75096W        W34357   7.806  12.278   2.209
75097W        W34358  17.563  38.021  11.998
75098W        W34359   6.825   0.345  14.894
75099W        W34360  17.158   6.739   2.332
75100W        W34361  18.167   6.245  12.858
75101W        W34362  34.016   6.264  11.588
75102W        W34363  38.547  10.822   2.712
75103W        W34364   2.884  43.511   1.831
75104W        W34365  38.919  27.604  13.890
75105W        W34366  41.374   0.354  14.474
75106W        W34367  11.196  17.306   4.295
75107W        W34368  13.324  37.929   3.715
75108W        W34369  39.432  26.550  10.951
75109W        W34370   1.915  35.019  13.535
75110W        W34371  42.876  10.274   0.865
75111W        W34372   2.333  40.386   3.729
75112W        W34373  31.115  27.151  12.917
75113W        W34374  34.505   3.950  12.342
75114W        W34375  15.099  42.302   4.604
75115W        W34376  41.996  12.691  11.959
75116W        W34377  14.258  30.967  12.349
75117W        W34378   4.888   8.303  14.367
75118W        W34379  27.568  12.756  10.904
75119W        W34380  30.089  40.527   4.608
75120W        W34381  28.168  28.557   4.690
75121W        W34382  39.389  31.472  14.765
75122W        W34383   0.808  17.235  14.968
75123W        W34384  39.953  17.574   3.648
75124W        W34385   0.308  38.515  11.540
75125W        W34386  30.538  44.905   4.226
75126W        W34387   9.864  44.840  11.926
75127W        W34388  10.858  12.271   4.277
75128W        W34389  37.498  30.574  11.431
75129W        W34390  14.690   8.729   3.306
75130W        W34391  23.494  42.849  14.363
75131W        W34392   7.751  35.052   2.786
75132W        W34393  36.364  40.920  12.926
75133W        W34394  30.056  36.058   2.774
75134W        W34395  21.102  16.111   3.770
75135W        W34396  35.979  33.955   0.923
75136W        W34397   5.375   1.937  11.418
75137W        W34398  10.705  31.037   1.845
75138W        W34399  29.984  15.210  13.885
75139W        W34400   2.966   9.752  14.999
75140W        W34401  37.359  26.645   2.251
75141W        W34402  14.617  37.567   4.159
75142W        W34403  31.925  37.036   1.930
75143W        W34404  26.055  44.934   4.838
75144W        W34405  19.545  41.034   1.221
75145W        W34406  36.949   4.811   2.887
75146W        W34407  17.761   5.217   1.317
75147W        W34408  35.990  17.621   4.295
75148W        W34409  40.896   2.819   0.418
75149W        W34410  38.422   4.855  13.369
75150W        W34411  43.414   6.391  13.842
75151W        W34412   8.252  18.626  11.422
75152W        W34413  19.624  37.523   0.732
75153W        W34414   5.293   6.284  14.947
75154W        W34415   2.874  37.879  13.904
75155W        W34416   0.303   0.435   4.229
75156W        W34417  26.467  43.514  14.417
75157W        W34418  23.636  15.577   4.837
75158W        W34419  37.964  12.136   4.242
75159W        W34420  22.218  38.337  14.922
75160W        W34421   5.258  12.209  11.438
75161W        W34422  31.026  35.098   4.743
75162W        W34423  21.612  27.604   4.250
75163W        W34424   0.824  11.623  12.376
75164W        W34425  42.303  12.811  10.419
75165W        W34426  20.575  21.643  10.630
75166W        W34427  28.063  30.059   4.813
75167W        W34428  34.591  29.945   0.799
75168W        W34429   4.450  35.101  14.000
75169W        W34430  13.207   1.366   0.286
75170W        W34431  30.161  28.441   3.147
75171W        W34432  38.459   6.298   3.313
75172W        W34433  40.968  23.196  12.997
75173W        W34434   7.730  38.547   1.271
75174W        W34435   3.806  13.267   2.258
75175W        W34436  40.037  13.217  13.998
75176W        W34437  16.698  37.966   2.695
75177W        W34438  30.463  25.603   3.326
75178W        W34439  44.387  28.508   0.922
75179W        W34440   2.753  28.583   4.816
75180W        W34441  15.220  37.545   2.415
75181W        W34442  20.091  36.557   4.169
75182W        W34443  13.752  27.034  11.902
75183W        W34444  35.365  38.332  11.954
75184W        W34445  39.395  39.014   4.261
75185W        W34446  43.917  18.659   1.794
75186W        W34447  19.114  22.123   2.710
75187W        W34448  31.454  13.226  14.870
75188W        W34449  20.764  43.275   0.331
75189W        W34450  27.578  40.336  11.931
75190W        W34451  29.585   8.658  10.015
75191W        W34452  35.069  20.570  10.642
75192W        W34453  24.148  22.740   2.845
75193W        W34454  30.623   9.801  13.847
75194W        W34455  27.982  34.440  14.404
75195W        W34456  14.622   0.483   3.219
75196W        W34457  28.012  16.797  12.857
75197W        W34458  44.330  14.224  12.487
75198W        W34459  23.512  28.072   5.641
75199W        W34460  35.530  28.598   3.750
75200W        W34461  34.479   2.941   1.829
75201W        W34462  41.871   1.438   0.871
75202W        W34463  26.509  27.118  11.401
75203W        W34464  30.975   4.918  10.029
75204W        W34465  13.786  39.320   2.882
75205W        W34466  15.321   8.715  13.998
75206W        W34467  33.619  27.512  14.471
75207W        W34468  44.401   9.339  10.406
75208W        W34469  40.312  29.068   4.705
75209W        W34470  14.806  22.540   4.798
75210W        W34471  24.019   1.826  12.048
75211W        W34472  27.551  33.990   4.726
75212W        W34473  24.119  25.135  14.822
75213W        W34474  31.625  26.120   0.360
75214W        W34475  14.835  16.715  11.484
75215W        W34476  41.391  43.415   0.452
75216W        W34477  38.387  16.810  12.535
75217W        W34478  37.086  27.073  11.490
75218W        W34479   2.894  20.649  14.383
75219W        W34480  22.174  41.830   3.685
75220W        W34481  12.131  13.686   2.785
75221W        W34482  31.628  27.452  11.477
75222W        W34483  11.704   3.849  11.601
75223W        W34484  24.056  28.567  14.439
75224W        W34485  23.180  17.298   4.160
75225W        W34486  39.388   5.832  14.023
75226W        W34487  25.205  10.374  11.888
75227W        W34488   3.903  34.907   3.249
75228W        W34489   9.377  40.928  11.913
75229W        W34490  10.331  14.637   3.377
75230W        W34491  28.582  11.160   3.701
75231W        W34492  35.108   8.348   1.424
75232W        W34493  25.517  41.940  12.840
75233W        W34494  39.870  15.789  14.945
75234W        W34495  12.719  21.604   1.385
75235W        W34496  27.576  23.598   1.275
75236W        W34497  38.042  34.534  13.007
75237W        W34498  12.830  35.868  10.491
75238W        W34499  19.667  29.962  13.462
75239W        W34500  18.760  34.954   3.798
75240W        W34501  30.477   3.338  13.896
75241W        W34502  38.850  36.900  11.483
75242W        W34503  23.144  22.088   1.810
75243W        W34504  42.945  11.218   0.474
75244W        W34505  19.692  15.591   1.887
75245W        W34506  28.679   9.828  11.879
75246W        W34507  41.813  13.660   4.742
75247W        W34508  14.272  42.426  14.814
75248W        W34509   3.935  35.099  11.057
75249W        W34510  24.069  40.004   3.778
75250W        W34511  10.178  29.980   3.855
75251W        W34512  37.375  36.541   3.187
75252W        W34513  21.551  29.020  10.571
75253W        W34514  38.374   3.459  12.851
75254W        W34515  42.517  42.508  14.951
75255W        W34516  36.531  33.390  12.892
75256W        W34517   4.766  21.118   4.602
75257W        W34518   3.395  30.413  12.478
75258W        W34519   2.893  15.579   0.869
75259W        W34520  24.635  12.631  14.382
75260W        W34521   2.726  15.097  10.615
75261W        W34522   6.807   7.855   1.721
75262W        W34523  21.120   1.738  13.516
75263W        W34524  33.519  25.097   3.338
75264W        W34525  23.181  34.105   0.873
75265W        W34526   0.906  17.275  11.979
75266W        W34527  20.273  33.510  13.861
75267W        W34528   6.208  35.975  10.607
75268W        W34529  12.695   0.949   2.273
75269W        W34530  22.057  37.923   4.157
75270W        W34531  37.494  32.586   1.376
75271W        W34532  43.003  36.928  14.351
75272W        W34533   7.733  16.088  10.618
75273W        W34534  37.340  14.157   0.289
75274W        W34535  15.664  37.046  10.929
75275W        W34536  17.246  40.952   0.776
75276W        W34537  30.995  42.807   5.121
75277W        W34538  20.235  25.085   2.198
75278W        W34539   8.729   4.927   3.230
75279W        W34540   5.253  44.386   0.933
75280W        W34541  44.489   3.343   1.785
75281W        W34542  14.102   2.377   4.753
75282W        W34543   2.236  37.915   0.803
75283W        W34544  30.006  43.788  12.414
75284W        W34545  19.573  11.690   4.649
75285W        W34546  22.208  15.656  14.355
75286W        W34547  10.220   0.940  11.607
75287W        W34548  41.397   3.735  11.057
75288W        W34549  10.718  37.863   1.911
75289W        W34550  14.613  23.541   9.933
75290W        W34551   3.910  11.276   0.958
75291W        W34552  19.575  37.956  10.927
75292W        W34553  39.963   7.676  12.913
75293W        W34554   9.242   2.943  10.903
75294W        W34555  10.193  19.597   1.880
75295W        W34556  15.718  17.248  13.528
75296W        W34557  27.109   8.391  14.290
75297W        W34558  32.395  20.172  13.870
75298W        W34559  34.017  42.926  14.501
75299W        W34560  23.149  39.485  10.889
75300W        W34561  31.908  20.149  13.893
75301W        W34562  26.964  17.219   3.165
75302W        W34563   6.194   8.296  13.981
75303W        W34564  17.748  33.599  14.024
75304W        W34565  29.480  14.772   4.730
75305W        W34566  22.197  36.407  14.972
75306W        W34567  15.313  12.833   3.293
75307W        W34568  35.363  34.024   2.268
75308W        W34569  13.841   2.937   0.780
75309W        W34570  37.559  19.050   1.818
75310W        W34571  13.840  14.656   3.322
75311W        W34572   8.189   2.367  11.122
75312W        W34573  26.014  36.895  11.588
75313W        W34574  32.611  30.638   1.753
75314W        W34575  37.469  14.725   2.878
75315W        W34576   9.722  17.677  10.445
75316W        W34577  13.623  41.364  11.018
75317W        W34578   5.850   5.891  13.985
75318W        W34579   0.312  39.908  14.850
75319W        W34580  17.132   0.839   0.283
75320W        W34581   5.718  16.588   1.788
75321W        W34582  16.101  30.630   3.158
75322W        W34583   6.218  20.156  13.019
75323W        W34584  14.100  11.853   1.213
75324W        W34585   6.740  38.546  11.984
75325W        W34586  20.114  41.028  13.418
75326W        W34587  31.137  32.464   2.185
75327W        W34588  40.005   9.739   3.301
75328W        W34589   6.683  15.654  11.884
75329W        W34590  10.250  36.582  11.451
75330W        W34591  28.032   8.271  13.504
75331W        W34592  35.545   4.230  10.509
75332W        W34593  35.520  35.595  10.599
75333W        W34594  22.645  37.970  11.544
75334W        W34595  11.668  10.168  10.891
75335W        W34596   7.701  34.602   4.136
75336W        W34597   1.848  42.314  11.589
75337W        W34598  40.313   4.278   4.788
75338W        W34599  10.229  12.770   3.225
75339W        W34600  38.886   7.859   5.236
75340W        W34601  31.423  10.663   2.663
75341W        W34602   5.801  13.630   0.359
75342W        W34603  23.519   2.459   4.128
75343W        W34604  16.119  31.627   4.645
75344W        W34605  41.887  42.510  11.002
75345W        W34606  24.595   3.929   3.346
75346W        W34607  28.440  39.346   3.806
75347W        W34608  39.840   5.394   1.865
75348W        W34609   8.816  31.600   4.672
75349W        W34610  30.478  43.507   2.859
75350W        W34611  44.822  22.668   1.881
75351W        W34612  16.707  42.323  11.403
75352W        W34613   5.364   4.439   1.887
75353W        W34614   6.784   5.844   0.368
75354W        W34615  35.502  13.730   0.369
75355W        W34616  41.320  25.153  12.481
75356W        W34617  33.529   8.394  10.998
75357W        W34618  44.291  33.529  11.459
75358W        W34619   1.911  23.174   2.371
75359W        W34620   0.906  43.437  11.594
75360W        W34621   0.945  19.084   4.813
75361W        W34622  15.269  44.915   0.483
75362W        W34623   3.829  36.958   4.794
75363W        W34624  44.753  34.606  14.955
75364W        W34625  22.084   6.839   3.761
75365W        W34626  38.540  23.063  14.425
75366W        W34627  34.603  12.646  11.409
75367W        W34628   0.893  11.185   0.944
75368W        W34629  39.890   1.794   1.708
75369W        W34630   4.321  40.473   0.375
75370W        W34631  29.980  14.188   1.246
75371W        W34632  31.501  31.619   5.247
75372W        W34633   5.758  23.678   3.671
75373W        W34634   8.833  23.184   3.688
75374W        W34635  33.044   6.821   0.278
75375W        W34636   5.221  13.305  14.500
75376W        W34637  43.767   6.694   1.859
75377W        W34638  25.998  27.467   2.680
75378W        W34639   7.869  44.492   2.223
75379W        W34640  24.113  24.517   3.377
75380W        W34641   4.313   2.811   0.341
75381W        W34642  13.678   5.698  12.503
75382W        W34643   8.214  36.070   3.302
75383W        W34644  33.619  29.435   0.263
75384W        W34645  35.973  26.610  13.897
75385W        W34646  32.635  28.544  13.404
75386W        W34647  25.194  19.148  12.427
75387W        W34648  34.924  23.705   2.230
75388W        W34649  29.622  43.290  11.118
75389W        W34650  23.029  21.025  10.057
75390W        W34651   8.294  19.131   1.299
75391W        W34652  26.549  32.517  14.961
75392W        W34653  34.613  16.145   3.666
75393W        W34654  11.816  12.157   5.153
75394W        W34655  21.149   5.694  12.553
75395W        W34656  13.736  44.418   3.336
75396W        W34657  10.142  13.843   2.661
75397W        W34658  38.853  12.302  14.946
75398W        W34659  38.423   3.843  12.949
75399W        W34660  17.163  42.936  13.935
75400W        W34661   1.251  31.456  13.384
75401W        W34662  17.756   7.720  14.843
75402W        W34663  41.882   3.835   0.739
75403W        W34664  20.573  12.666   1.293
75404W        W34665  33.430  35.012   4.285
75405W        W34666  14.188  39.502   4.271
75406W        W34667   3.391   0.971   4.804
75407W        W34668  21.076   4.800  12.829
75408W        W34669  11.313  36.528  11.964
75409W        W34670   9.727  15.143  10.607
75410W        W34671  41.460  13.633  13.011
75411W        W34672  31.027  22.602  13.805
75412W        W34673  35.089  10.310  12.378
75413W        W34674  15.604  30.536  11.998
75414W        W34675   3.401  11.664   3.797
75415W        W34676  24.974  37.083   0.261
75416W        W34677  31.489  20.132  10.531
75417W        W34678  43.910  39.530  14.357
75418W        W34679  19.071  26.473   1.826
75419W        W34680  21.550  13.739  14.843
75420W        W34681  15.816  36.071   2.869
75421W        W34682  26.497  14.126  12.899
75422W        W34683  41.041  20.137  12.339
75423W        W34684  25.135  36.017   3.245
75424W        W34685  25.059  23.602   2.318
75425W        W34686   3.227   3.713   3.774
75426W        W34687  42.495   6.224   1.251
75427W        W34688  26.535  15.098  10.893
75428W        W34689  24.619  26.515   1.287
75429W        W34690  14.184  10.678   1.719
75430W        W34691  41.844  25.684  10.512
75431W        W34692  26.103  22.647   4.242
75432W        W34693  36.432  32.622   3.197
75433W        W34694  22.708   8.816   9.992
75434W        W34695  34.614   3.355  14.359
75435W        W34696   6.329  17.647   4.185
75436W        W34697  40.820  32.068   3.849
75437W        W34698  25.598  31.027  13.372
75438W        W34699   5.703   0.878   4.653
75439W        W34700  16.777  14.784  12.922
75440W        W34701  40.832  42.798  10.958
75441W        W34702  34.415  20.081  11.885
75442W        W34703  18.731   3.910  14.433
75443W        W34704  27.470   5.326   3.149
75444W        W34705  13.275  11.357   2.197
75445W        W34706  27.483   2.741  12.987
75446W        W34707  29.584  39.045   1.875
75447W        W34708  37.878  31.522  14.380
75448W        W34709  15.305   6.391  12.478
75449W        W34710  32.519  25.573   0.346
75450W        W34711  22.131  27.141   0.966
75451W        W34712  43.778  30.438  11.935
75452W        W34713  42.404  30.634   1.766
75453W        W34714  14.807  17.097  10.431
75454W        W34715  37.999  25.668  14.936
75455W        W34716  41.453  39.977   2.415
75456W        W34717  34.966  31.568  11.098
75457W        W34718  29.007  26.496   4.737
75458W        W34719   6.785   1.847   3.844
75459W        W34720  43.311  22.101   0.811
75460W        W34721  34.512  44.414  14.375
75461W        W34722  28.465  38.424   3.168
75462W        W34723   9.252  25.972   4.217
75463W        W34724  25.178  33.464   0.953
75464W        W34725  33.036   7.414  11.050
75465W        W34726  27.457  39.935   2.193
75466W        W34727  44.337  44.779  14.017
75467W        W34728  13.757  39.369  11.964
75468W        W34729  20.571   0.337   0.283
75469W        W34730   1.286  15.760   2.315
75470W        W34731  27.131   8.318   2.371
75471W        W34732   5.811  21.214   3.862
75472W        W34733   6.707  36.879   3.195
75473W        W34734  12.294  39.518  13.896
75474W        W34735  29.045  26.973  13.975
75475W        W34736  36.033  36.359  10.975
75476W        W34737  19.245  16.639   3.346
75477W        W34738  33.397  44.913   3.166
75478W        W34739  32.626  25.689  14.824
75479W        W34740  32.101  41.367  14.835
75480W        W34741  29.547  18.055   4.124
75481W        W34742  34.603  19.283  10.469
75482W        W34743   8.671  20.768  13.338
75483W        W34744  16.775  35.394  10.952
75484W        W34745  29.432  11.222   5.105
75485W        W34746  39.320  12.817   2.812
75486W        W34747  15.729  40.313  12.359
75487W        W34748  35.366  28.034  10.895
75488W        W34749  15.135  21.036  12.478
75489W        W34750  34.541  14.223   3.643
75490W        W34751  28.952   9.359   3.286
75491W        W34752  31.989  17.200   0.941
75492W        W34753  35.917   5.839   4.136
75493W        W34754  44.291   3.871  10.541
75494W        W34755  28.177  25.173   1.449
75495W        W34756  19.254  39.025  10.596
75496W        W34757  39.460   4.855  14.824
75497W        W34758  36.989  31.009  13.843
75498W        W34759  24.696  35.534   0.458
75499W        W34760  21.067  17.229   3.294
75500W        W34761  37.393  21.088   2.290
75501W        W34762  21.618  16.569   2.714
75502W        W34763  25.625  39.322  12.969
75503W        W34764   4.223  15.620   4.691
75504W        W34765  12.228  31.441  10.551
75505W        W34766   0.253  30.946   0.942
75506W        W34767  15.734  12.235  11.903
75507W        W34768  37.013  43.404  12.376
75508W        W34769   6.396  33.399   5.131
75509W        W34770  37.908  17.284  14.894
75510W        W34771   6.853  43.301  13.446
75511W        W34772   0.793  21.514  13.381
75512W        W34773  26.200  44.289   9.959
75513W        W34774  20.213  11.672  12.076
75514W        W34775  10.843  38.861  12.984
75515W        W34776  33.054  33.392   1.231
75516W        W34777  29.595  27.649  14.795
75517W        W34778  15.695   9.739  12.573
75518W        W34779  18.602  36.966   1.341
75519W        W34780  23.002  25.586  14.341
75520W        W34781  17.708  32.602  12.470
75521W        W34782  26.126  38.345  10.995
75522W        W34783  40.917   5.815   3.310
75523W        W34784   9.652   8.269  12.471
75524W        W34785  27.517  32.596   2.211
75525W        W34786  26.005  41.320   1.882
75526W        W34787  34.936  38.053  12.047
75527W        W34788  31.133  26.061  13.494
75528W        W34789  28.169  33.123   2.199
75529W        W34790  39.063  43.361   0.745
75530W        W34791  33.923  35.088   1.226
75531W        W34792  42.402  14.824  13.380
75532W        W34793  15.589  43.970   5.273
75533W        W34794  10.218  24.151  13.332
75534W        W34795  27.973  28.465  14.438
75535W        W34796   9.841  37.575   9.972
75536W        W34797   9.807   0.793  12.075
75537W        W34798  41.416  27.655   4.618
75538W        W34799  31.909   9.315  10.504
75539W        W34800  10.283   0.857   0.298
75540W        W34801  44.927   4.300  12.921
75541W        W34802  27.594  24.550  11.865
75542W        W34803  34.472  44.915   1.799
75543W        W34804  14.673   9.224   4.189
75544W        W34805  14.140  30.106  14.398
75545W        W34806   2.236  32.934   0.737
75546W        W34807  36.572   4.861   3.280
75547W        W34808  13.294  40.513  12.023
75548W        W34809  27.671  24.064  13.964
75549W        W34810   5.706  17.278   4.180
75550W        W34811  44.873  35.024  11.945
75551W        W34812  33.095  19.200   1.440
75552W        W34813  23.203   2.893   2.684
75553W        W34814   0.834  18.126   1.919
75554W        W34815   7.254  11.230   0.833
75555W        W34816  33.970  36.569  10.902
75556W        W34817   8.257  17.149  12.424
75557W        W34818  27.517  41.988  12.978
75558W        W34819  42.884   2.406  11.110
75559W        W34820  44.816  33.502  14.859
75560W        W34821  38.039  28.176   2.402
75561W        W34822  18.086   5.857   2.855
75562W        W34823  42.445  14.767  12.475
75563W        W34824   9.800  22.664  13.053
75564W        W34825   6.881  29.919  14.018
75565W        W34826  30.545  32.468  13.953
75566W        W34827  19.626  15.738   4.254
75567W        W34828  21.035   6.335   0.315
75568W        W34829  38.477  26.576  13.037
75569W        W34830  34.117  25.153  14.911
75570W        W34831   7.178  28.939  12.078
75571W        W34832  22.236  21.030  11.413
75572W        W34833  11.145  29.544  11.047
75573W        W34834  24.661  41.826   3.763
75574W        W34835  13.605  20.028  10.515
75575W        W34836  18.087  13.711   3.336
75576W        W34837  26.559  17.750  14.999
75577W        W34838  35.561  37.857  10.625
75578W        W34839   6.359  40.928  12.908
75579W        W34840  13.164  41.424  11.128
75580W        W34841  28.604  21.061  11.524
75581W        W34842  11.211  44.450   2.802
75582W        W34843  32.433  32.617   2.776
75583W        W34844   0.951  18.078  13.017
75584W        W34845  15.174  41.984  10.973
75585W        W34846   1.905   4.408   2.813
75586W        W34847  10.190  13.173  12.486
75587W        W34848  27.021  36.061   4.205
75588W        W34849  18.612  39.814   1.323
75589W        W34850  20.704  29.112  11.003
75590W        W34851   9.336  25.527   1.356
75591W        W34852  22.675  32.997   4.187
75592W        W34853  36.494   8.814   0.859
75593W        W34854   5.432  23.025   4.702
75594W        W34855   8.794   1.976   1.922
75595W        W34856  43.889  18.779  13.919
75596W        W34857  12.126  11.345  14.760
75597W        W34858   1.350  20.603   1.901
75598W        W34859  29.459   4.238  12.427
75599W        W34860  41.981  10.252   3.347
75600W        W34861   7.686   1.738   0.441
75601W        W34862  37.434  24.995  14.465
75602W        W34863  38.982  20.112  11.391
75603W        W34864  32.620   6.915   1.241
75604W        W34865  34.895  26.554  13.984
75605W        W34866  12.313  10.696   3.828
75606W        W34867   6.693   2.797  13.338
75607W        W34868  32.418  10.800  12.074
75608W        W34869  23.004  22.023  13.021
75609W        W34870   8.191  31.481   0.965
75610W        W34871   6.767  31.925  13.930
75611W        W34872  36.402  27.625   0.396
75612W        W34873   1.887   3.939  14.013
75613W        W34874   9.215  27.166   0.778
75614W        W34875  42.943  38.334   4.328
75615W        W34876  15.818  15.801  11.067
75616W        W34877  18.180  22.610   1.920
75617W        W34878  19.581  35.870   1.779
75618W        W34879   0.985  21.107  12.033
75619W        W34880   4.842  37.052  10.485
75620W        W34881   9.202  28.676  10.945
75621W        W34882  26.630   4.295  10.538
75622W        W34883  16.274   2.353   3.637
75623W        W34884   0.864   7.799  14.440
75624W        W34885  23.136  37.833  14.915
75625W        W34886  14.731  17.774  14.360
75626W        W34887   1.424  35.937  12.943
75627W        W34888  26.207   6.757  13.916
75628W        W34889  41.498  34.107  12.346
75629W        W34890   9.760  10.750  14.759
75630W        W34891  30.927   9.714   1.215
75631W        W34892  38.466  40.996  11.986
75632W        W34893  38.006   1.449  11.469
75633W        W34894   8.265   3.803   1.364
75634W        W34895  22.016  35.533  13.347
75635W        W34896  26.686   6.807  14.005
75636W        W34897   3.732  31.561  11.594
75637W        W34898  36.873  28.156  14.422
75638W        W34899   2.346  25.635   3.330
75639W        W34900   4.419  12.253   1.802
75640W        W34901  42.368  31.427   1.850
75641W        W34902  25.129   5.788   0.314
75642W        W34903   6.416  33.557   4.120
75643W        W34904  14.294  13.835   3.235
75644W        W34905  25.568  37.561  11.522
75645W        W34906  17.724  36.993  11.860
75646W        W34907   3.386  41.946  13.799
75647W        W34908  17.716  11.841   1.875
75648W        W34909  36.431  17.728  10.603
75649W        W34910  14.742  32.980   1.925
75650W        W34911  24.029   7.369  11.953
75651W        W34912  10.842  44.868   2.239
75652W        W34913  26.020  20.265   4.654
75653W        W34914   8.696  16.119  12.396
75654W        W34915  43.405   0.474   0.355
75655W        W34916  22.159   5.770  11.933
75656W        W34917  25.588  22.130   2.848
75657W        W34918  17.661  18.614  10.612
75658W        W34919   1.874  35.085  12.092
75659W        W34920   4.231  28.491  13.834
75660W        W34921   0.962  30.526   0.279
75661W        W34922  20.678  43.511   0.771
75662W        W34923  13.157  21.044   4.758
75663W        W34924  39.053  13.675   1.802
75664W        W34925  43.900  34.578   2.706
75665W        W34926  20.107  13.338   0.280
75666W        W34927  23.552  23.505  13.349
75667W        W34928  42.467  35.995   1.377
75668W        W34929  23.582   2.309  12.472
75669W        W34930  12.621  21.523   3.868
75670W        W34931  21.679  44.364  11.916
75671W        W34932   2.935  20.133  14.841
75672W        W34933  26.118  29.474  10.968
75673W        W34934  13.242  25.160  11.526
75674W        W34935  18.184  33.055   2.804
75675W        W34936  30.029   5.919   0.899
75676W        W34937   1.830   2.912   4.142
75677W        W34938  43.474  28.595  11.592
75678W        W34939  31.095   5.311   0.291
75679W        W34940   4.762   0.793  14.310
75680W        W34941  30.563  27.034  11.948
75681W        W34942   6.310  35.943   2.380
75682W        W34943  42.433  24.502   1.834
75683W        W34944  29.636  26.000   2.884
75684W        W34945  25.685  32.569   0.279
75685W        W34946  24.018  14.263   1.911
75686W        W34947  30.505   5.892  14.445
75687W        W34948  25.533  10.247   0.812
75688W        W34949   1.817   7.842  11.050
75689W        W34950  14.146   7.243   2.214
75690W        W34951  44.412  14.177  12.011
75691W        W34952  18.642  42.330   3.307
75692W        W34953  42.845  32.437   0.843
75693W        W34954  31.073   2.455   1.705
75694W        W34955  12.295  42.960   1.246
75695W        W34956  43.390  19.192  14.446
75696W        W34957   5.330  33.109   1.837
75697W        W34958   2.888   0.884   2.755
75698W        W34959  40.362  32.128   0.910
75699W        W34960  15.090  20.251  14.911
75700W        W34961  20.079  19.243  11.905
75701W        W34962  22.668   0.856   1.411
75702W        W34963  25.483   5.730   2.221
75703W        W34964  22.101  24.992   2.745
75704W        W34965  37.400  12.207  12.517
75705W        W34966   0.327  40.896   2.881
75706W        W34967   5.756  12.247  12.085
75707W        W34968   4.902  41.419   3.684
75708W        W34969  44.355  24.521   2.707
75709W        W34970  34.917  36.545  12.862
75710W        W34971   8.209  29.971   1.853
75711W        W34972  10.678   8.225  13.901
75712W        W34973  28.178  18.592  14.867
75713W        W34974  14.649  43.383   3.171
75714W        W34975  19.111  21.264  13.946
75715W        W34976  41.492  13.756   2.766
75716W        W34977  41.425  14.708   5.245
75717W        W34978  26.701  41.389  12.840
75718W        W34979  11.217  38.858   0.464
75719W        W34980  28.146  13.688  14.512
75720W        W34981  42.315  26.048  12.915
75721W        W34982  40.376   0.967   2.374
75722W        W34983  21.591  33.594  13.437
75723W        W34984  40.866   2.401  10.616
75724W        W34985  28.952   8.862  11.885
75725W        W34986  26.518  25.516   2.805
75726W        W34987  43.480  34.463  14.028
75727W        W34988  34.999  19.663  14.809
75728W        W34989   4.819  19.673   4.699
75729W        W34990   2.228   9.227   0.444
75730W        W34991  43.326  44.840  14.759
75731W        W34992  30.940  41.803   9.664
75732W        W34993  44.268  33.120   2.818
75733W        W34994   4.895  24.704   3.222
75734W        W34995  17.738  13.288  12.374
75735W        W34996   7.415   3.865  11.522
75736W        W34997   5.397   0.823   1.242
75737W        W34998  12.720   6.207   4.331
75738W        W34999  31.058   5.416  12.511
75739W        W35000  16.577  19.258   9.970
75740W        W35001  43.410  35.864  13.452
75741W        W35002  39.013  13.683  13.342
75742W        W35003  16.207   7.332  10.902
75743W        W35004   7.750  40.836  11.418
75744W        W35005  37.956  41.932   2.414
75745W        W35006   0.803  42.807   3.639
75746W        W35007  36.024  26.036  14.032
75747W        W35008  25.122  44.337   3.857
75748W        W35009  19.044  43.297  11.597
75749W        W35010  22.056  30.546  11.482
75750W        W35011  19.072  22.211   0.416
75751W        W35012  23.188  13.208  11.982
75752W        W35013  10.754  44.418   3.652
75753W        W35014  19.727  26.700   1.910
75754W        W35015  10.203  16.713   3.683
75755W        W35016  31.125   7.765   3.786
75756W        W35017   0.975  16.733  11.550
75757W        W35018  41.388  22.244   2.662
75758W        W35019  10.700   4.392  12.043
75759W        W35020  39.456  15.753   0.289
75760W        W35021  10.672  39.414   2.240
75761W        W35022  32.894  17.236   3.722
75762W        W35023   1.787  36.967  14.386
75763W        W35024   5.878   1.968  12.560
75764W        W35025  43.473  41.850  10.936
75765W        W35026  19.116   8.811   1.895
75766W        W35027  14.186  33.605   3.662
75767W        W35028  27.973  26.618   1.432
75768W        W35029  23.114  20.136   3.248
75769W        W35030  39.868  14.097  11.545
75770W        W35031  22.718  44.861   1.712
75771W        W35032  36.905  22.153  12.888
75772W        W35033   6.256  27.012  14.960
75773W        W35034   4.290  13.341  12.434
75774W        W35035  36.025  17.582   3.803
75775W        W35036  19.100  39.916  10.560
75776W        W35037  41.966  27.524  13.866
75777W        W35038   4.816  28.985   1.811
75778W        W35039  19.701   3.331   4.160
75779W        W35040  40.945  10.694   2.409
75780W        W35041  17.638   2.948  14.982
75781W        W35042  18.669  30.985  13.976
75782W        W35043   7.359  28.674  12.954
75783W        W35044  12.676  33.422   3.779
75784W        W35045   9.230   5.398   1.710
75785W        W35046  17.138  27.003   5.124
75786W        W35047   2.883  41.344   1.892
75787W        W35048  21.190  32.427   4.234
75788W        W35049   1.245  22.648   0.744
75789W        W35050   8.722  44.796  14.283
75790W        W35051  22.147  39.811  14.318
75791W        W35052  25.184  37.084   0.756
75792W        W35053   5.760  39.020   3.195
75793W        W35054  29.928   2.886  14.876
75794W        W35055  16.173   8.177   0.745
75795W        W35056  20.651  22.029  14.931
75796W        W35057  27.187  38.046  12.048
75797W        W35058  34.452   3.841  11.085
75798W        W35059  41.489   4.901   3.663
75799W        W35060   3.948   9.205  12.576
75800W        W35061  17.560  31.916  12.357
75801W        W35062  28.101  27.595  11.915
75802W        W35063  31.417  36.993   1.919
75803W        W35064   3.218   7.737  13.509
75804W        W35065   9.318   7.752   3.374
75805W        W35066  19.592  17.693   3.762
75806W        W35067  31.906  32.899  12.951
75807W        W35068  36.433  26.992  14.988
75808W        W35069  37.393  39.515  14.484
75809W        W35070  25.139  20.694   4.791
75810W        W35071   9.801  15.247  12.057
75811W        W35072   9.751  15.761   3.754
75812W        W35073  25.085  32.097   2.772
75813W        W35074  22.186  13.831  11.498
75814W        W35075   9.727  15.580   1.262
75815W        W35076  10.816   5.792  14.502
75816W        W35077   0.943  39.979  10.948
75817W        W35078   9.159  44.388   1.823
75818W        W35079   1.808  38.502   4.218
75819W        W35080   3.911  37.843  11.379
75820W        W35081  23.521  35.909  14.439
75821W        W35082   6.187  34.467   4.631
75822W        W35083  41.891  32.587   1.280
75823W        W35084  22.021   2.377   4.733
75824W        W35085   3.277  29.981   0.886
75825W        W35086  39.048  24.665   3.748
75826W        W35087   8.389  24.679   3.328
75827W        W35088  16.179  19.598   1.732
75828W        W35089  11.276  40.841   4.789
75829W        W35090  13.635   1.361  14.882
75830W        W35091  10.839  35.869  11.096
75831W        W35092  10.223  36.863  14.321
75832W        W35093  10.154  15.095   0.932
75833W        W35094  41.381  10.813   4.333
75834W        W35095   7.893  21.522   1.451
75835W        W35096  28.065  40.049   4.752
75836W        W35097  16.217  40.046  12.062
75837W        W35098  15.777  12.678   0.363
75838W        W35099  25.567   1.299   2.799
75839W        W35100   2.914   0.282   3.366
75840W        W35101  24.978  29.019   2.260
75841W        W35102  37.535  19.149   1.230
75842W        W35103  24.570  41.867   1.383
75843W        W35104  42.943  14.739   0.286
75844W        W35105  36.901   7.408  12.940
75845W        W35106  44.917  17.742  14.390
75846W        W35107  20.086   7.910  11.518
75847W        W35108  33.529  31.996   0.318
75848W        W35109  42.781  26.180  11.482
75849W        W35110  39.838  39.024   1.835
75850W        W35111  10.697  26.650  14.784
75851W        W35112  41.521  14.189   2.746
75852W        W35113  28.604  38.461   4.285
75853W        W35114  36.045  11.658   3.373
75854W        W35115  38.430  24.503   1.763
75855W        W35116  34.524  34.499   2.672
75856W        W35117   1.731  39.964   0.841
75857W        W35118  11.320  31.467   4.609
75858W        W35119  37.405  27.112  10.521
75859W        W35120  10.227  36.486  12.462
75860W        W35121  14.311  38.339  13.335
75861W        W35122  22.081  19.167  10.948
75862W        W35123  43.394  18.673  10.909
75863W        W35124   3.923   0.804  14.915
75864W        W35125   0.984  14.149  10.056
75865W        W35126  29.588   1.933  14.922
75866W        W35127  11.225  32.501   1.309
75867W        W35128  29.109  13.341   1.383
75868W        W35129  27.018   0.840   4.348
75869W        W35130  31.050  27.033  11.467
75870W        W35131   3.864  35.102   1.369
75871W        W35132   9.670   4.272  11.596
75872W        W35133  13.227   8.840   3.842
75873W        W35134   5.299   5.417   4.715
75874W        W35135  32.405  19.540   2.348
75875W        W35136  20.688  23.023   3.386
75876W        W35137  41.334  28.514  13.413
75877W        W35138   8.813   8.367  12.433
75878W        W35139   0.767   1.887  10.084
75879W        W35140  28.508   0.929  10.425
75880W        W35141  14.196  31.426   3.774
75881W        W35142  27.175  29.481  13.002
75882W        W35143  19.132   8.847   0.364
75883W        W35144  41.913   7.874  13.481
75884W        W35145  29.139  35.031  14.779
75885W        W35146  25.107  35.546   2.375
75886W        W35147  14.648  18.223   1.842
75887W        W35148  42.320  24.081   4.274
75888W        W35149  25.469  38.873  11.416
75889W        W35150  22.096  37.458  10.622
75890W        W35151  15.236  39.383   2.716
75891W        W35152  10.165  37.902   2.748
75892W        W35153  13.834  35.452   4.278
75893W        W35154  25.181  18.109  11.088
75894W        W35155  30.533  11.288  10.583
75895W        W35156   4.714  12.700  13.463
75896W        W35157  43.387   7.232  11.450
75897W        W35158  32.609  31.976   1.829
75898W        W35159  11.168  27.008   3.747
75899W        W35160  32.946  21.569   0.409
75900W        W35161  38.357   0.796  12.571
75901W        W35162  11.627  16.654   1.313
75902W        W35163   3.226   5.907   1.249
75903W        W35164  43.953  12.832   3.799
75904W        W35165  11.137  14.747   4.742
75905W        W35166  11.804  14.214   2.242
75906W        W35167  43.771  38.914   4.200
75907W        W35168   2.939  11.845   2.226
75908W        W35169   5.263   1.312  10.974
75909W        W35170   9.720   5.216   9.518
75910W        W35171  41.387  13.842  14.006
75911W        W35172  22.735  38.384   3.274
75912W        W35173  30.055   7.773  12.884
75913W        W35174  40.357   4.211  11.870
75914W        W35175  10.334  24.981   1.804
75915W        W35176  38.337  32.494   3.229
75916W        W35177  12.198   9.649  13.378
75917W        W35178  21.031  33.879   2.349
75918W        W35179  18.684  13.240   4.229
75919W        W35180  25.175  22.649   5.227
75920W        W35181  13.826  34.874   4.789
75921W        W35182  42.455  34.436  10.530
75922W        W35183  30.479  16.629   4.324
75923W        W35184   2.250  31.064  13.926
75924W        W35185  17.577  37.536   2.722
75925W        W35186  38.553  30.098  13.906
75926W        W35187  24.113  27.595   5.290
75927W        W35188  22.630  28.975   0.439
75928W        W35189  22.653  33.032  14.296
75929W        W35190  34.481  12.208  13.521
75930W        W35191   4.260   2.924   2.378
75931W        W35192  39.979   8.391   0.899
75932W        W35193  22.098  22.743  13.890
75933W        W35194   5.909  16.673  11.427
75934W        W35195  42.501  36.933   2.329
75935W        W35196   4.705  25.061   4.180
75936W        W35197  29.055  39.319  13.345
75937W        W35198  11.691  34.045  12.541
75938W        W35199   2.941  30.574  12.022
75939W        W35200  34.002   8.834  13.044
75940W        W35201   1.245  31.090  13.477
75941W        W35202  19.706   8.757   3.813
75942W        W35203  38.563  33.533   5.615
75943W        W35204  26.058   6.781  12.057
75944W        W35205  10.657  41.821   2.302
75945W        W35206   7.222  28.547  13.423
75946W        W35207  30.559   5.769   3.232
75947W        W35208  29.489  23.993   4.777
75948W        W35209  36.566   5.766  14.909
75949W        W35210   7.201   0.920  11.382
75950W        W35211  44.807  28.657   3.833
75951W        W35212  17.557  17.203  11.602
75952W        W35213  18.234   4.937   2.663
75953W        W35214   4.403  37.550  14.893
75954W        W35215  17.076  12.260   4.659
75955W        W35216  25.681  32.964  13.012
75956W        W35217  13.161   1.959  13.839
75957W        W35218  15.810  26.179  11.884
75958W        W35219  17.574  44.782   2.827
75959W        W35220  23.554   1.805   0.423
75960W        W35221   5.885  43.957   0.893
75961W        W35222  37.061  16.600   2.316
75962W        W35223  10.705  31.126  14.468
75963W        W35224   2.941  26.194  12.905
75964W        W35225   8.688   7.296   0.254
75965W        W35226  37.430  10.786   2.710
75966W        W35227  15.164  31.542  12.512
75967W        W35228  34.920   9.365  12.946
75968W        W35229  18.675   4.894   4.808
75969W        W35230   6.360   0.865  14.853
75970W        W35231   6.702  40.886   4.639
75971W        W35232  28.448  22.138  14.820
75972W        W35233  18.763  41.293   1.259
75973W        W35234  40.326  25.706   0.451
75974W        W35235  29.587  17.167  11.603
75975W        W35236  16.752  29.986   2.186
75976W        W35237   7.745  20.741  12.493
75977W        W35238  15.168   9.383   3.708
75978W        W35239  31.647  36.913   2.787
75979W        W35240  26.699  17.678  11.001
75980W        W35241  18.740   8.330  13.987
75981W        W35242  33.995  38.034  14.496
75982W        W35243   2.747  20.101   2.381
75983W        W35244  37.088  31.951  10.465
75984W        W35245  44.335  22.698   5.307
75985W        W35246  24.056  28.557  13.006
75986W        W35247  24.053  44.869   4.692
75987W        W35248  44.496  16.678  12.064
75988W        W35249   3.372   9.163   2.758
75989W        W35250   4.763  43.327  11.948
75990W        W35251  34.873  24.079  10.624
75991W        W35252  29.447  44.501   4.655
75992W        W35253  17.299  40.416   3.769
75993W        W35254  27.012  13.181   4.328
75994W        W35255  35.468  20.212   4.195
75995W        W35256  26.492  14.162  10.461
75996W        W35257   0.934   4.928   2.213
75997W        W35258  18.699  27.093  13.502
75998W        W35259  24.487   5.688   2.782
75999W        W35260  11.264  38.922   3.667
76000W        W35261  36.972  41.883   3.279
76001W        W35262  12.362  29.555  10.489
76002W        W35263  11.822  39.428  13.492
76003W        W35264  37.065  16.747  10.939
76004W        W35265  22.684  44.934   2.278
76005W        W35266  26.208  41.345   1.244
76006W        W35267  11.671  19.276   2.324
76007W        W35268  40.330  26.106  10.486
76008W        W35269  36.392  22.611  13.473
76009W        W35270  36.465  37.466   2.887
76010W        W35271  32.129  33.030   1.272
76011W        W35272  42.919  11.349  14.341
76012W        W35273   2.463  40.986   4.605
76013W        W35274   1.906  40.359  14.016
76014W        W35275  40.802  21.124   1.405
76015W        W35276   6.192   3.339   2.836
76016W        W35277  17.267  16.619   1.240
76017W        W35278   5.374  31.558  13.991
76018W        W35279  32.434  36.952   4.292
76019W        W35280  17.793  24.183   0.343
76020W        W35281  19.069   9.197  10.477
76021W        W35282  24.975  32.980  13.025
76022W        W35283  16.315  43.422  13.335
76023W        W35284  26.081  28.573  10.436
76024W        W35285   1.920  44.369  14.495
76025W        W35286   8.352  24.208   3.750
76026W        W35287   9.850   4.793   9.925
76027W        W35288  11.218   1.318  12.505
76028W        W35289  33.440  10.639   3.696
76029W        W35290   2.883  18.765   4.817
76030W        W35291  17.594   3.813   3.286
76031W        W35292  38.356  22.726  10.579
76032W        W35293  10.672   8.679  10.414
76033W        W35294  10.647  12.794   1.913
76034W        W35295  19.051  29.167   1.920
76035W        W35296  33.619  34.873   3.236
76036W        W35297  23.146  14.160  13.421
76037W        W35298  24.213  23.568   0.793
76038W        W35299  24.152  24.572  14.326
76039W        W35300  40.442  24.550   2.730
76040W        W35301  39.502  24.101   0.405
76041W        W35302   8.222  32.945   4.167
76042W        W35303   9.309  37.028  12.990
76043W        W35304  16.605  39.910   4.625
76044W        W35305   5.215  33.976   1.409
76045W        W35306  34.966  12.692  12.914
76046W        W35307  38.504  30.001  10.579
76047W        W35308  28.670  12.750   1.834
76048W        W35309  40.992  17.673  13.971
76049W        W35310  29.461   9.864  14.405
76050W        W35311  24.160  21.196   2.333
76051W        W35312  32.559  32.502  13.366
76052W        W35313  43.828  18.182  14.322
76053W        W35314  10.735  37.087  12.931
76054W        W35315  38.990  20.249  12.576
76055W        W35316  24.222  26.000  14.782
76056W        W35317  39.394   2.963   2.413
76057W        W35318  24.035  34.565   1.926
76058W        W35319  16.747   5.826  11.021
76059W        W35320   1.961  25.577  14.903
76060W        W35321  25.521  16.613  14.817
76061W        W35322   5.901  38.501   3.229
76062W        W35323  25.669   5.802  14.973
76063W        W35324   0.810  41.821   1.828
76064W        W35325  21.249  29.455  13.485
76065W        W35326  27.979   4.280   3.169
76066W        W35327  15.669  32.574  12.025
76067W        W35328  10.263   0.879  10.999
76068W        W35329  28.569  13.139  10.476
76069W        W35330  42.806  44.451   3.727
76070W        W35331  37.831  16.073   1.336
76071W        W35332  24.534  22.088  13.960
76072W        W35333  10.725   0.427  13.488
76073W        W35334  26.621  10.247  14.378
76074W        W35335  18.595   8.298  14.410
76075W        W35336   6.796  41.356   1.431
76076W        W35337  44.769   3.722  11.531
76077W        W35338   2.882   1.480  11.594
76078W        W35339  12.800  41.038  10.435
76079W        W35340   3.734  25.200  11.887
76080W        W35341  26.659  37.913  11.106
76081W        W35342  27.656  40.012   2.874
76082W        W35343  37.987  26.548  13.827
76083W        W35344   5.376  42.308   3.288
76084W        W35345  15.651  27.538  12.841
76085W        W35346   0.427  42.865  12.458
76086W        W35347  19.253  22.156  12.454
76087W        W35348   6.780  13.606  10.933
76088W        W35349  22.722  15.198  10.627
76089W        W35350  16.132  23.006  13.486
76090W        W35351  32.490  38.025   4.608
76091W        W35352  33.956  38.425  13.948
76092W        W35353  19.653  14.240   1.446
76093W        W35354  25.604  13.801   4.620
76094W        W35355  30.010  44.859   4.152
76095W        W35356  34.978  33.129   2.359
76096W        W35357  44.466  23.526  12.413
76097W        W35358   3.929  17.557  13.925
76098W        W35359  10.254  18.573  11.530
76099W        W35360  38.430  31.075   0.965
76100W        W35361  37.876   8.758   1.239
76101W        W35362   7.295  15.709   3.228
76102W        W35363  40.820   8.181  11.587
76103W        W35364   6.796  36.902  10.926
76104W        W35365  19.601  12.617  13.840
76105W        W35366   6.341   2.230  13.309
76106W        W35367   6.773  19.150   2.389
76107W        W35368  10.244   8.379   4.241
76108W        W35369  10.837  20.705  13.040
76109W        W35370  21.583  38.948  13.355
76110W        W35371  33.035   7.811  12.340
76111W        W35372  36.064  39.491   1.913
76112W        W35373  40.405  36.904   4.147
76113W        W35374  22.027   0.853  10.941
76114W        W35375  15.689   3.869   4.610
76115W        W35376  22.169   8.356   3.766
76116W        W35377  30.415  32.585   4.310
76117W        W35378   0.831  41.519   3.829
76118W        W35379  33.901  25.186   4.342
76119W        W35380  40.539  11.673  11.409
76120W        W35381  41.415  41.340  11.016
76121W        W35382  34.966  10.205  12.012
76122W        W35383   7.345  12.218  12.414
76123W        W35384  26.531   7.747  10.642
76124W        W35385  25.562  30.554   0.483
76125W        W35386  12.626  33.526  12.857
76126W        W35387  13.695  34.005  12.915
76127W        W35388   3.452  16.711   3.303
76128W        W35389  16.811   3.298  14.355
76129W        W35390  37.499  41.501  14.936
76130W        W35391  40.009   7.741  10.495
76131W        W35392  16.777  38.340  14.811
76132W        W35393  34.390  17.591  10.934
76133W        W35394  12.221   6.270   1.313
76134W        W35395  21.212  40.991   0.375
76135W        W35396  33.502  12.707   3.197
76136W        W35397  26.140  31.107  10.435
76137W        W35398  23.659  22.103  14.792
76138W        W35399  26.095  31.430  14.501
76139W        W35400  38.026  30.491  11.427
76140W        W35401  13.313  44.315   3.382
76141W        W35402   1.844   7.864   4.625
76142W        W35403  36.374   0.845  14.794
76143W        W35404  13.822  22.098   1.240
76144W        W35405   4.716  16.291   3.199
76145W        W35406   3.746  41.012   2.765
76146W        W35407  41.523  27.032  11.446
76147W        W35408   3.812  39.425  14.438
76148W        W35409  18.064  24.192   2.299
76149W        W35410   1.744  35.587   1.923
76150W        W35411  17.227  24.600   3.257
76151W        W35412  17.114  38.065  13.832
76152W        W35413  37.459   0.333   1.219
76153W        W35414  24.682  30.418   0.327
76154W        W35415  44.889  32.590   2.752
76155W        W35416   5.728  18.622  11.578
76156W        W35417   1.282  43.999   2.192
76157W        W35418  42.339  15.821   2.242
76158W        W35419  28.558   5.264  12.512
76159W        W35420  20.741  44.430   2.879
76160W        W35421   9.881   2.944  12.064
76161W        W35422  21.158  20.041   1.725
76162W        W35423  42.811  12.306   3.346
76163W        W35424  25.517  31.140   0.848
76164W        W35425  21.665   6.190   4.645
76165W        W35426  44.847  39.819   1.745
76166W        W35427  29.994  23.622  14.848
76167W        W35428  37.423  36.904   0.442
76168W        W35429  17.188  27.688   2.894
76169W        W35430  11.757   3.945  11.953
76170W        W35431  36.914  28.177  11.386
76171W        W35432   6.859   6.213   3.224
76172W        W35433  23.609   7.177   2.860
76173W        W35434  21.027  29.079   2.699
76174W        W35435  30.436   6.747   2.263
76175W        W35436  34.557  21.132  11.015
76176W        W35437  41.294  36.841   3.800
76177W        W35438   5.413   0.754  11.072
76178W        W35439  29.583  28.050   4.168
76179W        W35440  27.558  24.662   3.160
76180W        W35441  14.241  18.720  14.407
76181W        W35442  19.774  36.350  10.636
76182W        W35443  24.501  39.439   3.840
76183W        W35444  43.482  32.078  13.334
76184W        W35445  32.006  34.433  11.868
76185W        W35446  15.609   3.757   0.869
76186W        W35447   8.175  43.435  12.054
76187W        W35448  33.068  38.856  14.479
76188W        W35449  32.899  15.158  11.869
76189W        W35450  22.027  34.077   3.241
76190W        W35451   3.379  35.886   0.766
76191W        W35452  22.644  35.458  13.340
76192W        W35453  37.351   7.408   4.668
76193W        W35454  10.809   3.862  12.917
76194W        W35455  28.940  41.343  14.924
76195W        W35456  29.426  13.832   3.780
76196W        W35457  19.645  18.672  11.394
76197W        W35458  21.568  31.585  11.881
76198W        W35459  22.154  22.136  10.470
76199W        W35460  43.921  11.659   2.773
76200W        W35461  17.645   2.857  12.418
76201W        W35462  43.921  37.833  10.456
76202W        W35463  16.647  33.605   0.809
76203W        W35464  13.237  21.201  10.498
76204W        W35465  20.153   1.847   2.224
76205W        W35466  33.055   8.388  14.885
76206W        W35467   3.232  14.110  10.494
76207W        W35468  12.819  30.962  11.566
76208W        W35469   5.397  28.978   0.258
76209W        W35470  30.913  25.527   4.337
76210W        W35471   3.436   8.281  13.845
76211W        W35472  37.468   8.798  10.423
76212W        W35473  19.077  21.538   2.287
76213W        W35474  15.686   1.809  10.554
76214W        W35475  40.407  28.527  10.644
76215W        W35476   1.386   8.864  12.016
76216W        W35477  30.610  41.518   2.723
76217W        W35478  42.327  37.904  14.289
76218W        W35479  17.098   0.350   2.730
76219W        W35480  43.281  43.492  13.357
76220W        W35481  22.660  26.514   3.381
76221W        W35482  38.012  22.193   1.838
76222W        W35483  28.076  42.392   0.822
76223W        W35484  38.910   3.936  13.543
76224W        W35485  24.042  10.333  14.979
76225W        W35486  43.491  28.160   1.250
76226W        W35487  14.588  21.704   0.375
76227W        W35488  15.780   8.763  13.547
76228W        W35489  17.096   6.216  10.456
76229W        W35490  42.922  40.868  10.979
76230W        W35491   2.863  15.719   4.698
76231W        W35492   7.726  31.092   1.399
76232W        W35493  31.922  29.442   2.752
76233W        W35494  35.053  39.450   4.314
76234W        W35495   0.822  21.066  12.495
76235W        W35496  16.310  41.363   3.777
76236W        W35497   2.967  16.771  10.906
76237W        W35498   0.448  29.489   2.853
76238W        W35499  42.808  17.248   1.734
76239W        W35500  27.678  44.404  11.918
76240W        W35501  41.354  44.407  10.557
76241W        W35502  22.023  27.039   4.783
76242W        W35503  32.023  37.406   3.294
76243W        W35504   8.866  18.646   2.696
76244W        W35505  17.292  11.309  11.071
76245W        W35506  21.174  22.253   1.319
76246W        W35507  36.398  20.744  13.865
76247W        W35508  35.898   9.847  10.617
76248W        W35509  35.088   9.388   0.357
76249W        W35510   4.872  28.994   5.317
76250W        W35511   6.773   0.301   4.668
76251W        W35512  42.857  36.575  14.333
76252W        W35513  33.955  15.152   0.372
76253W        W35514  31.972   6.353  13.848
76254W        W35515   6.857   7.346  11.587
76255W        W35516   9.879   9.798   0.957
76256W        W35517  14.652  28.123  11.481
76257W        W35518  30.568   3.942   3.323
76258W        W35519  36.567  18.698  12.001
76259W        W35520  43.376  22.080  14.503
76260W        W35521  14.767  38.382   4.744
76261W        W35522  43.481  38.530   3.224
76262W        W35523   4.714   4.441   4.229
76263W        W35524  10.370  36.942   1.375
76264W        W35525   0.253  29.153   2.747
76265W        W35526  42.865  27.623   1.861
76266W        W35527  17.572   1.263  13.986
76267W        W35528   9.295  18.750  14.866
76268W        W35529  17.086   4.932  10.096
76269W        W35530  25.694  37.022  11.889
76270W        W35531  21.676  29.469   0.250
76271W        W35532  29.127  35.567   1.919
76272W        W35533  31.459  36.029  11.971
76273W        W35534  16.094  20.710  10.624
76274W        W35535   2.885  28.502  14.917
76275W        W35536   2.950  36.036   3.711
76276W        W35537  15.807  20.159   2.689
76277W        W35538  14.685   8.762   5.279
76278W        W35539   1.875  26.142   3.718
76279W        W35540   0.412  16.243   4.137
76280W        W35541  18.240   1.242  10.433
76281W        W35542  15.326  35.102   2.386
76282W        W35543  11.668  20.189   1.361
76283W        W35544  37.432  39.041   5.305
76284W        W35545  13.184   9.346   2.344
76285W        W35546   8.299   7.297  13.897
76286W        W35547  26.012  40.847  11.937
76287W        W35548  27.137   0.328   3.772
76288W        W35549  34.594  25.026   2.878
76289W        W35550  15.264  11.761  11.532
76290W        W35551  44.356  27.652   1.359
76291W        W35552   9.322  21.064  11.075
76292W        W35553   9.392  31.584  10.587
76293W        W35554   9.847  38.426   0.409
76294W        W35555   4.204  13.715   2.691
76295W        W35556  32.421  37.482   3.376
76296W        W35557  23.216  26.462  13.917
76297W        W35558  31.491  41.386   5.735
76298W        W35559   1.874  19.100   2.246
76299W        W35560  39.863  39.978  11.611
76300W        W35561   2.847  33.470  10.615
76301W        W35562  12.645  22.012   4.733
76302W        W35563  20.643  26.654  11.044
76303W        W35564  34.889  13.613  10.586
76304W        W35565  38.846  38.919   3.817
76305W        W35566  23.155  10.305   0.395
76306W        W35567   5.353  17.757  10.574
76307W        W35568  17.645  42.003  10.982
76308W        W35569   4.431   1.289   1.216
76309W        W35570  31.603   5.324   1.303
76310W        W35571  34.867  31.098   0.784
76311W        W35572   5.731  24.980   2.829
76312W        W35573   0.403  22.018  11.588
76313W        W35574  14.639   8.721   2.406
76314W        W35575  23.524  23.662  10.431
76315W        W35576   3.252  31.421  12.089
76316W        W35577  15.642  24.109   1.383
76317W        W35578  30.614  34.984  13.006
76318W        W35579  12.833  27.495   4.745
76319W        W35580  33.551   2.378   2.728
76320W        W35581  13.644  10.637  13.527
76321W        W35582  44.001   8.816   2.199
76322W        W35583  41.380  21.753   3.245
76323W        W35584   7.401  12.208   4.686
76324W        W35585  11.791  43.870   4.230
76325W        W35586  26.182  12.670  14.295
76326W        W35587   5.397  39.938   1.704
76327W        W35588  22.692   6.413  12.970
76328W        W35589  42.775  13.709  12.073
76329W        W35590  32.061  10.278   9.948
76330W        W35591  27.062  37.455  13.925
76331W        W35592   5.241   9.672  13.478
76332W        W35593   4.841  36.584   4.350
76333W        W35594   8.350  14.182   2.749
76334W        W35595  40.048  16.099  13.531
76335W        W35596   4.426  19.675  11.977
76336W        W35597  25.150  29.051   3.250
76337W        W35598  40.981  32.947  10.543
76338W        W35599   1.818  25.189   3.323
76339W        W35600  30.928  29.148   2.354
76340W        W35601  41.419  22.549   2.338
76341W        W35602  36.044  19.634  10.558
76342W        W35603   0.366   3.924   2.316
76343W        W35604  28.568  21.150  13.889
76344W        W35605  13.229  21.227   5.220
76345W        W35606  10.782   5.748  11.995
76346W        W35607  22.223  42.963  13.866
76347W        W35608  22.068  11.860   2.286
76348W        W35609  40.478  41.912  11.500
76349W        W35610   6.718  28.510   1.846
76350W        W35611  36.884  40.979   4.158
76351W        W35612  13.605   7.261   2.327
76352W        W35613  29.440  14.807   0.270
76353W        W35614  25.207  27.075  13.333
76354W        W35615  36.565   8.286  10.425
76355W        W35616   6.318  41.827  14.377
76356W        W35617  22.708  18.094  13.824
76357W        W35618   6.391  41.328   3.854
76358W        W35619  10.158  19.142   1.401
76359W        W35620   2.965  17.605   4.651
76360W        W35621  44.391  36.397  12.387
76361W        W35622  43.007  24.189  10.951
76362W        W35623  18.251  29.458  13.812
76363W        W35624   6.224  44.278  11.879
76364W        W35625  13.345   0.340  11.474
76365W        W35626   2.235  22.177   3.799
76366W        W35627  31.430  32.591  11.027
76367W        W35628  20.144  37.536   3.371
76368W        W35629  30.491  17.729  11.462
76369W        W35630  14.629  43.510   2.754
76370W        W35631  12.612  10.239   0.754
76371W        W35632  16.172  41.441  13.974
76372W        W35633   7.193   9.166   0.794
76373W        W35634   8.783  24.084   3.219
76374W        W35635  25.152  32.402   3.702
76375W        W35636  28.628  21.230   2.787
76376W        W35637  12.769   5.877   0.867
76377W        W35638  42.439  43.806  12.546
76378W        W35639  21.045   6.893   1.928
76379W        W35640  22.560  12.330   0.934
76380W        W35641  39.406  12.672   4.265
76381W        W35642  40.547  21.233  11.983
76382W        W35643  30.987  16.651  13.513
76383W        W35644  36.498  39.435   3.750
76384W        W35645   8.327  11.222  12.090
76385W        W35646  25.080  37.466   5.222
76386W        W35647  44.453  25.062  11.568
76387W        W35648  20.238  26.644   1.909
76388W        W35649  25.212  18.557  10.591
76389W        W35650  25.498  10.803  14.844
76390W        W35651  16.111  26.469   2.196
76391W        W35652  42.317   1.450  13.893
76392W        W35653  33.077  21.247  10.618
76393W        W35654  18.648  17.149  13.406
76394W        W35655   8.404  33.455  12.827
76395W        W35656  17.161   7.302   5.267
76396W        W35657   4.255  42.876   0.949
76397W        W35658  17.797  20.101  12.992
76398W        W35659   8.240  40.358   0.808
76399W        W35660   6.829  25.710  13.006
76400W        W35661   2.861   8.720  13.406
76401W        W35662  42.526  26.584   1.839
76402W        W35663  34.383  12.664  10.939
76403W        W35664  28.126   4.824  12.855
76404W        W35665  30.531  33.594   0.414
76405W        W35666  39.906  40.498   3.825
76406W        W35667  33.976  18.771   1.388
76407W        W35668  41.345  18.208  11.892
76408W        W35669  28.019   3.271  14.427
76409W        W35670  40.379  35.937   1.295
76410W        W35671  19.647  41.965  10.469
76411W        W35672  20.725  13.281   0.469
76412W        W35673   4.274  22.051  13.436
76413W        W35674  29.091   6.863  13.924
76414W        W35675  38.459  43.786   4.265
76415W        W35676   5.700  28.468  10.612
76416W        W35677  12.251   3.761  14.981
76417W        W35678  37.034  38.053   0.280
76418W        W35679  12.668  42.006   4.835
76419W        W35680  19.554  20.608   3.303
76420W        W35681  18.746  33.925  12.389
76421W        W35682  44.976   3.940   1.417
76422W        W35683   9.884   5.193   2.696
76423W        W35684  18.059  16.741  14.348
76424W        W35685  20.264  39.823  11.003
76425W        W35686  37.867   8.164  10.407
76426W        W35687  39.540  36.393   3.370
76427W        W35688   0.413  24.670  14.841
76428W        W35689  38.432  42.816   0.420
76429W        W35690   5.328  15.297  11.123
76430W        W35691  16.680  31.423  13.897
76431W        W35692  15.087  19.164   1.721
76432W        W35693  36.939   9.338  11.027
76433W        W35694  41.348  12.297   0.929
76434W        W35695  24.618  34.918   1.434
76435W        W35696  40.834  44.390   1.907
76436W        W35697  20.274   9.248  12.406
76437W        W35698  30.095  44.308   2.248
76438W        W35699  37.854  20.071   3.870
76439W        W35700  15.146  25.174  13.514
76440W        W35701  13.157  30.124   3.747
76441W        W35702   9.376  34.498   4.298
76442W        W35703  16.667  14.211   3.663
76443W        W35704  31.633   5.888   4.691
76444W        W35705  24.122   0.887  14.929
76445W        W35706  35.043  13.668   1.325
76446W        W35707  39.355   7.244  10.546
76447W        W35708  33.933   2.905  11.920
76448W        W35709  22.627  29.484   4.763
76449W        W35710   7.382  23.692   0.892
76450W        W35711   8.727  13.160  12.348
76451W        W35712   5.862  11.824   4.802
76452W        W35713   2.802  44.259   4.119
76453W        W35714  20.030  15.136  12.344
76454W        W35715  36.379   0.837  13.391
76455W        W35716  20.683  23.707  13.040
76456W        W35717  18.568  35.483  13.531
76457W        W35718  26.101  34.526  12.520
76458W        W35719  41.936  31.428  10.450
76459W        W35720  40.544  19.746  13.032
76460W        W35721   2.361   0.963   2.415
76461W        W35722  17.727  20.643   0.457
76462W        W35723  31.598  23.120   0.269
76463W        W35724   9.821  33.043   0.767
76464W        W35725  33.984  40.853   5.714
76465W        W35726  43.483   4.801  11.870
76466W        W35727   2.353  32.402   4.321
76467W        W35728   4.841  23.095   4.139
76468W        W35729  40.449  28.458  14.358
76469W        W35730  30.586  33.623  13.951
76470W        W35731  25.017  32.469  14.020
76471W        W35732  30.557  18.596   1.925
76472W        W35733  18.292  20.183  11.884
76473W        W35734  15.293   3.400   0.476
76474W        W35735   7.211  41.912   1.262
76475W        W35736  16.805   8.680  13.449
76476W        W35737  31.537   5.827   3.345
76477W        W35738  40.987  22.586  11.040
76478W        W35739  39.913  19.625  10.475
76479W        W35740  21.173   0.920   4.652
76480W        W35741   2.785  17.565  12.072
76481W        W35742  44.912  13.320   2.194
76482W        W35743  39.380  24.993   1.371
76483W        W35744   0.386  17.176   1.763
76484W        W35745  17.200   3.761   0.919
76485W        W35746  13.609  10.798  14.293
76486W        W35747  14.713  38.531  10.540
76487W        W35748  38.527  23.695  10.894
76488W        W35749  35.969  17.701  12.062
76489W        W35750   2.784  13.194   3.379
76490W        W35751  38.484  21.129   0.370
76491W        W35752  15.248  29.963   1.289
76492W        W35753   1.363  34.898  10.958
76493W        W35754  38.863  13.164  12.527
76494W        W35755  16.261  18.211   0.322
76495W        W35756  20.545  30.986  12.883
76496W        W35757  37.959  20.643  14.889
76497W        W35758  20.153  13.805  14.352
76498W        W35759  20.040  35.858   0.933
76499W        W35760   9.162  40.868   3.669
76500W        W35761  24.993  30.578   3.331
76501W        W35762   7.321  21.050   0.728
76502W        W35763  38.528  16.805   2.342
76503W        W35764  37.360  17.189  10.913
76504W        W35765  38.916  14.216   0.384
76505W        W35766   0.817  18.263  14.008
76506W        W35767  28.591   0.298   3.149
76507W        W35768  26.190   0.927   1.785
76508W        W35769   1.461  16.808  13.419
76509W        W35770  11.314  11.150   3.172
76510W        W35771  30.001  38.529   4.237
76511W        W35772  24.040  16.156   0.313
76512W        W35773  37.914  23.989   0.824
76513W        W35774  14.115   8.396  12.447
76514W        W35775  37.029   4.205   3.715
76515W        W35776  17.232  41.451   5.295
76516W        W35777   5.265  33.626  12.559
76517W        W35778   2.246   5.422   3.187
76518W        W35779  10.873   1.384  13.028
76519W        W35780   2.919  29.518   1.340
76520W        W35781  32.541  41.494  11.961
76521W        W35782  35.940  18.233   4.213
76522W        W35783  14.190   3.797   1.331
76523W        W35784  31.973   7.726   0.956
76524W        W35785   9.697  18.636   2.663
76525W        W35786  30.555  30.908   4.785
76526W        W35787  19.655  36.493   2.740
76527W        W35788  37.565  37.402   0.732
76528W        W35789   3.860   4.753  13.802
76529W        W35790  16.286  23.569   1.407
76530W        W35791  32.434   4.324  10.638
76531W        W35792   0.313  28.489   4.322
76532W        W35793  28.471  14.110  10.928
76533W        W35794  43.453   3.265  14.989
76534W        W35795  10.808  39.380   3.714
76535W        W35796  30.594  25.667  10.632
76536W        W35797  44.389  24.098   3.744
76537W        W35798  34.961  11.181  13.487
76538W        W35799   4.424   2.765   0.821
76539W        W35800   7.895  22.656   2.365
76540W        W35801  40.992  21.529  14.908
76541W        W35802  13.768  25.978  14.819
76542W        W35803  35.482  29.001  12.010
76543W        W35804  25.531  31.091   0.383
76544W        W35805  23.558  24.220   9.675
76545W        W35806   7.754  32.087   0.744
76546W        W35807  28.057  17.072   3.180
76547W        W35808   9.854  33.948   4.690
76548W        W35809  32.556   0.391  11.078
76549W        W35810   7.371   7.753   5.566
76550W        W35811  22.704   0.956   0.816
76551W        W35812  30.655  22.576  13.795
76552W        W35813  42.391  26.010   4.351
76553W        W35814  10.308  44.389   2.309
76554W        W35815  24.077  38.836   0.942
76555W        W35816  29.937   0.809   1.870
76556W        W35817   8.658  28.159  14.029
76557W        W35818  37.041   0.417   2.854
76558W        W35819  19.627   2.956   0.331
76559W        W35820  40.952  36.071   2.272
76560W        W35821  38.915   3.783   3.800
76561W        W35822   3.253   6.207  12.079
76562W        W35823  17.761  18.268  14.485
76563W        W35824  32.578  35.452  10.094
76564W        W35825   6.262  33.556  11.008
76565W        W35826   3.890  31.974  11.060
76566W        W35827   4.734   8.332   0.770
76567W        W35828   5.361   2.318  13.367
76568W        W35829  24.104  24.206   1.796
76569W        W35830   6.301   3.387  10.519
76570W        W35831  34.402  18.209   0.783
76571W        W35832  15.295  32.032   2.804
76572W        W35833  20.746   6.692   1.802
76573W        W35834  11.343  42.477   1.257
76574W        W35835   8.729  32.905  11.948
76575W        W35836  41.851  36.382  13.813
76576W        W35837  29.919   1.302   0.913
76577W        W35838  14.797  30.084  14.811
76578W        W35839  11.763  28.462   4.337
76579W        W35840  29.431  33.433   0.901
76580W        W35841  37.959  17.137  14.354
76581W        W35842   3.911  25.055   1.260
76582W        W35843  25.135  23.676   4.114
76583W        W35844  13.607  24.045  11.093
76584W        W35845   0.488   1.347  13.992
76585W        W35846  39.995  19.169   4.129
76586W        W35847   6.315  42.787   0.369
76587W        W35848  19.084  23.992   0.928
76588W        W35849  38.391   0.870  12.834
76589W        W35850  30.542   1.901  10.591
76590W        W35851  40.438  35.582  12.089
76591W        W35852  34.569  31.926   4.743
76592W        W35853  19.576  23.593  12.092
76593W        W35854  29.656  33.462  12.828
76594W        W35855  15.092   7.884   2.776
76595W        W35856  32.014   1.851   1.839
76596W        W35857  33.052  42.370  13.452
76597W        W35858  43.920  31.915  14.396
76598W        W35859  43.292  10.637  14.826
76599W        W35860  39.318  13.327  10.537
76600W        W35861   0.786  19.079   2.794
76601W        W35862   1.269  14.820  11.424
76602W        W35863  28.136  15.590  14.353
76603W        W35864  43.956  38.352  10.892
76604W        W35865  34.413   4.809   4.615
76605W        W35866  38.335  37.867  14.842
76606W        W35867  15.775  18.099   0.438
76607W        W35868  31.485  38.437   3.322
76608W        W35869  44.829  16.731  12.356
76609W        W35870  18.713  13.815  13.931
76610W        W35871  18.106  30.914   5.585
76611W        W35872  16.098   5.294  12.918
76612W        W35873  18.077  28.944  10.010
76613W        W35874  20.621  22.228  13.523
76614W        W35875  20.590   3.317   0.435
76615W        W35876   0.466  19.681  14.421
76616W        W35877   7.392  26.131   3.635
76617W        W35878  23.207  40.005   1.274
76618W        W35879  28.955   1.866   1.394
76619W        W35880  15.743   7.233  10.000
76620W        W35881  29.467  37.921  12.963
76621W        W35882  32.461  41.797  13.841
76622W        W35883  16.591  23.544   3.836
76623W        W35884  24.539  10.263  14.275
76624W        W35885  33.874  38.900  10.421
76625W        W35886  36.930   7.849   1.378
76626W        W35887   0.861  30.646   3.331
76627W        W35888  30.514  22.675  14.831
76628W        W35889  44.337   8.783   0.335
76629W        W35890  15.818  34.021  14.498
76630W        W35891  25.653  28.967   2.356
76631W        W35892  10.167  28.006   2.773
76632W        W35893  37.564  31.994  12.417
76633W        W35894  42.491   1.864  11.468
76634W        W35895   4.288   0.769  12.547
76635W        W35896  15.664  33.974   3.373
76636W        W35897  14.781  32.960   0.751
76637W        W35898  30.006  30.530  11.021
76638W        W35899  29.984  30.512   0.273
76639W        W35900  34.385  42.937  12.394
76640W        W35901  29.559  29.068  14.842
76641W        W35902   7.396  14.624  11.032
76642W        W35903  28.136  23.100  12.414
76643W        W35904  27.583  34.049  13.041
76644W        W35905   9.715  29.042  12.461
76645W        W35906  29.522  31.957  10.978
76646W        W35907  21.729  19.604   1.816
76647W        W35908  40.972   8.405   2.784
76648W        W35909  37.396  17.113   0.946
76649W        W35910  40.528  10.863   3.355
76650W        W35911  42.284  32.432   0.745
76651W        W35912  17.622   7.197  13.388
76652W        W35913  40.544  35.976   9.995
76653W        W35914  36.878  22.738  13.319
76654W        W35915  22.674  16.124  13.898
76655W        W35916  24.563  42.296  12.856
76656W        W35917  24.719  42.878   1.227
76657W        W35918  30.597  22.099  14.350
76658W        W35919  20.549  36.582   0.479
76659W        W35920  36.976  21.214  11.468
76660W        W35921  36.001  24.492   0.336
76661W        W35922  26.683  13.179  11.991
76662W        W35923  25.622  14.304   1.775
76663W        W35924  25.109   4.428  13.948
76664W        W35925  23.493  39.316  11.930
76665W        W35926   0.742  44.388  10.143
76666W        W35927  37.934  11.363   2.840
76667W        W35928  41.366  15.688  11.967
76668W        W35929  39.980  36.555  14.891
76669W        W35930  35.040  20.731  14.815
76670W        W35931  26.086  42.022  11.522
76671W        W35932  19.142   5.246   0.950
76672W        W35933   5.817  32.071  12.405
76673W        W35934  38.455  30.976  11.957
76674W        W35935   4.751  16.743   4.128
76675W        W35936  23.583  35.951   0.857
76676W        W35937  40.494  14.735  11.060
76677W        W35938  12.339  31.514  12.503
76678W        W35939   9.752  12.329  14.284
76679W        W35940   1.863  37.485  13.799
76680W        W35941   6.919   4.894   0.933
76681W        W35942  42.451  14.777  14.343
76682W        W35943  23.120   8.290   0.268
76683W        W35944  39.058   1.242  13.459
76684W        W35945  30.459  14.618   1.358
76685W        W35946  16.751   7.191  12.861
76686W        W35947  38.852   9.833   4.149
76687W        W35948   8.668  29.173  13.401
76688W        W35949  19.215   1.356   3.868
76689W        W35950  23.038  41.029   4.308
76690W        W35951   4.331  31.639   1.337
76691W        W35952  41.350  21.608  14.414
76692W        W35953  28.030  17.629   0.377
76693W        W35954   5.296   9.759   1.413
76694W        W35955  29.067  14.640   0.745
76695W        W35956  14.106  42.985  13.948
76696W        W35957  33.009  11.285  13.496
76697W        W35958  16.190  32.026   3.766
76698W        W35959  21.661   5.867  11.539
76699W        W35960  24.517  41.492   2.900
76700W        W35961  15.311  40.811  14.843
76701W        W35962  15.736   0.454  11.093
76702W        W35963  14.137  28.571  12.433
76703W        W35964  27.650   4.840   4.196
76704W        W35965   6.841  18.203   4.836
76705W        W35966  40.484  34.021  10.140
76706W        W35967  20.608  22.012   1.728
76707W        W35968  36.914  11.666  13.964
76708W        W35969  44.995  40.464   0.249
76709W        W35970  18.575  11.725  12.892
76710W        W35971  17.656  24.036  10.016
76711W        W35972  34.372  34.916  13.040
76712W        W35973  11.303  17.765  10.552
76713W        W35974  33.093   5.434   4.685
76714W        W35975  38.327  31.453   3.841
76715W        W35976   5.211   5.375   0.320
76716W        W35977  39.830  38.466  13.524
76717W        W35978  17.258  23.725  12.574
76718W        W35979  28.593  34.453  14.487
76719W        W35980  34.941   5.768   3.240
76720W        W35981  22.742  13.287   0.868
76721W        W35982  24.993  10.287   0.847
76722W        W35983  19.226   4.880  11.577
76723W        W35984  32.101  40.540   1.813
76724W        W35985  41.533  13.777  14.491
76725W        W35986  30.585   0.962  14.375
76726W        W35987  30.000   2.284   3.203
76727W        W35988  30.009  43.274   2.416
76728W        W35989  34.024  23.531   0.768
76729W        W35990  33.972  18.679  13.010
76730W        W35991   6.427  23.560   3.267
76731W        W35992  21.585  10.770   3.814
76732W        W35993   6.822  28.125  12.407
76733W        W35994  14.609  18.584   1.265
76734W        W35995   8.350   9.232  11.483
76735W        W35996  14.806  41.487  11.418
76736W        W35997  41.299  28.132  14.891
76737W        W35998  15.674  34.987  12.828
76738W        W35999  16.098  30.993   4.606
76739W        W36000  40.466  32.592   0.314
76740W        W36001   7.181  35.579  14.500
76741W        W36002  35.075  30.425   4.721
76742W        W36003  36.023  32.030   2.356
76743W        W36004   8.289   7.214   1.435
76744W        W36005  41.969   6.419   1.827
76745W        W36006  31.034   2.442  11.604
76746W        W36007  28.180  16.235  14.813
76747W        W36008  28.546  16.164  11.116
76748W        W36009  10.747  44.491  14.331
76749W        W36010  15.721  16.185  11.483
76750W        W36011  25.029  41.863   5.246
76751W        W36012   5.310   8.834  13.889
76752W        W36013  19.762   1.363   0.868
76753W        W36014   8.752  19.725  11.390
76754W        W36015  33.462  12.658  14.925
76755W        W36016  19.115  27.573  11.542
76756W        W36017  44.393  41.305  12.029
76757W        W36018  25.070   6.917   4.124
76758W        W36019   6.911  15.641  10.998
76759W        W36020   6.253  37.488  10.062
76760W        W36021   8.806   2.411   3.294
76761W        W36022  39.979  44.455  10.422
76762W        W36023  25.024  44.813   1.907
76763W        W36024  23.123   0.342   0.401
76764W        W36025   0.281   5.887  11.383
76765W        W36026  18.103   9.821   2.688
76766W        W36027  40.985  16.169  10.424
76767W        W36028  33.006  16.138   5.805
76768W        W36029   1.955   5.255   0.284
76769W        W36030  15.286   1.397   4.733
76770W        W36031  13.107  26.686   4.321
76771W        W36032   2.283  14.316  11.422
76772W        W36033  34.535  26.497   4.265
76773W        W36034  21.262   5.369   4.755
76774W        W36035  10.751   6.243  13.417
76775W        W36036   5.376   6.401  11.909
76776W        W36037  20.557  24.710   4.659
76777W        W36038  33.891   4.833   1.244
76778W        W36039  44.416  14.187   0.837
76779W        W36040  24.085   6.370  14.848
76780W        W36041   7.743  17.618   0.843
76781W        W36042   4.811  22.590  13.840
76782W        W36043  38.944  43.382  14.386
76783W        W36044  12.296  30.493  12.973
76784W        W36045  19.134   8.337  12.454
76785W        W36046   2.832   4.898   1.350
76786W        W36047  25.686  36.386  13.977
76787W        W36048   8.376  41.384  11.449
76788W        W36049   8.215  29.658   4.744
76789W        W36050  29.105  17.102  14.005
76790W        W36051   5.819   6.841  14.786
76791W        W36052  20.132  22.061  12.995
76792W        W36053  17.747  10.265  13.382
76793W        W36054  29.666  16.145   1.349
76794W        W36055   9.827   6.271  13.374
76795W        W36056  37.915  27.178  12.056
76796W        W36057  11.684  39.449  10.598
76797W        W36058  24.540  35.567   4.298
76798W        W36059  40.475  38.501   4.602
76799W        W36060   4.244  36.532   3.365
76800W        W36061  19.120   7.832  14.335
76801W        W36062  42.485  28.055  11.065
76802W        W36063  25.660  22.212  12.943
76803W        W36064  27.630  34.918   3.660
76804W        W36065  30.458  36.969   4.672
76805W        W36066  16.755  22.553   4.310
76806W        W36067   9.318  13.645   5.087
76807W        W36068  33.877  14.288   3.280
76808W        W36069  40.437  36.980  14.511
76809W        W36070  22.618  31.151  13.541
76810W        W36071   9.367   8.332   4.664
76811W        W36072  28.604  40.325  12.842
76812W        W36073  20.125  36.013  10.551
76813W        W36074  26.089   0.818   2.309
76814W        W36075   3.945  19.624  14.986
76815W        W36076   4.744  30.475  10.562
76816W        W36077   4.810  38.842  12.506
76817W        W36078   4.862  13.774  11.548
76818W        W36079   5.919  38.383   1.694
76819W        W36080  34.582   5.851   3.659
76820W        W36081   1.350  28.106  11.117
76821W        W36082   1.832   4.329  13.931
76822W        W36083  12.273  17.650   1.700
76823W        W36084   9.747  10.683   0.277
76824W        W36085  21.642  27.963   0.866
76825W        W36086  29.535  20.232   1.840
76826W        W36087  11.243  18.061  12.052
76827W        W36088  40.454  23.140   2.824
76828W        W36089  22.720  12.336   2.287
76829W        W36090  10.278  27.578  12.451
76830W        W36091   6.349   6.223  11.936
76831W        W36092  25.605   9.350  14.946
76832W        W36093  25.548   8.788  10.439
76833W        W36094  19.260  35.882  11.547
76834W        W36095  14.661  14.102   1.920
76835W        W36096   1.470  21.748  14.785
76836W        W36097  38.460  36.962   2.188
76837W        W36098  14.807  18.271   4.145
76838W        W36099   1.900  28.569   3.152
76839W        W36100  15.727  33.970  12.359
76840W        W36101  23.107  38.542   2.864
76841W        W36102  41.441   6.349   2.741
76842W        W36103   7.684  43.988   1.356
76843W        W36104  13.622  32.501   1.900
76844W        W36105  38.515  38.485  14.413
76845W        W36106  26.078  15.775  10.469
76846W        W36107  23.654   7.678  14.029
76847W        W36108  36.475  38.009   0.944
76848W        W36109   3.836  27.974   2.897
76849W        W36110   0.769  43.415  12.900
76850W        W36111  26.555   0.833  11.855
76851W        W36112   9.173  11.356   1.349
76852W        W36113   3.431  32.132  11.071
76853W        W36114  28.025  33.583  11.406
76854W        W36115  13.686  44.913   3.680
76855W        W36116  31.489  44.887   1.893
76856W        W36117  44.840  44.764   4.667
76857W        W36118  32.900  40.325   1.784
76858W        W36119  38.933  29.602   0.737
76859W        W36120   5.263  29.473  11.492
76860W        W36121  21.694  29.960  12.989
76861W        W36122  17.694  33.968  14.373
76862W        W36123  42.959  36.440  12.481
76863W        W36124  36.878  36.538  14.369
76864W        W36125  39.987  27.670  12.063
76865W        W36126  25.500  12.274   4.347
76866W        W36127  18.549  38.445   2.714
76867W        W36128  27.019  14.627  11.922
76868W        W36129  32.026   7.798   5.315
76869W        W36130  38.006  22.205   4.291
76870W        W36131  17.306  21.599  12.823
76871W        W36132  35.410  28.514  11.997
76872W        W36133  10.873  19.748   1.739
76873W        W36134  11.159  29.065   3.281
76874W        W36135  34.976  31.952  12.830
76875W        W36136  42.397  12.683   3.864
76876W        W36137   7.174  32.552  10.933
76877W        W36138  15.619  32.026  11.127
76878W        W36139  21.175   5.303  14.452
76879W        W36140   4.802  37.938   4.187
76880W        W36141  40.370  31.635   3.747
76881W        W36142  19.634   3.890  12.562
76882W        W36143  37.857   5.349   0.332
76883W        W36144  33.476  12.171  10.523
76884W        W36145  23.695   3.330  11.497
76885W        W36146  29.074  29.560   4.799
76886W        W36147   6.883  23.083   2.403
76887W        W36148  21.654   4.759  10.446
76888W        W36149  32.552  25.189  10.522
76889W        W36150   5.419   7.244   5.636
76890W        W36151   3.406  38.534  11.867
76891W        W36152  37.972  22.640   1.731
76892W        W36153  30.615  26.112   2.244
76893W        W36154  25.708   7.688   0.886
76894W        W36155  43.377  16.254  14.020
76895W        W36156  36.551  17.105  10.944
76896W        W36157   8.281  43.928   3.650
76897W        W36158  35.430   5.435  13.840
76898W        W36159  38.505  43.884   3.706
76899W        W36160  42.904  12.695   0.874
76900W        W36161   0.878  24.541  11.609
76901W        W36162  17.666   6.843   0.948
76902W        W36163   0.951   7.203  14.280
76903W        W36164  43.314  44.986  12.468
76904W        W36165  40.803  42.384   4.821
76905W        W36166  28.112   8.217  11.459
76906W        W36167  40.336  35.907   4.339
76907W        W36168  37.867   4.240   0.246
76908W        W36169   6.384  31.097  13.031
76909W        W36170  39.544   1.857   0.288
76910W        W36171  44.818  14.330   1.760
76911W        W36172  26.029   7.325  14.904
76912W        W36173  23.063   0.274  10.554
76913W        W36174  38.017  23.180  11.446
76914W        W36175  31.630  42.955  12.034
76915W        W36176   4.754  43.836   0.922
76916W        W36177   2.426  39.436   3.287
76917W        W36178  23.184  31.620  10.615
76918W        W36179   2.284  43.334   4.674
76919W        W36180  44.880  26.525   3.196
76920W        W36181  24.521  37.030  13.858
76921W        W36182  24.147  41.019  13.900
76922W        W36183  38.426  41.398   0.409
76923W        W36184  40.865  34.079  10.929
76924W        W36185  25.509   9.825  12.883
76925W        W36186  34.866   3.954   3.752
76926W        W36187  42.790  22.008   3.782
76927W        W36188   1.315  24.168   3.780
76928W        W36189  29.145  29.558  10.592
76929W        W36190  34.042  27.575  11.019
76930W        W36191  32.100  44.906   1.922
76931W        W36192  39.057  40.430  12.935
76932W        W36193  41.498  36.411   0.315
76933W        W36194   2.844  40.807   2.803
76934W        W36195  30.140  41.016  14.284
76935W        W36196  33.982  38.334  13.015
76936W        W36197  12.706  25.114   1.258
76937W        W36198   6.260  29.973  13.031
76938W        W36199   8.274  35.506   3.206
76939W        W36200  23.684  17.262  13.529
76940W        W36201   6.709   2.289  14.964
76941W        W36202  31.963   2.276   1.931
76942W        W36203  15.176  19.140  13.885
76943W        W36204  32.440   8.720  11.894
76944W        W36205   0.977  24.025   2.244
76945W        W36206   9.861   8.849   1.440
76946W        W36207  19.585  42.327  11.575
76947W        W36208  31.569  34.403   2.300
76948W        W36209  21.538   0.952  11.497
76949W        W36210  11.305  15.250  13.977
76950W        W36211   2.360   4.752   0.391
76951W        W36212  17.735  38.051   2.675
76952W        W36213  29.144   9.198   2.839
76953W        W36214  35.599   3.746  11.534
76954W        W36215  28.568  25.167  11.873
76955W        W36216   7.342  34.038   4.815
76956W        W36217  28.095  23.040  14.006
76957W        W36218  17.307  41.953   1.247
76958W        W36219  41.501  13.235  14.305
76959W        W36220  33.475   6.906  11.008
76960W        W36221  22.025   3.817   3.369
76961W        W36222  39.407  28.985  14.954
76962W        W36223  35.425  14.703  13.485
76963W        W36224  11.811  37.051   0.436
76964W        W36225  38.381  23.004   1.249
76965W        W36226  38.404  13.251   3.736
76966W        W36227  35.011  31.634  11.459
76967W        W36228   8.839  28.150  10.623
76968W        W36229  41.790   8.784  10.126
76969W        W36230  29.454  14.324  12.464
76970W        W36231  11.688  43.442   4.329
76971W        W36232   9.744   1.932  14.957
76972W        W36233  32.921  44.813  12.348
76973W        W36234  37.965  42.446  12.895
76974W        W36235  28.458  42.965   5.232
76975W        W36236  24.669   4.211   4.672
76976W        W36237  35.068  29.636  11.072
76977W        W36238   2.745  31.046  13.978
76978W        W36239   1.433  30.570   4.196
76979W        W36240  43.968  39.416  12.488
76980W        W36241  42.430  15.256   2.184
76981W        W36242  16.142  20.590  13.346
76982W        W36243  24.033  19.140   2.708
76983W        W36244  39.484  38.035   4.311
76984W        W36245  28.014  23.994   2.196
76985W        W36246  15.770  31.573   2.827
76986W        W36247   6.738  21.228  12.460
76987W        W36248  11.644  27.607  12.427
76988W        W36249  12.705   3.767  12.960
76989W        W36250   0.251   4.733  10.458
76990W        W36251  26.983  23.120  12.936
76991W        W36252   1.862  37.498  11.976
76992W        W36253  27.011  17.284  10.149
76993W        W36254   3.845  25.982   0.857
76994W        W36255  15.287  43.474   2.263
76995W        W36256   9.760  34.914  11.578
76996W        W36257  18.137  15.644  14.985
76997W        W36258  19.255  21.697  13.865
76998W        W36259   9.251  13.624  10.901
76999W        W36260  19.758  35.555  12.089
77000W        W36261  18.699  23.545   1.865
77001W        W36262  29.019  35.416   2.832
77002W        W36263  44.363  24.668   4.234
77003W        W36264  39.472  15.739   3.761
77004W        W36265  19.534  44.503  11.101
77005W        W36266  17.633  15.775  10.528
77006W        W36267  38.393   3.712   2.194
77007W        W36268  44.473   6.828   1.273
77008W        W36269   0.770  30.501  13.377
77009W        W36270  15.752  26.471  10.500
77010W        W36271  33.080  10.819  11.937
77011W        W36272  21.596  26.139  13.489
77012W        W36273  35.056  37.445  12.916
77013W        W36274  19.557  14.329   3.821
77014W        W36275  15.220   4.356  11.479
77015W        W36276  33.568  36.558   0.335
77016W        W36277  21.115   6.399  13.311
77017W        W36278  18.753  33.054   3.360
77018W        W36279  41.987  30.624   2.899
77019W        W36280  20.528   6.398   3.869
77020W        W36281   1.299  23.626   4.709
77021W        W36282  18.656  32.937   2.835
77022W        W36283   5.696  20.121  14.003
77023W        W36284  33.532  35.031  11.874
77024W        W36285  31.905  38.023   1.708
77025W        W36286  16.673  26.632  11.607
77026W        W36287  24.019   0.429   2.811
77027W        W36288   1.959  13.712  13.060
77028W        W36289  26.985  32.588  11.542
77029W        W36290   9.249  12.626   4.758
77030W        W36291   5.315  17.739   3.678
77031W        W36292   6.405  25.606   3.847
77032W        W36293  14.331  10.817   1.236
77033W        W36294  30.502   9.358  10.910
77034W        W36295  13.212  14.750   1.804
77035W        W36296  41.489  27.110  12.414
77036W        W36297  41.424  23.111   0.373
77037W        W36298  29.590  24.529   3.153
77038W        W36299  22.997  34.608  13.023
77039W        W36300  38.326  25.609   3.191
77040W        W36301  38.541   3.258   2.207
77041W        W36302   9.653  33.487   2.828
77042W        W36303  31.014   7.239   3.272
77043W        W36304  43.367  18.117  12.045
77044W        W36305  30.060  16.723   2.354
77045W        W36306   3.406  44.937  10.554
77046W        W36307  33.887   3.459   0.340
77047W        W36308  11.295   1.943   4.231
77048W        W36309   4.417   9.271   2.334
77049W        W36310   7.788  14.607  13.967
77050W        W36311   4.721  14.758   3.761
77051W        W36312   7.281  11.233   1.347
77052W        W36313  26.510  26.008  10.089
77053W        W36314  33.916  38.983   1.418
77054W        W36315  18.592  44.788   4.210
77055W        W36316  34.481   2.923  12.518
77056W        W36317   5.754  23.129  13.045
77057W        W36318  13.263  14.202   3.290
77058W        W36319  29.636  24.565  12.093
77059W        W36320   7.870  15.153   4.803
77060W        W36321   8.899   7.883   3.199
77061W        W36322  43.813   6.835  14.283
77062W        W36323  35.486  11.230   1.274
77063W        W36324  34.970  33.126   1.804
77064W        W36325   9.183  40.390   0.432
77065W        W36326  13.737   4.280   1.217
77066W        W36327  15.677  38.426  14.311
77067W        W36328  43.316   6.730   1.799
77068W        W36329   4.804   4.725   0.963
77069W        W36330   9.359   7.900   1.299
77070W        W36331   4.350  20.663   4.805
77071W        W36332  36.905   9.701   3.694
77072W        W36333  28.574  21.660  10.434
77073W        W36334  29.966  14.664  11.441
77074W        W36335  17.090  41.477  13.805
77075W        W36336  17.756  16.105   1.797
77076W        W36337  15.664  19.642   2.835
77077W        W36338  36.442  33.556   1.873
77078W        W36339   3.352  32.010  11.561
77079W        W36340  31.608  18.784   4.317
77080W        W36341  31.944  42.384   0.389
77081W        W36342  25.012  14.714  11.384
77082W        W36343  20.030  24.181  11.030
77083W        W36344  18.100   6.740  11.908
77084W        W36345  33.578   7.267   2.742
77085W        W36346  19.069  34.099   0.900
77086W        W36347  32.431  44.975   0.268
77087W        W36348   6.246  19.140  14.453
77088W        W36349   0.301  17.628  12.474
77089W        W36350   2.446  31.522   0.364
77090W        W36351  22.043  35.975   4.655
77091W        W36352  44.008  34.509  11.460
77092W        W36353  29.569  15.148  11.020
77093W        W36354  38.836   1.476   4.728
77094W        W36355  24.177  22.641   0.948
77095W        W36356  27.046  13.231   0.382
77096W        W36357  19.051  42.884   5.137
77097W        W36358  33.449  43.422   3.835
77098W        W36359  18.167  43.768  11.071
77099W        W36360  20.612  22.165   2.757
77100W        W36361  10.640  17.604  11.547
77101W        W36362  38.331  30.490  14.873
77102W        W36363  19.655   8.199  13.008
77103W        W36364  21.537   7.403  10.908
77104W        W36365   1.768  15.741  12.064
77105W        W36366  32.531  44.761   5.128
77106W        W36367   3.945  12.743   4.662
77107W        W36368  27.048  24.625   0.467
77108W        W36369  14.228  23.718  14.413
77109W        W36370  16.221  32.472   3.157
77110W        W36371   9.798  40.544  13.923
77111W        W36372  11.172  35.983  11.983
77112W        W36373  36.896  23.115  13.059
77113W        W36374  29.110   1.790  12.357
77114W        W36375  33.589   3.772   0.281
77115W        W36376   8.228   4.816   1.451
77116W        W36377  40.864  15.737  10.428
77117W        W36378  43.865  44.299  15.000
77118W        W36379   6.682  32.006   0.948
77119W        W36380  15.778  26.488  14.452
77120W        W36381  40.991  40.827  10.404
77121W        W36382  13.708   4.828  12.029
77122W        W36383  19.191  43.490   2.239
77123W        W36384  43.890   6.278  14.912
77124W        W36385  17.257   7.701   4.228
77125W        W36386  39.028   6.792  12.494
77126W        W36387   8.325   0.460  11.561
77127W        W36388  24.194   1.465   4.239
77128W        W36389  44.874   0.451  11.578
77129W        W36390  36.963  33.422  11.065
77130W        W36391  42.956  20.274  11.089
77131W        W36392  15.269   7.224  14.969
77132W        W36393   5.404  10.724  12.993
77133W        W36394   0.829  42.859  10.485
77134W        W36395  43.329   8.890  12.005
77135W        W36396  30.103   2.450   2.334
77136W        W36397  13.227   4.927   0.788
77137W        W36398  17.079  27.041  13.466
77138W        W36399   8.665  39.521   4.116
77139W        W36400  44.285  40.856  10.561
77140W        W36401   4.877  30.082   2.694
77141W        W36402  12.193  38.345  11.530
77142W        W36403   1.406  16.229  11.428
77143W        W36404  11.167  35.492   0.431
77144W        W36405  43.765  21.055  11.567
77145W        W36406  33.034  37.350   2.409
77146W        W36407  28.510  19.223  13.465
77147W        W36408  27.044  41.355   2.714
77148W        W36409  14.130  25.600   2.752
77149W        W36410  23.635  26.089   0.469
77150W        W36411  22.014  21.047   1.776
77151W        W36412  16.811  29.937  14.469
77152W        W36413  25.068  33.604   4.283
77153W        W36414  18.115  44.968   2.295
77154W        W36415  18.248  32.041  14.809
77155W        W36416   0.266  15.609  14.431
77156W        W36417   5.780  42.001  10.548
77157W        W36418  30.078  32.497  10.938
77158W        W36419  19.157  11.773   4.817
77159W        W36420  25.214  35.444   0.845
77160W        W36421   4.772   5.838  13.307
77161W        W36422  20.749  38.360  11.571
77162W        W36423  11.258  10.265   4.665
77163W        W36424  42.853  15.694  10.621
77164W        W36425  13.612  35.953  13.912
77165W        W36426  37.046  24.564  13.908
77166W        W36427  43.340  44.309   1.902
77167W        W36428  17.582  17.656  14.373
77168W        W36429  22.010  39.402  12.909
77169W        W36430  13.730  27.993   1.318
77170W        W36431  34.007  20.067  11.948
77171W        W36432   1.387  29.423  13.498
77172W        W36433   1.325  27.451  14.884
77173W        W36434  43.783  29.097  13.315
77174W        W36435  14.124  11.257   5.228
77175W        W36436  10.709  33.020   1.414
77176W        W36437  29.592   5.822   4.144
77177W        W36438  29.963  30.155  10.405
77178W        W36439  31.042  10.808  11.536
77179W        W36440  35.862  32.524   4.807
77180W        W36441  44.765   6.830  12.450
77181W        W36442  19.266  20.735  11.522
77182W        W36443  33.006  28.481   2.267
77183W        W36444  29.154  33.936   9.597
77184W        W36445  24.225  37.500  11.417
77185W        W36446   5.352  35.393   4.222
77186W        W36447  29.027  23.632   2.768
77187W        W36448  25.620  32.548  14.916
77188W        W36449   3.916  36.045  11.123
77189W        W36450   7.234  16.673   2.386
77190W        W36451  22.603   0.327  10.000
77191W        W36452  37.068  32.076  10.027
77192W        W36453  39.465  21.571   2.394
77193W        W36454  27.685  29.538   2.261
77194W        W36455  31.147  16.637  11.600
77195W        W36456  39.558   6.411  12.421
77196W        W36457  29.446   5.335   2.262
77197W        W36458  19.647   0.451  12.033
77198W        W36459  38.892   2.357  10.141
77199W        W36460   8.200   5.793  12.347
77200W        W36461   7.686  32.470   2.867
77201W        W36462  39.897  38.883  10.548
77202W        W36463  38.469  34.428   1.905
77203W        W36464  30.556   2.472   1.260
77204W        W36465   2.377  40.962  12.872
77205W        W36466  14.816   6.682  10.412
77206W        W36467  16.276   1.272  13.446
77207W        W36468  37.557  25.550  13.392
77208W        W36469  25.144   4.349  13.346
77209W        W36470   3.763  33.422  13.474
77210W        W36471   4.440  32.468   3.683
77211W        W36472   7.261   4.933   0.744
77212W        W36473  10.663  41.537   0.807
77213W        W36474  26.464  40.315  14.308
77214W        W36475  12.255  23.631  13.324
77215W        W36476   3.276  38.975   0.442
77216W        W36477  12.280   2.453   1.829
77217W        W36478  42.311  22.652   1.857
77218W        W36479  16.240  36.446   3.212
77219W        W36480  30.631  35.601  12.076
77220W        W36481  33.048   0.287  12.357
77221W        W36482   1.872  40.327   2.233
77222W        W36483  35.070  15.760   3.852
77223W        W36484   4.428  24.076  14.414
77224W        W36485   9.293  34.579  10.631
77225W        W36486   1.863  17.645  14.515
77226W        W36487   9.770  18.286  14.303
77227W        W36488   7.347  10.242  14.775
77228W        W36489  15.103  33.907  14.976
77229W        W36490  41.367  26.518   1.709
77230W        W36491  30.040   0.384   4.782
77231W        W36492   7.216  24.489   3.228
77232W        W36493  39.053  19.767  10.537
77233W        W36494   4.281  14.824  14.472
77234W        W36495   1.758   4.740   2.191
77235W        W36496   5.786  44.975  12.580
77236W        W36497  25.042  17.751   2.772
77237W        W36498  42.519   0.781  10.927
77238W        W36499  10.312  38.368   2.332
77239W        W36500   2.795  36.969  10.550
77240W        W36501   0.977  22.588  11.997
77241W        W36502   7.702  12.705   1.420
77242W        W36503  24.543   6.296   1.329
77243W        W36504  23.168  23.544  10.627
77244W        W36505   0.970   4.785   2.809
77245W        W36506  37.969  44.892   3.330
77246W        W36507   8.273  31.068  10.915
77247W        W36508   3.230  16.801  11.894
77248W        W36509  25.519   8.397  13.386
77249W        W36510  28.980  31.009  12.483
77250W        W36511  19.712   0.482  10.123
77251W        W36512  17.713  35.047  12.853
77252W        W36513  10.366  14.620  14.424
77253W        W36514  33.516   5.371  11.929
77254W        W36515  19.712   8.380  11.597
77255W        W36516  44.393   3.292   4.246
77256W        W36517   4.235   3.428   4.604
77257W        W36518  40.317  25.528  11.865
77258W        W36519  38.482   0.895   3.676
77259W        W36520  30.108   6.855  13.431
77260W        W36521  43.380  29.577   4.249
77261W        W36522  25.569  19.182   2.682
77262W        W36523   7.849  43.944  11.018
77263W        W36524  39.049  16.294   2.803
77264W        W36525  19.072  32.437  10.496
77265W        W36526  19.219   6.702  14.019
77266W        W36527  17.114   8.894  14.982
77267W        W36528  31.079  22.615  14.759
77268W        W36529  24.187  24.572  13.473
77269W        W36530   6.208  38.499   2.179
77270W        W36531  36.477  40.000  13.473
77271W        W36532  20.730  30.051   4.317
77272W        W36533  34.957  23.085   3.377
77273W        W36534  13.220  35.933   9.989
77274W        W36535  13.316  21.614  10.895
77275W        W36536  20.760   4.235  13.895
77276W        W36537   3.865  11.853  10.982
77277W        W36538   7.175  15.775  10.050
77278W        W36539  38.468  19.593   2.850
77279W        W36540  16.587  44.921   0.337
77280W        W36541  27.157  12.757  11.506
77281W        W36542  24.153  21.188  10.465
77282W        W36543  36.079   6.327  10.404
77283W        W36544  27.130  12.814  12.904
77284W        W36545  31.069  25.518   4.678
77285W        W36546  34.446   3.353  12.515
77286W        W36547  19.230   4.384  11.884
77287W        W36548  14.678  12.360  13.309
77288W        W36549  36.904   6.250   0.420
77289W        W36550  21.624  16.281  11.011
77290W        W36551  15.730  32.952  11.598
77291W        W36552  21.088   2.878  13.351
77292W        W36553  36.027  41.505  13.456
77293W        W36554   8.227  31.412  14.444
77294W        W36555   6.341  13.212  11.523
77295W        W36556  15.763  37.919  11.052
77296W        W36557  39.859   9.390   1.824
77297W        W36558  39.350   7.203   4.821
77298W        W36559  23.150  42.969  10.905
77299W        W36560  36.438   2.471  11.970
77300W        W36561  31.151  40.812  12.524
77301W        W36562  43.282  38.928  13.803
77302W        W36563  15.583  41.395  14.513
77303W        W36564   1.856  25.545  12.458
77304W        W36565  32.101  25.203  12.428
77305W        W36566  43.926  42.374   1.379
77306W        W36567   2.315  29.455   1.925
77307W        W36568   5.919  33.429   4.248
77308W        W36569  21.755  17.233  11.996
77309W        W36570  34.537   7.759   0.765
77310W        W36571  17.607  33.948   0.775
77311W        W36572  32.053  28.071  12.402
77312W        W36573  40.346   6.365   1.873
77313W        W36574  26.107   4.430   0.436
77314W        W36575  43.930  24.703  14.836
77315W        W36576  30.007  38.978  10.025
77316W        W36577  41.877  38.447  10.404
77317W        W36578  35.527   8.314   4.718
77318W        W36579  26.647  16.157   3.808
77319W        W36580  22.656   6.391  12.009
77320W        W36581  20.564  30.043  10.141
77321W        W36582  43.385  22.514  11.860
77322W        W36583  23.676  33.547   1.786
77323W        W36584  12.156  30.004  11.387
77324W        W36585  35.877   1.908   2.331
77325W        W36586  27.552  37.414  14.479
77326W        W36587  30.626  14.123  11.449
77327W        W36588  10.355  13.254   9.583
77328W        W36589  25.065  37.957  13.363
77329W        W36590  24.598   9.341   1.796
77330W        W36591  16.805  20.661  12.563
77331W        W36592   8.705   6.827  13.955
77332W        W36593  43.977  23.176  13.921
77333W        W36594  27.446  43.427   0.850
77334W        W36595  11.840  13.153  11.029
77335W        W36596  18.296  15.112  13.480
77336W        W36597   6.335  20.098  13.530
77337W        W36598  13.219  22.583  10.912
77338W        W36599   4.805  11.747   5.305
77339W        W36600  20.564  41.506  14.874
77340W        W36601  36.469  39.402  14.781
77341W        W36602  26.598  33.131   9.974
77342W        W36603  10.309  41.856   4.243
77343W        W36604  22.689  33.528   1.272
77344W        W36605  31.084  22.057   4.155
77345W        W36606  38.557  35.908   4.266
77346W        W36607   4.370  28.651  11.017
77347W        W36608  20.169  30.514   2.676
77348W        W36609  29.550   0.985  10.104
77349W        W36610   8.782   5.817   2.793
77350W        W36611   6.828  17.299   1.907
77351W        W36612  23.010  44.493   2.319
77352W        W36613  42.791  41.022   3.732
77353W        W36614   3.948  24.169   3.184
77354W        W36615   7.889  44.974  13.949
77355W        W36616  20.233   8.809  12.548
77356W        W36617  38.037  15.280  10.888
77357W        W36618  30.426  16.794  12.861
77358W        W36619  36.876   2.447   4.715
77359W        W36620  14.296  37.078  13.335
77360W        W36621   1.356  27.450  12.394
77361W        W36622   8.860   0.937  14.431
77362W        W36623   3.252  43.377   0.347
77363W        W36624  22.141  28.637   3.699
77364W        W36625  15.609  38.899  10.489
77365W        W36626  43.868  44.385  10.588
77366W        W36627  27.084  18.640  13.942
77367W        W36628  22.082  29.974  12.859
77368W        W36629  21.230  17.650   1.393
77369W        W36630  18.107   2.833  10.555
77370W        W36631   2.336   7.356   0.763
77371W        W36632  27.984  10.829  11.587
77372W        W36633  12.158  12.178   3.226
77373W        W36634  26.520   0.771   5.216
77374W        W36635   5.271  27.619   1.335
77375W        W36636  36.926  43.766   1.731
77376W        W36637   5.794   7.256  11.901
77377W        W36638  23.725  35.418   2.191
77378W        W36639  38.407  40.369  11.862
77379W        W36640  43.943  15.701  13.486
77380W        W36641  20.526   1.389   2.761
77381W        W36642  11.203  16.222  14.341
77382W        W36643   3.455  19.597   0.435
77383W        W36644   7.874  33.514  11.955
77384W        W36645   9.363   7.411  10.948
77385W        W36646  21.706  35.034   2.745
77386W        W36647  37.336  43.013  11.466
77387W        W36648  18.135  42.027   2.368
77388W        W36649  43.452  11.199  10.567
77389W        W36650   6.751  17.294   1.322
77390W        W36651   2.309  29.107   1.349
77391W        W36652  18.565  17.257  11.612
77392W        W36653  33.614  30.036  14.502
77393W        W36654   3.402  43.293  11.862
77394W        W36655  27.109  38.403   0.283
77395W        W36656  42.922  19.146  12.044
77396W        W36657  19.680  37.977   2.854
77397W        W36658  31.526  14.785  13.820
77398W        W36659  25.694  24.601   4.646
77399W        W36660   9.255  37.485   4.117
77400W        W36661  30.438  36.548   3.362
77401W        W36662   9.816  23.057   4.675
77402W        W36663  12.669  16.299   0.867
77403W        W36664  38.890  41.341   3.287
77404W        W36665  11.647   9.171  10.943
77405W        W36666   5.737   6.690   3.350
77406W        W36667   6.406  42.299  10.480
77407W        W36668  19.768  29.521   1.375
77408W        W36669  10.668  12.725   1.237
77409W        W36670  22.535  40.897  10.584
77410W        W36671  21.118  13.819   1.706
77411W        W36672  11.791  15.770   4.702
77412W        W36673   8.744  36.393  13.923
77413W        W36674   6.907  17.764   0.318
77414W        W36675   0.987  18.687   0.793
77415W        W36676  18.580   1.358  14.342
77416W        W36677  42.465  29.478   3.306
77417W        W36678   6.792  11.285  12.560
77418W        W36679   2.272  33.556   0.304
77419W        W36680  36.031  30.570   1.446
77420W        W36681  40.945   8.871  10.455
77421W        W36682  29.661  35.502   1.746
77422W        W36683  25.010   8.227   2.314
77423W        W36684  38.855  44.828   3.755
77424W        W36685  15.702  32.575   1.815
77425W        W36686  36.389  16.646   2.183
77426W        W36687   9.300  35.513   3.674
77427W        W36688   1.373  44.394   1.856
77428W        W36689  26.145   3.401  10.612
77429W        W36690  22.639   5.755   1.362
77430W        W36691  43.789  20.582  13.983
77431W        W36692  14.699   3.388   1.362
77432W        W36693  42.001   1.775  10.045
77433W        W36694  34.480  27.097  11.503
77434W        W36695  44.397   6.834   3.641
77435W        W36696  32.985  44.358   1.325
77436W        W36697  25.635  18.626  10.580
77437W        W36698  33.959  42.863   4.611
77438W        W36699   7.847  27.646  11.018
77439W        W36700  16.634  19.674  14.275
77440W        W36701  31.596   3.894   3.250
77441W        W36702   4.237   3.803   3.280
77442W        W36703   2.262   3.424   1.297
77443W        W36704  14.181  26.643  12.459
77444W        W36705  36.881   9.266   2.223
77445W        W36706  43.456   1.342   1.863
77446W        W36707  23.171  11.238  12.832
77447W        W36708  27.642  28.439   1.234
77448W        W36709   2.400  39.025   2.741
77449W        W36710  11.729  38.446  14.032
77450W        W36711  39.026  42.408  14.392
77451W        W36712  41.807  14.716   1.933
77452W        W36713  32.424  39.497   3.813
77453W        W36714  29.026   6.186   4.734
77454W        W36715  24.683  36.431   1.305
77455W        W36716  44.975  11.630   0.839
77456W        W36717  33.434  19.629   0.469
77457W        W36718  35.574   9.770  10.432
77458W        W36719   1.940  24.124  13.531
77459W        W36720  44.796  14.751  13.454
77460W        W36721  36.909  24.980   4.778
77461W        W36722  20.046  42.786   0.870
77462W        W36723  20.583  13.329  14.335
77463W        W36724  33.874  39.497  11.468
77464W        W36725  31.535  25.672   0.391
77465W        W36726  15.732  22.025   0.831
77466W        W36727  36.526  13.213   3.857
77467W        W36728  23.056  34.935   3.289
77468W        W36729  23.183  44.397  13.400
77469W        W36730  43.016  19.549  13.491
77470W        W36731  33.907  29.038   4.626
77471W        W36732   6.853  14.329   4.634
77472W        W36733   9.321  40.450  10.541
77473W        W36734  31.983  24.198  14.316
77474W        W36735   4.333   9.752   1.935
77475W        W36736  26.617  20.540  14.984
77476W        W36737  25.153  23.059  12.876
77477W        W36738  22.045  23.014  11.007
77478W        W36739  41.338   9.779   2.815
77479W        W36740  13.611  36.060  11.954
77480W        W36741   4.705  41.993   0.268
77481W        W36742   3.448   3.771  12.458
77482W        W36743   6.841  20.108   0.365
77483W        W36744  21.167  37.506   3.849
77484W        W36745  34.083  21.628   0.346
77485W        W36746  36.523  32.527  11.495
77486W        W36747  16.790  15.699  12.088
77487W        W36748   2.793  31.601   0.760
77488W        W36749  26.650  29.607  14.371
77489W        W36750  22.118   9.239   4.167
77490W        W36751  39.904   5.838   4.258
77491W        W36752  15.308  41.347   3.152
77492W        W36753  42.846  32.944   2.273
77493W        W36754  17.562  11.710  11.937
77494W        W36755  19.642  12.209   4.188
77495W        W36756   2.427  18.599   4.724
77496W        W36757  39.969  44.259  12.360
77497W        W36758  22.511  30.657   1.761
77498W        W36759   7.910   8.768   9.501
77499W        W36760  42.011   4.845   1.359
77500W        W36761  14.756  25.588   0.260
77501W        W36762  26.477  21.042  11.502
77502W        W36763  10.326  21.139  11.542
77503W        W36764  17.122  10.168   2.287
77504W        W36765  23.999   2.846   4.808
77505W        W36766  23.058  22.245   5.614
77506W        W36767  28.482  30.044   2.236
77507W        W36768  30.020  21.052  10.965
77508W        W36769  10.322  43.881   2.358
77509W        W36770   2.749  37.418  14.382
77510W        W36771  14.183  15.136  13.493
77511W        W36772  41.979  11.630   1.722
77512W        W36773  32.041  19.546   4.793
77513W        W36774   2.350   9.723   9.580
77514W        W36775  10.348  27.577   3.748
77515W        W36776  35.420   8.810   4.200
77516W        W36777   7.228  37.550   2.275
77517W        W36778   0.477  25.049   1.404
77518W        W36779  39.892  21.147   0.764
77519W        W36780  41.405  43.989  13.948
77520W        W36781  37.894  42.803  14.449
77521W        W36782   3.258   5.351   2.296
77522W        W36783   5.800  26.962  11.075
77523W        W36784  34.038  11.364   1.738
77524W        W36785  42.420  26.116   0.362
77525W        W36786  29.585   8.681  12.872
77526W        W36787  39.487   4.270   4.132
77527W        W36788  42.964  42.987  11.041
77528W        W36789  38.959  11.706  11.482
77529W        W36790  10.308   8.284  11.043
77530W        W36791  31.983  24.024   5.253
77531W        W36792   0.481   7.753   3.255
77532W        W36793  28.485  24.549  11.438
77533W        W36794   0.370  19.152  12.451
77534W        W36795   5.732  21.185  14.308
77535W        W36796  22.644  41.299  11.395
77536W        W36797   0.949  29.669  13.442
77537W        W36798  36.916  42.444  14.415
77538W        W36799  23.717  34.968  12.063
77539W        W36800  10.732  28.481  11.606
77540W        W36801  42.787   0.841  10.547
77541W        W36802  17.569  11.299  11.566
77542W        W36803  39.841  11.641   2.817
77543W        W36804  42.281  43.482  11.013
77544W        W36805  43.848  27.994  12.343
77545W        W36806  31.933   8.849   1.755
77546W        W36807  28.659  10.723  10.889
77547W        W36808   7.671   6.428   2.688
77548W        W36809  27.592   5.304   1.916
77549W        W36810  23.139  31.540  10.972
77550W        W36811  19.260  32.399  14.971
77551W        W36812  13.840  29.653  14.459
77552W        W36813  11.865  36.383  11.561
77553W        W36814   2.789  41.962  13.962
77554W        W36815  34.457  30.575   4.597
77555W        W36816  19.277  42.970  11.414
77556W        W36817  11.159  37.481   1.919
77557W        W36818  33.046   9.301   4.165
77558W        W36819   5.367   7.752  13.999
77559W        W36820  42.356   2.731  14.811
77560W        W36821  36.097   0.447   0.823
77561W        W36822   6.899  36.481  10.588
77562W        W36823  44.755   2.849  14.769
77563W        W36824  25.040  20.184  12.059
77564W        W36825  43.277  44.895  11.500
77565W        W36826  37.005  28.440   0.266
77566W        W36827  20.269  16.268   1.856
77567W        W36828  31.538  27.509   4.649
77568W        W36829   9.727  13.820   3.759
77569W        W36830  22.125  36.859   2.250
77570W        W36831  29.084   9.872  14.880
77571W        W36832   5.919  33.940   0.783
77572W        W36833  20.153  26.016   1.315
77573W        W36834  16.133  13.834   3.365
77574W        W36835   2.953   7.366  10.445
77575W        W36836  34.878   3.389   2.400
77576W        W36837  43.496  21.512  11.568
77577W        W36838   8.225  19.221  13.931
77578W        W36839  41.992   8.726  14.477
77579W        W36840  44.941  34.383   0.314
77580W        W36841  30.427  16.641   3.371
77581W        W36842  29.485  26.655   2.733
77582W        W36843   0.290  38.489   4.700
77583W        W36844  22.249   7.841   3.275
77584W        W36845   3.710  24.167   1.799
77585W        W36846  30.613  23.708  11.435
77586W        W36847  25.649  20.572   2.408
77587W        W36848  35.535  35.905   1.396
77588W        W36849   5.810  27.464  11.388
77589W        W36850  23.089  38.347  13.453
77590W        W36851  32.019  32.904  12.501
77591W        W36852  29.007  37.526   2.815
77592W        W36853  36.553  20.537   1.830
77593W        W36854   6.284  19.055   0.910
77594W        W36855  23.012   6.321  10.562
77595W        W36856  31.925  24.026   3.864
77596W        W36857  30.998  18.611   0.483
77597W        W36858  35.404  14.190   0.947
77598W        W36859   2.863  18.612   4.154
77599W        W36860   5.194   5.361  13.001
77600W        W36861  31.535   5.419   3.835
77601W        W36862  17.790  24.521   3.773
77602W        W36863  16.095   9.340   2.710
77603W        W36864   2.309  36.530   0.460
77604W        W36865  20.192  32.915  12.460
77605W        W36866  40.381  23.223  11.433
77606W        W36867  34.517  18.094  14.776
77607W        W36868  32.418  14.754   2.223
77608W        W36869  21.221  20.140  11.885
77609W        W36870  18.583   6.286  13.523
77610W        W36871  31.519   4.221   2.296
77611W        W36872  44.307  38.504   4.239
77612W        W36873  16.713  42.324   4.254
77613W        W36874  15.274   8.335  13.513
77614W        W36875  35.943  11.188  10.478
77615W        W36876  31.017  41.323  12.943
77616W        W36877  10.736  15.129   1.823
77617W        W36878  24.170   1.477  11.578
77618W        W36879  33.002  28.026  12.918
77619W        W36880   0.809  21.256   5.220
77620W        W36881  35.966  37.342  10.622
77621W        W36882  17.687  39.334  12.063
77622W        W36883  16.308  23.552   3.853
77623W        W36884  14.606  18.193  12.937
77624W        W36885  34.567  35.076   2.282
77625W        W36886  27.655  24.569   2.194
77626W        W36887  35.388  39.453  12.418
77627W        W36888  11.175  24.684  10.465
77628W        W36889  18.237  36.043   4.278
77629W        W36890  39.896  36.844   1.358
77630W        W36891  44.391  32.911   0.926
77631W        W36892   0.787  13.776   2.238
77632W        W36893  14.643   9.208   3.251
77633W        W36894  13.695  24.676   1.370
77634W        W36895   1.417  26.060   2.824
77635W        W36896  19.074  43.407   3.348
77636W        W36897  14.335  31.606   4.134
77637W        W36898  25.591   1.911   3.773
77638W        W36899   9.306  23.053   1.351
77639W        W36900   8.680  10.252  11.085
77640W        W36901  28.074  21.162   0.767
77641W        W36902   5.287  31.051   4.628
77642W        W36903   1.357   5.779   1.440
77643W        W36904   4.788  18.151   3.205
77644W        W36905  14.746  41.977  10.519
77645W        W36906  41.027  38.342  10.553
77646W        W36907   7.867  15.122   1.846
77647W        W36908  29.544   6.206  11.486
77648W        W36909  24.231  26.139   1.923
77649W        W36910  43.375  28.511  13.526
77650W        W36911   1.759  27.615  12.519
77651W        W36912  11.145   8.360  13.488
77652W        W36913  37.367   6.907  13.458
77653W        W36914  38.465   2.355   0.398
77654W        W36915  16.156  16.689   3.350
77655W        W36916  13.815  33.000  12.977
77656W        W36917  20.174  23.727   4.792
77657W        W36918   5.300  41.331  14.943
77658W        W36919  13.806  20.689  14.818
77659W        W36920  22.190  24.611   4.178
77660W        W36921  15.211  22.535  12.523
77661W        W36922  24.055  39.809  12.000
77662W        W36923  42.933  42.967   3.869
77663W        W36924  17.275  31.458  10.404
77664W        W36925  22.549  16.281   4.261
77665W        W36926  15.262  17.705  12.002
77666W        W36927   9.769  28.672   2.412
77667W        W36928   8.690  19.089   4.789
77668W        W36929  19.126  43.967  10.446
77669W        W36930   9.328  17.798  13.944
77670W        W36931  27.447  15.769  11.926
77671W        W36932  18.712  19.578   0.771
77672W        W36933  38.988  42.872  11.062
77673W        W36934   9.818  34.597  14.866
77674W        W36935  36.926  42.301  13.867
77675W        W36936  20.536   5.740  13.373
77676W        W36937  17.148  25.022   3.166
77677W        W36938  21.177   5.898  13.324
77678W        W36939  10.637   1.398   3.733
77679W        W36940  24.002  23.701   0.257
77680W        W36941  26.082  15.122  14.289
77681W        W36942  13.325  16.699  11.989
77682W        W36943   2.965   5.807   1.819
77683W        W36944   0.361   7.688  11.394
77684W        W36945  21.749  31.622  11.470
77685W        W36946  13.785  43.316  14.991
77686W        W36947  27.050  28.119   3.783
77687W        W36948  15.601  19.568   9.972
77688W        W36949  18.171  11.770   3.155
77689W        W36950   4.734  33.875   4.633
77690W        W36951  41.453  16.581   2.895
77691W        W36952  29.637  18.052  12.401
77692W        W36953   7.758  20.766   2.372
77693W        W36954   9.228  19.043   1.426
77694W        W36955  21.523  44.774  14.977
77695W        W36956  11.835  32.066   0.425
77696W        W36957  27.644  44.872  13.044
77697W        W36958  28.627  23.698   1.704
77698W        W36959  40.856   2.323   3.727
77699W        W36960  17.713  26.004   4.130
77700W        W36961   4.271  22.178   3.713
77701W        W36962  23.078   3.301   2.183
77702W        W36963   9.761  32.414   4.130
77703W        W36964   5.397  28.534   3.817
77704W        W36965  31.591  28.602   3.711
77705W        W36966  19.704  43.498  12.019
77706W        W36967  27.467  15.812  11.571
77707W        W36968  13.793  28.550   0.896
77708W        W36969  13.702   2.849  14.281
77709W        W36970  12.761   5.244  12.365
77710W        W36971   5.401  43.955   1.809
77711W        W36972  44.419  41.842   5.283
77712W        W36973  34.538  18.637   1.441
77713W        W36974  20.709  11.150   2.780
77714W        W36975  12.202  29.477  12.496
77715W        W36976  37.467  24.186   1.229
77716W        W36977   6.425  35.547   0.434
77717W        W36978  36.501  15.597   9.974
77718W        W36979  42.348   0.335  13.927
77719W        W36980  40.850  17.757  13.383
77720W        W36981  35.460  41.898   2.675
77721W        W36982  11.780  15.191   3.721
77722W        W36983  35.926  23.594   1.435
77723W        W36984  12.634  36.378   1.429
77724W        W36985  20.583  44.774  10.549
77725W        W36986  27.041  34.887   0.913
77726W        W36987  34.387  43.913   1.839
77727W        W36988   0.434  13.668  12.364
77728W        W36989  23.099  15.303  12.930
77729W        W36990  34.546  15.267  14.886
77730W        W36991  28.015  21.137   4.354
77731W        W36992  25.541  34.977  11.035
77732W        W36993  22.179  19.218  10.482
77733W        W36994  31.917  16.602  13.925
77734W        W36995  44.325  34.512  13.412
77735W        W36996  26.047  27.683  10.944
77736W        W36997  39.032   7.823   2.375
77737W        W36998  21.048   7.796  13.387
77738W        W36999  12.672  42.921  10.990
77739W        W37000  25.043  32.035   3.867
77740W        W37001   6.687  38.470  11.531
77741W        W37002  36.456  17.186  13.038
77742W        W37003  17.304   7.811   3.803
77743W        W37004  42.933  44.293  11.107
77744W        W37005  10.876  19.251  14.488
77745W        W37006  40.805  10.752   3.741
77746W        W37007  23.225  23.097  14.481
77747W        W37008  30.566  23.079   0.257
77748W        W37009  39.809  44.948  12.474
77749W        W37010  18.653  37.978   2.712
77750W        W37011   3.780   5.304   1.914
77751W        W37012  43.920  44.296   4.753
77752W        W37013  23.500  28.075  11.575
77753W        W37014  37.575  30.105  10.423
77754W        W37015  27.192  30.948   1.432
77755W        W37016  19.079  24.977  10.605
77756W        W37017  24.614  18.557   1.413
77757W        W37018  44.351   1.738  11.994
77758W        W37019  26.066   2.281   2.752
77759W        W37020  41.833   8.748  11.093
77760W        W37021  29.666  14.296   4.350
77761W        W37022  22.134  31.099  14.515
77762W        W37023  11.155  43.440   1.423
77763W        W37024  31.505   7.322   1.878
77764W        W37025   7.886  41.978   3.187
77765W        W37026  35.517  22.113   0.827
77766W        W37027   4.786  22.105   4.744
77767W        W37028  24.623  32.525  11.941
77768W        W37029   6.852   6.812  10.899
77769W        W37030  29.615  19.105  13.861
77770W        W37031  13.129  14.712   0.947
77771W        W37032   8.261  18.785  14.283
77772W        W37033  26.661  39.316  11.507
77773W        W37034  25.978  19.605   2.802
77774W        W37035  32.108  39.398  11.532
77775W        W37036   7.790  15.191  12.363
77776W        W37037  27.094   7.865   1.242
77777W        W37038  10.798  40.536   0.465
77778W        W37039  37.020  33.609  13.872
77779W        W37040  43.972   2.442  14.307
77780W        W37041   0.331  26.967   4.647
77781W        W37042  31.504   0.418  14.002
77782W        W37043  27.456  19.544  13.396
77783W        W37044  43.296  25.075  12.015
77784W        W37045   0.766   8.766   5.095
77785W        W37046  10.330  27.115  14.931
77786W        W37047  14.251   9.353  12.868
77787W        W37048  11.709  10.822  12.550
77788W        W37049   7.669  38.389   4.734
77789W        W37050   8.195  43.823  13.464
77790W        W37051  43.448  41.918   2.779
77791W        W37052  23.074  34.528   4.217
77792W        W37053  33.069  39.374   1.832
77793W        W37054  19.265  44.363  13.452
77794W        W37055  14.773  36.844  11.071
77795W        W37056  38.342  17.737  12.950
77796W        W37057  37.482   6.801   1.925
77797W        W37058  36.364  41.793  14.373
77798W        W37059   7.271  43.911   1.284
77799W        W37060  31.452  24.551  11.021
77800W        W37061  38.334  28.103  10.604
77801W        W37062  33.380  26.669   4.757
77802W        W37063  41.357  30.907  13.009
77803W        W37064  19.270   9.240  14.348
77804W        W37065  31.106   1.973   2.193
77805W        W37066  31.031  41.944   4.836
77806W        W37067  33.886  40.549   0.839
77807W        W37068  43.453  25.616  11.413
77808W        W37069  10.248   1.470   2.793
77809W        W37070  44.259  40.463   0.867
77810W        W37071   9.222  10.700  11.438
77811W        W37072  10.233  16.316  11.545
77812W        W37073   7.815  42.451  11.498
77813W        W37074  23.099   6.311  12.904
77814W        W37075  10.739  27.117  11.374
77815W        W37076  29.570  43.445  11.408
77816W        W37077   7.908   9.702  11.904
77817W        W37078  13.818  40.940  12.967
77818W        W37079  37.457  15.306   2.757
77819W        W37080  20.560  10.154   0.261
77820W        W37081  22.530  36.042  11.122
77821W        W37082  33.989  15.096   5.694
77822W        W37083   7.886  12.631  10.520
77823W        W37084  15.289  44.401  13.019
77824W        W37085  43.430  20.074   1.358
77825W        W37086  41.946   3.891   0.363
77826W        W37087  26.062   9.165  10.417
77827W        W37088  37.953  17.737  12.910
77828W        W37089  19.779  44.846  13.475
77829W        W37090  15.174  30.600  14.017
77830W        W37091  40.015  39.551  13.477
77831W        W37092  18.155  13.155  13.950
77832W        W37093  39.969  13.643  14.764
77833W        W37094  21.701  13.713   0.841
77834W        W37095   5.897  11.321  12.070
77835W        W37096  13.710  17.113   1.449
77836W        W37097  40.416  19.630  10.503
77837W        W37098  26.658  33.531   0.403
77838W        W37099  32.017  20.683   4.750
77839W        W37100  14.098  32.592  11.035
77840W        W37101  14.183  42.907  12.538
77841W        W37102  37.865  40.336   2.781
77842W        W37103  11.654  30.993  12.987
77843W        W37104  22.719  19.268  10.001
77844W        W37105  11.681  36.931   2.755
77845W        W37106  38.501  18.649   0.906
77846W        W37107  34.545  41.398   2.201
77847W        W37108  36.347  20.693  13.493
77848W        W37109  29.457  17.254   1.837
77849W        W37110  24.094   6.339  12.557
77850W        W37111  10.322  26.516   2.313
77851W        W37112  37.441  21.032  14.856
77852W        W37113  13.769   0.265  10.892
77853W        W37114  17.265  25.106   4.827
77854W        W37115  37.020  23.514  12.939
77855W        W37116  26.612  27.487   1.781
77856W        W37117  27.585  40.311   4.133
77857W        W37118   1.475  17.775  13.450
77858W        W37119  26.645   9.861   4.257
77859W        W37120  33.578  27.945   2.756
77860W        W37121   5.273  39.989  13.361
77861W        W37122  42.896  21.754   3.158
77862W        W37123  32.082  29.607  12.999
77863W        W37124  29.932   7.391   4.789
77864W        W37125  11.718  43.902  13.869
77865W        W37126  39.556   2.767   1.822
77866W        W37127  40.472  28.066   2.781
77867W        W37128  37.418  33.464  14.981
77868W        W37129  42.834   5.877  13.346
77869W        W37130  22.053   2.915  13.328
77870W        W37131   7.770  24.135   1.912
77871W        W37132  30.060  20.632   2.409
77872W        W37133  36.553  12.702  11.596
77873W        W37134  28.661  12.803  13.521
77874W        W37135  25.664  36.929   1.336
77875W        W37136  41.932  17.576   0.878
77876W        W37137  12.208  44.821  10.960
77877W        W37138  21.142  12.625   0.829
77878W        W37139  38.953  22.682  11.581
77879W        W37140  37.002  18.582   1.364
77880W        W37141  43.364  20.218   2.358
77881W        W37142   1.419  10.257  12.344
77882W        W37143  25.965  29.991   3.278
77883W        W37144   7.301  15.772  14.880
77884W        W37145  15.128  31.533  14.009
77885W        W37146   2.432  27.583   4.303
77886W        W37147  27.447   6.887   0.427
77887W        W37148  39.947  26.519   4.323
77888W        W37149  23.146  33.956   4.692
77889W        W37150   3.442  29.453  10.631
77890W        W37151   0.400  42.421  11.387
77891W        W37152  41.430  34.519  12.999
77892W        W37153   8.887  25.977   2.394
77893W        W37154  33.426  38.075  14.951
77894W        W37155   7.798  14.301   0.412
77895W        W37156   0.802  12.659   4.750
77896W        W37157  31.445  24.592  11.994
77897W        W37158  36.005   2.760  14.419
77898W        W37159  10.251  44.907   4.221
77899W        W37160  20.615   1.936   0.461
77900W        W37161  11.713  15.124   1.772
77901W        W37162  42.994  24.202  13.351
77902W        W37163  35.466  11.198  14.315
77903W        W37164  30.072  21.709   0.760
77904W        W37165   4.912  29.423   4.611
77905W        W37166  32.918  15.258   2.667
77906W        W37167  26.466   7.779   1.763
77907W        W37168   6.284  18.611  13.513
77908W        W37169  42.954  26.066  10.458
77909W        W37170  29.547  38.541   3.831
77910W        W37171  43.838  16.315  11.115
77911W        W37172   4.751  28.984  11.060
77912W        W37173  10.272  30.033  13.350
77913W        W37174   7.295  22.592   1.232
77914W        W37175  28.545   1.947  14.875
77915W        W37176  24.134   0.968   4.704
77916W        W37177  25.012   4.789   0.437
77917W        W37178   6.868   0.442  12.487
77918W        W37179  37.854  17.730  14.283
77919W        W37180   3.280  42.402   0.354
77920W        W37181   6.354   0.872  11.489
77921W        W37182  32.125  18.268   1.793
77922W        W37183  35.949  27.098   3.675
77923W        W37184   6.253  24.665  14.297
77924W        W37185  19.119  35.989  11.036
77925W        W37186   1.255   6.332  14.853
77926W        W37187   0.323   3.318  11.072
77927W        W37188   2.382   7.318   2.187
77928W        W37189  35.022  27.510   0.473
77929W        W37190  29.588  17.712  14.895
77930W        W37191  42.931  37.480   4.688
77931W        W37192  35.515  31.145  14.904
77932W        W37193  44.279  21.543  10.512
77933W        W37194  42.291  12.362  12.033
77934W        W37195   4.851  21.201  11.875
77935W        W37196  36.590  35.491   1.255
77936W        W37197  43.829  32.552  11.444
77937W        W37198  40.459  31.484   4.607
77938W        W37199  17.725  17.251   0.783
77939W        W37200   6.282   8.338   3.328
77940W        W37201  10.645  22.173   4.771
77941W        W37202  36.865  33.109  12.400
77942W        W37203  27.678  10.660  12.562
77943W        W37204  23.199  29.645   4.261
77944W        W37205  15.819   8.374   2.380
77945W        W37206   1.472  26.119  13.452
77946W        W37207  13.667  32.138  12.544
77947W        W37208  28.582  20.567   1.348
77948W        W37209  22.669  25.207   0.916
77949W        W37210  26.553  32.543  12.089
77950W        W37211   7.228  16.810   4.310
77951W        W37212  39.828  18.179  12.019
77952W        W37213   2.241  10.338   1.739
77953W        W37214  15.160  33.550   2.850
77954W        W37215  27.172  38.854   0.349
77955W        W37216  15.806   2.404   4.833
77956W        W37217  29.431  20.710   1.442
77957W        W37218  32.076  17.246   2.310
77958W        W37219  12.685  12.266   3.798
77959W        W37220  23.225   1.244   2.332
77960W        W37221   0.494  21.022   1.391
77961W        W37222  26.962  41.324  13.365
77962W        W37223  40.539  25.217  13.055
77963W        W37224  16.705   4.785   1.257
77964W        W37225  38.914  40.039   4.266
77965W        W37226  33.038  34.088   4.321
77966W        W37227  44.912  37.979  12.436
77967W        W37228  43.862  14.792  14.819
77968W        W37229   1.334  40.492  13.993
77969W        W37230  19.250  17.701   1.397
77970W        W37231  24.100  10.687   2.856
77971W        W37232   5.730  20.256  14.785
77972W        W37233   5.861  18.141  10.579
77973W        W37234   9.820  36.008   2.286
77974W        W37235  24.127  18.209   0.867
77975W        W37236  12.675  11.695  14.329
77976W        W37237  18.749  12.251   0.826
77977W        W37238   9.173  34.387  10.899
77978W        W37239  37.996   4.909   2.695
77979W        W37240  41.836  38.874  12.922
77980W        W37241  24.678  20.739   1.216
77981W        W37242  21.017  42.858   3.631
77982W        W37243   6.309  41.906   4.272
77983W        W37244  23.675  36.960  14.765
77984W        W37245  20.538  43.016   2.786
77985W        W37246  32.087  38.069  13.904
77986W        W37247  25.177  33.599   0.316
77987W        W37248  39.898  44.886   4.241
77988W        W37249   9.773  22.629  14.306
77989W        W37250  12.165  21.754   0.870
77990W        W37251  27.085  20.182   4.651
77991W        W37252  41.397  17.556   2.370
77992W        W37253  24.095  14.329  10.112
77993W        W37254  34.962  44.481  14.781
77994W        W37255  44.782  44.388  12.975
77995W        W37256  10.701   3.430  13.463
77996W        W37257   0.976  17.109  12.459
77997W        W37258   5.818   6.884   5.791
77998W        W37259   7.834  18.272  10.600
77999W        W37260  11.256   0.452   2.801
78000W        W37261  11.751  21.077   4.811
78001W        W37262  40.333   7.276   2.756
78002W        W37263  40.313   8.762   1.818
78003W        W37264  12.216   2.293  12.440
78004W        W37265  29.064   8.197  12.495
78005W        W37266   7.301  15.281  12.346
78006W        W37267   7.247  12.682   3.714
78007W        W37268  13.760  22.642  14.477
78008W        W37269  44.482   7.786  13.979
78009W        W37270  34.371  31.043  12.391
78010W        W37271  40.891  33.441  14.806
78011W        W37272   8.751  29.485   2.264
78012W        W37273  28.044   3.309   4.634
78013W        W37274  27.083  10.230   1.861
78014W        W37275   6.397  13.761   2.729
78015W        W37276  16.132  36.888  14.304
78016W        W37277  36.094  10.666  12.392
78017W        W37278  31.009  37.416   1.436
78018W        W37279  29.082  13.125  12.915
78019W        W37280   0.470  20.564   1.741
78020W        W37281  38.434  10.793   4.773
78021W        W37282  34.421  42.523   0.894
78022W        W37283  40.419  42.027  13.061
78023W        W37284  43.857  26.981  14.763
78024W        W37285  25.558  12.354  10.539
78025W        W37286  23.733  20.069   1.797
78026W        W37287  16.084  32.974  10.914
78027W        W37288  27.481   0.416  12.380
78028W        W37289  43.941   3.862  14.013
78029W        W37290  20.696  18.669  11.912
78030W        W37291   5.914  39.043   4.199
78031W        W37292  39.818  12.738  11.508
78032W        W37293  27.065  36.069  14.894
78033W        W37294  35.475  17.757   1.775
78034W        W37295   5.279  13.302  12.393
78035W        W37296   2.305   1.917   3.232
78036W        W37297   8.746  21.723   1.223
78037W        W37298  12.295  12.835  14.916
78038W        W37299  25.206  42.479   3.757
78039W        W37300  22.661  39.500  14.805
78040W        W37301   0.401  40.052   0.897
78041W        W37302  14.168  10.811   2.321
78042W        W37303  21.260  42.791   0.956
78043W        W37304  39.427  23.231  10.954
78044W        W37305  38.910  28.462  13.873
78045W        W37306  17.089  17.792   2.311
78046W        W37307   6.284  23.171   3.777
78047W        W37308  35.466  32.024  11.982
78048W        W37309   7.811  43.366   0.275
78049W        W37310   1.412  42.978  14.942
78050W        W37311   1.322  32.016   2.756
78051W        W37312   3.789  42.830   3.228
78052W        W37313  39.402   0.284   4.764
78053W        W37314   6.914  22.080  14.472
78054W        W37315  33.406   4.249   1.764
78055W        W37316  31.024  14.285  12.526
78056W        W37317   2.775   2.860   4.821
78057W        W37318  10.321  24.596   4.315
78058W        W37319  18.676  20.188  11.528
78059W        W37320  25.592   6.679   3.270
78060W        W37321   1.857   9.860   4.620
78061W        W37322   6.898  19.059  14.971
78062W        W37323  41.395  37.935   3.149
78063W        W37324  29.486   5.358  14.027
78064W        W37325  18.606  13.624  12.577
78065W        W37326   0.287  14.282   0.963
78066W        W37327  11.681  37.914   1.927
78067W        W37328  42.393  12.223   3.694
78068W        W37329  37.561  42.912   4.617
78069W        W37330  35.099   0.331  13.327
78070W        W37331  39.877   1.350  14.961
78071W        W37332  36.899  28.438  11.491
78072W        W37333   1.747   7.833   0.249
78073W        W37334  33.962   1.346  13.828
78074W        W37335  14.806  35.591  10.644
78075W        W37336  13.152  42.371   1.734
78076W        W37337  29.527   8.327   4.716
78077W        W37338   0.252  30.421   4.800
78078W        W37339  10.162  15.672  13.956
78079W        W37340  21.722  13.608   0.404
78080W        W37341   4.831  18.227  10.102
78081W        W37342  34.510  22.161   0.429
78082W        W37343  25.661  23.537   3.170
78083W        W37344  39.324  24.510  14.314
78084W        W37345  39.513  40.932  13.545
78085W        W37346  27.548  10.729  10.996
78086W        W37347  35.879  21.065  11.898
78087W        W37348  26.571   6.897   3.373
78088W        W37349  38.434  16.129   3.169
78089W        W37350   2.732  14.239  11.397
78090W        W37351  18.214  23.132  10.942
78091W        W37352   6.870  10.368   3.357
78092W        W37353  11.813  28.037  12.465
78093W        W37354   7.770  13.225  14.341
78094W        W37355  25.038  35.077   3.272
78095W        W37356   2.471   8.735   5.320
78096W        W37357   3.792   8.829   2.883
78097W        W37358   3.324   4.384  12.984
78098W        W37359  11.864  31.102   1.860
78099W        W37360   9.284  33.465   1.319
78100W        W37361  41.029  13.798   3.649
78101W        W37362  34.539  20.076   2.355
78102W        W37363  10.158   1.969   3.694
78103W        W37364  14.765  18.552  12.359
78104W        W37365  41.465   8.803  12.548
78105W        W37366  33.075  36.590  12.908
78106W        W37367  27.484   2.937  10.442
78107W        W37368   8.749  17.744   2.711
78108W        W37369  43.878  24.153  13.479
78109W        W37370   6.284   6.386  13.972
78110W        W37371  22.164  35.911  10.540
78111W        W37372  26.465   4.830   4.708
78112W        W37373  43.505  32.478   2.671
78113W        W37374   0.332  32.056   4.624
78114W        W37375  10.672   7.246  10.541
78115W        W37376  38.461  30.932   4.673
78116W        W37377  18.135  38.353  13.860
78117W        W37378  36.966  21.540  14.952
78118W        W37379  25.473  15.737  12.920
78119W        W37380  22.608   4.751  12.478
78120W        W37381   5.391  10.877  12.579
78121W        W37382  32.634  23.651  13.530
78122W        W37383  40.822  33.942   1.911
78123W        W37384   7.823  28.452   1.821
78124W        W37385  18.148  26.602  13.337
78125W        W37386  31.144  22.237  14.393
78126W        W37387  18.674  29.102  12.341
78127W        W37388  31.992  35.973  13.008
78128W        W37389   5.279  41.869  13.532
78129W        W37390  12.341  33.878   1.752
78130W        W37391  13.320  35.450  13.805
78131W        W37392  13.761  18.111  11.609
78132W        W37393  38.018   0.836  13.014
78133W        W37394  27.191  26.117  11.097
78134W        W37395  27.464   6.743   1.861
78135W        W37396  13.336  16.254  10.156
78136W        W37397  25.546  19.130   0.363
78137W        W37398  10.220  43.513  11.030
78138W        W37399  36.588  14.324  14.839
78139W        W37400  42.022  29.560   3.785
78140W        W37401  16.296  36.999   4.647
78141W        W37402  10.236  29.556   3.812
78142W        W37403   1.871  27.475   1.403
78143W        W37404  41.972  18.188   1.839
78144W        W37405  16.661  41.997   3.869
78145W        W37406   0.302   6.720  12.391
78146W        W37407  29.069  11.625   1.355
78147W        W37408  40.844   1.915  12.383
78148W        W37409  21.164  38.515   0.388
78149W        W37410  19.711  37.933  12.036
78150W        W37411   4.907   5.393   0.771
78151W        W37412  30.490  26.209   2.740
78152W        W37413  24.649  26.544  12.511
78153W        W37414   9.669   0.787   3.230
78154W        W37415   7.407   9.818  14.415
78155W        W37416  42.464  38.031   0.313
78156W        W37417   2.766  40.431   2.267
78157W        W37418  13.194  22.744  14.826
78158W        W37419  11.679  10.685   4.291
78159W        W37420  23.733   0.957   4.789
78160W        W37421  32.892   3.830  14.962
78161W        W37422   5.849   4.400  11.571
78162W        W37423  40.331  21.251  12.963
78163W        W37424  30.945  34.374  11.971
78164W        W37425  25.620  18.673  13.387
78165W        W37426  41.986  39.868  10.092
78166W        W37427   2.419  36.049  14.493
78167W        W37428  35.927  37.349   4.290
78168W        W37429  20.068  23.572  13.830
78169W        W37430  41.817  26.156   0.797
78170W        W37431  23.130   1.790  13.981
78171W        W37432  35.957   7.852  13.341
78172W        W37433  32.491  19.743   3.159
78173W        W37434  43.847  10.853   0.806
78174W        W37435  28.101  37.571  11.965
78175W        W37436  26.044  29.126   1.240
78176W        W37437   7.855  29.639   5.170
78177W        W37438  15.703  39.429   0.758
78178W        W37439  34.540  34.068  14.819
78179W        W37440   2.872  11.824   9.996
78180W        W37441  15.603  18.129  12.564
78181W        W37442  40.402  21.142  14.445
78182W        W37443   1.254  15.704   2.809
78183W        W37444  15.186   1.444   1.720
78184W        W37445  43.469  41.789  13.519
78185W        W37446  22.032  27.584   0.418
78186W        W37447   7.363  44.900   4.700
78187W        W37448   4.305  14.692   4.342
78188W        W37449   8.296  15.255  12.856
78189W        W37450  26.015  10.360  10.557
78190W        W37451  43.444  41.981  12.978
78191W        W37452   9.807  24.194  13.428
78192W        W37453   9.219  32.391  14.801
78193W        W37454  31.073   3.350   2.830
78194W        W37455  29.011  37.087   3.155
78195W        W37456  28.652   6.680   4.240
78196W        W37457  14.205  25.477  11.571
78197W        W37458  29.962  29.542   3.373
78198W        W37459  33.905  42.333  12.542
78199W        W37460  40.504  24.554  13.923
78200W        W37461  33.965  18.751   4.673
78201W        W37462  21.642  14.146   4.199
78202W        W37463  30.590  33.132   5.084
78203W        W37464   0.374  41.323   2.843
78204W        W37465  35.085  12.307  11.516
78205W        W37466  35.528  26.656   0.810
78206W        W37467  34.606  24.198   3.675
78207W        W37468  22.106  18.229  14.903
78208W        W37469   9.379  30.984  12.921
78209W        W37470  37.452  40.403   3.853
78210W        W37471   3.911  15.743  11.029
78211W        W37472  33.558   2.250   2.271
78212W        W37473  39.960  37.509  11.975
78213W        W37474  10.201  30.447  12.990
78214W        W37475  44.306  10.274   1.831
78215W        W37476   2.726  38.967  10.461
78216W        W37477  44.451  17.076  11.035
78217W        W37478  34.912  37.975   4.285
78218W        W37479  10.217  37.510   0.888
78219W        W37480  40.880  42.860  14.445
78220W        W37481  10.803   3.882   2.373
78221W        W37482   8.289  17.633  11.371
78222W        W37483  19.224  34.996  12.513
78223W        W37484   0.967  19.570  13.925
78224W        W37485  32.440   1.968  10.047
78225W        W37486  41.482  20.199   0.414
78226W        W37487  41.449   1.441   0.254
78227W        W37488   5.840  39.981  13.416
78228W        W37489  36.421  18.608  10.503
78229W        W37490  18.680   0.904   1.445
78230W        W37491  42.944  23.996  13.019
78231W        W37492  42.507  12.625  11.498
78232W        W37493  14.226   9.776  10.545
78233W        W37494  43.807   4.207  10.966
78234W        W37495  23.605  32.626  13.490
78235W        W37496  19.165  19.143   1.695
78236W        W37497  39.491  44.995  10.900
78237W        W37498  12.193  23.722  10.631
78238W        W37499   6.677  32.608  14.025
78239W        W37500  30.514   6.195  12.860
78240W        W37501  41.403  30.086   3.833
78241W        W37502  17.212   7.405   0.287
78242W        W37503  34.546  22.033  10.591
78243W        W37504  40.535  18.105   2.853
78244W        W37505  30.649   2.341   0.877
78245W        W37506   7.675  35.395  12.481
78246W        W37507   8.725   7.193   1.338
78247W        W37508  19.252   2.234  14.978
78248W        W37509  14.111  14.827   2.713
78249W        W37510  20.549  23.598  11.410
78250W        W37511  15.167  12.774  13.931
78251W        W37512  18.727  36.936  13.318
78252W        W37513  17.283  15.821  11.994
78253W        W37514  24.636  36.082  10.538
78254W        W37515   8.890  33.899  10.899
78255W        W37516  21.729  21.181   3.253
78256W        W37517  27.168  12.139  11.596
78257W        W37518  29.667  26.605   4.752
78258W        W37519   7.268  24.142  14.986
78259W        W37520  24.627  37.917   3.268
78260W        W37521  21.565  25.536  12.493
78261W        W37522  33.589   8.173   1.919
78262W        W37523  41.851  42.803  13.477
78263W        W37524  12.773  29.427   1.750
78264W        W37525   4.379   4.778  13.322
78265W        W37526  44.350  31.114   4.622
78266W        W37527  30.450  32.571   5.189
78267W        W37528  17.740   7.749  10.566
78268W        W37529  12.776   3.730   0.437
78269W        W37530   1.318   6.198   4.321
78270W        W37531  14.732  37.015   0.943
78271W        W37532  43.483   2.802  13.447
78272W        W37533  42.491  42.370  12.041
78273W        W37534  40.313  10.771  14.943
78274W        W37535  22.068   2.962  12.399
78275W        W37536   3.773  10.857   4.182
78276W        W37537   6.298  34.375  14.991
78277W        W37538  20.580   8.800  13.438
78278W        W37539  29.107  31.426   0.926
78279W        W37540  17.300  13.832  12.968
78280W        W37541   9.687   7.215   0.414
78281W        W37542   0.917  13.235   0.470
78282W        W37543  32.926  44.313  11.564
78283W        W37544   6.712  44.940  14.298
78284W        W37545  25.053   7.335  14.777
78285W        W37546   8.294  27.457   4.751
78286W        W37547   0.494  26.064  13.020
78287W        W37548  17.112  23.984  12.023
78288W        W37549  41.313   2.383  10.421
78289W        W37550  15.667   2.921   3.822
78290W        W37551   9.394  26.668  12.840
78291W        W37552  35.086   4.374   2.696
78292W        W37553  15.712  43.836   1.889
78293W        W37554  35.861  36.907   0.476
78294W        W37555   7.845  19.596   1.345
78295W        W37556  40.025   2.882  12.550
78296W        W37557   5.254  25.602   1.450
78297W        W37558  43.351  44.311  10.909
78298W        W37559  16.161   3.256  12.999
78299W        W37560   7.789  41.804  10.412
78300W        W37561  31.630  12.758  12.993
78301W        W37562  41.853  25.121  13.336
78302W        W37563   9.255  27.524  12.409
78303W        W37564  31.911  26.600  14.343
78304W        W37565  11.847   5.776  11.021
78305W        W37566  25.040  39.445   1.345
78306W        W37567   3.950  39.035   9.976
78307W        W37568  20.053  41.956  11.384
78308W        W37569  21.210  14.834   3.849
78309W        W37570  41.537  36.417   0.902
78310W        W37571   5.234  13.818   3.708
78311W        W37572  16.762  44.447   3.291
78312W        W37573   6.316  15.713  10.990
78313W        W37574  28.960  13.828  10.080
78314W        W37575  25.618  40.386  10.980
78315W        W37576  30.033  23.025  12.909
78316W        W37577  14.140   0.795   1.310
78317W        W37578  30.446  42.483  12.482
78318W        W37579   4.436  15.603   0.791
78319W        W37580   1.318  16.580  14.459
78320W        W37581  20.747   0.925  14.934
78321W        W37582  37.915  29.666  12.435
78322W        W37583   1.276  32.108  11.493
78323W        W37584  14.192   9.673   4.609
78324W        W37585  26.991  16.650   2.368
78325W        W37586  23.679   2.226  10.624
78326W        W37587  24.511   6.733   2.759
78327W        W37588  14.664  13.754   0.912
78328W        W37589  11.646  28.503  12.999
78329W        W37590  33.994  37.562   2.712
78330W        W37591   5.732   1.408   1.803
78331W        W37592   9.368  14.200  12.949
78332W        W37593   2.317  20.138  11.439
78333W        W37594   1.910   1.755  12.000
78334W        W37595  37.888  22.078  11.042
78335W        W37596  33.881   0.822   0.326
78336W        W37597  12.320  38.354  13.793
78337W        W37598  10.249  32.544   1.897
78338W        W37599  29.656  23.088   1.319
78339W        W37600  43.322  21.163   2.806
78340W        W37601  35.393  14.246  11.978
78341W        W37602   6.743  35.949  13.466
78342W        W37603  13.648  37.084   1.772
78343W        W37604   1.393  43.388   3.215
78344W        W37605  41.506   1.241  12.853
78345W        W37606  30.007   1.468   3.669
78346W        W37607  42.319   4.916  10.981
78347W        W37608  16.204   2.376  13.875
78348W        W37609  17.264  15.675  13.317
78349W        W37610  19.139  23.122   0.832
78350W        W37611   3.931   3.216   3.157
78351W        W37612  20.215   9.217   1.890
78352W        W37613  24.096  38.032  11.422
78353W        W37614  17.066   9.244  14.891
78354W        W37615  11.197  29.159   1.778
78355W        W37616   3.340  43.927   0.730
78356W        W37617  19.634  36.456   4.130
78357W        W37618  39.963  31.616  13.327
78358W        W37619   4.772  20.134  11.102
78359W        W37620  14.707  18.741  12.928
78360W        W37621  17.256  35.091  13.836
78361W        W37622  44.388  32.556   1.241
78362W        W37623  28.152  16.144   1.865
78363W        W37624  15.248  39.392  13.370
78364W        W37625  35.448  16.282  10.519
78365W        W37626  35.465   9.664   0.730
78366W        W37627  20.222  17.774   0.913
78367W        W37628  26.198  36.395   4.178
78368W        W37629  32.599  18.176  13.414
78369W        W37630  22.658  39.537   0.477
78370W        W37631  43.378  23.650   4.740
78371W        W37632   4.717  41.313  12.859
78372W        W37633  24.502  19.550   4.295
78373W        W37634  16.266  12.315   1.408
78374W        W37635  37.949   6.349  12.986
78375W        W37636  14.185   6.758   2.202
78376W        W37637  14.610  15.758   1.718
78377W        W37638  44.757  28.143  13.509
78378W        W37639  16.307   6.422   0.298
78379W        W37640  16.659  10.859  13.405
78380W        W37641  39.885   9.789   2.843
78381W        W37642  29.551  16.130  11.399
78382W        W37643  32.521  17.790  10.582
78383W        W37644  10.315  34.473  14.846
78384W        W37645  25.663  18.552   4.706
78385W        W37646  42.435  36.456   0.873
78386W        W37647  34.065  20.225   0.405
78387W        W37648   2.290  35.986   4.288
78388W        W37649  14.109  21.657   2.676
78389W        W37650  37.410  40.001   4.739
78390W        W37651  18.708   0.875   2.322
78391W        W37652  26.148  15.690   2.246
78392W        W37653   3.331  40.938   1.258
78393W        W37654  35.019  15.214  11.968
78394W        W37655  29.554  36.888   1.873
78395W        W37656  26.639  30.935   0.916
78396W        W37657  19.199  43.786   3.670
78397W        W37658  13.773  23.618   2.750
78398W        W37659  22.576  15.760   0.284
78399W        W37660  11.643  43.459   0.467
78400W        W37661  30.627  35.502  14.922
78401W        W37662   6.853  38.016   1.801
78402W        W37663  44.932  20.171  10.909
78403W        W37664  18.732   7.190  13.485
78404W        W37665  40.349  15.706   3.816
78405W        W37666   3.732  37.480  14.906
78406W        W37667  10.710  41.400  12.087
78407W        W37668  19.669  29.141   3.735
78408W        W37669  10.847  14.303  10.457
78409W        W37670  29.447  21.564  12.357
78410W        W37671  42.964   3.376  12.910
78411W        W37672  14.132  37.974   2.403
78412W        W37673  13.109  43.335  10.484
78413W        W37674   5.234  24.721  13.460
78414W        W37675  33.497  13.648   2.294
78415W        W37676  41.397  16.316   3.303
78416W        W37677   4.431  33.616  13.318
78417W        W37678  41.357   7.743   3.214
78418W        W37679  25.006  13.621  10.515
78419W        W37680   8.828  39.534   3.273
78420W        W37681  24.114  22.547  14.335
78421W        W37682  38.821  15.592  13.981
78422W        W37683  32.034  42.935  13.446
78423W        W37684  32.907  25.639  12.500
78424W        W37685  18.127  41.980  11.998
78425W        W37686  21.218  32.527   0.887
78426W        W37687  27.150  33.466  12.948
78427W        W37688  30.144  38.435   2.706
78428W        W37689  31.429   9.751   4.252
78429W        W37690  31.917  24.544  11.418
78430W        W37691  27.066   3.950   3.731
78431W        W37692  32.570  31.964  10.603
78432W        W37693  18.099  32.529  13.831
78433W        W37694  14.171   7.875   0.416
78434W        W37695  19.737  21.225   1.349
78435W        W37696   7.769   1.269  11.941
78436W        W37697  26.470  24.678   5.150
78437W        W37698  14.222  40.351   5.249
78438W        W37699   4.899  26.996  13.050
78439W        W37700  19.105  23.140  11.444
78440W        W37701  26.077  19.088   4.151
78441W        W37702  29.591  29.548   4.764
78442W        W37703  44.475  28.658   3.263
78443W        W37704  17.096  26.046  11.067
78444W        W37705   3.265  32.564  13.849
78445W        W37706  28.132  26.076   3.379
78446W        W37707  15.724   4.370  10.101
78447W        W37708  21.522   8.703  11.998
78448W        W37709  36.036  42.859   2.776
78449W        W37710  27.525  23.689   1.751
78450W        W37711  11.166   6.914   0.389
78451W        W37712   8.705  40.980   0.385
78452W        W37713  34.007  12.747  11.489
78453W        W37714  40.930   4.823  14.985
78454W        W37715  37.884  17.782  11.072
78455W        W37716  37.850  15.205   2.317
78456W        W37717  14.111  43.886  12.969
78457W        W37718  24.678  29.045   2.297
78458W        W37719  28.123  12.126   2.372
78459W        W37720  11.138   7.255   3.732
78460W        W37721   2.303  26.622   0.761
78461W        W37722  29.497  20.731  11.998
78462W        W37723  10.785  31.552  10.475
78463W        W37724  32.965  30.491  11.403
78464W        W37725  22.506  14.760   4.818
78465W        W37726  36.527  15.611   1.766
78466W        W37727  20.109  38.880   0.383
78467W        W37728  41.799  41.487  14.013
78468W        W37729  39.875  13.295  13.326
78469W        W37730  33.578   2.254   0.376
78470W        W37731  24.159  41.025  14.902
78471W        W37732  34.472  29.573   2.401
78472W        W37733  26.702   6.877  14.784
78473W        W37734  30.907   8.690  13.818
78474W        W37735  42.457  36.352   1.318
78475W        W37736  20.245  32.467  12.418
78476W        W37737   4.861  36.455   3.310
78477W        W37738  30.562   7.403  12.368
78478W        W37739  32.548  43.422   2.727
78479W        W37740  19.166   5.378   3.708
78480W        W37741   4.885  44.493   0.737
78481W        W37742  20.225  16.766   3.258
78482W        W37743  41.037  30.917   0.324
78483W        W37744  23.535  33.061   4.748
78484W        W37745  39.504  21.551   1.384
78485W        W37746  16.154   3.831   1.700
78486W        W37747  41.025   8.799   0.313
78487W        W37748  10.670  44.480  13.934
78488W        W37749  41.313  41.920   0.248
78489W        W37750  13.218  37.357   5.260
78490W        W37751   3.421  35.376   4.162
78491W        W37752  40.502   0.968  13.877
78492W        W37753  32.539  42.371   1.332
78493W        W37754  36.913   6.329  10.572
78494W        W37755  23.034  37.961   1.800
78495W        W37756  22.596  31.966   0.801
78496W        W37757  32.566  43.015   3.319
78497W        W37758  19.547  28.508   2.879
78498W        W37759  31.998  36.039   1.414
78499W        W37760   3.800   0.467   2.866
78500W        W37761  30.527  17.601  13.058
78501W        W37762   5.243  18.166  11.414
78502W        W37763  41.443  22.594   3.658
78503W        W37764  34.507  30.914   2.252
78504W        W37765  20.728  24.483   2.361
78505W        W37766  39.844  15.317  11.011
78506W        W37767  28.965   2.814   0.310
78507W        W37768  42.329   2.330  14.015
78508W        W37769  36.990  39.438   2.850
78509W        W37770  44.006  19.067   1.724
78510W        W37771  34.911  25.121  13.313
78511W        W37772  23.049   1.901   0.405
78512W        W37773  35.073  29.123  12.065
78513W        W37774  22.147  12.653   4.236
78514W        W37775  17.571  19.134   0.900
78515W        W37776  25.157  20.198   4.703
78516W        W37777  37.880  19.170  13.462
78517W        W37778  35.910  28.954  14.326
78518W        W37779   5.377   0.251   2.295
78519W        W37780  44.887  42.902   3.820
78520W        W37781  28.648  33.078   0.781
78521W        W37782  40.929  44.925   0.341
78522W        W37783  24.524   6.712   4.627
78523W        W37784  37.377  14.688  13.971
78524W        W37785  38.553  35.445  14.451
78525W        W37786  31.413  29.501   3.845
78526W        W37787   9.237  10.742  13.955
78527W        W37788  39.511   6.229  12.844
78528W        W37789  29.430  18.190   1.809
78529W        W37790   8.304   6.802   4.778
78530W        W37791  30.078   8.406   2.824
78531W        W37792  40.518  41.795   4.192
78532W        W37793   9.751  31.429  13.878
78533W        W37794  43.945  40.988  12.039
78534W        W37795  19.269   6.393   4.222
78535W        W37796  36.502   8.316   1.874
78536W        W37797  39.859  28.612  12.568
78537W        W37798  27.155   0.327   1.721
78538W        W37799  19.273  39.434   3.324
78539W        W37800  15.190  32.010  11.608
78540W        W37801  38.855   9.772   1.825
78541W        W37802   8.756  38.331   3.727
78542W        W37803  25.621  23.648  12.998
78543W        W37804  36.575   4.226   3.169
78544W        W37805  26.201  15.607   3.731
78545W        W37806  40.385  18.130   1.359
78546W        W37807  10.186  42.288   4.284
78547W        W37808  35.087  43.808   4.277
78548W        W37809  40.548   8.366   0.368
78549W        W37810  18.717   0.800  12.973
78550W        W37811  21.253  38.072   1.339
78551W        W37812  12.246  36.047   3.355
78552W        W37813   7.670  16.770   4.195
78553W        W37814  38.048  42.346   1.376
78554W        W37815  41.373  10.275   3.854
78555W        W37816  18.656   5.720  13.363
78556W        W37817  28.998  31.552   2.794
78557W        W37818  44.755  28.459  12.449
78558W        W37819   3.251  37.439   3.748
78559W        W37820  23.594  16.790   2.673
78560W        W37821   1.790  42.395  13.015
78561W        W37822  25.474  36.573  11.518
78562W        W37823  13.762  10.164   1.788
78563W        W37824  17.099  34.422  10.007
78564W        W37825  17.068  30.162  14.987
78565W        W37826  37.988  43.465  11.550
78566W        W37827   0.276   9.712  13.320
78567W        W37828  23.569  10.678  14.366
78568W        W37829   5.254  43.460  10.617
78569W        W37830  28.624  11.312  11.565
78570W        W37831  14.311  44.289   0.781
78571W        W37832  41.976   9.312   0.965
78572W        W37833  30.959   8.659  12.438
78573W        W37834   0.762  35.435  11.534
78574W        W37835  44.377  35.887  14.912
78575W        W37836  27.528  19.644  14.022
78576W        W37837   2.912  40.376   3.634
78577W        W37838  32.069  21.565   5.234
78578W        W37839  15.239  37.087   0.275
78579W        W37840  17.637  44.310  11.876
78580W        W37841  30.940  32.899  10.152
78581W        W37842   5.244   4.763   4.672
78582W        W37843  26.086  24.129   2.187
78583W        W37844   7.370  23.710   2.287
78584W        W37845  30.124  40.930   2.278
78585W        W37846  11.233  10.853  14.341
78586W        W37847  33.017  40.842  14.965
78587W        W37848   5.862  10.797   1.821
78588W        W37849  44.916  16.682   2.367
78589W        W37850  39.328  44.827  14.971
78590W        W37851  13.612  24.043  12.060
78591W        W37852  17.792   9.249   2.180
78592W        W37853  34.399  20.142  13.501
78593W        W37854  23.704   6.729  13.344
78594W        W37855  34.381   0.305  12.551
78595W        W37856  36.040  34.579  11.975
78596W        W37857   0.965  21.137  14.439
78597W        W37858   9.765  18.677   0.246
78598W        W37859   0.831  38.021   4.337
78599W        W37860  36.952   7.787  13.805
78600W        W37861  43.778  21.023  13.453
78601W        W37862  22.584  30.460   3.794
78602W        W37863  42.434  26.573   4.131
78603W        W37864  29.062   4.248   4.282
78604W        W37865  42.859  13.313   3.715
78605W        W37866  27.654  43.505  14.333
78606W        W37867  18.614  18.208  14.319
78607W        W37868  28.636  19.259  10.565
78608W        W37869  36.480  27.585  13.547
78609W        W37870  30.983   4.398  11.013
78610W        W37871   0.433  26.109  13.374
78611W        W37872  44.263  27.193   2.821
78612W        W37873   0.937  26.592   4.199
78613W        W37874   6.206   3.242   1.375
78614W        W37875  30.940  30.085   0.382
78615W        W37876  39.902   0.942   0.801
78616W        W37877  40.459  19.083   3.278
78617W        W37878  25.505  14.189  14.933
78618W        W37879  14.606  23.169  11.497
78619W        W37880  37.926  41.364   2.688
78620W        W37881   0.980  33.534   5.142
78621W        W37882  39.061  38.015  14.480
78622W        W37883  42.943  26.152  11.916
78623W        W37884  21.219  32.428  10.422
78624W        W37885  28.048  22.034  12.080
78625W        W37886  12.297  44.853  14.887
78626W        W37887   5.876   4.929  10.913
78627W        W37888  15.648  34.080   0.265
78628W        W37889  29.972  24.053   3.865
78629W        W37890   4.329  26.575   2.698
78630W        W37891  31.608  26.609   1.365
78631W        W37892   1.967  33.101  12.923
78632W        W37893  23.240  32.088  10.635
78633W        W37894  26.077   0.318   1.397
78634W        W37895  28.486  36.007  12.018
78635W        W37896  38.057  11.819  13.378
78636W        W37897  28.612   1.943  13.810
78637W        W37898  27.684   9.321  13.011
78638W        W37899   5.335  20.626  10.631
78639W        W37900   4.367   5.236   0.464
78640W        W37901  19.745  24.585   2.414
78641W        W37902  12.206  31.488  14.907
78642W        W37903  19.202  40.514   3.682
78643W        W37904  17.781  33.083   3.217
78644W        W37905  40.041  38.902   3.203
78645W        W37906  21.581   1.894   1.863
78646W        W37907   2.832  11.846   1.886
78647W        W37908  24.070  28.530  10.525
78648W        W37909  34.904  23.101  12.857
78649W        W37910   9.218   0.345   2.724
78650W        W37911  26.505  17.678   2.384
78651W        W37912  25.969   3.896  14.990
78652W        W37913  14.652  26.122   0.318
78653W        W37914  38.432   6.747   2.260
78654W        W37915  29.484  28.998  13.832
78655W        W37916  31.940   0.974   4.201
78656W        W37917  13.300   8.333   1.735
78657W        W37918  17.130   7.211  11.015
78658W        W37919  34.949  37.466   1.445
78659W        W37920  23.037   3.849   3.632
78660W        W37921  21.689   4.267   2.891
78661W        W37922  23.508   3.746  11.047
78662W        W37923  35.886  12.672   0.892
78663W        W37924  30.963   0.943   0.432
78664W        W37925  37.463  40.011  12.919
78665W        W37926   2.804  38.506   0.815
78666W        W37927   1.951  33.547  12.535
78667W        W37928   3.865  16.678   3.226
78668W        W37929  35.919  33.121   4.737
78669W        W37930   5.737  13.797   4.121
78670W        W37931  12.699  41.301   2.742
78671W        W37932  26.007  21.071   0.334
78672W        W37933   9.772  26.499   0.361
78673W        W37934  27.590  16.776   4.306
78674W        W37935  17.577  22.105   0.326
78675W        W37936  16.602  30.453  11.129
78676W        W37937  36.575  20.631   4.243
78677W        W37938  40.938  15.142   4.804
78678W        W37939  10.870  23.096   0.885
78679W        W37940   3.380  34.368  12.516
78680W        W37941  35.100  16.632   0.480
78681W        W37942  24.605  41.877  13.921
78682W        W37943  30.041  30.034   3.183
78683W        W37944  26.074  20.750  13.942
78684W        W37945  13.174  38.522  14.883
78685W        W37946   9.231  41.397   0.844
78686W        W37947  35.440  20.651   1.893
78687W        W37948  19.598  41.883  13.398
78688W        W37949  39.959  14.712  12.416
78689W        W37950  41.301   3.409  10.565
78690W        W37951   3.789  30.615  12.392
78691W        W37952  25.023  31.504   3.314
78692W        W37953  24.000  33.081   1.407
78693W        W37954  36.570  42.396  10.057
78694W        W37955  34.056  30.136   3.276
78695W        W37956  33.591  38.410   3.683
78696W        W37957  21.063  21.668  13.045
78697W        W37958   9.773   9.714  12.394
78698W        W37959  40.462  20.727  10.493
78699W        W37960   4.906   6.780  14.806
78700W        W37961   4.754  29.537   9.946
78701W        W37962  28.021   2.372  12.029
78702W        W37963   8.755  26.546   1.355
78703W        W37964  24.995  15.744   5.222
78704W        W37965  18.628   5.387  13.834
78705W        W37966  40.889   0.826   1.781
78706W        W37967   9.205   5.279   3.366
78707W        W37968  17.568  32.458   1.277
78708W        W37969   9.371  23.607  12.570
78709W        W37970  10.847  33.044  14.497
78710W        W37971  37.061  11.848  11.958
78711W        W37972  12.270  28.486   2.299
78712W        W37973  19.093  24.677   1.922
78713W        W37974  28.680  33.504   1.428
78714W        W37975  33.099  43.383   2.726
78715W        W37976  37.383  33.430   4.788
78716W        W37977   8.171  28.943  12.830
78717W        W37978   1.963  20.702  13.348
78718W        W37979  24.627  32.076  12.924
78719W        W37980  15.597  23.624  12.538
78720W        W37981  28.520  37.003  11.884
78721W        W37982  44.010  32.546   0.754
78722W        W37983  36.029  39.332   3.659
78723W        W37984  31.123   5.930  14.353
78724W        W37985   9.299  25.675   2.680
78725W        W37986   6.747   9.871  14.478
78726W        W37987  14.753  23.115  10.491
78727W        W37988  36.075  36.914   1.707
78728W        W37989  18.781   4.858  13.531
78729W        W37990  18.072  33.930   0.361
78730W        W37991  20.587   8.733   0.875
78731W        W37992   6.690  29.585   0.432
78732W        W37993  24.576  12.208  13.028
78733W        W37994  15.732  30.082   2.347
78734W        W37995  35.604   5.288   2.665
78735W        W37996  39.889  18.147   2.331
78736W        W37997  44.830  34.421  11.500
78737W        W37998   8.227  32.994  10.405
78738W        W37999  24.510  31.469  14.377
78739W        W38000  12.651  27.069   2.798
78740W        W38001  38.884  15.097   0.455
78741W        W38002   8.847  23.077   2.336
78742W        W38003  33.433  35.490   2.733
78743W        W38004  12.208  21.686  12.408
78744W        W38005   5.195  20.646   3.701
78745W        W38006  15.277  33.125   1.290
78746W        W38007  25.072  11.860   3.782
78747W        W38008  41.483  29.924   0.814
78748W        W38009  40.987  44.291   0.817
78749W        W38010  16.128  38.555   3.328
78750W        W38011  23.598  15.606  10.916
78751W        W38012  10.217   6.747  13.834
78752W        W38013  14.605   4.838  13.355
78753W        W38014  18.273  38.549  11.526
78754W        W38015  12.140  23.107   1.859
78755W        W38016  19.165  27.113  12.964
78756W        W38017  42.457  22.216  13.490
78757W        W38018  28.935  27.185   0.301
78758W        W38019   6.833   8.168   0.865
78759W        W38020  13.684  27.689  11.554
78760W        W38021   7.804  25.508  12.015
78761W        W38022   2.729   6.224  13.325
78762W        W38023  32.544  32.961  14.504
78763W        W38024   5.231   8.719   1.916
78764W        W38025  10.843   1.471   2.418
78765W        W38026  40.995   2.787  14.310
78766W        W38027  36.077  14.312   4.799
78767W        W38028   8.371  20.579  11.984
78768W        W38029  41.839  24.493  10.538
78769W        W38030  22.578   2.773  14.505
78770W        W38031  36.424  26.078   1.828
78771W        W38032  31.984  28.984  12.001
78772W        W38033   8.204   3.380   0.763
78773W        W38034  16.246  27.161  11.538
78774W        W38035  28.534  39.347   0.731
78775W        W38036  28.455  44.755  11.966
78776W        W38037  30.086  39.348  13.444
78777W        W38038  30.629  17.590  10.451
78778W        W38039  28.963  16.690  14.906
78779W        W38040  32.617   3.425   3.161
78780W        W38041  42.437  41.825  12.065
78781W        W38042  29.623  35.008   3.764
78782W        W38043  32.602  34.932   0.794
78783W        W38044   1.239  25.173   2.224
78784W        W38045   1.261  34.057   1.297
78785W        W38046   6.810   4.220   4.290
78786W        W38047  31.975   4.216   2.696
78787W        W38048  28.611  15.316  13.403
78788W        W38049  31.447  17.276   2.897
78789W        W38050  23.042  14.097   2.360
78790W        W38051   7.393  39.992   4.683
78791W        W38052  11.651  14.751   2.260
78792W        W38053   3.231  17.674  14.452
78793W        W38054  37.033  27.627   0.834
78794W        W38055  37.972  14.785  11.013
78795W        W38056  36.862   7.849  10.902
78796W        W38057  42.958  38.058   4.199
78797W        W38058  27.565  13.696   1.745
78798W        W38059   5.845   2.904  11.975
78799W        W38060   4.211  33.089   0.427
78800W        W38061   1.737  28.972   2.349
78801W        W38062  36.469   7.222  11.476
78802W        W38063   0.261  34.930  12.566
78803W        W38064  14.805  22.518   2.387
78804W        W38065  34.975  30.981   3.272
78805W        W38066  15.119  21.183  11.104
78806W        W38067  38.563  20.099  12.904
78807W        W38068  38.384  14.804   1.272
78808W        W38069  30.051  21.739   2.684
78809W        W38070  21.558  21.633   4.335
78810W        W38071  16.805   4.432   2.268
78811W        W38072  31.514  18.620  13.386
78812W        W38073  19.650  40.436  13.424
78813W        W38074  36.961  11.650   1.863
78814W        W38075  13.295  31.974  10.640
78815W        W38076  20.573  30.455  11.036
78816W        W38077  14.148  21.119   1.256
78817W        W38078  15.300  27.073   2.279
78818W        W38079  25.967  36.582  14.382
78819W        W38080  31.921  31.139  14.899
78820W        W38081   8.864   3.324  14.841
78821W        W38082  38.357   0.782   1.703
78822W        W38083  29.626   3.390   3.659
78823W        W38084  41.468  39.383   4.704
78824W        W38085  43.843  17.774  10.587
78825W        W38086   2.458   6.332   1.814
78826W        W38087  18.156  36.985   2.179
78827W        W38088  22.599   5.345  14.466
78828W        W38089  38.936   1.250  12.414
78829W        W38090  35.432   0.464  10.546
78830W        W38091  26.547   9.809  11.546
78831W        W38092  32.600  33.944   0.863
78832W        W38093  16.685   4.898  11.592
78833W        W38094  29.051  42.436   4.650
78834W        W38095  29.092  35.965  14.466
78835W        W38096   5.433  41.339   0.419
78836W        W38097  30.034  21.620  14.797
78837W        W38098  28.442  40.511  12.510
78838W        W38099   6.368  34.095  13.435
78839W        W38100   4.301  43.281  11.961
78840W        W38101  39.558  40.491  14.317
78841W        W38102  10.238   2.799  14.501
78842W        W38103   8.399  31.153   4.142
78843W        W38104  26.075  40.457  10.973
78844W        W38105  30.070   5.393  13.811
78845W        W38106  12.301  12.224  12.490
78846W        W38107  23.166  20.561   1.248
78847W        W38108  28.987  25.994  12.990
78848W        W38109  39.457  43.506  11.425
78849W        W38110  34.925  19.703  12.393
78850W        W38111  37.997  36.033   5.117
78851W        W38112  14.705  20.159  14.029
78852W        W38113  28.163   9.151  11.056
78853W        W38114  30.495  22.136   2.677
78854W        W38115  14.613  14.697   1.335
78855W        W38116  12.838  35.485  14.991
78856W        W38117  29.923  37.958  13.014
78857W        W38118  27.021  43.374   0.774
78858W        W38119  37.582  16.620   1.340
78859W        W38120  29.556   1.383  14.011
78860W        W38121   0.370  16.274  12.548
78861W        W38122  42.408  40.377   2.380
78862W        W38123   3.227  28.063  14.964
78863W        W38124   9.313  24.150  13.393
78864W        W38125  21.142  15.090  10.890
78865W        W38126  24.156  38.450   4.642
78866W        W38127  26.052  29.482   2.711
78867W        W38128   4.718  41.350  10.984
78868W        W38129   6.741  12.809  10.947
78869W        W38130  38.072  34.991  12.836
78870W        W38131  29.496  27.681  14.318
78871W        W38132  28.977  17.197   4.810
78872W        W38133  26.094  19.574  12.966
78873W        W38134  19.765  19.159  10.027
78874W        W38135   6.907   7.176   2.406
78875W        W38136   1.928  29.547   3.636
78876W        W38137  41.835  43.318  13.887
78877W        W38138   4.722  22.021   2.226
78878W        W38139  42.969   2.410   1.274
78879W        W38140  36.587   2.276   5.213
78880W        W38141  10.316   1.405   0.793
78881W        W38142  26.627  15.158   3.804
78882W        W38143  42.284  14.820   2.774
78883W        W38144  34.056  22.524  12.023
78884W        W38145   6.714   7.329  10.160
78885W        W38146   7.361  16.717  12.495
78886W        W38147  14.102  42.985   1.809
78887W        W38148  25.691  11.218   1.737
78888W        W38149  11.844  24.695   1.302
78889W        W38150  22.541   0.945   4.693
78890W        W38151   6.410  37.544   3.845
78891W        W38152   7.413  14.244   0.365
78892W        W38153  26.192  14.679  11.945
78893W        W38154   6.362  34.065   0.435
78894W        W38155   8.321  35.992  11.930
78895W        W38156  13.670  41.425   2.741
78896W        W38157   4.406  15.750   3.858
78897W        W38158  20.101  23.628   3.254
78898W        W38159  23.136  26.603   1.733
78899W        W38160   9.682  36.060   4.820
78900W        W38161   0.800  23.717  11.093
78901W        W38162  17.770  27.480  13.351
78902W        W38163  23.660  10.378  13.380
78903W        W38164   6.425  39.065   4.125
78904W        W38165  11.206  15.630  14.310
78905W        W38166  25.193  26.466   2.237
78906W        W38167   0.443  35.045  11.569
78907W        W38168  33.888  39.377   3.307
78908W        W38169  23.104  24.985   2.828
78909W        W38170  22.142  39.832  11.070
78910W        W38171  13.630  35.854  14.929
78911W        W38172  41.794   8.355   0.481
78912W        W38173  44.974  25.695   2.741
78913W        W38174  40.425  13.765   0.895
78914W        W38175  31.010  19.718   3.820
78915W        W38176  19.640  42.861  11.085
78916W        W38177  24.178  38.375   2.198
78917W        W38178  11.297  25.570   4.776
78918W        W38179  27.464  10.734   2.883
78919W        W38180  42.996  37.362   3.797
78920W        W38181   3.402  24.055   0.955
78921W        W38182  21.031  16.605  10.577
78922W        W38183  41.962   9.753  14.873
78923W        W38184  37.025  16.135  12.069
78924W        W38185  44.390  30.983   3.779
78925W        W38186  37.482   1.772   2.701
78926W        W38187   9.192  14.747  10.581
78927W        W38188  24.502  21.128  12.477
78928W        W38189  24.688  34.976  14.298
78929W        W38190  41.319   3.828  14.491
78930W        W38191  24.030   7.361  14.405
78931W        W38192   5.354  28.147   1.923
78932W        W38193  25.107  16.761  11.060
78933W        W38194   6.750  18.297   1.926
78934W        W38195  38.534  23.669   1.825
78935W        W38196  27.507  18.674  13.448
78936W        W38197  32.025  36.991   0.384
78937W        W38198  11.841  16.135  12.470
78938W        W38199  44.921  17.598   3.160
78939W        W38200  14.258  32.494  13.814
78940W        W38201  24.699  26.635   4.732
78941W        W38202   7.900  19.759  12.839
78942W        W38203  11.652  28.040   5.319
78943W        W38204  30.954  29.534   0.903
78944W        W38205  18.157   2.410   4.191
78945W        W38206  34.044   8.321   2.370
78946W        W38207  43.361  23.549   1.828
78947W        W38208  36.850  24.118   1.329
78948W        W38209  40.490  19.662  13.943
78949W        W38210   4.728  12.250  10.517
78950W        W38211  42.861  12.143  13.036
78951W        W38212  21.164   2.345   0.795
78952W        W38213  25.034  22.192   0.316
78953W        W38214  33.497  26.146  13.049
78954W        W38215   3.802  28.566  11.488
78955W        W38216  25.592  10.811   1.864
78956W        W38217  44.332  23.508   0.318
78957W        W38218  37.925  42.331  14.379
78958W        W38219  31.582  38.014   3.325
78959W        W38220  12.185  25.545  11.392
78960W        W38221   3.930  29.531  14.825
78961W        W38222  26.081   9.790   1.928
78962W        W38223  11.257  20.107   1.300
78963W        W38224  25.577  23.090  13.517
78964W        W38225  14.697  11.749  12.902
78965W        W38226  26.509  29.032   2.823
78966W        W38227  15.745  18.162  12.055
78967W        W38228  11.168  24.059   4.817
78968W        W38229  32.467  27.016  14.428
78969W        W38230  44.490   4.757   0.783
78970W        W38231  13.790  23.611  12.413
78971W        W38232  33.483  23.591   4.635
78972W        W38233  23.716  36.057  10.892
78973W        W38234   4.834  44.936  10.454
78974W        W38235   8.371  15.634  13.899
78975W        W38236  22.717  37.480  14.501
78976W        W38237  15.608  41.358   5.266
78977W        W38238  31.994  40.496  12.429
78978W        W38239   4.392  42.802   2.390
78979W        W38240  18.096  22.528   1.442
78980W        W38241  40.413  19.565  10.963
78981W        W38242  33.911  10.345  13.545
78982W        W38243   8.728  28.031  11.119
78983W        W38244   0.866   6.716   0.757
78984W        W38245  43.422  30.627   0.792
78985W        W38246  38.938  10.754  13.851
78986W        W38247  10.314  18.676  14.508
78987W        W38248  22.189  15.143   4.234
78988W        W38249  12.236  26.070   0.807
78989W        W38250  25.172  33.471  10.537
78990W        W38251  32.515  22.504   4.230
78991W        W38252  13.331   6.310   0.321
78992W        W38253  43.825  28.976   4.351
78993W        W38254  32.546  44.973  10.949
78994W        W38255  43.008  29.016  13.445
78995W        W38256  10.351   0.362   0.358
78996W        W38257  37.836   8.716  10.129
78997W        W38258   9.660  23.498   2.262
78998W        W38259  30.420  35.907   2.762
78999W        W38260   4.418  37.571  11.971
79000W        W38261  32.129   6.858  11.458
79001W        W38262  25.205   4.245   4.125
79002W        W38263   9.667  28.575  14.004
79003W        W38264  31.136  32.569   1.848
79004W        W38265   0.893   6.393  10.152
79005W        W38266  16.269  22.155   0.478
79006W        W38267   0.742   7.775  13.863
79007W        W38268  10.316  21.592   3.273
79008W        W38269  34.005  44.366   2.188
79009W        W38270  15.619  40.334  11.487
79010W        W38271  39.844  20.679   4.640
79011W        W38272  41.860  23.668  12.866
79012W        W38273  11.245   8.396   4.687
79013W        W38274  26.528   0.745   1.862
79014W        W38275  11.630  40.969   4.177
79015W        W38276   0.816   5.243  14.400
79016W        W38277  22.202  18.762  13.004
79017W        W38278  42.319  32.959   1.334
79018W        W38279  24.197  15.295  10.947
79019W        W38280  13.822  40.967   0.798
79020W        W38281  41.297  38.555   0.933
79021W        W38282  33.489  39.442   0.950
79022W        W38283  30.544  11.359  10.887
79023W        W38284  18.134  36.592   1.403
79024W        W38285   1.764  27.961   4.700
79025W        W38286  16.207  19.182  13.383
79026W        W38287  30.607   4.725   0.898
79027W        W38288  15.244  34.115  12.070
79028W        W38289  22.076  11.664  11.511
79029W        W38290  39.500  14.713  12.973
79030W        W38291  24.192  27.176   4.836
79031W        W38292  12.818  32.602   2.233
79032W        W38293  36.986   0.947  11.897
79033W        W38294  33.452   6.320   1.750
79034W        W38295  31.519  26.079  13.872
79035W        W38296  24.566  23.049   2.219
79036W        W38297  33.073  40.375   4.164
79037W        W38298   9.847   3.797  11.984
79038W        W38299   5.297  13.252  10.581
79039W        W38300  21.022   7.866   2.780
79040W        W38301  25.498  37.856   3.825
79041W        W38302  22.082  41.372   3.292
79042W        W38303  19.686   8.276  12.558
79043W        W38304   5.357  43.772  12.907
79044W        W38305  40.372  15.193   3.305
79045W        W38306  39.055  13.835  11.921
79046W        W38307   2.400  36.078  12.973
79047W        W38308  42.325  34.380   3.656
79048W        W38309   9.208  20.270  11.519
79049W        W38310  23.681  35.404  10.430
79050W        W38311  12.675   2.266   0.935
79051W        W38312  29.594  17.627   4.721
79052W        W38313  22.667  11.761   4.767
79053W        W38314  42.833  32.996   4.260
79054W        W38315  39.489  44.313  14.833
79055W        W38316  41.893   4.920  13.418
79056W        W38317  32.500  42.377   3.711
79057W        W38318   7.750   0.975  12.365
79058W        W38319  35.868  23.533  14.439
79059W        W38320  23.719  14.329   1.392
79060W        W38321  43.463  32.103   4.115
79061W        W38322  38.555   5.858   2.774
79062W        W38323   3.744   7.866   5.770
79063W        W38324  41.434  44.341   4.726
79064W        W38325  31.094  16.694  13.962
79065W        W38326  37.400  25.574  12.948
79066W        W38327  14.713  32.592   2.322
79067W        W38328  23.048  10.714  11.391
79068W        W38329   3.242   3.394   2.881
79069W        W38330   9.178  20.625   0.943
79070W        W38331  21.132  35.975  13.492
79071W        W38332  41.909  15.183  12.008
79072W        W38333  20.641   2.444   1.366
79073W        W38334  41.009   7.223  14.804
79074W        W38335  30.112  27.099  11.595
79075W        W38336  16.113  31.915  11.934
79076W        W38337  21.238  15.298  13.484
79077W        W38338   7.746  35.951  11.472
79078W        W38339  13.236  24.104  14.335
79079W        W38340  36.939  19.132   2.254
79080W        W38341   9.153  23.223  12.444
79081W        W38342  38.950  39.555   3.694
79082W        W38343  24.720   4.430   1.815
79083W        W38344  19.206  24.171  10.501
79084W        W38345  25.514   8.823   2.774
79085W        W38346  21.077  17.569   4.296
79086W        W38347  36.505  20.548  10.540
79087W        W38348  40.376   1.845  12.832
79088W        W38349  16.316  10.249   0.953
79089W        W38350  18.593   0.855   1.827
79090W        W38351   1.414  35.460   4.612
79091W        W38352  13.755  12.141   0.393
79092W        W38353  37.850  39.980  10.547
79093W        W38354  43.844  22.035  12.897
79094W        W38355  19.073   2.330  13.414
79095W        W38356  25.161  35.914  14.017
79096W        W38357  26.114  11.797  13.922
79097W        W38358  42.982  18.632   2.855
79098W        W38359  42.399  39.501  11.486
79099W        W38360  26.480  20.254   2.856
79100W        W38361  16.711  31.140  13.456
79101W        W38362   1.749  42.335   3.184
79102W        W38363  20.066  20.235   2.414
79103W        W38364  39.516  41.039   1.715
79104W        W38365  31.439  14.622  11.930
79105W        W38366  13.121  39.872   4.834
79106W        W38367  29.021  35.920   1.220
79107W        W38368  35.510  24.139  11.452
79108W        W38369  29.553  18.146   3.734
79109W        W38370   1.384  41.347   0.421
79110W        W38371  19.648   9.249   5.230
79111W        W38372   2.817  35.901  13.955
79112W        W38373  40.513  24.060   4.218
79113W        W38374   7.202  26.156   0.259
79114W        W38375  33.039  41.478  13.950
79115W        W38376  21.238  18.175  10.159
79116W        W38377   0.825  39.917   0.402
79117W        W38378  11.866  36.535   2.882
79118W        W38379  24.167  33.993   4.683
79119W        W38380  33.619  32.983   0.332
79120W        W38381  38.436   0.963  10.482
79121W        W38382  29.068  14.737  13.951
79122W        W38383   4.415  31.022   4.747
79123W        W38384  11.834  43.832   2.343
79124W        W38385  31.596  20.530   1.769
79125W        W38386  44.442  35.450   0.803
79126W        W38387  35.962   2.441   1.903
79127W        W38388  12.196  17.153  13.544
79128W        W38389  44.424  22.031  10.889
79129W        W38390  27.667  10.709   4.670
79130W        W38391   0.929   6.220   1.418
79131W        W38392   3.420  13.772   1.416
79132W        W38393  18.697  40.812  10.528
79133W        W38394  18.594  20.697   2.893
79134W        W38395   5.246  15.285  10.643
79135W        W38396  43.817  17.581   1.427
79136W        W38397   7.367  44.957  12.391
79137W        W38398  39.326  18.136   4.654
79138W        W38399  43.773  30.962   2.236
79139W        W38400   6.734  30.413   2.196
79140W        W38401  42.872  30.455   2.763
79141W        W38402  39.894  11.766  11.929
79142W        W38403  29.948  41.998   4.243
79143W        W38404  14.270  43.895   4.642
79144W        W38405   5.705  21.180   4.165
79145W        W38406  10.232  17.632   4.298
79146W        W38407  20.254  39.821  13.917
79147W        W38408  36.870  33.390   3.651
79148W        W38409  38.894  19.616   3.630
79149W        W38410  39.848  23.018   3.147
79150W        W38411  27.141  30.102  12.032
79151W        W38412  13.652  20.168  12.546
79152W        W38413  17.782   0.326  12.377
79153W        W38414   0.913  20.762   1.841
79154W        W38415   9.839  36.088  11.076
79155W        W38416  24.056  35.071   1.849
79156W        W38417  32.951  30.063   0.785
79157W        W38418  17.736  10.384   4.767
79158W        W38419  11.133  37.353   2.862
79159W        W38420  41.890   9.661   2.677
79160W        W38421  21.755   9.711  13.834
79161W        W38422  14.708  33.877  11.001
79162W        W38423  23.617  25.477  13.823
79163W        W38424   9.698   3.443   5.193
79164W        W38425   1.799  12.338  11.526
79165W        W38426   5.379  38.858   2.843
79166W        W38427  40.859   4.911   0.937
79167W        W38428  36.081  37.498   0.413
79168W        W38429  13.832   4.393   2.902
79169W        W38430  11.701   6.847   0.742
79170W        W38431  13.639   7.298  12.490
79171W        W38432  30.133  34.001   0.319
79172W        W38433  10.199  34.407  14.479
79173W        W38434  34.372   8.786   4.692
79174W        W38435  19.755   1.788  10.144
79175W        W38436   8.287  35.532  14.025
79176W        W38437   4.820   2.869  14.917
79177W        W38438  24.217  41.489  10.434
79178W        W38439  35.059  24.629  12.845
79179W        W38440   7.178   6.795   2.196
79180W        W38441  35.005  36.889  10.972
79181W        W38442  15.774   5.331   1.912
79182W        W38443  12.122  12.289   0.317
79183W        W38444  10.805  32.615  12.960
79184W        W38445  35.855   7.844  13.934
79185W        W38446   2.908  44.304  13.378
79186W        W38447  20.627  39.324   1.348
79187W        W38448   9.689  29.505   4.237
79188W        W38449  31.926  12.337   0.316
79189W        W38450  44.784  23.605   4.599
79190W        W38451  15.267   2.847  14.012
79191W        W38452  41.457  19.690   2.899
79192W        W38453  22.600  30.993   1.435
79193W        W38454  40.448  34.938  11.965
79194W        W38455  22.110   3.439  10.945
79195W        W38456  43.341  29.058  12.563
79196W        W38457  37.990   1.950  11.564
79197W        W38458  26.614  33.124  10.946
79198W        W38459  40.823   2.462   0.840
79199W        W38460  43.971  29.088  10.594
79200W        W38461  16.576  24.600  10.621
79201W        W38462  10.285  41.387  14.428
79202W        W38463  39.010  25.962   1.776
79203W        W38464   0.437  17.209   3.682
79204W        W38465  25.473  18.607   1.717
79205W        W38466   3.396   3.852   0.850
79206W        W38467  26.001   2.778  12.443
79207W        W38468  14.166   3.225  13.807
79208W        W38469  33.037  43.417   4.683
79209W        W38470  33.882  26.584   2.312
79210W        W38471  23.646  27.503   5.132
79211W        W38472  43.361  22.622   1.342
79212W        W38473  15.132  27.447   3.237
79213W        W38474  23.527  22.546  11.908
79214W        W38475  38.074   3.323   0.329
79215W        W38476  28.611  34.414  13.546
79216W        W38477   5.917  26.702   3.334
79217W        W38478  43.459  21.021   1.713
79218W        W38479   4.849  32.927   4.737
79219W        W38480  26.132  22.614   0.906
79220W        W38481  30.533   0.391  11.380
79221W        W38482  24.985  42.291  12.396
79222W        W38483  37.996  12.632   4.283
79223W        W38484   5.276  32.122   0.278
79224W        W38485  40.549  15.149   1.348
79225W        W38486  22.061   8.765   4.665
79226W        W38487  28.668  41.035  11.067
79227W        W38488  28.152  43.995   3.147
79228W        W38489  17.669  27.021   0.912
79229W        W38490  36.553   8.355   1.444
79230W        W38491  19.119   9.324  12.078
79231W        W38492  15.223  41.430  13.843
79232W        W38493  42.403  41.933  11.503
79233W        W38494  34.521   2.369   3.761
79234W        W38495  31.542   7.318   0.888
79235W        W38496  36.967  26.191   0.788
79236W        W38497  31.541  18.626   1.719
79237W        W38498  21.152   6.194   4.115
79238W        W38499  40.515   6.191  14.477
79239W        W38500  41.845  16.738  14.855
79240W        W38501  17.230  20.560  11.080
79241W        W38502  31.119  24.484   1.773
79242W        W38503  32.577  28.573  13.980
79243W        W38504  28.549  10.152  14.821
79244W        W38505  39.931   3.417   3.163
79245W        W38506   7.748   5.233   4.810
79246W        W38507  12.276  16.682  14.294
79247W        W38508   9.215  27.589  13.498
79248W        W38509  35.455  36.936  14.391
79249W        W38510   7.667   7.362   4.667
79250W        W38511  19.647  17.129   4.653
79251W        W38512   1.949   7.812  14.366
79252W        W38513  15.119  41.941  12.564
79253W        W38514  31.112  37.006   5.279
79254W        W38515  14.803  11.197  14.338
79255W        W38516  23.051  13.167   4.738
79256W        W38517  26.052  29.569   0.861
79257W        W38518  13.650   6.743   9.982
79258W        W38519   0.410  31.086  12.570
79259W        W38520  34.081   8.318   2.901
79260W        W38521  15.734  13.246  10.055
79261W        W38522  39.454   3.215  10.533
79262W        W38523   4.440   6.734   4.353
79263W        W38524  24.605  26.566  14.498
79264W        W38525  29.423   1.940  13.356
79265W        W38526  27.121   1.480  14.990
79266W        W38527  32.034   5.911   1.419
79267W        W38528  18.256  17.770  11.902
79268W        W38529  28.033  26.186  14.396
79269W        W38530  16.158  10.700  12.922
79270W        W38531  11.147   3.775   2.661
79271W        W38532  36.591  19.627   5.136
79272W        W38533  23.677  42.869  12.569
79273W        W38534  30.554   7.889  12.363
79274W        W38535  28.055  40.509   0.795
79275W        W38536  24.580  30.585   2.672
79276W        W38537  44.813  33.111  11.975
79277W        W38538  28.026  35.880  10.975
79278W        W38539  20.624  33.408  13.938
79279W        W38540  44.758   3.807  12.066
79280W        W38541   3.920  31.090   2.805
79281W        W38542   0.948  23.184   2.371
79282W        W38543  31.112   5.259  10.566
79283W        W38544   5.877   9.726   5.281
79284W        W38545  16.206  31.940   4.289
79285W        W38546  26.189  14.621  11.544
79286W        W38547  12.121   8.741   3.730
79287W        W38548  31.495  27.574   3.743
79288W        W38549  25.669  18.713   3.723
79289W        W38550  17.265   8.216   2.762
79290W        W38551  12.645   2.227  12.931
79291W        W38552  22.633  26.163   2.329
79292W        W38553  33.498  20.587   3.245
79293W        W38554  37.086  44.446  12.072
79294W        W38555   1.940  25.145   3.806
79295W        W38556  19.195  44.905   2.745
79296W        W38557  20.579  43.013  11.877
79297W        W38558   5.796  11.337  14.410
79298W        W38559   8.321   3.826   3.791
79299W        W38560  39.033   9.671  12.390
79300W        W38561   6.287  20.742  14.434
79301W        W38562  11.810  36.899   3.387
79302W        W38563   0.776  41.408  13.439
79303W        W38564  10.173  27.943   1.904
79304W        W38565  11.647   0.911   1.429
79305W        W38566  19.578  31.430  14.844
79306W        W38567  40.032  19.177  10.570
79307W        W38568   7.817  36.902   3.830
79308W        W38569  10.233   5.399  11.922
79309W        W38570  34.598  15.127  12.033
79310W        W38571  26.651  38.971   5.179
79311W        W38572  37.026  11.355   1.731
79312W        W38573   9.855  38.960   2.707
79313W        W38574  13.799  41.523  11.994
79314W        W38575  36.470  44.487  13.051
79315W        W38576  21.021  22.668   4.714
79316W        W38577  30.927  21.519  12.426
79317W        W38578   6.726   6.744  14.841
79318W        W38579  21.709  11.799  11.467
79319W        W38580  43.332   4.401   1.225
79320W        W38581   7.404  14.624   3.341
79321W        W38582  10.252  39.329   5.109
79322W        W38583  37.356  35.087   3.149
79323W        W38584  36.095  34.510   9.923
79324W        W38585  20.195  23.036  10.055
79325W        W38586  21.253  44.501   1.249
79326W        W38587  33.392  26.975  12.944
79327W        W38588   5.279  41.002   0.359
79328W        W38589   5.303  17.789  14.463
79329W        W38590  29.160  33.037  13.799
79330W        W38591  27.546  16.291   3.183
79331W        W38592  19.102  39.872   0.427
79332W        W38593   3.396  30.929  14.432
79333W        W38594  35.992  19.744  14.951
79334W        W38595  37.042  14.113  13.426
79335W        W38596  18.643  21.661  13.061
79336W        W38597   4.236  33.058  13.984
79337W        W38598  43.814  10.296   1.878
79338W        W38599  20.741  20.553  13.369
79339W        W38600   7.239  26.007  13.001
79340W        W38601  26.002   4.380  14.286
79341W        W38602  26.534  30.003  14.945
79342W        W38603  11.856  43.438   3.653
79343W        W38604  12.187   1.394  13.827
79344W        W38605  11.664  43.891  12.887
79345W        W38606  14.833  11.796   1.365
79346W        W38607   7.229  39.345  11.996
79347W        W38608  43.866  40.013   3.279
79348W        W38609  37.476  18.121  12.973
79349W        W38610  42.459  41.916   0.272
79350W        W38611  35.411  32.894  12.001
79351W        W38612  23.012  26.177   0.418
79352W        W38613   7.833  33.606  14.847
79353W        W38614  16.670  33.428  14.378
79354W        W38615  17.681   0.827  13.390
79355W        W38616  11.266  31.936   3.236
79356W        W38617  35.474  27.471  11.410
79357W        W38618  10.255  20.598   4.699
79358W        W38619  10.307  20.033  12.482
79359W        W38620  34.034  27.544   0.967
79360W        W38621  41.875  40.439   1.315
79361W        W38622  30.523  36.064  14.979
79362W        W38623  28.435  12.700  10.616
79363W        W38624  19.647  11.242  12.923
79364W        W38625  43.800  13.207  10.977
79365W        W38626   6.859  39.931   2.826
79366W        W38627  24.133  19.207   1.780
79367W        W38628  43.403  22.121  13.356
79368W        W38629  35.939  15.683   4.347
79369W        W38630  18.096   9.371  10.923
79370W        W38631  34.445  18.075  13.800
79371W        W38632  32.627  18.556   1.334
79372W        W38633   3.396  43.820  13.906
79373W        W38634  22.053  25.068  11.907
79374W        W38635  18.631  16.158  12.033
79375W        W38636  41.016  40.522   3.376
79376W        W38637  24.510  24.027   4.165
79377W        W38638  36.525  35.897   4.182
79378W        W38639   6.420  37.357   2.407
79379W        W38640  38.837  38.989  10.893
79380W        W38641  40.487  15.817  12.358
79381W        W38642   9.204   6.314   4.620
79382W        W38643  43.319  17.801   4.747
79383W        W38644  34.878  40.008  13.878
79384W        W38645   3.351   3.294   0.340
79385W        W38646  43.985  31.030   1.394
79386W        W38647  11.130  35.425  13.050
79387W        W38648  32.037   0.920   1.399
79388W        W38649  23.515  41.847  10.556
79389W        W38650  23.592  39.479   3.385
79390W        W38651   8.400  21.700  14.830
79391W        W38652   6.880  13.294  14.025
79392W        W38653  41.504  22.158  12.824
79393W        W38654  29.169  21.629  10.408
79394W        W38655  22.606  41.372   0.469
79395W        W38656  17.204  24.076  11.017
79396W        W38657   5.345  27.047   4.278
79397W        W38658  35.577  42.403   0.830
79398W        W38659   7.893  27.655   1.396
79399W        W38660  25.175   3.298  13.905
79400W        W38661  15.784   7.889   0.836
79401W        W38662  10.322  21.085   1.766
79402W        W38663  22.173  24.085   1.842
79403W        W38664  40.002  34.545   2.781
79404W        W38665   3.226  44.767   4.809
79405W        W38666  39.438  29.572   4.292
79406W        W38667  25.983  32.989  14.399
79407W        W38668  19.054  21.048  14.446
79408W        W38669  40.049  18.280  14.284
79409W        W38670  15.320   6.770   3.314
79410W        W38671  19.055  25.128   1.288
79411W        W38672  24.118  40.388  14.816
79412W        W38673  11.672  12.163   2.678
79413W        W38674   1.454  37.995  12.948
79414W        W38675  36.088  10.658  13.918
79415W        W38676  11.242  29.619   3.751
79416W        W38677  25.592   2.815   1.233
79417W        W38678   3.746  27.516   0.342
79418W        W38679  41.384  42.429   1.333
79419W        W38680  12.312  24.546   0.897
79420W        W38681  27.690  37.965   1.338
79421W        W38682   4.443  25.518  13.419
79422W        W38683   1.396   4.393  13.314
79423W        W38684  29.535  22.183  13.935
79424W        W38685  39.021   2.456   1.732
79425W        W38686  23.105  27.490   1.879
79426W        W38687  40.048  39.328   4.322
79427W        W38688  37.065  26.122   1.731
79428W        W38689  32.036  16.264   1.835
79429W        W38690  11.234  12.126   1.238
79430W        W38691  12.262  30.036   4.179
79431W        W38692  12.647   0.482  11.020
79432W        W38693  25.126  43.938   0.471
79433W        W38694  28.626  24.496  14.820
79434W        W38695   3.452  43.936   2.232
79435W        W38696  15.181  12.614   2.769
79436W        W38697  22.087  22.137  14.454
79437W        W38698  39.976  24.606  14.413
79438W        W38699  35.978  33.508   3.823
79439W        W38700  42.952  27.075   2.689
79440W        W38701  37.840  27.652   0.868
79441W        W38702   3.940  40.810  13.407
79442W        W38703  37.961  18.610   1.223
79443W        W38704  19.105   6.408  13.493
79444W        W38705  32.969  39.990   0.474
79445W        W38706  34.556  10.642   4.773
79446W        W38707  43.323  44.385  11.940
79447W        W38708   3.754  29.603  14.342
79448W        W38709  37.381  27.061   0.754
79449W        W38710  14.715  11.636  13.422
79450W        W38711   2.811  17.301   1.411
79451W        W38712  40.893  29.147   0.472
79452W        W38713  43.776   7.358  14.942
79453W        W38714  33.482  28.947   0.799
79454W        W38715  32.123  31.119  13.492
79455W        W38716   3.757  27.545   1.445
79456W        W38717  15.707  14.115  12.439
79457W        W38718  13.761  18.641   4.214
79458W        W38719  38.493  34.043   4.662
79459W        W38720  42.317  19.770   0.319
79460W        W38721  29.550   1.286   2.812
79461W        W38722  44.817  40.830   3.743
79462W        W38723   3.281  27.153   4.656
79463W        W38724   9.350  26.063  14.277
79464W        W38725  39.972  10.273  12.500
79465W        W38726  35.512  33.903  14.511
79466W        W38727   2.730   6.718  11.422
79467W        W38728  25.528  23.108   1.736
79468W        W38729  40.939   4.302   1.440
79469W        W38730  19.114  30.530  11.889
79470W        W38731  17.255  32.053  10.913
79471W        W38732  18.546  23.210  12.468
79472W        W38733  44.774  21.200  10.578
79473W        W38734  27.973  35.949  10.618
79474W        W38735  27.628   5.298  10.890
79475W        W38736  39.033  17.229  11.588
79476W        W38737   3.818  25.652  12.886
79477W        W38738  19.074   2.931  12.022
79478W        W38739  20.210  11.133   2.336
79479W        W38740  11.294   8.357   0.734
79480W        W38741  12.273  15.257  11.550
79481W        W38742  44.350  14.262   5.318
79482W        W38743  20.528  23.717  10.446
79483W        W38744   8.819  38.387  13.352
79484W        W38745  20.703  36.533  13.830
79485W        W38746  25.568   9.747   0.380
79486W        W38747  20.754  40.388   3.799
79487W        W38748  15.192   4.762  14.467
79488W        W38749   8.824  35.420   4.767
79489W        W38750   4.787  32.000  12.498
79490W        W38751  12.215  19.776  10.974
79491W        W38752  10.326  18.259   2.781
79492W        W38753  10.143   0.881   1.273
79493W        W38754  29.589  22.158  12.949
79494W        W38755   3.446  43.488  10.641
79495W        W38756  14.711  30.113  11.902
79496W        W38757   8.288  11.692   0.482
79497W        W38758  44.879  18.545   4.725
79498W        W38759  20.735  19.228  11.386
79499W        W38760  29.029  40.950  12.564
79500W        W38761  33.409  38.887  13.347
79501W        W38762   0.429  27.177  14.784
79502W        W38763   7.397  33.914  11.855
79503W        W38764   4.927  37.989   4.650
79504W        W38765   0.845  30.981   0.863
79505W        W38766  18.676  30.433  14.513
79506W        W38767   6.821  25.982   1.391
79507W        W38768   5.910  27.018  13.412
79508W        W38769   3.867  37.430   0.314
79509W        W38770   3.403  22.063   1.799
79510W        W38771  39.451  19.089   1.716
79511W        W38772   7.879  27.676   3.775
79512W        W38773  33.495   4.216   4.169
79513W        W38774  27.587   4.324   1.263
79514W        W38775  13.326  11.149   2.826
79515W        W38776  30.977  29.628  10.455
79516W        W38777  11.748  13.270  12.429
79517W        W38778  33.391  14.768   2.380
79518W        W38779  27.587  11.845   0.358
79519W        W38780  33.582  18.218  14.438
79520W        W38781  42.359   2.929  14.447
79521W        W38782   3.764   7.840   2.719
79522W        W38783  13.255  25.701   2.244
79523W        W38784  19.548  43.780   4.304
79524W        W38785  33.520  31.575  11.062
79525W        W38786   9.277  24.588  11.055
79526W        W38787  44.433  21.171   9.954
79527W        W38788  15.270  32.594  14.516
79528W        W38789  18.628  32.395   1.268
79529W        W38790  27.115  40.487  11.408
79530W        W38791  24.108  26.142  13.871
79531W        W38792  24.623  34.059  14.999
79532W        W38793  36.844   2.448  14.442
79533W        W38794  32.449  21.194   2.731
79534W        W38795  43.288  33.982   1.899
79535W        W38796  29.562  23.569  14.287
79536W        W38797  20.035   3.918   2.384
79537W        W38798  31.905  43.875  13.013
79538W        W38799  29.156  40.402   1.324
79539W        W38800  12.185   5.231   3.385
79540W        W38801  18.691  17.260   3.859
79541W        W38802  13.161   2.414  14.810
79542W        W38803  16.093  13.620  12.354
79543W        W38804   6.677   1.882  14.893
79544W        W38805  27.487  17.279   2.848
79545W        W38806   5.888  36.518   2.678
79546W        W38807   2.930  32.534   1.865
79547W        W38808  10.752  35.967  12.993
79548W        W38809  23.552  43.507   2.825
79549W        W38810   2.386  36.392  14.917
79550W        W38811  30.416  12.804  10.066
79551W        W38812  21.586   0.338   3.797
79552W        W38813  20.717  23.659  10.936
79553W        W38814  31.483   3.837  12.893
79554W        W38815   7.813   7.861  14.335
79555W        W38816  30.964  38.007  14.003
79556W        W38817  18.247  19.539   0.814
79557W        W38818  32.476   9.373  11.396
79558W        W38819  10.709   0.354   0.908
79559W        W38820  44.480  28.078   2.327
79560W        W38821  11.669  32.438   2.223
79561W        W38822   1.397  30.461   4.616
79562W        W38823  38.932  37.883  12.495
79563W        W38824  34.897   9.164  14.910
79564W        W38825  39.316  31.643  11.543
79565W        W38826  13.724  23.159  11.856
79566W        W38827  27.691  17.141   3.822
79567W        W38828   3.815  15.264   4.331
79568W        W38829  15.207  37.986  11.095
79569W        W38830  36.968  12.207   0.911
79570W        W38831  23.136   3.443   2.751
79571W        W38832  42.908  26.982   4.159
79572W        W38833  26.109  20.755   2.271
79573W        W38834   9.737  34.395  12.579
79574W        W38835  20.644  15.803  10.618
79575W        W38836  25.113  34.441   2.768
79576W        W38837  30.096  21.549  14.399
79577W        W38838  30.907  33.488   9.482
79578W        W38839  28.627  15.782  10.614
79579W        W38840  43.823   9.712   2.774
79580W        W38841  26.663  15.715   3.669
79581W        W38842  43.806  34.599  14.967
79582W        W38843  25.166  37.496  12.883
79583W        W38844   5.870  38.401  12.536
79584W        W38845   6.312   0.917   4.787
79585W        W38846  25.664   2.722  11.601
79586W        W38847  12.661  30.582   0.305
79587W        W38848  17.587   9.686  10.415
79588W        W38849  35.373  23.532   4.256
79589W        W38850  34.971  27.162  11.954
79590W        W38851   7.754   5.297  11.523
79591W        W38852  36.946  31.479  12.930
79592W        W38853   9.654  39.864   1.323
79593W        W38854   1.379  20.179   3.173
79594W        W38855   1.854   8.226  12.506
79595W        W38856   7.765  41.430  11.870
79596W        W38857  13.736  15.106   0.286
79597W        W38858   7.710  13.719   1.363
79598W        W38859   3.870  16.303  14.031
79599W        W38860  11.282  27.667  10.609
79600W        W38861  18.552  44.396  13.038
79601W        W38862   5.310  38.512   1.889
79602W        W38863  38.418   9.360  11.081
79603W        W38864   6.772  14.294   2.892
79604W        W38865  17.729  28.965   3.246
79605W        W38866  40.909  13.661  13.022
79606W        W38867  36.367  28.565  11.939
79607W        W38868  23.528  24.704  12.857
79608W        W38869  18.666  18.785   4.729
79609W        W38870   3.732  34.421   2.826
79610W        W38871   8.862   1.455  12.037
79611W        W38872  29.622  40.828   2.774
79612W        W38873  32.079  25.485   1.361
79613W        W38874  18.263  16.103   0.451
79614W        W38875  24.145  28.161  11.940
79615W        W38876  10.170  20.596   2.771
79616W        W38877  21.700  31.571  13.846
79617W        W38878   5.914  33.056  11.127
79618W        W38879   9.881  19.696  10.927
79619W        W38880  43.277  31.589  14.327
79620W        W38881  39.924  43.016  13.871
79621W        W38882  11.300   2.388   2.400
79622W        W38883  40.838  30.568  13.381
79623W        W38884  43.359  20.533   0.376
79624W        W38885  34.429  21.686   2.714
79625W        W38886  11.195  16.688  12.849
79626W        W38887  30.613  10.636   2.746
79627W        W38888  16.274  18.293   2.389
79628W        W38889  19.699  23.114  11.561
79629W        W38890  30.139   7.814  10.960
79630W        W38891   6.870  10.750  11.864
79631W        W38892  30.068  19.110  12.032
79632W        W38893   6.224  12.304  10.544
79633W        W38894  28.487  23.525   3.187
79634W        W38895  11.334   6.718  12.496
79635W        W38896  15.700  37.548  10.530
79636W        W38897  10.368  25.575   3.331
79637W        W38898   2.408  14.174  14.953
79638W        W38899  21.545  38.421   1.351
79639W        W38900   0.460  17.142  11.382
79640W        W38901  20.111  37.842   2.703
79641W        W38902  34.522   9.707   2.260
79642W        W38903  26.633   4.886  12.956
79643W        W38904  43.350  28.596  12.899
79644W        W38905  26.066   6.704  14.499
79645W        W38906  22.549  28.494  14.344
79646W        W38907  10.176  32.508  14.460
79647W        W38908  29.441  33.902  14.472
79648W        W38909  18.726  21.559  14.904
79649W        W38910  10.248  17.243   5.157
79650W        W38911  27.644  20.109  14.936
79651W        W38912  32.439  17.195  13.926
79652W        W38913   0.419  41.538  12.424
79653W        W38914  15.810  12.610   3.773
79654W        W38915  41.971  27.993   4.216
79655W        W38916  44.933  11.272   0.306
79656W        W38917  27.450  34.519   3.236
79657W        W38918  15.092  29.153   9.439
79658W        W38919  37.470  42.839  14.362
79659W        W38920   2.429   1.389  11.063
79660W        W38921   0.485  11.691   4.280
79661W        W38922  25.616  23.534  11.558
79662W        W38923  32.997  28.548   0.416
79663W        W38924  40.351  39.470  14.277
79664W        W38925   7.827  19.714  10.065
79665W        W38926  43.793  18.691  14.985
79666W        W38927   3.717  31.923   3.723
79667W        W38928   3.251  38.428   3.848
79668W        W38929  14.144   4.925  13.018
79669W        W38930  39.470  41.294  14.839
79670W        W38931   9.309  18.751   3.728
79671W        W38932   3.753  38.362   1.708
79672W        W38933  37.576   2.382   1.432
79673W        W38934  24.062  39.841  11.061
79674W        W38935  30.157   5.822   3.636
79675W        W38936  44.862  31.920  13.847
79676W        W38937   2.771  21.630  14.391
79677W        W38938  25.553  34.938  14.360
79678W        W38939  14.195  16.103   1.378
79679W        W38940  25.538   5.876  12.568
79680W        W38941  35.372  13.209   2.229
79681W        W38942  27.458  12.314  13.959
79682W        W38943   6.287  12.674   5.319
79683W        W38944   8.374  25.552  11.935
79684W        W38945   0.970   4.429  11.422
79685W        W38946  10.865   3.342   2.895
79686W        W38947  26.079  17.117  11.089
79687W        W38948   5.216  30.587  13.811
79688W        W38949  11.791  17.777  12.046
79689W        W38950  23.034  34.015  13.925
79690W        W38951  35.416  37.909   0.283
79691W        W38952  40.522  19.100  14.815
79692W        W38953  15.304   9.285   4.208
79693W        W38954  14.625  37.418   0.462
79694W        W38955   0.341  33.928   3.152
79695W        W38956  32.128  39.001  11.449
79696W        W38957  16.307   8.724   0.447
79697W        W38958  14.329  43.360   4.153
79698W        W38959   9.709   5.311   4.670
79699W        W38960  42.503  40.898   3.373
79700W        W38961  36.952   1.849   1.339
79701W        W38962  19.189   2.340   3.693
79702W        W38963  23.590  17.605   0.424
79703W        W38964  11.731  32.924  12.341
79704W        W38965  22.103   4.892   0.736
79705W        W38966  42.864  17.106  10.424
79706W        W38967  14.645  31.908   0.851
79707W        W38968  17.104   6.677  10.466
79708W        W38969  42.397  21.127   3.180
79709W        W38970  14.235  28.082  11.061
79710W        W38971  19.158  43.482  10.525
79711W        W38972  14.739   7.385  14.413
79712W        W38973  42.838  12.620  11.418
79713W        W38974  12.763   6.682   2.262
79714W        W38975  21.037  23.554  13.850
79715W        W38976  15.220   6.212   2.799
79716W        W38977  11.151  24.551   4.674
79717W        W38978  12.691   5.242  12.045
79718W        W38979   7.795   9.737  11.034
79719W        W38980  30.091  29.543   2.697
79720W        W38981  24.188  17.073  12.039
79721W        W38982  14.157   4.712  12.568
79722W        W38983  24.521   6.258  14.437
79723W        W38984   0.805  12.692  13.031
79724W        W38985  21.227  36.587   3.259
79725W        W38986   8.192  24.109  14.300
79726W        W38987  18.612  16.800   4.244
79727W        W38988  36.935   2.775   3.208
79728W        W38989  40.920  19.232  12.551
79729W        W38990  17.213  20.594  13.926
79730W        W38991  25.214   6.788   4.787
79731W        W38992  33.078   6.744  11.489
79732W        W38993  33.004   7.858  14.365
79733W        W38994  36.477  28.560  10.410
79734W        W38995  17.074   3.439  12.015
79735W        W38996   9.702  30.908  11.027
79736W        W38997  31.129  20.083   4.312
79737W        W38998  33.502   2.905   1.747
79738W        W38999  44.864  44.887   0.865
79739W        W39000  29.010  18.678  12.038
79740W        W39001  32.057  44.312  10.918
79741W        W39002   2.426  17.627   4.802
79742W        W39003   9.781  24.724  10.416
79743W        W39004  18.183   8.260  13.830
79744W        W39005  39.029  18.663  13.838
79745W        W39006   1.301  32.477   4.218
79746W        W39007  21.205  17.642  12.070
79747W        W39008  36.090   4.396   2.204
79748W        W39009   6.313  35.571  14.440
79749W        W39010  14.621  28.930   3.214
79750W        W39011  26.976  15.803   3.284
79751W        W39012  29.141  28.979  14.958
79752W        W39013  24.003   5.800  12.364
79753W        W39014  38.399  41.913   0.787
79754W        W39015  41.479  32.027  13.894
79755W        W39016  43.842   1.312  12.879
79756W        W39017  20.068   0.370  14.454
79757W        W39018  26.528  40.047  14.428
79758W        W39019   6.708   2.822   0.781
79759W        W39020  22.073  31.475   4.217
79760W        W39021   3.792  26.044   4.308
79761W        W39022  44.965  36.424   0.376
79762W        W39023  40.896  31.614  13.960
79763W        W39024   9.786   4.831  12.881
79764W        W39025  12.737  36.522  11.026
79765W        W39026  35.494  23.630   3.239
79766W        W39027  27.185   0.806   3.210
79767W        W39028  34.474  30.646  14.994
79768W        W39029  25.604  21.645  12.890
79769W        W39030   1.965  31.470  12.970
79770W        W39031  29.548  43.387  12.832
79771W        W39032  41.814  19.538  12.855
79772W        W39033  23.109  14.270   0.741
79773W        W39034  40.910   9.648   4.604
79774W        W39035   0.487  20.162   3.791
79775W        W39036  27.499  36.519  13.925
79776W        W39037  21.624  27.070  13.817
79777W        W39038  32.553  21.638   3.868
79778W        W39039  19.662  42.887  12.932
79779W        W39040  22.073   5.233  12.362
79780W        W39041  26.091  40.406   1.760
79781W        W39042  35.489   1.284   4.804
79782W        W39043  10.851   7.395   2.380
79783W        W39044  33.490  32.460   2.234
79784W        W39045   6.786  33.052  14.013
79785W        W39046  32.096  18.093  14.917
79786W        W39047   9.374  30.935   4.809
79787W        W39048  39.881   1.465  10.493
79788W        W39049  32.590  44.325   3.781
79789W        W39050   1.281  22.202   3.147
79790W        W39051  29.077  31.638   1.360
79791W        W39052  11.244  12.646  14.001
79792W        W39053  43.429  31.941  10.532
79793W        W39054  21.176  38.009  12.894
79794W        W39055  12.832   3.909  12.056
79795W        W39056  19.237  19.116   2.852
79796W        W39057  31.121  21.690  12.073
79797W        W39058  22.525  31.091   1.912
79798W        W39059  36.453  16.218   2.246
79799W        W39060  25.627   2.786  10.887
79800W        W39061   8.901  30.006   3.854
79801W        W39062  33.544   2.829  12.046
79802W        W39063  35.901  28.464   2.841
79803W        W39064  39.918   1.410  11.506
79804W        W39065  19.647  17.586  13.408
79805W        W39066  34.422   3.334   0.736
79806W        W39067  16.223  29.538  12.844
79807W        W39068  13.238  17.613  11.484
79808W        W39069  38.400  40.806   1.826
79809W        W39070  34.927  37.427  11.066
79810W        W39071  14.676  37.477   1.289
79811W        W39072  29.657  18.635   4.728
79812W        W39073  24.616   3.294  11.545
79813W        W39074   0.445  28.959  10.426
79814W        W39075   9.722  44.805   0.363
79815W        W39076   6.229  15.667   4.239
79816W        W39077  39.042  22.605   2.273
79817W        W39078  17.718  24.032   0.904
79818W        W39079   0.798  27.638   0.825
79819W        W39080   2.235   4.414   0.456
79820W        W39081  28.036  19.045   3.368
79821W        W39082  27.618  31.424   0.844
79822W        W39083  13.333  43.892   3.313
79823W        W39084  14.201   5.373  11.883
79824W        W39085   5.258  20.111  14.997
79825W        W39086  39.917  19.751  13.491
79826W        W39087  41.397  30.630  10.592
79827W        W39088  17.282  10.213   1.886
79828W        W39089   8.330   1.827  10.429
79829W        W39090   5.193   3.227   3.861
79830W        W39091  27.616  10.801   1.433
79831W        W39092  17.215  16.276   2.335
79832W        W39093  39.984  28.007  12.543
79833W        W39094  21.032  33.571   1.745
79834W        W39095  39.359  43.475   1.278
79835W        W39096  20.250  44.348  11.022
79836W        W39097  26.461  36.384   1.359
79837W        W39098  18.227  17.107  10.471
79838W        W39099  19.238  24.521  13.006
79839W        W39100  21.250  20.555   0.459
79840W        W39101  38.911  14.794   1.309
79841W        W39102  43.405  28.459   2.770
79842W        W39103  43.944  13.666  12.834
79843W        W39104  33.071   2.848  11.468
79844W        W39105  19.546  11.846  10.634
79845W        W39106  29.110   9.237  10.438
79846W        W39107  17.735   4.207   3.334
79847W        W39108  12.343  37.962   0.360
79848W        W39109  25.976  20.268  11.027
79849W        W39110  27.458   3.419   1.357
79850W        W39111  24.604   5.370   2.239
79851W        W39112  15.230   7.357  14.281
79852W        W39113  14.106  39.852   1.222
79853W        W39114   3.914  44.837  14.850
79854W        W39115  23.729   3.232  14.279
79855W        W39116  44.841  18.119  12.862
79856W        W39117  26.173  20.650  12.489
79857W        W39118  22.046  11.261  14.325
79858W        W39119  16.142  43.394   1.878
79859W        W39120  21.729  38.570   4.275
79860W        W39121  32.965  16.236  13.796
79861W        W39122  25.576  42.823  11.915
79862W        W39123  19.689  16.575  13.840
79863W        W39124  19.063  42.288  14.875
79864W        W39125  17.602  36.886   0.837
79865W        W39126  42.934   1.417   0.812
79866W        W39127   0.293  21.228  13.962
79867W        W39128  34.427  27.490   4.304
79868W        W39129  30.581  38.016   5.217
79869W        W39130   6.790  39.384   4.659
79870W        W39131  38.955  22.075   2.749
79871W        W39132  22.576  12.205  11.865
79872W        W39133  38.484  21.578  11.450
79873W        W39134  34.080  12.720  14.276
79874W        W39135   2.472  29.076   1.890
79875W        W39136  18.775  16.316   3.669
79876W        W39137  36.390  10.750   3.161
79877W        W39138  43.285  22.522   2.403
79878W        W39139  13.806  37.513  13.815
79879W        W39140  44.780   9.355  13.836
79880W        W39141  11.838  31.128   3.742
79881W        W39142   1.790  32.435  13.390
79882W        W39143   4.266  28.471   0.919
79883W        W39144  11.151  11.318  13.367
79884W        W39145  29.992  25.012   2.724
79885W        W39146  40.899  33.995  13.943
79886W        W39147  15.599  14.690   2.791
79887W        W39148   7.339   5.865  14.368
79888W        W39149  31.970  10.655  12.018
79889W        W39150  26.459   7.263   2.746
79890W        W39151   7.713  43.453  10.544
79891W        W39152  14.687  11.283   3.821
79892W        W39153  23.683  39.901   4.599
79893W        W39154  26.995  24.552   2.780
79894W        W39155  18.675  20.739   1.915
79895W        W39156  25.582  21.200   0.432
79896W        W39157  21.093  33.576  14.816
79897W        W39158   2.235   1.427   3.281
79898W        W39159  37.067  22.712   1.865
79899W        W39160  19.682  28.170   0.965
79900W        W39161   3.285  36.992  10.422
79901W        W39162   2.430   3.224  14.905
79902W        W39163   2.789  10.711  14.820
79903W        W39164  11.864  44.351  13.506
79904W        W39165  17.755  41.905   4.640
79905W        W39166  32.088  29.160  13.843
79906W        W39167   5.224  43.356   4.257
79907W        W39168  35.443   9.390  10.440
79908W        W39169  26.191  20.264  10.494
79909W        W39170   2.824  15.208  12.499
79910W        W39171  44.796   2.451  11.075
79911W        W39172  31.070  23.030  11.539
79912W        W39173  29.081  24.109   3.305
79913W        W39174  15.763  11.143   0.392
79914W        W39175  40.537  21.535   3.790
79915W        W39176   1.874   1.962  13.892
79916W        W39177  44.325  42.425  10.457
79917W        W39178  12.650  43.284   2.210
79918W        W39179   7.271  17.284   2.777
79919W        W39180  12.342  28.113   3.318
79920W        W39181  43.829   0.247  11.523
79921W        W39182  25.108  23.516   1.843
79922W        W39183  27.628  33.594   1.898
79923W        W39184  42.018  35.927   9.569
79924W        W39185   1.430  14.820   3.728
79925W        W39186  11.762  22.510  10.061
79926W        W39187  44.464  33.042   4.230
79927W        W39188  27.651  21.189  13.004
79928W        W39189  16.587   8.368  12.967
79929W        W39190  12.723  13.664   0.269
79930W        W39191   4.208  43.821  12.831
79931W        W39192   3.442  40.540   4.792
79932W        W39193  34.481  38.435   4.668
79933W        W39194   1.391  29.134  14.015
79934W        W39195  26.542   8.231  14.406
79935W        W39196  20.177  40.859   3.766
79936W        W39197  15.635  33.011  13.907
79937W        W39198  35.925  40.867   2.395
79938W        W39199  20.538  40.443   4.343
79939W        W39200  23.634   4.322   4.148
79940W        W39201   1.837  23.553   4.278
79941W        W39202   8.836  26.652  11.087
79942W        W39203   3.937  29.439  13.386
79943W        W39204  11.129  25.601   4.231
79944W        W39205  27.474  27.570  13.823
79945W        W39206  17.779  36.969   3.789
79946W        W39207   9.268  35.105  12.502
79947W        W39208  14.235  19.698   1.884
79948W        W39209  31.100   3.401  10.598
79949W        W39210  42.942  32.586  11.048
79950W        W39211  11.761  16.756  11.038
79951W        W39212  30.551  35.441  13.883
79952W        W39213  43.809   0.822  11.951
79953W        W39214   2.731   7.732   4.672
79954W        W39215  31.546  32.443  12.374
79955W        W39216  29.460  28.004   5.105
79956W        W39217   0.345   1.795   0.483
79957W        W39218  28.061  32.071  13.852
79958W        W39219   4.803  31.952   0.373
79959W        W39220  41.404  27.996   4.258
79960W        W39221  22.167   7.311  10.974
79961W        W39222   8.898  16.085   3.851
79962W        W39223  12.286  36.398   4.288
79963W        W39224  39.947  13.185   0.400
79964W        W39225  24.494  38.491  12.415
79965W        W39226   5.388  42.400  11.592
79966W        W39227  23.544  35.577   3.363
79967W        W39228  28.515   2.407   4.753
79968W        W39229  34.966  40.857  13.955
79969W        W39230  23.585  32.023   0.851
79970W        W39231  21.577  31.502  12.562
79971W        W39232  24.141  41.820   1.779
79972W        W39233   9.188  35.509   0.791
79973W        W39234  12.278  26.150   4.327
79974W        W39235  31.495   0.786  10.633
79975W        W39236  16.140  43.486   4.705
79976W        W39237  12.675  37.535  12.580
79977W        W39238  18.761  32.602  13.927
79978W        W39239  32.004  38.027   4.201
79979W        W39240  14.101   7.183   0.285
79980W        W39241  41.928   1.363  13.962
79981W        W39242  28.103  43.767  10.449
79982W        W39243  44.441  34.475  10.119
79983W        W39244   9.851  15.266  11.034
79984W        W39245   8.714   8.850  12.408
79985W        W39246   2.840  23.152  10.507
79986W        W39247  36.415  10.735   2.663
79987W        W39248  35.417   8.655  13.898
79988W        W39249  18.088   9.819  10.617
79989W        W39250   3.404  23.582   4.661
79990W        W39251  15.164  43.947   1.227
79991W        W39252  19.115  18.701   1.851
79992W        W39253  33.018  19.064   3.849
79993W        W39254  42.940   4.430  13.036
79994W        W39255  15.582  18.769  11.446
79995W        W39256  42.488   2.334  12.866
79996W        W39257  41.885  41.527   3.807
79997W        W39258   2.380  16.588   3.281
79998W        W39259  11.164   2.818   3.151
79999W        W39260  28.538  36.452   3.720
80000W        W39261  21.620  44.487  12.427
80001W        W39262  20.185   3.916  14.016
80002W        W39263   8.260  21.512   3.650
80003W        W39264  34.929  43.389   4.283
80004W        W39265  18.167  30.413  12.406
80005W        W39266  40.339   3.948   4.337
80006W        W39267  43.959  33.892  10.417
80007W        W39268  35.467  36.353   2.701
80008W        W39269   3.719  37.882   0.897
80009W        W39270  40.391  11.225  11.946
80010W        W39271   3.443  30.936   1.419
80011W        W39272  16.674  30.623   0.246
80012W        W39273  13.343  19.218   0.745
80013W        W39274  10.314  16.665  13.801
80014W        W39275   9.277   3.754   2.363
80015W        W39276  34.438  19.560  12.356
80016W        W39277  17.575  23.186   5.148
80017W        W39278  29.521  39.387  14.984
80018W        W39279  44.879  24.202   0.286
80019W        W39280  34.994  21.583   3.221
80020W        W39281  25.494  23.723  13.924
80021W        W39282   3.455  44.003  12.994
80022W        W39283   2.785  35.867   4.214
80023W        W39284   0.789  23.651   2.213
80024W        W39285  43.884  35.530   1.263
80025W        W39286  16.249  29.052   2.279
80026W        W39287  32.472  31.131   4.257
80027W        W39288  25.973  32.948   2.255
80028W        W39289  17.229  13.222  12.981
80029W        W39290  22.540  39.830  10.619
80030W        W39291  34.083   4.305  11.928
80031W        W39292  32.900  15.738  10.599
80032W        W39293  43.818  28.464   4.254
80033W        W39294   6.314  20.589  12.528
80034W        W39295   7.176  42.971  11.391
80035W        W39296  38.441  24.705  14.029
80036W        W39297  26.631   7.397   3.380
80037W        W39298   9.879  21.092  10.535
80038W        W39299  28.013   7.212  12.433
80039W        W39300  15.779   5.873   1.760
80040W        W39301   8.296  29.446   2.318
80041W        W39302  39.344   0.279   0.381
80042W        W39303  34.554   2.751  11.924
80043W        W39304  18.754   5.324  11.423
80044W        W39305  14.230  36.383  10.437
80045W        W39306  40.310  35.925  14.445
80046W        W39307  28.065  26.491  13.407
80047W        W39308  39.355  30.636   1.374
80048W        W39309  33.995  26.972   1.875
80049W        W39310   2.832  25.211   1.327
80050W        W39311  31.054  32.934  12.485
80051W        W39312  11.148   1.971   2.194
80052W        W39313  35.505   1.407  13.936
80053W        W39314   7.682  31.019   0.388
80054W        W39315  36.370  39.915   4.632
80055W        W39316  42.913  11.858  13.333
80056W        W39317   3.248  26.485  11.084
80057W        W39318   8.221  23.624   4.212
80058W        W39319   7.749   7.224  10.574
80059W        W39320  15.755  12.244  11.447
80060W        W39321  18.591  44.288   5.233
80061W        W39322  21.112  43.899   0.313
80062W        W39323  27.998  42.438   4.691
80063W        W39324  25.127  43.407   0.835
80064W        W39325  16.310  40.405   0.772
80065W        W39326  13.761  32.103   0.874
80066W        W39327  27.006  28.181   4.714
80067W        W39328   9.308  13.645   9.554
80068W        W39329  42.316  11.163   2.212
80069W        W39330   1.836  26.025  13.792
80070W        W39331  44.906  22.140  12.011
80071W        W39332  30.046  21.644  13.545
80072W        W39333  38.391   2.729   1.750
80073W        W39334  10.686  24.652  13.832
80074W        W39335  33.926  11.183  10.059
80075W        W39336  27.495  23.547  12.445
80076W        W39337  33.605   0.382  11.909
80077W        W39338  33.605  39.380  11.050
80078W        W39339   1.841  20.235  10.583
80079W        W39340  33.499  22.592  13.965
80080W        W39341  33.101  31.916   4.675
80081W        W39342  14.597  10.850   1.753
80082W        W39343  32.633   6.253  10.636
80083W        W39344  13.230  22.024  13.938
80084W        W39345   6.850  35.469  14.293
80085W        W39346   6.916  35.963  11.556
80086W        W39347   4.381  38.352  11.095
80087W        W39348  12.214  23.657   1.888
80088W        W39349  42.879  21.074  10.532
80089W        W39350  11.365   9.318   1.337
80090W        W39351  41.016  24.129   0.303
80091W        W39352  21.635   1.248   1.820
80092W        W39353   4.722  40.852   2.328
80093W        W39354   7.857  41.518   3.281
80094W        W39355   9.693  23.154   3.848
80095W        W39356  16.642  31.589   0.356
80096W        W39357  16.680  28.132  14.949
80097W        W39358  17.678   9.808  11.110
80098W        W39359   8.661  21.121   0.727
80099W        W39360  24.563  10.651  11.584
80100W        W39361   4.791   9.772   0.376
80101W        W39362  33.070  19.196   0.252
80102W        W39363  43.947   9.216   0.422
80103W        W39364  17.184   8.400  13.045
80104W        W39365  21.712  29.030  11.085
80105W        W39366  15.147  15.231  11.089
80106W        W39367  41.411  17.677   4.681
80107W        W39368  37.491  31.598   2.246
80108W        W39369  32.101   3.302  10.522
80109W        W39370  14.309   4.232  12.961
80110W        W39371  41.537  39.401   0.803
80111W        W39372  20.686  38.947   2.676
80112W        W39373   0.745  33.903  12.484
80113W        W39374   1.851  23.588   1.324
80114W        W39375  17.564  22.041   1.245
80115W        W39376  40.016  23.523  10.919
80116W        W39377   5.718  20.110   4.188
80117W        W39378  15.596  28.595   0.737
80118W        W39379  44.968   8.300  13.346
80119W        W39380  44.380  41.975  14.840
80120W        W39381   0.287  20.687   0.338
80121W        W39382  42.338  33.545   4.619
80122W        W39383  44.258  16.595  11.570
80123W        W39384  16.775  42.891   1.712
80124W        W39385  16.196  13.174  12.057
80125W        W39386  43.360   0.480  12.442
80126W        W39387  26.507   2.846   2.195
80127W        W39388  21.556   8.219   0.322
80128W        W39389  44.799  23.030  10.483
80129W        W39390   8.739   3.308  11.521
80130W        W39391  33.521  40.924   0.920
80131W        W39392   5.856  42.941   1.798
80132W        W39393  15.680   9.379   4.248
80133W        W39394   9.354  32.011   3.288
80134W        W39395  20.539  25.542  14.867
80135W        W39396  23.010  29.939   4.699
80136W        W39397  26.983  43.456   4.738
80137W        W39398  19.283  38.405   4.198
80138W        W39399   2.303  18.193   4.610
80139W        W39400  25.587  22.160  13.794
80140W        W39401  39.455  39.000  11.997
80141W        W39402  29.541  44.951  13.831
80142W        W39403  29.592  21.216  12.906
80143W        W39404   9.837  11.836   4.346
80144W        W39405  34.389  29.949  10.952
80145W        W39406  13.184   9.318   3.723
80146W        W39407   4.231   6.781   4.599
80147W        W39408  30.457  44.946  11.039
80148W        W39409  33.544   3.931   0.785
80149W        W39410  44.298   8.725  13.056
80150W        W39411  37.955   3.403   2.336
80151W        W39412   4.298   7.287  10.996
80152W        W39413   8.754   3.754   1.216
80153W        W39414   6.227  15.267  12.071
80154W        W39415  23.006  32.437   4.789
80155W        W39416  31.145  30.146   1.365
80156W        W39417   1.470  31.536   1.902
80157W        W39418  11.853   3.895  14.357
80158W        W39419   8.361   8.353  14.361
80159W        W39420   6.761  23.638   4.272
80160W        W39421  24.058  16.289  14.947
80161W        W39422  30.157  25.181  11.863
80162W        W39423  32.986  29.455   2.867
80163W        W39424   5.889  18.218   4.632
80164W        W39425  18.630  12.787  14.417
80165W        W39426  15.109  16.771  10.437
80166W        W39427  42.898  44.757   2.808
80167W        W39428  39.383   9.171   1.760
80168W        W39429  42.969   5.306  14.924
80169W        W39430  22.019  22.530   3.687
80170W        W39431  27.186  43.494   4.298
80171W        W39432  38.959  28.022   2.316
80172W        W39433   5.205  19.102   2.227
80173W        W39434   8.662  23.597  10.546
80174W        W39435  43.994   8.269  13.795
80175W        W39436  39.008  39.946  12.404
80176W        W39437  11.639  13.760   3.176
80177W        W39438  18.161  17.643  14.000
80178W        W39439  37.930   4.816   3.352
80179W        W39440  39.558  31.099   3.824
80180W        W39441  36.490   9.696   0.298
80181W        W39442  24.991  32.495   1.351
80182W        W39443  19.281  39.355   1.803
80183W        W39444  18.558  15.735   3.366
80184W        W39445  18.089  14.756  14.893
80185W        W39446  37.023  43.772  13.535
80186W        W39447   0.904  25.039   0.952
80187W        W39448  32.051  10.222  14.015
80188W        W39449  34.954  27.095  11.120
80189W        W39450   9.849  44.454   4.187
80190W        W39451  21.724  23.603   2.835
80191W        W39452  20.186  32.549   1.264
80192W        W39453  43.793   2.895   4.267
80193W        W39454   6.696   6.853   0.947
80194W        W39455  35.589   0.760   4.671
80195W        W39456  23.090  32.934   3.338
80196W        W39457  30.050  39.482   1.758
80197W        W39458  32.503  17.646  12.439
80198W        W39459  44.336  28.150   0.741
80199W        W39460  12.211  19.112  12.095
80200W        W39461  17.657  29.118   2.194
80201W        W39462  32.500  28.542  10.924
80202W        W39463  16.174   5.877  10.409
80203W        W39464  16.137  11.695   2.748
80204W        W39465  14.111  40.887  12.836
80205W        W39466  31.905   5.710   1.829
80206W        W39467  16.609  15.823   2.348
80207W        W39468  36.368  17.564  14.818
80208W        W39469  44.445  22.210   0.480
80209W        W39470  41.864  27.569   2.310
80210W        W39471  42.391  26.082   4.729
80211W        W39472  17.588  36.572  13.039
80212W        W39473  31.911   4.298  11.513
80213W        W39474  22.038  26.998   0.300
80214W        W39475   5.886  23.630   1.823
80215W        W39476   7.875  37.353  13.864
80216W        W39477  40.806  23.164   3.706
80217W        W39478  39.471  40.966   3.694
80218W        W39479  22.644  20.683  12.527
80219W        W39480  30.573  37.533   9.988
80220W        W39481  36.855  25.061   0.427
80221W        W39482  19.725  17.250  12.993
80222W        W39483  40.430  23.181  12.535
80223W        W39484   8.397  24.017   0.405
80224W        W39485  22.081  23.072   3.357
80225W        W39486  37.495  42.882  13.061
80226W        W39487  12.780  29.134   4.646
80227W        W39488  39.340   5.216   0.294
80228W        W39489  19.748  41.514  13.023
80229W        W39490  32.013  10.809   2.338
80230W        W39491  28.493   2.892  11.533
80231W        W39492  40.913  44.825  14.969
80232W        W39493  34.044  17.242   4.613
80233W        W39494  33.586  10.836   0.256
80234W        W39495   5.876   0.300  14.023
80235W        W39496  33.105  33.573  11.953
80236W        W39497   1.861  22.118   3.707
80237W        W39498   3.938  43.973  11.373
80238W        W39499  10.810   7.362   1.265
80239W        W39500   2.729  27.967   3.648
80240W        W39501   8.334   8.189  12.929
80241W        W39502   7.403  20.536   4.302
80242W        W39503   9.736  12.834  14.328
80243W        W39504  37.892  31.614  12.853
80244W        W39505  10.359  22.203   9.962
80245W        W39506  42.456  36.512  13.325
80246W        W39507  32.015  38.842  11.019
80247W        W39508  33.481   1.314  14.864
80248W        W39509   4.350  10.641  14.508
80249W        W39510  28.525  17.219   3.240
80250W        W39511  11.172  35.926   2.211
80251W        W39512  15.814   2.262   0.818
80252W        W39513  41.482  41.943   1.895
80253W        W39514  30.937  17.780  14.994
80254W        W39515  10.236  35.022  14.346
80255W        W39516  23.177  38.428   0.901
80256W        W39517  39.522   3.817   4.802
80257W        W39518  33.993   5.710  13.340
80258W        W39519  34.988   0.812   4.807
80259W        W39520  32.561  10.656   1.235
80260W        W39521  21.534  28.957  14.763
80261W        W39522  17.761   3.331  10.425
80262W        W39523   0.755  25.035  11.883
80263W        W39524  12.260  35.868  12.835
80264W        W39525  31.920  39.983  11.541
80265W        W39526  37.362  26.164  13.324
80266W        W39527  44.369   0.987   0.944
80267W        W39528  34.581   0.263   0.416
80268W        W39529   8.837  34.458  14.276
80269W        W39530  36.985  21.120   1.408
80270W        W39531  40.454  44.925   0.414
80271W        W39532   5.222   1.301   4.253
80272W        W39533   6.860   4.725  11.380
80273W        W39534   9.789  43.420  14.304
80274W        W39535   6.373  24.528  13.868
80275W        W39536  35.107  16.279  10.969
80276W        W39537   5.747   1.460  12.431
80277W        W39538  14.816  11.861   2.716
80278W        W39539  14.260  20.529   0.756
80279W        W39540  42.851  43.287  12.359
80280W        W39541   7.908  13.270  11.934
80281W        W39542  23.605  38.062  13.017
80282W        W39543  35.899  28.643   4.775
80283W        W39544   9.742   4.380  13.542
80284W        W39545  37.441  37.839   1.851
80285W        W39546  39.434  27.170  14.427
80286W        W39547  34.936  26.015  12.394
80287W        W39548  34.102  42.281   1.883
80288W        W39549  33.023  38.543   0.325
80289W        W39550  33.626  32.930  11.937
80290W        W39551  43.803  20.203  12.967
80291W        W39552  32.622  30.527  11.057
80292W        W39553  38.045   6.827  10.957
80293W        W39554  44.455  20.115   4.663
80294W        W39555  37.006  40.418  14.382
80295W        W39556   5.317  22.664  14.995
80296W        W39557  27.997  31.541   4.657
80297W        W39558  34.897  22.052  13.050
80298W        W39559  39.327   3.424  12.985
80299W        W39560  38.953  10.705  10.625
80300W        W39561  12.702  28.503   0.729
80301W        W39562   9.343   4.926  13.866
80302W        W39563  24.007  12.758  10.559
80303W        W39564  23.099  21.671  13.444
80304W        W39565  43.420  40.899   4.178
80305W        W39566  35.058  41.356   2.840
80306W        W39567  18.115  25.649  14.933
80307W        W39568  10.716  31.083   2.671
80308W        W39569  30.423   1.366  14.997
80309W        W39570  15.626  30.027   4.130
80310W        W39571   6.911   9.334  13.812
80311W        W39572  28.085   7.258   3.767
80312W        W39573  13.739  23.675   3.326
80313W        W39574  31.476  13.137   1.887
80314W        W39575  24.510  42.467  14.776
80315W        W39576   1.300   0.404  11.461
80316W        W39577  43.402  29.561  12.829
80317W        W39578  36.868  34.997  11.375
80318W        W39579  35.876  30.559   0.845
80319W        W39580  34.012   4.210   1.846
80320W        W39581  39.374  10.819  14.373
80321W        W39582   3.310   1.474   4.250
80322W        W39583  34.086  43.454   2.216
80323W        W39584  44.007   2.311   3.867
80324W        W39585  25.971  25.703   2.745
80325W        W39586   3.256  32.951   4.602
80326W        W39587  30.449  13.836  10.999
80327W        W39588  40.527  12.279  14.820
80328W        W39589  24.535  15.193  14.399
80329W        W39590  39.008  16.791   1.319
80330W        W39591  16.138  25.660  13.381
80331W        W39592  25.713   2.463  12.895
80332W        W39593  12.162  24.039   1.886
80333W        W39594  24.722   3.308   3.703
80334W        W39595  27.131  15.635  11.979
80335W        W39596   6.786  31.963   1.316
80336W        W39597  44.400  21.070  12.899
80337W        W39598  30.979   3.716   0.772
80338W        W39599  12.256  41.515   4.683
80339W        W39600  18.751  34.994  13.041
80340W        W39601   6.238  18.723   4.252
80341W        W39602  10.180  13.810   0.332
80342W        W39603  25.712  19.710   0.401
80343W        W39604  23.575  33.382   0.927
80344W        W39605  34.885  16.130   0.386
80345W        W39606  41.469  43.462  13.459
80346W        W39607   8.835  14.737   1.804
80347W        W39608  26.078  15.639  11.881
80348W        W39609   0.350  43.838   1.694
80349W        W39610  35.989  10.260   3.856
80350W        W39611  36.438  38.514   4.699
80351W        W39612  25.137  43.465  13.826
80352W        W39613  11.354  21.619  12.864
80353W        W39614   5.250   1.261   3.317
80354W        W39615  43.374   5.893   3.684
80355W        W39616  11.221  35.492   3.720
80356W        W39617  24.608  21.244   3.656
80357W        W39618   8.380  31.028   3.792
80358W        W39619  16.683  21.667   1.356
80359W        W39620  33.622  15.210  14.468
80360W        W39621   6.330  40.800  13.806
80361W        W39622   2.872  27.692   2.836
80362W        W39623   8.262   6.817   3.148
80363W        W39624  13.345  17.658  10.415
80364W        W39625  37.564  23.649   4.274
80365W        W39626  27.052  21.126   3.371
80366W        W39627  14.697  34.575   2.740
80367W        W39628  16.663  30.065  13.049
80368W        W39629  20.107  43.903   4.151
80369W        W39630  39.326  14.219  13.412
80370W        W39631  16.645  29.609   4.353
80371W        W39632   7.182  18.177  12.067
80372W        W39633   1.812   4.255  10.910
80373W        W39634   5.729   9.695  10.570
80374W        W39635  21.061  43.912   2.220
80375W        W39636  36.940  13.113   0.767
80376W        W39637  19.047  15.708   3.216
80377W        W39638  25.625  36.060   5.138
80378W        W39639  30.544  27.189   0.852
80379W        W39640  14.624  12.640  12.979
80380W        W39641  13.660  39.411  11.091
80381W        W39642  22.688  43.978  11.928
80382W        W39643  29.072  10.169  10.408
80383W        W39644  19.569  23.165   3.269
80384W        W39645  26.125   7.898  11.447
80385W        W39646  40.361  26.029  14.343
80386W        W39647  35.433  33.510  10.924
80387W        W39648  33.986  28.130   4.680
80388W        W39649  10.205  43.299  13.903
80389W        W39650  24.107  38.855  14.852
80390W        W39651  42.915  26.656   0.907
80391W        W39652  44.416   8.764  10.976
80392W        W39653   0.827  29.508  14.358
80393W        W39654  41.788  26.620   5.175
80394W        W39655  27.101  14.294  12.531
80395W        W39656  20.086  14.829  12.920
80396W        W39657  24.174  32.509   1.828
80397W        W39658  18.194   9.800   4.163
80398W        W39659   5.827  18.789   3.772
80399W        W39660  24.700  20.035  12.555
80400W        W39661  40.810  36.037   1.333
80401W        W39662  10.345  28.118   2.248
80402W        W39663   4.707  23.008   0.938
80403W        W39664  41.459  11.801   0.391
80404W        W39665  17.583  28.942  12.572
80405W        W39666  43.282  20.729  11.532
80406W        W39667  12.208  28.957  10.475
80407W        W39668  20.641   3.222  12.082
80408W        W39669  37.939  42.336   1.759
80409W        W39670  26.502  10.142  13.908
80410W        W39671  15.753  38.028  11.927
80411W        W39672   5.259  41.837  11.435
80412W        W39673  17.737   8.739  11.962
80413W        W39674   8.319  18.759   0.452
80414W        W39675   2.820  38.908   4.222
80415W        W39676  23.563  33.003   3.704
80416W        W39677  17.288  35.972   2.814
80417W        W39678  16.079  31.140  12.441
80418W        W39679   7.884  41.994   0.245
80419W        W39680  35.415   1.832   1.884
80420W        W39681   6.709  30.497  10.600
80421W        W39682  19.208  14.214  13.505
80422W        W39683  10.823  20.576  13.415
80423W        W39684  42.843  41.934  14.966
80424W        W39685  31.123  25.030  12.517
80425W        W39686  38.459  21.223   3.295
80426W        W39687   4.357  21.689   2.842
80427W        W39688  22.510  39.859  14.415
80428W        W39689   4.869  14.600   4.621
80429W        W39690  29.557  41.510   2.669
80430W        W39691   2.472   2.794   4.758
80431W        W39692  40.369  18.053  11.954
80432W        W39693  16.084  30.614  14.909
80433W        W39694   8.201  37.906  13.901
80434W        W39695  41.859   5.786  11.540
80435W        W39696  37.414  19.600   2.779
80436W        W39697  21.533  24.999  11.414
80437W        W39698  21.046  17.116   5.206
80438W        W39699  28.568  15.615   3.191
80439W        W39700   8.727   3.257   0.888
80440W        W39701  13.652  11.843  12.077
80441W        W39702  24.679  18.250  13.933
80442W        W39703  10.238  20.117  10.460
80443W        W39704  29.576   1.458  14.478
80444W        W39705   3.352   9.348  10.975
80445W        W39706  10.661  40.949   4.777
80446W        W39707  14.747   4.762   9.963
80447W        W39708  14.326  19.204   3.849
80448W        W39709  41.833  28.155   0.260
80449W        W39710  21.019  20.223   1.381
80450W        W39711  28.114   5.870  12.422
80451W        W39712  10.635  33.977   0.747
80452W        W39713  44.293  31.927  10.410
80453W        W39714  43.920  15.162  11.378
80454W        W39715  29.113   5.378   0.277
80455W        W39716  40.438  42.987  12.028
80456W        W39717  14.198  14.103  11.592
80457W        W39718   1.409  44.003  12.574
80458W        W39719   8.897   5.351   2.882
80459W        W39720  26.556  33.095  11.470
80460W        W39721  24.684  22.602  12.492
80461W        W39722   6.850  22.501   2.239
80462W        W39723  11.276  14.220  13.938
80463W        W39724  20.050  40.907   0.875
80464W        W39725  15.706  23.616   0.433
80465W        W39726  24.699  16.247   4.220
80466W        W39727  23.648  38.872   1.226
80467W        W39728   7.207  37.474   2.821
80468W        W39729  27.517  29.088   1.731
80469W        W39730  26.196  14.184  12.569
80470W        W39731  31.048   9.289  11.524
80471W        W39732  32.102  39.334  14.855
80472W        W39733  39.940  22.167   3.836
80473W        W39734  33.404  26.592   5.190
80474W        W39735   7.712  18.661  12.549
80475W        W39736  16.215  18.287  10.988
80476W        W39737   4.330  23.008  13.537
80477W        W39738  44.804   6.812   3.777
80478W        W39739  16.659  17.721   4.828
80479W        W39740  14.748  17.565   0.385
80480W        W39741  43.352  40.870   3.696
80481W        W39742   5.720  18.254  13.799
80482W        W39743  36.565   6.918   1.856
80483W        W39744   3.386   7.205  14.769
80484W        W39745  23.030  32.114  13.356
80485W        W39746   8.788   3.235  14.032
80486W        W39747   6.777  30.568   0.829
80487W        W39748  22.527  39.331   0.749
80488W        W39749  41.948   6.358  11.451
80489W        W39750  42.793   4.382  12.533
80490W        W39751  35.972  43.983  11.545
80491W        W39752  10.641   9.293   3.861
80492W        W39753  34.067  35.053  13.524
80493W        W39754   6.230  21.115  11.464
80494W        W39755   4.877  23.199  12.002
80495W        W39756  32.014  13.182  13.532
80496W        W39757  37.412  13.768  14.947
80497W        W39758   8.707  26.069   3.244
80498W        W39759  32.098  30.539  14.328
80499W        W39760  25.613  35.590  13.792
80500W        W39761  27.994   0.467   0.775
80501W        W39762  21.643   3.288  10.001
80502W        W39763  17.624   2.800   3.707
80503W        W39764  39.822  27.565   0.347
80504W        W39765   7.862  38.040  11.992
80505W        W39766  24.148  37.857  13.547
80506W        W39767   8.282  41.415   2.880
80507W        W39768  13.137   3.408  14.359
80508W        W39769  30.612  10.793  10.975
80509W        W39770  41.324   8.660   2.234
80510W        W39771  29.543  35.380  12.065
80511W        W39772  23.620   3.296  12.959
80512W        W39773  43.318  13.687  13.022
80513W        W39774   9.172  24.019   1.877
80514W        W39775   2.299  15.667  14.448
80515W        W39776  26.496  40.903  12.972
80516W        W39777  19.701  16.807  11.924
80517W        W39778   3.909  12.707  10.527
80518W        W39779   1.874  44.390   3.798
80519W        W39780  41.863   2.816  12.856
80520W        W39781   7.327  30.908   0.424
80521W        W39782  26.162  23.094   3.304
80522W        W39783  30.639  32.895   2.379
80523W        W39784  10.278  12.678  10.448
80524W        W39785  17.184  43.875  14.821
80525W        W39786  20.192   5.423   4.342
80526W        W39787  10.728   1.377   0.810
80527W        W39788  13.609  38.823  14.948
80528W        W39789  26.630  34.947  14.797
80529W        W39790  34.465  15.255   0.364
80530W        W39791  42.401  40.820   0.458
80531W        W39792  26.504  26.182  12.892
80532W        W39793  29.642  32.636  12.874
80533W        W39794  41.406  10.642   4.710
80534W        W39795  21.110  11.204  13.411
80535W        W39796  41.302  12.308  14.411
80536W        W39797  38.910  13.630  11.403
80537W        W39798  44.494  31.015  14.903
80538W        W39799  43.013  10.808   4.158
80539W        W39800  21.581  28.154  11.499
80540W        W39801  42.300   2.274   2.277
80541W        W39802   2.913  12.679   4.616
80542W        W39803  39.537  23.680   0.934
80543W        W39804   1.304   1.401  13.440
80544W        W39805  13.685  39.816   0.828
80545W        W39806  39.880   9.870  10.433
80546W        W39807  29.010  37.535  12.059
80547W        W39808  35.051  17.604  14.453
80548W        W39809  41.816   1.954  13.942
80549W        W39810  27.484  19.553   1.215
80550W        W39811  10.696  18.204  11.870
80551W        W39812  33.517   7.213   4.759
80552W        W39813  34.936  22.247  13.909
80553W        W39814  32.525  33.518   1.696
80554W        W39815  19.705  15.791   1.328
80555W        W39816  34.918  42.841  14.443
80556W        W39817  43.490  24.549   4.226
80557W        W39818  27.002  20.610  10.582
80558W        W39819  29.516  36.439  13.373
80559W        W39820   2.285  33.881   0.363
80560W        W39821  30.039   9.167  14.506
80561W        W39822   4.422  13.776   3.713
80562W        W39823   3.429  32.427   0.780
80563W        W39824  28.135  14.633   1.228
80564W        W39825  14.229   9.762  12.006
80565W        W39826  41.931  29.023  11.859
80566W        W39827  32.498  37.551  11.085
80567W        W39828   5.793  25.113  11.056
80568W        W39829  28.555   5.750   2.286
80569W        W39830  15.173  32.485  11.988
80570W        W39831   1.956  43.994  14.997
80571W        W39832   5.812  41.016  12.406
80572W        W39833  21.707  29.619   0.763
80573W        W39834  38.376  14.833  12.893
80574W        W39835  26.987  22.511   1.310
80575W        W39836  22.230  25.476  13.312
80576W        W39837  43.956  18.091   3.861
80577W        W39838  10.340  36.348   4.171
80578W        W39839  26.676  20.066  14.764
80579W        W39840  29.646  38.842   4.837
80580W        W39841  22.742   5.438  10.921
80581W        W39842  11.720  24.113   1.328
80582W        W39843   6.230  29.054  13.037
80583W        W39844  14.122  12.787  12.855
80584W        W39845  17.726  16.676   3.745
80585W        W39846  36.024   0.378   2.251
80586W        W39847   7.700  43.440  14.454
80587W        W39848  40.048  40.419  11.536
80588W        W39849  17.285   2.433  11.445
80589W        W39850  21.035  30.611  14.330
80590W        W39851  33.449  40.368   5.589
80591W        W39852  14.736  35.061  13.342
80592W        W39853  23.682  26.470   4.634
80593W        W39854  17.182  19.757   0.444
80594W        W39855   6.291   3.813  10.447
80595W        W39856   4.320  26.154   1.930
80596W        W39857  11.790  24.645   0.305
80597W        W39858  16.233  41.383   0.469
80598W        W39859  41.442  12.618   1.872
80599W        W39860   8.376  40.335  14.295
80600W        W39861  32.562  16.645   4.180
80601W        W39862  34.607  16.637   3.830
80602W        W39863  42.407  13.289  13.998
80603W        W39864  27.189  18.250  14.022
80604W        W39865   4.767  39.461  12.487
80605W        W39866  30.146  10.148  11.582
80606W        W39867   2.303   0.275  11.570
80607W        W39868  14.128   7.666  13.063
80608W        W39869   8.813  42.815   3.776
80609W        W39870  13.351  10.268  14.852
80610W        W39871  40.303  43.868   1.279
80611W        W39872   6.224   5.717   9.949
80612W        W39873  25.156  17.602  10.547
80613W        W39874  21.527  40.545  10.492
80614W        W39875   9.372  31.984  14.335
80615W        W39876  35.911  14.275  11.518
80616W        W39877  26.532  31.608  12.016
80617W        W39878  41.334  37.366  14.855
80618W        W39879  15.618   1.416   2.186
80619W        W39880   9.243   4.356   3.181
80620W        W39881  41.846  23.509   3.378
80621W        W39882  43.765  10.753  13.836
80622W        W39883  22.156  10.746   2.379
80623W        W39884  24.086   0.755   5.119
80624W        W39885   9.381  24.606  14.807
80625W        W39886  27.182  39.317   2.303
80626W        W39887  24.613  10.259   0.861
80627W        W39888  36.391   5.870   1.807
80628W        W39889   3.304  11.768   5.093
80629W        W39890   0.340  31.575   3.360
80630W        W39891  33.988  41.951  13.809
80631W        W39892   9.268  35.547  12.932
80632W        W39893   6.361  24.147  13.946
80633W        W39894  37.932  14.746  11.471
80634W        W39895  27.178  16.690   4.715
80635W        W39896  29.972  37.925  11.924
80636W        W39897  19.093  16.172  12.015
80637W        W39898  31.950   1.770  14.440
80638W        W39899  40.859  36.017   3.757
80639W        W39900  10.350  33.012  10.443
80640W        W39901  11.314  26.584  13.980
80641W        W39902  22.637  17.630   2.811
80642W        W39903  40.054  43.326   2.247
80643W        W39904  26.651  11.285   4.808
80644W        W39905  16.195  24.583  12.878
80645W        W39906  33.123  34.008   4.725
80646W        W39907  26.560  42.385   0.962
80647W        W39908  38.882  29.997   4.685
80648W        W39909  39.041   0.777   1.299
80649W        W39910  12.264  23.005   2.299
80650W        W39911  19.044  17.117   5.639
80651W        W39912  38.074  13.830  11.886
80652W        W39913   7.197  42.984  11.007
80653W        W39914  37.521   7.364  11.394
80654W        W39915  25.155  40.000   4.762
80655W        W39916  18.224  42.297   3.205
80656W        W39917  43.964  12.618   4.262
80657W        W39918  30.518  40.514   0.939
80658W        W39919  40.322  29.003   3.792
80659W        W39920  13.719  39.521  12.485
80660W        W39921  42.894  40.487  10.922
80661W        W39922   6.410  13.127   1.749
80662W        W39923  34.928   0.456   5.186
80663W        W39924  15.095   1.439  10.520
80664W        W39925   8.788  11.711  12.364
80665W        W39926  32.572  31.028  12.974
80666W        W39927  12.822  22.172  11.896
80667W        W39928   0.978  27.020  11.006
80668W        W39929  26.459   4.921  10.411
80669W        W39930  37.831  27.683   3.812
80670W        W39931  35.002  16.680   3.712
80671W        W39932  15.799  34.011   2.183
80672W        W39933  42.903   2.952  12.402
80673W        W39934  26.018   7.761   4.353
80674W        W39935  18.761  29.615  10.023
80675W        W39936  31.913  33.966  14.965
80676W        W39937   0.819   6.811   0.248
80677W        W39938  43.939   3.888   2.755
80678W        W39939  13.347   1.880   5.806
80679W        W39940  23.595  19.538   2.857
80680W        W39941  18.657  41.524  10.090
80681W        W39942  37.846  26.194   3.634
80682W        W39943  41.947  40.942  14.981
80683W        W39944   8.205  40.888  12.569
80684W        W39945  23.721  41.898  11.491
80685W        W39946  18.660  26.972   4.604
80686W        W39947  13.217  27.536   9.990
80687W        W39948  17.740   9.282   1.212
80688W        W39949  12.763  42.367   0.798
80689W        W39950   1.740   9.759   5.236
80690W        W39951  16.172  40.916   4.150
80691W        W39952  31.412  40.322  13.879
80692W        W39953  44.330  21.225  12.052
80693W        W39954  13.265   7.881   0.751
80694W        W39955  41.951  19.723  14.495
80695W        W39956   8.162  19.253   4.279
80696W        W39957   8.316  39.043  11.053
80697W        W39958  20.254   8.704   3.709
80698W        W39959   9.190  32.440   2.825
80699W        W39960   3.823  35.490  13.835
80700W        W39961  44.277   6.198  11.467
80701W        W39962  13.794   9.265   2.334
80702W        W39963   7.894  36.072   0.274
80703W        W39964  11.660   7.900   2.282
80704W        W39965  31.468  28.579  14.442
80705W        W39966  12.253  40.813  10.630
80706W        W39967  21.217   3.245  13.494
80707W        W39968   5.238   2.311   1.296
80708W        W39969  35.542  30.457  14.849
80709W        W39970  37.389   2.756  13.318
80710W        W39971  11.755  15.273  14.315
80711W        W39972  15.224  30.025  12.912
80712W        W39973  24.190  26.035   0.297
80713W        W39974  27.002   4.431   1.886
80714W        W39975  31.047  23.070   3.161
80715W        W39976  19.553  19.621  14.407
80716W        W39977  21.253  40.986   2.859
80717W        W39978  36.873  38.455   3.159
80718W        W39979  42.521  28.513   1.869
80719W        W39980   6.895  18.585  11.110
80720W        W39981   1.813  37.415   1.346
80721W        W39982   2.334  38.485  14.461
80722W        W39983  34.381  33.118   3.165
80723W        W39984  42.459   0.785  12.940
80724W        W39985   4.811  40.890  11.933
80725W        W39986   4.731  44.408   2.378
80726W        W39987  30.596  25.644   0.761
80727W        W39988  17.624  43.494   1.268
80728W        W39989   6.891  27.658   3.240
80729W        W39990  41.459   3.716  11.522
80730W        W39991  32.408  20.206  12.484
80731W        W39992  16.153  28.131   2.417
80732W        W39993  18.782  22.065   5.123
80733W        W39994  15.120  44.927  14.893
80734W        W39995  11.842  26.684   9.989
80735W        W39996   4.728  23.058  10.069
80736W        W39997  27.133  21.534  13.850
80737W        W39998   4.418   0.360   2.675
80738W        W39999  22.013  27.040  12.907
80739W        W40000   0.276  24.707   4.144
80740W        W40001  17.196  29.538   2.852
80741W        W40002  14.731  12.718   5.128
80742W        W40003  29.048  29.618  14.028
80743W        W40004  37.943  25.518   1.723
80744W        W40005  27.985  28.600  11.577
80745W        W40006  25.014  24.722   0.430
80746W        W40007  27.512  39.938  10.461
80747W        W40008  34.450  43.012   4.267
80748W        W40009   2.870  44.904  13.005
80749W        W40010   6.336  17.303   2.901
80750W        W40011  24.222   3.836  14.439
80751W        W40012  18.124  28.470  12.914
80752W        W40013  33.030  23.694   3.164
80753W        W40014  19.081  36.951  11.946
80754W        W40015  34.015   3.796  13.883
80755W        W40016  26.467   4.312  11.541
80756W        W40017   1.966   5.403  12.938
80757W        W40018  14.822  42.889   0.412
80758W        W40019   2.339  37.079   0.949
80759W        W40020  41.808  19.542   1.379
80760W        W40021   7.358  39.445  13.947
80761W        W40022   6.824  16.710   2.326
80762W        W40023  20.751  11.710   1.893
80763W        W40024  23.662  23.667  12.408
80764W        W40025   0.374  14.822   4.180
80765W        W40026  43.387  31.415   0.802
80766W        W40027   2.910  22.505  13.459
80767W        W40028  35.050  25.204  11.413
80768W        W40029  25.594   3.336   3.706
80769W        W40030  21.538   3.789  13.424
80770W        W40031  23.152   5.900  14.455
80771W        W40032  16.803  39.517   0.352
80772W        W40033  33.024   3.718  12.013
80773W        W40034  23.016  15.669   4.179
80774W        W40035  23.494  12.845   3.832
80775W        W40036  32.066  22.084   3.644
80776W        W40037   7.273  24.667  10.955
80777W        W40038  31.549  10.719   4.677
80778W        W40039  18.768  36.990  14.823
80779W        W40040  29.100   6.335  11.902
80780W        W40041   6.820  38.876  10.477
80781W        W40042   1.269  33.449   1.342
80782W        W40043  12.308  34.580   2.335
80783W        W40044   0.271  24.614   3.686
80784W        W40045   5.337  10.355  12.524
80785W        W40046  36.940  37.433  12.502
80786W        W40047  25.707  35.901   3.295
80787W        W40048   8.713  36.564   5.210
80788W        W40049  24.622   8.678   0.268
80789W        W40050  22.173  33.914   3.645
80790W        W40051   4.309  39.056   1.791
80791W        W40052  20.183  12.655  10.939
80792W        W40053  35.860  34.606   1.744
80793W        W40054   2.277   6.310  14.831
80794W        W40055  14.793  43.468   4.328
80795W        W40056   8.682  17.594  14.490
80796W        W40057   6.401  33.389   3.296
80797W        W40058  18.146   4.218   2.863
80798W        W40059  34.013  27.159   0.455
80799W        W40060  21.043   2.909   2.731
80800W        W40061   8.789  29.662  14.423
80801W        W40062  38.859  42.471  13.439
80802W        W40063  16.648  42.827   1.402
80803W        W40064  38.381  29.120  10.520
80804W        W40065   1.429  32.006   0.275
80805W        W40066  21.735  36.076   1.862
80806W        W40067   2.281  35.886   1.236
80807W        W40068   9.357  33.469   2.342
80808W        W40069  32.095  24.027   0.456
80809W        W40070  29.969  15.663   4.802
80810W        W40071  41.869   5.376   2.723
80811W        W40072  36.889  41.821  12.935
80812W        W40073  24.977  41.373  13.016
80813W        W40074  13.746  41.374  14.385
80814W        W40075  20.727   2.949   0.298
80815W        W40076  11.627   0.932  14.845
80816W        W40077  15.314  34.614   0.376
80817W        W40078  14.703  40.403   0.791
80818W        W40079   3.843  37.565   4.662
80819W        W40080  13.110  23.544  13.520
80820W        W40081  30.011  32.490   0.283
80821W        W40082   7.207  36.925  12.428
80822W        W40083  24.522  39.515  11.476
80823W        W40084  43.432   4.941  14.933
80824W        W40085  28.617   8.830  14.354
80825W        W40086  11.833  25.101   4.809
80826W        W40087  38.957  38.956   0.477
80827W        W40088  25.556  24.491   4.293
80828W        W40089  41.871  34.522  13.904
80829W        W40090   7.743  31.530   3.869
80830W        W40091  37.454  10.777   0.861
80831W        W40092  43.434  37.348  11.911
80832W        W40093  42.473  18.081   1.441
80833W        W40094   2.829  16.088   3.207
80834W        W40095   3.373  42.412  12.933
80835W        W40096  15.698  20.569   2.223
80836W        W40097  35.863  16.158   2.728
80837W        W40098  24.559  23.726  10.452
80838W        W40099  40.496  35.930  12.470
80839W        W40100   7.786   5.306  12.962
80840W        W40101  37.376  35.458   5.637
80841W        W40102  24.598  11.855  12.867
80842W        W40103  33.954  18.097   3.325
80843W        W40104  42.940  43.937   2.798
80844W        W40105  16.634  36.572  13.923
80845W        W40106   6.382  26.021   1.883
80846W        W40107   7.813  41.429   3.837
80847W        W40108  26.604  42.432   4.169
80848W        W40109  25.967  37.999  13.399
80849W        W40110  15.091  26.468   2.743
80850W        W40111  16.697  14.679   0.330
80851W        W40112  35.973   2.389  12.951
80852W        W40113  16.771   2.270   4.259
80853W        W40114   7.667   2.809   4.190
80854W        W40115  22.656  13.834   0.295
80855W        W40116   0.836  42.941   1.312
80856W        W40117  29.978  42.366   0.776
80857W        W40118  39.338  19.662   2.731
80858W        W40119  30.112  25.499   2.187
80859W        W40120  17.732  31.101  10.914
80860W        W40121  24.689  39.048   1.787
80861W        W40122  16.575  37.016  11.985
80862W        W40123  43.466  34.949   4.337
80863W        W40124  40.436  11.145  12.406
80864W        W40125  25.161  21.107   5.163
80865W        W40126  11.270  33.001  14.867
80866W        W40127  21.210  39.351  14.320
80867W        W40128  40.979  30.921  12.379
80868W        W40129  39.523  26.062  13.796
80869W        W40130  23.988  27.081  13.833
80870W        W40131   0.452  41.300   2.228
80871W        W40132  26.137  21.261  14.502
80872W        W40133  19.627  24.063   0.429
80873W        W40134  35.544  37.898   2.712
80874W        W40135  41.468   9.670  12.391
80875W        W40136  24.181  20.575   4.810
80876W        W40137  26.988  30.028   4.343
80877W        W40138  19.170  22.688   5.153
80878W        W40139  15.720  35.856  14.977
80879W        W40140   4.753  26.500   4.143
80880W        W40141   9.243  30.455   3.699
80881W        W40142  18.063  15.292   3.665
80882W        W40143  25.554  40.825   0.916
80883W        W40144  40.438  24.087  11.462
80884W        W40145  25.013  16.646  14.466
80885W        W40146  35.360   9.781   3.671
80886W        W40147   4.400   1.942   2.323
80887W        W40148  10.372   8.727   2.370
80888W        W40149  39.873   9.315  12.861
80889W        W40150  30.437  26.633   3.355
80890W        W40151  24.996  25.049  13.019
80891W        W40152  38.387  22.642  14.031
80892W        W40153  27.129   4.863  12.926
80893W        W40154  22.132  32.510  13.963
80894W        W40155   8.289  41.380  13.316
80895W        W40156  35.095  31.030  12.940
80896W        W40157  37.015  43.360   1.895
80897W        W40158   9.168  24.019  13.011
80898W        W40159  30.417  19.550  14.850
80899W        W40160   6.868  14.663  11.989
80900W        W40161  42.806   1.906  12.034
80901W        W40162  38.976  13.297   3.170
80902W        W40163  31.525  27.660   3.215
80903W        W40164  36.880  21.529   4.785
80904W        W40165  22.553  27.462   2.766
80905W        W40166  17.757  16.187  13.485
80906W        W40167  18.727  15.124   0.404
80907W        W40168  25.496  34.376   2.201
80908W        W40169   7.907  25.486   0.379
80909W        W40170   4.740   1.902  11.129
80910W        W40171   3.408  19.541   1.433
80911W        W40172   8.193  21.224   3.703
80912W        W40173   7.824  43.479  13.509
80913W        W40174  39.328  10.139   4.695
80914W        W40175  30.042   7.350  14.449
80915W        W40176  31.475   1.278   0.883
80916W        W40177  33.607  38.012  14.022
80917W        W40178  18.232   9.273   4.238
80918W        W40179  15.188   1.970  13.805
80919W        W40180  21.683  43.495   2.321
80920W        W40181  39.508  21.171  10.427
80921W        W40182  34.987  22.229   2.414
80922W        W40183  27.466  17.107  13.496
80923W        W40184  41.910  41.358  10.506
80924W        W40185  33.020  17.288   0.285
80925W        W40186  41.502  22.700   3.325
80926W        W40187   6.701  34.986  12.994
80927W        W40188  17.192  35.860  12.444
80928W        W40189  27.179  17.219   0.364
80929W        W40190  14.720   4.260   2.667
80930W        W40191  37.538  44.447  13.314
80931W        W40192  31.899   7.226   1.704
80932W        W40193  29.973  17.235   1.795
80933W        W40194  35.434   9.266  14.800
80934W        W40195  15.112  12.694   5.174
80935W        W40196  39.346  24.108   0.917
80936W        W40197  40.523  41.949  14.813
80937W        W40198  12.837  10.160   4.602
80938W        W40199  26.566   7.692   0.925
80939W        W40200   8.724  27.631  11.380
80940W        W40201  33.545  16.146   1.852
80941W        W40202  34.999  19.726   3.730
80942W        W40203  44.958   2.261   1.248
80943W        W40204  35.425  15.086  13.848
80944W        W40205  39.047  23.233   2.878
80945W        W40206  15.271  20.737   3.711
80946W        W40207  12.662  23.610  13.537
80947W        W40208  21.120  26.052   3.169
80948W        W40209  37.048  14.606   2.698
80949W        W40210  35.572  24.603  10.464
80950W        W40211   8.310  25.105   4.120
80951W        W40212  43.792  30.977  10.432
80952W        W40213  18.069  36.990   3.333
80953W        W40214  16.624  35.863   4.328
80954W        W40215  19.073  29.035   3.784
80955W        W40216  31.015   9.805  11.470
80956W        W40217   3.765  13.233  13.967
80957W        W40218  40.367  38.921   4.300
80958W        W40219  39.389  27.453  11.376
80959W        W40220  36.457  44.427  13.372
80960W        W40221   0.973  38.420   3.373
80961W        W40222  44.311  34.439   2.268
80962W        W40223  34.024  11.268   2.309
80963W        W40224  37.063  30.990  11.535
80964W        W40225  13.126  10.180  13.535
80965W        W40226  42.382  44.300   1.300
80966W        W40227  11.819  25.085   1.813
80967W        W40228  29.121  29.078   2.896
80968W        W40229  20.630  24.107   4.234
80969W        W40230   3.229  13.800  11.938
80970W        W40231  12.725   6.361  11.969
80971W        W40232  42.837  38.432  14.828
80972W        W40233  37.973  26.587   4.347
80973W        W40234  23.990  16.205   2.773
80974W        W40235  22.045  23.984  14.301
80975W        W40236  15.188   9.320  11.380
80976W        W40237  41.314   6.895   2.222
80977W        W40238  15.590  12.319   2.342
80978W        W40239  28.934  21.181  14.323
80979W        W40240  33.440  34.895   4.747
80980W        W40241  21.625   9.889  12.831
80981W        W40242  17.723  31.553   0.326
80982W        W40243  21.698   2.237  12.042
80983W        W40244  27.517  41.874   0.424
80984W        W40245  19.271  16.253  10.624
80985W        W40246  23.128  30.638   4.646
80986W        W40247  37.068  43.894   4.283
80987W        W40248   5.369  43.989   2.373
80988W        W40249  28.492   6.203  13.029
80989W        W40250  25.519  11.740  13.882
80990W        W40251  21.240   0.833   3.633
80991W        W40252  29.521  31.433   3.649
80992W        W40253  21.721  42.879   2.864
80993W        W40254  19.533  35.946  12.488
80994W        W40255  35.597  26.617  11.611
80995W        W40256  23.640  41.830  13.407
80996W        W40257  39.060  18.676  10.592
80997W        W40258  27.048  18.197  14.974
80998W        W40259  43.965  31.417  10.495
80999W        W40260  30.629   8.384   2.765
81000W        W40261  38.909  11.266   0.776
81001W        W40262  32.901   7.728   4.739
81002W        W40263  29.488  11.288  12.969
81003W        W40264  20.157  24.170  12.847
81004W        W40265   8.697  16.802  12.003
81005W        W40266  41.820  11.219  11.856
81006W        W40267  31.491  10.375   0.421
81007W        W40268  11.345   0.830   2.245
81008W        W40269   0.447   6.428  14.486
81009W        W40270  14.182  22.215   4.732
81010W        W40271  41.350  42.460  13.515
81011W        W40272   7.301  34.592  13.004
81012W        W40273  23.677  29.057  14.925
81013W        W40274  29.552  33.439   3.779
81014W        W40275  24.114  20.108   4.278
81015W        W40276  34.871   6.701  13.055
81016W        W40277  41.304  33.409  11.090
81017W        W40278   8.703   7.874   3.646
81018W        W40279  23.610   8.863  11.065
81019W        W40280  12.357  38.823   2.757
81020W        W40281  21.251  23.212  14.025
81021W        W40282   5.740  31.421  12.433
81022W        W40283  19.750  40.423  10.912
81023W        W40284  43.328  21.701   1.217
81024W        W40285  20.035  33.588  13.532
81025W        W40286  35.387   5.239  14.945
81026W        W40287  40.536  22.058   2.256
81027W        W40288  34.008  34.119  13.833
81028W        W40289  41.310  39.453   3.704
81029W        W40290  32.440  17.268  11.066
81030W        W40291  44.390   3.930   5.238
81031W        W40292  31.047  22.241   2.259
81032W        W40293  14.711  39.512   1.236
81033W        W40294  26.167  33.474  11.873
81034W        W40295  41.425  25.576   5.218
81035W        W40296  26.051  30.538  10.490
81036W        W40297  26.607   5.833   2.244
81037W        W40298  23.221   0.831   2.720
81038W        W40299   3.336  41.997  10.462
81039W        W40300  16.257  12.816   2.772
81040W        W40301  33.007  44.978   2.238
81041W        W40302  33.610  14.678   4.120
81042W        W40303   7.789   2.851  13.057
81043W        W40304  39.018  39.823  10.923
81044W        W40305  29.064   1.387   0.244
81045W        W40306   2.420  11.360  10.543
81046W        W40307  32.939  15.715   2.380
81047W        W40308   5.816  37.516   3.145
81048W        W40309   6.874  15.166   1.331
81049W        W40310   8.160  34.928   0.916
81050W        W40311  17.298   2.720  11.466
81051W        W40312  10.871   0.932   0.734
81052W        W40313  35.393  21.563  11.104
81053W        W40314  18.615   0.810  14.999
81054W        W40315   0.855  41.321   0.781
81055W        W40316  19.588  24.097  11.877
81056W        W40317  43.999   4.377   3.338
81057W        W40318  25.108  18.169  12.860
81058W        W40319  31.619  17.802   0.891
81059W        W40320  36.444  23.633  12.997
81060W        W40321  31.456  26.043  12.976
81061W        W40322  37.958  23.075   4.716
81062W        W40323  29.541  26.680   2.417
81063W        W40324  38.065   0.472  11.373
81064W        W40325  41.504  15.290   1.399
81065W        W40326  36.016  13.305  11.950
81066W        W40327  14.595  25.532  11.857
81067W        W40328   3.729  22.667  11.434
81068W        W40329   9.685  38.448   1.813
81069W        W40330  28.134  23.114  11.863
81070W        W40331   2.728  28.646  13.437
81071W        W40332   4.872  20.548   1.887
81072W        W40333  13.722  17.610   0.307
81073W        W40334   3.795  30.042   2.307
81074W        W40335   7.373   8.259   0.831
81075W        W40336  39.845   7.267   4.155
81076W        W40337   8.753  41.926   4.624
81077W        W40338  24.541  39.054  11.877
81078W        W40339  42.353  28.947  14.994
81079W        W40340  44.786   2.860   2.700
81080W        W40341  21.103  34.875   0.276
81081W        W40342   1.366   1.354  14.348
81082W        W40343  10.337  34.920   3.270
81083W        W40344  21.109  28.620   3.272
81084W        W40345  33.044  27.993   3.859
81085W        W40346  11.246  24.035  12.373
81086W        W40347  27.042  13.824   3.783
81087W        W40348  16.195  29.433  13.962
81088W        W40349  42.306   4.892  13.531
81089W        W40350  21.197   3.827  13.347
81090W        W40351   7.803  21.186  13.386
81091W        W40352  17.245   9.360  10.485
81092W        W40353  38.434  15.177   3.224
81093W        W40354  37.033   3.830   0.457
81094W        W40355  38.385  36.923  14.426
81095W        W40356  41.330  28.642   1.272
81096W        W40357   9.297   0.760   3.774
81097W        W40358  15.805  40.452  10.557
81098W        W40359  24.035  32.077   2.228
81099W        W40360   5.914  33.919   4.124
81100W        W40361   9.758  28.468  12.936
81101W        W40362   9.149  36.010  12.466
81102W        W40363  11.177  10.638   9.996
81103W        W40364  39.885   6.406  14.460
81104W        W40365  34.920   0.366   2.806
81105W        W40366  17.556  30.001  14.311
81106W        W40367   9.885  42.326  14.509
81107W        W40368   5.749  17.759  11.935
81108W        W40369   9.388  18.189  14.293
81109W        W40370  39.374   8.865  11.024
81110W        W40371   6.778  22.666  11.048
81111W        W40372  11.773  38.525  10.526
81112W        W40373  16.812   3.928   2.281
81113W        W40374  31.475  23.576   1.738
81114W        W40375  25.039  11.166  10.532
81115W        W40376  36.510  35.941   5.289
81116W        W40377  31.614  44.389  11.573
81117W        W40378  27.626   9.292   1.703
81118W        W40379  36.379  24.066  11.899
81119W        W40380   9.205  23.018   1.770
81120W        W40381  36.574   8.281  13.326
81121W        W40382  16.170  44.431  11.859
81122W        W40383  39.833  15.203   0.866
81123W        W40384  16.695   6.412   0.751
81124W        W40385  14.793  15.252   4.314
81125W        W40386   1.976  19.162   1.778
81126W        W40387   2.471  32.624  12.469
81127W        W40388  21.566  17.698   4.688
81128W        W40389  17.775  16.791   4.737
81129W        W40390  14.114   0.917  10.955
81130W        W40391  20.664  38.843  11.055
81131W        W40392  44.412   2.781   2.324
81132W        W40393  34.394  32.012   2.816
81133W        W40394   5.734  23.600  13.420
81134W        W40395  42.472  12.122   0.474
81135W        W40396  39.947  34.077  13.040
81136W        W40397  10.264   4.759   4.276
81137W        W40398  11.156  18.056   3.228
81138W        W40399  30.442   9.747   4.138
81139W        W40400  31.952  23.595   4.678
81140W        W40401   8.379  15.819  12.080
81141W        W40402  17.299   5.881   4.700
81142W        W40403  40.893  40.927   1.366
81143W        W40404  20.633   1.887  11.857
81144W        W40405  33.523  23.534   2.882
81145W        W40406   1.860  34.480   4.308
81146W        W40407   4.406  34.505  11.509
81147W        W40408   9.236  38.853  14.430
81148W        W40409  16.802  15.761  12.928
81149W        W40410  13.707  13.624   0.863
81150W        W40411  16.586  44.329   3.870
81151W        W40412  15.809   8.867   1.755
81152W        W40413  37.870   9.707   2.865
81153W        W40414  22.059  35.359   4.188
81154W        W40415  19.201   9.239  12.487
81155W        W40416  13.298   5.716   3.773
81156W        W40417  30.023  30.520  13.532
81157W        W40418  19.054  40.305   0.447
81158W        W40419  25.502  44.897   0.399
81159W        W40420  40.485  18.050   0.358
81160W        W40421  20.082   3.360  12.064
81161W        W40422  34.467  21.090   4.728
81162W        W40423  18.096  29.977  14.901
81163W        W40424  28.104  12.116   3.165
81164W        W40425  21.655  16.677  13.535
81165W        W40426  18.776  18.751   4.233
81166W        W40427   4.435  22.535  14.290
81167W        W40428  12.622  37.893  11.876
81168W        W40429   8.299  25.608  14.893
81169W        W40430  41.799  37.981   2.873
81170W        W40431  18.105  27.602  12.450
81171W        W40432  42.292  37.906  12.426
81172W        W40433  34.930   5.786  11.112
81173W        W40434   2.952  19.161   3.718
81174W        W40435  18.639  37.055   4.770
81175W        W40436  17.628  22.045  14.901
81176W        W40437  14.725  12.251  11.856
81177W        W40438  37.842  25.093   4.232
81178W        W40439  32.428   3.381   3.698
81179W        W40440  16.271  42.804  12.449
81180W        W40441  28.060  36.948   2.892
81181W        W40442  32.406  33.895  14.846
81182W        W40443  44.844   4.248   1.304
81183W        W40444  40.406  20.684  14.875
81184W        W40445  13.607  15.745  12.483
81185W        W40446  43.976  16.667   2.402
81186W        W40447  34.004   8.323  11.969
81187W        W40448  40.029  33.087  12.478
81188W        W40449   7.802   9.766  13.508
81189W        W40450  27.045  13.668  12.349
81190W        W40451  40.936  33.058  12.066
81191W        W40452  11.777  13.740  12.491
81192W        W40453  29.635  30.015  10.514
81193W        W40454  38.858  19.252  10.059
81194W        W40455  44.881   7.265   4.729
81195W        W40456  32.937   0.281   1.353
81196W        W40457  11.801  43.888   0.248
81197W        W40458  22.086   2.286   0.401
81198W        W40459  26.477   8.693  10.940
81199W        W40460  13.146  10.379   4.671
81200W        W40461  20.194  24.112  12.008
81201W        W40462  27.488   5.878   2.383
81202W        W40463  35.862  20.589  14.375
81203W        W40464  43.009  44.390   1.779
81204W        W40465  24.689  34.470  13.819
81205W        W40466  32.080  40.836  13.906
81206W        W40467   3.945  35.410   0.479
81207W        W40468   3.765  34.417   3.861
81208W        W40469  26.691  23.600   1.795
81209W        W40470  32.491  10.638   5.108
81210W        W40471   4.366  14.774  13.911
81211W        W40472  16.139   6.202   3.700
81212W        W40473  38.442  18.627   2.316
81213W        W40474   6.909   5.342  13.975
81214W        W40475   8.199  16.164   2.314
81215W        W40476  28.591  41.346   3.804
81216W        W40477   1.792  20.249   4.135
81217W        W40478  10.334  33.500  13.954
81218W        W40479   0.753  43.890  12.377
81219W        W40480   7.769  33.559   1.934
81220W        W40481  29.123   5.860  12.875
81221W        W40482  44.293  29.486   5.134
81222W        W40483  35.500   4.294  12.559
81223W        W40484  17.150  35.059  11.962
81224W        W40485  11.744   8.890  12.004
81225W        W40486  41.538  19.249   2.751
81226W        W40487  36.001  13.746   4.720
81227W        W40488  38.389  42.368   3.734
81228W        W40489  35.395  28.090  13.910
81229W        W40490  14.278  35.478   2.895
81230W        W40491  10.828  39.349   1.809
81231W        W40492  39.928   6.834   2.834
81232W        W40493  25.521   0.934  12.921
81233W        W40494   0.790  31.986  13.848
81234W        W40495  19.738  22.604  11.587
81235W        W40496  40.490  31.602   1.269
81236W        W40497  13.211  39.858   0.764
81237W        W40498  26.658  42.905  12.846
81238W        W40499   9.353  18.603   2.778
81239W        W40500  29.038  29.603   4.116
81240W        W40501  23.664  22.059   3.296
81241W        W40502  36.398  33.998   4.300
81242W        W40503  18.675  25.088  14.951
81243W        W40504  37.034  11.632  13.018
81244W        W40505  31.636   9.748   9.667
81245W        W40506  20.242  22.584  13.854
81246W        W40507  10.215  17.276   0.945
81247W        W40508   9.301  17.094   3.690
81248W        W40509  28.583  11.793   3.334
81249W        W40510  15.293  32.425  13.954
81250W        W40511   9.836  37.036   0.938
81251W        W40512  30.995  16.684  10.929
81252W        W40513  10.769   6.368  12.015
81253W        W40514  16.592  15.642   1.792
81254W        W40515  40.348  13.291   1.427
81255W        W40516  10.805  43.946  12.983
81256W        W40517  37.836  28.974   4.350
81257W        W40518  30.126  20.612   4.611
81258W        W40519  12.245  10.701   2.327
81259W        W40520  31.549  15.584   1.740
81260W        W40521  41.817  30.911  12.056
81261W        W40522  13.745  19.768   0.758
81262W        W40523  26.506  36.062  13.338
81263W        W40524  33.995  17.782   4.219
81264W        W40525  32.133  24.500  12.528
81265W        W40526  20.223  38.963  13.317
81266W        W40527  41.306  33.537   1.746
81267W        W40528  38.920  42.832  13.539
81268W        W40529  38.841  29.960   9.954
81269W        W40530  28.069  34.387   0.262
81270W        W40531  15.317  10.753  14.387
81271W        W40532  20.075  24.058   2.885
81272W        W40533  13.138  40.446   4.247
81273W        W40534   7.397   4.758  14.911
81274W        W40535  32.058  26.201   1.731
81275W        W40536  16.737  42.894   4.644
81276W        W40537  34.403  38.570  14.785
81277W        W40538   6.703  40.535   0.793
81278W        W40539  38.349   7.300  10.952
81279W        W40540   6.759  30.952  11.541
81280W        W40541  24.139  37.460  14.332
81281W        W40542  31.018  22.646  14.447
81282W        W40543   8.392  30.946  13.517
81283W        W40544   9.216  30.119  13.406
81284W        W40545  33.617   3.851   2.800
81285W        W40546  44.319  12.856   3.386
81286W        W40547   6.264  32.451  11.893
81287W        W40548  41.505   1.422  14.796
81288W        W40549  15.800  35.884   3.694
81289W        W40550  24.047  11.802  12.914
81290W        W40551  43.020   7.225  11.564
81291W        W40552  33.523   5.336   1.440
81292W        W40553  35.917   1.387  12.871
81293W        W40554  27.660  36.918  12.940
81294W        W40555   7.675  10.205   4.694
81295W        W40556   6.751  31.932   5.105
81296W        W40557  17.302  21.203   1.372
81297W        W40558  31.627  23.593  11.861
81298W        W40559  22.237  19.206   0.829
81299W        W40560  30.971  21.185  13.459
81300W        W40561  27.593  31.535  11.025
81301W        W40562  30.931  41.043  11.920
81302W        W40563  37.928   0.312   3.338
81303W        W40564   2.267  26.514  13.007
81304W        W40565  38.977  26.044  14.848
81305W        W40566   8.354   7.867   3.837
81306W        W40567  35.868  32.000  13.401
81307W        W40568  30.531  44.996   1.371
81308W        W40569  36.455   6.377   0.361
81309W        W40570  44.502   6.320  10.939
81310W        W40571  34.504   4.925   1.884
81311W        W40572   4.339  32.046  12.846
81312W        W40573  10.753  42.510   3.235
81313W        W40574  15.689  23.564  12.009
81314W        W40575   8.895  33.055  14.779
81315W        W40576  34.896  18.587  13.374
81316W        W40577  15.196  38.418  11.040
81317W        W40578  12.250  33.891   2.201
81318W        W40579  22.603   1.279  12.018
81319W        W40580  36.376  35.420  11.570
81320W        W40581   9.759  35.423  12.538
81321W        W40582   0.822  36.566  14.946
81322W        W40583  15.693  16.572   4.335
81323W        W40584  22.697  38.490   0.371
81324W        W40585  35.587  17.739   2.378
81325W        W40586  22.645  28.524   3.840
81326W        W40587  21.062  25.708   2.193
81327W        W40588  23.099  20.682   3.741
81328W        W40589  43.817  16.229   1.313
81329W        W40590  13.177   6.868   4.678
81330W        W40591  22.160  27.033  12.474
81331W        W40592   1.280  25.579   1.442
81332W        W40593  44.973  31.917   4.699
81333W        W40594  10.334  43.827   1.867
81334W        W40595  15.172  13.719   0.309
81335W        W40596  30.442  10.709   5.222
81336W        W40597  30.918   3.239   1.389
81337W        W40598   9.207   2.738   0.907
81338W        W40599  10.793   7.390  14.914
81339W        W40600   3.316  18.116   2.327
81340W        W40601  21.024   7.849   2.293
81341W        W40602  30.620  21.712   0.815
81342W        W40603  13.287  42.434  13.911
81343W        W40604  27.466   5.293  14.870
81344W        W40605  35.930  33.616  11.500
81345W        W40606  10.718  21.599   2.289
81346W        W40607  34.082  11.683   3.310
81347W        W40608  26.485  29.120   0.874
81348W        W40609  39.517  26.024  10.894
81349W        W40610  30.654  36.907  10.013
81350W        W40611   4.420  26.508  12.546
81351W        W40612  39.915  12.849  10.532
81352W        W40613   8.754  11.226   9.987
81353W        W40614  24.490  41.858  12.854
81354W        W40615  42.881  18.181  13.985
81355W        W40616   3.331  31.525  13.859
81356W        W40617  40.412   7.343   4.599
81357W        W40618  19.679  10.355  14.309
81358W        W40619  29.971  21.656   1.319
81359W        W40620  22.585  22.646   4.723
81360W        W40621  13.115  27.074   4.834
81361W        W40622  16.567  43.816   0.813
81362W        W40623  23.153  14.596   1.327
81363W        W40624  30.155  13.329   4.780
81364W        W40625  19.108   6.256  14.498
81365W        W40626  31.526  24.533   3.821
81366W        W40627  37.550  23.234   3.829
81367W        W40628  33.975  38.938   3.304
81368W        W40629  35.978  10.658   2.848
81369W        W40630  12.279  41.506  14.466
81370W        W40631   8.177  16.733  11.409
81371W        W40632  24.531  32.584   3.663
81372W        W40633   9.305  10.806  11.041
81373W        W40634   4.704   0.457   4.267
81374W        W40635  44.755  35.549  13.055
81375W        W40636  25.532  41.839   0.801
81376W        W40637  15.664   6.289  14.896
81377W        W40638   3.832  19.160   1.383
81378W        W40639   0.264  21.709  10.606
81379W        W40640   6.198  15.320   2.276
81380W        W40641  43.852  43.895   1.409
81381W        W40642  39.931  25.216   3.659
81382W        W40643   3.919  14.339   4.613
81383W        W40644  39.504  35.602  14.799
81384W        W40645  43.803   9.805   2.373
81385W        W40646  30.625   1.345  10.993
81386W        W40647  24.530  37.512  12.546
81387W        W40648  28.528  37.350  14.331
81388W        W40649  25.694  17.263   2.731
81389W        W40650   4.298  14.778   1.700
81390W        W40651  43.836  38.477   1.774
81391W        W40652  40.543  31.109   4.803
81392W        W40653   6.689  26.069   3.267
81393W        W40654  41.494  33.622   3.782
81394W        W40655  34.411  17.629   0.302
81395W        W40656  32.899   2.434  10.555
81396W        W40657  41.790  27.990  11.604
81397W        W40658  40.321  41.502  12.852
81398W        W40659  14.144   4.277   9.559
81399W        W40660  43.856   3.761  11.898
81400W        W40661   5.771   2.934   4.128
81401W        W40662  42.943  39.992   3.369
81402W        W40663  28.493  18.741  13.452
81403W        W40664  26.507  36.979  13.811
81404W        W40665  16.729  41.965   3.168
81405W        W40666   6.212   7.356  11.891
81406W        W40667   1.459  10.777   0.875
81407W        W40668  42.893  16.711  10.629
81408W        W40669  34.510  19.270   0.875
81409W        W40670  21.655   4.318   4.777
81410W        W40671  11.649  39.499  14.288
81411W        W40672  15.774   8.385  12.440
81412W        W40673   8.694   2.832   5.109
81413W        W40674  37.576  14.629   1.213
81414W        W40675  14.832  17.645  12.541
81415W        W40676  44.897  41.007   3.186
81416W        W40677  43.423  41.862   1.365
81417W        W40678  14.297  30.456   3.354
81418W        W40679  32.485  40.418  14.350
81419W        W40680  17.707  31.004   5.662
81420W        W40681  14.169   1.969  14.279
81421W        W40682  34.083  10.723  11.990
81422W        W40683  12.132  15.754  12.431
81423W        W40684  33.991  39.362   1.446
81424W        W40685  19.751  24.074   2.338
81425W        W40686  29.542   4.428   2.290
81426W        W40687  25.134  23.151  13.888
81427W        W40688   7.172   7.261  13.442
81428W        W40689   4.288   4.700   0.422
81429W        W40690  34.988   3.886   2.691
81430W        W40691  32.950  13.314   5.669
81431W        W40692   9.805  35.473  14.283
81432W        W40693  24.679  43.378   1.414
81433W        W40694   0.746  21.602  14.310
81434W        W40695  19.175   7.899  14.824
81435W        W40696  26.556   4.828   3.310
81436W        W40697  31.901  11.811   0.908
81437W        W40698  23.625  25.581   2.276
81438W        W40699   3.280  43.889   1.756
81439W        W40700  34.540  17.755  12.892
81440W        W40701  20.260   7.411  10.157
81441W        W40702   1.830  24.664   3.206
81442W        W40703   2.358  43.972  14.993
81443W        W40704   1.912  15.669   2.893
81444W        W40705  22.147  12.814   2.403
81445W        W40706  44.379  10.293  11.596
81446W        W40707  15.662   2.845   5.669
81447W        W40708  41.810  15.725  12.559
81448W        W40709  25.975  18.067   2.412
81449W        W40710   0.370  27.035  14.022
81450W        W40711  19.730  38.537  10.415
81451W        W40712  40.462   9.785   4.245
81452W        W40713   0.253   5.428   2.405
81453W        W40714   7.702  14.786  12.471
81454W        W40715  32.603  29.080   4.703
81455W        W40716  11.256  30.129  13.831
81456W        W40717  21.202  36.427   4.704
81457W        W40718  20.105  35.570  11.120
81458W        W40719  42.410  27.098   4.671
81459W        W40720   1.329  23.573  11.033
81460W        W40721  41.297   8.767   3.246
81461W        W40722  33.875   7.323   2.835
81462W        W40723   1.284  14.766   0.436
81463W        W40724  11.160  25.647   2.808
81464W        W40725  37.397  43.866   9.657
81465W        W40726  39.423  30.588  12.844
81466W        W40727   7.182  43.357   4.691
81467W        W40728   8.376  28.130   2.347
81468W        W40729   2.253   6.888   1.716
81469W        W40730  11.653  40.303  12.898
81470W        W40731  31.470  38.373   3.830
81471W        W40732  38.909  36.507  10.488
81472W        W40733  24.995  11.281   0.899
81473W        W40734  18.173  11.690   3.635
81474W        W40735  41.309  25.536  12.037
81475W        W40736  33.525  40.020  14.883
81476W        W40737  42.028  16.766   1.802
81477W        W40738   7.794  15.279   2.869
81478W        W40739  30.929  21.127  11.091
81479W        W40740  19.273  30.097  13.984
81480W        W40741  22.173  19.159  11.443
81481W        W40742  31.465  37.448  13.983
81482W        W40743   5.719   7.206   1.347
81483W        W40744   1.874  31.558   0.925
81484W        W40745  20.704  39.515  12.512
81485W        W40746  24.184  44.370  13.064
81486W        W40747   9.878  20.698  14.851
81487W        W40748  22.698  33.118  13.829
81488W        W40749  31.908  10.199  14.943
81489W        W40750  30.486  17.104   3.163
81490W        W40751  40.391  25.113   2.326
81491W        W40752  22.584  13.274  14.884
81492W        W40753  40.437  16.290   2.341
81493W        W40754  41.916  41.489  12.546
81494W        W40755  43.516  17.204  14.936
81495W        W40756  20.662  31.150  13.484
81496W        W40757   2.821  38.916   3.253
81497W        W40758   0.307  28.076  11.554
81498W        W40759  22.049  16.270  14.839
81499W        W40760  22.743  25.555  14.297
81500W        W40761  32.407   8.335  12.430
81501W        W40762  32.477   2.808   0.376
81502W        W40763  29.669  37.938  13.909
81503W        W40764  22.229  37.835   3.648
81504W        W40765  26.119  23.192  13.885
81505W        W40766  29.958  24.679  14.296
81506W        W40767  34.963  31.453   4.193
81507W        W40768  36.960   0.385   0.891
81508W        W40769  39.010  30.624   1.317
81509W        W40770  35.024  38.383  10.987
81510W        W40771  38.433  13.176   0.860
81511W        W40772   2.770  22.146   3.270
81512W        W40773  14.602  10.645   0.442
81513W        W40774  30.531  12.640   1.273
81514W        W40775  13.256  23.666   1.362
81515W        W40776  29.647  11.153  11.399
81516W        W40777   3.275  43.420  14.966
81517W        W40778  10.681   6.385  10.634
81518W        W40779  34.489  10.796  14.353
81519W        W40780  32.392   3.924   2.900
81520W        W40781  40.500  23.736   3.159
81521W        W40782  21.716  36.447   2.837
81522W        W40783   2.805  27.055   4.792
81523W        W40784  24.626  17.183  13.402
81524W        W40785  31.454  34.416  13.975
81525W        W40786   1.293   8.272  14.411
81526W        W40787  31.111  42.516  11.437
81527W        W40788  24.549   6.864  14.330
81528W        W40789  44.353  18.723   0.769
81529W        W40790  40.390  35.372   9.607
81530W        W40791   3.358  16.127  14.385
81531W        W40792  28.470  27.154   2.794
81532W        W40793   5.232  34.536   1.870
81533W        W40794  33.998  11.685  12.536
81534W        W40795  15.680  43.418   0.271
81535W        W40796  26.491  33.429  11.450
81536W        W40797   3.847  38.948   3.299
81537W        W40798  29.977  21.121  12.520
81538W        W40799  27.502  43.351  13.848
81539W        W40800  28.088   9.789  11.520
81540W        W40801  15.211  10.373  13.975
81541W        W40802  18.095  30.930   2.748
81542W        W40803  12.174  20.546   4.328
81543W        W40804   2.920  10.197   0.774
81544W        W40805   9.810  31.976   1.406
81545W        W40806   0.948  18.268  13.373
81546W        W40807  42.463  21.132   5.115
81547W        W40808  23.568  42.465   1.814
81548W        W40809  25.103  44.473   1.435
81549W        W40810  23.710  19.206  14.933
81550W        W40811   6.764   5.815   3.164
81551W        W40812   2.898  30.448  11.102
81552W        W40813  27.112  42.317   1.830
81553W        W40814  28.615   4.441   2.280
81554W        W40815  33.495  14.814  10.498
81555W        W40816  32.570  13.189  14.492
81556W        W40817  18.697   9.652   2.190
81557W        W40818  18.222  43.899   3.792
81558W        W40819  17.719  28.583   3.351
81559W        W40820  34.536  24.495   4.627
81560W        W40821   0.361  19.705   3.227
81561W        W40822   9.247   9.208   1.813
81562W        W40823  26.696  25.040  12.358
81563W        W40824   1.314  23.237  10.939
81564W        W40825   3.313   4.888   3.231
81565W        W40826  28.141  31.039   4.303
81566W        W40827   7.878  18.191  10.048
81567W        W40828  34.580  31.040  14.403
81568W        W40829   1.335  24.566   3.717
81569W        W40830  33.437  15.611   0.352
81570W        W40831   3.845  33.029   4.723
81571W        W40832  31.909  40.492  13.514
81572W        W40833  25.468  12.695   5.173
81573W        W40834  31.956  39.491   3.835
81574W        W40835  26.169   9.689  11.578
81575W        W40836   3.897   1.833  14.434
81576W        W40837   5.216  19.680  14.346
81577W        W40838  33.486  13.718  13.471
81578W        W40839  16.620  17.147  12.885
81579W        W40840  14.293  34.588  10.457
81580W        W40841  14.651   7.905  14.507
81581W        W40842  11.225   6.249   2.370
81582W        W40843  30.123  38.386  13.515
81583W        W40844  26.652   2.944  14.495
81584W        W40845  20.250   3.724  12.548
81585W        W40846  31.976  27.661  10.603
81586W        W40847  22.613  40.825   2.723
81587W        W40848  19.064   6.281   1.240
81588W        W40849  10.384   7.803   1.756
81589W        W40850  14.208  44.454   2.721
81590W        W40851  26.504  14.103   2.346
81591W        W40852  19.088  15.213  11.939
81592W        W40853   9.743  27.645   4.251
81593W        W40854  20.039  17.572   1.365
81594W        W40855  35.555  17.692  13.880
81595W        W40856  24.110  33.010  13.385
81596W        W40857  15.231  21.121  12.932
81597W        W40858  32.608  11.256  12.406
81598W        W40859  17.165  34.070  12.359
81599W        W40860  36.094  31.409   1.705
81600W        W40861  13.754  24.530  13.407
81601W        W40862  17.144  32.588  11.079
81602W        W40863  20.247   3.338   4.128
81603W        W40864  38.051  21.146   4.148
81604W        W40865  22.535  30.547  12.838
81605W        W40866  13.147  19.635  12.384
81606W        W40867   0.371  27.139  12.833
81607W        W40868  30.648   4.232  12.917
81608W        W40869  17.139  16.680   2.358
81609W        W40870  17.792  39.845   1.247
81610W        W40871  32.411  13.743  12.408
81611W        W40872  28.565  29.444  13.006
81612W        W40873  27.547  24.979   1.832
81613W        W40874  11.622  29.934   4.314
81614W        W40875  15.326  33.512  12.940
81615W        W40876   5.727  39.444   3.271
81616W        W40877  12.334   2.862   2.290
81617W        W40878  13.845  25.046   2.870
81618W        W40879  44.824  23.152   4.684
81619W        W40880  39.402  25.070  10.455
81620W        W40881  21.241  13.168  10.434
81621W        W40882  29.130  38.559  12.841
81622W        W40883  31.522   4.281  10.538
81623W        W40884  42.287  20.100   0.340
81624W        W40885   1.891  20.607   1.792
81625W        W40886   8.810  43.824   4.764
81626W        W40887  17.615  43.369  12.864
81627W        W40888  19.748   1.904  12.918
81628W        W40889   0.823  31.049   3.662
81629W        W40890  37.380  29.146  10.516
81630W        W40891  38.973  10.228   1.241
81631W        W40892  36.083  23.038  14.465
81632W        W40893  43.326  18.589  12.054
81633W        W40894   5.848  35.916   2.286
81634W        W40895  21.699  37.439   0.275
81635W        W40896  23.524   4.910  11.907
81636W        W40897  38.035  20.083  12.035
81637W        W40898  27.503  40.388  10.944
81638W        W40899  38.476  26.180   1.432
81639W        W40900  24.202  24.125   2.194
81640W        W40901   9.280  13.125  11.416
81641W        W40902  32.543  24.050   2.387
81642W        W40903  30.454  27.112  12.953
81643W        W40904  28.655  31.044   2.732
81644W        W40905  18.764   9.777   3.203
81645W        W40906  29.454  37.537   4.119
81646W        W40907   3.753  30.630  14.290
81647W        W40908  16.181  24.020  13.464
81648W        W40909  29.556   2.934  14.884
81649W        W40910  34.993  43.516   0.292
81650W        W40911  31.980  33.448   5.190
81651W        W40912  19.754   6.194   0.923
81652W        W40913  12.335  24.144   2.871
81653W        W40914  43.326   2.464   2.390
81654W        W40915  19.641  25.021  12.417
81655W        W40916  11.184  32.127  12.376
81656W        W40917  37.432  44.897  12.883
81657W        W40918  17.264  31.560   2.194
81658W        W40919  25.075  24.114  10.039
81659W        W40920  36.544   4.852  11.057
81660W        W40921   2.727  11.148   4.794
81661W        W40922  34.022   2.275   3.360
81662W        W40923  37.087  41.321   4.652
81663W        W40924  36.074  27.035   1.283
81664W        W40925  22.717  41.407   4.232
81665W        W40926   2.282  22.218   1.260
81666W        W40927  25.159  37.415  10.922
81667W        W40928  40.049  40.361   0.892
81668W        W40929  43.945   8.185  12.014
81669W        W40930  21.551  33.086   4.805
81670W        W40931   0.368  33.889   4.218
81671W        W40932  15.315  27.458   0.270
81672W        W40933  38.001  40.801   5.661
81673W        W40934   6.808  39.464   2.242
81674W        W40935   6.286   1.300   4.792
81675W        W40936  42.463  43.889   0.373
81676W        W40937   1.753  11.222  11.579
81677W        W40938  42.485  42.450   3.815
81678W        W40939  16.217  20.089  12.482
81679W        W40940  34.947   5.821  12.559
81680W        W40941   8.716  27.624  13.421
81681W        W40942  44.777  35.582   3.161
81682W        W40943  12.780  17.171  13.888
81683W        W40944  19.185  30.937   2.762
81684W        W40945  11.293  14.700  14.019
81685W        W40946  33.908  44.927  10.629
81686W        W40947   4.298  38.360  12.354
81687W        W40948   0.257  31.041  13.059
81688W        W40949  16.722  12.230  11.502
81689W        W40950  44.963  25.642  14.465
81690W        W40951  21.063  12.362   0.274
81691W        W40952  13.689  37.368   2.279
81692W        W40953   8.660  19.763  12.937
81693W        W40954   7.908  40.822  12.566
81694W        W40955  33.480  31.433  13.421
81695W        W40956  22.544  35.496  11.564
81696W        W40957  36.052   5.699  13.317
81697W        W40958  41.905  12.833  14.875
81698W        W40959   7.909   5.825   2.711
81699W        W40960  10.214  31.024  12.823
81700W        W40961  32.609   9.713  11.389
81701W        W40962   4.809  13.295   3.336
81702W        W40963  32.904  15.266   0.452
81703W        W40964  19.669  24.496   0.957
81704W        W40965  18.085  41.362  13.399
81705W        W40966  19.596  10.775   1.812
81706W        W40967  33.436  16.809  14.508
81707W        W40968  38.015  24.172  10.573
81708W        W40969  33.489  17.623  14.995
81709W        W40970   1.351  34.543   4.679
81710W        W40971  37.999  26.093  10.593
81711W        W40972  29.557  13.682   0.957
81712W        W40973  43.335  39.374   1.904
81713W        W40974  40.971  17.289   0.825
81714W        W40975  17.716  38.345   4.630
81715W        W40976  20.538   6.877  14.990
81716W        W40977  27.531   6.216  14.016
81717W        W40978  41.990  15.689  14.471
81718W        W40979   1.914  41.945   2.749
81719W        W40980  13.617   6.284   1.841
81720W        W40981   5.701  21.534  12.962
81721W        W40982  11.688  24.677   3.218
81722W        W40983  23.200  29.965   0.940
81723W        W40984  19.051  39.813   2.361
81724W        W40985   8.368  21.596  13.368
81725W        W40986  23.566   8.718  13.482
81726W        W40987  10.835  18.090  10.501
81727W        W40988  28.106  30.908  13.833
81728W        W40989   2.741  41.505  14.922
81729W        W40990  28.633  22.244   2.412
81730W        W40991  36.468  17.302   3.275
81731W        W40992  10.738  23.185   2.835
81732W        W40993  38.994  30.963  13.431
81733W        W40994  28.989  44.878  10.415
81734W        W40995  10.271  37.536  13.371
81735W        W40996   3.926  38.069   2.671
81736W        W40997  25.560  21.187   2.312
81737W        W40998   1.906  20.098   1.827
81738W        W40999  21.208  15.710   0.411
81739W        W41000  10.363  41.319   4.799
81740W        W41001  40.378  29.493   1.318
81741W        W41002   2.277  38.398   0.727
81742W        W41003   3.230  39.946   3.831
81743W        W41004   5.258  34.474  11.520
81744W        W41005   0.746  13.255  11.375
81745W        W41006  21.641   2.823  14.285
81746W        W41007   7.768  23.188  12.394
81747W        W41008   6.403  30.102   4.690
81748W        W41009  11.651  21.019  12.870
81749W        W41010  26.672  35.557   4.255
81750W        W41011  26.015  35.500   1.290
81751W        W41012  30.436  36.843   9.490
81752W        W41013  41.915  17.690   1.803
81753W        W41014   8.306  33.451   1.262
81754W        W41015   5.777  19.757   2.233
81755W        W41016  21.151   3.941  14.948
81756W        W41017  20.655  42.870  14.390
81757W        W41018  19.582  27.949   0.412
81758W        W41019  12.140  35.882  13.917
81759W        W41020   8.250  20.636   1.750
81760W        W41021   8.368   0.836  12.495
81761W        W41022  43.979  22.097   3.773
81762W        W41023  29.025  40.455   3.632
81763W        W41024  22.020  26.038   0.374
81764W        W41025  28.525  23.057  12.051
81765W        W41026  28.630  21.636  13.467
81766W        W41027  31.495  32.101  10.435
81767W        W41028   5.272  19.543  14.970
81768W        W41029  20.631  42.879   0.256
81769W        W41030  28.549   8.308  12.388
81770W        W41031   5.408  11.800  13.045
81771W        W41032  32.108  44.317  12.577
81772W        W41033  13.255  16.211  11.025
81773W        W41034   7.382  38.851   3.349
81774W        W41035  33.054  10.218  14.436
81775W        W41036  13.147  37.999   1.439
81776W        W41037  30.493  19.174   0.249
81777W        W41038  14.735  44.475   3.344
81778W        W41039  36.953  36.354  14.768
81779W        W41040  18.124  21.704  13.944
81780W        W41041  28.502  21.542   3.218
81781W        W41042  29.123  28.012   0.354
81782W        W41043  37.062  20.123  14.433
81783W        W41044  41.003  22.247   3.808
81784W        W41045  38.996  17.210  12.030
81785W        W41046  23.135  16.137   2.888
81786W        W41047   5.270  23.002  13.979
81787W        W41048  33.901  31.492   2.258
81788W        W41049  20.151  21.200  13.522
81789W        W41050   4.328  28.635  10.446
81790W        W41051  20.590  24.580   4.127
81791W        W41052   5.881   2.406   3.251
81792W        W41053   2.744   9.300   2.383
81793W        W41054   8.189  22.158  12.578
81794W        W41055  14.800   6.265  11.610
81795W        W41056  22.740  41.796   0.948
81796W        W41057   1.889   2.372  12.955
81797W        W41058  24.125  27.076   5.604
81798W        W41059   7.274  14.178  10.930
81799W        W41060   7.230   2.822  12.849
81800W        W41061  23.158   0.284  12.352
81801W        W41062  29.164  17.692  11.473
81802W        W41063  33.001  21.161   0.946
81803W        W41064   5.322   6.367  12.884
81804W        W41065  37.982  31.629   1.291
81805W        W41066  21.219  36.873   4.290
81806W        W41067  18.641   6.774   4.151
81807W        W41068   3.838   9.300  14.380
81808W        W41069  28.935   5.278  14.787
81809W        W41070  12.782   8.810   0.319
81810W        W41071  14.249   7.797   4.784
81811W        W41072  16.178   4.853  12.956
81812W        W41073  39.444  10.766   1.439
81813W        W41074  22.102   3.419   3.177
81814W        W41075  43.415   5.422  14.335
81815W        W41076  38.562  11.745   1.932
81816W        W41077   4.446  42.438  12.342
81817W        W41078  42.504   2.449   2.668
81818W        W41079  20.152  34.608   4.118
81819W        W41080  17.787  17.740  12.095
81820W        W41081   0.852   7.202   4.710
81821W        W41082   2.822  21.585  13.953
81822W        W41083  19.767  42.814  14.869
81823W        W41084   6.856  34.429   4.145
81824W        W41085   7.365   5.332   0.309
81825W        W41086   2.439   4.794   0.905
81826W        W41087  11.697   1.395  12.522
81827W        W41088   1.379  13.341  13.469
81828W        W41089  17.171  35.562   1.774
81829W        W41090  36.405  35.993   0.957
81830W        W41091  27.095  13.334   3.187
81831W        W41092  38.487  33.958  12.976
81832W        W41093  11.145   7.832   4.684
81833W        W41094  20.270  21.124   5.254
81834W        W41095  33.016  13.316   4.721
81835W        W41096   3.889   8.298   5.586
81836W        W41097   9.281   4.828  11.408
81837W        W41098  38.073  40.488  12.077
81838W        W41099   4.850  21.048   3.328
81839W        W41100   3.313  31.954  10.536
81840W        W41101  28.036  28.031  10.634
81841W        W41102   2.318  13.294   0.274
81842W        W41103  25.004  28.110  10.944
81843W        W41104   6.343   2.776  13.320
81844W        W41105  35.960  20.689   3.706
81845W        W41106  42.456  36.351   5.715
81846W        W41107   9.723   2.240   2.246
81847W        W41108  30.908  11.808   2.263
81848W        W41109  41.523  38.061  13.520
81849W        W41110  32.063  35.887  14.905
81850W        W41111   4.211  35.512   2.240
81851W        W41112  32.607  41.011  10.508
81852W        W41113  29.657  43.492   3.761
81853W        W41114  26.176  44.345   1.832
81854W        W41115  27.098  24.713   3.359
81855W        W41116   0.284  27.481  12.407
81856W        W41117  22.678  17.181   2.677
81857W        W41118  12.825   3.367   0.313
81858W        W41119  16.782  12.326   2.713
81859W        W41120  24.551  12.732  11.578
81860W        W41121   8.290  28.437   4.266
81861W        W41122   9.682  27.013  14.315
81862W        W41123  17.070  43.386   1.389
81863W        W41124  21.172  14.699  11.111
81864W        W41125  21.218   0.846  12.854
81865W        W41126  30.523  19.676   1.395
81866W        W41127  30.913  22.095   1.777
81867W        W41128  27.481  24.142   2.327
81868W        W41129  29.088  36.487  14.514
81869W        W41130  19.134  42.901   0.884
81870W        W41131  10.728  24.205   0.284
81871W        W41132  12.331   4.750  12.942
81872W        W41133  26.209  16.266   3.159
81873W        W41134  31.596  16.737  13.896
81874W        W41135  37.361  36.062  13.808
81875W        W41136  24.516  22.609  14.019
81876W        W41137  43.022  12.696  13.307
81877W        W41138  14.767  14.116  13.477
81878W        W41139  37.336  20.173   3.167
81879W        W41140  43.860  17.760   4.773
81880W        W41141  42.844  27.163   0.959
81881W        W41142  32.583  17.576  14.965
81882W        W41143  38.876  31.068  13.923
81883W        W41144  24.536  22.741  10.909
81884W        W41145  28.972  27.128  12.909
81885W        W41146  26.600  23.008   3.355
81886W        W41147  40.366  42.006   1.272
81887W        W41148   3.308  10.337   1.296
81888W        W41149  14.650   7.677  11.897
81889W        W41150   0.892  11.767   3.817
81890W        W41151   2.781  35.042  12.548
81891W        W41152  33.113  23.038   4.713
81892W        W41153  44.331  41.857  12.416
81893W        W41154  23.563   0.418  13.018
81894W        W41155  19.777  16.295   4.729
81895W        W41156   5.907  27.196   3.244
81896W        W41157  37.365  29.484  12.057
81897W        W41158  41.466  32.009  11.516
81898W        W41159  15.588  43.341   3.827
81899W        W41160  16.649  19.102   3.171
81900W        W41161  26.484  38.823   4.773
81901W        W41162   6.761   1.905  12.030
81902W        W41163  29.984   4.796   0.728
81903W        W41164   9.178  21.646   3.343
81904W        W41165   6.802  12.801   9.456
81905W        W41166  35.866  19.687   1.839
81906W        W41167  27.162   1.902   4.135
81907W        W41168  42.431  20.537   4.655
81908W        W41169  27.594  43.925  12.980
81909W        W41170  31.080  28.953  12.011
81910W        W41171  10.328  42.995   4.303
81911W        W41172  28.935  32.582   4.281
81912W        W41173  36.535   9.730   4.816
81913W        W41174  15.266  22.595   1.227
81914W        W41175   1.341  22.639   3.147
81915W        W41176  28.130  19.631   5.315
81916W        W41177  19.107   8.821  10.626
81917W        W41178   4.228  42.882   4.170
81918W        W41179  20.631   9.743  14.435
81919W        W41180   7.742  21.603   2.766
81920W        W41181  24.152  34.538   9.973
81921W        W41182   1.283   4.765   0.767
81922W        W41183  21.558   5.226   1.285
81923W        W41184  39.353   3.289   4.159
81924W        W41185   1.401  35.067  13.967
81925W        W41186  43.422  26.620   3.641
81926W        W41187  38.938  41.480  10.124
81927W        W41188   5.238  37.975   4.641
81928W        W41189   6.266  20.052   1.737
81929W        W41190   1.299  28.140   0.460
81930W        W41191   7.675  39.927   3.240
81931W        W41192  35.548   5.307   1.401
81932W        W41193  18.141  16.764  13.477
81933W        W41194  39.001  43.384   5.097
81934W        W41195  18.561  29.002  10.074
81935W        W41196  14.210   7.339  14.482
81936W        W41197   1.817  32.573   2.820
81937W        W41198  14.618  23.181  12.987
81938W        W41199  16.722  44.280   0.856
81939W        W41200  29.950  35.961  14.927
81940W        W41201  16.251  27.014   4.311
81941W        W41202  29.087  44.433   4.241
81942W        W41203  11.293  19.641  13.967
81943W        W41204  23.560  15.248   4.353
81944W        W41205  27.070  23.605   4.128
81945W        W41206  40.981  16.800  11.427
81946W        W41207   4.732  25.485  12.833
81947W        W41208  20.562  27.599  10.519
81948W        W41209  28.577  22.609   0.414
81949W        W41210  17.099  40.307  11.052
81950W        W41211  44.394   9.707  14.942
81951W        W41212  19.168   7.763  11.535
81952W        W41213   1.464  22.725   1.309
81953W        W41214  38.421   8.404   1.861
81954W        W41215  29.534   7.908  12.044
81955W        W41216   9.805  26.010  14.825
81956W        W41217   8.322  29.977  14.017
81957W        W41218  33.492  23.733   0.322
81958W        W41219  43.447  33.932  14.826
81959W        W41220  20.663  19.542   0.458
81960W        W41221  10.813  32.577   4.833
81961W        W41222  44.283  28.452   4.162
81962W        W41223  36.434   5.713  12.421
81963W        W41224  19.159   9.837   0.306
81964W        W41225   1.407  28.456   4.115
81965W        W41226  14.748  32.036   4.218
81966W        W41227  14.291   1.881  13.344
81967W        W41228   9.237  44.943  14.370
81968W        W41229  15.623  23.498  10.030
81969W        W41230  38.378  31.466   2.412
81970W        W41231   5.775  35.966  11.563
81971W        W41232  37.855   8.362   4.680
81972W        W41233  13.234  15.593  13.986
81973W        W41234  22.692  41.455  11.030
81974W        W41235  25.083  16.190   0.340
81975W        W41236  39.560  39.871  11.869
81976W        W41237  29.063   0.901   1.362
81977W        W41238  40.433  36.528  11.123
81978W        W41239  24.698  28.605  10.981
81979W        W41240   4.772   2.776  10.619
81980W        W41241   0.791  17.150   0.392
81981W        W41242  35.440  35.499   0.300
81982W        W41243   6.694  26.180   0.453
81983W        W41244  24.599  30.949   2.227
81984W        W41245   8.378  14.194   3.327
81985W        W41246  34.087  38.489  11.474
81986W        W41247  29.126  40.374  11.858
81987W        W41248  35.033   7.303  14.004
81988W        W41249  11.253  18.581  12.492
81989W        W41250  19.206   8.842  11.590
81990W        W41251  11.282   6.678   5.147
81991W        W41252  16.700  28.476  14.008
81992W        W41253  42.458   5.922  14.981
81993W        W41254  24.519  28.524   0.409
81994W        W41255  43.005  35.042  10.921
81995W        W41256   0.436  19.223  12.892
81996W        W41257  12.235   2.391   2.671
81997W        W41258  14.661  34.031   1.312
81998W        W41259  32.999   6.412   0.296
81999W        W41260   5.229  28.604  13.990
82000W        W41261   3.897  41.474  10.581
82001W        W41262   2.299  23.631  14.984
82002W        W41263  13.640  27.040   4.193
82003W        W41264  15.124  41.968   1.375
82004W        W41265  19.604   7.845   3.157
82005W        W41266   6.348  43.843  13.435
82006W        W41267  28.017  26.062  14.919
82007W        W41268  14.128  17.800   2.230
82008W        W41269  43.373  13.334  14.903
82009W        W41270  25.693  21.163  14.378
82010W        W41271  14.708  26.650  13.826
82011W        W41272  37.494  33.433   2.692
82012W        W41273   0.475   0.946  10.954
82013W        W41274   3.881   2.893  10.460
82014W        W41275  31.992  39.923  13.833
82015W        W41276  43.494   1.864   1.919
82016W        W41277  41.316  18.053   3.365
82017W        W41278  20.543   1.310  14.474
82018W        W41279  16.214  26.069  10.639
82019W        W41280  21.233  21.593  11.029
82020W        W41281  44.847  31.068   3.727
82021W        W41282  29.452  21.169   4.322
82022W        W41283  18.160  27.654  10.149
82023W        W41284  41.995  43.508  11.571
82024W        W41285  32.956   6.274  12.456
82025W        W41286  15.635   7.861  12.045
82026W        W41287  39.915  14.242  12.885
82027W        W41288  21.584  10.220  13.964
82028W        W41289   9.718  14.629  13.019
82029W        W41290   1.954   7.402  12.976
82030W        W41291  33.565  25.029  11.953
82031W        W41292   0.490  43.947  13.799
82032W        W41293  41.839  20.225  13.879
82033W        W41294  33.415  22.511  10.089
82034W        W41295  13.685   9.242  11.970
82035W        W41296   7.684  31.041  11.933
82036W        W41297   5.786  16.075   4.318
82037W        W41298  42.987  38.015  13.448
82038W        W41299  33.944  22.132   3.181
82039W        W41300  10.740  14.297  12.505
82040W        W41301   1.365   0.768  13.502
82041W        W41302  13.813  11.359   1.923
82042W        W41303  37.389  29.493   4.354
82043W        W41304   0.810  42.836   5.245
82044W        W41305   9.818   1.877  12.452
82045W        W41306  32.900   2.756   0.867
82046W        W41307   6.426   8.872   2.789
82047W        W41308  11.275   9.208  14.775
82048W        W41309  33.565   5.812   1.366
82049W        W41310  24.147  17.789  14.361
82050W        W41311  20.581  18.702  11.540
82051W        W41312  35.366  17.597  11.526
82052W        W41313  42.313   1.476   3.655
82053W        W41314  16.618  11.155  11.875
82054W        W41315  23.238  38.875   1.913
82055W        W41316  10.325  36.019   9.958
82056W        W41317   5.234  19.121  13.857
82057W        W41318  21.106  19.713   2.397
82058W        W41319  37.353  31.109  12.562
82059W        W41320  24.711  31.571  13.517
82060W        W41321   9.358   8.712   4.793
82061W        W41322  31.565  40.416   4.254
82062W        W41323  43.788  34.379  12.922
82063W        W41324  13.128  30.485  13.497
82064W        W41325  32.902  21.097  13.961
82065W        W41326   4.847  10.816  14.505
82066W        W41327  12.196   9.155  14.446
82067W        W41328   9.754  40.385   0.926
82068W        W41329   7.303  38.970  11.051
82069W        W41330  17.600  44.921   0.462
82070W        W41331  10.743  25.132   4.192
82071W        W41332  44.317  33.090   0.350
82072W        W41333   9.376  32.407   0.876
82073W        W41334   4.270  27.077   2.240
82074W        W41335  43.966   0.254   1.904
82075W        W41336   7.889  26.503   1.303
82076W        W41337  24.195  41.933   4.781
82077W        W41338  10.354  37.872   3.282
82078W        W41339  40.547  23.657   2.232
82079W        W41340   9.773  21.197   1.826
82080W        W41341   4.228  33.555  13.809
82081W        W41342  13.171  22.131  14.439
82082W        W41343  26.592   4.430   1.277
82083W        W41344   0.435  41.946   4.719
82084W        W41345  24.553   2.345   3.245
82085W        W41346   7.800  20.076   3.836
82086W        W41347  42.955  10.750   1.444
82087W        W41348  15.206  23.664  11.038
82088W        W41349   9.372  25.993   0.733
82089W        W41350  15.101  43.921   1.921
82090W        W41351  44.448  35.377  14.280
82091W        W41352  28.583  33.018   0.288
82092W        W41353  32.072  29.097  11.425
82093W        W41354  15.170  42.883   3.790
82094W        W41355  40.865  40.352   2.788
82095W        W41356  33.120   4.843   3.326
82096W        W41357   8.783  29.604   5.085
82097W        W41358  37.488  25.003   4.666
82098W        W41359  38.922  41.812  11.482
82099W        W41360  41.852  25.513  12.524
82100W        W41361  13.251  43.493  14.319
82101W        W41362   8.712   8.657   9.943
82102W        W41363  42.309  30.942  13.041
82103W        W41364  43.942  23.992  12.862
82104W        W41365  31.462  40.030  10.127
82105W        W41366  43.427  23.609   2.244
82106W        W41367  24.178  15.608   1.844
82107W        W41368  28.990  27.458   1.800
82108W        W41369  32.931  25.627  11.610
82109W        W41370  34.460  20.602  13.025
82110W        W41371  33.489   9.356  11.959
82111W        W41372  41.461  29.985  11.926
82112W        W41373  22.016  19.535   0.254
82113W        W41374   3.910  15.643  13.410
82114W        W41375  34.414   6.757  14.458
82115W        W41376  20.663  26.132   2.192
82116W        W41377  23.522  12.822   0.268
82117W        W41378  21.062  38.928   2.769
82118W        W41379  42.527   6.800  10.543
82119W        W41380  34.390  20.265   0.259
82120W        W41381  26.006  30.509   4.677
82121W        W41382   0.466  40.868   0.456
82122W        W41383  20.755  19.073  13.933
82123W        W41384  44.477   9.825  11.985
82124W        W41385  30.481  18.265   3.799
82125W        W41386  33.550  43.285  12.843
82126W        W41387  26.206   2.813  14.350
82127W        W41388   5.757  38.839   0.406
82128W        W41389  10.222  27.585   0.945
82129W        W41390  12.262  40.428  14.783
82130W        W41391  10.672  33.454  11.991
82131W        W41392   7.282  44.428  13.851
82132W        W41393   4.324   1.415  14.861
82133W        W41394   1.381  38.478   2.308
82134W        W41395  16.092  17.261  12.449
82135W        W41396  30.148  17.633   0.935
82136W        W41397  18.564  36.034   9.950
82137W        W41398  41.852   7.769  11.922
82138W        W41399  27.970  10.363  12.511
82139W        W41400  15.189  43.386  10.405
82140W        W41401   4.886  25.086   1.837
82141W        W41402  24.186  21.739   2.339
82142W        W41403  27.022  23.133  10.616
82143W        W41404  18.588  34.045  14.993
82144W        W41405   8.793  19.750   2.208
82145W        W41406  40.948  29.504  12.846
82146W        W41407  37.466  25.530   0.804
82147W        W41408  29.164  21.725  13.498
82148W        W41409  32.445  32.110  13.826
82149W        W41410  14.754  15.754  10.409
82150W        W41411  29.450  13.254   3.159
82151W        W41412  26.669  24.221   2.667
82152W        W41413  37.546  42.395   3.320
82153W        W41414  43.499  11.794  11.526
82154W        W41415  12.703  30.436   2.410
82155W        W41416  33.998   6.771   3.798
82156W        W41417  16.812   5.289   3.168
82157W        W41418  38.026  26.030   0.470
82158W        W41419  28.619  31.647  14.890
82159W        W41420  43.373   9.345   2.741
82160W        W41421  35.025   1.461   3.711
82161W        W41422  17.615  22.644   3.319
82162W        W41423  36.544  35.429   2.251
82163W        W41424  40.952  25.116   4.114
82164W        W41425  27.561  12.222  10.934
82165W        W41426   7.719   0.384   3.327
82166W        W41427  31.020  32.895   0.799
82167W        W41428  30.576   8.871   0.296
82168W        W41429  25.216  10.266  10.457
82169W        W41430  21.579  12.803  13.460
82170W        W41431  19.116  36.360  10.601
82171W        W41432  41.470   1.854  10.448
82172W        W41433  44.290   5.911   3.232
82173W        W41434  10.276   1.925  13.826
82174W        W41435  36.975  28.173  12.443
82175W        W41436  17.139  28.525   2.857
82176W        W41437   8.376  25.126   2.385
82177W        W41438  23.145  12.624  13.941
82178W        W41439   8.802  33.406   3.263
82179W        W41440  17.649  36.576  12.339
82180W        W41441  41.905  22.250  10.571
82181W        W41442  29.611   3.772   0.771
82182W        W41443  33.490  22.560  12.879
82183W        W41444   0.866  33.043  14.922
82184W        W41445  35.405  34.442  10.943
82185W        W41446   4.919   7.889   2.665
82186W        W41447  37.936   8.297   4.309
82187W        W41448  14.818   0.958  13.330
82188W        W41449   9.317  25.172   4.351
82189W        W41450  16.601  37.053  11.410
82190W        W41451   4.892  33.570   2.865
82191W        W41452  25.503  10.215   3.187
82192W        W41453  30.157  31.108   2.374
82193W        W41454  15.626  30.436  11.408
82194W        W41455   5.361   4.318  10.495
82195W        W41456  12.659  31.549  12.881
82196W        W41457  40.005   2.286   0.752
82197W        W41458  16.308  36.006   0.447
82198W        W41459  22.033  42.355  14.028
82199W        W41460  29.012  17.111   1.879
82200W        W41461   3.329  42.404  11.007
82201W        W41462  35.995  41.371  11.487
82202W        W41463  18.744  13.666  10.429
82203W        W41464   3.793  24.506  13.502
82204W        W41465  44.267  34.486  10.521
82205W        W41466  12.695   7.669  11.910
82206W        W41467  36.360   5.743   0.965
82207W        W41468  15.199  36.347  12.864
82208W        W41469  21.147  37.083  10.483
82209W        W41470  23.050   9.272  14.839
82210W        W41471  21.569  12.312   4.680
82211W        W41472  13.819   6.914  14.809
82212W        W41473  14.834  20.052   4.810
82213W        W41474   4.721  22.219   0.255
82214W        W41475  32.633  21.228   0.480
82215W        W41476  31.088  38.393   2.253
82216W        W41477  37.020  31.083   0.325
82217W        W41478   4.866  17.737  12.487
82218W        W41479  30.441  17.182   0.402
82219W        W41480  11.139  11.774   3.352
82220W        W41481  33.890  22.062  11.894
82221W        W41482  28.981  24.527  11.112
82222W        W41483  31.475  13.207  11.870
82223W        W41484   5.383  40.902  14.431
82224W        W41485  34.929  29.436  10.593
82225W        W41486  14.251  20.082   0.742
82226W        W41487   2.856  22.638   2.204
82227W        W41488  20.673  19.571   2.313
82228W        W41489   0.272  42.335  13.795
82229W        W41490  15.710  34.523  13.811
82230W        W41491  28.545  37.858   1.800
82231W        W41492  36.536  33.536   1.276
82232W        W41493   9.290   6.756  14.831
82233W        W41494   9.710  19.245   2.181
82234W        W41495  12.118  25.032   0.360
82235W        W41496   7.293  32.079  10.502
82236W        W41497  30.430  20.751   1.211
82237W        W41498  41.988  11.828   2.841
82238W        W41499  40.938  29.010   3.736
82239W        W41500  30.513  18.750   4.647
82240W        W41501  16.308   4.325   1.714
82241W        W41502  24.576   2.790   0.736
82242W        W41503  38.904  12.630   1.857
82243W        W41504  21.048  39.045  11.381
82244W        W41505  41.801   3.217   2.687
82245W        W41506  17.107  35.901   4.702
82246W        W41507  40.050  41.367  11.400
82247W        W41508  44.851  17.305   0.829
82248W        W41509  40.363  14.145   2.401
82249W        W41510  11.292  43.295  10.585
82250W        W41511  11.363   9.674  14.469
82251W        W41512  43.819  10.370  12.845
82252W        W41513  39.321  10.273  10.493
82253W        W41514  40.380  33.962   2.723
82254W        W41515  28.500  23.509  11.966
82255W        W41516   7.794  12.265  10.896
82256W        W41517  17.799  11.331  14.461
82257W        W41518  33.920   4.841  13.529
82258W        W41519  42.513  16.631   2.857
82259W        W41520  21.219  21.252  13.414
82260W        W41521  16.121  12.325  11.855
82261W        W41522  12.160  33.477  11.429
82262W        W41523   8.884  24.498  13.882
82263W        W41524  39.854  15.607  11.522
82264W        W41525  10.868  35.929   2.895
82265W        W41526  30.025  16.296  12.947
82266W        W41527  32.074   3.816  12.345
82267W        W41528   2.884  13.246  11.463
82268W        W41529  44.438  34.615   4.172
82269W        W41530  19.606   3.414  11.422
82270W        W41531  41.918  11.161  11.002
82271W        W41532   2.916   7.196  13.480
82272W        W41533  41.992  28.663  10.631
82273W        W41534  22.692   5.821   1.873
82274W        W41535  31.402  33.387  11.961
82275W        W41536  23.010  28.120   1.871
82276W        W41537  14.277  16.101   4.353
82277W        W41538  35.375  37.851   4.232
82278W        W41539  40.045  11.198  10.949
82279W        W41540  32.027  38.979  14.484
82280W        W41541  18.225  29.456  13.398
82281W        W41542  31.973  31.937   4.127
82282W        W41543  12.313  10.194   3.676
82283W        W41544  36.955  37.009   4.706
82284W        W41545   3.770  28.974  10.936
82285W        W41546  22.017  20.532  14.514
82286W        W41547  12.683   0.794   0.449
82287W        W41548  34.891  18.074  11.497
82288W        W41549  29.570  33.878   0.378
82289W        W41550  41.390  35.555   5.216
82290W        W41551  37.484  14.224   3.330
82291W        W41552   2.354  34.518   3.242
82292W        W41553  24.190  32.976  11.985
82293W        W41554  18.655  10.177   5.235
82294W        W41555  22.172  39.490  13.836
82295W        W41556  37.030  34.903  11.990
82296W        W41557  36.947  30.052   3.320
82297W        W41558  27.526  26.171   5.125
82298W        W41559  26.066   2.834  11.583
82299W        W41560  42.330  42.792  12.833
82300W        W41561  11.264  26.623   1.815
82301W        W41562  21.547  40.332  12.890
82302W        W41563   3.383  44.969  11.058
82303W        W41564  33.547  42.912  12.396
82304W        W41565  13.271  41.886   0.840
82305W        W41566   5.197  12.658   4.354
82306W        W41567  39.440   3.906   1.785
82307W        W41568  28.067  25.668  14.281
82308W        W41569  40.418  31.069  13.344
82309W        W41570   7.336  30.643  14.453
82310W        W41571  25.532   1.315  11.406
82311W        W41572  15.179   1.945   1.396
82312W        W41573  12.642  38.335   4.719
82313W        W41574  21.239  42.339  14.320
82314W        W41575  26.982  23.556  10.493
82315W        W41576  16.641  29.636  13.382
82316W        W41577   9.319  15.285   2.804
82317W        W41578  26.543   7.341   0.965
82318W        W41579  35.591  37.086   0.734
82319W        W41580  38.885   4.269   4.681
82320W        W41581  26.607  27.148   4.160
82321W        W41582  20.165  28.115   1.757
82322W        W41583  43.269  12.690  10.532
82323W        W41584   3.758   0.988   4.762
82324W        W41585   9.675  11.636   5.263
82325W        W41586  10.874  36.944   1.315
82326W        W41587   2.280  24.073  12.495
82327W        W41588  16.622  42.296  13.398
82328W        W41589  27.980   4.912  14.791
82329W        W41590   2.912   4.408  11.448
82330W        W41591  33.564  27.038  10.966
82331W        W41592  34.567  37.038   0.367
82332W        W41593  34.991  44.323  13.889
82333W        W41594  15.160  21.667   0.412
82334W        W41595  12.334   0.915   4.190
82335W        W41596   6.244  37.502  11.030
82336W        W41597   0.831  26.183   0.375
82337W        W41598  20.601  19.722  14.379
82338W        W41599  29.946   3.441   3.746
82339W        W41600  40.019   3.247  11.898
82340W        W41601  19.063  42.838  11.022
82341W        W41602  26.202  38.882   3.777
82342W        W41603  32.509  34.414   3.766
82343W        W41604  14.154  40.872   0.424
82344W        W41605  32.090  43.855   2.860
82345W        W41606  18.249   7.755   0.418
82346W        W41607  26.106  21.254   1.800
82347W        W41608   8.350  43.852   4.830
82348W        W41609  30.945  28.134  10.985
82349W        W41610  28.994  23.733   4.134
82350W        W41611  19.539  16.244   1.335
82351W        W41612  44.934  13.740  14.838
82352W        W41613  24.677  16.188  14.328
82353W        W41614  44.489  12.628   0.367
82354W        W41615  29.927  18.622   1.707
82355W        W41616   2.404  25.528  14.320
82356W        W41617  17.162  36.869   2.837
82357W        W41618  25.133  40.839   3.833
82358W        W41619  11.155  12.167   1.915
82359W        W41620  16.684  24.976  13.824
82360W        W41621   2.428  40.391  12.427
82361W        W41622  38.827  15.300   1.749
82362W        W41623   5.763  14.679   4.697
82363W        W41624   1.879   7.704   2.777
82364W        W41625  44.358  14.103  13.488
82365W        W41626  33.563  10.757  11.100
82366W        W41627  11.294  24.050  14.773
82367W        W41628  41.976   8.212  12.881
82368W        W41629  13.829  32.939   4.752
82369W        W41630  12.215  42.424   2.279
82370W        W41631   0.283  33.584  12.082
82371W        W41632  20.685  41.453   3.169
82372W        W41633  25.130  41.854   2.749
82373W        W41634  15.254  42.805  13.008
82374W        W41635  41.872  15.802  11.446
82375W        W41636  38.536  24.193   1.241
82376W        W41637  31.014  20.714   2.258
82377W        W41638  29.560  13.729   2.736
82378W        W41639  30.547  41.410  14.343
82379W        W41640  22.093   5.867   2.887
82380W        W41641   6.323  25.205  11.425
82381W        W41642  26.102  26.975  12.029
82382W        W41643  23.596  25.572   3.679
82383W        W41644   2.885  26.485   4.169
82384W        W41645   8.214  29.159   0.253
82385W        W41646  20.573  27.669   5.678
82386W        W41647  14.731   5.738  14.476
82387W        W41648  20.244  41.856   1.931
82388W        W41649  12.614  25.666   4.347
82389W        W41650  32.487  34.927  13.988
82390W        W41651  12.324  40.842   2.316
82391W        W41652  42.781  43.835   1.439
82392W        W41653   2.775  34.596   1.717
82393W        W41654  19.284   0.425   4.664
82394W        W41655  35.060  15.214  14.463
82395W        W41656  31.017  28.464   1.334
82396W        W41657  32.467  38.017   1.829
82397W        W41658  30.941  23.061   4.835
82398W        W41659  32.427  30.498   0.338
82399W        W41660  10.678  39.853  13.390
82400W        W41661  28.622  22.675   4.691
82401W        W41662   0.329  41.380  14.326
82402W        W41663  39.027  24.107   2.268
82403W        W41664  29.092  15.612   2.811
82404W        W41665   6.245  33.121   3.736
82405W        W41666  29.647  20.205   3.743
82406W        W41667  33.408  29.104   0.324
82407W        W41668  28.134  36.395   3.205
82408W        W41669  21.575  41.800  11.046
82409W        W41670  37.027  23.540  13.509
82410W        W41671  41.939  44.834  12.894
82411W        W41672  34.609   6.236   2.837
82412W        W41673  19.540  11.770  14.806
82413W        W41674  32.523  18.641  11.595
82414W        W41675   0.836   6.819  13.810
82415W        W41676  34.403  40.027   1.733
82416W        W41677  17.675  36.021   1.390
82417W        W41678  44.995  15.109   4.304
82418W        W41679  33.493  15.145   1.350
82419W        W41680  18.204  21.106  12.427
82420W        W41681  23.032   3.297   3.253
82421W        W41682  14.331  32.977   0.333
82422W        W41683  10.199  44.812   2.682
82423W        W41684  12.186  23.125  11.599
82424W        W41685  12.655  36.505  13.538
82425W        W41686  20.179   8.339   4.341
82426W        W41687  40.522   6.910   4.825
82427W        W41688  37.056  13.215   2.797
82428W        W41689  11.181  44.984  13.981
82429W        W41690  24.523  17.138  10.484
82430W        W41691  15.188  10.677  11.127
82431W        W41692  29.507   1.961  10.900
82432W        W41693   6.278   4.309  14.477
82433W        W41694  15.723  14.162   2.699
82434W        W41695  31.992  35.948   5.225
82435W        W41696  29.987  22.078   2.262
82436W        W41697  28.612  27.531   2.371
82437W        W41698  15.588  19.736   0.931
82438W        W41699  28.030   9.739  11.899
82439W        W41700  15.095  41.038   4.310
82440W        W41701  12.146  33.450  14.275
82441W        W41702   5.361  20.243  13.372
82442W        W41703   9.710  33.940  11.001
82443W        W41704  11.673  33.466  13.868
82444W        W41705   1.411   4.431   1.342
82445W        W41706  41.329  40.426  13.349
82446W        W41707   4.907  35.925   0.428
82447W        W41708  21.646  24.199   4.215
82448W        W41709  13.251  14.186  12.087
82449W        W41710  22.598  21.085  11.069
82450W        W41711   1.749   5.338  14.299
82451W        W41712  38.928  28.953   5.308
82452W        W41713  17.726  33.000  11.951
82453W        W41714  33.055  11.227   1.808
82454W        W41715   9.288   0.399  14.499
82455W        W41716   0.909  12.777  10.129
82456W        W41717  20.244  39.406   1.276
82457W        W41718  34.062  40.918   3.798
82458W        W41719   1.911  16.261   4.130
82459W        W41720  28.166  18.790  12.400
82460W        W41721  12.675   2.933   3.241
82461W        W41722  13.751  33.564  14.323
82462W        W41723  21.544  20.245  11.887
82463W        W41724  22.716  19.565   0.876
82464W        W41725   8.711  16.275   1.848
82465W        W41726  41.995  16.631  13.834
82466W        W41727  22.229  15.163  12.564
82467W        W41728   4.251  35.358  13.911
82468W        W41729  17.224  16.289   3.162
82469W        W41730  37.007  37.481   2.889
82470W        W41731  20.189  16.312  14.024
82471W        W41732  37.018  29.138  10.591
82472W        W41733   7.791  33.937  10.468
82473W        W41734   9.201  14.301   0.410
82474W        W41735   9.710  15.186   0.362
82475W        W41736  32.024   0.309  14.887
82476W        W41737  32.523   0.881  11.052
82477W        W41738  28.676  12.189   0.836
82478W        W41739  38.913  40.389  11.944
82479W        W41740  33.984  30.931  12.854
82480W        W41741   7.177  39.445   2.269
82481W        W41742  39.824  11.163   2.687
82482W        W41743   0.887   4.832  13.396
82483W        W41744  14.199  23.195  14.851
82484W        W41745  20.046  31.542  11.468
82485W        W41746  39.862  38.994  12.074
82486W        W41747   3.258  14.710   3.813
82487W        W41748  32.099   0.284  13.428
82488W        W41749  32.047  25.199  11.586
82489W        W41750   2.766  23.718   2.700
82490W        W41751  41.946   8.726   1.369
82491W        W41752  40.922  30.491  10.572
82492W        W41753  14.185  22.078   0.449
82493W        W41754  42.793  37.960  10.973
82494W        W41755  23.139  19.116   4.291
82495W        W41756  32.939  10.210   2.348
82496W        W41757  19.637  23.116   0.461
82497W        W41758   2.257  27.066   4.238
82498W        W41759  39.381  15.646  12.467
82499W        W41760  36.403  18.766  14.370
82500W        W41761  18.652  23.649   0.952
82501W        W41762  11.827  32.422  10.610
82502W        W41763  42.433  12.265  14.306
82503W        W41764  36.922  19.631  12.451
82504W        W41765  21.163   7.865  13.988
82505W        W41766  43.412  42.420  12.824
82506W        W41767   1.918  15.270   0.914
82507W        W41768  24.647  10.183   4.211
82508W        W41769  41.923   4.274  14.762
82509W        W41770  19.542   1.966   2.303
82510W        W41771  28.668   4.353   1.884
82511W        W41772   8.221  41.041  10.607
82512W        W41773  20.765  32.015   3.677
82513W        W41774   3.756  41.357   2.788
82514W        W41775  27.666  11.333  10.418
82515W        W41776   1.968  19.589  14.444
82516W        W41777   2.908  31.898  12.953
82517W        W41778  36.048  19.234  13.531
82518W        W41779  15.636  30.129  12.383
82519W        W41780  24.520   5.812   0.829
82520W        W41781  16.164  44.829   3.258
82521W        W41782  13.725  44.758  11.910
82522W        W41783  11.645  28.037   3.824
82523W        W41784   4.797  15.096   2.262
82524W        W41785   4.234  26.650  10.157
82525W        W41786  26.077   0.462   0.391
82526W        W41787  26.642  25.662  12.522
82527W        W41788  33.121  29.168   0.758
82528W        W41789   2.299   0.913  10.543
82529W        W41790  22.233  22.507   3.234
82530W        W41791   0.760  23.220   0.300
82531W        W41792  42.516  27.951  12.886
82532W        W41793  22.228  26.072   2.359
82533W        W41794  33.956  18.789   3.189
82534W        W41795  22.603  39.053  10.029
82535W        W41796   0.876  39.409  10.445
82536W        W41797  44.374  22.202  10.528
82537W        W41798  28.606  29.149  11.937
82538W        W41799   6.782  12.231   0.768
82539W        W41800  22.237  36.355   1.796
82540W        W41801  21.694  10.776  14.962
82541W        W41802  33.966  22.041   2.731
82542W        W41803  44.774  10.351  10.994
82543W        W41804   9.757  12.139  13.516
82544W        W41805  33.592  36.967  12.539
82545W        W41806  24.603  22.250   0.762
82546W        W41807   1.779  22.508  13.017
82547W        W41808  29.051  31.639  13.873
82548W        W41809  10.287  41.484   4.301
82549W        W41810   3.862  36.487  13.499
82550W        W41811  36.013  39.933  12.877
82551W        W41812  32.100  11.291   3.671
82552W        W41813   3.254  32.919  12.950
82553W        W41814  31.902  36.360   4.239
82554W        W41815  43.939  23.996  11.571
82555W        W41816   3.798  18.081  12.021
82556W        W41817   1.425   0.951   3.684
82557W        W41818  11.205  24.489   0.924
82558W        W41819  29.133  33.469  12.493
82559W        W41820  33.578  19.056   0.907
82560W        W41821  34.507  43.933  10.073
82561W        W41822  34.927  32.025  11.018
82562W        W41823   9.722   3.300  10.090
82563W        W41824  15.290  42.488  12.540
82564W        W41825  21.544  23.234  14.360
82565W        W41826  15.247  18.147  12.040
82566W        W41827  40.016  26.098  13.882
82567W        W41828  29.528  19.572  11.585
82568W        W41829  23.035  40.411  10.540
82569W        W41830  12.695  10.321  10.477
82570W        W41831  11.810  24.139   3.157
82571W        W41832  23.048  31.983  14.843
82572W        W41833  25.004   7.205  11.010
82573W        W41834  33.390  44.477  14.287
82574W        W41835  22.733  29.666  13.485
82575W        W41836  39.908  14.128   4.643
82576W        W41837  20.667   8.212   3.742
82577W        W41838  28.981  25.504   1.250
82578W        W41839  23.659  10.288  14.496
82579W        W41840  13.290  30.511  12.343
82580W        W41841  15.630  25.654   0.458
82581W        W41842  25.561  29.667   5.164
82582W        W41843   1.751   2.299   0.875
82583W        W41844  13.812  44.972   4.639
82584W        W41845  25.149  30.645  14.323
82585W        W41846  34.566  11.262   2.765
82586W        W41847  29.991  11.818   9.932
82587W        W41848  30.159  41.910   1.263
82588W        W41849  14.263  34.524  12.060
82589W        W41850  42.394  25.183  13.897
82590W        W41851   3.265  44.283  10.520
82591W        W41852  16.301  24.035   0.321
82592W        W41853  17.166  44.313  11.447
82593W        W41854  21.714  12.255   1.230
82594W        W41855  28.056  13.305  11.543
82595W        W41856  19.224   6.729  13.339
82596W        W41857  39.911  27.613   3.382
82597W        W41858   3.281  29.087  11.859
82598W        W41859   6.193  41.953  14.828
82599W        W41860  34.095  30.123  13.018
82600W        W41861  40.897  39.822   4.209
82601W        W41862  10.240   9.743   3.381
82602W        W41863  15.327   8.277  10.579
82603W        W41864  23.213  35.548  12.556
82604W        W41865  13.313   3.878  10.889
82605W        W41866  39.038  12.722   3.327
82606W        W41867   5.772  30.134   0.429
82607W        W41868  21.167  32.920   2.365
82608W        W41869  12.653  33.567  10.495
82609W        W41870   9.269   5.393  10.982
82610W        W41871  19.134  30.446   1.415
82611W        W41872  24.123  29.464   2.714
82612W        W41873  39.838  19.214  11.098
82613W        W41874   3.416  26.022  11.049
82614W        W41875  35.951  25.592  13.315
82615W        W41876  18.208   3.400   1.781
82616W        W41877  17.222  35.097  11.008
82617W        W41878  37.479  33.386   1.304
82618W        W41879  27.992  14.328   2.371
82619W        W41880  17.306  37.909  12.350
82620W        W41881  42.924  24.122   1.278
82621W        W41882  43.919  32.591   3.778
82622W        W41883   4.855  38.326  13.372
82623W        W41884  35.854  42.325  14.381
82624W        W41885  34.020  16.263   3.378
82625W        W41886  28.657   8.376   3.710
82626W        W41887  24.194  33.095  12.518
82627W        W41888   0.950  43.957   1.401
82628W        W41889  24.501  39.401  12.561
82629W        W41890  39.993   2.299   0.275
82630W        W41891   0.879  27.039  11.600
82631W        W41892  18.674   0.312   0.404
82632W        W41893  11.700  25.060  10.145
82633W        W41894  22.663  14.618   0.382
82634W        W41895  31.472   3.313  13.516
82635W        W41896  34.910  31.921  12.078
82636W        W41897   7.325   8.839   1.261
82637W        W41898   2.803   0.896   2.209
82638W        W41899  38.989  28.071  12.480
82639W        W41900  32.537  13.185   4.763
82640W        W41901  34.403   1.826   1.932
82641W        W41902  26.119  35.444  13.307
82642W        W41903  25.590  35.450  11.881
82643W        W41904  13.226   8.323  13.853
82644W        W41905  13.328  21.588   0.746
82645W        W41906  15.312   1.446  11.919
82646W        W41907  37.416  38.002   0.914
82647W        W41908   4.911  12.119   3.817
82648W        W41909  38.827  34.539   3.748
82649W        W41910   7.193   5.752  11.044
82650W        W41911  12.813  37.438   4.742
82651W        W41912   8.733  16.199   2.409
82652W        W41913  41.838   2.807  11.090
82653W        W41914   1.442   7.352  10.981
82654W        W41915  24.977  14.650  12.356
82655W        W41916  37.556   5.411  12.073
82656W        W41917   9.350   1.778  11.093
82657W        W41918  42.929  18.173   1.311
82658W        W41919  15.633  38.983   2.899
82659W        W41920  17.645  37.977  10.997
82660W        W41921  25.133  23.108   0.757
82661W        W41922  22.124  22.090  13.511
82662W        W41923  32.625   5.897  11.492
82663W        W41924  23.008  24.676  12.454
82664W        W41925   7.885   6.905   1.765
82665W        W41926  12.340  13.201   0.915
82666W        W41927  32.472  29.127  14.029
82667W        W41928  20.258  23.512   4.318
82668W        W41929  43.895  19.280   0.254
82669W        W41930  29.517  23.177  11.008
82670W        W41931  13.124  40.476   0.855
82671W        W41932  39.405  36.412  11.888
82672W        W41933   7.242  21.600   2.257
82673W        W41934  16.083  30.068  10.416
82674W        W41935  20.742  23.607  14.516
82675W        W41936  28.499  13.699   1.853
82676W        W41937  43.860  17.212  14.331
82677W        W41938  24.673  32.567   0.295
82678W        W41939  22.083   3.742  13.991
82679W        W41940  35.437  22.058  13.975
82680W        W41941  31.061  15.785  11.988
82681W        W41942  35.979   0.903   1.231
82682W        W41943  23.580  35.973  13.856
82683W        W41944  22.548  15.672  12.041
82684W        W41945   0.847  10.353  13.894
82685W        W41946  36.945  17.640  13.347
82686W        W41947  43.002  30.571   0.958
82687W        W41948  14.806  40.350  11.543
82688W        W41949  23.616  27.558   0.859
82689W        W41950  16.153  24.982  14.799
82690W        W41951   5.367  27.969  13.805
82691W        W41952  40.347  16.627  10.490
82692W        W41953  38.509  29.429   2.828
82693W        W41954  16.756   8.660  14.996
82694W        W41955  12.185  14.813   5.122
82695W        W41956  37.471  36.029  14.833
82696W        W41957  39.065  14.223  14.873
82697W        W41958  15.634  26.658   9.947
82698W        W41959  11.786   6.375   2.202
82699W        W41960  13.603  25.968  11.972
82700W        W41961  18.783  20.724   1.377
82701W        W41962  24.172  42.457  14.343
82702W        W41963  20.230  19.535  12.986
82703W        W41964  17.744  31.947  14.396
82704W        W41965  22.182  43.386  11.965
82705W        W41966  33.914  33.993   1.763
82706W        W41967  21.229  14.337   4.668
82707W        W41968   2.347  14.104  11.088
82708W        W41969  17.222  40.379   2.786
82709W        W41970  18.170   0.251   4.634
82710W        W41971  11.278  28.655   1.871
82711W        W41972  44.311  31.642   2.730
82712W        W41973  32.551  17.243  13.527
82713W        W41974  42.475  24.179   0.338
82714W        W41975  10.197  20.136  14.491
82715W        W41976   6.339  20.683   2.894
82716W        W41977  39.435  21.628  14.947
82717W        W41978  44.388  34.457   0.816
82718W        W41979  15.289  17.297   2.221
82719W        W41980   3.854  10.741   5.319
82720W        W41981  39.392  21.665   4.645
82721W        W41982  40.856  14.232  12.976
82722W        W41983   0.932  20.605   2.819
82723W        W41984  27.681  37.029  10.926
82724W        W41985  30.581   1.752  13.901
82725W        W41986  32.497  20.108   0.865
82726W        W41987  29.013  20.160   3.827
82727W        W41988  32.000  20.732   1.818
82728W        W41989  11.213  17.255  10.445
82729W        W41990  17.172  39.867   0.338
82730W        W41991  25.145  17.283   1.430
82731W        W41992  10.157  20.746  12.361
82732W        W41993   2.842  41.918   1.925
82733W        W41994  33.991   9.350   2.822
82734W        W41995   7.800  15.241  12.094
82735W        W41996   7.247  30.518   1.311
82736W        W41997  39.984  33.108   0.457
82737W        W41998  12.633   2.455   4.309
82738W        W41999  24.206  38.422  11.575
82739W        W42000  10.358  15.607  13.483
82740W        W42001  24.039  21.678   0.297
82741W        W42002  27.027   9.208  11.555
82742W        W42003  30.103  15.177  10.609
82743W        W42004  20.258  20.130  13.906
82744W        W42005  22.145  21.144   3.204
82745W        W42006  10.725  11.697  12.850
82746W        W42007   6.849   9.314  14.960
82747W        W42008  33.612   9.817   3.187
82748W        W42009  20.658  26.700   4.608
82749W        W42010  13.288  23.722  11.118
82750W        W42011  33.450  26.137   1.809
82751W        W42012  43.377  34.868  13.049
82752W        W42013  39.365  38.861  14.776
82753W        W42014  42.791  31.638   2.390
82754W        W42015  15.699   7.375   4.758
82755W        W42016  12.170  15.819   5.218
82756W        W42017  25.652   7.748  12.440
82757W        W42018  40.859  21.080  10.572
82758W        W42019  16.779   5.714   0.776
82759W        W42020  37.548  35.023  13.938
82760W        W42021  36.414   7.172   0.891
82761W        W42022  19.695  44.476   2.845
82762W        W42023  33.091   4.275  13.402
82763W        W42024   8.321   9.194   0.350
82764W        W42025  19.561   0.826  13.983
82765W        W42026  30.454  32.109  14.906
82766W        W42027  14.754  37.992   3.639
82767W        W42028  44.398  10.776  12.521
82768W        W42029  37.871  17.734   0.761
82769W        W42030  26.511  29.064  10.626
82770W        W42031  41.516   6.871  10.630
82771W        W42032  41.328  36.894   3.264
82772W        W42033  24.688  37.526   0.427
82773W        W42034  23.517  27.493   9.662
82774W        W42035   1.276  11.757   3.210
82775W        W42036  30.446  43.298  12.438
82776W        W42037  36.948  44.754  12.825
82777W        W42038  17.199  23.104  11.859
82778W        W42039  25.141  18.163  14.276
82779W        W42040  23.214  30.604   0.482
82780W        W42041  13.325  29.978   5.191
82781W        W42042   8.761  26.953  11.526
82782W        W42043  14.150  19.741   4.323
82783W        W42044  20.213  36.034   4.660
82784W        W42045  16.667  20.673  13.949
82785W        W42046   1.371  38.373  10.604
82786W        W42047  20.662  16.177  13.964
82787W        W42048   3.343  30.509  11.895
82788W        W42049  23.042  39.884  13.533
82789W        W42050  27.035  20.540   3.308
82790W        W42051  37.059  32.625   4.133
82791W        W42052   9.671  24.646   1.753
82792W        W42053  10.824   2.790  12.435
82793W        W42054  28.167  39.402  14.401
82794W        W42055   6.396   9.291  13.522
82795W        W42056  34.072   7.722   4.826
82796W        W42057  41.928  44.858  10.572
82797W        W42058  34.911   7.690   0.402
82798W        W42059  30.938  34.954   1.832
82799W        W42060  23.141  17.605  11.396
82800W        W42061  41.999  32.907   1.317
82801W        W42062   7.723  10.218   0.761
82802W        W42063  26.079  28.178  11.439
82803W        W42064  27.534  28.059   0.376
82804W        W42065  44.297  15.304  14.448
82805W        W42066  30.471  19.634  14.364
82806W        W42067  26.060  30.025   2.394
82807W        W42068   3.845  18.228   2.276
82808W        W42069  28.151  14.698   0.766
82809W        W42070   1.395  38.483  12.387
82810W        W42071   7.352   0.751   1.867
82811W        W42072  38.530  12.335   0.381
82812W        W42073   1.337   3.739   1.878
82813W        W42074  43.021   4.418   3.212
82814W        W42075  26.620   4.746   1.349
82815W        W42076  29.452  15.244  14.894
82816W        W42077  40.400  35.578  12.842
82817W        W42078  21.738  18.563  11.576
82818W        W42079   8.265  31.455  11.496
82819W        W42080  35.059  28.658   3.858
82820W        W42081  14.733   2.342   2.705
82821W        W42082   5.820  37.498   2.374
82822W        W42083  23.533  29.596   0.436
82823W        W42084   9.784   5.387   3.361
82824W        W42085  39.859  23.174  10.621
82825W        W42086  23.149  29.109  11.547
82826W        W42087   0.943  37.859  14.769
82827W        W42088  38.915   8.883   2.203
82828W        W42089  25.094   2.902   2.822
82829W        W42090  39.503  10.755  12.488
82830W        W42091   8.746  23.999  12.921
82831W        W42092  19.084  22.117  14.319
82832W        W42093  38.888  18.252  11.988
82833W        W42094   2.834  11.831  14.467
82834W        W42095  27.492  15.205   0.477
82835W        W42096  35.039   7.759   4.632
82836W        W42097  29.022  44.273  11.097
82837W        W42098  14.665  32.073  14.832
82838W        W42099  21.707  38.447   0.464
82839W        W42100  28.106   5.384  12.450
82840W        W42101   7.310   7.244   1.214
82841W        W42102   3.429   7.776   3.320
82842W        W42103  17.256   6.231  13.047
82843W        W42104  23.490  14.651  13.885
82844W        W42105  34.446  34.381   2.312
82845W        W42106  27.463   5.762   0.261
82846W        W42107  25.995  38.006   2.216
82847W        W42108  41.007  43.810   0.747
82848W        W42109   3.380  15.585   4.217
82849W        W42110  14.712  22.106  10.508
82850W        W42111  27.121  15.255  14.965
82851W        W42112   3.425  36.413  12.422
82852W        W42113  38.014  25.673  10.466
82853W        W42114  36.960   0.265  11.003
82854W        W42115  13.690  10.660   3.788
82855W        W42116  43.383  39.536   4.342
82856W        W42117  10.282  20.697   2.366
82857W        W42118  19.130  25.528   2.270
82858W        W42119  38.936   3.838   2.893
82859W        W42120  43.797  14.141  14.992
82860W        W42121  34.575  16.278   2.405
82861W        W42122   3.875   8.404   0.752
82862W        W42123  37.883   5.211   4.819
82863W        W42124  37.929   2.799  13.459
82864W        W42125   6.201  12.812   3.289
82865W        W42126  17.192   1.437   1.315
82866W        W42127  19.185  25.999   1.283
82867W        W42128  11.273   0.281  11.414
82868W        W42129  38.513   6.392   1.714
82869W        W42130  44.362  19.057  13.020
82870W        W42131  34.015  25.652  13.803
82871W        W42132  42.908  36.872   1.240
82872W        W42133  31.982  23.650  10.126
82873W        W42134  29.104  38.350  13.891
82874W        W42135  44.006  19.181  10.602
82875W        W42136  37.891   1.846   5.096
82876W        W42137  34.370  15.105   3.286
82877W        W42138  34.607  38.890   4.314
82878W        W42139  37.830  23.170  14.846
82879W        W42140  11.864  12.817   1.884
82880W        W42141  31.094  11.298  13.355
82881W        W42142  41.306   7.281  13.537
82882W        W42143  35.078  10.784   1.824
82883W        W42144  32.496  13.159   0.927
82884W        W42145  36.980   2.295  11.440
82885W        W42146  11.156  20.564   1.725
82886W        W42147  21.117   0.266  13.056
82887W        W42148  13.669  44.837   4.324
82888W        W42149  28.523  21.627  11.105
82889W        W42150  33.968  15.658  13.835
82890W        W42151  31.629  24.066  10.507
82891W        W42152  24.198   7.901   2.237
82892W        W42153   5.772  39.033  10.997
82893W        W42154  33.060   4.904  11.947
82894W        W42155  37.973   4.771   4.834
82895W        W42156  25.535  19.732  10.071
82896W        W42157  19.742  38.364  12.470
82897W        W42158  31.488  28.680  12.532
82898W        W42159  43.374  38.845   4.212
82899W        W42160  42.915   7.789   3.768
82900W        W42161  42.504  43.371  14.863
82901W        W42162  33.596  27.464  14.952
82902W        W42163   2.318   8.368  12.990
82903W        W42164   2.326  12.646  13.806
82904W        W42165   5.215  20.593   0.780
82905W        W42166  11.322  40.311   3.176
82906W        W42167  21.027  25.496  10.579
82907W        W42168  32.443  24.674   4.681
82908W        W42169  28.945   6.285   0.244
82909W        W42170   3.882  32.426   3.799
82910W        W42171  15.147  30.482   4.285
82911W        W42172  17.729  25.022   2.350
82912W        W42173  36.398  34.092   4.658
82913W        W42174   7.372  12.770   1.362
82914W        W42175  20.561   9.273  11.950
82915W        W42176  16.591   0.987  11.482
82916W        W42177  19.246  27.994   1.415
82917W        W42178  34.073  15.288  12.826
82918W        W42179  37.473  29.057   4.660
82919W        W42180  24.491  44.318  12.448
82920W        W42181  34.067  17.673   2.689
82921W        W42182  24.089  25.992   0.935
82922W        W42183  43.878  14.799  14.320
82923W        W42184  43.801   5.218   1.279
82924W        W42185   8.789  20.232  12.364
82925W        W42186   3.215   3.353   3.173
82926W        W42187   7.248  42.393   3.783
82927W        W42188  33.977  42.514  11.961
82928W        W42189   7.196  28.503   1.768
82929W        W42190   7.760  35.927  13.894
82930W        W42191  12.126  28.956   3.205
82931W        W42192   6.372  40.956  14.505
82932W        W42193   3.720  17.605   2.784
82933W        W42194  21.092   5.432   4.132
82934W        W42195  13.260  19.094   4.659
82935W        W42196   1.847  17.556   0.907
82936W        W42197  19.182  26.466   2.781
82937W        W42198  26.121  10.147   1.739
82938W        W42199  15.269  22.565  13.018
82939W        W42200  28.439  14.653  14.467
82940W        W42201   5.874  41.456  11.588
82941W        W42202  16.146  14.094  12.365
82942W        W42203  13.711  16.702   3.238
82943W        W42204  24.103  12.234   2.382
82944W        W42205   2.802  40.970   4.623
82945W        W42206  42.897  37.393   0.872
82946W        W42207   0.927  28.442   3.202
82947W        W42208  43.283   2.764   3.790
82948W        W42209  13.162  36.911  14.921
82949W        W42210  38.935  30.479   2.728
82950W        W42211  35.505   8.232   3.350
82951W        W42212  35.916  34.389   4.726
82952W        W42213  43.286  34.881  13.901
82953W        W42214  40.396  27.639   4.160
82954W        W42215  23.537   0.926  12.939
82955W        W42216   2.890  10.669   2.863
82956W        W42217  11.225  32.996  12.030
82957W        W42218   6.685  31.463   0.840
82958W        W42219   2.432  12.167   3.333
82959W        W42220  13.639   1.962  10.481
82960W        W42221   2.787  15.678  10.625
82961W        W42222  26.525  39.337  12.386
82962W        W42223  32.589  26.050   2.198
82963W        W42224   7.396  18.614   1.313
82964W        W42225  25.578  36.043  13.016
82965W        W42226  39.037  31.633   3.230
82966W        W42227  16.597   0.816   0.738
82967W        W42228  26.059  24.137  11.025
82968W        W42229  26.564  40.016   2.265
82969W        W42230   2.456  13.318   3.634
82970W        W42231  29.464   1.925  12.469
82971W        W42232  43.457  26.702  13.340
82972W        W42233  21.685  16.708  11.531
82973W        W42234  14.604  24.484   4.208
82974W        W42235  32.116  16.078  12.906
82975W        W42236  40.010  19.214  12.479
82976W        W42237   6.730   4.852  10.477
82977W        W42238  17.737  39.535   4.755
82978W        W42239  18.702  20.742  11.021
82979W        W42240  24.126  40.958   1.895
82980W        W42241  33.015  42.854   4.777
82981W        W42242  44.430   3.935  12.062
82982W        W42243  42.857  41.487  12.394
82983W        W42244  25.005  34.904   1.727
82984W        W42245  27.007  31.086   2.737
82985W        W42246  32.941  14.212   0.805
82986W        W42247   2.851   6.409  10.905
82987W        W42248  39.452  15.135  11.991
82988W        W42249  27.593  32.014   3.209
82989W        W42250  11.706  43.986  13.498
82990W        W42251   1.470  15.241  12.492
82991W        W42252   4.330  39.859  11.018
82992W        W42253  39.513   8.727   3.207
82993W        W42254  14.308  36.368  11.935
82994W        W42255  44.336  16.228   1.444
82995W        W42256  23.665  43.386  13.962
82996W        W42257  21.520  35.938  14.445
82997W        W42258  31.478  33.897  12.538
82998W        W42259  21.731  35.601   0.785
82999W        W42260   4.282  17.669   3.299
83000W        W42261  36.482  19.656   2.749
83001W        W42262  19.261   0.399  13.499
83002W        W42263  37.996   5.765  11.533
83003W        W42264   8.741  26.619  10.003
83004W        W42265  10.231  26.199  14.829
83005W        W42266  24.069  12.142   2.890
83006W        W42267  19.676  40.333  10.527
83007W        W42268  37.018  38.906  13.368
83008W        W42269  42.997  17.203   5.129
83009W        W42270  25.676  10.334   1.729
83010W        W42271  43.368  22.602   2.824
83011W        W42272  24.228  38.510  10.615
83012W        W42273  24.215  38.953  12.947
83013W        W42274  44.490  17.068   3.347
83014W        W42275  18.243  32.534  11.067
83015W        W42276  17.211  15.695   3.728
83016W        W42277  37.404  15.803  11.533
83017W        W42278  33.067  12.205   2.877
83018W        W42279  17.751  22.098  13.335
83019W        W42280  20.093  37.974   1.226
83020W        W42281  26.021  14.305  12.885
83021W        W42282  13.187  15.817  10.434
83022W        W42283  38.899  18.684   4.137
83023W        W42284  39.365   4.815  12.953
83024W        W42285  24.105  34.502   3.711
83025W        W42286  13.757  20.692  13.361
83026W        W42287  25.648  26.497   1.415
83027W        W42288  42.848  18.640  14.305
83028W        W42289  19.573  33.930  14.340
83029W        W42290   6.327  33.109  14.805
83030W        W42291  34.907  32.402  13.931
83031W        W42292  38.525  14.671  12.003
83032W        W42293  23.498   7.282  11.040
83033W        W42294  13.685  19.267   0.477
83034W        W42295   7.314  22.617   0.762
83035W        W42296   5.411  18.609  12.562
83036W        W42297  36.390   9.743  11.599
83037W        W42298  40.872  29.658   3.841
83038W        W42299  16.248  17.122   0.466
83039W        W42300  26.125  36.347  14.023
83040W        W42301  10.754   6.900   5.210
83041W        W42302  21.536  38.570  12.361
83042W        W42303  29.604  27.104   3.843
83043W        W42304  28.957  24.077  13.933
83044W        W42305  33.982  37.477  10.617
83045W        W42306  23.049   1.294   0.902
83046W        W42307   0.844   8.249  11.076
83047W        W42308  42.360  33.028  14.298
83048W        W42309  25.992  10.157   4.329
83049W        W42310  30.540  18.594  10.449
83050W        W42311   2.823  26.169   3.198
83051W        W42312   1.427  31.593  12.999
83052W        W42313   8.334  11.350   0.455
83053W        W42314  22.667  32.436   4.619
83054W        W42315  10.693  35.441   4.276
83055W        W42316  36.496  22.098   4.629
83056W        W42317  25.021   4.264  14.431
83057W        W42318  27.153  35.518   0.876
83058W        W42319  41.372  42.778   1.873
83059W        W42320  40.350  26.185   4.242
83060W        W42321  42.849  37.396   0.360
83061W        W42322  19.749  43.473  13.314
83062W        W42323   5.326  28.651   4.699
83063W        W42324  25.034  32.133  14.317
83064W        W42325  33.485  38.543   1.886
83065W        W42326  22.998  23.707  12.860
83066W        W42327   4.226  30.513  14.479
83067W        W42328  23.097   2.907  14.957
83068W        W42329  17.083  10.316   1.397
83069W        W42330  21.713  24.607   1.440
83070W        W42331   0.266  14.326  11.936
83071W        W42332   4.854  11.240   4.258
83072W        W42333  22.745   0.809   2.732
83073W        W42334  41.427  26.095   2.342
83074W        W42335  30.150  24.230   3.202
83075W        W42336  15.815  30.953   2.851
83076W        W42337  20.691  39.005  12.061
83077W        W42338   1.247   4.297   3.816
83078W        W42339   7.712   6.865  12.009
83079W        W42340  41.393   8.224   3.700
83080W        W42341  32.400  35.538   2.236
83081W        W42342   5.730   7.385  10.087
83082W        W42343  14.278  40.965  13.313
83083W        W42344  18.595  43.846  13.812
83084W        W42345  42.963  10.326  10.081
83085W        W42346  37.959  28.075   1.248
83086W        W42347  16.705  21.550  11.874
83087W        W42348  43.911  43.972   0.880
83088W        W42349   3.839  10.167   3.324
83089W        W42350  36.925  41.043   0.426
83090W        W42351  34.496  20.698   1.419
83091W        W42352  42.897  34.376  13.031
83092W        W42353  42.860  18.770   0.810
83093W        W42354   7.218   1.813  14.005
83094W        W42355   0.765   3.223  14.889
83095W        W42356  21.057   2.933  10.490
83096W        W42357  25.208  38.909   4.793
83097W        W42358  24.051  22.669   2.229
83098W        W42359   0.879  23.156  13.329
83099W        W42360  11.203  38.913  12.357
83100W        W42361  34.883  13.831  13.547
83101W        W42362  24.018  14.290   0.296
83102W        W42363  15.739  11.193   2.894
83103W        W42364  30.049  31.029  11.402
83104W        W42365   2.376   0.381   4.747
83105W        W42366  35.945  43.837  12.920
83106W        W42367  31.596  41.947  12.985
83107W        W42368  33.943  27.946  10.506
83108W        W42369  27.684  38.527  13.974
83109W        W42370  17.082  16.803  13.529
83110W        W42371   4.860  40.847   3.166
83111W        W42372  36.043  40.466   4.145
83112W        W42373   5.846  27.576  13.945
83113W        W42374   6.677  44.980  13.402
83114W        W42375  42.470  25.524   2.374
83115W        W42376   5.330  17.157  14.877
83116W        W42377   8.265   0.280  13.396
83117W        W42378  20.197  24.011  14.437
83118W        W42379  29.156  25.081  11.521
83119W        W42380  25.587  27.674  11.552
83120W        W42381  37.362   5.239   1.786
83121W        W42382  31.481  16.590  12.998
83122W        W42383  27.095   3.282  13.904
83123W        W42384   5.801  15.308  12.477
83124W        W42385  11.139  19.662  12.446
83125W        W42386  33.459  39.335   1.280
83126W        W42387  39.001   8.821   4.287
83127W        W42388  14.677   7.734   3.842
83128W        W42389  41.860   5.322   0.826
83129W        W42390  28.159   5.881  10.154
83130W        W42391  23.621  23.138  10.566
83131W        W42392  41.399  30.150   1.433
83132W        W42393  37.015  36.063   3.185
83133W        W42394   8.898   2.317  12.899
83134W        W42395   1.408  13.331   2.201
83135W        W42396   7.283  40.457   0.342
83136W        W42397  12.294  13.812   3.311
83137W        W42398  17.652  25.165  10.498
83138W        W42399  34.066   1.843  11.591
83139W        W42400   2.231  28.957   0.404
83140W        W42401  21.678  41.469   2.360
83141W        W42402  41.841  33.002  12.904
83142W        W42403  21.044  19.651  12.989
83143W        W42404  19.699  40.434   2.746
83144W        W42405   3.346  15.232   4.773
83145W        W42406  19.700  35.039   3.357
83146W        W42407   3.736  21.241   0.292
83147W        W42408  29.610  28.583  13.973
83148W        W42409  28.482  22.600  12.382
83149W        W42410  40.310  37.373   1.912
83150W        W42411  20.746  37.042  12.828
83151W        W42412  16.807   5.837   2.828
83152W        W42413  24.033  16.138  13.377
83153W        W42414  21.237  19.187   0.429
83154W        W42415   8.318  10.839   2.779
83155W        W42416  17.253   3.255  10.462
83156W        W42417  24.168  22.012  11.870
83157W        W42418  19.041  26.472  14.470
83158W        W42419  18.640   2.948  14.761
83159W        W42420  40.305  32.956  11.538
83160W        W42421  29.579  25.680   2.267
83161W        W42422  22.704  34.863   4.815
83162W        W42423  12.211  28.552   4.667
83163W        W42424  44.441  31.124  12.425
83164W        W42425  37.891   5.224   1.855
83165W        W42426  16.268  39.960   2.358
83166W        W42427  32.139   7.412   4.770
83167W        W42428  17.714  23.037  11.452
83168W        W42429   0.454  31.967   0.345
83169W        W42430  37.344  16.656   3.658
83170W        W42431  13.276  43.809  11.876
83171W        W42432  16.216   4.365   3.194
83172W        W42433  26.543  30.451   2.230
83173W        W42434  42.366  17.302  13.360
83174W        W42435  12.828  22.566  10.489
83175W        W42436  22.055  24.649  11.384
83176W        W42437   1.761  34.926  14.893
83177W        W42438  25.209  35.013   3.795
83178W        W42439  36.020   2.235   1.299
83179W        W42440   3.907  20.700   1.787
83180W        W42441  12.153  20.219   1.223
83181W        W42442  12.307  31.104   1.882
83182W        W42443  31.966  28.047  10.514
83183W        W42444  19.218  16.294  11.441
83184W        W42445  32.614  20.119  13.310
83185W        W42446   4.414  26.112  14.862
83186W        W42447  41.301  29.102  10.620
83187W        W42448  39.317   1.881  12.952
83188W        W42449  26.524  37.528  11.522
83189W        W42450  26.007  19.202   3.177
83190W        W42451   2.935  38.939  13.529
83191W        W42452  42.362  23.668  11.119
83192W        W42453  44.286   3.404  14.893
83193W        W42454  41.878  29.492   2.782
83194W        W42455   7.319  19.117  14.764
83195W        W42456  43.369   4.881  11.025
83196W        W42457  12.708   4.750   5.232
83197W        W42458  42.830  17.657   3.308
83198W        W42459  36.896   6.333   3.282
83199W        W42460  23.229  16.270   0.271
83200W        W42461  19.670  11.750  13.864
83201W        W42462   9.306  15.206   1.285
83202W        W42463  22.728  22.242  13.812
83203W        W42464   7.395  11.752  13.890
83204W        W42465  43.287  42.959  11.114
83205W        W42466  25.098  20.617  13.987
83206W        W42467  11.186   3.753   1.933
83207W        W42468  29.435  26.591  14.505
83208W        W42469  33.965   9.315   3.783
83209W        W42470  43.364  29.933  13.030
83210W        W42471  37.979  15.759   1.900
83211W        W42472   6.828  24.078   4.234
83212W        W42473  44.843  33.111   0.875
83213W        W42474   6.736  10.316   4.737
83214W        W42475  39.055  23.536  11.585
83215W        W42476  12.158  10.259   1.927
83216W        W42477  34.566  25.512   2.823
83217W        W42478  34.918  23.727  13.935
83218W        W42479  23.033  20.635   0.945
83219W        W42480  42.436  31.517   1.312
83220W        W42481  43.931  29.650   2.769
83221W        W42482   4.379  33.534   0.837
83222W        W42483  13.714  13.697  12.885
83223W        W42484  37.414  30.934  10.633
83224W        W42485  27.690  36.078   9.990
83225W        W42486  16.177  43.999  11.943
83226W        W42487  14.103  23.722   2.694
83227W        W42488   4.359  19.540  11.564
83228W        W42489  14.099  41.338  14.400
83229W        W42490  21.603  40.418   4.354
83230W        W42491  38.892  22.505   4.252
83231W        W42492  10.671  17.084  11.567
83232W        W42493  22.038  38.865   2.815
83233W        W42494  36.353  11.627   4.835
83234W        W42495  37.399  39.490   0.962
83235W        W42496  35.929  37.545  14.875
83236W        W42497  11.857  35.433  13.547
83237W        W42498  33.594   1.953  10.898
83238W        W42499   7.202   3.834  14.926
83239W        W42500  40.882   9.232  11.425
83240W        W42501  13.173  43.486   1.828
83241W        W42502  38.015  32.461   1.324
83242W        W42503   4.231  12.745  12.933
83243W        W42504   8.351   0.407  13.809
83244W        W42505  27.525   9.377  12.354
83245W        W42506  33.486  43.799  10.622
83246W        W42507  30.530  23.617   0.940
83247W        W42508  31.090  10.159   1.913
83248W        W42509  38.936  20.545   0.443
83249W        W42510  11.342  21.052  13.377
83250W        W42511  18.239   5.828   0.931
83251W        W42512  41.788  18.155   3.366
83252W        W42513  35.554  15.681   0.968
83253W        W42514   4.863  35.866  12.833
83254W        W42515  23.709  15.234  11.609
83255W        W42516  17.298   9.227  13.972
83256W        W42517  11.322  18.742  13.981
83257W        W42518  28.638  23.191   3.339
83258W        W42519  20.766   9.385  13.470
83259W        W42520  40.873   5.844  14.017
83260W        W42521  18.114  43.952  13.858
83261W        W42522  43.333  41.423   2.376
83262W        W42523  33.449   7.668   4.149
83263W        W42524  12.292   2.810   0.434
83264W        W42525  36.080  15.765   3.647
83265W        W42526  43.926   6.325  10.917
83266W        W42527  21.119   4.912  14.302
83267W        W42528  44.456   8.297   0.309
83268W        W42529  28.006  16.118  13.836
83269W        W42530  28.034  16.687   2.375
83270W        W42531   7.843  29.473  11.002
83271W        W42532   5.847   1.851   4.670
83272W        W42533  23.151  10.346   1.875
83273W        W42534  41.377  31.648   1.776
83274W        W42535  22.011   9.750  12.957
83275W        W42536  26.621  20.075  12.942
83276W        W42537  16.649  35.054   4.150
83277W        W42538  35.598  21.150  12.027
83278W        W42539  26.093  40.027  11.954
83279W        W42540  18.255  18.662   3.660
83280W        W42541  21.216  13.744  11.887
83281W        W42542  32.979  24.583   2.395
83282W        W42543  28.539  26.462   4.631
83283W        W42544  42.892   2.454   1.847
83284W        W42545   8.381  15.257   2.344
83285W        W42546   1.479  21.648  13.372
83286W        W42547  17.634  29.535   3.337
83287W        W42548  15.299  14.208   1.314
83288W        W42549  24.162  11.217  14.997
83289W        W42550   3.853  33.033  12.058
83290W        W42551  34.948  36.897  11.402
83291W        W42552  15.086  37.452  13.473
83292W        W42553  32.424  22.996   3.740
83293W        W42554  17.254  25.144   2.664
83294W        W42555  31.987  33.447   3.159
83295W        W42556  17.697  10.758  12.082
83296W        W42557  33.419  26.960   1.311
83297W        W42558  29.622  28.515  10.583
83298W        W42559  22.026   7.201  14.783
83299W        W42560  23.013   6.355   0.483
83300W        W42561   8.772   7.764  13.492
83301W        W42562  15.277  28.627   0.293
83302W        W42563  22.166   2.279   0.962
83303W        W42564  33.046  27.685  11.028
83304W        W42565  13.729   8.736  11.499
83305W        W42566  35.901  42.871  13.525
83306W        W42567   0.339  34.399   0.472
83307W        W42568  39.536  14.685   2.345
83308W        W42569  42.858  15.722  13.048
83309W        W42570   8.263  20.677  14.984
83310W        W42571  24.640  10.285  10.948
83311W        W42572  41.483  39.936  10.501
83312W        W42573  21.604  23.024   0.313
83313W        W42574  22.020  26.966   1.362
83314W        W42575   5.916  23.562   0.297
83315W        W42576  26.018  17.766   2.743
83316W        W42577  34.567  16.307   1.218
83317W        W42578  23.734  16.302   3.252
83318W        W42579  12.156   0.885   0.383
83319W        W42580  20.541  23.644   4.701
83320W        W42581  41.952  23.060  12.950
83321W        W42582  32.396  25.981  11.960
83322W        W42583  20.106  40.919  12.366
83323W        W42584  44.280  14.097  14.859
83324W        W42585  38.856  30.475   2.313
83325W        W42586   9.285  33.945   1.767
83326W        W42587  25.208  27.491   2.734
83327W        W42588   4.931   6.800  13.432
83328W        W42589  27.069   0.743  13.499
83329W        W42590  27.066  22.538  11.866
83330W        W42591   7.358  18.091   2.827
83331W        W42592  22.743  13.326  14.510
83332W        W42593   8.203  32.488   3.264
83333W        W42594  38.410  14.094   1.927
83334W        W42595   8.824   7.383   0.913
83335W        W42596  38.423  29.047   0.320
83336W        W42597  10.381   9.334  12.921
83337W        W42598  40.884   6.714  10.978
83338W        W42599  40.501  14.753  14.801
83339W        W42600  37.980  33.441  13.022
83340W        W42601  11.348   9.244  12.962
83341W        W42602  18.061  33.045  11.961
83342W        W42603  39.986  34.931  13.821
83343W        W42604   2.866   5.316  14.350
83344W        W42605  24.977  17.725   0.424
83345W        W42606  37.439  22.603  14.291
83346W        W42607  31.584  39.026   2.781
83347W        W42608   4.800  17.085  13.908
83348W        W42609   2.381   2.851  13.817
83349W        W42610  44.331  42.478   2.698
83350W        W42611  29.006  12.629  11.499
83351W        W42612  17.176  18.196   1.781
83352W        W42613  14.733  43.992  12.954
83353W        W42614  35.029  30.567   1.305
83354W        W42615   2.739  37.879  13.344
83355W        W42616  22.164   2.315  12.973
83356W        W42617  40.956   6.373   1.308
83357W        W42618   0.388  35.896  14.882
83358W        W42619  36.929  18.061   4.707
83359W        W42620  16.146  44.419  11.538
83360W        W42621  10.237   7.329   1.273
83361W        W42622  10.813  26.019  12.833
83362W        W42623  36.049   1.363   4.630
83363W        W42624  44.789  15.596  12.886
83364W        W42625  36.075  44.850  11.411
83365W        W42626   8.309  21.192  13.903
83366W        W42627  30.951  20.033  11.505
83367W        W42628  22.584  16.735   3.238
83368W        W42629  21.084  14.808  14.453
83369W        W42630  10.370  32.066  13.527
83370W        W42631  32.477   2.800   3.797
83371W        W42632  11.331   8.200   2.260
83372W        W42633  17.099  19.685  14.790
83373W        W42634  11.290  13.168   2.307
83374W        W42635  22.533   5.418   0.736
83375W        W42636  29.986   2.273   2.802
83376W        W42637  44.847  41.790  10.503
83377W        W42638  25.587  20.030   2.229
83378W        W42639  22.026   6.875   3.249
83379W        W42640  36.846   3.453  14.812
83380W        W42641  43.927   0.744   1.766
83381W        W42642  20.107  26.702  14.914
83382W        W42643   4.436  29.477  10.472
83383W        W42644  30.021  21.236  13.965
83384W        W42645   9.828   8.809  13.975
83385W        W42646  19.214  29.007  13.512
83386W        W42647  31.575  10.265  14.822
83387W        W42648  15.093  22.705   1.697
83388W        W42649  39.354   3.353  13.431
83389W        W42650  11.701  25.681   3.672
83390W        W42651  34.979  25.100   3.647
83391W        W42652  25.162  37.961   3.862
83392W        W42653   9.844  12.698   3.382
83393W        W42654   4.842  44.391   1.754
83394W        W42655  20.559  35.061  14.969
83395W        W42656  22.021  39.485  11.997
83396W        W42657  28.638  25.157  11.118
83397W        W42658   7.902  10.864  11.896
83398W        W42659  41.293  30.439   4.779
83399W        W42660  42.502  23.521  13.474
83400W        W42661   6.258  40.503  10.621
83401W        W42662  17.780   3.870  12.436
83402W        W42663  39.934  26.684  14.396
83403W        W42664  41.043  39.929  14.282
83404W        W42665  11.729  42.870  13.906
83405W        W42666  35.503  10.807  14.282
83406W        W42667  41.498  23.586   1.884
83407W        W42668  15.804  22.107   1.426
83408W        W42669  19.683  18.631   2.402
83409W        W42670  13.715  34.069  10.599
83410W        W42671   8.401  21.577  12.359
83411W        W42672  19.636   9.873   4.784
83412W        W42673   9.159  30.605  12.348
83413W        W42674  16.767  40.968  11.970
83414W        W42675  30.428  30.112   4.693
83415W        W42676  20.745  28.597   0.856
83416W        W42677  36.485   5.418  14.408
83417W        W42678  20.120  35.082  11.042
83418W        W42679  22.502   6.226   4.258
83419W        W42680  16.748   3.887  11.928
83420W        W42681  44.798  42.900  12.369
83421W        W42682   0.299  38.035  11.877
83422W        W42683  12.355   6.732  13.887
83423W        W42684  35.528   5.209  10.626
83424W        W42685   9.889  14.171  11.921
83425W        W42686  32.995  26.193   0.458
83426W        W42687  22.077   2.795   1.841
83427W        W42688   1.828  19.176   1.340
83428W        W42689  30.931  33.542   3.796
83429W        W42690  34.937  36.846   4.803
83430W        W42691  17.798  34.026  13.984
83431W        W42692  30.602  21.058  14.484
83432W        W42693  16.764  23.042   0.454
83433W        W42694  26.629  12.775   4.721
83434W        W42695  35.994  37.403   3.762
83435W        W42696  14.599  38.944  12.049
83436W        W42697  23.070  36.895   4.151
83437W        W42698  26.205  26.683   1.935
83438W        W42699  36.889  39.922   3.321
83439W        W42700  42.908  36.386   1.723
83440W        W42701   8.794  43.000  10.919
83441W        W42702   8.801  34.995  14.836
83442W        W42703   8.862  17.068  13.418
83443W        W42704   8.365  34.533   3.242
83444W        W42705  14.193  26.593  13.825
83445W        W42706  23.027  44.826  11.400
83446W        W42707  38.074   8.226  14.901
83447W        W42708   6.336  34.559   3.282
83448W        W42709   2.910  13.338   0.253
83449W        W42710  31.072  11.675  13.491
83450W        W42711  34.004  36.039  13.830
83451W        W42712  40.841   2.928   2.812
83452W        W42713   4.886   4.729  12.975
83453W        W42714  32.393   4.370  14.890
83454W        W42715  39.505  14.188  14.343
83455W        W42716  13.212  25.675  11.073
83456W        W42717  25.668  44.368   2.409
83457W        W42718  29.968  25.186  13.062
83458W        W42719  25.177  36.547  13.952
83459W        W42720  43.440  27.503  12.341
83460W        W42721  21.615  36.997   4.186
83461W        W42722  39.056  10.293   1.906
83462W        W42723  29.147  32.095   1.780
83463W        W42724   9.747  28.589   0.767
83464W        W42725  40.966   8.397   1.750
83465W        W42726   0.347  10.703   1.311
83466W        W42727  12.247  11.325   1.411
83467W        W42728  40.987  42.313  14.300
83468W        W42729  17.707  14.334   4.769
83469W        W42730  43.912  43.448   0.934
83470W        W42731   4.285  33.062   2.401
83471W        W42732   2.899   5.209   3.368
83472W        W42733  38.851  35.014  12.096
83473W        W42734  13.668  11.281  13.827
83474W        W42735  25.494  43.389  14.494
83475W        W42736  35.376   8.207  13.951
83476W        W42737  44.777   0.338   4.706
83477W        W42738  42.876  33.030   3.202
83478W        W42739  28.999  41.924   0.869
83479W        W42740  31.605   2.923   2.788
83480W        W42741  11.642  33.884  13.487
83481W        W42742  11.755  44.413  12.375
83482W        W42743  14.659   7.764   0.929
83483W        W42744  26.590  17.118  14.988
83484W        W42745  18.655  32.024   0.361
83485W        W42746  36.384  32.411  11.990
83486W        W42747   5.278  17.659  12.976
83487W        W42748  20.209  12.636  14.294
83488W        W42749   9.382   2.826  13.352
83489W        W42750   0.288  40.049   2.733
83490W        W42751  20.225  18.618  13.512
83491W        W42752  29.009  11.643  13.934
83492W        W42753  36.999   6.680   1.916
83493W        W42754   6.192  25.203   1.217
83494W        W42755  42.020  28.090   2.868
83495W        W42756  39.814  42.441  11.020
83496W        W42757   5.359   8.250   1.771
83497W        W42758   4.441  13.623   3.180
83498W        W42759   8.304  13.641   1.418
83499W        W42760  33.122  12.296   9.451
83500W        W42761  40.475   5.880   4.186
83501W        W42762  13.718  16.698   1.364
83502W        W42763  36.070  29.124  10.560
83503W        W42764  11.212  30.437   1.257
83504W        W42765  19.062  14.134   4.608
83505W        W42766  42.310  42.425   4.786
83506W        W42767  23.111  42.458   0.891
83507W        W42768  16.179   5.413  14.861
83508W        W42769  36.496   3.401  14.324
83509W        W42770  14.676  12.154  11.016
83510W        W42771  28.505  34.953   0.379
83511W        W42772   4.750  21.557  13.465
83512W        W42773  42.832  26.661  10.451
83513W        W42774  33.120  36.551   0.960
83514W        W42775  28.648  34.071   0.353
83515W        W42776  11.634   8.363   4.699
83516W        W42777  17.584   3.272  11.582
83517W        W42778  13.838  29.087   0.808
83518W        W42779  38.911  14.153   1.220
83519W        W42780  31.055   7.882   2.857
83520W        W42781  27.115  13.694  11.036
83521W        W42782  33.437  14.690  11.000
83522W        W42783  36.948  31.144  13.031
83523W        W42784  24.002   3.799  14.806
83524W        W42785  29.425  17.646   3.770
83525W        W42786  42.504   8.700  13.335
83526W        W42787  23.664  36.415   0.393
83527W        W42788  32.935   1.325  10.937
83528W        W42789  44.451  21.691  12.080
83529W        W42790  18.176   3.410  12.033
83530W        W42791  18.788  17.267  11.072
83531W        W42792  34.399  11.248  14.482
83532W        W42793  36.364  27.129   4.724
83533W        W42794  17.735   9.813   4.828
83534W        W42795  30.046   6.246   4.333
83535W        W42796  37.484   9.313  14.372
83536W        W42797  41.004  13.201   4.697
83537W        W42798  40.476  15.162  12.381
83538W        W42799   6.263   1.309  11.475
83539W        W42800  20.755  11.203   0.256
83540W        W42801   7.358  24.499  12.496
83541W        W42802  24.653  42.819   3.859
83542W        W42803  20.579  25.996   0.340
83543W        W42804  39.025  24.202   3.277
83544W        W42805  32.434  22.648   2.412
83545W        W42806  29.644  41.936   1.313
83546W        W42807  20.045  38.426  14.463
83547W        W42808  28.118  42.981  11.018
83548W        W42809  41.951  31.579  13.530
83549W        W42810  44.897   4.431  14.026
83550W        W42811   2.278  17.264  11.949
83551W        W42812  25.962  40.463   1.339
83552W        W42813   0.784  29.470   4.685
83553W        W42814  32.142   3.729   4.182
83554W        W42815   1.398  26.155   0.390
83555W        W42816  21.186  26.133  12.955
83556W        W42817  13.142  38.883   0.277
83557W        W42818  26.519   9.772  11.995
83558W        W42819  18.196   7.357  13.474
83559W        W42820   8.386  23.052   3.837
83560W        W42821   6.399  11.807   3.242
83561W        W42822  38.856  22.217   2.379
83562W        W42823  41.941  34.381  12.397
83563W        W42824   4.815   3.253  10.143
83564W        W42825  14.280  23.600   3.313
83565W        W42826  21.747   6.425   9.976
83566W        W42827  23.533  28.164   9.631
83567W        W42828   1.761  44.334  10.426
83568W        W42829   6.887   0.766  10.972
83569W        W42830   1.438  27.453  10.948
83570W        W42831  23.169   5.772  13.538
83571W        W42832  20.071  39.862  14.958
83572W        W42833   8.835  42.817  14.444
83573W        W42834   2.934  23.169   3.725
83574W        W42835  12.831  29.657  11.475
83575W        W42836   6.883   7.215   3.732
83576W        W42837  30.911  23.062  10.922
83577W        W42838  35.982  24.479   2.220
83578W        W42839  12.269  33.081   3.793
83579W        W42840  12.840   3.290   0.925
83580W        W42841  32.513  30.140  11.050
83581W        W42842  28.179  27.591   9.988
83582W        W42843  24.042  39.338   2.200
83583W        W42844  10.183  29.137   2.244
83584W        W42845  36.477  35.866  13.036
83585W        W42846  31.537  28.571   0.935
83586W        W42847  27.945  26.571   4.796
83587W        W42848   3.454  17.104   2.378
83588W        W42849  24.487  20.564   4.680
83589W        W42850  28.652  33.956   4.767
83590W        W42851  37.560  26.000   1.372
83591W        W42852  29.124  16.271   3.643
83592W        W42853  23.614  29.564   3.323
83593W        W42854  28.434  19.679  11.996
83594W        W42855  30.628  38.340   2.794
83595W        W42856  43.393   4.227  13.371
83596W        W42857  27.178   8.333  11.465
83597W        W42858  10.688   3.848   1.392
83598W        W42859  36.033  23.125  10.447
83599W        W42860  30.497   5.751   2.353
83600W        W42861  30.046  12.212   1.324
83601W        W42862  34.868  27.674   4.821
83602W        W42863   5.306  39.022   1.293
83603W        W42864  20.137  28.447  13.862
83604W        W42865  29.101  33.491  11.454
83605W        W42866  21.664  15.720  10.576
83606W        W42867  19.664  17.259   4.146
83607W        W42868  43.988   4.720  14.875
83608W        W42869  15.763  35.938  14.383
83609W        W42870  39.449  28.071  10.526
83610W        W42871  21.720  36.080   0.795
83611W        W42872  23.233  34.018   2.184
83612W        W42873  34.943  23.598  11.569
83613W        W42874   0.475  11.141  11.128
83614W        W42875  11.206   7.291   2.192
83615W        W42876  42.843  35.444   3.311
83616W        W42877  13.201  39.365   2.859
83617W        W42878  44.386  12.686   1.783
83618W        W42879  44.916  41.516  12.985
83619W        W42880  24.011  38.919  14.312
83620W        W42881   3.874  25.639  11.893
83621W        W42882  27.673  29.473   1.890
83622W        W42883  32.064  43.908  11.413
83623W        W42884  26.649  35.098  10.140
83624W        W42885  41.967  15.121   2.280
83625W        W42886  12.665   1.352  14.854
83626W        W42887  17.206   3.903   3.374
83627W        W42888  10.792  42.972  13.466
83628W        W42889  16.662  43.784  10.423
83629W        W42890  24.108  10.300  12.554
83630W        W42891  29.050   2.883   2.860
83631W        W42892  34.610   6.688   3.852
83632W        W42893  32.406   4.734   1.213
83633W        W42894  38.881   9.721  11.474
83634W        W42895  17.170  25.096   2.397
83635W        W42896  15.180   4.875   3.742
83636W        W42897  32.410  16.154   0.421
83637W        W42898  20.195   3.948   1.448
83638W        W42899   7.320  39.479   1.745
83639W        W42900  19.563  25.997   4.147
83640W        W42901  28.458  24.126  14.331
83641W        W42902  36.540  16.641  12.925
83642W        W42903  19.160   1.308  11.021
83643W        W42904  34.992  24.168  11.409
83644W        W42905  44.385   3.314  10.992
83645W        W42906   8.390   3.274  14.884
83646W        W42907  23.099   7.205   2.813
83647W        W42908   1.399  20.721  14.006
83648W        W42909  38.445  15.759  14.925
83649W        W42910   5.764  23.053  11.118
83650W        W42911   8.901  32.440  11.458
83651W        W42912   3.719   7.907  13.421
83652W        W42913  32.499  31.110   2.840
83653W        W42914  30.551  35.464  12.479
83654W        W42915  36.889   5.775   1.269
83655W        W42916  40.933   4.803   4.125
83656W        W42917  21.672   4.345   1.445
83657W        W42918  25.070   7.343  12.082
83658W        W42919  35.080   7.306   4.638
83659W        W42920  11.273  40.862  10.995
83660W        W42921   0.486  14.232  14.317
83661W        W42922   2.335  13.146   3.342
83662W        W42923  18.058  12.362  10.450
83663W        W42924  42.832  18.268   2.393
83664W        W42925  28.588   1.399  13.462
83665W        W42926  21.634  19.713   1.403
83666W        W42927   8.273  40.875   0.361
83667W        W42928  44.318  19.652  14.891
83668W        W42929  24.047  25.527  13.963
83669W        W42930  30.027  27.952   0.775
83670W        W42931   1.323  35.415   2.728
83671W        W42932  10.764  36.545  13.795
83672W        W42933  43.942   2.965  13.516
83673W        W42934  38.883  25.636  14.496
83674W        W42935  16.569   6.361  11.067
83675W        W42936   3.939  41.432   5.268
83676W        W42937   4.231  21.186  14.398
83677W        W42938   9.174  39.053  12.455
83678W        W42939  42.293  41.837  14.355
83679W        W42940   3.229  34.016  10.980
83680W        W42941   6.800   1.869  11.399
83681W        W42942  37.988  11.662  10.534
83682W        W42943  20.252  28.449   0.298
83683W        W42944   4.794  18.652   0.244
83684W        W42945   7.877  32.582  10.962
83685W        W42946  43.334   8.852   0.730
83686W        W42947  23.663  43.933  12.989
83687W        W42948  32.894  12.341   1.212
83688W        W42949  43.974  39.855  13.845
83689W        W42950  21.238  23.547   1.286
83690W        W42951  44.902  25.671   4.197
83691W        W42952  17.208  25.186  11.393
83692W        W42953  28.052  22.082   4.114
83693W        W42954   0.494  33.452  12.964
83694W        W42955   1.360   1.478  10.550
83695W        W42956  31.575  16.213   1.930
83696W        W42957  42.005  14.210   1.361
83697W        W42958   1.883  12.703   4.677
83698W        W42959   6.383  29.581   2.188
83699W        W42960  11.726  33.880  11.414
83700W        W42961  21.020  44.996  14.989
83701W        W42962  13.685  20.074  10.978
83702W        W42963  22.116   7.391   1.718
83703W        W42964  29.478  42.880   0.366
83704W        W42965  17.651  37.458   2.186
83705W        W42966  28.627  13.703  13.547
83706W        W42967  44.009   1.899   3.201
83707W        W42968   8.174   1.771   4.347
83708W        W42969  35.452  33.109   2.787
83709W        W42970  24.698  17.634   1.271
83710W        W42971   0.862  11.279   1.262
83711W        W42972  27.548   4.262  14.400
83712W        W42973  29.579  11.835  13.369
83713W        W42974  39.456  16.586  14.478
83714W        W42975  28.129  27.688  14.317
83715W        W42976   5.782  19.622   4.836
83716W        W42977  40.881  16.654  13.317
83717W        W42978  35.464   7.801   3.215
83718W        W42979  28.985  27.975   3.756
83719W        W42980  13.771   4.337  10.537
83720W        W42981   6.807  31.598   2.324
83721W        W42982  33.559  38.512  12.891
83722W        W42983  43.445  32.572  13.357
83723W        W42984  13.600  39.057   2.812
83724W        W42985  41.431  15.612   4.335
83725W        W42986   3.885  28.026   3.267
83726W        W42987  13.843  15.262   0.940
83727W        W42988  26.607  13.210  12.909
83728W        W42989  39.403  42.379   2.703
83729W        W42990  20.067   6.703   4.280
83730W        W42991   6.883   5.387   2.717
83731W        W42992  35.492  23.164   3.869
83732W        W42993  33.005  28.074   2.368
83733W        W42994  30.654  25.606  13.953
83734W        W42995  39.913  39.816  13.882
83735W        W42996   7.683  24.593   2.709
83736W        W42997  40.800  15.141  13.062
83737W        W42998  29.053   3.446  11.942
83738W        W42999  27.484  29.942   2.762
83739W        W43000   5.693   8.254   0.764
83740W        W43001  31.097  38.949  12.848
83741W        W43002   4.941  21.087   1.766
83742W        W43003  16.276   2.743  10.962
83743W        W43004  44.267   6.682   0.303
83744W        W43005   5.888   7.857  13.791
83745W        W43006  38.395  38.344  11.099
83746W        W43007   4.911   0.973   4.316
83747W        W43008  20.530  28.187   0.441
83748W        W43009   0.440  42.994  11.923
83749W        W43010  38.831  31.007  11.118
83750W        W43011  42.456  44.917   2.738
83751W        W43012  21.511   4.778   0.735
83752W        W43013  12.245  13.351   3.826
83753W        W43014  20.549  17.225   3.800
83754W        W43015   6.397  22.729  13.418
83755W        W43016  39.394   9.807   4.232
83756W        W43017  31.628  40.521   2.403
83757W        W43018  20.101  44.967   2.183
83758W        W43019   6.315  41.991  10.011
83759W        W43020  21.117  38.470  12.054
83760W        W43021  44.914   0.360  13.798
83761W        W43022  17.747  38.968   0.301
83762W        W43023  36.909   0.856   3.749
83763W        W43024   3.745  35.362  14.311
83764W        W43025  14.203   8.264   4.238
83765W        W43026  39.368  21.110  12.857
83766W        W43027  32.570  26.560  10.427
83767W        W43028  11.173  15.767  12.946
83768W        W43029  26.118   3.928  11.585
83769W        W43030   5.249   7.879  14.884
83770W        W43031   7.853  40.808  10.476
83771W        W43032  22.995   4.428   4.633
83772W        W43033   5.927  21.554   3.749
83773W        W43034   0.266   7.854   2.830
83774W        W43035  18.751  29.481   1.757
83775W        W43036  35.991   6.895   0.482
83776W        W43037  24.609  22.613   0.260
83777W        W43038   5.380  17.789   1.913
83778W        W43039   0.974   3.817   4.197
83779W        W43040  24.587  37.002  12.479
83780W        W43041  22.182  40.900  14.892
83781W        W43042  35.484  11.265  10.973
83782W        W43043  13.804   5.851   4.838
83783W        W43044  44.446   5.357  13.013
83784W        W43045   4.786  14.783  10.043
83785W        W43046  25.185  38.379  13.408
83786W        W43047  10.241  26.640  11.932
83787W        W43048  21.686  31.521   1.441
83788W        W43049  23.018   4.887  14.882
83789W        W43050  39.974  37.025  10.963
83790W        W43051  41.960  40.875   4.665
83791W        W43052   1.885  42.405   4.618
83792W        W43053  38.072  41.324  13.482
83793W        W43054  30.604  18.594  11.378
83794W        W43055  12.658  40.833   4.116
83795W        W43056   3.710  20.601   2.211
83796W        W43057   9.686  37.430  14.389
83797W        W43058  40.996  43.800  14.007
83798W        W43059  40.917  28.015   2.769
83799W        W43060  38.002  22.211  14.907
83800W        W43061  31.615  10.373  11.394
83801W        W43062  21.679  17.203  13.447
83802W        W43063  32.579  14.332   0.320
83803W        W43064   6.748  14.655  11.581
83804W        W43065  44.383  13.323  14.360
83805W        W43066   1.478  28.633  10.919
83806W        W43067  42.824  15.681   4.218
83807W        W43068  16.087   7.382  14.904
83808W        W43069  42.936   0.423  11.583
83809W        W43070  17.708  40.967   2.763
83810W        W43071  27.634   0.325   0.789
83811W        W43072  22.559  20.204   3.703
83812W        W43073  35.536   3.314   3.700
83813W        W43074  28.640   5.256   2.685
83814W        W43075  19.743  39.350  12.029
83815W        W43076   6.193   9.265  11.952
83816W        W43077  22.527  23.669   3.362
83817W        W43078  23.230  44.886   0.278
83818W        W43079  30.078  43.913  11.436
83819W        W43080  14.702  30.076   1.249
83820W        W43081  36.944   2.900   4.666
83821W        W43082  18.077  28.115   0.739
83822W        W43083  20.172  31.519   1.321
83823W        W43084  43.982   8.250   4.794
83824W        W43085  42.448  36.441  14.303
83825W        W43086  27.489  33.112   4.315
83826W        W43087  37.582  37.400   4.135
83827W        W43088  14.208  43.378   2.690
83828W        W43089  24.009  29.026   4.146
83829W        W43090   9.274  16.298  12.530
83830W        W43091  33.082  26.462  11.064
83831W        W43092  16.077  41.431  14.815
83832W        W43093  21.542   6.274  13.373
83833W        W43094  14.765   0.972  12.413
83834W        W43095   1.752  23.527   2.227
83835W        W43096   2.943  39.026   4.607
83836W        W43097  42.985   3.925   5.280
83837W        W43098  29.118   2.915  12.414
83838W        W43099  42.794   2.380   0.849
83839W        W43100  17.168  38.862   0.832
83840W        W43101  33.879  27.172   4.623
83841W        W43102  40.920   7.894  13.897
83842W        W43103   8.848   7.293  10.410
83843W        W43104  30.023  10.772  11.912
83844W        W43105  23.703  11.333  14.416
83845W        W43106  30.927  24.040  12.475
83846W        W43107  16.186  23.735  10.930
83847W        W43108  12.853  28.096  11.989
83848W        W43109  16.240  27.640  14.879
83849W        W43110  16.725  10.839   3.730
83850W        W43111  38.350  21.096  10.408
83851W        W43112  43.487  26.466  10.607
83852W        W43113   9.766  23.690  12.387
83853W        W43114  29.144  17.106   0.869
83854W        W43115   3.946  11.739  13.880
83855W        W43116  41.404  28.044   1.932
83856W        W43117  19.698   6.888  13.002
83857W        W43118  25.673   7.261  14.854
83858W        W43119   3.803  36.458   1.737
83859W        W43120   7.870  25.081   4.275
83860W        W43121  17.558  40.543   0.806
83861W        W43122   7.734   4.222  10.483
83862W        W43123  39.980   7.707   2.762
83863W        W43124   9.678  28.437  11.941
83864W        W43125  21.092   0.925   3.271
83865W        W43126  37.406  25.497   5.213
83866W        W43127  13.679  19.216   4.633
83867W        W43128  18.576   1.428   0.816
83868W        W43129  16.155   0.346   3.817
83869W        W43130  21.541  24.122  13.529
83870W        W43131  35.492  25.668   2.287
83871W        W43132   7.842  18.759  13.328
83872W        W43133  16.775   9.168   2.879
83873W        W43134  35.455   1.960  11.574
83874W        W43135  11.764   9.718   1.390
83875W        W43136  15.715   5.254  12.884
83876W        W43137  31.071  28.482   4.303
83877W        W43138  17.122   8.787  13.327
83878W        W43139  35.590  13.832   2.662
83879W        W43140  44.301   9.705   4.305
83880W        W43141  17.624  11.264   2.840
83881W        W43142  26.696  27.146  14.787
83882W        W43143   2.269  12.293  11.910
83883W        W43144  44.831  18.739   4.253
83884W        W43145  12.832  31.090  12.889
83885W        W43146   8.656   7.189   1.770
83886W        W43147  10.295  18.584   2.324
83887W        W43148   6.207  40.034  10.633
83888W        W43149   3.364   5.315   1.363
83889W        W43150  23.232   1.286   3.637
83890W        W43151   1.784  37.013  12.478
83891W        W43152  20.730  24.552  14.338
83892W        W43153  41.855  36.373   9.573
83893W        W43154  11.679  28.156   2.365
83894W        W43155   2.449   9.886  12.469
83895W        W43156   7.874  23.710   3.200
83896W        W43157  11.316  25.194  13.486
83897W        W43158  35.408  15.127   1.358
83898W        W43159  10.261  37.850  13.411
83899W        W43160  18.619  29.082   1.251
83900W        W43161  34.937  22.251  14.276
83901W        W43162   0.392  30.017  14.844
83902W        W43163  22.075  11.152  13.880
83903W        W43164  16.616  33.877  13.473
83904W        W43165  16.231  36.547  13.509
83905W        W43166  15.698  17.672  10.067
83906W        W43167  20.117  38.445  12.896
83907W        W43168  42.492  41.868   3.808
83908W        W43169   8.393   6.294  10.409
83909W        W43170  40.870  42.430  13.886
83910W        W43171   2.734  28.492  12.872
83911W        W43172  18.688   7.397   1.787
83912W        W43173  20.671  30.947   3.175
83913W        W43174  20.051  38.489  11.073
83914W        W43175  10.690  35.376   3.742
83915W        W43176  23.728  16.253   4.723
83916W        W43177  18.706  39.416  14.770
83917W        W43178  23.590  36.095  12.840
83918W        W43179  22.087  39.048   0.285
83919W        W43180  17.080  27.095  10.947
83920W        W43181  31.494   3.861   1.229
83921W        W43182  31.012  29.138   1.913
83922W        W43183  36.908  14.296   2.190
83923W        W43184  29.129  44.377   1.881
83924W        W43185  12.126  14.755   3.373
83925W        W43186   3.259  24.043   1.244
83926W        W43187  28.938   8.393   2.902
83927W        W43188   2.385   4.825  10.118
83928W        W43189   3.743  19.072   1.914
83929W        W43190   5.348  22.013   3.854
83930W        W43191   9.685  12.318  11.390
83931W        W43192  31.929  28.080   1.842
83932W        W43193  26.964  44.976  11.434
83933W        W43194  44.447  29.619   4.220
83934W        W43195  29.175   0.268  12.346
83935W        W43196  24.042  35.954   3.851
83936W        W43197  25.664  33.976  13.403
83937W        W43198  14.214  10.681  12.093
83938W        W43199  33.883  26.536   4.606
83939W        W43200  21.136  14.696  13.438
83940W        W43201   0.763   7.332   1.338
83941W        W43202  21.587  44.285  11.558
83942W        W43203  13.793  34.872   0.773
83943W        W43204  27.457  11.152  13.488
83944W        W43205  44.462  39.052  11.045
83945W        W43206  14.177  21.076  13.894
83946W        W43207   9.851  32.056  10.964
83947W        W43208   1.865  13.157   0.866
83948W        W43209   6.305  29.531  12.865
83949W        W43210   1.397  40.393   2.221
83950W        W43211  27.562  38.029   3.159
83951W        W43212  39.016  21.739  11.122
83952W        W43213  26.499  34.606   4.718
83953W        W43214   4.705  27.017   3.780
83954W        W43215  43.831  23.128   1.449
83955W        W43216  18.288  25.963  12.951
83956W        W43217  20.656   6.801  12.566
83957W        W43218  44.790  33.132  13.793
83958W        W43219   3.389  33.013   4.138
83959W        W43220   1.789  22.054   1.826
83960W        W43221  35.385  23.692  13.835
83961W        W43222  28.992   5.258  13.341
83962W        W43223  16.659  39.954   2.319
83963W        W43224  25.479   0.805  12.558
83964W        W43225  18.205   6.388  14.434
83965W        W43226  16.796  41.302  12.500
83966W        W43227  18.085  13.235  13.484
83967W        W43228  10.266  23.056  11.410
83968W        W43229  41.407  34.597   0.947
83969W        W43230   1.792  19.281   0.773
83970W        W43231   0.964  27.113   1.866
83971W        W43232  11.785  34.020  10.893
83972W        W43233   3.908  11.232  12.494
83973W        W43234  32.115   0.455  10.983
83974W        W43235  26.471  20.627  12.943
83975W        W43236  21.098   6.359  12.949
83976W        W43237  36.917  29.110   1.275
83977W        W43238  13.661  10.713   0.372
83978W        W43239  28.647  18.211  12.894
83979W        W43240  38.332  30.143   4.640
83980W        W43241   6.677  15.762  10.153
83981W        W43242   2.426  25.157   4.200
83982W        W43243  12.155  29.135   0.246
83983W        W43244   9.364  14.309   0.854
83984W        W43245  32.918  20.081  12.861
83985W        W43246  20.592  35.006  13.961
83986W        W43247  19.238  14.206   0.951
83987W        W43248  42.931  21.706  11.497
83988W        W43249  23.236  24.127   1.776
83989W        W43250  23.226   2.421  13.491
83990W        W43251  35.489   0.262   1.733
83991W        W43252   9.799  35.357   3.812
83992W        W43253  21.061  20.608  12.522
83993W        W43254  22.505  23.521   2.394
83994W        W43255  36.369   2.343   3.802
83995W        W43256  26.035  26.517  12.561
83996W        W43257  31.150  34.584  13.452
83997W        W43258   5.757   0.330   3.174
83998W        W43259   7.811   4.863   4.262
83999W        W43260   0.421  35.002   4.121
84000W        W43261  31.587  44.850   4.124
84001W        W43262   4.207  44.441   0.805
84002W        W43263  11.746   5.923  12.947
84003W        W43264  12.156  15.248   3.268
84004W        W43265   3.930  16.736  14.426
84005W        W43266   7.723  26.604   9.974
84006W        W43267  39.933   1.809   0.288
84007W        W43268  22.075  31.100   2.220
84008W        W43269  42.459   7.176   0.899
84009W        W43270  17.699   8.875   1.888
84010W        W43271  19.204  31.896  10.993
84011W        W43272  29.614   8.266   2.317
84012W        W43273  13.618  27.967  10.916
84013W        W43274  21.619   8.349  14.947
84014W        W43275  35.420  14.617   0.872
84015W        W43276   8.197  25.181  14.864
84016W        W43277  31.518   1.933  12.975
84017W        W43278  44.262  31.104   0.776
84018W        W43279  41.888  28.945  14.381
84019W        W43280  14.274  31.132  11.516
84020W        W43281  36.052  11.652  10.543
84021W        W43282  27.152  27.510   0.746
84022W        W43283   6.383  42.519  11.047
84023W        W43284  12.217  19.549   2.364
84024W        W43285   6.706  34.099   0.468
84025W        W43286   7.364  19.180  13.474
84026W        W43287  12.250  37.984  11.427
84027W        W43288  37.836  29.610   0.328
84028W        W43289   4.428  44.319   4.322
84029W        W43290  12.159  28.936  13.545
84030W        W43291  30.036  16.694  13.911
84031W        W43292  25.158   6.361   1.347
84032W        W43293  23.527  32.546  14.800
84033W        W43294  22.035   5.720   0.448
84034W        W43295   3.896   7.230   3.146
84035W        W43296  21.020  10.873  10.545
84036W        W43297  34.011  19.771   4.212
84037W        W43298  42.798  43.778  10.890
84038W        W43299  32.481  35.857   1.312
84039W        W43300  43.310  17.095   4.664
84040W        W43301  27.195   1.825   0.481
84041W        W43302  33.423  15.229  13.309
84042W        W43303  24.632  43.396   0.431
84043W        W43304  31.149  20.032   0.777
84044W        W43305  23.544  22.123  12.493
84045W        W43306  15.668  23.150   9.593
84046W        W43307  32.062  38.484   2.187
84047W        W43308   7.706  12.268   1.452
84048W        W43309  15.285  29.432   2.713
84049W        W43310  38.008  21.177  12.845
84050W        W43311  29.440  32.548   3.386
84051W        W43312  21.209  10.201   0.857
84052W        W43313  20.656  13.778   0.362
84053W        W43314  28.563  39.949  12.424
84054W        W43315  25.640  16.670   1.424
84055W        W43316  41.969   4.287  14.287
84056W        W43317   0.766  30.089  12.865
84057W        W43318  18.726  14.694  12.371
84058W        W43319  44.356  25.580   4.128
84059W        W43320  34.024  14.194  11.541
84060W        W43321  12.842   7.289  11.866
84061W        W43322  13.180  14.148  12.970
84062W        W43323  30.529  28.536  14.334
84063W        W43324   5.234  25.527  11.485
84064W        W43325  42.857  33.003   0.961
84065W        W43326   9.695  31.056   0.734
84066W        W43327  42.906  42.450  11.574
84067W        W43328  38.400  23.072  14.875
84068W        W43329  34.068  39.483  10.044
84069W        W43330  44.392  19.226  10.457
84070W        W43331   3.410  18.686   3.672
84071W        W43332  17.142  26.118  11.476
84072W        W43333  19.660  41.802  11.916
84073W        W43334   3.903  34.868  14.329
84074W        W43335  19.751  11.346  14.499
84075W        W43336  27.992  20.112   3.781
84076W        W43337  17.610  18.714  12.904
84077W        W43338  22.705  39.905  13.804
84078W        W43339   0.277   9.290   1.873
84079W        W43340  40.902  19.770   4.285
84080W        W43341  23.582  42.913   1.871
84081W        W43342  14.724  40.053   1.416
84082W        W43343  21.217  13.629  13.316
84083W        W43344  44.845   7.813   3.850
84084W        W43345  10.870   2.929   4.646
84085W        W43346  14.234  20.088   3.355
84086W        W43347  10.381  18.741  12.563
84087W        W43348   1.971  14.588  12.509
84088W        W43349   8.728  42.289  12.026
84089W        W43350  29.629  22.584  11.474
84090W        W43351  23.086  12.333   4.756
84091W        W43352  25.591   9.706   2.302
84092W        W43353  10.760   1.805  10.904
84093W        W43354   8.404   2.228   3.277
84094W        W43355  20.035  13.258   4.710
84095W        W43356  35.914  15.805   4.620
84096W        W43357  16.201  22.516   3.316
84097W        W43358  29.521  21.144  11.931
84098W        W43359   5.913  41.292   1.697
84099W        W43360  12.636  33.070   1.827
84100W        W43361  25.565  40.449  11.986
84101W        W43362  18.115  20.585  14.276
84102W        W43363  38.445  30.034   1.838
84103W        W43364  44.801  20.647  13.958
84104W        W43365  16.583   3.455   0.329
84105W        W43366  31.053   7.718  13.046
84106W        W43367  16.208  13.341   2.857
84107W        W43368  42.450  22.111   4.160
84108W        W43369  25.058  13.643   3.178
84109W        W43370  29.166  18.594   4.193
84110W        W43371  42.901  38.912   1.793
84111W        W43372  21.616  16.682  14.863
84112W        W43373  37.401  28.068   2.832
84113W        W43374  26.165   5.360  11.037
84114W        W43375   8.821  20.075   0.781
84115W        W43376  14.833  11.717   0.755
84116W        W43377  18.725  38.386  14.930
84117W        W43378  21.063  25.021  12.390
84118W        W43379  14.308  28.674   5.289
84119W        W43380   0.886  32.941  11.599
84120W        W43381   5.892  19.209  14.828
84121W        W43382  42.426  18.660  11.994
84122W        W43383  29.457  23.018  13.400
84123W        W43384   8.854  11.155  13.858
84124W        W43385  39.524   1.245   4.755
84125W        W43386   7.257  42.513   3.290
84126W        W43387  41.339  27.020   3.197
84127W        W43388  11.199   7.723   0.403
84128W        W43389  10.323  44.963  14.802
84129W        W43390  41.959  10.808   0.870
84130W        W43391  24.998  23.583  11.026
84131W        W43392  41.839  16.240   4.274
84132W        W43393  28.448  24.164   1.898
84133W        W43394  13.350   5.805   2.242
84134W        W43395  25.592  34.954   5.175
84135W        W43396  10.801  12.853  10.898
84136W        W43397  37.529  36.535   4.798
84137W        W43398  30.643  24.128  14.485
84138W        W43399  26.090  29.445  13.846
84139W        W43400  44.820  21.690   0.380
84140W        W43401  27.460  11.760   4.235
84141W        W43402  22.510  29.665  12.831
84142W        W43403   3.836  23.531   0.787
84143W        W43404  27.150  11.251  10.461
84144W        W43405  27.647  22.690   3.694
84145W        W43406  23.647   4.852   0.404
84146W        W43407   3.460   4.228  10.575
84147W        W43408   6.211  12.845   1.435
84148W        W43409  20.578  30.441   2.364
84149W        W43410  39.333  15.805  13.046
84150W        W43411   2.841  14.709   0.258
84151W        W43412   0.777  22.100   2.771
84152W        W43413  44.765   7.707  12.962
84153W        W43414  14.185  31.943  14.323
84154W        W43415  24.149  36.530  11.958
84155W        W43416  17.790  44.758   3.750
84156W        W43417  36.581   4.228   1.450
84157W        W43418   6.883   8.665  10.545
84158W        W43419  33.612  21.594   0.304
84159W        W43420  21.192  33.596  12.008
84160W        W43421  22.059  23.541  12.933
84161W        W43422  22.560  29.075  13.881
84162W        W43423  34.999   8.715   4.793
84163W        W43424  17.601  42.792   2.310
84164W        W43425  32.022   4.385  14.828
84165W        W43426  41.819  22.180   0.945
84166W        W43427  30.656  34.108   0.810
84167W        W43428  33.473  31.965   3.259
84168W        W43429  27.453  30.916   1.719
84169W        W43430  12.666   7.389   0.847
84170W        W43431  43.771  30.091  14.488
84171W        W43432  40.050   0.938  11.872
84172W        W43433  29.105  29.470   2.787
84173W        W43434  26.005  42.867  11.082
84174W        W43435  11.187  42.896   3.380
84175W        W43436  31.141   1.749   4.204
84176W        W43437   8.663  24.076  11.522
84177W        W43438   6.315  16.238  14.363
84178W        W43439  36.974  42.885   4.610
84179W        W43440  20.701  40.859  13.815
84180W        W43441   8.673  44.992   0.798
84181W        W43442  35.510   9.692   4.141
84182W        W43443  20.265  35.468   0.730
84183W        W43444   3.268  42.999   4.819
84184W        W43445   3.349  43.423  10.946
84185W        W43446  39.501   6.398  13.927
84186W        W43447   4.839  12.244  13.885
84187W        W43448  20.537  28.958   1.758
84188W        W43449  18.772  20.759   0.408
84189W        W43450  30.439  12.628   3.317
84190W        W43451   2.356  37.049  12.901
84191W        W43452   9.385   9.681   3.853
84192W        W43453  26.957  39.034  11.377
84193W        W43454  17.104   3.878   0.464
84194W        W43455  42.333   3.872  10.447
84195W        W43456  11.180  11.690   5.763
84196W        W43457  40.311   7.402  10.406
84197W        W43458  20.763  24.608  10.499
84198W        W43459   9.241   1.261   3.684
84199W        W43460  25.994  20.183   0.421
84200W        W43461  41.400  39.352   1.400
84201W        W43462   4.761  11.677   2.668
84202W        W43463  12.847  17.268  11.542
84203W        W43464  23.511  22.233  13.541
84204W        W43465  17.612  31.031  11.575
84205W        W43466  39.369   6.406   1.413
84206W        W43467  39.317  39.464   3.213
84207W        W43468   2.781  24.594  11.101
84208W        W43469   5.300  34.028   4.244
84209W        W43470  17.783   6.874   0.389
84210W        W43471  35.361  27.546   3.698
84211W        W43472  13.827  23.608  14.028
84212W        W43473   3.833  21.599   3.206
84213W        W43474  39.996  25.689  10.568
84214W        W43475   8.206   5.716   4.689
84215W        W43476  43.470  27.027   2.840
84216W        W43477  15.266   5.691   0.754
84217W        W43478  28.679   5.855  10.467
84218W        W43479  15.603  24.107  11.986
84219W        W43480  26.132  12.665   4.201
84220W        W43481  38.373   9.776   4.662
84221W        W43482  11.205  42.964   3.782
84222W        W43483  25.701  21.643   0.382
84223W        W43484   4.774   2.465   3.221
84224W        W43485  22.624  41.388   1.753
84225W        W43486  32.963  33.911  10.422
84226W        W43487  36.580  14.603   1.365
84227W        W43488   8.888  29.919  13.828
84228W        W43489  37.058  25.520   1.739
84229W        W43490  27.642  36.044   0.768
84230W        W43491  24.499  44.343   0.885
84231W        W43492  31.581  38.547   4.262
84232W        W43493  25.649  21.643  11.909
84233W        W43494  11.675  20.547   2.213
84234W        W43495   5.267  43.439   3.798
84235W        W43496  15.312  29.590   1.696
84236W        W43497  43.912  14.143   4.613
84237W        W43498   3.926  44.368   2.842
84238W        W43499  28.633   0.324  13.495
84239W        W43500  16.098  20.717  14.912
84240W        W43501  25.561  32.033  13.870
84241W        W43502   7.177  17.265   4.195
84242W        W43503  14.163  25.474   1.265
84243W        W43504  27.000   3.937  14.789
84244W        W43505  36.868  24.681  12.926
84245W        W43506   3.307  10.217  14.362
84246W        W43507   2.834  25.627   0.375
84247W        W43508  14.724  44.968  12.453
84248W        W43509  12.169   4.298  11.893
84249W        W43510  42.788  33.399   3.813
84250W        W43511  37.907  12.273  11.079
84251W        W43512  43.440  30.953  12.382
84252W        W43513   6.858  36.532   2.684
84253W        W43514  13.177  30.063   3.193
84254W        W43515  30.468  21.065   3.661
84255W        W43516  40.523  26.957  10.405
84256W        W43517  34.981  26.124   4.663
84257W        W43518  24.987  30.003  11.907
84258W        W43519   9.658  26.969   0.382
84259W        W43520  37.575  15.293   0.266
84260W        W43521  27.622  34.504   0.447
84261W        W43522  33.071  32.636  11.067
84262W        W43523  38.378   6.682  13.958
84263W        W43524   3.860  14.822  11.451
84264W        W43525  21.675  21.645  14.986
84265W        W43526  27.056  17.672  10.940
84266W        W43527  24.693  31.144  12.425
84267W        W43528  25.618   9.817   4.795
84268W        W43529  25.631  10.640  12.343
84269W        W43530  13.678  34.017  14.485
84270W        W43531  19.674  34.032  10.408
84271W        W43532  16.710   3.745   0.353
84272W        W43533  33.432  30.908  14.889
84273W        W43534  15.644  34.017  14.883
84274W        W43535   7.863  22.021  11.938
84275W        W43536  10.316  27.565   4.214
84276W        W43537   0.407  43.302   4.735
84277W        W43538  28.171  28.461  13.470
84278W        W43539  19.571  31.991   3.802
84279W        W43540  27.548  15.580   4.179
84280W        W43541   9.841  29.031   3.155
84281W        W43542  40.862  40.325  10.539
84282W        W43543  30.145  16.107   2.668
84283W        W43544   0.911   3.308   4.134
84284W        W43545  10.643  21.150   2.732
84285W        W43546   4.251   2.335  13.402
84286W        W43547  43.863  40.371   3.236
84287W        W43548  35.999   3.375   1.819
84288W        W43549  43.942  15.277   1.422
84289W        W43550  41.476  25.989  14.993
84290W        W43551  41.921  11.701   2.332
84291W        W43552  38.910  31.593   0.304
84292W        W43553  14.799  19.266  11.374
84293W        W43554   0.952  44.836   2.376
84294W        W43555   6.264  16.317  11.436
84295W        W43556  28.143   9.773   3.666
84296W        W43557  12.694  31.149   3.312
84297W        W43558  39.472  31.974   3.303
84298W        W43559  44.428  37.389   1.845
84299W        W43560  42.391  16.214  13.466
84300W        W43561   1.249  13.676  10.436
84301W        W43562  37.390  29.622  10.580
84302W        W43563  19.638   6.804   2.749
84303W        W43564  43.953   1.885  13.010
84304W        W43565  41.019  24.627  10.457
84305W        W43566  23.038  31.470   1.249
84306W        W43567  15.291  21.613   2.819
84307W        W43568  44.353  40.913  14.358
84308W        W43569  15.824   4.914   4.194
84309W        W43570  25.084  26.557   2.729
84310W        W43571  29.491  14.265   0.925
84311W        W43572  23.163  18.057  11.855
84312W        W43573  33.621  28.525   4.814
84313W        W43574   6.339  11.657  10.599
84314W        W43575   3.753  25.577   0.246
84315W        W43576  44.434  15.247  11.956
84316W        W43577  25.571  44.840   3.838
84317W        W43578  32.616   4.423  11.928
84318W        W43579  11.275  35.424   1.289
84319W        W43580   1.320  10.825   3.242
84320W        W43581  10.695  33.523  11.526
84321W        W43582  30.030   9.695   3.864
84322W        W43583  10.365  35.431  11.924
84323W        W43584  33.098  26.508  13.903
84324W        W43585  14.651  19.545   1.931
84325W        W43586  37.539  39.495  13.519
84326W        W43587  15.314  18.564   2.801
84327W        W43588  19.760  33.605   2.840
84328W        W43589  15.249  21.079  10.145
84329W        W43590  25.646  38.332  13.800
84330W        W43591   7.737  12.793  14.876
84331W        W43592  29.455  10.877   3.631
84332W        W43593  27.037  23.170  10.967
84333W        W43594   8.773  16.121  14.340
84334W        W43595   1.958  33.119  12.463
84335W        W43596  34.964  25.104  12.406
84336W        W43597  17.158  23.058   1.896
84337W        W43598   9.332  31.478   2.399
84338W        W43599   3.342  36.452   1.373
84339W        W43600  26.177  39.560   3.312
84340W        W43601  31.527  42.814   0.957
84341W        W43602  14.736  39.493  11.874
84342W        W43603  42.370  26.074   3.861
84343W        W43604  10.657  25.161  13.372
84344W        W43605  26.131  25.544   0.891
84345W        W43606  11.161  11.348  12.464
84346W        W43607  22.090   2.770  14.971
84347W        W43608  32.939  16.078  11.965
84348W        W43609  12.174  44.358   0.424
84349W        W43610  15.632  25.615  10.536
84350W        W43611  36.856  17.648  12.499
84351W        W43612  24.718  23.209  14.356
84352W        W43613  28.132  23.093  10.405
84353W        W43614  28.158   2.253   3.687
84354W        W43615  28.530  38.944  10.952
84355W        W43616   2.378   3.894  13.466
84356W        W43617  23.568  42.993   0.966
84357W        W43618  19.118  38.332   2.735
84358W        W43619   6.773   0.259  13.979
84359W        W43620   0.434  25.072  12.574
84360W        W43621  34.398   7.873  14.495
84361W        W43622  15.101  13.231  14.453
84362W        W43623  15.652   3.326  12.372
84363W        W43624  24.180  14.161  13.890
84364W        W43625  27.618  22.123   1.804
84365W        W43626  21.660  40.420   2.301
84366W        W43627  26.463  43.983  12.427
84367W        W43628  39.530  25.060  14.346
84368W        W43629   5.749  28.146  11.072
84369W        W43630  32.408  31.569  14.476
84370W        W43631   7.354  34.913  11.593
84371W        W43632  36.554  11.128  10.050
84372W        W43633  28.004   3.778  13.879
84373W        W43634   4.722   5.905   0.899
84374W        W43635  20.177  23.523   0.332
84375W        W43636   1.391  34.487  11.897
84376W        W43637  31.909  44.358  12.938
84377W        W43638  35.580  27.032  13.049
84378W        W43639  29.076  17.781  13.310
84379W        W43640  10.760  12.212   0.961
84380W        W43641   2.261  35.604   2.884
84381W        W43642  28.127   7.790  14.336
84382W        W43643  19.170  39.865   2.816
84383W        W43644  17.066   9.712   1.322
84384W        W43645   3.865  26.118   3.286
84385W        W43646  43.403   0.397   4.115
84386W        W43647  38.382  10.647  13.854
84387W        W43648  19.278  19.690   1.703
84388W        W43649   3.331  27.965   4.815
84389W        W43650  40.798  12.738   2.752
84390W        W43651   8.219  34.402   3.784
84391W        W43652  33.529  18.680  10.623
84392W        W43653  24.542  39.459   0.734
84393W        W43654   7.220  15.789  10.497
84394W        W43655  16.606  21.150   2.866
84395W        W43656  20.602   3.712   1.701
84396W        W43657  10.665  18.290   1.883
84397W        W43658  10.720   9.791   4.145
84398W        W43659  18.752  10.248   2.691
84399W        W43660  12.325  16.103   2.725
84400W        W43661  44.841   5.921  11.503
84401W        W43662  41.910   2.380  13.496
84402W        W43663  35.091  25.548   2.754
84403W        W43664  17.283  36.534  14.950
84404W        W43665  43.808  40.512   2.804
84405W        W43666  34.422  28.557   3.254
84406W        W43667  28.482  12.758  12.436
84407W        W43668  23.500  14.266  14.502
84408W        W43669   5.314  15.130   4.261
84409W        W43670   6.706  29.552   4.791
84410W        W43671  35.899  12.340  13.533
84411W        W43672  36.958  27.053   4.119
84412W        W43673  40.886  15.687  12.508
84413W        W43674  19.722  15.275   4.669
84414W        W43675   5.795  42.811  13.914
84415W        W43676  29.507  16.640  12.465
84416W        W43677  25.508  38.859   2.671
84417W        W43678  26.187   0.327  14.951
84418W        W43679  17.722   6.314  10.897
84419W        W43680  34.462  44.381  13.920
84420W        W43681  33.010  39.508   0.304
84421W        W43682  29.080  32.897  12.535
84422W        W43683  36.451  26.677  10.025
84423W        W43684  18.781  41.515  10.963
84424W        W43685   3.349  19.733   2.775
84425W        W43686  33.448  34.588   9.985
84426W        W43687  27.191  27.155   0.951
84427W        W43688  41.952  38.441  10.935
84428W        W43689  23.654  14.137   0.281
84429W        W43690  35.553   3.274  11.542
84430W        W43691   0.908   0.791   2.404
84431W        W43692  16.755  33.995  10.602
84432W        W43693   0.840  44.908  11.977
84433W        W43694  17.295  19.149   2.703
84434W        W43695  25.518  44.883  14.912
84435W        W43696  21.236  30.562   4.607
84436W        W43697   3.931  33.944  12.912
84437W        W43698   2.764  29.659   0.419
84438W        W43699  36.349  43.889  13.533
84439W        W43700  34.506  14.116   2.843
84440W        W43701  17.705  14.289  11.045
84441W        W43702  25.154   7.190   0.961
84442W        W43703  29.036  35.363   3.229
84443W        W43704   2.320  35.380  14.802
84444W        W43705  42.468  13.703   0.948
84445W        W43706  18.615  22.115   0.922
84446W        W43707   8.377  24.085  14.796
84447W        W43708  11.316   7.223   3.386
84448W        W43709   5.780  43.396   0.819
84449W        W43710   4.383  32.471  10.450
84450W        W43711  26.173  34.063  14.883
84451W        W43712  24.568   7.813  11.024
84452W        W43713  23.232  26.079   5.238
84453W        W43714   7.750  32.530   0.387
84454W        W43715  13.254   6.756   0.436
84455W        W43716   3.758  42.930   0.732
84456W        W43717  26.020   0.966   0.268
84457W        W43718  26.975  44.916   0.823
84458W        W43719  32.056  43.432   2.260
84459W        W43720   2.407  21.221   0.848
84460W        W43721  26.972  42.978   0.271
84461W        W43722  39.973   5.915   2.820
84462W        W43723  28.004   0.338   4.146
84463W        W43724   2.239  30.058  11.966
84464W        W43725  25.212  40.996   0.379
84465W        W43726   3.776  13.172   4.829
84466W        W43727  13.603  29.498  14.862
84467W        W43728   1.805  35.541   4.179
84468W        W43729   1.316  23.550  12.347
84469W        W43730  40.527  41.013  12.537
84470W        W43731  27.153  29.536   1.808
84471W        W43732  15.735  40.960   3.206
84472W        W43733  20.564   6.240  12.022
84473W        W43734  25.615  31.580   4.809
84474W        W43735  41.974  22.053   2.387
84475W        W43736  10.804  36.520   0.744
84476W        W43737  24.106  33.884  14.338
84477W        W43738  28.675  22.024  11.053
84478W        W43739  25.569   6.743  10.417
84479W        W43740  32.500  38.990   3.362
84480W        W43741  29.087   4.340  13.855
84481W        W43742   2.812  21.197  12.509
84482W        W43743  34.449  19.547  10.898
84483W        W43744  35.046  24.021   2.287
84484W        W43745  25.480   7.188   3.854
84485W        W43746  17.562  32.036   2.761
84486W        W43747  44.922  13.764   0.400
84487W        W43748  29.625   4.365  13.474
84488W        W43749   5.890   0.832  13.528
84489W        W43750   8.729  18.732   0.373
84490W        W43751   6.280  10.364  14.471
84491W        W43752  16.287  40.458  14.846
84492W        W43753  44.266  44.377   4.209
84493W        W43754   8.777  42.523   2.274
84494W        W43755  30.993  27.483   2.357
84495W        W43756  30.148   4.701  10.518
84496W        W43757  34.107  38.519  13.546
84497W        W43758  40.850  20.632   0.432
84498W        W43759  17.574  17.724   3.731
84499W        W43760  39.003  27.522   3.795
84500W        W43761   9.872  11.862  10.457
84501W        W43762  42.298  12.268   1.741
84502W        W43763  41.369  29.120  10.984
84503W        W43764   2.349   7.772  13.853
84504W        W43765  40.839  31.413   0.842
84505W        W43766  35.960  32.462  11.594
84506W        W43767  26.552  17.771  11.454
84507W        W43768  18.245  37.064   4.192
84508W        W43769  32.525  36.367   1.328
84509W        W43770  30.643  17.732   3.845
84510W        W43771  23.495  14.662  11.488
84511W        W43772  14.789  12.811   0.255
84512W        W43773  43.872   6.335   2.318
84513W        W43774  25.117  20.567  10.481
84514W        W43775  34.893  22.191   4.759
84515W        W43776   1.415  21.128   3.802
84516W        W43777  18.687  27.998  12.885
84517W        W43778  42.854  31.924   1.810
84518W        W43779  27.168   2.937   3.281
84519W        W43780  31.598  43.782  12.519
84520W        W43781  40.833  26.701  14.328
84521W        W43782   9.847  18.699  14.310
84522W        W43783  15.680   4.921   3.766
84523W        W43784  38.994  33.935  11.413
84524W        W43785  20.526   4.894  14.869
84525W        W43786  32.141  14.804   9.545
84526W        W43787  15.216  26.472  14.450
84527W        W43788  30.615  23.567   2.380
84528W        W43789  17.624  19.188  12.884
84529W        W43790  44.995  42.937  14.004
84530W        W43791   7.265  24.631  14.815
84531W        W43792   9.692  36.460   0.880
84532W        W43793  26.575  39.869   0.428
84533W        W43794  13.119  34.968   4.770
84534W        W43795  41.993  41.407  14.769
84535W        W43796   7.685  21.153   0.473
84536W        W43797  20.063   7.889  14.018
84537W        W43798  12.326  29.480   2.818
84538W        W43799  35.385  19.582   2.690
84539W        W43800  20.174  10.219   3.843
84540W        W43801  40.517  34.009   4.205
84541W        W43802  11.720  24.561  10.471
84542W        W43803   9.869  21.253   4.767
84543W        W43804  43.811  27.676   1.869
84544W        W43805  19.759  42.325   0.428
84545W        W43806  29.432   4.780  13.961
84546W        W43807  18.671  27.664  13.794
84547W        W43808   0.984  36.565   2.876
84548W        W43809  37.377  31.532  14.932
84549W        W43810  35.576  24.069  14.958
84550W        W43811  22.217  36.468   4.132
84551W        W43812  12.120  30.940  13.834
84552W        W43813  39.066  19.143   5.135
84553W        W43814  16.167  29.440  14.275
84554W        W43815  31.979  10.687   4.667
84555W        W43816   9.160  41.421  12.004
84556W        W43817  28.953  44.825  13.343
84557W        W43818  20.061   4.880  10.159
84558W        W43819  15.213   9.368   1.766
84559W        W43820   3.744  23.213   1.352
84560W        W43821  14.782  24.566  14.820
84561W        W43822  29.548   5.930  12.060
84562W        W43823  35.527   8.221  13.464
84563W        W43824   9.159  41.991  13.810
84564W        W43825  38.481   7.341   2.215
84565W        W43826   9.647  43.780   2.225
84566W        W43827  13.266  26.537   5.205
84567W        W43828  22.575  35.083   1.838
84568W        W43829  19.166  17.102   2.213
84569W        W43830   4.415   3.718  13.473
84570W        W43831  33.984  34.566   3.356
84571W        W43832   6.420  29.930  11.587
84572W        W43833  24.084  19.084   2.275
84573W        W43834   7.244   8.231  12.422
84574W        W43835   4.867  14.199   1.259
84575W        W43836  28.154  14.613  10.891
84576W        W43837  27.488  27.500   3.234
84577W        W43838  27.116  32.480   1.285
84578W        W43839  35.911  42.466   5.102
84579W        W43840  28.947   9.843  11.377
84580W        W43841  33.547   6.712  10.073
84581W        W43842  19.773  11.166  14.968
84582W        W43843  22.538  35.969   3.327
84583W        W43844  19.645  39.991   4.817
84584W        W43845  17.088   5.699   3.773
84585W        W43846  41.433  13.304   2.231
84586W        W43847  10.346  33.585   1.821
84587W        W43848   9.821  17.223   3.200
84588W        W43849  39.368  31.031  13.536
84589W        W43850  10.216   4.739  14.992
84590W        W43851  26.619  25.210   2.662
84591W        W43852  32.114  10.214   2.405
84592W        W43853  23.200  11.697  13.818
84593W        W43854  44.893  26.477  14.889
84594W        W43855  15.618  35.864  11.577
84595W        W43856   3.729   3.919   3.383
84596W        W43857  26.178  41.334   0.799
84597W        W43858  22.228  11.805   4.278
84598W        W43859  19.225  25.074  10.965
84599W        W43860  15.727  16.238   1.919
84600W        W43861  13.780  37.986   0.863
84601W        W43862  10.174   7.259   0.341
84602W        W43863   0.869  24.679   4.617
84603W        W43864  39.475  11.623   3.640
84604W        W43865  24.708  33.387   3.356
84605W        W43866  38.010   4.920  12.054
84606W        W43867  29.438   1.908  10.618
84607W        W43868   5.754  42.461   3.376
84608W        W43869  16.624   3.825   3.810
84609W        W43870  26.166  41.971  13.894
84610W        W43871  10.801  16.073   3.160
84611W        W43872  16.573   9.694  13.883
84612W        W43873  35.013  10.816  12.835
84613W        W43874   9.341  44.286  12.852
84614W        W43875  13.301   0.490  11.000
84615W        W43876  37.351   7.830   0.799
84616W        W43877   5.329   3.261  13.013
84617W        W43878  42.982  22.735   1.243
84618W        W43879   3.831  22.626   3.207
84619W        W43880  18.060  14.757  12.988
84620W        W43881  19.602  42.491   2.371
84621W        W43882  30.162  43.318   2.819
84622W        W43883  12.139  24.542  12.540
84623W        W43884  40.983   5.222   3.303
84624W        W43885  24.545  29.115  12.481
84625W        W43886  23.174  23.183  11.923
84626W        W43887  10.138  12.138  13.315
84627W        W43888   8.736  36.948  11.602
84628W        W43889  37.388   0.368  13.537
84629W        W43890  21.686  25.492   1.891
84630W        W43891  20.678  44.396  12.041
84631W        W43892   7.269  36.911  12.989
84632W        W43893   8.801  29.162   0.472
84633W        W43894   0.405  15.265  13.472
84634W        W43895  40.385   2.963  12.474
84635W        W43896  23.076  21.643  13.939
84636W        W43897  44.943  11.842  11.464
84637W        W43898  42.435  34.997   3.286
84638W        W43899  35.939   8.327   4.602
84639W        W43900  22.129  41.380  13.848
84640W        W43901  41.793  18.738  13.474
84641W        W43902  36.375  12.683  13.982
84642W        W43903   5.325  28.983   1.292
84643W        W43904  20.633  30.531  12.924
84644W        W43905  18.207  20.082   3.359
84645W        W43906  29.574  11.192  13.389
84646W        W43907  39.041  21.229  12.021
84647W        W43908  17.638  26.519  14.008
84648W        W43909  18.642  14.173  12.839
84649W        W43910  36.900  13.160  13.521
84650W        W43911  42.378  40.993  12.341
84651W        W43912  35.470  37.504  12.572
84652W        W43913   7.247  14.794   0.850
84653W        W43914   5.231   0.869   2.899
84654W        W43915   7.170  14.623   4.254
84655W        W43916  24.212  27.672   0.962
84656W        W43917  34.459  42.886   2.900
84657W        W43918  12.237  31.931  14.758
84658W        W43919  38.971  10.304  12.861
84659W        W43920  12.660   0.480  12.972
84660W        W43921  41.333  27.656   0.303
84661W        W43922  44.305  12.681   2.723
84662W        W43923  35.419  11.722   1.304
84663W        W43924  32.939  24.631   4.176
84664W        W43925  30.651  14.753   0.441
84665W        W43926  13.124  22.186   4.233
84666W        W43927  32.954   1.440   2.300
84667W        W43928  20.703  24.536   5.301
84668W        W43929  33.570  31.410   3.283
84669W        W43930  38.060  33.527  11.510
84670W        W43931  25.133  24.098   2.309
84671W        W43932   3.384   1.258  11.046
84672W        W43933  43.278   7.728   0.902
84673W        W43934  39.439  31.991   0.251
84674W        W43935  41.902  33.986   0.382
84675W        W43936  36.513  16.077  13.546
84676W        W43937  27.516  22.511   2.683
84677W        W43938  14.340   7.861   3.279
84678W        W43939  25.689  10.259  14.492
84679W        W43940  37.500  21.616  14.018
84680W        W43941  35.107  10.701   2.816
84681W        W43942  31.128  35.881   3.800
84682W        W43943   3.899  24.506  10.911
84683W        W43944  26.458  26.955  12.418
84684W        W43945  35.979  39.515  14.984
84685W        W43946  36.422  30.433  14.992
84686W        W43947  36.362  29.979  14.827
84687W        W43948  39.370  11.670  10.995
84688W        W43949   6.248   8.228  14.277
84689W        W43950  34.959  10.857   0.880
84690W        W43951  37.046  37.964  14.854
84691W        W43952  34.544  36.893  13.485
84692W        W43953  42.414  17.737   2.254
84693W        W43954  22.579  20.241   0.905
84694W        W43955  41.957  12.351  12.522
84695W        W43956   5.339  24.979  10.920
84696W        W43957  23.222  21.527  11.572
84697W        W43958  20.101  40.027   4.649
84698W        W43959  41.996  10.737   0.468
84699W        W43960   4.417   2.895  11.380
84700W        W43961  39.525  22.092  12.527
84701W        W43962  42.857  43.787  12.866
84702W        W43963   7.902  11.128   3.199
84703W        W43964  34.506  34.440  12.421
84704W        W43965  24.980  24.555   3.220
84705W        W43966  33.896  25.126   2.878
84706W        W43967  32.910   3.378  13.392
84707W        W43968  17.775  40.547   4.225
84708W        W43969  13.721  25.125   0.390
84709W        W43970  42.017  19.770   2.801
84710W        W43971  43.908   3.408  12.407
84711W        W43972   6.702  27.650   1.722
84712W        W43973  24.493  12.626   0.881
84713W        W43974  32.911  23.575   4.708
84714W        W43975  26.622  35.448   3.358
84715W        W43976  43.829  30.131  14.954
84716W        W43977  14.784   2.788  12.500
84717W        W43978  20.529  21.195  13.872
84718W        W43979  35.918  31.049   2.413
84719W        W43980  38.848   9.383   4.694
84720W        W43981  39.483  31.430   4.629
84721W        W43982  43.767  30.036   3.319
84722W        W43983  31.925  43.391   3.167
84723W        W43984   1.891  25.970   3.344
84724W        W43985  22.592  12.732   0.454
84725W        W43986  23.632  31.572   3.797
84726W        W43987  27.488  34.592  14.786
84727W        W43988   8.829  23.115   1.395
84728W        W43989  34.473  31.436   0.343
84729W        W43990  30.481  36.962  12.026
84730W        W43991   1.734  21.171  10.453
84731W        W43992  22.074  26.520   1.219
84732W        W43993  12.783  37.966   4.795
84733W        W43994  41.805  40.997  14.482
84734W        W43995   1.309  33.893  13.479
84735W        W43996   2.284  37.570  14.328
84736W        W43997  32.415  31.522   4.261
84737W        W43998   4.270  30.930   0.894
84738W        W43999  17.208  32.973   1.932
84739W        W44000  41.890  24.993  10.602
84740W        W44001   3.805  14.213  11.952
84741W        W44002  31.074  14.671   2.359
84742W        W44003  23.718  16.116  12.867
84743W        W44004  44.998  33.599  10.992
84744W        W44005  44.456   1.429  13.363
84745W        W44006   5.710   3.373   2.707
84746W        W44007  16.219   3.940   2.244
84747W        W44008   7.393  41.855  14.006
84748W        W44009  15.119  13.124   3.219
84749W        W44010  21.255  24.604   5.801
84750W        W44011   1.796  26.502  13.954
84751W        W44012  35.061  41.805  11.466
84752W        W44013  35.956  20.067   4.665
84753W        W44014  41.998  20.630   4.228
84754W        W44015  21.675   2.403  12.578
84755W        W44016  11.128   2.443   3.673
84756W        W44017  17.101  30.028   5.682
84757W        W44018  30.014  44.877   3.651
84758W        W44019  25.078  42.978   3.176
84759W        W44020  31.904  34.910   1.436
84760W        W44021  35.043   6.903   1.234
84761W        W44022  20.676  34.099  13.455
84762W        W44023  30.161  36.492   0.781
84763W        W44024  41.821  28.087   1.782
84764W        W44025  10.286  24.057   5.105
84765W        W44026   1.812  41.305  14.930
84766W        W44027  36.008  11.301  11.020
84767W        W44028   2.957   2.729   1.702
84768W        W44029   4.279  18.774  11.937
84769W        W44030  33.906  38.916   4.156
84770W        W44031  11.820  11.828  12.397
84771W        W44032   9.316   2.922   4.345
84772W        W44033  42.499  10.317   4.612
84773W        W44034   1.448  18.614  10.919
84774W        W44035  41.818  16.683   4.635
84775W        W44036  26.494  11.657  11.500
84776W        W44037   4.245  15.099  11.000
84777W        W44038  33.547  27.182   2.193
84778W        W44039  43.946   6.251  12.883
84779W        W44040  26.694  26.703   0.774
84780W        W44041  29.172  14.778  11.602
84781W        W44042  15.312  15.158   4.306
84782W        W44043  10.816   6.699  10.584
84783W        W44044  37.526   0.883   4.223
84784W        W44045  11.198  33.894  12.832
84785W        W44046   5.783   8.667   2.873
84786W        W44047  11.224  22.243  12.485
84787W        W44048  28.459   9.792  14.009
84788W        W44049  19.066  24.129  13.915
84789W        W44050  30.950   7.360  10.890
84790W        W44051  16.304  33.096   0.740
84791W        W44052  11.128  32.013  12.010
84792W        W44053  14.788   1.462  11.418
84793W        W44054  36.468   1.806  14.933
84794W        W44055  12.321  37.548  11.595
84795W        W44056  31.927   9.240   2.668
84796W        W44057  20.268  31.030   4.796
84797W        W44058  29.457  34.983   1.373
84798W        W44059  22.135  34.372  11.075
84799W        W44060  26.040   8.858   2.328
84800W        W44061  32.066  14.330   9.591
84801W        W44062   3.385  13.229   3.825
84802W        W44063  39.828   9.885  13.862
84803W        W44064  25.136  29.639  14.412
84804W        W44065  35.997   5.807   4.638
84805W        W44066   5.708  35.999  12.827
84806W        W44067   5.841  18.621  13.361
84807W        W44068  20.615  25.152   5.236
84808W        W44069   2.822  32.605  11.111
84809W        W44070   9.648  11.306  12.564
84810W        W44071  35.979  35.927   9.608
84811W        W44072   7.330  44.448   3.810
84812W        W44073  28.491   2.787   2.308
84813W        W44074  40.980  35.585   3.387
84814W        W44075  29.142  44.890  14.397
84815W        W44076  22.009  37.021  10.526
84816W        W44077  28.677  23.119  11.481
84817W        W44078  21.634   5.835  13.469
84818W        W44079  13.689  19.163  11.590
84819W        W44080  22.602  30.161  11.421
84820W        W44081   5.239  20.062   0.836
84821W        W44082  34.880  34.547   2.813
84822W        W44083  41.929  18.548   0.287
84823W        W44084  19.735   8.842   2.716
84824W        W44085  17.171  41.925  14.290
84825W        W44086   8.835   4.350   0.348
84826W        W44087  33.386   2.415  14.899
84827W        W44088   7.286  19.070   0.374
84828W        W44089   4.916   2.456  10.593
84829W        W44090  40.508   6.890   0.930
84830W        W44091  12.307  24.141  13.881
84831W        W44092  43.774   9.286  13.819
84832W        W44093  11.297  10.262   5.193
84833W        W44094  40.021   4.381   3.267
84834W        W44095  27.621  27.537  10.128
84835W        W44096  43.809  20.549  14.873
84836W        W44097  29.615  11.791  10.491
84837W        W44098  14.817  44.385   4.625
84838W        W44099  21.737  21.592  11.429
84839W        W44100  36.041  37.871   0.882
84840W        W44101  38.459  44.503   0.394
84841W        W44102  13.664   8.398  12.000
84842W        W44103  25.651  32.024  12.346
84843W        W44104  38.028  40.949  13.455
84844W        W44105  21.622  28.599   2.775
84845W        W44106   8.249  17.163   4.697
84846W        W44107   4.904  21.051  10.519
84847W        W44108  26.672  31.151   2.817
84848W        W44109  17.077   7.899  11.533
84849W        W44110  37.386  26.515   3.358
84850W        W44111   0.743  42.904   4.258
84851W        W44112   3.244  29.452   4.645
84852W        W44113  36.029   8.772   1.833
84853W        W44114  38.466  43.317   2.277
84854W        W44115   7.413   6.366   3.653
84855W        W44116  11.671  16.602  13.422
84856W        W44117  12.259   5.380   3.727
84857W        W44118  38.861  25.604  12.480
84858W        W44119  34.027   1.809   3.345
84859W        W44120  38.435  24.582   2.879
84860W        W44121   9.796  40.475   2.708
84861W        W44122  29.577   7.729   3.706
84862W        W44123  25.625  38.567  14.488
84863W        W44124  11.279  22.139   1.432
84864W        W44125   7.810   9.386  13.871
84865W        W44126   3.739  24.612  13.990
84866W        W44127   0.470   0.832  13.980
84867W        W44128  22.187   2.385  13.490
84868W        W44129  32.615  36.506  12.946
84869W        W44130   1.363  23.128   4.159
84870W        W44131  27.676  11.245  11.954
84871W        W44132  17.675  17.256  12.886
84872W        W44133  42.847   7.222   1.255
84873W        W44134  39.504   1.777   1.386
84874W        W44135  23.015  24.208   2.663
84875W        W44136  16.113  15.193  11.065
84876W        W44137  24.593  28.161   2.408
84877W        W44138  20.050  29.103   1.865
84878W        W44139  28.494  33.055  10.906
84879W        W44140   6.900  42.385  10.598
84880W        W44141   4.851  26.680   3.312
84881W        W44142   8.703  37.932   3.332
84882W        W44143  28.167  44.894   0.471
84883W        W44144  21.635  17.756  10.533
84884W        W44145   2.459  36.355  12.836
84885W        W44146  18.664  19.544   2.339
84886W        W44147  12.332  17.106   0.250
84887W        W44148  10.362  42.394   1.828
84888W        W44149  39.354  41.792  12.061
84889W        W44150  37.465   1.839  12.502
84890W        W44151  44.442   4.853   4.740
84891W        W44152  26.964   8.365  10.899
84892W        W44153  26.500   3.818  10.633
84893W        W44154  43.005  29.662  14.330
84894W        W44155  29.032  41.836  10.615
84895W        W44156  26.697  14.299  13.314
84896W        W44157  24.136  30.615  12.385
84897W        W44158   5.898   1.966   1.816
84898W        W44159  31.912  22.591   3.233
84899W        W44160  33.414   0.948  11.405
84900W        W44161  18.633  26.031  13.985
84901W        W44162   2.357  39.498  14.963
84902W        W44163   5.838   4.808   0.441
84903W        W44164   9.714  11.163  10.067
84904W        W44165  35.071  43.782   0.369
84905W        W44166   2.328  17.273   0.820
84906W        W44167   9.664  35.456  10.968
84907W        W44168  44.794  25.143  11.910
84908W        W44169  31.443  26.131  12.379
84909W        W44170  27.660  39.406   1.365
84910W        W44171  16.766   3.425  10.627
84911W        W44172   9.193  10.298   1.339
84912W        W44173  20.274   4.736   0.771
84913W        W44174  32.496  33.090  13.471
84914W        W44175  42.797   2.805   1.837
84915W        W44176  21.729  21.116   0.257
84916W        W44177  25.053  41.970  12.465
84917W        W44178  20.554   7.324  14.031
84918W        W44179  27.124  11.868   4.244
84919W        W44180  23.698  16.609  14.461
84920W        W44181  31.600  19.078  11.542
84921W        W44182  40.841  28.603  10.450
84922W        W44183  17.557  40.934  13.895
84923W        W44184  29.496   3.406  10.553
84924W        W44185  23.644  14.607  14.289
84925W        W44186  14.641  44.451  11.434
84926W        W44187   1.275  27.186   1.859
84927W        W44188  35.421  14.745  14.501
84928W        W44189  24.610  11.703   2.380
84929W        W44190   5.907  24.566  13.897
84930W        W44191   9.782  33.589  11.533
84931W        W44192  30.916   5.819   4.281
84932W        W44193   3.369  42.364  11.550
84933W        W44194  20.161  17.176  13.945
84934W        W44195  26.203  16.202  10.896
84935W        W44196  31.403  31.002  12.823
84936W        W44197  30.014  42.485  12.951
84937W        W44198  24.655  29.562  12.924
84938W        W44199  44.891  17.637   0.482
84939W        W44200  24.030  38.824  13.815
84940W        W44201  39.939  38.537   0.273
84941W        W44202  44.817  40.353   1.907
84942W        W44203  44.383   5.769   1.263
84943W        W44204  18.741  12.286   2.804
84944W        W44205  30.530  24.211   3.270
84945W        W44206  36.855  24.172  11.020
84946W        W44207  14.662  30.065  13.511
84947W        W44208  24.067  37.051  12.075
84948W        W44209  28.067  34.491   3.271
84949W        W44210  43.789  36.420  11.856
84950W        W44211  32.051  35.411  12.413
84951W        W44212  13.190  31.574   1.710
84952W        W44213  32.027  39.897  13.499
84953W        W44214   5.703  16.602  10.629
84954W        W44215   0.787   2.896   4.194
84955W        W44216  19.187  26.153  14.476
84956W        W44217  30.162  30.520  10.547
84957W        W44218  21.129  18.180  11.445
84958W        W44219  25.634   7.745   1.759
84959W        W44220  23.725  33.568   1.399
84960W        W44221  32.977   3.843  14.503
84961W        W44222  37.435  14.762  14.429
84962W        W44223  26.645  21.655   0.902
84963W        W44224  34.415  39.551   3.839
84964W        W44225   1.923  37.431   0.427
84965W        W44226  12.674  26.004   0.910
84966W        W44227   7.380  36.386  14.836
84967W        W44228  32.081  30.492   2.903
84968W        W44229  24.497  12.241  14.356
84969W        W44230  13.772   9.245   0.955
84970W        W44231  28.020   3.247   1.792
84971W        W44232  12.743  36.005  12.438
84972W        W44233  20.135  16.805  11.036
84973W        W44234  24.493  30.938  14.482
84974W        W44235  32.542  11.155  13.412
84975W        W44236   6.703  25.537  10.486
84976W        W44237  23.712   7.402  10.563
84977W        W44238   3.361  34.940   0.448
84978W        W44239   8.783  38.379  10.421
84979W        W44240  29.147  36.019   3.156
84980W        W44241  39.510  33.968   3.187
84981W        W44242  15.287  19.119   4.646
84982W        W44243  22.678  44.884   0.869
84983W        W44244   9.725  17.254  12.886
84984W        W44245   3.444  32.134  13.979
84985W        W44246  39.873  34.067  10.030
84986W        W44247  40.048  34.979  14.475
84987W        W44248  22.509   8.727   0.377
84988W        W44249  32.901  22.174   3.237
84989W        W44250  29.544  29.944  14.420
84990W        W44251  40.901  25.166  10.607
84991W        W44252   3.301   4.927  11.071
84992W        W44253  18.756   8.324   2.286
84993W        W44254  14.187  43.814   3.733
84994W        W44255  19.683  11.853   4.330
84995W        W44256  18.158  33.454   0.255
84996W        W44257  37.343  18.268  11.049
84997W        W44258  28.569  27.023  10.959
84998W        W44259  29.479  21.146   3.229
84999W        W44260  27.585  35.600   0.425
85000W        W44261  39.418   4.794   0.259
85001W        W44262  35.963  31.595   0.924
85002W        W44263  19.048  26.573   4.282
85003W        W44264  29.614  23.240  14.815
85004W        W44265  33.624   4.726  13.336
85005W        W44266   9.772  23.093  12.924
85006W        W44267  13.688   0.266  13.526
85007W        W44268  15.296  31.933  14.495
85008W        W44269  20.100  24.607   5.650
85009W        W44270  33.473  22.062   9.987
85010W        W44271  11.222  18.232   1.870
85011W        W44272   5.818  24.666   1.751
85012W        W44273  41.972  34.100  13.808
85013W        W44274  27.680  40.824   2.884
85014W        W44275  19.734   5.707  11.516
85015W        W44276  35.953  44.404  13.462
85016W        W44277  12.190  23.091  13.892
85017W        W44278  28.627  42.793  14.778
85018W        W44279  24.157  38.939  10.987
85019W        W44280   6.789   1.374   4.258
85020W        W44281  32.122   9.247   4.262
85021W        W44282  27.674   1.836   4.766
85022W        W44283   8.850  41.403  11.503
85023W        W44284  43.462  31.049   0.425
85024W        W44285  31.547  30.089   0.827
85025W        W44286  25.696  12.761   0.866
85026W        W44287  11.750  43.767   2.761
85027W        W44288  30.628   5.341   0.947
85028W        W44289  11.248  21.076   2.830
85029W        W44290   2.933   6.921   1.406
85030W        W44291  10.751   5.208  13.821
85031W        W44292  12.250   4.704   1.694
85032W        W44293  14.149  27.143  13.409
85033W        W44294  43.427   1.357  10.482
85034W        W44295  41.487  37.439   5.247
85035W        W44296  40.316   4.385   2.288
85036W        W44297   1.483   5.804  13.004
85037W        W44298  15.821  17.154   4.811
85038W        W44299  16.775  20.248  12.345
85039W        W44300  31.437  22.670  10.515
85040W        W44301  20.143  18.746   0.430
85041W        W44302  29.170   6.752  13.524
85042W        W44303  25.490  25.207   2.333
85043W        W44304   1.427  13.752  14.874
85044W        W44305  41.356  11.718   4.289
85045W        W44306  42.515   2.434  12.031
85046W        W44307   4.715  39.378   0.878
85047W        W44308  22.106  12.359  12.839
85048W        W44309  15.687  15.592  14.313
85049W        W44310  19.151  15.686   2.414
85050W        W44311  19.584  16.089  14.382
85051W        W44312  34.038  18.750   1.763
85052W        W44313  25.008  28.160   0.841
85053W        W44314  16.115  21.264   1.874
85054W        W44315  31.078  36.489  14.361
85055W        W44316  13.327  19.758  11.523
85056W        W44317  31.927  34.048   3.380
85057W        W44318  26.463  15.288  10.464
85058W        W44319  26.183  14.113   2.699
85059W        W44320  16.104  14.755  12.960
85060W        W44321  25.703  44.778   1.698
85061W        W44322  13.254  43.401   1.339
85062W        W44323  27.467  29.101   1.226
85063W        W44324  30.124  37.953   4.255
85064W        W44325  22.104  26.141   4.220
85065W        W44326   5.244  12.743   1.288
85066W        W44327   4.424  43.348  10.482
85067W        W44328  40.945  11.837  12.568
85068W        W44329   3.923   4.218  12.359
85069W        W44330  43.902  44.361  14.399
85070W        W44331  31.530   6.377  13.878
85071W        W44332  21.116  41.948  12.491
85072W        W44333   3.299   8.309  11.490
85073W        W44334  33.972  13.614  14.803
85074W        W44335  11.157  35.475   0.764
85075W        W44336  36.409  17.646  11.558
85076W        W44337   3.885  41.885  13.983
85077W        W44338  35.044  30.098  14.381
85078W        W44339  27.154   2.920  13.958
85079W        W44340   6.349  14.738   2.325
85080W        W44341  41.472  42.365   2.375
85081W        W44342  12.282  30.962  11.418
85082W        W44343  19.623  29.585  14.853
85083W        W44344  32.529  43.370   0.935
85084W        W44345  41.507  17.286   3.835
85085W        W44346  34.886   4.426   1.779
85086W        W44347   9.306  42.412  13.376
85087W        W44348  10.770  38.837   1.428
85088W        W44349   5.280  37.029  10.405
85089W        W44350   4.380  37.521   3.339
85090W        W44351  20.064  37.926  14.863
85091W        W44352   2.852  17.560   3.245
85092W        W44353  21.033  26.506   3.270
85093W        W44354  22.555   6.907   3.788
85094W        W44355  19.140  42.896  14.296
85095W        W44356  42.886  14.141   0.403
85096W        W44357  42.979  15.618   5.105
85097W        W44358  17.241  33.911   0.367
85098W        W44359  12.742  21.696   4.634
85099W        W44360  11.858  13.720   2.347
85100W        W44361  10.793  19.677  14.379
85101W        W44362  43.477  44.342   9.939
85102W        W44363  38.489  44.292   4.828
85103W        W44364  43.953  27.110   4.696
85104W        W44365  38.928   1.962   2.684
85105W        W44366  19.577  17.169  13.981
85106W        W44367  16.316   4.288  11.609
85107W        W44368  20.085   3.911   4.824
85108W        W44369  34.878   1.757   2.819
85109W        W44370   2.779  40.318  13.355
85110W        W44371  12.275  16.660   2.206
85111W        W44372  31.068   7.198  11.590
85112W        W44373   0.942  34.956  11.902
85113W        W44374  22.250   8.750  13.985
85114W        W44375  38.873  14.235   3.734
85115W        W44376  36.938  43.399   4.269
85116W        W44377  42.815  21.224  14.308
85117W        W44378  15.627  13.768  12.091
85118W        W44379  38.924  19.182  13.450
85119W        W44380  25.646   2.422   2.860
85120W        W44381  22.645  11.708   1.831
85121W        W44382  39.440  14.745   4.666
85122W        W44383  42.987  17.284  10.931
85123W        W44384  20.583  22.225  13.848
85124W        W44385  44.384  31.503   2.243
85125W        W44386  35.002  44.973  12.829
85126W        W44387  38.047   2.917  14.390
85127W        W44388  34.895  12.158   2.393
85128W        W44389  21.579  21.175   4.785
85129W        W44390  15.254  35.474  13.393
85130W        W44391   1.937   5.830  14.414
85131W        W44392  44.981  33.587   3.723
85132W        W44393  36.900   1.300  12.367
85133W        W44394  41.810  31.581  13.943
85134W        W44395  25.046   5.827  11.000
85135W        W44396  29.122  27.943  11.448
85136W        W44397  24.721  44.428   4.176
85137W        W44398  42.420  44.007  13.317
85138W        W44399  38.960   1.849   4.796
85139W        W44400   9.174   3.248  12.077
85140W        W44401  14.232  26.585  14.866
85141W        W44402  11.751  38.435   2.318
85142W        W44403  44.433  14.326  10.443
85143W        W44404  28.185   2.245   1.857
85144W        W44405   2.272   8.261  14.384
85145W        W44406  25.513  36.052   4.300
85146W        W44407  43.878  29.055   2.792
85147W        W44408  44.354   7.286   1.798
85148W        W44409  41.490  43.511  11.379
85149W        W44410  35.558  44.792   5.142
85150W        W44411  19.067  44.821   3.720
85151W        W44412  25.195   0.352   1.845
85152W        W44413  33.494  11.842   0.808
85153W        W44414  37.956   4.365  10.957
85154W        W44415  43.442  44.377  12.421
85155W        W44416   9.373  36.566  11.393
85156W        W44417  21.153  37.903  11.865
85157W        W44418  17.575  19.096  12.576
85158W        W44419  40.976  11.207   4.723
85159W        W44420   1.901   9.171   0.918
85160W        W44421  39.056   0.277  10.603
85161W        W44422  26.646   1.880   3.177
85162W        W44423   2.263   8.834   1.326
85163W        W44424  35.873   1.250  12.421
85164W        W44425  25.065  37.432  10.421
85165W        W44426  25.637  29.159   3.845
85166W        W44427  16.613   2.966  10.464
85167W        W44428  28.991  28.987   1.843
85168W        W44429  40.974  37.947   3.299
85169W        W44430  43.430  16.302   2.384
85170W        W44431  34.871  24.479  11.977
85171W        W44432   2.408   3.833  13.965
85172W        W44433  31.093  30.509   1.277
85173W        W44434  40.483   8.353  14.025
85174W        W44435  39.003  15.190  14.489
85175W        W44436  37.020  41.377  13.951
85176W        W44437  34.076   5.223   3.363
85177W        W44438  42.007   0.845  12.965
85178W        W44439  27.016  37.858   1.220
85179W        W44440  24.167  30.425  12.023
85180W        W44441  17.594  10.247   0.800
85181W        W44442  41.492   5.402   2.827
85182W        W44443  38.955   2.845  11.513
85183W        W44444  28.087  16.109   1.382
85184W        W44445  24.123   4.841   0.399
85185W        W44446  37.535  36.980  12.985
85186W        W44447  14.832  42.500  14.881
85187W        W44448  44.775  24.670   3.820
85188W        W44449  43.912   4.762  12.454
85189W        W44450   0.761  15.781  12.430
85190W        W44451  17.285  43.857   3.279
85191W        W44452  40.870  32.602   1.221
85192W        W44453  17.777  30.154  12.548
85193W        W44454  10.810  32.989   2.788
85194W        W44455  38.951  34.386   1.759
85195W        W44456  39.824  36.991  11.592
85196W        W44457  11.646   6.810  14.908
85197W        W44458  36.921  38.486   2.270
85198W        W44459  34.410  41.914  11.972
85199W        W44460  30.657   7.310  12.090
85200W        W44461  35.948  29.944  11.498
85201W        W44462  27.448  43.514  13.378
85202W        W44463   9.330  10.758   4.614
85203W        W44464   7.300  30.518   0.388
85204W        W44465   2.789   9.295   4.189
85205W        W44466   2.418  26.020   0.845
85206W        W44467  24.177  43.795   1.868
85207W        W44468  32.624   7.244   1.865
85208W        W44469  19.247  29.514  13.360
85209W        W44470   8.668  28.935   4.620
85210W        W44471  11.632  33.979  14.449
85211W        W44472  43.774  27.176  12.386
85212W        W44473  30.142   1.409   4.199
85213W        W44474  20.678  10.705  11.064
85214W        W44475  37.537  14.149  10.894
85215W        W44476   1.442   9.765  11.380
85216W        W44477   9.755  16.766   3.852
85217W        W44478  24.088  29.432   4.751
85218W        W44479  32.922  15.668  11.068
85219W        W44480  40.853  25.668   1.425
85220W        W44481   0.349  18.744   0.800
85221W        W44482   7.904  32.909   1.858
85222W        W44483  25.634  44.432   0.921
85223W        W44484   7.714  43.423   0.880
85224W        W44485  21.051  40.411   4.830
85225W        W44486  18.181   6.423  10.407
85226W        W44487  32.951  25.122   0.351
85227W        W44488  35.428  25.658   2.742
85228W        W44489  30.974  44.406  12.087
85229W        W44490   1.817  24.724  10.495
85230W        W44491   9.320  42.399  13.022
85231W        W44492   6.189  36.096   1.317
85232W        W44493  19.184  18.067   2.370
85233W        W44494   5.273  35.529   1.236
85234W        W44495  36.923  30.464  14.400
85235W        W44496  20.523  33.417  12.401
85236W        W44497  37.830  27.959  10.418
85237W        W44498   1.397   3.730  14.776
85238W        W44499  21.088  22.647   2.311
85239W        W44500  26.474  39.321  13.316
85240W        W44501   4.373   0.306  13.817
85241W        W44502   7.199   8.662  14.431
85242W        W44503  37.003   5.706   3.373
85243W        W44504  29.432   0.900   1.313
85244W        W44505  39.385  14.592  11.949
85245W        W44506   8.703   2.799  11.907
85246W        W44507  17.162  33.591   2.306
85247W        W44508  32.943  16.616  11.991
85248W        W44509  13.780  43.361   4.667
85249W        W44510   1.290   0.319  14.381
85250W        W44511  24.583  37.943  10.634
85251W        W44512  34.376   3.245  10.439
85252W        W44513  44.412  36.066  12.914
85253W        W44514   8.320  40.489  10.642
85254W        W44515  44.860   1.790  14.785
85255W        W44516  28.613   6.387   1.447
85256W        W44517  30.469  26.141  13.524
85257W        W44518  30.593  30.442   3.169
85258W        W44519  37.505   1.366  11.547
85259W        W44520  25.018  43.293   3.281
85260W        W44521   8.160  31.046   0.864
85261W        W44522  21.582  22.610  10.522
85262W        W44523  13.724  42.836  12.868
85263W        W44524   2.840  40.830  14.768
85264W        W44525  38.378  18.131   1.356
85265W        W44526  29.669  25.468  10.421
85266W        W44527  32.091  24.497  11.040
85267W        W44528  35.009   1.334  10.967
85268W        W44529  11.821  21.584  13.039
85269W        W44530  35.005  34.561  12.027
85270W        W44531   5.227  18.627   3.337
85271W        W44532   0.251  29.548   0.880
85272W        W44533  18.113  13.300   0.867
85273W        W44534   0.421   3.309  12.848
85274W        W44535  10.210  11.669  13.978
85275W        W44536  37.491  34.375  14.875
85276W        W44537   4.909   0.368   1.236
85277W        W44538  41.840  10.703   4.684
85278W        W44539  24.696  38.341  10.598
85279W        W44540  11.367   0.760  11.578
85280W        W44541  40.346  39.428   1.281
85281W        W44542  28.591  25.084   4.192
85282W        W44543  32.438  43.825   0.249
85283W        W44544  36.884  29.600   4.353
85284W        W44545  34.582  30.533  11.002
85285W        W44546  42.341  37.916  11.032
85286W        W44547  16.118  37.927  14.916
85287W        W44548  37.884  28.961   0.455
85288W        W44549   4.328  18.090  12.544
85289W        W44550  35.391  26.038  13.432
85290W        W44551  42.348  15.309   4.682
85291W        W44552  39.980  39.492   1.808
85292W        W44553  26.957  14.647  10.590
85293W        W44554  11.635  20.197   2.725
85294W        W44555  41.402   8.679   1.312
85295W        W44556  15.660  36.096   3.325
85296W        W44557  14.736  14.288   0.284
85297W        W44558  35.858  23.576   1.890
85298W        W44559  30.985  13.319  13.045
85299W        W44560   5.421   1.397   1.846
85300W        W44561  22.585  26.475   2.842
85301W        W44562  18.191  38.971  14.485
85302W        W44563  30.099  29.952  14.973
85303W        W44564  19.060   3.382   4.289
85304W        W44565  20.685  27.192   4.304
85305W        W44566  34.935  20.756   2.889
85306W        W44567  15.147  36.944  14.779
85307W        W44568  38.432  34.381  13.462
85308W        W44569  27.545  26.661   4.756
85309W        W44570  10.868   4.769  13.054
85310W        W44571  11.176   5.296   0.292
85311W        W44572  20.625  35.026  11.951
85312W        W44573   9.805   0.978   2.387
85313W        W44574  38.433  40.381   3.183
85314W        W44575  42.928  14.740  14.007
85315W        W44576  28.512  32.442   2.221
85316W        W44577  19.645  28.625   1.786
85317W        W44578  33.573  35.596  12.447
85318W        W44579   3.244  12.324  10.619
85319W        W44580  11.155  18.598   3.809
85320W        W44581  22.574   1.363   0.249
85321W        W44582  22.013  18.271  10.981
85322W        W44583   9.213  29.650   4.171
85323W        W44584  18.741  31.123  13.046
85324W        W44585  23.161   5.222   2.725
85325W        W44586  36.912  40.380   0.264
85326W        W44587  35.100  37.395  14.930
85327W        W44588   9.311  31.610   0.825
85328W        W44589  15.158   7.301  13.342
85329W        W44590   5.293   1.285  14.809
85330W        W44591  16.590  10.348  14.294
85331W        W44592  15.622  39.923  11.086
85332W        W44593  13.644  12.356   4.164
85333W        W44594  33.876  27.180  10.895
85334W        W44595  14.190  24.562  14.513
85335W        W44596  28.116  42.004  14.883
85336W        W44597   5.817  41.821  13.043
85337W        W44598  25.482   0.775   0.849
85338W        W44599  42.289  31.950  14.882
85339W        W44600  18.637  27.106   4.280
85340W        W44601   3.818   8.799  13.914
85341W        W44602  22.099   1.780  11.887
85342W        W44603  44.505  28.583  11.544
85343W        W44604  42.312  31.411  14.335
85344W        W44605  23.667  15.649   0.946
85345W        W44606   9.349  19.733   2.190
85346W        W44607  28.938   7.708  11.018
85347W        W44608  16.289  20.218  12.950
85348W        W44609  13.194  17.233  10.919
85349W        W44610  34.585  36.028   3.156
85350W        W44611  25.582  27.940  13.828
85351W        W44612  25.470  42.295  13.816
85352W        W44613   8.776  16.679   4.652
85353W        W44614  13.727  29.582  11.043
85354W        W44615   7.417  10.813   1.781
85355W        W44616   8.831  14.101  10.420
85356W        W44617  13.250  15.304   4.250
85357W        W44618  43.885  33.414   1.863
85358W        W44619  17.104  29.637  14.429
85359W        W44620  13.184  30.538  12.902
85360W        W44621  39.922  44.322  12.988
85361W        W44622   1.830   9.185   3.241
85362W        W44623  43.503  20.029  10.558
85363W        W44624  23.137   0.421  13.476
85364W        W44625  25.706  34.598   0.271
85365W        W44626  44.474  11.367  10.639
85366W        W44627  28.967  18.152  11.426
85367W        W44628  40.882   0.768   2.347
85368W        W44629  18.610  43.336   3.789
85369W        W44630  33.460  21.738  12.867
85370W        W44631  23.640  29.446   0.729
85371W        W44632  30.577  22.129   1.350
85372W        W44633   5.350  24.018   2.662
85373W        W44634  32.566  27.175  12.404
85374W        W44635  23.657  41.428   4.316
85375W        W44636   2.389  11.332  11.383
85376W        W44637   9.226  17.576  13.462
85377W        W44638  27.966   6.318  11.121
85378W        W44639  23.123  30.149   2.229
85379W        W44640   8.356  33.477  11.451
85380W        W44641  41.933  44.866   3.722
85381W        W44642  11.138  42.802  11.909
85382W        W44643  25.628  12.737  13.502
85383W        W44644   0.849  36.854  14.850
85384W        W44645  17.704   8.895  12.865
85385W        W44646  17.154   0.443  10.966
85386W        W44647  24.177  23.985   0.831
85387W        W44648  36.846  18.637   2.810
85388W        W44649   7.213  16.160   1.413
85389W        W44650  41.318   8.779   5.103
85390W        W44651  29.623   9.380  11.427
85391W        W44652  32.957  30.916   1.444
85392W        W44653  40.318  10.265  11.912
85393W        W44654  16.695  32.083  11.121
85394W        W44655  32.057  30.147   4.726
85395W        W44656   1.287  16.198   4.273
85396W        W44657  40.949  16.181  13.036
85397W        W44658   1.946  31.568   3.721
85398W        W44659   4.858  13.126  11.373
85399W        W44660  20.565   8.232  14.823
85400W        W44661  43.936  37.048   3.704
85401W        W44662  24.127  10.256   5.101
85402W        W44663  38.492  21.056   4.124
85403W        W44664  18.572  36.362   3.343
85404W        W44665  38.820  13.347   4.677
85405W        W44666  16.748  18.071   1.805
85406W        W44667   6.724  24.209  12.978
85407W        W44668  43.860  18.674  14.330
85408W        W44669  29.993  26.073  13.348
85409W        W44670  33.084  35.596   3.172
85410W        W44671  24.639  14.746  13.437
85411W        W44672  33.609   1.479  13.829
85412W        W44673  12.231  28.038   1.728
85413W        W44674   0.460   7.825  13.810
85414W        W44675  43.286  23.036   1.353
85415W        W44676  25.580  26.471  12.448
85416W        W44677  22.208  21.617   0.432
85417W        W44678  42.854   6.306   5.131
85418W        W44679  39.910  26.548  13.841
85419W        W44680  23.044  35.553  12.881
85420W        W44681  28.083  39.443   4.315
85421W        W44682  38.505   0.924   4.234
85422W        W44683  30.976  15.266  12.397
85423W        W44684   8.210  38.881  12.427
85424W        W44685  36.059  28.518   0.309
85425W        W44686   4.405  25.571  11.931
85426W        W44687  31.446  34.520   1.378
85427W        W44688  32.028  16.141  13.990
85428W        W44689  12.855  30.128  14.355
85429W        W44690   5.412  34.561  13.041
85430W        W44691   3.385   1.769  11.980
85431W        W44692  25.214   0.305   4.298
85432W        W44693  27.622  28.167  13.045
85433W        W44694  39.050   0.426  14.504
85434W        W44695  22.027  41.518   0.856
85435W        W44696  26.198   2.453   2.378
85436W        W44697  31.999  22.166  13.017
85437W        W44698   6.413   9.707   3.277
85438W        W44699  21.020  17.560   4.829
85439W        W44700  31.912  33.940   9.595
85440W        W44701  16.090   7.324   1.802
85441W        W44702  16.301  23.083  14.945
85442W        W44703  20.160  22.636   3.738
85443W        W44704   9.820  40.043  13.848
85444W        W44705  17.187  35.958   1.924
85445W        W44706   6.287  31.435  12.963
85446W        W44707  22.599  23.066   4.201
85447W        W44708  25.527  23.695   2.752
85448W        W44709  11.203  26.499   9.944
85449W        W44710  15.747  36.519   0.829
85450W        W44711  21.643  11.357  13.932
85451W        W44712   8.277  36.435  14.776
85452W        W44713   7.691   9.706  11.590
85453W        W44714  26.642  43.494   0.277
85454W        W44715  44.446  26.563   2.261
85455W        W44716  43.354  15.714   0.326
85456W        W44717  29.504  32.534  11.544
85457W        W44718   6.707  19.191   1.842
85458W        W44719  43.767  34.471   3.871
85459W        W44720  23.658  38.430   2.193
85460W        W44721   0.873  13.325  14.281
85461W        W44722  29.977  41.525   4.721
85462W        W44723  40.995  38.037  14.985
85463W        W44724  34.021  23.078   1.935
85464W        W44725  43.286  12.822   4.131
85465W        W44726  19.198  44.934  13.492
85466W        W44727  17.557  28.158  12.564
85467W        W44728  30.112   5.777   2.392
85468W        W44729  11.133  30.050  10.919
85469W        W44730  11.781  41.926   1.883
85470W        W44731  11.128   7.381   0.851
85471W        W44732  31.998  12.739  14.447
85472W        W44733  34.600  17.677   2.781
85473W        W44734  36.927   1.732   2.743
85474W        W44735   9.222  20.558   2.882
85475W        W44736  40.964   9.207  14.825
85476W        W44737   8.274   0.806  13.884
85477W        W44738  18.742  32.083   4.146
85478W        W44739  39.524  31.975   4.181
85479W        W44740  25.986  30.616  14.479
85480W        W44741  42.315  43.981   1.305
85481W        W44742  11.696  24.052  11.889
85482W        W44743   6.808  44.900   4.830
85483W        W44744   3.733  34.080  13.997
85484W        W44745  31.131  36.903  10.912
85485W        W44746  30.461  32.435   3.284
85486W        W44747   8.358  37.514   0.437
85487W        W44748  16.756  41.334  14.337
85488W        W44749  34.556  35.433   0.306
85489W        W44750  18.065  38.455   1.890
85490W        W44751  17.174   0.317   0.422
85491W        W44752  26.560  30.986   4.228
85492W        W44753  23.561  38.028   3.744
85493W        W44754  39.049  24.703  14.027
85494W        W44755  26.536  35.592  11.955
85495W        W44756  30.976  37.526  11.911
85496W        W44757  15.179  20.218  12.987
85497W        W44758  29.665  22.200   3.215
85498W        W44759  10.650  30.025  14.011
85499W        W44760  42.864  25.164  12.361
85500W        W44761  14.267  33.466  14.991
85501W        W44762  11.244  33.540   2.715
85502W        W44763  13.176  40.507   0.439
85503W        W44764  40.947  10.674   3.344
85504W        W44765  41.985  16.178  10.579
85505W        W44766  27.537  16.191  11.591
85506W        W44767  38.969  21.696   1.279
85507W        W44768  10.663  27.605  14.918
85508W        W44769  28.488   8.679  11.434
85509W        W44770  15.255  24.552   2.841
85510W        W44771   8.168   1.473  10.579
85511W        W44772   9.817  35.945   2.860
85512W        W44773  15.585  11.713  11.061
85513W        W44774  23.532  40.323  13.481
85514W        W44775  27.164  26.164   4.818
85515W        W44776  43.317  43.291  12.389
85516W        W44777  35.939  16.704  13.854
85517W        W44778  37.869   4.781  13.809
85518W        W44779   5.770  15.257   0.891
85519W        W44780  31.473  35.383  14.941
85520W        W44781  16.590  10.863  12.972
85521W        W44782  39.362  40.316  11.004
85522W        W44783  37.401  29.933  11.508
85523W        W44784  43.827   7.738   3.634
85524W        W44785   8.170  35.358   1.907
85525W        W44786  42.495  34.028  11.553
85526W        W44787  22.052  37.362   5.216
85527W        W44788   0.370  24.527   0.365
85528W        W44789  19.169  34.598   2.269
85529W        W44790  36.943  17.683   0.430
85530W        W44791   4.235  33.522  10.540
85531W        W44792  31.463  43.795   0.858
85532W        W44793  37.458  25.145  14.941
85533W        W44794  16.681   6.218   2.844
85534W        W44795  39.316  43.379   2.311
85535W        W44796  15.256  41.371  10.452
85536W        W44797  17.737  23.706   4.326
85537W        W44798  37.918  14.684   3.303
85538W        W44799  14.803  39.378   3.246
85539W        W44800  40.873  38.506  14.824
85540W        W44801  44.305  36.987  13.057
85541W        W44802  24.225  23.010  10.436
85542W        W44803   1.400   2.892  10.962
85543W        W44804  26.517  34.011   4.642
85544W        W44805  13.109  26.198   0.305
85545W        W44806  32.605   4.755   0.772
85546W        W44807   3.946   4.370   4.651
85547W        W44808   9.689   5.754   2.217
85548W        W44809  43.501  27.531  14.446
85549W        W44810   7.217  25.068  10.541
85550W        W44811  30.997  25.691  12.828
85551W        W44812  15.328  22.511   0.321
85552W        W44813   3.817  41.389  12.847
85553W        W44814  30.569  29.533   3.292
85554W        W44815  10.645  14.123  14.322
85555W        W44816  20.115   5.338  11.114
85556W        W44817  39.548   2.345  10.591
85557W        W44818  20.572  36.406  13.382
85558W        W44819  26.458  26.676  12.865
85559W        W44820  16.789  22.610   0.966
85560W        W44821  17.178  34.420   2.384
85561W        W44822  37.940  43.515  12.057
85562W        W44823   0.944  10.635   2.414
85563W        W44824  27.952  24.575  11.942
85564W        W44825  37.376   2.308   4.603
85565W        W44826  44.967   7.911   0.258
85566W        W44827  18.190  20.038   2.196
85567W        W44828  28.580  16.700  12.444
85568W        W44829  40.900  26.645   2.742
85569W        W44830  30.542  14.230   3.193
85570W        W44831   8.815  37.558  12.871
85571W        W44832  43.879  27.177   0.301
85572W        W44833   1.909  44.484   0.463
85573W        W44834   2.463  33.552  11.991
85574W        W44835  13.223  44.899  10.636
85575W        W44836   0.356  35.418   3.848
85576W        W44837  42.387  16.187   1.440
85577W        W44838  34.559   3.825  11.516
85578W        W44839  30.617  29.528  10.901
85579W        W44840  11.715   3.845  12.527
85580W        W44841   3.844  32.959   0.790
85581W        W44842  13.230  26.563  12.392
85582W        W44843  33.550  14.720  13.803
85583W        W44844   9.382  16.801  10.590
85584W        W44845  22.685  42.785   2.827
85585W        W44846  34.868  42.397  13.908
85586W        W44847   8.341  37.910  14.969
85587W        W44848  28.993  41.820   1.269
85588W        W44849  30.114   2.467  12.439
85589W        W44850  25.679  17.599   3.360
85590W        W44851   2.341  14.254  13.796
85591W        W44852  16.670  17.064  10.426
85592W        W44853  30.004  32.527   4.601
85593W        W44854  39.953  28.582   0.312
85594W        W44855  41.344  33.122   2.848
85595W        W44856  20.626  43.499  13.384
85596W        W44857  16.303  32.990  12.437
85597W        W44858   7.346  14.801  11.497
85598W        W44859   4.257  15.687  13.475
85599W        W44860  44.446  33.882  13.003
85600W        W44861  40.044  28.110  14.004
85601W        W44862   9.315  10.856   0.827
85602W        W44863  36.555  13.782  11.401
85603W        W44864  27.056  29.524  10.506
85604W        W44865  13.831  21.262   0.314
85605W        W44866  19.135  36.966  10.440
85606W        W44867  21.635  31.152  14.379
85607W        W44868  40.912  17.763   0.901
85608W        W44869  31.580   3.303   1.216
85609W        W44870  17.205  43.345  10.457
85610W        W44871  27.958  15.133  13.435
85611W        W44872   4.739  18.191  11.473
85612W        W44873  41.538  41.324  13.795
85613W        W44874   6.240  37.974   3.825
85614W        W44875   7.779  10.775  14.457
85615W        W44876  43.995   6.327   2.741
85616W        W44877  40.823  27.983   1.906
85617W        W44878  26.192   4.300   4.827
85618W        W44879  26.956  18.113  10.892
85619W        W44880  29.520   5.806  13.883
85620W        W44881  42.961   6.223   4.153
85621W        W44882  43.907  17.582   4.329
85622W        W44883  19.618  11.671  13.365
85623W        W44884  18.241  39.428  14.452
85624W        W44885  41.962  44.969  14.496
85625W        W44886  15.773  12.741   4.164
85626W        W44887   1.733  29.054   1.703
85627W        W44888  36.924  16.233   4.834
85628W        W44889  15.120  11.290   4.752
85629W        W44890  25.608   1.351   2.227
85630W        W44891  40.443   5.879  14.462
85631W        W44892   0.344  12.246  13.861
85632W        W44893   7.680  27.639   1.907
85633W        W44894  15.675   9.309   2.716
85634W        W44895  14.774  27.026   4.669
85635W        W44896  30.555  43.270  10.438
85636W        W44897  42.428  38.972  14.415
85637W        W44898  21.638  38.048   3.674
85638W        W44899  42.016  36.915   4.227
85639W        W44900  40.813  17.089  11.412
85640W        W44901  10.192  24.224  14.340
85641W        W44902  33.941  29.494  10.919
85642W        W44903   3.454  29.043   4.197
85643W        W44904  11.713   6.827   4.796
85644W        W44905  25.005   2.253   0.896
85645W        W44906  29.139  27.980   2.677
85646W        W44907  29.470  11.711  11.423
85647W        W44908  10.637  35.418  13.341
85648W        W44909  26.055  15.164   3.149
85649W        W44910  20.259   8.199  11.123
85650W        W44911  27.540   1.363   3.836
85651W        W44912  16.125  10.212   1.329
85652W        W44913   6.792  12.853  11.944
85653W        W44914  14.611  36.900   2.358
85654W        W44915  25.184  35.523   4.665
85655W        W44916   8.726  27.973  12.519
85656W        W44917  40.374  27.955  14.011
85657W        W44918   0.750  25.083   1.831
85658W        W44919   9.317   7.196  10.549
85659W        W44920  26.645   4.218   0.349
85660W        W44921  29.086   9.736  13.415
85661W        W44922   2.290  12.637   2.767
85662W        W44923  10.785  12.134  13.973
85663W        W44924  23.711   4.748  14.336
85664W        W44925  39.815  14.189  14.806
85665W        W44926  17.238  14.289   2.417
85666W        W44927  25.122   2.423   3.676
85667W        W44928  14.833  42.885   2.254
85668W        W44929  18.169  25.067   4.620
85669W        W44930  37.352  28.456   2.742
85670W        W44931  31.548  14.193  14.483
85671W        W44932  26.132  20.031  11.434
85672W        W44933  36.493   9.210   1.219
85673W        W44934   1.732  34.482   1.369
85674W        W44935  24.025  16.690  13.457
85675W        W44936  25.538  31.455   0.267
85676W        W44937   3.343  33.517  12.998
85677W        W44938   0.366  25.066   2.409
85678W        W44939  35.863  14.732  14.306
85679W        W44940   4.377   2.329  14.334
85680W        W44941  25.594  16.110  13.808
85681W        W44942  26.665   4.260  13.433
85682W        W44943  11.712  16.174   2.322
85683W        W44944  11.728  11.664  14.837
85684W        W44945  34.881  36.871   3.677
85685W        W44946   6.917  12.751  12.880
85686W        W44947  30.944   3.950   2.761
85687W        W44948  22.552  18.755  11.497
85688W        W44949  23.549  38.350   1.705
85689W        W44950  33.609  15.653   4.681
85690W        W44951  21.064  36.399   2.826
85691W        W44952  18.142  22.102   3.714
85692W        W44953  18.100   0.363   3.797
85693W        W44954   4.394  22.694   2.723
85694W        W44955  44.415   6.320   4.141
85695W        W44956  22.564  36.953  13.467
85696W        W44957  25.660  17.204  11.577
85697W        W44958  40.858  32.491  13.863
85698W        W44959  15.748   3.219   4.113
85699W        W44960  28.167  22.707   2.885
85700W        W44961  25.698  13.673   3.767
85701W        W44962  44.339  38.535   2.701
85702W        W44963  15.779  25.173  13.051
85703W        W44964  23.006  33.441  11.428
85704W        W44965  32.973  27.130  11.967
85705W        W44966  25.708  33.876   2.752
85706W        W44967   6.252  19.656   3.781
85707W        W44968  14.278  15.669   1.807
85708W        W44969   8.740  21.187   2.814
85709W        W44970  31.148  32.419  14.843
85710W        W44971   4.912  12.738  12.904
85711W        W44972  26.134  39.000  12.510
85712W        W44973  13.219  13.311  13.424
85713W        W44974  29.156  14.706  13.351
85714W        W44975  28.034  30.443   3.274
85715W        W44976  29.965   3.798  10.424
85716W        W44977  13.304  39.810  11.514
85717W        W44978  43.926  16.289   2.902
85718W        W44979   3.878   0.832   0.877
85719W        W44980   2.779  42.816  10.461
85720W        W44981  32.910  38.325   3.365
85721W        W44982  38.960  42.964  10.151
85722W        W44983   2.415  24.497  14.308
85723W        W44984   1.891  29.585   3.371
85724W        W44985  16.646  38.023  14.324
85725W        W44986  42.833  37.079  13.448
85726W        W44987  27.087   8.695  10.456
85727W        W44988  14.129   0.979   4.115
85728W        W44989   5.849   7.346  13.848
85729W        W44990  30.588  20.558   3.630
85730W        W44991  15.703   0.868   4.770
85731W        W44992   0.376   8.310   2.817
85732W        W44993  44.813  28.026  13.056
85733W        W44994   9.346  18.081   1.218
85734W        W44995  16.686  22.248  13.321
85735W        W44996   7.253  31.149   4.343
85736W        W44997   5.695  21.117   0.337
85737W        W44998  30.581   6.234   5.110
85738W        W44999  13.182  31.632   2.785
85739W        W45000  10.816   9.852  14.487
85740W        W45001  34.996  26.153  12.072
85741W        W45002  38.068   7.803   4.321
85742W        W45003   3.749   8.355   0.262
85743W        W45004  10.325  24.511  13.823
85744W        W45005   5.913   6.383   4.317
85745W        W45006  22.535  33.564   0.282
85746W        W45007   8.773   3.824   1.903
85747W        W45008   0.770  21.102   3.328
85748W        W45009  27.980  20.768  13.546
85749W        W45010  42.320  28.443   2.235
85750W        W45011  33.624  41.893   0.829
85751W        W45012  26.588  36.434  12.930
85752W        W45013  42.853  28.015   4.168
85753W        W45014  33.918  12.746  12.541
85754W        W45015   4.805  13.830   0.743
85755W        W45016  12.682  42.450  10.425
85756W        W45017   0.777   7.775   3.789
85757W        W45018  19.275  25.626  11.458
85758W        W45019  37.025  33.615  12.886
85759W        W45020  13.348  16.762   5.139
85760W        W45021  25.557  33.433  13.048
85761W        W45022  22.075  32.929   1.853
85762W        W45023  37.383  16.107  11.965
85763W        W45024   8.850   4.845  12.468
85764W        W45025  37.003  11.806   1.283
85765W        W45026  28.993  28.637   2.238
85766W        W45027  42.019  41.813   0.368
85767W        W45028  15.250  25.132   1.877
85768W        W45029  31.930  20.167  11.962
85769W        W45030  13.270   9.382  14.941
85770W        W45031   2.845  24.575   2.859
85771W        W45032  20.675   4.870  14.420
85772W        W45033  30.015   8.306   0.923
85773W        W45034  26.073   3.951   0.787
85774W        W45035  42.954  31.958  12.013
85775W        W45036  24.500  34.382   0.335
85776W        W45037  38.428  27.530   0.937
85777W        W45038  43.777   0.752  12.928
85778W        W45039  43.949  41.932   0.773
85779W        W45040  22.225  26.149   4.802
85780W        W45041  22.106  33.394   2.265
85781W        W45042  31.996  10.818   5.644
85782W        W45043  43.359  35.947  14.896
85783W        W45044   9.220   0.757  14.027
85784W        W45045   2.448  42.964  11.558
85785W        W45046   7.337  11.330  12.413
85786W        W45047  44.867   9.682  11.429
85787W        W45048  12.621  38.559  11.991
85788W        W45049   1.753  43.506  11.019
85789W        W45050  19.264   5.409  13.798
85790W        W45051  43.939  16.656  13.998
85791W        W45052   4.911  15.823  12.448
85792W        W45053  17.583  42.968   4.651
85793W        W45054  19.209  31.629   9.982
85794W        W45055  15.099  36.497   3.354
85795W        W45056  25.606  34.381  12.996
85796W        W45057  31.518  39.466   4.703
85797W        W45058  30.546  21.078  12.567
85798W        W45059  44.968   4.727  11.017
85799W        W45060  20.243   7.181   0.820
85800W        W45061  38.904  16.729  11.032
85801W        W45062   3.372  30.950  14.929
85802W        W45063  15.672  33.069  11.869
85803W        W45064  32.079  15.177   5.086
85804W        W45065  41.535   1.263  11.000
85805W        W45066  31.556   3.717  10.440
85806W        W45067  36.841   2.383   0.323
85807W        W45068  15.724   5.791  11.118
85808W        W45069  27.534  26.993   9.551
85809W        W45070  34.438  36.085   5.208
85810W        W45071  35.587  23.032  11.893
85811W        W45072  26.574  12.227   2.744
85812W        W45073  43.868   3.326  11.066
85813W        W45074  34.421   9.365  11.603
85814W        W45075  36.091   8.405   2.815
85815W        W45076  13.722   7.873  13.376
85816W        W45077  12.288  44.430   1.399
85817W        W45078  25.592  42.936   1.800
85818W        W45079  39.327  25.092  13.390
85819W        W45080  43.920  25.578   3.153
85820W        W45081  14.789  28.518   5.798
85821W        W45082  35.042  36.020  11.856
85822W        W45083  12.310  38.826   2.244
85823W        W45084  12.173  20.267  12.431
85824W        W45085  15.275  32.511   2.241
85825W        W45086   6.277   7.888   2.663
85826W        W45087   7.764  42.858  10.564
85827W        W45088  28.129  27.593   0.453
85828W        W45089  33.397  39.952   4.821
85829W        W45090   8.291  42.377   2.725
85830W        W45091  42.905  36.963  12.891
85831W        W45092  11.135  24.617  14.408
85832W        W45093  23.030  28.106   4.260
85833W        W45094  14.632  32.622   0.348
85834W        W45095  31.912   0.440   3.803
85835W        W45096  32.462  28.160   2.726
85836W        W45097  32.116  25.217   1.768
85837W        W45098   4.236  33.400   0.248
85838W        W45099  12.218  17.252  11.966
85839W        W45100   9.200  39.459   2.876
85840W        W45101  32.564   6.721   1.762
85841W        W45102  12.705  17.792  11.555
85842W        W45103   5.763  25.164  11.372
85843W        W45104  30.491   3.893  12.987
85844W        W45105   0.475   7.320  12.510
85845W        W45106  42.963  14.627   2.777
85846W        W45107  32.436  43.839   3.744
85847W        W45108  36.933  17.278   0.309
85848W        W45109  39.833  16.620   3.828
85849W        W45110  24.484  32.891  14.446
85850W        W45111  31.504  38.468   1.786
85851W        W45112  38.974  16.612  13.495
85852W        W45113  17.618  34.941   3.768
85853W        W45114   5.907  12.718  14.294
85854W        W45115  32.434   7.870   4.257
85855W        W45116  25.058  20.125   3.686
85856W        W45117   1.919  37.457  11.453
85857W        W45118  10.291   6.341   1.715
85858W        W45119  22.173  16.694   3.154
85859W        W45120   6.871  22.616   0.478
85860W        W45121   8.232   1.333   1.341
85861W        W45122  10.314  27.112  11.955
85862W        W45123  22.585  37.337   4.714
85863W        W45124   9.318  32.093  12.351
85864W        W45125  37.973  21.747   4.665
85865W        W45126  40.334   6.380   0.763
85866W        W45127  16.655   6.747  11.976
85867W        W45128   3.275   8.830  13.319
85868W        W45129  17.776  38.549  13.029
85869W        W45130  20.611   2.889  10.463
85870W        W45131   3.831   3.767  11.003
85871W        W45132  41.795   5.808  12.834
85872W        W45133  17.287  18.215   0.274
85873W        W45134  26.975   4.379   1.303
85874W        W45135  44.850  29.539   3.185
85875W        W45136  44.352  30.922   0.406
85876W        W45137  23.518  37.496   0.298
85877W        W45138  40.376  27.135  12.037
85878W        W45139  25.514  27.049   1.698
85879W        W45140  34.886  36.539  13.441
85880W        W45141  24.590  42.948   2.771
85881W        W45142  43.396   5.349  12.002
85882W        W45143   5.716   2.790   3.817
85883W        W45144   8.357  29.055   3.768
85884W        W45145   4.724  14.668   4.256
85885W        W45146  18.207  41.923   3.769
85886W        W45147  31.926  33.059   3.199
85887W        W45148  34.071  36.918  10.963
85888W        W45149  17.581  11.697   3.365
85889W        W45150  17.210  37.070  13.331
85890W        W45151  20.676   8.340   0.321
85891W        W45152  39.455  25.603  11.022
85892W        W45153   9.290   1.873   2.850
85893W        W45154  24.652   3.713   4.262
85894W        W45155   6.687  23.183  11.409
85895W        W45156  28.163  35.047  11.127
85896W        W45157  42.837   6.421   0.252
85897W        W45158  39.026  23.157  14.317
85898W        W45159  32.969   3.376  12.096
85899W        W45160  28.075  29.924  11.883
85900W        W45161  20.714   1.734  14.330
85901W        W45162  29.635  16.179   4.291
85902W        W45163  36.947   4.708  14.324
85903W        W45164  11.814  40.399   3.145
85904W        W45165  22.170  41.868  11.869
85905W        W45166  28.471   4.713  13.510
85906W        W45167   2.770  34.379   0.956
85907W        W45168  30.521  43.939   4.821
85908W        W45169  23.041   0.310   2.825
85909W        W45170  23.010  29.549  10.915
85910W        W45171  15.777  33.987   1.266
85911W        W45172  30.940  36.016   0.256
85912W        W45173  16.745  41.931   2.349
85913W        W45174   7.747  30.966   2.259
85914W        W45175  20.244   4.898  12.992
85915W        W45176  41.307  15.698   0.785
85916W        W45177  17.679  10.359  12.396
85917W        W45178  11.213  42.406  14.497
85918W        W45179  32.414   8.305   2.822
85919W        W45180  13.682  23.024   4.223
85920W        W45181  14.716   7.754  10.903
85921W        W45182  29.073  43.439  14.505
85922W        W45183  37.050   0.416  13.859
85923W        W45184  37.077  41.296   1.426
85924W        W45185   3.840  32.606   2.288
85925W        W45186  37.899  30.607  13.430
85926W        W45187  35.539   4.265  11.976
85927W        W45188  25.692   1.382  14.413
85928W        W45189  38.334  27.539   2.346
85929W        W45190   0.341   8.740   3.640
85930W        W45191  17.086  15.662   2.381
85931W        W45192  22.533  33.120  13.420
85932W        W45193  18.051  37.967  10.622
85933W        W45194  18.101  13.745   0.248
85934W        W45195  33.108  12.760   0.479
85935W        W45196   8.249  32.584   3.629
85936W        W45197  17.066  35.375   3.651
85937W        W45198  35.559  30.064   4.729
85938W        W45199  28.146  17.590  12.990
85939W        W45200   6.738   4.384  11.552
85940W        W45201  36.541  36.031   1.212
85941W        W45202  33.409   3.372  10.070
85942W        W45203  22.226  32.069   0.745
85943W        W45204  37.062  20.108   2.689
85944W        W45205  41.916  30.968   1.431
85945W        W45206   4.418  42.476  10.947
85946W        W45207  25.059   6.199  13.378
85947W        W45208  11.144   5.244   2.786
85948W        W45209   5.715   1.387   3.330
85949W        W45210  16.120  22.733  10.620
85950W        W45211  18.235  14.780   3.818
85951W        W45212  24.690  29.474   2.799
85952W        W45213  41.857  13.285   4.679
85953W        W45214   6.339  36.030  13.891
85954W        W45215  39.430   0.357   3.238
85955W        W45216  26.578  16.090  11.128
85956W        W45217   5.896  13.208   4.800
85957W        W45218  43.866   2.881  12.456
85958W        W45219  12.136  24.058  10.610
85959W        W45220  28.970  42.819  11.394
85960W        W45221  37.891  12.292  12.473
85961W        W45222  28.933  27.063  11.991
85962W        W45223  29.490   5.304  14.460
85963W        W45224   7.286  40.914   0.966
85964W        W45225  12.249  10.276  12.838
85965W        W45226  31.419  44.898   2.292
85966W        W45227  31.928   2.795  13.420
85967W        W45228  20.744  31.549  12.416
85968W        W45229  22.700  14.648   1.827
85969W        W45230  29.155  33.906   5.781
85970W        W45231  17.566  26.026  14.398
85971W        W45232   2.885  33.999  13.815
85972W        W45233   5.335  17.280   4.733
85973W        W45234   7.806   8.781  14.490
85974W        W45235  24.045  20.046  11.384
85975W        W45236  38.071  32.511   4.221
85976W        W45237  35.495  19.542   4.601
85977W        W45238  16.317  11.851  11.888
85978W        W45239  38.531  11.355  14.410
85979W        W45240  34.063  25.188   3.757
85980W        W45241  11.684  28.470  14.947
85981W        W45242   2.268  32.582  14.844
85982W        W45243  27.040  27.584   3.658
85983W        W45244   4.931   4.398  11.048
85984W        W45245  23.653  42.999   2.787
85985W        W45246  35.503  20.541  13.970
85986W        W45247  21.515  34.577   2.695
85987W        W45248  29.464  16.243   2.842
85988W        W45249   6.332  13.744  10.466
85989W        W45250  37.573  10.714   4.662
85990W        W45251  13.842  44.767   2.750
85991W        W45252  25.161   4.314   0.889
85992W        W45253  18.219  20.565   0.892
85993W        W45254  41.393  36.396  11.973
85994W        W45255  35.559  31.052  14.498
85995W        W45256  41.963  38.064   4.204
85996W        W45257   7.827   9.229  14.329
85997W        W45258  32.887  39.036   5.293
85998W        W45259  28.508  38.003   5.106
85999W        W45260  38.043  44.976   2.876
86000W        W45261  32.894  23.170   0.336
86001W        W45262  10.257  42.512   2.669
86002W        W45263  10.319  29.557   1.913
86003W        W45264  25.097  18.701  14.301
86004W        W45265  19.207  37.385  13.346
86005W        W45266  19.281   7.190  12.531
86006W        W45267   1.913  35.902  14.850
86007W        W45268   3.389  14.164   0.749
86008W        W45269  17.223  33.464  14.372
86009W        W45270  42.502  37.874   0.818
86010W        W45271   5.406  36.363   1.825
86011W        W45272  14.296   9.180   1.821
86012W        W45273  28.183  19.762   0.428
86013W        W45274  22.023  15.579  13.879
86014W        W45275  24.481  44.287  13.373
86015W        W45276  30.930  35.957   0.913
86016W        W45277  30.572  22.033  10.925
86017W        W45278  26.053  27.067  13.045
86018W        W45279  21.114   3.940  11.479
86019W        W45280  34.978  14.133  12.007
86020W        W45281  11.136   5.801   3.812
86021W        W45282  37.488  44.443  14.024
86022W        W45283   5.335  27.959  10.016
86023W        W45284  36.466  19.533   4.149
86024W        W45285  21.733  19.586   3.154
86025W        W45286  43.274  19.118   4.123
86026W        W45287  27.682  13.628  13.434
86027W        W45288   0.901  14.699  10.437
86028W        W45289  13.672  38.873  11.545
86029W        W45290  27.498  24.686   4.612
86030W        W45291   1.874   4.721  13.884
86031W        W45292  35.563  15.708  11.483
86032W        W45293  24.221  20.680  11.419
86033W        W45294  10.637  41.038  12.013
86034W        W45295  40.937  19.561   1.815
86035W        W45296  13.615  19.551   4.635
86036W        W45297  35.526  28.571  10.888
86037W        W45298  25.047  12.268  10.891
86038W        W45299  19.738  27.491  12.049
86039W        W45300  35.069   6.215   3.352
86040W        W45301  31.062  11.276  13.018
86041W        W45302  33.918  20.605  13.975
86042W        W45303   8.695  17.287  14.451
86043W        W45304  38.989  33.905  14.355
86044W        W45305  43.881  35.360   4.692
86045W        W45306   0.377  13.175   2.207
86046W        W45307   4.885   0.867   2.300
86047W        W45308  18.692  19.210   0.889
86048W        W45309   0.775  14.760   0.478
86049W        W45310  29.575   8.321  10.467
86050W        W45311  30.070  36.024   4.732
86051W        W45312  37.853  42.791   2.686
86052W        W45313  42.357  34.071  12.340
86053W        W45314  43.462  10.759  11.611
86054W        W45315  36.454  17.278  14.979
86055W        W45316  11.744  22.007   4.782
86056W        W45317  17.771  39.355  13.435
86057W        W45318   9.192   8.688   2.390
86058W        W45319  18.168  32.575  13.387
86059W        W45320  38.429  29.617   0.866
86060W        W45321  13.700  19.042  12.971
86061W        W45322  22.177  17.135  13.408
86062W        W45323   7.409  44.881   1.780
86063W        W45324  19.253   9.688  12.971
86064W        W45325  36.412  32.088   3.190
86065W        W45326  31.562  34.428   2.737
86066W        W45327  13.137  23.078  14.302
86067W        W45328  17.651  32.454   3.182
86068W        W45329   9.171  42.883   4.213
86069W        W45330   0.787  23.531  13.469
86070W        W45331  40.340   4.703   0.771
86071W        W45332   2.788   8.776  14.807
86072W        W45333  31.086  12.640  14.282
86073W        W45334   9.276  34.034  11.862
86074W        W45335  44.360   1.289   4.655
86075W        W45336  10.674  23.532   4.716
86076W        W45337  39.817   0.344  11.998
86077W        W45338   8.855   4.241  11.069
86078W        W45339  34.483  23.144  12.352
86079W        W45340  32.120  23.675   4.266
86080W        W45341  32.956  43.303   0.880
86081W        W45342   5.306   9.763  10.570
86082W        W45343  40.037  36.996  14.026
86083W        W45344   7.231  35.403   3.733
86084W        W45345  11.823  28.944   0.331
86085W        W45346  26.680  26.696   3.776
86086W        W45347  21.691  30.149   0.954
86087W        W45348  16.713  21.593  10.920
86088W        W45349  17.080  42.292   2.374
86089W        W45350  44.317  37.494   2.731
86090W        W45351  27.591  30.651  12.541
86091W        W45352  25.104  43.873   4.146
86092W        W45353  27.975  18.186   4.347
86093W        W45354  22.526  43.800   0.242
86094W        W45355   4.272  36.075  12.367
86095W        W45356  15.623  43.500  14.374
86096W        W45357   9.877  12.814  13.510
86097W        W45358  42.305  17.652   1.301
86098W        W45359   6.414   1.948   2.815
86099W        W45360  14.300  27.001  11.932
86100W        W45361  41.344  18.285  10.514
86101W        W45362  24.218  29.541  13.395
86102W        W45363   0.869  24.980   1.340
86103W        W45364   7.702  20.535   0.934
86104W        W45365   3.325  36.858   0.294
86105W        W45366   2.777  38.446   3.651
86106W        W45367  40.925  18.564   0.816
86107W        W45368  23.661   3.447   2.275
86108W        W45369   8.778  17.665  13.345
86109W        W45370  15.231  33.449  13.846
86110W        W45371   2.938   8.210   0.901
86111W        W45372   8.354  12.773   0.453
86112W        W45373   4.330  26.984   4.788
86113W        W45374  25.183  21.104  13.428
86114W        W45375  16.311  34.368   2.815
86115W        W45376  18.628  20.167  10.497
86116W        W45377  40.946   1.872  12.038
86117W        W45378  21.225  13.152  12.074
86118W        W45379  43.804   6.313  13.521
86119W        W45380  24.078  42.812  14.870
86120W        W45381  25.594  28.168   4.291
86121W        W45382   5.338  41.975  12.035
86122W        W45383   1.922  40.049  12.443
86123W        W45384   3.787  25.048  11.020
86124W        W45385  14.227   4.362  14.788
86125W        W45386  33.047  22.097   0.258
86126W        W45387   1.338  23.664  14.340
86127W        W45388   1.334  35.086   0.828
86128W        W45389  30.455   8.813   3.775
86129W        W45390  15.126  32.981   4.701
86130W        W45391   6.837   3.274  14.383
86131W        W45392  33.399  14.205   2.704
86132W        W45393  20.082  41.965  13.444
86133W        W45394  42.983  43.943   3.713
86134W        W45395  28.972  15.263  14.798
86135W        W45396  30.635  14.265   2.200
86136W        W45397  34.605  23.985  14.766
86137W        W45398  35.425   3.870  12.050
86138W        W45399  29.474  28.096  11.510
86139W        W45400  24.002  40.903  14.370
86140W        W45401  14.130  18.787  13.018
86141W        W45402  26.489  28.517   0.860
86142W        W45403  20.689  11.698   2.297
86143W        W45404  36.420   9.776   3.630
86144W        W45405   3.317  22.664   4.198
86145W        W45406   7.775  43.766   4.345
86146W        W45407  15.597   6.864   3.275
86147W        W45408   2.232  17.074  11.058
86148W        W45409  37.832  26.603   3.151
86149W        W45410  27.649  16.656  14.016
86150W        W45411   8.286   2.261  14.983
86151W        W45412  29.015  27.052  10.999
86152W        W45413  19.194  38.063  14.028
86153W        W45414   0.298  10.295   1.763
86154W        W45415  12.728  25.963   4.686
86155W        W45416  29.504  26.958   0.826
86156W        W45417  31.932  18.274   0.380
86157W        W45418   9.814  25.508  11.586
86158W        W45419  39.389   9.266   4.275
86159W        W45420  34.870   9.779   4.831
86160W        W45421  36.958  26.561   2.789
86161W        W45422  34.883  16.244   3.751
86162W        W45423  34.981  24.180  12.577
86163W        W45424   6.270   5.733   4.306
86164W        W45425  37.964  17.668  14.804
86165W        W45426  34.518  27.526   2.256
86166W        W45427  39.555  23.071  10.534
86167W        W45428  11.213  42.791  12.999
86168W        W45429  32.463  34.531   2.685
86169W        W45430  10.688  39.503  11.036
86170W        W45431   9.258   4.807   1.315
86171W        W45432  31.018  22.059  12.924
86172W        W45433  39.970  41.414   2.390
86173W        W45434  30.457   6.769  10.929
86174W        W45435  17.065  21.572   3.865
86175W        W45436  32.890  32.965   2.397
86176W        W45437  30.583  43.455   1.900
86177W        W45438   2.312  30.922  13.360
86178W        W45439   7.793  16.758   2.286
86179W        W45440  23.689   8.167   3.301
86180W        W45441  20.234   7.814  14.927
86181W        W45442  44.979   3.776   1.914
86182W        W45443  39.334  37.508   9.940
86183W        W45444  11.626  23.130   0.403
86184W        W45445  37.500  38.063   5.149
86185W        W45446   4.792  20.248  11.578
86186W        W45447  42.893   4.303   4.820
86187W        W45448   3.746  37.581  12.459
86188W        W45449  12.357   4.912  13.857
86189W        W45450  32.106  44.419   5.175
86190W        W45451  34.481  23.681  13.062
86191W        W45452  43.403   6.189   3.854
86192W        W45453  30.041  15.204   2.688
86193W        W45454  25.490  21.206   1.916
86194W        W45455  30.542   6.362  14.877
86195W        W45456   6.890  33.404  12.486
86196W        W45457  42.466  10.783   3.268
86197W        W45458  41.857  18.050   4.231
86198W        W45459   0.313  32.044   0.812
86199W        W45460  30.441   9.706  12.387
86200W        W45461  13.788  11.635   1.827
86201W        W45462  18.165  15.170   0.293
86202W        W45463  38.058  12.671   1.803
86203W        W45464  29.972  19.089   2.251
86204W        W45465  21.596  39.050   0.782
86205W        W45466  41.036  38.927  14.764
86206W        W45467  24.576   3.909  13.514
86207W        W45468   1.358  11.695   2.680
86208W        W45469  23.189  38.333  13.922
86209W        W45470  14.221  31.567   3.251
86210W        W45471  25.052  42.439   1.382
86211W        W45472  23.672  24.641  14.504
86212W        W45473  32.049  42.802   2.670
86213W        W45474  14.142  34.866  14.953
86214W        W45475  28.102  36.014  12.457
86215W        W45476   3.786  29.434   1.294
86216W        W45477  17.299   4.371   2.320
86217W        W45478   6.826  30.966  11.074
86218W        W45479  43.433  17.612   2.827
86219W        W45480   3.880   5.896  13.837
86220W        W45481  21.563   5.265  14.938
86221W        W45482   3.829   4.319  11.472
86222W        W45483  21.628  17.150   4.193
86223W        W45484  21.594  15.744  13.536
86224W        W45485  19.754   7.677  11.010
86225W        W45486  29.135   0.920  14.029
86226W        W45487   0.306   0.768   2.722
86227W        W45488  23.533  21.755   2.836
86228W        W45489  42.477  34.896   0.370
86229W        W45490  20.219  32.129   1.727
86230W        W45491  10.801  23.190  11.411
86231W        W45492  43.455  22.115  12.845
86232W        W45493  22.711  41.787   4.611
86233W        W45494  27.674  23.155  11.402
86234W        W45495  27.977  20.141   1.795
86235W        W45496   4.775  30.935  12.387
86236W        W45497  27.077  24.024  11.443
86237W        W45498  15.329   1.479  11.425
86238W        W45499   0.798  40.504   0.446
86239W        W45500  18.294  20.040  11.412
86240W        W45501  39.030  17.216   2.370
86241W        W45502  18.733  42.337   0.836
86242W        W45503  27.615  33.520  14.294
86243W        W45504   0.862  44.368   1.699
86244W        W45505   7.328  26.610  11.032
86245W        W45506  15.594   3.916  10.599
86246W        W45507  13.639   9.887   3.161
86247W        W45508   1.381  30.533  12.546
86248W        W45509  32.934  38.468  10.518
86249W        W45510  43.883  26.133  11.532
86250W        W45511  36.501  44.774   1.299
86251W        W45512   2.417  44.458   5.107
86252W        W45513  20.634  10.781   2.877
86253W        W45514  27.576  26.526  11.417
86254W        W45515  28.996  37.060   3.730
86255W        W45516  23.505   2.465  10.979
86256W        W45517  18.080  15.642   4.699
86257W        W45518   6.761   1.793  12.409
86258W        W45519   8.325  38.349  13.440
86259W        W45520  38.043  19.259  10.592
86260W        W45521  14.734  11.839   3.728
86261W        W45522   2.908  14.231   2.354
86262W        W45523   3.749  35.441   1.337
86263W        W45524  23.508   5.410   0.387
86264W        W45525  18.605  34.610  12.564
86265W        W45526  19.549   5.298   1.285
86266W        W45527  17.253  38.336  14.858
86267W        W45528   1.736  38.510  14.993
86268W        W45529   3.233  33.962  10.481
86269W        W45530  24.621  34.897  12.466
86270W        W45531  21.138  11.814  11.877
86271W        W45532   3.762  23.145   3.860
86272W        W45533   6.793  17.224  11.916
86273W        W45534  14.222   4.828  11.882
86274W        W45535  11.352  27.178  13.996
86275W        W45536  16.126   5.298  11.898
86276W        W45537  35.854  17.637   0.377
86277W        W45538   4.423  39.037   4.835
86278W        W45539   5.368  38.851   4.285
86279W        W45540   1.755  12.229   0.750
86280W        W45541   2.279  20.616  13.847
86281W        W45542  27.063  11.866  14.891
86282W        W45543  41.477  12.237  14.969
86283W        W45544  23.137  28.029   4.778
86284W        W45545  21.572  20.640   5.116
86285W        W45546   8.337   7.340  13.489
86286W        W45547  18.702  25.208  10.438
86287W        W45548  37.884  11.247  14.009
86288W        W45549  27.455  25.494   2.346
86289W        W45550   8.667   5.779  12.875
86290W        W45551   4.271  35.044  10.517
86291W        W45552   4.743  32.968  11.061
86292W        W45553   0.813  21.709  14.008
86293W        W45554   6.376  10.757  11.401
86294W        W45555  21.177  23.225   1.289
86295W        W45556  29.069  12.716   4.328
86296W        W45557   4.394  29.139   1.443
86297W        W45558  44.434  21.605   4.136
86298W        W45559  40.906  22.160   0.278
86299W        W45560  39.029   4.430   0.371
86300W        W45561  27.455   8.385   4.295
86301W        W45562   0.265  44.439  14.396
86302W        W45563  35.430  13.299  12.971
86303W        W45564  23.492  31.006  13.938
86304W        W45565  28.956   8.673   3.312
86305W        W45566  12.321  10.358   1.237
86306W        W45567  30.158  28.123  11.566
86307W        W45568  36.433  12.622   4.310
86308W        W45569  21.105  35.034   3.287
86309W        W45570  22.127  13.822   4.731
86310W        W45571  35.963  11.838   1.252
86311W        W45572   3.442  23.088  13.483
86312W        W45573  37.377  28.590   2.336
86313W        W45574  31.078  35.474  13.397
86314W        W45575  40.512   6.827   1.248
86315W        W45576  24.036  40.534   0.340
86316W        W45577  24.983   6.752   3.686
86317W        W45578  27.597  33.898   3.342
86318W        W45579  34.951  15.224   3.174
86319W        W45580  41.993  11.253   0.900
86320W        W45581  13.183  18.073  11.424
86321W        W45582  32.405  13.126   3.167
86322W        W45583  13.239  18.075  12.075
86323W        W45584  25.641  10.652  12.076
86324W        W45585   7.758  16.199   0.822
86325W        W45586  25.703   7.412   0.255
86326W        W45587  30.028  37.353   2.196
86327W        W45588   4.240  20.692  11.881
86328W        W45589  22.141  20.183  11.592
86329W        W45590  39.931   1.312  11.945
86330W        W45591  43.912  40.951   4.114
86331W        W45592  13.639  35.385   1.721
86332W        W45593  19.201  25.629  11.997
86333W        W45594  39.991  41.530   4.696
86334W        W45595  15.778  39.319  11.042
86335W        W45596   1.354  33.543  12.020
86336W        W45597  12.246  36.934   0.252
86337W        W45598  11.841  17.285  12.355
86338W        W45599  39.862  27.964   0.400
86339W        W45600  12.716  20.103  10.424
86340W        W45601  33.592  11.731  11.911
86341W        W45602  39.811  30.513   1.328
86342W        W45603  43.282  13.142   4.165
86343W        W45604   2.836   4.718  13.053
86344W        W45605  38.439   7.756  10.957
86345W        W45606  29.172  10.876   3.742
86346W        W45607   4.701  19.196  13.921
86347W        W45608  33.072   8.722  14.311
86348W        W45609   3.448  35.976  11.479
86349W        W45610  11.344  23.186  13.476
86350W        W45611   6.840   7.243   0.427
86351W        W45612  15.723  28.963  13.919
86352W        W45613   5.807   3.756  12.408
86353W        W45614  10.271  17.776   3.222
86354W        W45615  34.009  20.611   0.451
86355W        W45616  25.099  27.485   1.932
86356W        W45617  26.178  36.363   1.312
86357W        W45618  20.117  23.218  13.829
86358W        W45619  43.867   7.772  10.512
86359W        W45620  10.837  29.165  11.992
86360W        W45621  11.757  13.789   0.351
86361W        W45622  40.031   1.285  13.321
86362W        W45623  25.070  24.111   0.474
86363W        W45624  31.108  25.015  11.555
86364W        W45625  38.490   9.650   0.442
86365W        W45626  11.637  36.004   5.298
86366W        W45627  16.236  10.350  10.063
86367W        W45628  43.979  27.677  14.288
86368W        W45629   5.397  42.357   1.720
86369W        W45630  33.110  21.167   3.631
86370W        W45631   0.780  12.262  12.492
86371W        W45632  20.629  18.658   3.854
86372W        W45633  44.342  29.995   0.401
86373W        W45634  15.158   9.693  10.526
86374W        W45635  40.542  16.601  11.583
86375W        W45636  28.667  28.439  10.499
86376W        W45637  41.420  23.993  12.050
86377W        W45638   6.729   2.457   2.355
86378W        W45639  43.316   0.788  12.432
86379W        W45640  34.384  30.653  12.519
86380W        W45641  36.900  35.901   3.663
86381W        W45642  25.630  13.740  13.797
86382W        W45643  25.549  17.643  14.997
86383W        W45644  22.044  35.940   2.720
86384W        W45645  33.096  22.097  12.076
86385W        W45646  24.987  31.401  11.913
86386W        W45647  25.003  32.013  12.386
86387W        W45648  29.585   4.839  14.281
86388W        W45649  31.063  33.895  12.902
86389W        W45650  31.108   1.851  11.459
86390W        W45651  44.999  15.207  14.430
86391W        W45652  41.336   4.374   3.174
86392W        W45653  17.625  33.889   4.736
86393W        W45654  30.482  41.837  13.977
86394W        W45655  41.787  10.785  13.870
86395W        W45656  43.809  26.521   3.831
86396W        W45657  30.945  37.376  13.971
86397W        W45658   6.813  22.228  14.766
86398W        W45659  11.347  31.098   3.369
86399W        W45660  33.516   8.846   3.308
86400W        W45661   7.875  38.374   0.846
86401W        W45662  19.673  34.525  10.928
86402W        W45663   9.253  19.724  13.329
86403W        W45664  34.463  11.257  12.394
86404W        W45665  32.557  12.675  13.059
86405W        W45666   9.818  20.270  12.057
86406W        W45667  12.202  10.796   1.773
86407W        W45668  27.078  20.742   3.841
86408W        W45669  13.633   5.317   5.699
86409W        W45670  13.615   0.809   2.387
86410W        W45671  38.976  32.116   2.872
86411W        W45672  29.153  17.119  14.365
86412W        W45673  10.728  27.592   2.198
86413W        W45674  24.084  22.659  12.945
86414W        W45675  13.732  27.519  13.968
86415W        W45676   4.337  26.135  12.862
86416W        W45677  17.618  16.260  12.024
86417W        W45678  13.215  10.302   3.363
86418W        W45679  29.108  43.019   1.854
86419W        W45680   8.789  27.616   4.330
86420W        W45681  19.220  21.737  11.910
86421W        W45682  20.252  27.655  13.447
86422W        W45683   0.870   6.230  14.383
86423W        W45684  40.311  12.786  12.369
86424W        W45685  26.598  38.910  14.464
86425W        W45686  41.954   4.795   3.868
86426W        W45687  10.721  41.824   3.691
86427W        W45688  22.180  34.980  13.518
86428W        W45689  12.129  11.781  14.452
86429W        W45690  26.615  29.637   2.248
86430W        W45691  17.616  16.090   3.732
86431W        W45692  34.917  27.481  14.883
86432W        W45693   5.751  39.361  10.472
86433W        W45694  17.639   8.656   3.274
86434W        W45695  11.314  23.165   4.180
86435W        W45696  13.206  43.366   0.824
86436W        W45697  40.474  41.037   0.472
86437W        W45698   5.825  22.067   4.322
86438W        W45699   2.912  20.617  13.792
86439W        W45700  13.223  29.653   1.400
86440W        W45701  33.554  15.322  12.568
86441W        W45702   0.884  27.182   3.319
86442W        W45703   4.408   9.863  13.379
86443W        W45704  40.011   5.264   0.296
86444W        W45705   3.779  26.132  12.075
86445W        W45706  24.624  28.619   3.633
86446W        W45707   5.298  35.495   0.781
86447W        W45708   4.716   3.312   0.445
86448W        W45709   7.837  38.848  14.473
86449W        W45710   2.464  26.092  13.868
86450W        W45711  34.990  30.560   2.275
86451W        W45712  43.798   0.399   4.771
86452W        W45713  10.758  25.536   2.891
86453W        W45714  31.998  23.724  10.939
86454W        W45715  27.521  21.657   2.758
86455W        W45716  37.995  40.000  12.002
86456W        W45717  22.612  32.534   3.314
86457W        W45718   6.326   5.798  12.412
86458W        W45719  24.182   3.876  13.040
86459W        W45720  37.058   6.850   4.711
86460W        W45721  27.623  35.956   3.374
86461W        W45722  19.589  30.566  11.102
86462W        W45723  13.751   2.357  12.837
86463W        W45724  17.256   3.741  10.097
86464W        W45725  40.362  44.784  11.421
86465W        W45726   4.230  16.578  14.957
86466W        W45727  39.539  23.682   2.319
86467W        W45728  33.575   8.716  14.278
86468W        W45729  38.448  10.306   0.327
86469W        W45730  23.217  28.982   4.684
86470W        W45731  23.637   3.381   5.254
86471W        W45732  43.282  26.626  12.395
86472W        W45733   1.907  33.473   3.374
86473W        W45734  34.925  29.610  13.475
86474W        W45735  31.099  21.252  12.951
86475W        W45736  38.440  24.183  14.435
86476W        W45737  23.672  18.235  10.520
86477W        W45738  42.462  44.831   4.659
86478W        W45739  20.149   1.255   0.770
86479W        W45740  29.429  11.755  12.555
86480W        W45741  27.575   0.811  11.038
86481W        W45742  19.062  21.188   5.104
86482W        W45743  14.678  36.420   1.362
86483W        W45744  14.738   5.783   3.212
86484W        W45745  37.574  36.421   1.267
86485W        W45746   9.192  40.048  10.025
86486W        W45747  16.190  19.726   0.306
86487W        W45748   2.941   9.337  13.499
86488W        W45749  34.070   7.757   2.723
86489W        W45750  44.504   1.884   3.755
86490W        W45751  30.609  32.990  11.477
86491W        W45752  13.768  33.605  13.956
86492W        W45753  35.891   4.717  12.454
86493W        W45754  13.685   8.402   1.233
86494W        W45755  28.943  26.186  10.537
86495W        W45756   9.763  42.811   3.693
86496W        W45757  24.569   6.379   3.386
86497W        W45758  27.559  33.881  14.449
86498W        W45759   0.860   0.249  14.288
86499W        W45760  24.564  18.683  13.370
86500W        W45761   2.926  37.475  12.093
86501W        W45762  36.897  44.002   0.955
86502W        W45763   8.326  37.891   1.442
86503W        W45764  31.496  13.801  11.052
86504W        W45765  22.622   9.165   0.360
86505W        W45766  10.199  10.669   0.772
86506W        W45767  15.747  16.092   2.790
86507W        W45768  39.001  20.082   4.705
86508W        W45769  25.618  36.473   0.421
86509W        W45770   9.698   3.370   2.363
86510W        W45771   3.231   3.926   1.815
86511W        W45772  42.779   2.273   4.168
86512W        W45773  41.920  28.063  14.296
86513W        W45774   4.771   0.784   3.824
86514W        W45775  35.482   1.745   0.807
86515W        W45776  21.746   2.865   4.792
86516W        W45777  35.521  38.555   1.422
86517W        W45778   6.695   7.335  12.437
86518W        W45779  23.673   1.405  12.366
86519W        W45780  28.071  43.481   3.697
86520W        W45781   2.468  39.820  10.035
86521W        W45782  17.703   3.392  13.385
86522W        W45783   7.190  39.054   2.254
86523W        W45784  36.372  13.833  13.964
86524W        W45785  18.642  23.186   3.800
86525W        W45786  30.495  11.837  14.889
86526W        W45787  40.374  39.343   3.815
86527W        W45788  26.084  42.947  14.470
86528W        W45789   6.233  13.218   4.223
86529W        W45790  21.131  28.680   1.835
86530W        W45791  36.049   6.778   3.169
86531W        W45792  10.762  29.047   1.302
86532W        W45793  10.839   7.744   4.242
86533W        W45794  11.701  37.396  11.543
86534W        W45795  32.544  32.431  14.798
86535W        W45796   5.223  44.283   0.440
86536W        W45797  31.983  24.641  13.461
86537W        W45798  16.138  16.641  12.485
86538W        W45799  37.974   0.907  14.435
86539W        W45800  13.289  21.521   4.811
86540W        W45801   5.330   4.837  11.464
86541W        W45802  12.800  27.186   3.679
86542W        W45803  30.058   9.801   4.614
86543W        W45804   2.819  29.988  10.550
86544W        W45805  18.757  29.150   1.767
86545W        W45806   1.439   6.393  11.611
86546W        W45807  17.193  32.485   3.845
86547W        W45808  27.116   1.386   0.462
86548W        W45809  10.312  25.704   2.697
86549W        W45810  38.502   7.341  13.988
86550W        W45811   0.366  21.111  11.047
86551W        W45812  29.040  13.199   3.352
86552W        W45813   2.428   8.851   4.267
86553W        W45814  31.129  20.635  12.891
86554W        W45815  22.053  42.821   1.279
86555W        W45816  42.013  33.040   4.600
86556W        W45817   2.338  31.912  14.910
86557W        W45818  42.346  28.529   4.647
86558W        W45819  11.215  22.673  10.964
86559W        W45820   9.349  23.181   2.791
86560W        W45821  32.904  43.925  13.409
86561W        W45822  15.212   2.862  12.983
86562W        W45823  39.513  35.968   3.195
86563W        W45824  12.796  26.206   2.234
86564W        W45825  38.970  36.971  10.004
86565W        W45826  38.347  34.548  11.919
86566W        W45827   2.365  15.225   3.159
86567W        W45828   3.749  17.748   4.321
86568W        W45829  40.517  36.444  12.894
86569W        W45830  43.879  34.521  13.469
86570W        W45831  20.666   1.828  10.912
86571W        W45832  40.019  37.385   0.428
86572W        W45833  30.590  42.370   1.806
86573W        W45834  41.033  37.895  11.094
86574W        W45835   8.876  30.421  13.822
86575W        W45836   9.154  40.995   0.924
86576W        W45837   8.233  24.579   2.694
86577W        W45838  37.532  11.786   2.703
86578W        W45839  29.629  22.249   0.284
86579W        W45840   3.713  15.180  12.400
86580W        W45841  33.080  40.928   2.755
86581W        W45842  29.509  40.506  10.979
86582W        W45843   1.427   9.741   2.219
86583W        W45844   9.778   3.278   3.192
86584W        W45845  38.436   1.950  13.443
86585W        W45846   6.205  27.148   3.797
86586W        W45847  15.708  21.646   2.352
86587W        W45848  37.502  36.895  13.453
86588W        W45849  34.898  29.945   2.845
86589W        W45850   4.710  24.608   2.404
86590W        W45851  42.849  19.674  14.885
86591W        W45852   8.352  18.195   1.365
86592W        W45853  29.060  43.870   2.835
86593W        W45854  42.282   8.728   2.206
86594W        W45855  27.614  33.886   3.768
86595W        W45856  24.072  11.327   4.181
86596W        W45857  44.807  24.092  12.415
86597W        W45858  39.532  15.197  14.326
86598W        W45859  36.050  13.255  10.643
86599W        W45860  31.540  38.884  11.041
86600W        W45861  14.806  34.936   1.844
86601W        W45862   4.350  25.688  14.880
86602W        W45863   7.844   6.689  14.360
86603W        W45864  22.053  35.538   0.814
86604W        W45865   8.791  39.409  13.354
86605W        W45866  32.922   7.836  10.561
86606W        W45867  24.687  37.486   0.734
86607W        W45868  36.444   0.478  14.483
86608W        W45869  12.263  38.903   1.848
86609W        W45870  24.143  35.061   2.721
86610W        W45871  21.057  15.741  10.929
86611W        W45872  35.067  33.044  11.955
86612W        W45873  36.891  15.251   2.680
86613W        W45874  39.903  18.143   0.917
86614W        W45875   7.271  20.689  14.506
86615W        W45876  16.084  25.157   0.807
86616W        W45877  37.564   0.797   0.282
86617W        W45878  10.264  35.862   3.831
86618W        W45879  44.886  28.475  11.001
86619W        W45880   7.705  37.507   1.299
86620W        W45881  17.559  36.559  14.812
86621W        W45882  35.579   8.357   2.210
86622W        W45883  21.624  42.816  10.034
86623W        W45884   9.180  14.199   1.239
86624W        W45885  41.007   4.256   3.267
86625W        W45886  33.037  41.891  14.817
86626W        W45887  30.611  15.635   1.730
86627W        W45888   2.830  18.721  11.385
86628W        W45889  30.585  18.173  14.339
86629W        W45890  15.714   2.323  12.390
86630W        W45891  44.337  19.264  11.862
86631W        W45892  37.979  20.140   1.390
86632W        W45893  15.664   9.797  14.344
86633W        W45894  22.252  22.187   1.879
86634W        W45895  27.670  26.544   0.463
86635W        W45896  39.887  15.230   4.266
86636W        W45897  12.118  16.131   1.326
86637W        W45898  10.382  40.544   1.412
86638W        W45899  34.967  35.488   3.845
86639W        W45900  15.134   3.268   1.302
86640W        W45901  19.271   3.404  14.006
86641W        W45902   5.691   6.826  14.428
86642W        W45903  19.728  39.926  10.515
86643W        W45904   1.273  11.853   1.732
86644W        W45905  41.352   6.411   0.377
86645W        W45906   5.203  26.560   3.699
86646W        W45907   5.888  16.229  14.384
86647W        W45908   3.252  41.516  13.934
86648W        W45909  37.573   2.456   3.753
86649W        W45910   1.291  19.202  11.041
86650W        W45911  34.891  38.408   2.181
86651W        W45912  13.772  43.888   2.387
86652W        W45913   2.900  23.586   4.194
86653W        W45914  33.026  10.269  13.934
86654W        W45915  34.073   7.748   0.867
86655W        W45916  15.812   0.754  14.979
86656W        W45917  27.603  16.784  11.000
86657W        W45918  27.555  39.051   1.356
86658W        W45919  36.409  44.906   4.642
86659W        W45920   8.747   9.728   1.769
86660W        W45921  33.928  28.967  10.551
86661W        W45922  35.523  24.179  14.468
86662W        W45923   5.899  26.630   1.819
86663W        W45924   5.368   1.427  13.988
86664W        W45925   0.866  36.977   1.295
86665W        W45926   4.780  19.691  10.068
86666W        W45927  12.212   6.686   3.712
86667W        W45928  13.807   3.760   2.389
86668W        W45929  35.079  18.219  10.536
86669W        W45930  20.153   9.883   2.287
86670W        W45931   7.788  10.837   2.893
86671W        W45932  12.127  40.039  14.828
86672W        W45933  38.399  11.842   4.136
86673W        W45934  43.310  26.529   9.984
86674W        W45935  42.872  26.703  14.903
86675W        W45936  14.334  14.663  10.539
86676W        W45937   3.902   5.827  10.149
86677W        W45938  23.592  20.133  10.525
86678W        W45939  24.993  16.094  11.957
86679W        W45940   6.274  38.451   3.697
86680W        W45941  19.600  28.127   4.752
86681W        W45942   8.893  42.918  14.995
86682W        W45943  34.883  44.881   4.765
86683W        W45944  13.196   6.418   2.670
86684W        W45945   4.412   9.332   5.164
86685W        W45946   6.753  31.979   3.782
86686W        W45947   4.825  19.744  11.505
86687W        W45948  27.041   7.867   0.270
86688W        W45949  16.721  16.301  11.998
86689W        W45950  28.086  12.134  11.461
86690W        W45951  33.399  31.988  14.830
86691W        W45952   9.230  42.787  10.979
86692W        W45953  19.642  22.611   2.349
86693W        W45954  18.085  36.517   3.233
86694W        W45955  14.655  13.351  13.533
86695W        W45956  24.042  43.498   2.413
86696W        W45957  24.202  34.975  12.072
86697W        W45958  28.043   6.834  10.532
86698W        W45959  27.050   5.373  13.027
86699W        W45960  25.558  43.450   1.816
86700W        W45961  23.499   8.803  14.288
86701W        W45962  19.259   3.816   2.293
86702W        W45963  32.463  32.588  12.566
86703W        W45964  16.653  41.442   0.413
86704W        W45965  32.013  31.129   3.755
86705W        W45966  42.897  28.568   0.815
86706W        W45967  13.638  31.922   1.424
86707W        W45968  36.446  26.183   4.663
86708W        W45969  13.343   4.814  12.857
86709W        W45970  32.935  36.920  12.366
86710W        W45971  27.096  32.087   5.310
86711W        W45972  19.064  22.136  13.842
86712W        W45973  19.617  33.624   0.388
86713W        W45974  33.942   8.676  13.544
86714W        W45975  27.590  27.456   0.351
86715W        W45976  17.669  22.696   0.306
86716W        W45977  26.684  44.794   3.849
86717W        W45978  35.432  13.210  11.521
86718W        W45979  42.496  42.917   0.735
86719W        W45980  35.957  39.960  13.957
86720W        W45981   1.476  17.192  14.426
86721W        W45982   5.262  13.763   2.400
86722W        W45983   5.203  23.157  10.576
86723W        W45984  19.692  23.609  10.134
86724W        W45985  37.895   7.886  11.941
86725W        W45986   0.303   4.898  11.526
86726W        W45987  38.981  19.709   4.233
86727W        W45988  37.958  35.544  13.397
86728W        W45989  33.592  35.392   1.723
86729W        W45990  25.011  25.019   2.383
86730W        W45991  37.509  43.429  13.337
86731W        W45992   7.244  36.972   3.346
86732W        W45993   1.963  26.553   0.735
86733W        W45994   2.256  35.544  13.410
86734W        W45995  41.005  26.067   4.741
86735W        W45996  32.557   5.905  12.047
86736W        W45997  14.627  34.083  14.382
86737W        W45998   9.797  14.274   1.259
86738W        W45999  30.939   1.417   3.224
86739W        W46000  24.183   8.688   3.827
86740W        W46001  30.624  15.788   0.744
86741W        W46002  14.769  17.174   0.243
86742W        W46003  24.647  25.091   1.334
86743W        W46004   6.892  38.912  14.352
86744W        W46005  40.992   3.782  13.897
86745W        W46006  13.771  10.313   0.429
86746W        W46007  31.422  42.869   3.377
86747W        W46008   0.932   8.226   0.727
86748W        W46009  10.369  18.698   5.321
86749W        W46010  14.597  32.061  11.903
86750W        W46011  40.887  14.746   0.368
86751W        W46012  18.158  11.147  12.414
86752W        W46013  24.095  19.772  13.476
86753W        W46014   0.885  42.806   9.936
86754W        W46015   0.903  43.509  13.837
86755W        W46016  31.401   7.745   1.235
86756W        W46017  13.339  22.063  12.970
86757W        W46018  44.881  22.540   3.167
86758W        W46019  43.432  10.760   4.706
86759W        W46020  40.411  31.620   0.841
86760W        W46021  39.907  25.538  11.565
86761W        W46022  29.049  42.897   4.293
86762W        W46023  35.054  39.835   0.328
86763W        W46024  17.119  34.453   0.860
86764W        W46025  34.035   9.381  11.002
86765W        W46026  17.619   2.898   3.228
86766W        W46027  44.899  16.583  12.017
86767W        W46028   3.410  38.927   3.776
86768W        W46029  33.946  17.105   1.850
86769W        W46030  20.529  14.159   0.892
86770W        W46031   0.411  13.281   0.828
86771W        W46032  25.651  16.080   3.276
86772W        W46033  12.617  14.680  14.479
86773W        W46034  34.065  18.567   0.726
86774W        W46035  34.457  30.963   0.252
86775W        W46036  23.644  33.964  14.803
86776W        W46037  21.263   9.730   0.472
86777W        W46038  40.941  42.010  14.981
86778W        W46039  26.963  15.820  12.454
86779W        W46040  39.831  25.552   3.818
86780W        W46041  17.082  24.100  14.974
86781W        W46042  36.055  12.642  11.483
86782W        W46043  36.918  40.852   4.675
86783W        W46044  22.687  39.014   0.868
86784W        W46045  20.763  15.243   1.830
86785W        W46046  40.384  44.327   1.402
86786W        W46047  15.748  11.263  12.347
86787W        W46048  39.889  28.104   4.183
86788W        W46049  40.460  25.542  11.049
86789W        W46050  37.486  20.203  14.359
86790W        W46051  17.235  38.376  13.881
86791W        W46052  44.971  43.287   3.348
86792W        W46053  41.040  10.752  11.610
86793W        W46054  24.578  25.557   2.226
86794W        W46055  21.736  36.443  13.937
86795W        W46056  33.458  33.500  12.358
86796W        W46057  20.157  41.887  11.988
86797W        W46058   6.739   0.914   1.752
86798W        W46059  38.877  26.207   3.295
86799W        W46060   0.930  37.907  13.410
86800W        W46061  33.886  19.136   1.900
86801W        W46062  29.464  36.556   3.232
86802W        W46063   1.767  11.808   0.776
86803W        W46064  41.382  27.639   3.326
86804W        W46065  14.129  20.599  13.004
86805W        W46066  15.719  22.508  12.397
86806W        W46067  27.194   1.455   1.258
86807W        W46068  29.454  27.147   1.221
86808W        W46069  41.895  24.683  12.989
86809W        W46070  21.573   6.739   0.437
86810W        W46071  25.471  32.510   1.367
86811W        W46072  17.247  17.139   3.331
86812W        W46073  13.200  42.949  10.939
86813W        W46074  37.948  35.092  14.510
86814W        W46075  37.040   9.306   2.880
86815W        W46076  26.064  36.960   2.808
86816W        W46077  22.526  25.061   0.462
86817W        W46078  19.040  36.931   3.279
86818W        W46079   2.824  30.161  13.384
86819W        W46080  38.823   7.241  10.512
86820W        W46081   2.930  17.793  14.950
86821W        W46082  29.445   5.756   1.807
86822W        W46083  14.677  22.211  12.410
86823W        W46084  12.674  29.926  10.119
86824W        W46085  27.112   4.350  14.938
86825W        W46086  23.633  42.294  10.434
86826W        W46087  33.043   8.294   1.353
86827W        W46088  35.020  26.589   1.356
86828W        W46089  33.966   1.272   1.363
86829W        W46090  30.502  41.867   3.753
86830W        W46091  30.454  41.888   1.265
86831W        W46092  30.925  33.407   2.856
86832W        W46093  18.563   5.785  12.524
86833W        W46094  39.987  39.933  11.927
86834W        W46095   4.800  15.104  12.886
86835W        W46096  14.783   3.248  11.408
86836W        W46097  10.354  33.132  11.080
86837W        W46098  31.909  35.888  10.061
86838W        W46099  34.933  20.249  13.919
86839W        W46100  12.252   2.733   0.965
86840W        W46101  40.363  35.860  10.930
86841W        W46102  29.508  22.183   4.739
86842W        W46103  40.545  13.771   1.765
86843W        W46104  10.637  38.443   1.389
86844W        W46105  32.920  26.530  10.595
86845W        W46106  19.111  19.564   1.222
86846W        W46107  36.016  17.189   0.265
86847W        W46108  23.547   3.899   3.350
86848W        W46109   1.784  18.199  13.900
86849W        W46110   7.901  42.026  14.902
86850W        W46111   9.691   3.876   3.788
86851W        W46112  40.336  34.526  14.353
86852W        W46113  30.018  26.079  12.889
86853W        W46114  31.497  39.833  12.981
86854W        W46115  31.562  22.067   2.332
86855W        W46116  28.076  14.673  12.547
86856W        W46117  22.570  28.991  13.372
86857W        W46118  32.032  32.550  13.363
86858W        W46119  13.784  36.455   0.806
86859W        W46120  35.372  34.042   1.275
86860W        W46121   2.863  35.461   1.858
86861W        W46122  14.766   2.948   4.132
86862W        W46123  33.612  25.603   2.337
86863W        W46124   8.394  11.257   2.671
86864W        W46125  16.714  20.637   1.845
86865W        W46126  15.722  20.539   4.798
86866W        W46127  12.340  37.431   5.117
86867W        W46128  29.632  20.588   3.314
86868W        W46129  36.475  29.613   0.347
86869W        W46130  11.219  17.727  14.422
86870W        W46131  17.253  17.618  13.403
86871W        W46132  27.512  19.610   0.297
86872W        W46133  44.412  27.174   0.460
86873W        W46134   9.760  12.808  12.068
86874W        W46135  36.519  13.302   5.273
86875W        W46136  19.050   8.219   1.281
86876W        W46137  16.695  29.130   3.366
86877W        W46138  25.211   2.342  11.448
86878W        W46139   5.723  39.487   1.293
86879W        W46140  28.949   0.249  11.045
86880W        W46141  18.292  26.540  11.116
86881W        W46142  37.985  32.421   0.911
86882W        W46143  33.132  42.348   0.423
86883W        W46144  38.528  30.006  11.447
86884W        W46145   9.885  39.845   4.675
86885W        W46146  22.115  28.938   3.786
86886W        W46147  20.037   4.291   2.287
86887W        W46148  21.633  17.624   2.809
86888W        W46149  31.952  37.494   2.409
86889W        W46150   7.770   2.412   0.283
86890W        W46151  27.039   7.264   4.140
86891W        W46152  31.969  12.780  14.808
86892W        W46153  15.778  18.050  14.376
86893W        W46154  33.496   3.256  14.291
86894W        W46155  29.129  22.745  10.504
86895W        W46156  23.689  43.452  13.016
86896W        W46157  12.135  16.674   1.755
86897W        W46158  13.666  11.695   0.759
86898W        W46159  30.122  34.934  13.334
86899W        W46160  35.459  12.745   2.311
86900W        W46161  43.508  17.107  14.433
86901W        W46162   6.218  43.444  13.398
86902W        W46163  16.758   0.939   1.375
86903W        W46164   5.287  15.820  10.479
86904W        W46165   7.836   9.872  12.577
86905W        W46166  40.426  31.936  12.917
86906W        W46167  26.685  14.122   3.386
86907W        W46168  18.544  24.502   4.122
86908W        W46169  26.137  35.069  13.923
86909W        W46170   3.380  29.642  13.886
86910W        W46171  37.919  17.127  11.398
86911W        W46172  18.052  18.175  12.533
86912W        W46173   8.374  25.176   1.868
86913W        W46174  14.103  19.173   1.224
86914W        W46175  42.511  29.520  12.002
86915W        W46176  33.067  41.003  13.406
86916W        W46177  27.651   6.920  13.797
86917W        W46178  40.886   9.318   4.224
86918W        W46179  16.589  26.991   3.181
86919W        W46180  18.147  13.300  12.009
86920W        W46181   8.181  37.895   2.896
86921W        W46182   1.931  19.130  13.053
86922W        W46183  28.957   2.821  14.308
86923W        W46184  16.734   4.906   1.699
86924W        W46185   1.902  35.519   3.266
86925W        W46186  18.565  35.924  14.899
86926W        W46187  38.439  43.985   4.767
86927W        W46188  29.121  12.238  13.804
86928W        W46189  21.182  44.927  10.627
86929W        W46190  40.970  39.990  13.356
86930W        W46191  41.428   8.374   1.854
86931W        W46192  36.962  33.990  13.486
86932W        W46193  35.365  39.997  11.577
86933W        W46194  27.062  28.583  12.971
86934W        W46195  16.272  41.880   4.749
86935W        W46196  22.064  24.192   4.634
86936W        W46197  38.881   5.863  11.390
86937W        W46198  18.126  10.346  13.391
86938W        W46199  14.748  41.331   4.688
86939W        W46200  22.730  23.502  12.399
86940W        W46201  44.350   3.932  11.471
86941W        W46202  39.389  11.211   3.774
86942W        W46203   1.742  30.585  11.465
86943W        W46204  11.663  11.819  13.397
86944W        W46205  27.080  21.184  14.441
86945W        W46206  34.059  14.719   4.268
86946W        W46207  25.092  22.723   4.215
86947W        W46208  29.435  21.167   2.276
86948W        W46209  16.104  41.355   2.405
86949W        W46210  10.633  36.404   3.212
86950W        W46211  15.103  25.567   4.763
86951W        W46212  40.910  31.419  11.955
86952W        W46213  41.505  12.269  12.546
86953W        W46214  32.135  32.498   4.219
86954W        W46215  39.024  11.865   0.463
86955W        W46216  11.288   7.789  14.871
86956W        W46217  44.939  41.434   1.430
86957W        W46218  11.736  37.515   0.406
86958W        W46219  13.113  20.712   3.860
86959W        W46220  42.910  37.972   0.416
86960W        W46221  37.878  20.573   2.378
86961W        W46222   5.334  11.690   3.224
86962W        W46223  31.928  11.755   1.360
86963W        W46224  39.044  42.864   4.136
86964W        W46225  31.036  10.307  12.492
86965W        W46226  22.049   5.246   4.821
86966W        W46227  25.472  25.032  14.362
86967W        W46228  20.137  13.688   1.894
86968W        W46229  25.638  33.381  14.906
86969W        W46230  30.098  11.632  14.782
86970W        W46231  18.215  37.452   1.397
86971W        W46232  22.011  39.365   1.831
86972W        W46233  42.009   2.727   1.353
86973W        W46234  36.009  29.010   2.351
86974W        W46235  24.047   6.411   9.972
86975W        W46236  28.637  40.433   2.406
86976W        W46237   6.218  12.741   0.396
86977W        W46238   0.424  29.550   1.359
86978W        W46239  19.585   0.830   0.899
86979W        W46240  19.197  28.134  10.983
86980W        W46241  12.632   1.280  10.929
86981W        W46242   3.449  15.675   0.867
86982W        W46243  20.068  44.810  12.858
86983W        W46244  32.033  44.984  13.384
86984W        W46245   4.884   8.830  12.070
86985W        W46246  20.189  17.670  14.423
86986W        W46247   5.346  40.314   3.695
86987W        W46248   6.870  31.981   2.816
86988W        W46249  41.418   0.752  12.458
86989W        W46250   0.755  20.547   4.816
86990W        W46251  36.391  13.605   0.860
86991W        W46252  25.126  18.671  11.012
86992W        W46253  33.981  30.456  14.311
86993W        W46254  19.617  23.663   1.816
86994W        W46255  37.497   4.379   1.431
86995W        W46256  13.323  40.319  13.308
86996W        W46257   3.396   8.793  12.057
86997W        W46258  14.762  42.874   3.815
86998W        W46259  35.360  35.548  13.927
86999W        W46260   7.668  42.800  12.377
87000W        W46261  15.138   8.193  11.373
87001W        W46262   9.374   4.756   3.841
87002W        W46263  31.965  21.614   1.790
87003W        W46264  28.522  27.619   1.786
87004W        W46265  26.692  10.322  10.494
87005W        W46266  40.961  29.442  13.984
87006W        W46267   0.282  30.984   1.928
87007W        W46268  11.695   0.915   0.923
87008W        W46269  23.572  15.797   1.725
87009W        W46270  15.803  28.449   1.266
87010W        W46271  36.865  11.313   1.360
87011W        W46272  11.793  38.446   2.709
87012W        W46273  20.252  22.194   3.667
87013W        W46274   9.222  14.207   3.319
87014W        W46275  38.494  13.665   4.123
87015W        W46276  11.200  21.686  11.456
87016W        W46277  23.627  26.044  11.895
87017W        W46278  24.082  41.479  10.156
87018W        W46279  11.852  26.973   0.296
87019W        W46280  17.698  31.907  11.556
87020W        W46281  44.469  19.621   0.809
87021W        W46282  23.164  29.532   1.704
87022W        W46283  12.341   4.904   4.781
87023W        W46284  36.892  29.097   1.817
87024W        W46285  10.377  24.142   2.410
87025W        W46286   3.354  41.870   0.732
87026W        W46287  29.175  42.348  13.003
87027W        W46288  13.783  36.031   3.656
87028W        W46289  15.317   5.310   2.704
87029W        W46290  16.164  19.594   3.173
87030W        W46291  37.500  35.395   2.899
87031W        W46292  31.926  23.004  14.978
87032W        W46293   2.803  41.960   3.153
87033W        W46294  23.202  18.546   1.224
87034W        W46295  33.548  35.373  11.922
87035W        W46296   0.250   9.795   4.836
87036W        W46297  40.476  20.257  12.428
87037W        W46298  11.169  33.918   4.785
87038W        W46299  43.880  24.713   0.830
87039W        W46300  14.668  34.433   3.858
87040W        W46301  10.314  15.707   2.212
87041W        W46302  16.596   9.344  11.870
87042W        W46303  35.399   8.848  13.012
87043W        W46304  23.596  26.181   3.659
87044W        W46305  14.297   2.251   4.163
87045W        W46306  16.593  23.122  13.905
87046W        W46307  28.047  38.013   0.859
87047W        W46308  39.975   0.979  14.417
87048W        W46309   7.815   1.890   1.325
87049W        W46310  26.644   0.924   3.194
87050W        W46311  36.529   5.915  12.916
87051W        W46312   3.461   6.428   1.775
87052W        W46313  11.314  18.599   2.346
87053W        W46314  19.157   9.294  11.421
87054W        W46315   0.793  34.035   3.171
87055W        W46316  25.063  17.705  13.426
87056W        W46317  27.580  32.572  13.880
87057W        W46318  37.412  11.330  10.996
87058W        W46319  31.128  17.081   2.290
87059W        W46320  12.747  10.811   4.258
87060W        W46321   2.759  33.453  12.374
87061W        W46322  21.515  39.560   2.707
87062W        W46323  30.419   6.210  11.075
87063W        W46324  20.240  26.106   1.782
87064W        W46325  33.597  41.824  12.438
87065W        W46326  30.615  33.935  11.998
87066W        W46327  42.931  20.159   1.219
87067W        W46328  36.991  25.569   4.686
87068W        W46329  35.510  39.058  10.552
87069W        W46330   7.401  38.351   0.407
87070W        W46331  13.130  32.509  11.864
87071W        W46332  21.545  17.569   2.347
87072W        W46333  23.591   5.330   1.889
87073W        W46334   0.429  18.260   2.740
87074W        W46335   8.165  10.143  12.474
87075W        W46336  10.638  37.940   4.762
87076W        W46337  36.855   6.805  11.997
87077W        W46338  26.627  18.196  10.437
87078W        W46339  32.466  35.427  12.471
87079W        W46340   1.817  31.900   1.837
87080W        W46341  18.239  12.768   3.758
87081W        W46342  25.096  18.198  12.547
87082W        W46343  24.712   2.439   0.773
87083W        W46344  41.352  19.723  11.991
87084W        W46345  16.580   2.352  11.490
87085W        W46346  26.588  16.728  12.009
87086W        W46347  19.206  42.447   3.742
87087W        W46348  27.084  31.424  12.508
87088W        W46349  36.426  35.856  13.460
87089W        W46350  30.541   8.262  11.551
87090W        W46351   1.447  35.897   0.329
87091W        W46352  13.217  13.174  12.845
87092W        W46353   0.484  37.967  11.037
87093W        W46354   4.277   4.751   0.951
87094W        W46355  42.397   6.741   4.283
87095W        W46356   4.385  23.670   0.937
87096W        W46357  16.255  27.968  13.843
87097W        W46358  42.007  31.044  12.881
87098W        W46359  41.825  10.363   4.654
87099W        W46360  21.217  40.952   4.660
87100W        W46361  40.327  12.614  13.395
87101W        W46362   8.280  40.944  11.894
87102W        W46363   1.739  16.745  11.048
87103W        W46364  30.934   4.418   3.349
87104W        W46365  44.843   9.643   2.347
87105W        W46366  21.583  32.566  14.370
87106W        W46367  37.377  20.117  10.526
87107W        W46368  27.087  13.204  12.058
87108W        W46369   6.248   0.410   2.216
87109W        W46370  10.683  37.463  12.503
87110W        W46371  29.012   6.411  11.592
87111W        W46372  18.245  14.164  13.794
87112W        W46373  35.988   8.405  11.002
87113W        W46374  28.498  27.454  14.922
87114W        W46375  12.303   6.416   0.788
87115W        W46376  16.236  14.773  11.533
87116W        W46377  29.951  37.428   0.763
87117W        W46378   5.340  24.090  14.363
87118W        W46379  22.056  34.439   0.790
87119W        W46380   2.231  26.483  11.476
87120W        W46381  35.982   6.403  13.439
87121W        W46382  42.907  44.480  14.482
87122W        W46383   1.919  44.969   3.381
87123W        W46384  32.044  26.159   0.918
87124W        W46385  36.431  10.633  12.390
87125W        W46386  38.484  11.823   0.863
87126W        W46387  31.502  38.946   2.324
87127W        W46388  39.910  38.452  10.561
87128W        W46389  39.395  14.131   2.681
87129W        W46390  33.393   7.314  13.015
87130W        W46391  14.245  15.634   3.352
87131W        W46392  13.160  36.026   2.284
87132W        W46393  31.946  15.721   0.255
87133W        W46394  27.448  38.827   2.205
87134W        W46395  40.454  37.489  14.792
87135W        W46396   7.187  37.079   3.657
87136W        W46397  13.302  17.141  13.438
87137W        W46398  23.025   0.783   3.211
87138W        W46399  20.723  40.861   3.675
87139W        W46400  29.609  12.748   4.230
87140W        W46401  34.979  39.413   3.669
87141W        W46402  26.044  40.036  10.639
87142W        W46403  41.857  29.975   2.782
87143W        W46404  22.528  44.362  11.578
87144W        W46405   7.176  38.906  11.575
87145W        W46406   5.695  35.440   2.206
87146W        W46407  30.103   9.786   4.162
87147W        W46408  13.170  23.071   1.247
87148W        W46409  27.014   3.219  10.539
87149W        W46410   4.336  20.673  12.507
87150W        W46411  14.693  22.662   1.794
87151W        W46412  44.262   0.278   4.115
87152W        W46413  21.151  10.768   4.272
87153W        W46414  34.585  24.659   2.697
87154W        W46415  10.873   9.163  13.355
87155W        W46416  34.420  30.522  11.908
87156W        W46417  16.277  36.477  11.397
87157W        W46418   2.855  40.883  13.443
87158W        W46419   3.293   3.796   3.382
87159W        W46420  33.077  13.694   0.864
87160W        W46421  36.879   2.381  13.882
87161W        W46422  10.771   8.755  14.486
87162W        W46423  16.115  43.306  14.332
87163W        W46424   9.744  40.496  10.942
87164W        W46425  39.922  28.597  14.884
87165W        W46426   2.448   8.793   3.322
87166W        W46427  31.558   2.283  11.455
87167W        W46428  33.043  19.135   1.806
87168W        W46429  28.053  29.529   4.153
87169W        W46430  21.130  30.439  12.372
87170W        W46431  20.137  35.905   9.992
87171W        W46432  36.546  15.627   2.884
87172W        W46433  18.058   8.262   2.843
87173W        W46434  16.167  41.493  11.916
87174W        W46435  41.976  17.717   3.747
87175W        W46436  26.617  22.595  14.432
87176W        W46437  19.582  24.585   5.592
87177W        W46438  18.627  43.926   1.876
87178W        W46439   4.818  21.084   4.243
87179W        W46440  34.387   8.855   3.251
87180W        W46441  13.797  11.255   1.267
87181W        W46442  36.356  29.625   2.401
87182W        W46443  20.232   4.791   0.320
87183W        W46444  19.216   9.770   2.229
87184W        W46445  21.262  20.103   0.279
87185W        W46446   3.893  31.913   9.952
87186W        W46447   7.766  19.741   3.756
87187W        W46448  35.919   4.341  12.463
87188W        W46449  26.653  13.128  11.112
87189W        W46450   5.433  32.948  11.589
87190W        W46451   7.845  39.517  12.480
87191W        W46452  40.013  17.681   2.719
87192W        W46453  23.600  30.414  10.410
87193W        W46454   8.759   6.297   0.795
87194W        W46455  24.611   4.784   0.341
87195W        W46456  12.321  15.756   4.280
87196W        W46457   3.757  29.476   3.357
87197W        W46458   5.758  25.966  11.118
87198W        W46459   5.850  20.125  10.934
87199W        W46460   4.761  26.015   3.283
87200W        W46461  25.626  14.160  14.297
87201W        W46462  37.414  19.274   2.199
87202W        W46463  36.522  22.520   0.477
87203W        W46464   8.859   9.783   5.188
87204W        W46465   2.906  38.044  14.280
87205W        W46466   6.698  40.503   2.751
87206W        W46467  27.622  44.946   1.412
87207W        W46468  24.124  34.930  10.470
87208W        W46469  17.076  24.640   1.423
87209W        W46470  33.608   5.884  11.900
87210W        W46471  26.677  17.242  13.041
87211W        W46472  22.578   4.248  11.436
87212W        W46473  38.383  15.197   4.249
87213W        W46474  33.391  23.111  14.875
87214W        W46475  24.215   8.303   0.313
87215W        W46476   8.378   7.246   4.259
87216W        W46477  40.043  39.551  14.869
87217W        W46478  15.791  20.545  13.442
87218W        W46479  19.199  40.484  10.979
87219W        W46480  18.155  28.008   1.813
87220W        W46481   4.245   8.318  13.384
87221W        W46482  10.153  25.497  14.957
87222W        W46483  30.005  22.686   1.344
87223W        W46484  30.455   4.297   1.274
87224W        W46485  36.935  38.481   0.439
87225W        W46486   2.928  14.124   2.820
87226W        W46487   7.402  19.106   3.383
87227W        W46488   5.731  16.179  12.836
87228W        W46489  25.174  26.485  12.078
87229W        W46490  13.311  31.152  11.473
87230W        W46491  25.063  14.589   4.793
87231W        W46492  35.888  12.615   9.613
87232W        W46493  26.677  25.162   4.729
87233W        W46494  11.802   7.196   0.422
87234W        W46495  40.384  39.037   0.397
87235W        W46496  25.640  17.763   4.689
87236W        W46497  35.979   9.312  10.500
87237W        W46498  22.668   4.379  13.044
87238W        W46499  28.591  11.134   4.706
87239W        W46500  17.642  29.991   3.195
87240W        W46501  12.681  22.208  13.474
87241W        W46502  37.431   9.875  13.889
87242W        W46503   2.372  18.588  10.636
87243W        W46504  33.567  20.078   4.347
87244W        W46505  37.379   5.720  10.452
87245W        W46506  22.621  33.914  12.885
87246W        W46507  21.628  37.878  13.315
87247W        W46508  28.035  21.164   2.787
87248W        W46509   3.710  41.387  11.401
87249W        W46510  34.522  23.688  12.365
87250W        W46511  33.892  11.713   1.321
87251W        W46512  38.939   1.793  12.533
87252W        W46513  13.646   8.890  14.292
87253W        W46514  27.604  27.999   4.688
87254W        W46515  22.235  26.987   4.193
87255W        W46516   4.760  44.418  14.351
87256W        W46517   7.209   0.929   1.264
87257W        W46518   5.774  42.280   1.838
87258W        W46519  19.121  34.505   0.840
87259W        W46520  42.406   2.368   4.298
87260W        W46521  35.933  31.950   1.352
87261W        W46522   8.696  27.644  12.481
87262W        W46523  41.887  38.855   3.282
87263W        W46524  16.679  37.893   0.940
87264W        W46525  18.261   8.655  13.909
87265W        W46526   9.654  37.903  13.481
87266W        W46527  20.155  44.866  11.100
87267W        W46528  37.989  16.593   1.927
87268W        W46529  11.863  18.183  13.474
87269W        W46530   1.736   0.362  14.763
87270W        W46531  30.119  15.654  10.592
87271W        W46532  31.629   6.801   3.655
87272W        W46533  41.404  26.457  14.329
87273W        W46534  33.986   1.894  13.862
87274W        W46535   6.355  15.085  13.488
87275W        W46536   1.414  19.054   4.655
87276W        W46537  25.067  32.112   4.122
87277W        W46538  30.068  21.678  12.411
87278W        W46539  32.054   8.773  13.021
87279W        W46540  25.559   6.345  14.860
87280W        W46541  31.013   0.406  10.998
87281W        W46542  23.565  40.418  14.488
87282W        W46543   0.787  31.973   4.797
87283W        W46544   7.348  24.577   4.117
87284W        W46545  35.488  39.534   3.220
87285W        W46546  38.026  37.061   2.837
87286W        W46547  33.446   5.706  14.514
87287W        W46548  27.163  43.880   2.266
87288W        W46549  42.793  27.075  14.993
87289W        W46550  20.640  10.172   1.283
87290W        W46551  39.441  31.534  12.972
87291W        W46552  13.188   9.700  13.423
87292W        W46553   5.891  25.122   2.374
87293W        W46554  36.885  25.495  13.865
87294W        W46555  26.090  34.463   1.273
87295W        W46556  13.213  28.091  13.966
87296W        W46557  27.992   1.827   2.786
87297W        W46558  39.830  37.831   5.772
87298W        W46559  36.094  27.632   1.298
87299W        W46560  15.668  11.769   0.838
87300W        W46561  17.195   8.199   2.266
87301W        W46562  39.517   5.764  11.488
87302W        W46563  37.548  12.338  11.887
87303W        W46564  24.018  36.920   4.223
87304W        W46565   9.207   5.213   0.735
87305W        W46566  24.527  16.716   2.395
87306W        W46567   4.316  11.762   0.794
87307W        W46568  21.164  41.870   1.385
87308W        W46569   1.752  28.183   3.768
87309W        W46570  10.156  35.522  10.466
87310W        W46571  33.110  17.084  14.008
87311W        W46572  32.516  26.203   0.960
87312W        W46573  19.599  30.586   3.172
87313W        W46574  22.063   0.775   0.382
87314W        W46575  37.939  29.065   1.348
87315W        W46576  24.226   6.677  14.451
87316W        W46577  18.054  12.716   3.317
87317W        W46578  36.578  39.530   5.183
87318W        W46579   7.881  22.178  13.842
87319W        W46580   9.223  30.640   0.786
87320W        W46581  13.262   0.269   4.658
87321W        W46582  40.491  44.831   0.881
87322W        W46583  34.879  33.593  10.969
87323W        W46584  17.243  22.143   0.859
87324W        W46585  37.858  16.078  10.547
87325W        W46586  16.136  15.780  13.485
87326W        W46587  20.107  36.020   3.648
87327W        W46588  18.277  24.160   3.221
87328W        W46589  16.687   2.947  12.372
87329W        W46590  19.241  16.314   3.248
87330W        W46591  39.814  10.215  10.589
87331W        W46592   1.927  22.240   3.382
87332W        W46593  41.514  24.535  12.904
87333W        W46594  25.106  37.938  12.839
87334W        W46595  39.815  14.268  11.889
87335W        W46596   2.322  14.612  12.084
87336W        W46597  21.261  29.983   3.245
87337W        W46598  42.521  11.837  12.033
87338W        W46599   8.818  41.942   0.377
87339W        W46600   1.273  24.091  10.540
87340W        W46601   9.662   1.752   2.878
87341W        W46602  44.322  23.632   3.852
87342W        W46603  27.690  12.854   3.283
87343W        W46604  36.483  32.403  14.384
87344W        W46605  17.063  27.482   3.854
87345W        W46606  11.678  13.833  12.096
87346W        W46607  15.651  33.541  10.007
87347W        W46608   3.861  32.573   2.711
87348W        W46609   9.723   2.841   3.801
87349W        W46610  30.132  20.728   1.297
87350W        W46611  15.319   6.211   1.286
87351W        W46612   3.746  42.928  12.440
87352W        W46613  14.247  11.361  11.418
87353W        W46614  26.161  36.001   2.696
87354W        W46615  39.349  14.247  11.868
87355W        W46616  27.968   4.844   0.891
87356W        W46617  31.474  11.301   0.751
87357W        W46618   8.661  17.680  10.960
87358W        W46619   5.426  19.273   1.871
87359W        W46620  26.584   3.828  13.965
87360W        W46621  37.932  25.218   2.787
87361W        W46622  39.495   7.242   1.400
87362W        W46623   3.790  38.475  14.423
87363W        W46624   1.778  32.914   1.260
87364W        W46625  18.116  37.380   4.620
87365W        W46626  13.757   5.909   5.237
87366W        W46627  36.903  29.624   3.164
87367W        W46628  18.639  27.552  14.821
87368W        W46629  37.357  38.938   0.258
87369W        W46630   2.385  20.078  14.886
87370W        W46631  26.597  40.371  13.928
87371W        W46632  15.750  20.564   3.176
87372W        W46633   8.292  42.451   0.815
87373W        W46634   2.438  27.108  14.398
87374W        W46635   0.809  21.176  11.022
87375W        W46636  34.955   6.250  14.980
87376W        W46637  23.664  26.589   0.306
87377W        W46638  17.655  40.447  12.032
87378W        W46639  28.588  43.858   2.235
87379W        W46640   8.663  13.339   4.762
87380W        W46641   8.337  34.896  12.889
87381W        W46642  35.853  19.142  13.903
87382W        W46643  18.736  42.324  11.487
87383W        W46644   9.653  35.105  13.956
87384W        W46645   7.215   4.300  14.980
87385W        W46646   7.268   2.288   3.214
87386W        W46647  31.934  42.853   4.146
87387W        W46648  15.206  25.198  11.409
87388W        W46649  17.577  34.554  10.433
87389W        W46650  44.393  18.589  14.891
87390W        W46651  11.777  23.184   4.754
87391W        W46652  14.780  31.979   2.777
87392W        W46653  32.464  24.994   3.687
87393W        W46654  20.183  23.239   4.314
87394W        W46655  13.779   0.426  14.012
87395W        W46656  22.643  30.639   0.454
87396W        W46657  11.774  12.324  12.865
87397W        W46658  32.528  25.148  14.878
87398W        W46659  36.910  21.681   2.263
87399W        W46660  42.831   9.348  11.968
87400W        W46661  44.368  24.977   1.800
87401W        W46662  29.165  39.872  11.867
87402W        W46663  31.096  20.614   2.900
87403W        W46664  43.309  37.349   0.786
87404W        W46665  43.492  15.133  14.832
87405W        W46666  32.047   7.364   1.435
87406W        W46667  42.450  26.569   2.792
87407W        W46668  37.066  16.668  13.915
87408W        W46669  21.637  19.259   2.370
87409W        W46670  17.198  20.740   1.760
87410W        W46671   9.244  14.327   1.872
87411W        W46672   2.346  29.021  11.930
87412W        W46673   1.918  15.110  14.815
87413W        W46674  20.172   2.431  13.337
87414W        W46675   5.713  22.141   4.618
87415W        W46676  29.006   1.272   2.198
87416W        W46677   8.277  40.922   2.231
87417W        W46678  31.493  39.892   0.321
87418W        W46679   1.783   3.346  11.403
87419W        W46680   3.360  38.844   1.425
87420W        W46681  38.052  36.508  13.547
87421W        W46682  24.690  12.160  11.398
87422W        W46683  43.924  31.462   2.813
87423W        W46684  16.696  33.397   4.346
87424W        W46685  13.110   6.851  11.486
87425W        W46686  18.094  35.381  14.318
87426W        W46687  38.448   3.317   4.640
87427W        W46688  25.004  33.925   4.298
87428W        W46689  25.582  25.676  14.479
87429W        W46690  33.610  20.714  12.959
87430W        W46691  29.556   8.790  11.860
87431W        W46692  11.177   1.378  14.463
87432W        W46693  23.637  31.415   4.636
87433W        W46694  18.618  26.067  12.527
87434W        W46695  19.258   3.741  13.059
87435W        W46696   2.299  26.056  10.501
87436W        W46697   9.771  30.100   0.733
87437W        W46698  20.188  23.032  14.911
87438W        W46699  41.983  25.089   1.900
87439W        W46700   8.200  11.822   4.599
87440W        W46701  26.110  12.780  12.379
87441W        W46702  31.601   3.284  11.578
87442W        W46703  37.478  20.719   0.398
87443W        W46704  19.780   3.799  12.966
87444W        W46705  35.000  19.117   2.377
87445W        W46706  40.815  11.127  12.472
87446W        W46707  25.088  41.431   3.360
87447W        W46708  25.592  37.468   2.775
87448W        W46709  13.266  12.247  12.405
87449W        W46710  21.182  36.435  10.971
87450W        W46711  41.883  14.676  10.505
87451W        W46712   8.765   6.409   1.867
87452W        W46713   7.854   7.869  12.991
87453W        W46714  32.508  39.858  11.124
87454W        W46715  12.753  26.094  13.387
87455W        W46716  28.449  28.458  14.346
87456W        W46717  36.068   9.659   4.603
87457W        W46718  15.639  36.973   3.636
87458W        W46719  41.923  22.185   0.384
87459W        W46720  18.201  34.522  13.039
87460W        W46721  27.953  30.033  13.010
87461W        W46722  35.039  44.961  14.798
87462W        W46723  40.366   1.889   4.837
87463W        W46724  12.621  25.546  14.017
87464W        W46725   6.417  10.634   1.880
87465W        W46726  26.502  18.576  14.463
87466W        W46727   7.703   3.857  14.784
87467W        W46728  15.326  22.140  13.498
87468W        W46729   0.488  43.319  14.337
87469W        W46730  25.107   6.275  10.615
87470W        W46731  24.073  21.665   3.227
87471W        W46732  44.371  28.673  13.997
87472W        W46733  34.552   1.909  14.763
87473W        W46734  26.022   4.893  10.598
87474W        W46735  22.716  36.532   0.330
87475W        W46736  12.657  11.679   2.290
87476W        W46737  30.532  43.797   1.213
87477W        W46738  26.623  39.557  12.829
87478W        W46739  39.847  29.588   3.683
87479W        W46740   4.433  14.682   4.665
87480W        W46741  32.607   1.903   2.898
87481W        W46742  22.099   0.461  14.474
87482W        W46743   8.755   7.338  12.503
87483W        W46744   9.246   1.284   1.297
87484W        W46745  24.220  35.991   3.369
87485W        W46746  30.054  40.852  13.932
87486W        W46747  28.939   4.234  14.931
87487W        W46748  32.578  20.744  14.878
87488W        W46749  35.574   4.411  13.795
87489W        W46750  25.485  18.259  12.981
87490W        W46751  32.464  11.324   4.672
87491W        W46752  26.499  36.081   0.438
87492W        W46753  22.626  16.113  12.058
87493W        W46754  23.035   3.232  10.545
87494W        W46755  40.328  18.604   0.752
87495W        W46756  23.526  20.627   4.160
87496W        W46757   1.748  24.007   0.770
87497W        W46758  25.488  20.742   2.855
87498W        W46759  27.513  24.174   4.761
87499W        W46760  40.985   9.207   4.768
87500W        W46761  43.942  23.544  11.064
87501W        W46762  18.132   0.814   1.217
87502W        W46763   8.383   8.855  14.319
87503W        W46764   1.954   3.269   2.864
87504W        W46765   0.377  27.976  11.104
87505W        W46766  11.135   5.740  13.477
87506W        W46767  16.699  22.683  13.853
87507W        W46768   3.737   2.263   0.845
87508W        W46769  27.661  23.990   4.224
87509W        W46770  31.589   8.336  13.434
87510W        W46771  35.517  44.276   4.190
87511W        W46772   8.887  31.994  12.458
87512W        W46773   7.223   1.967   4.220
87513W        W46774  18.549  31.039  13.357
87514W        W46775  26.988  32.020  10.572
87515W        W46776  44.442  30.654  14.031
87516W        W46777  10.363  19.641   3.371
87517W        W46778  19.257  44.833   1.758
87518W        W46779  14.216   1.735   3.288
87519W        W46780  18.581   3.723  14.868
87520W        W46781  42.409   3.414   3.189
87521W        W46782   4.792  23.622  14.896
87522W        W46783  40.514  30.087  11.985
87523W        W46784  42.340   5.365  14.032
87524W        W46785  15.249   4.709   0.289
87525W        W46786  43.386  44.390   3.693
87526W        W46787   2.335  27.633   3.718
87527W        W46788   7.898  37.541  12.444
87528W        W46789  12.773  32.433  11.898
87529W        W46790  34.450  17.760  11.869
87530W        W46791  26.699  10.820   1.934
87531W        W46792   8.685   7.247  11.493
87532W        W46793  17.652  24.538   0.421
87533W        W46794  20.140  31.617   3.316
87534W        W46795  36.419  18.781  13.882
87535W        W46796   4.796   9.871  14.876
87536W        W46797  24.711  34.054   0.967
87537W        W46798   6.908  28.603   4.225
87538W        W46799  18.100   7.233   2.775
87539W        W46800  12.652   5.251   9.925
87540W        W46801   6.421   5.920  14.936
87541W        W46802  42.808  43.808   4.730
87542W        W46803  30.599  40.315  11.894
87543W        W46804  14.150  40.867   1.222
87544W        W46805  26.574  28.052  12.006
87545W        W46806  33.968  31.485   0.855
87546W        W46807  11.838  22.719  11.603
87547W        W46808   6.810  35.102   1.866
87548W        W46809  33.462  44.338   0.247
87549W        W46810  41.929   8.682  10.500
87550W        W46811  31.090  44.409   0.385
87551W        W46812  24.079   1.339   0.863
87552W        W46813  22.559  12.854  12.029
87553W        W46814  36.896  23.115   2.707
87554W        W46815  34.499  18.744   4.746
87555W        W46816  17.202  30.094   5.301
87556W        W46817  17.584  17.790   9.440
87557W        W46818   2.863   0.796   0.836
87558W        W46819  19.733  26.484  13.921
87559W        W46820  41.972  44.776   1.450
87560W        W46821   3.459  24.596   2.360
87561W        W46822   8.797   5.322  10.985
87562W        W46823  23.509  20.658   1.918
87563W        W46824  10.268   1.420  11.385
87564W        W46825  33.409  22.213   3.386
87565W        W46826  36.893  33.528   3.184
87566W        W46827  25.693  10.304   3.688
87567W        W46828  10.298  25.103   0.444
87568W        W46829  27.153  40.865   0.368
87569W        W46830  28.448  40.808   3.721
87570W        W46831   1.448  34.392  14.811
87571W        W46832  36.968  13.195   4.241
87572W        W46833  37.008  44.850  11.925
87573W        W46834  39.373   8.802   0.310
87574W        W46835  44.943  32.488   1.314
87575W        W46836  36.076  42.982  10.946
87576W        W46837  30.076  22.637   4.281
87577W        W46838  15.293   2.882   5.269
87578W        W46839  42.352  39.952  14.857
87579W        W46840  42.971  11.629   3.768
87580W        W46841  26.967  38.501  11.032
87581W        W46842  43.791  20.199   1.887
87582W        W46843  32.506   8.674   4.794
87583W        W46844  15.675   1.773  11.983
87584W        W46845  26.046  19.586   3.288
87585W        W46846   2.281  29.980   1.902
87586W        W46847   3.324  17.098  13.524
87587W        W46848  17.103  14.183   1.374
87588W        W46849  36.003  33.464   0.342
87589W        W46850  31.070  35.044  10.499
87590W        W46851   2.821  15.790  13.416
87591W        W46852  12.226   4.309   1.860
87592W        W46853  36.436  39.938   3.376
87593W        W46854  12.153  13.808   0.348
87594W        W46855  30.926  33.907  12.454
87595W        W46856  18.091  10.184  14.801
87596W        W46857  38.343  29.075   0.731
87597W        W46858  22.161  28.511   0.838
87598W        W46859  21.646   7.861  11.540
87599W        W46860  14.187  17.158   2.772
87600W        W46861  36.497  42.451  11.530
87601W        W46862  34.512  36.939   4.245
87602W        W46863   5.709  23.071  11.936
87603W        W46864  18.279  19.726   3.713
87604W        W46865  35.594  18.728  13.972
87605W        W46866  33.511  35.418   3.642
87606W        W46867   0.901  27.114   0.276
87607W        W46868   4.321   4.325   3.288
87608W        W46869   3.385   0.860   3.814
87609W        W46870   8.751  14.829  13.312
87610W        W46871  34.369  28.962  14.380
87611W        W46872  16.618  14.640   0.831
87612W        W46873  14.111  16.298  13.836
87613W        W46874  11.367  28.954  13.510
87614W        W46875  14.793  12.723   4.622
87615W        W46876  37.360  16.223   2.767
87616W        W46877  15.314  24.000   3.332
87617W        W46878   8.656  25.485   3.273
87618W        W46879  13.278  17.294  12.460
87619W        W46880  23.676  39.339   1.810
87620W        W46881  41.788  11.791  11.018
87621W        W46882   8.161   9.649  12.823
87622W        W46883  36.091  27.680  12.475
87623W        W46884  31.631   8.727   1.364
87624W        W46885  43.896  17.194   4.349
87625W        W46886  43.413  19.545  12.992
87626W        W46887  25.985   0.943  10.584
87627W        W46888  42.002  26.608  12.007
87628W        W46889   4.880   6.784   5.312
87629W        W46890  39.991  10.741  14.012
87630W        W46891   8.186   5.222   2.250
87631W        W46892  24.527  39.846  12.414
87632W        W46893  34.919   1.447  11.546
87633W        W46894  31.067  13.627   4.271
87634W        W46895  18.238  12.328   2.336
87635W        W46896   0.831   1.469   3.793
87636W        W46897   1.354  41.880   4.237
87637W        W46898  14.702  27.616  12.515
87638W        W46899  18.687  17.695  11.399
87639W        W46900  35.986  33.998   2.712
87640W        W46901  29.079  18.697   2.246
87641W        W46902  25.972  32.623  13.380
87642W        W46903   3.350   8.680   3.692
87643W        W46904   6.420  15.667  12.094
87644W        W46905  44.307  25.650   0.410
87645W        W46906  40.435  21.194   3.743
87646W        W46907   8.835  41.337  12.915
87647W        W46908  34.375  41.454   0.804
87648W        W46909  16.091  44.872   2.798
87649W        W46910  17.232  42.914   1.244
87650W        W46911  41.873  10.144   0.323
87651W        W46912   3.218  27.135   0.295
87652W        W46913  36.856   8.755  13.929
87653W        W46914  37.342  38.445   1.362
87654W        W46915  37.395   0.844  14.030
87655W        W46916  17.293  31.965   2.790
87656W        W46917  12.685  17.592  13.851
87657W        W46918  17.125   6.875   4.211
87658W        W46919  36.053  12.198   3.738
87659W        W46920  40.964  27.984   2.244
87660W        W46921  12.714  10.713  11.924
87661W        W46922  29.985  32.028  10.035
87662W        W46923  33.437  38.510  10.003
87663W        W46924  40.840  30.023  13.892
87664W        W46925  39.832  14.605  10.532
87665W        W46926  30.576  29.464  14.778
87666W        W46927  13.826  14.664  14.984
87667W        W46928  32.547   0.942  11.431
87668W        W46929  18.687  21.716  14.361
87669W        W46930  23.136  28.553   1.234
87670W        W46931  25.155  19.765  11.879
87671W        W46932  24.670  21.751   1.822
87672W        W46933  15.602  10.271   0.854
87673W        W46934  23.709  12.279  11.443
87674W        W46935  34.943  14.290   1.266
87675W        W46936   5.401   7.787   2.856
87676W        W46937   3.764  30.442  12.901
87677W        W46938  21.215   5.204   2.781
87678W        W46939  11.770  42.979  13.000
87679W        W46940  20.215  37.928  10.404
87680W        W46941  14.205  35.570  12.989
87681W        W46942  10.706   2.275  14.020
87682W        W46943  27.112  33.518  10.029
87683W        W46944  13.226  30.075  10.461
87684W        W46945  30.445  40.466  13.821
87685W        W46946  15.611  18.116   1.841
87686W        W46947  20.034  39.888   4.279
87687W        W46948  21.135  16.295   2.856
87688W        W46949   3.277  29.089   0.783
87689W        W46950  38.946  24.150  13.797
87690W        W46951  39.898  43.910  11.879
87691W        W46952  10.362  40.016  14.348
87692W        W46953   4.862   1.970  12.452
87693W        W46954  16.624   8.253  14.888
87694W        W46955  20.675  12.301  14.329
87695W        W46956  28.057  27.189   1.267
87696W        W46957  40.395   5.733  12.994
87697W        W46958  11.235  18.213  11.612
87698W        W46959  11.858  22.598   2.818
87699W        W46960  17.695  21.083  10.155
87700W        W46961  22.219   6.745  14.420
87701W        W46962  13.180  22.510   3.715
87702W        W46963   2.874  28.507   2.852
87703W        W46964  33.953  31.511  12.365
87704W        W46965  31.619  36.045   4.772
87705W        W46966  21.088  38.852  14.423
87706W        W46967  12.303  42.503  12.356
87707W        W46968  26.484   5.341  11.864
87708W        W46969  14.314  44.260  13.532
87709W        W46970  38.538  33.578  11.380
87710W        W46971  14.215  20.621  12.531
87711W        W46972   1.968   8.313  11.879
87712W        W46973  37.526  10.306  12.488
87713W        W46974   3.925  42.511  14.312
87714W        W46975  13.746  19.276  11.094
87715W        W46976  32.628  11.702   9.950
87716W        W46977  42.024   5.718  13.497
87717W        W46978  16.208  17.173   0.877
87718W        W46979   0.776  27.135   3.760
87719W        W46980  37.381  16.094   3.707
87720W        W46981  26.491  38.459   2.388
87721W        W46982  44.870  21.604  10.458
87722W        W46983  20.173  13.292   4.123
87723W        W46984  44.346  35.362  13.484
87724W        W46985  21.608   3.913   1.304
87725W        W46986  31.908   5.239   4.830
87726W        W46987   4.941  14.263  12.973
87727W        W46988  44.889  34.083   4.169
87728W        W46989  23.662  29.481  10.917
87729W        W46990  31.095  39.391  13.347
87730W        W46991  36.904   5.819  13.348
87731W        W46992  32.067  22.174  12.342
87732W        W46993  26.622  30.637   2.870
87733W        W46994   6.426  43.501   4.253
87734W        W46995   2.334   1.331  14.806
87735W        W46996  18.650  38.566   2.412
87736W        W46997  18.140   3.915  14.467
87737W        W46998   3.766  10.234  12.871
87738W        W46999  13.651  14.162   5.187
87739W        W47000  42.852   9.828  14.498
87740W        W47001  37.933   7.688  14.886
87741W        W47002   2.893  37.492  13.005
87742W        W47003   4.803  20.092  13.820
87743W        W47004   2.732  20.655   2.703
87744W        W47005  29.098  18.544  11.492
87745W        W47006  44.413  12.825   4.329
87746W        W47007  21.545   9.646   2.259
87747W        W47008  20.059   4.870  11.916
87748W        W47009  41.836  41.877   4.727
87749W        W47010  40.337  42.500  11.975
87750W        W47011  34.559  40.809  14.495
87751W        W47012  25.673  39.879   4.763
87752W        W47013  32.587   2.431   2.389
87753W        W47014   4.757   6.709  11.581
87754W        W47015  44.426   8.704  14.957
87755W        W47016   3.436   6.826   4.749
87756W        W47017  20.255  28.126   4.153
87757W        W47018  43.462  37.507  14.966
87758W        W47019  39.988  17.749  11.463
87759W        W47020  17.140   8.663   9.963
87760W        W47021  11.223  26.592  13.373
87761W        W47022  44.266  33.087   5.217
87762W        W47023  13.268  10.294   1.906
87763W        W47024  22.241  26.498  12.547
87764W        W47025  34.103  30.965   1.278
87765W        W47026  13.233  11.855   2.754
87766W        W47027  17.196  18.059   0.860
87767W        W47028  29.556  30.566  10.953
87768W        W47029   6.744  41.039   4.277
87769W        W47030  37.528  12.846   2.663
87770W        W47031  35.422  44.850   4.194
87771W        W47032  25.973   7.796   4.833
87772W        W47033  19.229  38.851  13.454
87773W        W47034  42.429  29.631   1.918
87774W        W47035  22.514  18.219   2.404
87775W        W47036  40.802  44.358   0.407
87776W        W47037  38.898  40.049   1.228
87777W        W47038  10.779  29.013  13.942
87778W        W47039  33.117  37.836  10.455
87779W        W47040  32.028   7.266  11.560
87780W        W47041   7.873   0.824  14.383
87781W        W47042  39.972  11.179  14.375
87782W        W47043  41.845  11.715   3.158
87783W        W47044  38.421  21.146  13.022
87784W        W47045  40.425  26.142  14.819
87785W        W47046  22.510  33.052   2.882
87786W        W47047  44.342  40.517  14.316
87787W        W47048  34.485  28.153  12.079
87788W        W47049  44.505  15.132  13.984
87789W        W47050  38.878   6.794   4.696
87790W        W47051  25.161  33.062   4.333
87791W        W47052   0.858  35.028  12.983
87792W        W47053  18.753  18.627  10.991
87793W        W47054  16.688   8.387   4.764
87794W        W47055  41.967  37.474  13.510
87795W        W47056  39.324  29.167  12.901
87796W        W47057  12.186  20.269  13.434
87797W        W47058  20.548  33.559   3.312
87798W        W47059  27.978  34.110   2.355
87799W        W47060   5.238  13.175   3.802
87800W        W47061   1.412  28.566  13.403
87801W        W47062  18.051   2.289   0.829
87802W        W47063  19.284  35.433  14.852
87803W        W47064  39.978   8.876  14.904
87804W        W47065  18.658  35.402   4.194
87805W        W47066  41.396  15.313  11.536
87806W        W47067  42.352  20.175  14.514
87807W        W47068  42.494  20.063   4.817
87808W        W47069   6.735   8.867   2.324
87809W        W47070  13.728  14.234  11.039
87810W        W47071  17.170  25.498  10.457
87811W        W47072  20.237   4.927  11.458
87812W        W47073   0.376  29.551   3.313
87813W        W47074  34.561  13.832   2.223
87814W        W47075  23.163  43.894   3.203
87815W        W47076  27.966   0.895   4.332
87816W        W47077  12.259  44.929   1.784
87817W        W47078  29.032  16.587   3.720
87818W        W47079  23.518  10.379  10.464
87819W        W47080  24.721   2.806   2.857
87820W        W47081  36.445  42.980   3.182
87821W        W47082  40.947  29.440  11.406
87822W        W47083  24.557  15.168   1.887
87823W        W47084  20.610  31.426  14.403
87824W        W47085  15.223  21.079   2.271
87825W        W47086  22.578   8.767  12.906
87826W        W47087  44.458   2.823   4.792
87827W        W47088  17.619  43.840  14.495
87828W        W47089  38.452  11.780   1.315
87829W        W47090  33.555  44.262  12.878
87830W        W47091  38.335  44.316   3.750
87831W        W47092  41.442  16.628  13.396
87832W        W47093  31.040  28.600  12.377
87833W        W47094  19.579  12.343  11.471
87834W        W47095  38.985  22.145  13.959
87835W        W47096  16.111   1.419  14.896
87836W        W47097  13.109  10.718  12.927
87837W        W47098  28.938   2.820   3.688
87838W        W47099  16.079   1.262   3.200
87839W        W47100  39.977   7.881  11.437
87840W        W47101   7.402  34.429  13.390
87841W        W47102  10.805  32.949  13.376
87842W        W47103  41.325  36.575  13.051
87843W        W47104   8.673  33.981   1.786
87844W        W47105   1.465   5.841  14.382
87845W        W47106   3.279  35.964  11.926
87846W        W47107  40.453  26.009  12.024
87847W        W47108   8.766  21.262  11.610
87848W        W47109  41.043  43.415  11.437
87849W        W47110   7.747  38.348  12.506
87850W        W47111  42.858  24.524   1.790
87851W        W47112  12.832  12.661  12.435
87852W        W47113   0.341  16.170   4.625
87853W        W47114  34.928  11.744  14.862
87854W        W47115  36.464   0.896   1.921
87855W        W47116  13.667  38.351   2.845
87856W        W47117  32.587  29.549   3.231
87857W        W47118  11.324   6.413  12.375
87858W        W47119  21.552  22.523   1.908
87859W        W47120   3.815  26.030  11.019
87860W        W47121  33.948  20.764  10.620
87861W        W47122  43.391  31.572   4.755
87862W        W47123  25.526  20.624   1.404
87863W        W47124  34.570  26.204  13.944
87864W        W47125  43.459  11.360  14.953
87865W        W47126   4.409  15.280   2.289
87866W        W47127  25.990  40.468   4.732
87867W        W47128  32.069  40.969  11.021
87868W        W47129  28.066  29.564   0.433
87869W        W47130   9.203  22.033   3.226
87870W        W47131  30.163  16.100   1.363
87871W        W47132  31.646   6.813   2.322
87872W        W47133  26.062  39.363  11.571
87873W        W47134  32.623  25.216  11.519
87874W        W47135  42.464  38.340   2.374
87875W        W47136  26.043  21.176   0.837
87876W        W47137  32.113   5.216  13.452
87877W        W47138  38.902  17.131  12.395
87878W        W47139  19.574  27.027  11.000
87879W        W47140  11.800  32.927  10.596
87880W        W47141  36.460  13.253  10.505
87881W        W47142  24.151  24.169   0.400
87882W        W47143  21.621  44.313   3.694
87883W        W47144  12.182  30.111   3.779
87884W        W47145  38.505  38.874   5.173
87885W        W47146  16.663  10.315   1.393
87886W        W47147  11.192  20.673  13.838
87887W        W47148  41.460   8.733   2.699
87888W        W47149   3.869   5.895  10.492
87889W        W47150   1.325  35.362   0.257
87890W        W47151  16.726  43.433  12.974
87891W        W47152   2.402   5.775   0.244
87892W        W47153  26.640  16.570  10.125
87893W        W47154   3.307  25.689   1.377
87894W        W47155   5.885  35.518  13.363
87895W        W47156  13.729  40.306  14.847
87896W        W47157  32.076   7.340  14.311
87897W        W47158   3.341  27.051   2.714
87898W        W47159  42.891   5.755   4.133
87899W        W47160  33.944   6.896  14.336
87900W        W47161   5.757  21.199  11.446
87901W        W47162  24.723   1.376  10.904
87902W        W47163  36.025   9.149   0.809
87903W        W47164  31.401  36.053   1.374
87904W        W47165   3.745   0.776  10.430
87905W        W47166  12.360   2.462  14.380
87906W        W47167  32.994  13.663   1.900
87907W        W47168  43.965  27.076   3.216
87908W        W47169  24.559  42.858  10.433
87909W        W47170  23.613   2.923  14.896
87910W        W47171  19.089   5.263  13.039
87911W        W47172  10.161  44.460  14.014
87912W        W47173  20.071  41.493   2.684
87913W        W47174  22.511  40.445  10.581
87914W        W47175  42.800  23.113   3.693
87915W        W47176   0.914  38.518  11.066
87916W        W47177  25.991  39.991   3.183
87917W        W47178   7.843  25.996  12.001
87918W        W47179  41.944  17.149  11.053
87919W        W47180  39.504  30.164  11.558
87920W        W47181   7.269   8.796   1.822
87921W        W47182  18.289  41.388  14.885
87922W        W47183  44.849  13.109  11.504
87923W        W47184  37.474   3.365   4.610
87924W        W47185  22.084   8.778  12.379
87925W        W47186   5.700  14.284   2.841
87926W        W47187  17.659   0.456  14.018
87927W        W47188  34.368  24.995  11.388
87928W        W47189  13.753   4.914   2.232
87929W        W47190  25.504   3.742   0.347
87930W        W47191  30.126  16.098  13.371
87931W        W47192  15.596  12.801  11.068
87932W        W47193  29.545   6.692   1.301
87933W        W47194  16.082   7.887   0.966
87934W        W47195  42.326  31.043  13.969
87935W        W47196  18.671  21.680  11.563
87936W        W47197   6.306  23.641   2.867
87937W        W47198  25.612  41.886   3.306
87938W        W47199  39.058   1.779   4.162
87939W        W47200  19.162  36.956  13.057
87940W        W47201   4.858  43.491  11.446
87941W        W47202  39.050  26.494   3.683
87942W        W47203  39.474  39.959  14.767
87943W        W47204  30.413   5.193  12.932
87944W        W47205  24.481  27.957   4.117
87945W        W47206  31.904  17.684  12.071
87946W        W47207  11.332  34.533   2.377
87947W        W47208  18.755   7.365  14.833
87948W        W47209  34.475  26.575   0.248
87949W        W47210  15.272  21.663   5.678
87950W        W47211  15.198  12.313   1.243
87951W        W47212  18.702   7.348   1.426
87952W        W47213  30.579  27.648   0.903
87953W        W47214  43.883  19.169  14.003
87954W        W47215  39.436   1.427   1.715
87955W        W47216   8.261   0.926  14.869
87956W        W47217   9.310   3.715  11.036
87957W        W47218   3.423  43.776  11.052
87958W        W47219  22.504   1.842  13.441
87959W        W47220  40.920  28.613   1.902
87960W        W47221   1.944  26.974  12.914
87961W        W47222  15.646   2.855   2.332
87962W        W47223   0.416   2.855   4.606
87963W        W47224  10.291  33.505   4.613
87964W        W47225  15.616  19.162   1.448
87965W        W47226  22.206  26.577   3.784
87966W        W47227   4.805   1.250   3.693
87967W        W47228  12.196  40.025   2.900
87968W        W47229  13.722  20.219  12.004
87969W        W47230  29.535  43.932   2.672
87970W        W47231   4.883  42.987  12.441
87971W        W47232   2.274  44.309  11.489
87972W        W47233   9.315  40.893  13.021
87973W        W47234   8.345  43.320  11.492
87974W        W47235  24.639  33.598   4.758
87975W        W47236  14.118  29.093   2.293
87976W        W47237  22.658  38.972  11.895
87977W        W47238   5.238  16.315  11.599
87978W        W47239  10.345  16.638   1.737
87979W        W47240  26.091  37.069   3.811
87980W        W47241  34.428  24.538   0.258
87981W        W47242  26.691   0.355   1.370
87982W        W47243  36.017  42.501   0.251
87983W        W47244  19.245   2.945   0.264
87984W        W47245  10.706  24.213  12.432
87985W        W47246   1.473  30.477   2.728
87986W        W47247   4.276   5.878   1.301
87987W        W47248   8.681  31.153  14.321
87988W        W47249   3.428  24.687   0.780
87989W        W47250   9.344  41.448  14.364
87990W        W47251  44.959  31.131  10.588
87991W        W47252  11.327   1.319   1.759
87992W        W47253  21.548   2.256  10.541
87993W        W47254   3.943  29.453  13.843
87994W        W47255  12.745  23.200   2.281
87995W        W47256  20.259  24.024   4.336
87996W        W47257  10.871   9.270  10.516
87997W        W47258  28.944  43.355  12.067
87998W        W47259  34.927  30.914   2.285
87999W        W47260   9.787  36.471   4.290
88000W        W47261   0.453  36.071   4.261
88001W        W47262  14.195  30.474   0.824
88002W        W47263  27.056   0.375  13.010
88003W        W47264  29.980  42.895   5.189
88004W        W47265   9.282  21.030   1.226
88005W        W47266  19.755   4.699   1.832
88006W        W47267  25.200  35.062  12.930
88007W        W47268   8.194  12.217   4.811
88008W        W47269   7.190  20.712   1.837
88009W        W47270  20.647  21.717   0.794
88010W        W47271  12.118  22.213  12.923
88011W        W47272  21.648  20.690  12.081
88012W        W47273   9.311  34.555  14.410
88013W        W47274  19.196  42.401   1.286
88014W        W47275  29.978  11.623   1.930
88015W        W47276  13.606  25.521  10.908
88016W        W47277  19.131  20.112   2.248
88017W        W47278  31.141  40.342  12.440
88018W        W47279  40.404   4.404  11.377
88019W        W47280   3.924  12.131  14.499
88020W        W47281  33.582  38.827   4.251
88021W        W47282  44.352  19.244  11.437
88022W        W47283  21.682  15.779  14.992
88023W        W47284  24.500  32.577  13.842
88024W        W47285   2.786  42.828  11.868
88025W        W47286  32.020   4.370  13.038
88026W        W47287  39.863   9.691  14.777
88027W        W47288  12.290  23.615  13.998
88028W        W47289  30.531  36.062  13.835
88029W        W47290  41.805   4.323   3.348
88030W        W47291  14.828  39.344   0.261
88031W        W47292  29.116  35.030  14.355
88032W        W47293  18.684  28.082   3.732
88033W        W47294   1.849  21.050   2.874
88034W        W47295  39.376   4.870   2.718
88035W        W47296   6.382  17.693  12.967
88036W        W47297   5.789  13.742   3.251
88037W        W47298  30.535   7.837   3.861
88038W        W47299   6.184  35.938   1.811
88039W        W47300   2.312  31.480  10.962
88040W        W47301   0.860   8.882  14.010
88041W        W47302  44.954   4.782   4.153
88042W        W47303  27.192  33.933  12.875
88043W        W47304  14.670   6.810  11.898
88044W        W47305  15.236  11.776   3.862
88045W        W47306  30.442  28.440   3.236
88046W        W47307  32.123  10.363  11.000
88047W        W47308  10.294  39.849  12.981
88048W        W47309  28.666   7.296  10.953
88049W        W47310  43.979   8.768  10.969
88050W        W47311  20.648  10.803   0.268
88051W        W47312   5.929   6.905  13.885
88052W        W47313   9.290  41.015   0.245
88053W        W47314  42.887  38.328   2.306
88054W        W47315  11.214  22.136   4.219
88055W        W47316  12.326  21.598   4.701
88056W        W47317  44.394  41.481  12.860
88057W        W47318  22.018  29.173  13.008
88058W        W47319  14.738  27.133  11.049
88059W        W47320  36.388  21.019  13.063
88060W        W47321  42.459  32.005  14.364
88061W        W47322  18.668   4.240   3.363
88062W        W47323   0.445  27.140   2.311
88063W        W47324  19.105  33.875   3.278
88064W        W47325   7.390  17.297   1.264
88065W        W47326   8.811  22.184  14.883
88066W        W47327  43.872  36.892   4.620
88067W        W47328  43.846  34.105   2.755
88068W        W47329   2.885  43.942  11.479
88069W        W47330  11.809  20.672   4.311
88070W        W47331   5.384  22.697   4.740
88071W        W47332  10.822  16.232  14.465
88072W        W47333  10.336  16.241  11.083
88073W        W47334  37.446  19.259  11.095
88074W        W47335   4.315  30.567   2.256
88075W        W47336   5.856  36.094   0.880
88076W        W47337  18.163  35.932   3.776
88077W        W47338  30.027   5.295   1.878
88078W        W47339  10.218  30.153  12.097
88079W        W47340  19.111  10.730   3.830
88080W        W47341  28.537  44.761  12.501
88081W        W47342  34.477  11.212   3.178
88082W        W47343  20.700  42.923   5.084
88083W        W47344  11.219  26.483  11.873
88084W        W47345   3.902  42.489   4.322
88085W        W47346  44.422  31.516   4.718
88086W        W47347  23.216  30.525  12.514
88087W        W47348   6.386   6.825  10.641
88088W        W47349  16.759  38.505  10.412
88089W        W47350   5.906  42.011   4.118
88090W        W47351  23.635   7.234   3.263
88091W        W47352   4.851   5.289  12.920
88092W        W47353  25.135  36.091  13.449
88093W        W47354  42.422   0.923   1.806
88094W        W47355  24.113  39.349   1.871
88095W        W47356   0.834  37.925   0.844
88096W        W47357  27.040  36.888  12.971
88097W        W47358  16.667  43.411   1.217
88098W        W47359  31.911   6.397   1.298
88099W        W47360  13.160  39.817   9.967
88100W        W47361  21.024  13.190   0.253
88101W        W47362  20.186  21.713   3.753
88102W        W47363  30.934  10.333   3.308
88103W        W47364   7.331  44.460   0.944
88104W        W47365  18.634  29.967   3.274
88105W        W47366   7.768  37.966  14.393
88106W        W47367  44.990  40.988   4.780
88107W        W47368  37.562   0.262   4.254
88108W        W47369  23.073  11.264   2.413
88109W        W47370  12.319  32.619  14.354
88110W        W47371   1.793  27.005   3.702
88111W        W47372  44.938  41.950  10.957
88112W        W47373  32.562  29.058  12.920
88113W        W47374  16.811  23.515  12.892
88114W        W47375  38.031  12.328  13.533
88115W        W47376   9.661  41.999   3.351
88116W        W47377  17.691  25.107  14.029
88117W        W47378  41.930  30.987   0.258
88118W        W47379  31.464  44.010  13.840
88119W        W47380   7.234  31.913  13.815
88120W        W47381  37.986  30.141   2.793
88121W        W47382  16.641   4.214   3.820
88122W        W47383  16.298  39.414  11.072
88123W        W47384  32.142   4.288   4.275
88124W        W47385  39.831   7.254  13.061
88125W        W47386  42.398   7.399   0.454
88126W        W47387  23.135  36.380   4.140
88127W        W47388   0.321  43.320  10.496
88128W        W47389  33.100  37.866   5.197
88129W        W47390  44.368   4.328  12.081
88130W        W47391  37.481  24.666  13.984
88131W        W47392   5.269  15.240   1.707
88132W        W47393  42.968  14.217   1.912
88133W        W47394  27.520  34.919   0.459
88134W        W47395   0.417  31.032   2.396
88135W        W47396  42.846  18.116  12.976
88136W        W47397  18.126   7.302   1.349
88137W        W47398  43.789   3.718   0.869
88138W        W47399   7.824  38.397  13.981
88139W        W47400   0.911  22.160   3.338
88140W        W47401   8.831  26.172  13.967
88141W        W47402  34.079  36.094   4.687
88142W        W47403   2.870  27.448   0.908
88143W        W47404  17.285  17.255   4.239
88144W        W47405  15.247   5.249   4.346
88145W        W47406  32.437  29.135   2.398
88146W        W47407  17.176  44.304  12.534
88147W        W47408   8.335  27.193  14.323
88148W        W47409  12.163   2.337  11.968
88149W        W47410  35.369  25.619  10.593
88150W        W47411   7.900  37.462   2.323
88151W        W47412   9.664  36.900   3.828
88152W        W47413  19.553  30.940  14.478
88153W        W47414   9.817  43.877   4.229
88154W        W47415   8.895   1.288  11.527
88155W        W47416   3.744   5.790   2.900
88156W        W47417   1.744   2.866  13.973
88157W        W47418   4.344   7.321   4.322
88158W        W47419   9.863   6.917  13.879
88159W        W47420   2.837  25.639  13.925
88160W        W47421  43.896   4.437   2.331
88161W        W47422  27.189  42.791  10.564
88162W        W47423  12.730  43.444   0.426
88163W        W47424  30.951  21.043   5.216
88164W        W47425  38.384  38.542  13.427
88165W        W47426  16.706   3.896  14.820
88166W        W47427   0.315  33.086  14.895
88167W        W47428   0.267  20.235  13.518
88168W        W47429  26.206  18.233   4.812
88169W        W47430  29.993  38.389   1.831
88170W        W47431  24.992  11.317   1.887
88171W        W47432   1.791  18.789  14.032
88172W        W47433  37.560   2.317  12.445
88173W        W47434  26.046  10.293  13.424
88174W        W47435  26.005  25.565   3.169
88175W        W47436  15.307   8.172   3.811
88176W        W47437  30.553   2.386   4.242
88177W        W47438  44.303   3.278   2.676
88178W        W47439   7.264  39.959  11.091
88179W        W47440  18.246  12.774   2.703
88180W        W47441  43.873  15.286   0.321
88181W        W47442  36.539  39.040   4.235
88182W        W47443  44.480  43.293  11.983
88183W        W47444  29.008  22.068   0.483
88184W        W47445  36.407  33.090   0.249
88185W        W47446  35.929  43.497  12.352
88186W        W47447   9.826  32.620  13.806
88187W        W47448  23.562  10.271   0.268
88188W        W47449  13.601  24.215  13.405
88189W        W47450  39.341   8.161   3.317
88190W        W47451  11.129  32.479  11.967
88191W        W47452  13.676  34.113   4.329
88192W        W47453  13.836  19.082   2.245
88193W        W47454  17.242  38.943  10.065
88194W        W47455  25.195  17.693   1.247
88195W        W47456  12.745  43.389   0.906
88196W        W47457  29.940  24.593   4.276
88197W        W47458  32.133  19.142   4.663
88198W        W47459  35.457  15.215   0.325
88199W        W47460   6.844  29.941   3.155
88200W        W47461  31.970  42.427   2.881
88201W        W47462  22.053  38.974  12.090
88202W        W47463   8.397  26.091   1.805
88203W        W47464   7.237  39.371   3.354
88204W        W47465  16.609  44.819   4.285
88205W        W47466  26.545  26.509   2.298
88206W        W47467  25.982  30.072   4.739
88207W        W47468  39.868  32.990   0.793
88208W        W47469  10.871   7.815   4.775
88209W        W47470  27.576  39.518   3.245
88210W        W47471  38.060   2.889   1.885
88211W        W47472  21.030  32.918  12.367
88212W        W47473  12.820  35.938  11.438
88213W        W47474  10.800  33.437   2.361
88214W        W47475   9.251  37.473  11.588
88215W        W47476  19.577  22.522  10.412
88216W        W47477  10.345  21.176  13.821
88217W        W47478  43.483  20.586  12.887
88218W        W47479  37.970  36.399  14.455
88219W        W47480  41.367   9.355   4.220
88220W        W47481  21.209  43.971   1.348
88221W        W47482  29.501  39.534  12.968
88222W        W47483  21.571  36.887   3.282
88223W        W47484  24.045  18.567   1.412
88224W        W47485  13.221  35.534  11.911
88225W        W47486  17.692  35.006  12.515
88226W        W47487   5.295  35.877   3.669
88227W        W47488  11.134   3.226   0.927
88228W        W47489  18.263  37.883   1.858
88229W        W47490  19.283  12.212   3.334
88230W        W47491  34.547  38.569  10.640
88231W        W47492  22.592  20.567   2.267
88232W        W47493  41.906   4.899  14.497
88233W        W47494  21.690   3.402   1.877
88234W        W47495   7.820   3.368  10.638
88235W        W47496   1.789  25.682   4.785
88236W        W47497  34.572   0.287   4.774
88237W        W47498  11.742   8.292   3.631
88238W        W47499  18.734   5.284   4.765
88239W        W47500   8.192  34.513   2.671
88240W        W47501  31.138  13.768  11.979
88241W        W47502   1.892   0.284   4.170
88242W        W47503  34.017  17.209   3.833
88243W        W47504  24.163  11.693   0.343
88244W        W47505   1.456  12.730   4.799
88245W        W47506  19.589  35.451  13.472
88246W        W47507   4.777  14.151  10.624
88247W        W47508  41.409  26.161   4.621
88248W        W47509  37.873  34.476   2.236
88249W        W47510  15.243   7.720   0.886
88250W        W47511  35.929  17.612   1.299
88251W        W47512   7.871  44.947  12.991
88252W        W47513  32.524  28.620   2.884
88253W        W47514  22.048   7.849  14.447
88254W        W47515  15.789  20.232  13.851
88255W        W47516  14.657  19.579  11.988
88256W        W47517   9.159   3.358   3.296
88257W        W47518   7.776  28.991  10.617
88258W        W47519  32.126  19.609  12.005
88259W        W47520  22.122  41.954   4.184
88260W        W47521  16.131  37.374  10.470
88261W        W47522   8.679   4.837  10.964
88262W        W47523  44.383  36.944   1.300
88263W        W47524   1.409  34.117   4.740
88264W        W47525  41.319  25.631  14.428
88265W        W47526  17.628  12.264  12.949
88266W        W47527   3.734  37.081  13.014
88267W        W47528  10.378  41.813   4.766
88268W        W47529  35.039  10.281  14.439
88269W        W47530  11.826   4.379  11.983
88270W        W47531   9.886  13.172  13.373
88271W        W47532  18.219  27.164   3.222
88272W        W47533  19.585  34.984   5.284
88273W        W47534  25.089  27.994   3.297
88274W        W47535   9.826  44.279  13.892
88275W        W47536   3.812  10.659  13.385
88276W        W47537  19.153  28.634  14.484
88277W        W47538  13.755  36.485   0.248
88278W        W47539  41.875  20.271  12.397
88279W        W47540  40.023  41.307  11.033
88280W        W47541  26.531  12.193  11.926
88281W        W47542  44.919  44.814  14.969
88282W        W47543   5.687  37.549  12.036
88283W        W47544  14.326  39.827  11.562
88284W        W47545  13.255  13.195   1.816
88285W        W47546  38.331  27.642  13.964
88286W        W47547  10.270   8.824  13.517
88287W        W47548  28.158  27.157   4.767
88288W        W47549  32.591  29.077  11.911
88289W        W47550   6.205  39.541  13.536
88290W        W47551   0.924  27.468   4.658
88291W        W47552  19.104  40.835   2.283
88292W        W47553   1.813  29.151  14.427
88293W        W47554  35.457  16.117  10.921
88294W        W47555  25.528  24.156   3.346
88295W        W47556  26.548   6.408  13.985
88296W        W47557  10.801  34.973  12.385
88297W        W47558  42.392   5.912   0.957
88298W        W47559   8.865  41.456   4.163
88299W        W47560   3.783  29.450   0.362
88300W        W47561  34.937  19.573   5.154
88301W        W47562  26.576  24.008   3.739
88302W        W47563  28.109  37.939  12.563
88303W        W47564   9.169  13.231   1.726
88304W        W47565  13.753   3.219   2.389
88305W        W47566  21.169   3.343   5.098
88306W        W47567   7.370   2.273   4.820
88307W        W47568  40.017  43.809  14.385
88308W        W47569  31.133  42.947  11.476
88309W        W47570  26.675  22.165  14.471
88310W        W47571  42.966  16.170   2.368
88311W        W47572  11.222  19.627   3.703
88312W        W47573   8.818  34.507   4.343
88313W        W47574   5.819  27.482  12.554
88314W        W47575  40.534  17.611  14.481
88315W        W47576  13.792   3.260  14.781
88316W        W47577  29.074  14.764   4.647
88317W        W47578  24.187  18.626  14.902
88318W        W47579  16.640  31.072   4.758
88319W        W47580  32.441  39.537  13.005
88320W        W47581  10.153  42.310   4.631
88321W        W47582   4.219  23.099  14.361
88322W        W47583  10.843   9.357  12.076
88323W        W47584   3.824   8.673   1.399
88324W        W47585  21.611  41.949   1.426
88325W        W47586   5.927   0.485  11.499
88326W        W47587  10.735  16.138   4.123
88327W        W47588  30.977  31.028  11.397
88328W        W47589  15.245  29.133  11.009
88329W        W47590   0.284   1.322  12.908
88330W        W47591  22.139  25.043   0.895
88331W        W47592  44.910  38.868  10.083
88332W        W47593   4.260  43.403   1.848
88333W        W47594  17.182   8.840   1.910
88334W        W47595  44.841  23.000  14.989
88335W        W47596  29.609  25.216  14.865
88336W        W47597  26.530  10.349   1.729
88337W        W47598  28.628   9.314  11.593
88338W        W47599  24.220  41.888  14.471
88339W        W47600   7.709  21.569  10.593
88340W        W47601   7.415  32.427  13.543
88341W        W47602  28.003   9.808  12.431
88342W        W47603  17.130   1.875  13.466
88343W        W47604  41.489  44.865   1.276
88344W        W47605  41.301  20.531  13.875
88345W        W47606  26.588  29.573   4.214
88346W        W47607  41.871  32.499  14.454
88347W        W47608  15.103  11.725  12.509
88348W        W47609  38.983  43.454  13.042
88349W        W47610  10.263  23.724   4.756
88350W        W47611  36.851   7.321  12.569
88351W        W47612  42.980  29.493  11.506
88352W        W47613  34.051  32.622  10.557
88353W        W47614  13.143   4.426  12.928
88354W        W47615  14.698  28.477  12.523
88355W        W47616  40.872  23.707  11.413
88356W        W47617   2.954  12.646  12.068
88357W        W47618  10.339  26.066  12.840
88358W        W47619  36.376  22.096  10.467
88359W        W47620  43.850   7.751   4.150
88360W        W47621   3.314  44.354   3.648
88361W        W47622   8.285  31.445   4.668
88362W        W47623  41.987  21.692   2.867
88363W        W47624  24.622  40.435  13.859
88364W        W47625  18.281   8.757   1.242
88365W        W47626   5.343  30.966   3.262
88366W        W47627   8.174  13.221  12.464
88367W        W47628   4.814  41.358  12.539
88368W        W47629  23.661   6.322   1.850
88369W        W47630   5.203  19.588   3.212
88370W        W47631  12.218  34.387   1.717
88371W        W47632  29.041  21.618  11.127
88372W        W47633  23.619  31.611  14.805
88373W        W47634   8.896  35.518  13.416
88374W        W47635  26.186   9.376   1.921
88375W        W47636  30.640  19.667  11.917
88376W        W47637  44.984  25.652  13.480
88377W        W47638  43.280  38.546  11.867
88378W        W47639  10.634   6.219  14.801
88379W        W47640  39.449  37.932  14.294
88380W        W47641   3.800  41.517   1.934
88381W        W47642   5.751  19.138   1.233
88382W        W47643  28.144  40.414   4.140
88383W        W47644  17.156  31.135  10.934
88384W        W47645  25.521  36.561   4.721
88385W        W47646  21.200  27.192   3.679
88386W        W47647  12.238   6.840  11.975
88387W        W47648  40.335  21.690  11.989
88388W        W47649   4.287  38.912   0.341
88389W        W47650  41.977   9.832   0.736
88390W        W47651  39.451  29.457  14.787
88391W        W47652  29.956   3.329  10.938
88392W        W47653  22.636  10.677   2.663
88393W        W47654  17.087  27.041   4.824
88394W        W47655   7.246   1.734   0.380
88395W        W47656  34.495  37.481   2.229
88396W        W47657  21.595  40.321   2.865
88397W        W47658  18.050   8.301  11.126
88398W        W47659  22.651   4.814  13.999
88399W        W47660   5.219  33.563  11.038
88400W        W47661  30.116  44.872  11.015
88401W        W47662   3.439   2.939  14.850
88402W        W47663  10.790  34.539  13.035
88403W        W47664  42.470  43.822   2.300
88404W        W47665   1.822  34.020  14.901
88405W        W47666   9.190  22.008   1.400
88406W        W47667  22.091  26.185  11.515
88407W        W47668  13.176  14.815  13.491
88408W        W47669   5.839  30.500   2.288
88409W        W47670  41.497  11.315  10.887
88410W        W47671  35.943  13.649  12.415
88411W        W47672  30.963  34.421  10.892
88412W        W47673   7.669  28.021  14.774
88413W        W47674  35.006  14.684  11.437
88414W        W47675  31.408   6.368  11.413
88415W        W47676  43.289  11.262  14.482
88416W        W47677  12.834  27.190  14.286
88417W        W47678  44.482  30.533  10.635
88418W        W47679  11.648  17.797   3.859
88419W        W47680  33.069   2.947   1.311
88420W        W47681  14.303   6.923   3.868
88421W        W47682   3.720  27.683   2.310
88422W        W47683  34.951  31.997  10.578
88423W        W47684  34.872  27.624  11.923
88424W        W47685  33.020  24.179   1.935
88425W        W47686   9.313  35.919  14.985
88426W        W47687  40.876  30.447  12.556
88427W        W47688   2.774  29.128  13.448
88428W        W47689  26.688  23.732  10.601
88429W        W47690  31.009  17.617   0.458
88430W        W47691  16.574  28.990  13.506
88431W        W47692  39.336  18.602   2.320
88432W        W47693  33.387  22.634   3.863
88433W        W47694  27.480   0.774   3.646
88434W        W47695  15.245  37.548   1.339
88435W        W47696  37.961  28.604  13.371
88436W        W47697   5.437  32.885  14.010
88437W        W47698  18.295  15.106   3.253
88438W        W47699  13.831  10.273  13.952
88439W        W47700  13.802  35.859  12.824
88440W        W47701   8.835  15.804   3.328
88441W        W47702  39.044  12.829   2.351
88442W        W47703  40.324  16.266  10.436
88443W        W47704  16.623  13.170  13.421
88444W        W47705   7.291  44.874  12.858
88445W        W47706  42.416  23.032   0.733
88446W        W47707  13.808  32.579  10.515
88447W        W47708  23.651  30.445   0.850
88448W        W47709  26.110  12.180   3.153
88449W        W47710  21.100  14.179   3.217
88450W        W47711   7.356  28.132   0.271
88451W        W47712   4.345  39.942  11.995
88452W        W47713   4.930   1.839  14.355
88453W        W47714  32.392  31.411   4.832
88454W        W47715  31.080  20.229  13.041
88455W        W47716  14.821  13.828   1.282
88456W        W47717   8.233  10.314  13.042
88457W        W47718  40.458  30.118   0.438
88458W        W47719  28.035  43.003   3.734
88459W        W47720  10.205  19.671  12.981
88460W        W47721  32.045  23.678   1.268
88461W        W47722  16.137  16.668   4.735
88462W        W47723  23.553  12.150   4.259
88463W        W47724   1.884  19.188   4.240
88464W        W47725  37.080  34.528   1.743
88465W        W47726  26.550  18.078   2.826
88466W        W47727  16.305   7.881  14.828
88467W        W47728  42.395  21.080  10.426
88468W        W47729  27.114  41.904   0.427
88469W        W47730   0.808  30.533  12.082
88470W        W47731  40.903   4.916   4.716
88471W        W47732  22.195  17.237   0.830
88472W        W47733  43.399  22.087  11.050
88473W        W47734  31.926  36.967   3.355
88474W        W47735  21.742  24.664  10.612
88475W        W47736  12.243   6.900   0.766
88476W        W47737  38.422  15.134  11.397
88477W        W47738  37.987  25.136  14.495
88478W        W47739  38.487   3.304  14.424
88479W        W47740  36.025  20.548   2.760
88480W        W47741  28.541  42.512   4.797
88481W        W47742   9.769  24.590  14.359
88482W        W47743  13.653  31.408   3.226
88483W        W47744  11.182  20.142   0.288
88484W        W47745  28.666  13.633   4.141
88485W        W47746  13.768  33.470   0.913
88486W        W47747  29.548  32.951   2.754
88487W        W47748  42.786   7.787   5.263
88488W        W47749  13.313  33.107   2.410
88489W        W47750   6.746   2.836  11.610
88490W        W47751  39.452  42.503   3.156
88491W        W47752  28.674  17.173  11.453
88492W        W47753   4.937  15.298  13.367
88493W        W47754   3.820  38.977  14.805
88494W        W47755  16.708  22.170  10.473
88495W        W47756  36.055  41.315   3.328
88496W        W47757  30.417  21.218  10.903
88497W        W47758  32.038  15.122   3.742
88498W        W47759  26.524   4.750   0.434
88499W        W47760  19.676  35.003   2.311
88500W        W47761   4.335  44.872   3.201
88501W        W47762   7.875  24.564   1.755
88502W        W47763  20.657   4.779   3.301
88503W        W47764  19.644   9.265  11.387
88504W        W47765  22.569  41.416   2.722
88505W        W47766  13.282  27.988   1.395
88506W        W47767  15.161   6.878  13.828
88507W        W47768  12.131  30.537  10.896
88508W        W47769  36.530   9.333  10.538
88509W        W47770  34.952  11.174   3.263
88510W        W47771  10.339   1.746   1.334
88511W        W47772   1.951  34.065  13.462
88512W        W47773  12.353  43.935   3.840
88513W        W47774  16.795  38.026  13.904
88514W        W47775  37.929   9.791   2.382
88515W        W47776  21.542  18.077   2.259
88516W        W47777  30.499  11.267  13.900
88517W        W47778  43.483  33.906   0.853
88518W        W47779   2.256  33.877  11.460
88519W        W47780   6.721  37.444   2.730
88520W        W47781   2.267  25.655   2.181
88521W        W47782   4.776  26.065   0.850
88522W        W47783   2.359  25.474   1.775
88523W        W47784  32.967  22.079  11.047
88524W        W47785   9.682   6.204   2.846
88525W        W47786  39.036  43.921  10.475
88526W        W47787  30.414  37.884  12.386
88527W        W47788  35.437  30.452   2.894
88528W        W47789  30.028  26.625  10.158
88529W        W47790  29.974  36.960   0.910
88530W        W47791   1.826   5.909  11.596
88531W        W47792  39.322  16.130   2.404
88532W        W47793  32.990   9.245  14.302
88533W        W47794  24.582  13.720   3.326
88534W        W47795  36.066  12.318   1.282
88535W        W47796   9.657  16.227   2.834
88536W        W47797  33.525  33.625   1.377
88537W        W47798  11.358  28.095   2.797
88538W        W47799  43.387  24.031   2.879
88539W        W47800  16.627  36.416  12.051
88540W        W47801  31.570  26.046   2.357
88541W        W47802  15.123   8.310  13.831
88542W        W47803  26.659  22.675   1.314
88543W        W47804  43.007   1.862  12.548
88544W        W47805  17.789  16.078  11.030
88545W        W47806  37.502  41.797   0.797
88546W        W47807   3.748  43.313   2.255
88547W        W47808  42.810  32.001  11.468
88548W        W47809  24.224  43.765   4.725
88549W        W47810  16.163  42.436   1.246
88550W        W47811   4.296   7.242   1.387
88551W        W47812  19.043  34.920   2.677
88552W        W47813  38.025  22.547  10.053
88553W        W47814  43.439  41.432  14.460
88554W        W47815  31.000   8.708   3.659
88555W        W47816  13.801   6.691   4.346
88556W        W47817  19.743  36.548   3.684
88557W        W47818  18.587   5.840  12.025
88558W        W47819  24.500  18.657   2.783
88559W        W47820   0.327  41.969  11.510
88560W        W47821  39.509   8.183   3.839
88561W        W47822  39.327  15.749   3.353
88562W        W47823   2.956  28.084  13.825
88563W        W47824  41.483  31.496  10.612
88564W        W47825  44.891  14.302  10.898
88565W        W47826  28.606  22.148  12.539
88566W        W47827  24.130  32.544   2.721
88567W        W47828  30.925  23.064  14.760
88568W        W47829  22.591  38.448   3.776
88569W        W47830  35.542   3.268  14.008
88570W        W47831  30.099  37.905  10.953
88571W        W47832  37.887  16.588  13.394
88572W        W47833  16.111  15.266   0.363
88573W        W47834  21.257  24.555  11.475
88574W        W47835  12.129   2.276   0.480
88575W        W47836   4.327   8.806   0.868
88576W        W47837  13.169  26.147   4.302
88577W        W47838  14.202   5.324  13.507
88578W        W47839  43.882  44.295   2.801
88579W        W47840   2.841  31.585  12.459
88580W        W47841   2.374  30.036  14.772
88581W        W47842  18.623  13.134   2.241
88582W        W47843  35.548  31.077  13.894
88583W        W47844  11.681   8.690  13.854
88584W        W47845   2.343  16.178   2.878
88585W        W47846   5.422  19.564  13.434
88586W        W47847  28.545   7.305   0.472
88587W        W47848  33.027  20.599   2.376
88588W        W47849   7.219  29.619  11.080
88589W        W47850  11.772   5.429  11.052
88590W        W47851  39.050  23.527  14.393
88591W        W47852   1.282  26.118  10.984
88592W        W47853  33.562   4.251   3.843
88593W        W47854  40.862  24.576  13.409
88594W        W47855  37.901   3.441  12.941
88595W        W47856  40.959  18.581  12.836
88596W        W47857  23.493   9.232  12.838
88597W        W47858  33.480  19.553   2.736
88598W        W47859  34.615  11.368   5.805
88599W        W47860   9.163  14.612   1.370
88600W        W47861   4.925   0.911   1.292
88601W        W47862   7.695  30.582  11.415
88602W        W47863  30.485  33.390  12.852
88603W        W47864  19.189  11.660   3.248
88604W        W47865   0.329  37.415  11.079
88605W        W47866  30.098   5.806   1.237
88606W        W47867  21.516  40.926   2.719
88607W        W47868   9.651  31.101  13.968
88608W        W47869  29.598   7.756  12.950
88609W        W47870   8.403  19.145  14.928
88610W        W47871  28.474   7.294   3.237
88611W        W47872  11.653  14.307  11.573
88612W        W47873   9.286  39.005  11.474
88613W        W47874   1.943   8.245  14.398
88614W        W47875  31.405  34.511   0.416
88615W        W47876  14.294  44.309   4.755
88616W        W47877   9.247  26.983  12.417
88617W        W47878  14.775  11.180   2.706
88618W        W47879   6.841  22.509  13.509
88619W        W47880  19.727  34.933  10.464
88620W        W47881  14.650  35.899   1.238
88621W        W47882   1.427  10.775   2.842
88622W        W47883   0.436  31.614  11.990
88623W        W47884  19.590  21.178   5.143
88624W        W47885  12.693  40.345  13.442
88625W        W47886  44.987  18.264  14.418
88626W        W47887  41.957   6.414  13.334
88627W        W47888   4.714  20.584   2.666
88628W        W47889  40.397  33.048   4.173
88629W        W47890  16.622  38.557   2.196
88630W        W47891  38.052  30.552   5.122
88631W        W47892  10.149  38.480  11.927
88632W        W47893  36.473  28.130   1.857
88633W        W47894  33.083   6.774   1.815
88634W        W47895   8.281  35.410   1.240
88635W        W47896  41.797  12.168   3.365
88636W        W47897   3.378  14.722   1.700
88637W        W47898   4.891  10.824   4.203
88638W        W47899  33.495  21.729   2.329
88639W        W47900  31.951   8.660  11.379
88640W        W47901  18.656  15.219  12.506
88641W        W47902   4.311  18.073   0.411
88642W        W47903  25.966  24.660  13.932
88643W        W47904  30.621   5.296  10.432
88644W        W47905  36.496  18.090  11.936
88645W        W47906  15.699  32.433   2.896
88646W        W47907   0.802  44.334  11.558
88647W        W47908  38.427   8.885  12.394
88648W        W47909  19.581  25.039  10.911
88649W        W47910  43.360  41.848  13.997
88650W        W47911   2.720  39.503  11.472
88651W        W47912   8.720   7.324   4.227
88652W        W47913   5.292   4.847   3.213
88653W        W47914   6.298  19.180  11.872
88654W        W47915  30.099  11.256   1.280
88655W        W47916   4.819  18.545  13.531
88656W        W47917  21.117  25.634  12.365
88657W        W47918  31.569  40.944  11.472
88658W        W47919   7.752  34.442  11.062
88659W        W47920  36.854  27.187   0.377
88660W        W47921  12.714  20.622   2.827
88661W        W47922  25.211  37.943  10.979
88662W        W47923   4.838  10.357  11.602
88663W        W47924  32.499  38.919   2.350
88664W        W47925  29.501  41.391   2.394
88665W        W47926  12.805  22.105  12.982
88666W        W47927  15.284  31.122   2.734
88667W        W47928  19.238  28.484  14.954
88668W        W47929  15.143  16.719  12.480
88669W        W47930  20.230  21.675  13.510
88670W        W47931   2.726   2.938  14.303
88671W        W47932  13.128  15.196   2.217
88672W        W47933  15.301  31.098  14.420
88673W        W47934  28.621  44.001   4.827
88674W        W47935  14.743  25.598  12.484
88675W        W47936   1.787  43.324  10.626
88676W        W47937  44.384  44.473   3.653
88677W        W47938  22.565  26.525  12.578
88678W        W47939   7.688  17.276  11.022
88679W        W47940  13.707  10.735  13.929
88680W        W47941   4.438  23.108   1.844
88681W        W47942  41.798   1.932  14.402
88682W        W47943  12.626  37.860   3.245
88683W        W47944  13.657   1.399   0.349
88684W        W47945  43.926  17.235  12.974
88685W        W47946  37.459  10.864   3.322
88686W        W47947  30.538   1.338   4.601
88687W        W47948  36.513   0.303   3.707
88688W        W47949  16.577  38.457  12.074
88689W        W47950   2.864  35.991  14.481
88690W        W47951   4.916  36.083   2.864
88691W        W47952  41.858  35.096  11.099
88692W        W47953  19.627  40.393   5.117
88693W        W47954  19.662  25.472  11.451
88694W        W47955  40.820  28.980  12.417
88695W        W47956  25.109  11.757   0.349
88696W        W47957  44.464  41.935   0.252
88697W        W47958   7.717  25.005  13.988
88698W        W47959  16.266  30.127   1.430
88699W        W47960  44.454  24.661  12.349
88700W        W47961  22.073  27.193  13.909
88701W        W47962  18.751  37.040  11.919
88702W        W47963  16.704  26.068  12.011
88703W        W47964  30.932  23.045  10.421
88704W        W47965  30.063   9.341  13.466
88705W        W47966  14.099  17.690  11.996
88706W        W47967  30.520   0.459   2.876
88707W        W47968   8.838  22.091   1.348
88708W        W47969  33.561  16.613  11.479
88709W        W47970   8.347  27.100  10.963
88710W        W47971  16.206  26.971   1.838
88711W        W47972  27.638  31.037  12.388
88712W        W47973  29.536  35.451  10.101
88713W        W47974  12.736  32.080  14.350
88714W        W47975  18.589  36.846   2.899
88715W        W47976  32.131  35.010   0.804
88716W        W47977  42.910  11.708  12.478
88717W        W47978  32.889  43.784   3.672
88718W        W47979  12.783  13.831  14.370
88719W        W47980  36.389  21.743   1.715
88720W        W47981   5.807  36.845  12.935
88721W        W47982  20.226   1.246   1.214
88722W        W47983  12.695  44.361  13.497
88723W        W47984   6.878  12.742   0.293
88724W        W47985  19.057  44.964  12.835
88725W        W47986   4.406  26.623  11.890
88726W        W47987  42.421  12.815   3.174
88727W        W47988  24.218   3.355   3.716
88728W        W47989   7.808  44.391   1.299
88729W        W47990  21.650  35.868   4.829
88730W        W47991  16.808   0.851   0.415
88731W        W47992   0.931   5.424  12.874
88732W        W47993  15.158   7.331  11.551
88733W        W47994  17.795   2.249   3.769
88734W        W47995  36.408  30.601   2.322
88735W        W47996  11.217  35.091  10.598
88736W        W47997  42.926  28.530   4.315
88737W        W47998  31.133  37.519   0.734
88738W        W47999  29.578  18.659   0.803
88739W        W48000  29.136  32.040  14.005
88740W        W48001  41.943  18.242  12.506
88741W        W48002  42.826  43.416  10.904
88742W        W48003  31.593  11.180  12.865
88743W        W48004   6.390  25.135   0.478
88744W        W48005  42.948  16.244   4.302
88745W        W48006  36.363   4.891   3.687
88746W        W48007  25.035  30.106   1.308
88747W        W48008  29.038  20.710  14.365
88748W        W48009  41.920  37.012   0.898
88749W        W48010  23.069  43.283  13.862
88750W        W48011  24.594   2.894   1.734
88751W        W48012   0.380  31.922   3.689
88752W        W48013   1.440  24.681  10.606
88753W        W48014  35.496  24.641   4.171
88754W        W48015   8.760  27.613  13.857
88755W        W48016   7.359  20.645   2.406
88756W        W48017  35.569  29.073  10.509
88757W        W48018  20.115   2.332  12.524
88758W        W48019  30.629  28.069   2.295
88759W        W48020  27.985  23.621   0.776
88760W        W48021  25.975  28.150   3.225
88761W        W48022  36.509  28.460   3.800
88762W        W48023  25.112   1.900   3.232
88763W        W48024   1.290  25.595  14.895
88764W        W48025   9.698   2.357   3.743
88765W        W48026  37.571   1.840  10.914
88766W        W48027   3.955  30.580   4.149
88767W        W48028  33.903  35.500   4.240
88768W        W48029  39.417  20.572  13.403
88769W        W48030   2.402  36.399   2.178
88770W        W48031  15.289   0.441  12.542
88771W        W48032  40.908  33.441   1.231
88772W        W48033  28.022   9.262  13.491
88773W        W48034  36.453  10.634  11.941
88774W        W48035   6.200   0.444  14.422
88775W        W48036  43.412  30.564   2.776
88776W        W48037  14.096  28.573  13.340
88777W        W48038   3.307  15.316  11.422
88778W        W48039  15.793   6.723  13.025
88779W        W48040  27.131   1.805  11.086
88780W        W48041  11.224  22.094  11.112
88781W        W48042  25.200  44.277   3.268
88782W        W48043  16.253  36.843  12.922
88783W        W48044   9.168   0.290   2.367
88784W        W48045  39.356  16.688   3.378
88785W        W48046  22.638  19.180  11.569
88786W        W48047  20.050  26.468   2.833
88787W        W48048  25.594  10.832   0.256
88788W        W48049  27.576  20.531  10.517
88789W        W48050  21.625  36.413   2.378
88790W        W48051  25.142  31.995   5.128
88791W        W48052   1.936  34.447  14.376
88792W        W48053   7.220  22.162  14.850
88793W        W48054  20.157  44.363  12.470
88794W        W48055  29.518  21.545   2.340
88795W        W48056  16.610  12.740  11.084
88796W        W48057  20.061  43.347   0.261
88797W        W48058  14.727  23.001   1.417
88798W        W48059  33.485  29.104   1.872
88799W        W48060  20.715  31.465  14.801
88800W        W48061   7.392  14.296  14.341
88801W        W48062  31.562   3.326  14.966
88802W        W48063  29.941  36.472   4.774
88803W        W48064  29.567   7.282   1.367
88804W        W48065  19.540  16.641   4.340
88805W        W48066  16.285  40.968  12.411
88806W        W48067  13.612  22.194   0.369
88807W        W48068   3.372  20.744   1.720
88808W        W48069  26.593  44.481   4.161
88809W        W48070  41.393  28.136   2.777
88810W        W48071  19.638  22.617   5.619
88811W        W48072  30.927  24.151   2.228
88812W        W48073  20.726  14.658  11.069
88813W        W48074  36.042   0.758   4.344
88814W        W48075  24.674  15.695  11.542
88815W        W48076  17.203  37.075  13.983
88816W        W48077   9.189  41.945  11.050
88817W        W48078  15.311  22.092  12.845
88818W        W48079  36.978  40.443  14.798
88819W        W48080   8.196  24.217  11.060
88820W        W48081   5.392  35.526  10.481
88821W        W48082   0.391  34.999   0.798
88822W        W48083  37.876  21.218   1.785
88823W        W48084  25.974  13.344  11.060
88824W        W48085   4.228   5.375  14.351
88825W        W48086  19.128  30.473  10.404
88826W        W48087  24.639  24.628  13.508
88827W        W48088  35.549  11.332   4.115
88828W        W48089  35.061   4.802   0.788
88829W        W48090  36.500  18.596   0.337
88830W        W48091  28.175  24.977  11.084
88831W        W48092  24.983   5.854   3.236
88832W        W48093   5.715  38.973   4.784
88833W        W48094  39.943   0.398  12.835
88834W        W48095   8.177  33.993   3.210
88835W        W48096  27.641  28.458   3.649
88836W        W48097  17.305  24.634   0.474
88837W        W48098  35.463  24.557   2.399
88838W        W48099  16.585  35.515  13.866
88839W        W48100  33.066  27.483   0.279
88840W        W48101   6.786   5.248  14.473
88841W        W48102  42.001  43.373   2.751
88842W        W48103  11.181   5.260  12.577
88843W        W48104  21.136  42.963  13.540
88844W        W48105  15.170  20.047   2.751
88845W        W48106  39.997  27.002   4.627
88846W        W48107  10.728  39.000   4.643
88847W        W48108  41.887   8.284   1.725
88848W        W48109  30.565  30.976  13.507
88849W        W48110  14.800  41.838   0.423
88850W        W48111  20.049  25.166  10.960
88851W        W48112  24.528   8.263  13.018
88852W        W48113  28.079   2.230  11.129
88853W        W48114  29.493  42.490   3.700
88854W        W48115  19.736  39.895   2.413
88855W        W48116  40.529  33.396  12.424
88856W        W48117  15.186  11.804  13.843
88857W        W48118  21.561   4.433  13.802
88858W        W48119  33.956  43.342  12.044
88859W        W48120   9.375  23.150  13.484
88860W        W48121  41.534  40.374   3.175
88861W        W48122  10.823  39.016  12.502
88862W        W48123  43.294  34.051   2.203
88863W        W48124  13.753  14.166  10.557
88864W        W48125  30.429  17.279   1.795
88865W        W48126  25.140  26.482   4.674
88866W        W48127  24.222  43.358   4.254
88867W        W48128   8.381  25.649   1.723
88868W        W48129  25.669   4.391   2.825
88869W        W48130  27.018   1.878  10.560
88870W        W48131  26.166  44.298  12.526
88871W        W48132  27.669  26.141   1.822
88872W        W48133  29.497  35.110   0.384
88873W        W48134  25.066   3.888   4.142
88874W        W48135  15.245  27.499   5.302
88875W        W48136  23.712  25.538  12.897
88876W        W48137   3.272  41.325  10.539
88877W        W48138   2.417   6.803   2.387
88878W        W48139   2.802  34.426   4.243
88879W        W48140  34.106  12.712   0.303
88880W        W48141  27.518  25.183   3.360
88881W        W48142  18.157   3.281  14.866
88882W        W48143  29.466   0.941  13.382
88883W        W48144  33.999  33.026   2.346
88884W        W48145   0.489   5.214  11.058
88885W        W48146  26.094  15.820   0.368
88886W        W48147  41.353  43.497   2.808
88887W        W48148  27.572  44.000  14.437
88888W        W48149  35.110  44.822  14.291
88889W        W48150  41.425   5.880  13.034
88890W        W48151   6.394  35.037   0.821
88891W        W48152   5.836  13.257  10.975
88892W        W48153   8.333  25.005   0.777
88893W        W48154  23.631  44.839  13.986
88894W        W48155  44.363  19.600   4.208
88895W        W48156   1.956  37.939   2.837
88896W        W48157  34.048  12.616   1.820
88897W        W48158  23.611  22.241   2.400
88898W        W48159  28.108  34.439  11.532
88899W        W48160  44.385  15.183   0.949
88900W        W48161  39.948  25.527  13.050
88901W        W48162  37.957  10.850  11.089
88902W        W48163  39.010  43.861   1.406
88903W        W48164  16.799  17.781   0.307
88904W        W48165  33.949  16.106   1.865
88905W        W48166  26.677  27.621   0.781
88906W        W48167  28.553  32.933  14.431
88907W        W48168   1.850  44.922   1.715
88908W        W48169  13.685  29.652   4.786
88909W        W48170  22.519  22.625   3.789
88910W        W48171  19.719  31.133   3.870
88911W        W48172  11.854  42.849  12.477
88912W        W48173  28.499  27.679   1.293
88913W        W48174  19.155  15.687   1.833
88914W        W48175  32.104  35.058   2.875
88915W        W48176  20.685  39.867  11.050
88916W        W48177  22.701  13.152   1.444
88917W        W48178  40.476  17.133   4.285
88918W        W48179  32.476  22.524   3.837
88919W        W48180  34.035   0.762   2.393
88920W        W48181  32.457  13.209  12.849
88921W        W48182   1.471  43.010   2.737
88922W        W48183  26.687  23.211   2.356
88923W        W48184  36.073  20.233  12.065
88924W        W48185  32.924  39.440  13.970
88925W        W48186  31.969   6.212   2.397
88926W        W48187   4.916  44.972  13.542
88927W        W48188  30.994  43.454  11.961
88928W        W48189  24.008  38.994   5.214
88929W        W48190  36.516  33.028  11.391
88930W        W48191  19.055  33.962  10.551
88931W        W48192  41.384  19.555  10.903
88932W        W48193   5.317  21.174  14.769
88933W        W48194  19.644  30.094  14.840
88934W        W48195  20.555  13.795   2.189
88935W        W48196  31.632  26.667  14.478
88936W        W48197  20.653  44.268  10.414
88937W        W48198  39.830  44.273  13.890
88938W        W48199  10.316   5.378   3.760
88939W        W48200  24.684   1.262   4.627
88940W        W48201  37.940  28.601  12.924
88941W        W48202  23.552  19.777  12.940
88942W        W48203  33.056  26.968   3.869
88943W        W48204  14.716  43.492  14.360
88944W        W48205  39.952  11.856   4.822
88945W        W48206  13.112  37.870  10.897
88946W        W48207  33.063   4.834   2.777
88947W        W48208  28.471  19.579   4.744
88948W        W48209  32.965  35.070  14.274
88949W        W48210  30.085  27.976   1.257
88950W        W48211  41.314  23.627  12.054
88951W        W48212  29.931  12.636   3.848
88952W        W48213  25.016   7.873   5.291
88953W        W48214   2.840  25.659   1.332
88954W        W48215  12.670  43.917  11.577
88955W        W48216  38.908  16.579   1.750
88956W        W48217  28.627   1.910   2.871
88957W        W48218  33.569   6.221   2.192
88958W        W48219  30.506  22.515  11.087
88959W        W48220  34.591  43.379  14.015
88960W        W48221  17.776  20.531   1.720
88961W        W48222  27.984  35.902  12.933
88962W        W48223  14.266  16.571   0.273
88963W        W48224  36.877  13.743   1.710
88964W        W48225  29.105  11.323   5.721
88965W        W48226   2.260  27.585   1.794
88966W        W48227  28.149   0.450   1.752
88967W        W48228   7.334  43.874  11.558
88968W        W48229  42.948   1.825   0.790
88969W        W48230   6.235  40.984  12.499
88970W        W48231  39.042   1.362   3.734
88971W        W48232  29.617  28.482   2.680
88972W        W48233  28.105  28.077  13.538
88973W        W48234  39.405  44.295   4.757
88974W        W48235  40.840   3.322   4.619
88975W        W48236  24.708  15.288   3.295
88976W        W48237  21.677  37.866   0.474
88977W        W48238  27.977  29.502  10.444
88978W        W48239  14.798  14.231   4.150
88979W        W48240  11.838   7.245  11.067
88980W        W48241  42.512  41.356  13.864
88981W        W48242  39.894  24.165   4.626
88982W        W48243  29.653  41.938   1.866
88983W        W48244  40.513   9.376  13.343
88984W        W48245   2.790   5.725  14.837
88985W        W48246  29.945   3.828  14.915
88986W        W48247  29.943   7.344  11.489
88987W        W48248  10.734  41.900  11.405
88988W        W48249  26.462  30.595   0.281
88989W        W48250  36.059   4.863  11.596
88990W        W48251  38.998  30.054   3.674
88991W        W48252  44.006  22.528  12.919
88992W        W48253  14.104  14.256   1.694
88993W        W48254   8.868  20.750   1.420
88994W        W48255  21.560  36.929   2.764
88995W        W48256   1.784  35.427   4.788
88996W        W48257  30.043  44.782   0.963
88997W        W48258   3.869   7.825  14.357
88998W        W48259  36.399   9.213  12.015
88999W        W48260  29.134   6.400  12.968
89000W        W48261  38.373  17.633  11.575
89001W        W48262  16.757  22.733  11.056
89002W        W48263  32.965  15.810   3.257
89003W        W48264   7.329  41.307   1.219
89004W        W48265   3.839  43.988   4.746
89005W        W48266   7.248  32.915  14.389
89006W        W48267  35.581  38.554   2.818
89007W        W48268  27.571   0.751  14.326
89008W        W48269  40.378   7.344  11.452
89009W        W48270  25.156  29.996   3.664
89010W        W48271   7.403  12.645   2.218
89011W        W48272  30.622  34.058   4.758
89012W        W48273  17.781  13.275  13.938
89013W        W48274  25.672  16.267   0.484
89014W        W48275  20.627  32.921   3.780
89015W        W48276   2.298  22.058   0.732
89016W        W48277  35.391  25.658  12.026
89017W        W48278   0.763  33.531  10.484
89018W        W48279  30.012   9.843  10.547
89019W        W48280   8.196   4.304  10.994
89020W        W48281   9.868   7.329   2.675
89021W        W48282   6.696  11.755   3.638
89022W        W48283  18.200   9.888   2.300
89023W        W48284  34.936  13.314   0.381
89024W        W48285  19.116  21.241  13.458
89025W        W48286  10.229  23.197  11.876
89026W        W48287  17.740  41.980   0.430
89027W        W48288  18.192  32.540   3.153
89028W        W48289  35.493  28.570  14.804
89029W        W48290   0.861   8.868   2.770
89030W        W48291  15.604   1.760   0.334
89031W        W48292  12.337  24.072  14.930
89032W        W48293   5.777  22.239   2.734
89033W        W48294   5.281   6.833   1.300
89034W        W48295  35.361  37.348   0.328
89035W        W48296  24.546  31.923   1.375
89036W        W48297  18.722  17.625   2.316
89037W        W48298  24.720  40.933   2.224
89038W        W48299  25.213  14.178  12.881
89039W        W48300  19.711   7.372  13.857
89040W        W48301  22.164  32.999   4.714
89041W        W48302   5.413  37.913  11.484
89042W        W48303  37.565  39.487  14.822
89043W        W48304  18.279   0.480   0.282
89044W        W48305   4.771  43.012   0.389
89045W        W48306  29.594  19.633  12.433
89046W        W48307  24.489   9.298  13.858
89047W        W48308  22.541  17.115   4.828
89048W        W48309  32.584   6.922  13.879
89049W        W48310  30.919  27.602   1.891
89050W        W48311   0.387  37.866   3.375
89051W        W48312   3.232  30.444   3.735
89052W        W48313  27.479  32.396  11.386
89053W        W48314  38.973   2.345   2.212
89054W        W48315  18.608  35.358  14.767
89055W        W48316  41.939   2.908  11.432
89056W        W48317  26.152  35.923  12.557
89057W        W48318  12.678  28.509  10.514
89058W        W48319  13.113  21.215  14.837
89059W        W48320  37.577   7.809  14.999
89060W        W48321   5.438  19.649  12.426
89061W        W48322  28.069  22.590  10.504
89062W        W48323  34.588  13.188   2.827
89063W        W48324   6.769  31.525  12.916
89064W        W48325  40.846  34.479  14.930
89065W        W48326  27.166  26.957   1.399
89066W        W48327  28.186   9.174   1.393
89067W        W48328  17.667  43.329   2.264
89068W        W48329  10.784  29.464  10.591
89069W        W48330  21.627  26.065  10.408
89070W        W48331  18.661   3.719   2.893
89071W        W48332  13.750  31.448  13.889
89072W        W48333   2.835   1.942  13.962
89073W        W48334  21.181  43.782   4.155
89074W        W48335  10.345  31.045   3.373
89075W        W48336   6.352  36.557  11.024
89076W        W48337  12.358  18.569  14.346
89077W        W48338  18.140   0.371  14.317
89078W        W48339   5.697  17.276  10.585
89079W        W48340   3.260  20.118  14.443
89080W        W48341  42.784  20.681  14.025
89081W        W48342  32.975  20.653  11.875
89082W        W48343  44.984  31.448  12.063
89083W        W48344  39.493  22.693  13.945
89084W        W48345  26.618  18.248  14.445
89085W        W48346  39.022  34.077  13.798
89086W        W48347   3.828  11.790   4.810
89087W        W48348  12.261  16.080  12.458
89088W        W48349   9.823  12.682  12.936
89089W        W48350  14.156   4.794   0.253
89090W        W48351  43.943  10.263  14.995
89091W        W48352  41.832  37.020  12.084
89092W        W48353   0.844  17.649   0.293
89093W        W48354  21.609  29.036   5.237
89094W        W48355   3.876  21.056   4.299
89095W        W48356  13.640  25.474  12.916
89096W        W48357  25.099  36.402  13.061
89097W        W48358   9.752  13.160  13.856
89098W        W48359  22.656  14.243  11.965
89099W        W48360   5.311  44.334  11.083
89100W        W48361   6.898  41.893   3.367
89101W        W48362   0.273   6.284  11.020
89102W        W48363  30.034  41.913   3.692
89103W        W48364   8.750  14.652   2.662
89104W        W48365  26.561  36.362   4.248
89105W        W48366  29.101   2.890   0.948
89106W        W48367  11.234  22.019   4.655
89107W        W48368  26.702  11.243   4.164
89108W        W48369  27.562  42.813  12.826
89109W        W48370  23.615  41.310   1.782
89110W        W48371  11.164  30.022  12.526
89111W        W48372  42.951  13.140  10.624
89112W        W48373  37.079  30.584   3.353
89113W        W48374  31.090  21.675  12.950
89114W        W48375  30.103   8.834   1.301
89115W        W48376  34.874  27.973  11.557
89116W        W48377  38.430  25.127   0.881
89117W        W48378   4.385   5.905  14.800
89118W        W48379  39.842  12.203   3.855
89119W        W48380  42.406  16.698  14.958
89120W        W48381  38.049  43.435   4.635
89121W        W48382  18.557  34.520  11.394
89122W        W48383  12.839  39.434   1.744
89123W        W48384  31.523   6.421  14.900
89124W        W48385   8.789   1.949   2.365
89125W        W48386  42.895  34.442   0.249
89126W        W48387  34.022  31.960   3.807
89127W        W48388  11.193  12.249  13.052
89128W        W48389  19.680  37.074   1.291
89129W        W48390  39.960  40.877   2.222
89130W        W48391   1.887  35.440   2.288
89131W        W48392  19.126   8.287  14.847
89132W        W48393  34.993   1.926  11.988
89133W        W48394  16.689  35.383   2.829
89134W        W48395   6.227  22.678  12.036
89135W        W48396  35.589  40.882  14.464
89136W        W48397   4.733  43.867  11.907
89137W        W48398  16.657  30.433  14.326
89138W        W48399  14.267  20.758  13.473
89139W        W48400  42.002   9.256  13.361
89140W        W48401  21.574  32.443   3.338
89141W        W48402  30.986  12.706  11.895
89142W        W48403  29.926  23.116   4.771
89143W        W48404  23.720  40.880   1.856
89144W        W48405  10.663  41.518   3.715
89145W        W48406   6.771  26.649   2.191
89146W        W48407  17.131   8.194  13.386
89147W        W48408  41.315  38.032  11.011
89148W        W48409  31.608   1.792   1.743
89149W        W48410  16.140   2.839   3.239
89150W        W48411  35.945  10.385   3.149
89151W        W48412  19.604  11.839   0.269
89152W        W48413  16.121   5.922  11.914
89153W        W48414  17.141   4.356  11.956
89154W        W48415   3.451  42.516   4.740
89155W        W48416   6.303  33.538   4.793
89156W        W48417   9.273   2.301   3.220
89157W        W48418  44.268  43.491   3.232
89158W        W48419  12.161  15.322   4.780
89159W        W48420  11.331  44.942   3.790
89160W        W48421  32.911  37.966   2.235
89161W        W48422   2.932   7.202  10.900
89162W        W48423  12.324  17.103   2.275
89163W        W48424  31.000   7.854  12.537
89164W        W48425  31.427  31.043  14.817
89165W        W48426  28.675   4.926   4.633
89166W        W48427  11.810  38.482  11.388
89167W        W48428  29.613  10.734   2.336
89168W        W48429   5.197  31.927  14.280
89169W        W48430   3.349  16.673   0.917
89170W        W48431  30.128   2.787  10.463
89171W        W48432  24.640  13.679   2.219
89172W        W48433  19.050  29.499   0.457
89173W        W48434  13.662  17.288  10.612
89174W        W48435   7.311  32.561   1.220
89175W        W48436  31.516  36.022   5.771
89176W        W48437  15.822   7.860   1.283
89177W        W48438  25.965  38.048   4.795
89178W        W48439  42.474  22.739  13.972
89179W        W48440  37.897  19.618  10.544
89180W        W48441  39.956  35.879  12.381
89181W        W48442  28.625  39.869  13.490
89182W        W48443  15.693  16.707  10.054
89183W        W48444  22.019  12.276   2.252
89184W        W48445  20.639   7.209   4.715
89185W        W48446  31.952  27.102  12.448
89186W        W48447  21.050  31.506  13.306
89187W        W48448  30.043  13.220   1.917
89188W        W48449  43.952  23.050  11.095
89189W        W48450  44.912  29.624  12.489
89190W        W48451  14.807  36.566  10.639
89191W        W48452  19.178  34.391   2.877
89192W        W48453   7.751  38.436   3.173
89193W        W48454  25.530  18.108   4.640
89194W        W48455  24.684  11.830   0.770
89195W        W48456  36.539   8.743   1.895
89196W        W48457  17.186  14.596  12.419
89197W        W48458   6.922  35.537  12.390
89198W        W48459  36.528  42.890   4.294
89199W        W48460  11.166  24.119   3.328
89200W        W48461  28.105  40.925  14.883
89201W        W48462  44.351   6.409  14.441
89202W        W48463  13.194  19.198  12.359
89203W        W48464   2.343  12.137   4.791
89204W        W48465  15.270  32.523  12.965
89205W        W48466  18.203  10.289   2.663
89206W        W48467  20.048   0.411  11.445
89207W        W48468  41.942   5.742  14.422
89208W        W48469   4.880  11.202  14.940
89209W        W48470  21.169  13.727  11.037
89210W        W48471  17.737   3.785   3.779
89211W        W48472  21.537  42.868  14.361
89212W        W48473  39.066  21.598   0.422
89213W        W48474   9.799  18.286  12.522
89214W        W48475  34.927  42.487   2.414
89215W        W48476  30.138   1.790   4.300
89216W        W48477  17.703  34.115  12.005
89217W        W48478   7.675  24.557  14.993
89218W        W48479  19.076   2.818  10.591
89219W        W48480  33.087  18.734   3.853
89220W        W48481  18.158  42.310  14.472
89221W        W48482  14.703  41.816  14.844
89222W        W48483   4.789  18.710  13.993
89223W        W48484  40.860   3.368   3.733
89224W        W48485   0.772   4.446   3.260
89225W        W48486   1.340  33.989  13.008
89226W        W48487  14.094  36.514  12.389
89227W        W48488  30.026  21.184  11.483
89228W        W48489  26.473  21.744   3.782
89229W        W48490  19.130  33.386   4.120
89230W        W48491  34.897  17.764  12.996
89231W        W48492  37.887  40.920   3.725
89232W        W48493  36.362  41.877  13.825
89233W        W48494  15.579   5.841   1.373
89234W        W48495  26.106  19.689   0.387
89235W        W48496  21.669  11.341   0.394
89236W        W48497  25.010  13.801   1.245
89237W        W48498  14.182  30.585  13.017
89238W        W48499  33.899  23.524  14.807
89239W        W48500  15.781  20.553   0.482
89240W        W48501  40.313  21.740   1.863
89241W        W48502  15.233  26.207   4.199
89242W        W48503  34.004  19.717  10.618
89243W        W48504  37.858  24.708  13.926
89244W        W48505  41.947  13.603  14.878
89245W        W48506  30.577  28.521   2.777
89246W        W48507  19.215  17.186   4.666
89247W        W48508  35.982  31.616   4.732
89248W        W48509  27.588   3.776   3.845
89249W        W48510  10.357  34.950   2.730
89250W        W48511  39.884  20.051   1.820
89251W        W48512  31.522   3.833   0.348
89252W        W48513  15.114  27.677   0.786
89253W        W48514  37.952   3.260   3.664
89254W        W48515  17.199  27.692   1.269
89255W        W48516  23.674  30.477  14.005
89256W        W48517  24.060  19.714   0.959
89257W        W48518  18.105   4.282   4.265
89258W        W48519  10.277  23.702  12.019
89259W        W48520  13.165  26.492  14.954
89260W        W48521  26.551   7.255  14.850
89261W        W48522  12.738  17.609   9.461
89262W        W48523  28.954  44.758  14.858
89263W        W48524   9.716  27.597  12.840
89264W        W48525  17.167   8.694  13.857
89265W        W48526  27.036  26.503  10.096
89266W        W48527  31.144  39.810   9.621
89267W        W48528   3.450  29.084   2.238
89268W        W48529  40.913   8.376   4.196
89269W        W48530  31.946  32.131  10.975
89270W        W48531   2.334  23.067   4.133
89271W        W48532   8.803  10.365   3.653
89272W        W48533  22.222  35.602  11.008
89273W        W48534  38.907  32.905  13.361
89274W        W48535  26.010  22.188  13.346
89275W        W48536  32.896  16.603   1.358
89276W        W48537  29.027   7.196  14.277
89277W        W48538  38.364  25.668  12.838
89278W        W48539  29.978  40.448  12.355
89279W        W48540   8.717   2.409  14.350
89280W        W48541  31.616   0.248   4.336
89281W        W48542  22.223  41.825  11.386
89282W        W48543   3.362  27.049  12.917
89283W        W48544  19.258  12.288   4.263
89284W        W48545  35.420   8.730  10.415
89285W        W48546   3.261   1.384   3.767
89286W        W48547   7.799  22.613   1.413
89287W        W48548  21.674  36.421   1.264
89288W        W48549   5.791  11.628  13.308
89289W        W48550  15.586  42.868  12.857
89290W        W48551   8.372  43.013  11.559
89291W        W48552  24.711  17.188   1.392
89292W        W48553  16.218   5.693  13.027
89293W        W48554  20.549  43.379   4.223
89294W        W48555  32.585  17.087  14.859
89295W        W48556  12.658  38.514   3.208
89296W        W48557  15.686  38.502   0.394
89297W        W48558  40.392   1.833   2.900
89298W        W48559  26.185  44.972  12.565
89299W        W48560  24.608  35.479   1.338
89300W        W48561  43.369  32.996   4.331
89301W        W48562  36.094  10.793  14.444
89302W        W48563  37.482  21.262   0.865
89303W        W48564  33.901  27.578  13.312
89304W        W48565  37.942  41.017   5.215
89305W        W48566   9.816   9.750  11.562
89306W        W48567   1.315  29.463   2.389
89307W        W48568  32.121  29.607  12.467
89308W        W48569  11.625  40.435  13.374
89309W        W48570  34.944  41.927   3.664
89310W        W48571   0.909  31.451  13.525
89311W        W48572  43.006  40.529  12.859
89312W        W48573  37.421  10.262   0.839
89313W        W48574   4.301  25.485  12.964
89314W        W48575  44.989  33.001   3.749
89315W        W48576   5.815  31.522   1.822
89316W        W48577   4.220  42.288  13.427
89317W        W48578   0.789  44.970  12.451
89318W        W48579   4.858  25.164   0.266
89319W        W48580  24.993   8.334  10.451
89320W        W48581  43.899  40.415   3.678
89321W        W48582  32.604  38.406  14.373
89322W        W48583  26.185  33.562  14.001
89323W        W48584  36.434  32.530   4.229
89324W        W48585  39.025  36.515  12.568
89325W        W48586  26.490  28.052  11.449
89326W        W48587  22.723  28.025  14.447
89327W        W48588  39.909   6.920  10.892
89328W        W48589  35.471  11.355  12.392
89329W        W48590   4.779  23.598   2.812
89330W        W48591   2.426   9.845  14.773
89331W        W48592  12.335  35.440  11.422
89332W        W48593  33.045  36.887   2.194
89333W        W48594   2.872  16.105   4.300
89334W        W48595  24.073  19.263  12.548
89335W        W48596  40.500  18.643   3.376
89336W        W48597  27.132  44.766   4.631
89337W        W48598   9.253   1.465   0.769
89338W        W48599   7.229  26.091  14.975
89339W        W48600   9.372  30.560  12.076
89340W        W48601  31.921  10.757   3.308
89341W        W48602  16.686  22.128  11.892
89342W        W48603  41.812  42.477   4.300
89343W        W48604  30.471  26.141  10.541
89344W        W48605  17.307  38.342   4.178
89345W        W48606  33.573  14.792  10.036
89346W        W48607  20.623  14.714  10.625
89347W        W48608  25.649  16.739   0.849
89348W        W48609   9.879  44.448  12.095
89349W        W48610  19.136   8.812   4.260
89350W        W48611  20.589   0.491   2.845
89351W        W48612  31.441  17.301  10.506
89352W        W48613  15.184  35.542   1.383
89353W        W48614  37.552   1.826   3.304
89354W        W48615  29.110  25.214  12.444
89355W        W48616  13.159  43.943  13.508
89356W        W48617  44.827   9.309  10.512
89357W        W48618  34.398  22.520  10.914
89358W        W48619  43.455   7.876  13.520
89359W        W48620  42.797  37.452  13.031
89360W        W48621   1.473   5.697   2.394
89361W        W48622  28.548  41.986  13.031
89362W        W48623   0.820   1.794  13.025
89363W        W48624  37.998  27.626   4.701
89364W        W48625   2.418  21.698   1.316
89365W        W48626  35.015  20.707   3.281
89366W        W48627  29.054  35.960  13.966
89367W        W48628  12.656   6.337   3.780
89368W        W48629   5.247  32.053   1.784
89369W        W48630  19.604   3.360   3.230
89370W        W48631  17.653  34.068  10.975
89371W        W48632   6.205  31.458   3.214
89372W        W48633  11.726  44.851  12.964
89373W        W48634  21.109  20.190  11.426
89374W        W48635  40.464   3.273   2.312
89375W        W48636  22.233   7.248  11.560
89376W        W48637  16.164  16.315   1.311
89377W        W48638  21.190   7.778  12.037
89378W        W48639  33.530  30.649   1.748
89379W        W48640  22.092  40.872  12.504
89380W        W48641   4.726   0.340  12.927
89381W        W48642  17.613  39.824  13.428
89382W        W48643  20.220  26.180  14.813
89383W        W48644  20.734   9.680   4.617
89384W        W48645   8.216  43.366  11.028
89385W        W48646  10.865  39.063   3.835
89386W        W48647  43.984  29.956   3.641
89387W        W48648  27.155  29.492   4.247
89388W        W48649  13.613  32.116   0.382
89389W        W48650   2.472  42.314   2.359
89390W        W48651   5.914  26.458  13.382
89391W        W48652  37.013   2.727   3.753
89392W        W48653  20.569   9.677   4.241
89393W        W48654   1.270  37.897  11.405
89394W        W48655   2.294  18.257   2.781
89395W        W48656  44.897  31.999   0.373
89396W        W48657  38.401   3.737   0.311
89397W        W48658  42.339   2.406   3.630
89398W        W48659  10.811  30.028  11.875
89399W        W48660  28.552  27.106  14.398
89400W        W48661  15.164  28.936   5.108
89401W        W48662   1.955  39.036   1.315
89402W        W48663  16.231  16.657  13.375
89403W        W48664  36.971  27.631  13.941
89404W        W48665  13.660   6.910   0.875
89405W        W48666  35.441   1.817   2.343
89406W        W48667  22.604   6.846  14.945
89407W        W48668  12.803  15.767  13.881
89408W        W48669  36.082  31.612  12.503
89409W        W48670  16.592  23.040  14.993
89410W        W48671  14.685  30.491  14.867
89411W        W48672  13.165   1.906   2.885
89412W        W48673   8.247  11.308   3.149
89413W        W48674  27.557  22.050   0.920
89414W        W48675  25.130  25.479   2.882
89415W        W48676  29.653  27.565  12.994
89416W        W48677  22.542  42.308  13.889
89417W        W48678  10.821  31.635   3.703
89418W        W48679  18.775  18.206   1.383
89419W        W48680  38.970  16.227  10.420
89420W        W48681  15.153  14.149  12.965
89421W        W48682  24.640   4.838   3.698
89422W        W48683  28.040  15.767   1.324
89423W        W48684  38.477  21.115  12.533
89424W        W48685   6.298   0.949   2.218
89425W        W48686  40.992  35.545   5.287
89426W        W48687   8.657  42.473  11.457
89427W        W48688  43.287  12.721  12.955
89428W        W48689  16.269  43.822   2.889
89429W        W48690  30.484  10.222   3.301
89430W        W48691  10.371  25.494  11.524
89431W        W48692  25.084   4.382   2.804
89432W        W48693  12.322  13.600   2.351
89433W        W48694  28.460   8.380  12.077
89434W        W48695  34.947   2.937  13.822
89435W        W48696  12.682   8.317   3.166
89436W        W48697  29.024  21.512  11.977
89437W        W48698  27.652  14.247  11.037
89438W        W48699  29.561  41.862  14.386
89439W        W48700  22.533  20.142   2.790
89440W        W48701   4.851  38.374  10.532
89441W        W48702  37.840  30.114   1.920
89442W        W48703  40.930   9.804   3.667
89443W        W48704  35.433  36.377   5.303
89444W        W48705  42.394  21.595  12.371
89445W        W48706  32.138   3.432   0.322
89446W        W48707  25.110  34.975   4.262
89447W        W48708  37.895  24.995  11.028
89448W        W48709   5.700   6.815   4.635
89449W        W48710  19.116   6.304   0.453
89450W        W48711  27.641  44.972   1.844
89451W        W48712  24.487  11.244  12.093
89452W        W48713  37.016  40.905   2.774
89453W        W48714  19.265  10.727  11.588
89454W        W48715  10.229  33.990   4.353
89455W        W48716  30.508   4.886  11.584
89456W        W48717   6.712  28.605   3.305
89457W        W48718  24.058   4.265   0.323
89458W        W48719  34.503   2.376  12.007
89459W        W48720  10.660   3.404   5.756
89460W        W48721  28.943  12.702   0.414
89461W        W48722  29.077   4.770  10.418
89462W        W48723   7.210   3.295   4.807
89463W        W48724  42.336  39.898   0.772
89464W        W48725  25.996  43.910   1.338
89465W        W48726  24.702  35.530   0.952
89466W        W48727  40.866  43.393  10.904
89467W        W48728  27.566   5.433  14.425
89468W        W48729  18.083  16.573  11.997
89469W        W48730  21.690  29.050   3.782
89470W        W48731  26.610  31.053  14.485
89471W        W48732  23.075   4.217   1.905
89472W        W48733  26.552  41.432   0.385
89473W        W48734  44.357  28.449  13.388
89474W        W48735  27.184   8.315  13.956
89475W        W48736  34.978  39.001  10.001
89476W        W48737  27.990   2.889   4.159
89477W        W48738  39.815   2.900   3.334
89478W        W48739  24.529  36.993  14.308
89479W        W48740  24.202  40.470   0.750
89480W        W48741  34.114  17.110   0.453
89481W        W48742  13.275  21.588   0.299
89482W        W48743  25.016  40.849  13.910
89483W        W48744   7.887   1.338   0.911
89484W        W48745   4.788   4.721   4.296
89485W        W48746  24.588   3.771  12.442
89486W        W48747   9.301  36.562  12.094
89487W        W48748   8.171  11.758   4.330
89488W        W48749  39.993   5.861   3.371
89489W        W48750   5.359  13.834   1.916
89490W        W48751  38.933  44.854  10.926
89491W        W48752  19.742  24.029  10.158
89492W        W48753  22.998  43.012   3.293
89493W        W48754   7.322  29.924   3.169
89494W        W48755  33.931  43.955   5.788
89495W        W48756   7.903  21.530   0.742
89496W        W48757  25.212  36.451   5.277
89497W        W48758   4.300   2.236   0.928
89498W        W48759  43.325  31.030  13.961
89499W        W48760   6.704   0.284  13.494
89500W        W48761  13.310  17.259   4.698
89501W        W48762  11.144  38.061   1.734
89502W        W48763  32.007  43.438  11.024
89503W        W48764  24.217  32.451   1.279
89504W        W48765   2.344   6.771   4.343
89505W        W48766  38.827   2.288   2.685
89506W        W48767   6.884  42.956  11.417
89507W        W48768  39.505  37.041   1.263
89508W        W48769  23.660  31.499  11.902
89509W        W48770  35.854  11.740  11.468
89510W        W48771  15.587  26.070   5.239
89511W        W48772  20.209  10.780  14.836
89512W        W48773   6.210  10.853   0.813
89513W        W48774   0.438  37.042  13.061
89514W        W48775  17.678  12.656   2.663
89515W        W48776  11.779  40.918  10.500
89516W        W48777  38.532  43.461   1.813
89517W        W48778  21.563  10.679  12.368
89518W        W48779   8.814  29.011  12.431
89519W        W48780   5.924  15.645  12.860
89520W        W48781  10.283  11.718  12.977
89521W        W48782  19.605  10.208   1.230
89522W        W48783   1.934  33.400   0.822
89523W        W48784  32.531  29.503  14.478
89524W        W48785  15.228  26.100  12.460
89525W        W48786   9.779  33.094  14.780
89526W        W48787   2.229  12.307  12.969
89527W        W48788   0.787  42.300  13.870
89528W        W48789  37.856  17.721   1.783
89529W        W48790  44.789  16.718   3.313
89530W        W48791  38.427  17.750  13.530
89531W        W48792  22.558  29.105  11.949
89532W        W48793  33.076  33.995   0.300
89533W        W48794  42.440   3.812   2.362
89534W        W48795  11.628  22.996  13.007
89535W        W48796  37.442  44.422   0.297
89536W        W48797  36.392  37.530  11.089
89537W        W48798  37.433  30.039   2.325
89538W        W48799  15.631  15.730  14.977
89539W        W48800  16.591   9.834  12.469
89540W        W48801  33.585  36.953   4.193
89541W        W48802   0.893  38.534   1.880
89542W        W48803  15.209  35.048  12.823
89543W        W48804  11.628  30.636  13.536
89544W        W48805  27.654  29.029  10.497
89545W        W48806  31.940   6.414   3.780
89546W        W48807  18.178  23.140   3.850
89547W        W48808   2.858  28.014  12.522
89548W        W48809  16.656  37.457   2.768
89549W        W48810  37.462   3.824  13.815
89550W        W48811  25.525   7.740  11.920
89551W        W48812  31.001   5.730   2.416
89552W        W48813  19.583   2.902   2.321
89553W        W48814  30.441  39.335   2.749
89554W        W48815  20.035  38.355  13.828
89555W        W48816  38.530   1.425  11.598
89556W        W48817  15.587  39.007   0.833
89557W        W48818  10.214  22.515  10.026
89558W        W48819   2.748  41.434  13.882
89559W        W48820  43.294  31.132   2.746
89560W        W48821  17.630   1.383   2.771
89561W        W48822  20.129  27.056  10.498
89562W        W48823  41.494  26.633  13.340
89563W        W48824  27.550  14.630   4.816
89564W        W48825  22.117  15.160  12.072
89565W        W48826  25.103  20.164   4.237
89566W        W48827  12.645   0.873   1.825
89567W        W48828  32.885  43.434  13.427
89568W        W48829  21.175  34.482   2.815
89569W        W48830  33.523  12.216   1.706
89570W        W48831   9.150   5.231  14.515
89571W        W48832  10.211  24.024  12.083
89572W        W48833  21.235   7.713   1.258
89573W        W48834  14.667   9.749   3.779
89574W        W48835  35.477  20.725   3.174
89575W        W48836  21.049   7.209  12.507
89576W        W48837  18.675  37.466  13.896
89577W        W48838  43.014   6.342  13.922
89578W        W48839  23.671  39.925  13.938
89579W        W48840  34.593  25.155  12.403
89580W        W48841   2.363   2.409  10.421
89581W        W48842   8.284  44.387   2.761
89582W        W48843  39.950  42.378  13.538
89583W        W48844   1.963  37.007   2.256
89584W        W48845  30.003   6.275   3.182
89585W        W48846  31.942   0.412   4.288
89586W        W48847   8.185  34.551   0.434
89587W        W48848  23.654  37.503   1.852
89588W        W48849   7.338  29.580  13.837
89589W        W48850  22.249   4.874  11.406
89590W        W48851  16.302  12.857   2.384
89591W        W48852  14.292   5.228   3.695
89592W        W48853  10.301  28.961   9.989
89593W        W48854  38.483   5.216   1.821
89594W        W48855  44.796  23.107   2.306
89595W        W48856   2.353  16.617   1.716
89596W        W48857  42.321  40.830  13.541
89597W        W48858  29.151  15.717   0.772
89598W        W48859  24.522   9.770  13.399
89599W        W48860  19.106  32.606   4.298
89600W        W48861  30.418  14.318   1.918
89601W        W48862   0.400  22.619   4.828
89602W        W48863  21.715  32.040   0.818
89603W        W48864   2.249  30.970   0.400
89604W        W48865  20.111   4.271  11.409
89605W        W48866  16.290   0.322  11.858
89606W        W48867  28.932  10.637  14.430
89607W        W48868  13.766  17.117  13.798
89608W        W48869  26.191  26.499   3.292
89609W        W48870  37.875  25.150  14.958
89610W        W48871   5.284  13.301   1.340
89611W        W48872   5.329   3.348  14.832
89612W        W48873  16.212  24.211  11.980
89613W        W48874  24.014  11.364  13.992
89614W        W48875   7.357  28.979  14.838
89615W        W48876  34.014  43.449  10.133
89616W        W48877   8.337  35.875   0.778
89617W        W48878  12.623  17.303   4.199
89618W        W48879  33.937  44.424   5.651
89619W        W48880  39.529  19.224  14.464
89620W        W48881  33.132  34.890   2.682
89621W        W48882  31.967  12.833  13.314
89622W        W48883   6.844   5.768   2.348
89623W        W48884  10.164   4.796   2.693
89624W        W48885  36.575  39.511   0.394
89625W        W48886  15.089  13.732   1.864
89626W        W48887  42.878  31.903   2.799
89627W        W48888  14.171  41.338  11.059
89628W        W48889  12.346  10.866   2.739
89629W        W48890  38.516   5.218  13.924
89630W        W48891  24.097  13.175  10.499
89631W        W48892   3.331  31.954   4.262
89632W        W48893  36.404  38.392   0.318
89633W        W48894  11.161   0.259   4.612
89634W        W48895  40.455  37.992   3.228
89635W        W48896  23.608   2.759   2.675
89636W        W48897  15.230  13.332   1.711
89637W        W48898  10.298  17.580   0.461
89638W        W48899  35.483   2.399   3.339
89639W        W48900  24.162  13.142  13.316
89640W        W48901  41.521   7.884   3.798
89641W        W48902  39.820  16.704   2.722
89642W        W48903  18.260  19.642  14.839
89643W        W48904  44.007  38.001   4.345
89644W        W48905  37.553  21.685  11.582
89645W        W48906  20.684   5.833   1.344
89646W        W48907  13.322  23.237  12.967
89647W        W48908  32.407  19.549  10.569
89648W        W48909   6.864  40.501   1.701
89649W        W48910  32.480  34.018   3.162
89650W        W48911  11.169  42.292   3.273
89651W        W48912  40.942  16.292   0.444
89652W        W48913  32.490   0.807   2.397
89653W        W48914  38.924   8.815  13.874
89654W        W48915  26.198  41.438  11.101
89655W        W48916  29.134   9.869  10.441
89656W        W48917  20.529   5.254   0.757
89657W        W48918   8.195  10.359  10.441
89658W        W48919  21.036   9.839   2.867
89659W        W48920   8.168  13.244  14.514
89660W        W48921  43.851   9.213   3.796
89661W        W48922   8.304  26.011   2.283
89662W        W48923  38.357  37.366  12.944
89663W        W48924  11.648  41.880  10.642
89664W        W48925  12.151  14.328   2.844
89665W        W48926  18.295   2.424  13.893
89666W        W48927  16.266   9.847   0.837
89667W        W48928   0.818  34.519   1.273
89668W        W48929  34.871  29.551   1.409
89669W        W48930   2.855   1.395  14.841
89670W        W48931  16.281  42.514  11.013
89671W        W48932   7.881  18.650   4.633
89672W        W48933  17.142   3.817   1.817
89673W        W48934   3.360  43.454  11.491
89674W        W48935   3.299  44.767   0.873
89675W        W48936  13.637  34.004   1.228
89676W        W48937  39.031  20.529   9.987
89677W        W48938  21.687   1.405  12.954
89678W        W48939  25.614  40.046   2.800
89679W        W48940  40.855  32.948   2.392
89680W        W48941  16.579   4.841  12.353
89681W        W48942   5.393   8.194   0.316
89682W        W48943  10.316   7.846   2.902
89683W        W48944  25.613  10.274   4.172
89684W        W48945  11.865  32.141   3.318
89685W        W48946  32.606  27.016  11.990
89686W        W48947  39.820   7.401   4.647
89687W        W48948  24.215  15.777  10.106
89688W        W48949  21.758  32.074  12.898
89689W        W48950   7.832  19.285   3.267
89690W        W48951  15.211   3.787   3.642
89691W        W48952  16.219  30.474  14.006
89692W        W48953  17.102  11.139  10.573
89693W        W48954  20.109  13.323   2.711
89694W        W48955  35.051  21.206  11.011
89695W        W48956   5.299  36.394   0.763
89696W        W48957  38.055  44.005   0.731
89697W        W48958  33.040  25.706  14.951
89698W        W48959  35.418  25.625  11.053
89699W        W48960   3.733  22.657  13.514
89700W        W48961  34.402  23.172   0.317
89701W        W48962  34.903   2.341  11.951
89702W        W48963  27.492  11.302   2.800
89703W        W48964   0.393  24.716  13.009
89704W        W48965  28.549  28.666   4.740
89705W        W48966  35.038   1.739   4.766
89706W        W48967   6.253  36.381  13.874
89707W        W48968  31.553  42.022  12.493
89708W        W48969   4.347   2.225   4.760
89709W        W48970  32.078  10.219   9.566
89710W        W48971  17.215  43.905   0.291
89711W        W48972  11.220   3.395   1.235
89712W        W48973  30.930   5.338  10.935
89713W        W48974   0.794  18.697   5.301
89714W        W48975  24.652  34.406   1.920
89715W        W48976  10.849  15.160  13.323
89716W        W48977  13.167   2.880   1.346
89717W        W48978  40.403  10.876   1.426
89718W        W48979  27.670   1.439   2.270
89719W        W48980  34.531  28.982   2.855
89720W        W48981  37.573  37.500   2.802
89721W        W48982  16.705   5.266  13.465
89722W        W48983  16.136  44.499  13.040
89723W        W48984  12.776   0.977  14.907
89724W        W48985  22.034  21.517   1.849
89725W        W48986  27.525  20.540  12.425
89726W        W48987   1.439   1.835   1.358
89727W        W48988  23.197   9.387   2.836
89728W        W48989  36.432  18.613   0.900
89729W        W48990  25.075  22.219   3.153
89730W        W48991  44.428  21.553   3.291
89731W        W48992  19.658  44.889  10.543
89732W        W48993  23.618  27.004   2.723
89733W        W48994   2.913  43.328   2.851
89734W        W48995  41.808  20.076  14.479
89735W        W48996  41.476   6.801  14.326
89736W        W48997  24.023  36.872   0.415
89737W        W48998  40.356  33.521   4.284
89738W        W48999   7.208  36.561   0.270
89739W        W49000  27.576  15.650  10.948
89740W        W49001  16.113  28.598   2.754
89741W        W49002  12.826  25.111  13.482
89742W        W49003  36.408   7.409   0.250
89743W        W49004  14.245  37.437  14.930
89744W        W49005   8.273   2.447  11.484
89745W        W49006   7.398  28.538  11.568
89746W        W49007  10.828  25.054  12.564
89747W        W49008  44.391  11.306   1.447
89748W        W49009  26.126  23.173   2.347
89749W        W49010  31.898  41.882   3.255
89750W        W49011  10.322  19.676   1.296
89751W        W49012  38.940  42.420   1.257
89752W        W49013  40.951  21.602   1.757
89753W        W49014  27.497   3.256  11.931
89754W        W49015  23.614   9.276  10.924
89755W        W49016  17.699  40.022  11.866
89756W        W49017  44.344  34.918   0.840
89757W        W49018  18.670  44.458  11.573
89758W        W49019  28.049   2.791  13.894
89759W        W49020  30.939   6.908  13.497
89760W        W49021  38.543   9.305   3.735
89761W        W49022  44.326  19.567  11.483
89762W        W49023   1.811  19.749  12.942
89763W        W49024  14.714  38.923   3.239
89764W        W49025  33.060  44.926  14.513
89765W        W49026   0.979  32.049  12.443
89766W        W49027  19.274  33.109  11.029
89767W        W49028   9.752   5.326   2.356
89768W        W49029  24.542  11.650  14.766
89769W        W49030   4.429  40.812  13.015
89770W        W49031  43.460  33.537   3.271
89771W        W49032  17.161  11.306  13.040
89772W        W49033   9.793  31.505  12.949
89773W        W49034  43.832  35.452   0.934
89774W        W49035  26.533  43.943  13.337
89775W        W49036  24.137  10.820   0.451
89776W        W49037  11.253  41.348   3.197
89777W        W49038   0.391  26.181   4.794
89778W        W49039  40.420  32.954  13.329
89779W        W49040  38.871   6.788   1.865
89780W        W49041  22.054  12.223   1.714
89781W        W49042  14.151  31.967   9.936
89782W        W49043   2.959   3.903   3.831
89783W        W49044  39.916  23.007   3.657
89784W        W49045  40.463  39.354  12.957
89785W        W49046  15.636  42.378   1.796
89786W        W49047  13.834  16.140   4.257
89787W        W49048  16.646   8.244  10.563
89788W        W49049   5.333  38.960  11.541
89789W        W49050  38.349  38.834  12.406
89790W        W49051  12.232  34.439  13.471
89791W        W49052  43.426   0.803  11.892
89792W        W49053  42.786  26.092  14.330
89793W        W49054   7.772   4.700  11.559
89794W        W49055  37.541  15.135  13.412
89795W        W49056  33.418  18.203  12.014
89796W        W49057  25.120   3.760   1.870
89797W        W49058  39.456   5.819  12.353
89798W        W49059  30.968  15.209   1.242
89799W        W49060  18.658  29.174   3.165
89800W        W49061   2.324  25.107   0.782
89801W        W49062  19.673  41.462  10.452
89802W        W49063  26.183  15.632  11.422
89803W        W49064   6.314  30.094   2.735
89804W        W49065  19.758  41.512   3.837
89805W        W49066  12.788   8.738   3.674
89806W        W49067  19.737   8.690  12.551
89807W        W49068   4.809  17.788  10.414
89808W        W49069  30.913  24.201  14.951
89809W        W49070   3.315  41.321  11.915
89810W        W49071   2.429  28.631   0.275
89811W        W49072  14.701  37.491  10.417
89812W        W49073  29.953  36.450   4.229
89813W        W49074   7.772  42.508  14.782
89814W        W49075  14.817  37.075  13.879
89815W        W49076  15.613  25.086   4.316
89816W        W49077  35.028  16.276   1.796
89817W        W49078  27.677  30.634   4.164
89818W        W49079  41.014  39.371   4.126
89819W        W49080  32.936  28.069  10.434
89820W        W49081   3.725  18.761  12.961
89821W        W49082  13.696  30.985  12.566
89822W        W49083  23.209  22.601  11.089
89823W        W49084  17.088  40.362   1.398
89824W        W49085  17.586  24.497   4.740
89825W        W49086  24.624   2.869   3.767
89826W        W49087  32.514   7.763  13.049
89827W        W49088   5.760   0.436   4.809
89828W        W49089  25.196  14.183   0.959
89829W        W49090   9.880  27.641   1.695
89830W        W49091  11.290  31.543   0.750
89831W        W49092   5.389   3.278   2.668
89832W        W49093   2.452  35.065   3.279
89833W        W49094  33.066   3.813  10.551
89834W        W49095  28.010   8.822   1.829
89835W        W49096   9.329  43.372  14.469
89836W        W49097  25.038  28.952  12.970
89837W        W49098  44.867  31.544   4.292
89838W        W49099  15.138  16.276  11.986
89839W        W49100  33.084   3.274  13.921
89840W        W49101  20.028  15.100  11.992
89841W        W49102  33.404  44.303  10.553
89842W        W49103   5.329  34.898   1.224
89843W        W49104  44.396   8.270  14.777
89844W        W49105  26.618   6.892   2.782
89845W        W49106  44.975  12.795  10.441
89846W        W49107  24.042  30.087   2.782
89847W        W49108  12.662  21.674  11.376
89848W        W49109  13.805  30.021   9.436
89849W        W49110   2.361  34.411   4.320
89850W        W49111  18.701  24.601  13.008
89851W        W49112  14.142  24.494   1.746
89852W        W49113  24.492  18.279   3.870
89853W        W49114  27.587  22.708   4.628
89854W        W49115  11.721   8.741  10.431
89855W        W49116  20.536  27.607   2.182
89856W        W49117   4.219   4.832   2.244
89857W        W49118  38.568  32.430  14.506
89858W        W49119  34.427  12.633  12.938
89859W        W49120  44.872  30.975  12.892
89860W        W49121  17.088  20.230   0.800
89861W        W49122  44.493   7.765   4.209
89862W        W49123  38.526   8.209   3.853
89863W        W49124  24.645  30.633  11.415
89864W        W49125  40.859  19.150   4.151
89865W        W49126  11.684  16.221   5.156
89866W        W49127   8.837   6.910  11.081
89867W        W49128  23.567  24.138  12.851
89868W        W49129  30.104  37.389   3.173
89869W        W49130  16.214   8.368  13.508
89870W        W49131   1.874   7.186  10.426
89871W        W49132  30.425  22.033  11.508
89872W        W49133  17.762  11.353   2.303
89873W        W49134  21.682   9.375  12.422
89874W        W49135   3.336   6.851  14.933
89875W        W49136  21.102  17.640  13.455
89876W        W49137   2.457  16.298  12.475
89877W        W49138  11.270  23.061  11.895
89878W        W49139  25.020  41.959   1.730
89879W        W49140  22.538   3.421  13.958
89880W        W49141  29.148  17.126   3.368
89881W        W49142  39.041   2.403  14.294
89882W        W49143  31.936  34.996  11.461
89883W        W49144  11.761  44.001  10.447
89884W        W49145  18.574   0.373  10.454
89885W        W49146  32.036  27.450  14.376
89886W        W49147  40.919   5.708  12.878
89887W        W49148  42.478  34.529   3.248
89888W        W49149  36.358  33.544   3.303
89889W        W49150   2.857  28.152   0.356
89890W        W49151  14.294  34.009   4.331
89891W        W49152   4.927   6.348  12.033
89892W        W49153  10.346  18.599  14.918
89893W        W49154  24.118   1.960  10.929
89894W        W49155  21.627  41.363   0.917
89895W        W49156   9.749  42.806  10.129
89896W        W49157   6.851  28.155  13.799
89897W        W49158  19.744  41.954   3.349
89898W        W49159   3.458  37.856   0.897
89899W        W49160  23.209   9.322   1.825
89900W        W49161  19.105  43.507   4.148
89901W        W49162  43.422  18.243   4.646
89902W        W49163  39.817  17.121   4.336
89903W        W49164   9.329   9.347  13.064
89904W        W49165  23.166  26.036   2.732
89905W        W49166  35.860  27.071  12.439
89906W        W49167  20.586  40.422  11.579
89907W        W49168  13.228  23.164   1.710
89908W        W49169  16.204  35.099  13.970
89909W        W49170   0.444  37.563   3.233
89910W        W49171  35.462  15.808   3.685
89911W        W49172  15.806   9.726   0.814
89912W        W49173  22.200  41.523  11.071
89913W        W49174  39.516  31.030  12.891
89914W        W49175   1.732  36.954  10.545
89915W        W49176  14.198  28.969  13.965
89916W        W49177   9.707  19.142   4.272
89917W        W49178  21.211  29.040  14.995
89918W        W49179  16.637  41.039  11.470
89919W        W49180   6.265  32.038  13.908
89920W        W49181   3.913  31.591   4.613
89921W        W49182  39.346   9.340   1.278
89922W        W49183   3.723  43.831  12.022
89923W        W49184  21.135  20.589  13.897
89924W        W49185  39.394  20.180  13.510
89925W        W49186  22.098  31.922   1.331
89926W        W49187  26.158   8.365   4.769
89927W        W49188  14.825  24.673   3.657
89928W        W49189  18.714  23.489   3.344
89929W        W49190  10.873  35.541   1.750
89930W        W49191   4.310  37.850   2.685
89931W        W49192  12.698  42.822   2.838
89932W        W49193  19.165   5.205   2.243
89933W        W49194   9.390   0.777   2.387
89934W        W49195   5.795  39.975  11.387
89935W        W49196  20.144  39.360  14.960
89936W        W49197  26.673  27.555   0.484
89937W        W49198  27.670  35.906  13.885
89938W        W49199  24.051  18.786  14.506
89939W        W49200  21.629  10.638   4.721
89940W        W49201  24.517  37.504   3.763
89941W        W49202  35.051  39.348  14.842
89942W        W49203  33.025  12.813   3.678
89943W        W49204  42.908  28.106   3.862
89944W        W49205  17.633  28.930  13.374
89945W        W49206  18.231   6.765  11.494
89946W        W49207  27.968   2.409  14.851
89947W        W49208  41.437  14.331  10.525
89948W        W49209  23.730  34.969  13.996
89949W        W49210  10.669  35.016  13.397
89950W        W49211  10.384  28.558  12.895
89951W        W49212  19.155  32.094   5.245
89952W        W49213   2.807  18.631  14.991
89953W        W49214   3.824  18.757   2.731
89954W        W49215  33.888  14.748  14.818
89955W        W49216  40.497  38.877   2.302
89956W        W49217  36.031  17.114  14.946
89957W        W49218  12.268  27.626  14.390
89958W        W49219  12.154  15.325   2.235
89959W        W49220  22.222  10.365   2.747
89960W        W49221  32.630  19.278  13.457
89961W        W49222  41.953  38.903  11.067
89962W        W49223   4.216  11.856   4.182
89963W        W49224  33.559   8.341  13.401
89964W        W49225  36.845  41.490   2.308
89965W        W49226  41.388   3.911  14.868
89966W        W49227  14.120  31.988   1.300
89967W        W49228  22.174   5.785  11.571
89968W        W49229  24.105  37.841   2.731
89969W        W49230  28.564   1.855   3.648
89970W        W49231  21.553   2.796  11.012
89971W        W49232   4.849   2.762   0.761
89972W        W49233  29.440  28.057   3.794
89973W        W49234  19.631   3.935   0.763
89974W        W49235  11.866  43.855   1.452
89975W        W49236  20.533  25.159   0.878
89976W        W49237  28.614  25.700   2.293
89977W        W49238   2.256  20.716   4.311
89978W        W49239  37.977  26.461  14.765
89979W        W49240  10.718   5.268   3.330
89980W        W49241  38.859  23.206   4.689
89981W        W49242  40.368  44.505  13.393
89982W        W49243  42.463  14.745  14.965
89983W        W49244   6.349  16.579  10.929
89984W        W49245  37.424  33.100   1.372
89985W        W49246  37.027  34.428   9.514
89986W        W49247   5.750  41.966  14.990
89987W        W49248   2.239  10.811  12.556
89988W        W49249  18.058  23.203  13.353
89989W        W49250  18.247  12.280   1.903
89990W        W49251  25.145  18.555   0.454
89991W        W49252  14.284  43.946  10.596
89992W        W49253   7.826   0.906  12.956
89993W        W49254  40.517   1.869   3.267
89994W        W49255   2.873  17.710   0.868
89995W        W49256  15.616  42.523   1.410
89996W        W49257   3.431  41.787   4.173
89997W        W49258  29.591  38.010  14.365
89998W        W49259   1.935  26.046   1.238
89999W        W49260  19.778  20.600  10.510
90000W        W49261  15.702  12.783   2.239
90001W        W49262   3.787   7.391   0.761
90002W        W49263  31.995  28.516   4.328
90003W        W49264  26.125  43.299   2.682
90004W        W49265  42.835   3.797  12.414
90005W        W49266   8.364  27.961   0.453
90006W        W49267  19.116  26.523  11.891
90007W        W49268  34.415   3.247  13.501
90008W        W49269   9.705  34.370  13.026
90009W        W49270   7.761  38.417  14.480
90010W        W49271  34.949  15.198  11.094
90011W        W49272   6.907   5.743   1.699
90012W        W49273  12.286  26.158   0.413
90013W        W49274  30.456   9.229   0.312
90014W        W49275   9.365  27.510   2.716
90015W        W49276  24.034   6.368  12.882
90016W        W49277  39.031  41.359   2.721
90017W        W49278  11.347  15.292  11.587
90018W        W49279  36.528  30.013   3.146
90019W        W49280  27.657  13.759  14.875
90020W        W49281  20.522  28.435  13.324
90021W        W49282  42.000  11.731   4.783
90022W        W49283   5.245  37.363   0.890
90023W        W49284  11.716  13.823   1.758
90024W        W49285  11.340  38.896  10.888
90025W        W49286  28.636   0.972  13.810
90026W        W49287  44.855   8.715  10.960
90027W        W49288  24.492  16.201   4.635
90028W        W49289  39.329  33.056  10.518
90029W        W49290  35.929   2.942   0.346
90030W        W49291   9.171  42.851  13.524
90031W        W49292  43.381  38.394   1.351
90032W        W49293  34.935  32.425  12.376
90033W        W49294  38.866  29.486  14.401
90034W        W49295   4.719   5.229  13.504
90035W        W49296  28.645  14.648   3.166
90036W        W49297  23.135  13.620  10.508
90037W        W49298   8.174  28.640   3.320
90038W        W49299   0.265   3.873   2.725
90039W        W49300  36.923  24.217  14.412
90040W        W49301   3.260  18.784   0.952
90041W        W49302  16.087  27.520  13.391
90042W        W49303   2.440   3.459   5.233
90043W        W49304  14.277   2.722  10.153
90044W        W49305  26.182  24.527   2.401
90045W        W49306  43.778  14.235   2.760
90046W        W49307   2.232  37.013  13.433
90047W        W49308   7.895  10.241  12.902
90048W        W49309   1.466   2.314   3.209
90049W        W49310  17.702  29.094  12.942
90050W        W49311  38.934   9.766   0.753
90051W        W49312   1.321  40.340  14.982
90052W        W49313  16.791   7.326  12.058
90053W        W49314   3.237  39.044  10.436
90054W        W49315  33.062  31.582  11.437
90055W        W49316   5.758  26.157  13.413
90056W        W49317  29.088  30.947   2.415
90057W        W49318  10.643  27.678  10.942
90058W        W49319   5.731   9.371  12.031
90059W        W49320  12.850  38.996  10.615
90060W        W49321  20.253  16.199   1.246
90061W        W49322  21.165  41.833   0.858
90062W        W49323  26.020  22.611  11.010
90063W        W49324  18.268  39.042   0.407
90064W        W49325  33.937  22.543  11.543
90065W        W49326   7.854  28.581  12.009
90066W        W49327  35.930  22.745   4.717
90067W        W49328  28.021  34.471   2.348
90068W        W49329   9.879  14.735   1.352
90069W        W49330  17.133  43.969   1.246
90070W        W49331  35.961  29.055   0.250
90071W        W49332  42.343  42.505  13.441
90072W        W49333  15.783  43.925  13.983
90073W        W49334  38.495  20.080  11.607
90074W        W49335  25.985  14.652   3.276
90075W        W49336  30.929  40.854  11.030
90076W        W49337  15.221  43.464  13.424
90077W        W49338  41.792  28.468  11.593
90078W        W49339  40.546   0.432   1.256
90079W        W49340  44.499   6.300   1.290
90080W        W49341   7.202   1.276  14.396
90081W        W49342  10.792  34.441  11.113
90082W        W49343  32.583   8.183   2.268
90083W        W49344   5.899  17.732   2.244
90084W        W49345  41.444  26.119  11.495
90085W        W49346  11.709  33.497   0.269
90086W        W49347  35.588  20.655  13.539
90087W        W49348  15.787   4.360  11.000
90088W        W49349  42.955  16.664   4.164
90089W        W49350  21.684  28.165   1.248
90090W        W49351  15.605  34.394  12.032
90091W        W49352  10.375  35.070  12.575
90092W        W49353  35.526   7.727  10.498
90093W        W49354  29.442  36.009   0.296
90094W        W49355  10.768  13.747  12.360
90095W        W49356  21.559  42.294  10.453
90096W        W49357  39.537  10.818  13.400
90097W        W49358  18.698   9.217  13.477
90098W        W49359  14.155  19.555  10.535
90099W        W49360   5.322  21.106  11.994
90100W        W49361   7.731   3.316  14.843
90101W        W49362  14.131   6.698  12.557
90102W        W49363   0.480  26.641   2.767
90103W        W49364  29.608  41.822  13.822
90104W        W49365   5.309   2.887  13.999
90105W        W49366   8.790  22.583   2.760
90106W        W49367  22.642  17.797   0.480
90107W        W49368   4.276  18.247   4.807
90108W        W49369  32.454  18.134  11.594
90109W        W49370  20.635  43.479   1.288
90110W        W49371  13.105   7.245   4.736
90111W        W49372  11.630  21.753   3.674
90112W        W49373  41.952  27.477   2.744
90113W        W49374   7.750  15.202  14.927
90114W        W49375  20.689  10.356   2.178
90115W        W49376  30.913  37.384  10.964
90116W        W49377   3.357  32.612  12.343
90117W        W49378  12.186  14.592  12.013
90118W        W49379  24.987  16.630   4.744
90119W        W49380  39.838  26.176  12.015
90120W        W49381  30.975  32.118  11.932
90121W        W49382  15.596  20.132  10.420
90122W        W49383  28.962   3.878   0.304
90123W        W49384  42.412  15.637  12.868
90124W        W49385  40.827  23.989  11.982
90125W        W49386  41.311  31.915  10.530
90126W        W49387  30.078  33.515   2.408
90127W        W49388  16.269   6.862   0.769
90128W        W49389  42.818   1.875  14.000
90129W        W49390  16.611  29.134   4.637
90130W        W49391  38.076  21.677  13.855
90131W        W49392  25.668  19.684   1.366
90132W        W49393  19.118  24.171  13.523
90133W        W49394   1.796   2.915   2.779
90134W        W49395  34.563  12.642   1.418
90135W        W49396  39.044  14.759   3.751
90136W        W49397  41.468   4.277   4.343
90137W        W49398  32.418  33.438   3.725
90138W        W49399  26.048  36.526   0.470
90139W        W49400  38.832   1.916   1.247
90140W        W49401   3.720  32.623   1.242
90141W        W49402  21.087   6.737   0.258
90142W        W49403  28.638  15.088  11.411
90143W        W49404   7.779  39.367   2.276
90144W        W49405  16.201  12.663   5.154
90145W        W49406  40.988   2.797   0.900
90146W        W49407   2.748  24.481  12.881
90147W        W49408  16.129  29.666   5.104
90148W        W49409  37.883  21.718   2.822
90149W        W49410  35.910   6.415   5.279
90150W        W49411   0.958  24.180  12.443
90151W        W49412   6.334  42.806   0.807
90152W        W49413  42.474  29.932  14.301
90153W        W49414  34.961   6.193  10.906
90154W        W49415  19.137   6.760  13.051
90155W        W49416  44.924  13.305  11.990
90156W        W49417   4.909  41.468   1.371
90157W        W49418  17.280  11.849   2.860
90158W        W49419  39.939  28.581  11.424
90159W        W49420   1.362   7.724  10.422
90160W        W49421  41.931  17.749  10.901
90161W        W49422  10.384  10.770  12.977
90162W        W49423  25.148  44.268   2.360
90163W        W49424  43.289  44.399  10.483
90164W        W49425  24.146  24.577  12.377
90165W        W49426  30.615   3.404   4.206
90166W        W49427   1.367  22.152   1.279
90167W        W49428   7.220   9.687   0.254
90168W        W49429   7.702  30.492  10.486
90169W        W49430  21.684  13.808  12.839
90170W        W49431  23.727  29.453  12.036
90171W        W49432  18.279  11.711  14.873
90172W        W49433  30.486  38.324   3.382
90173W        W49434  34.415   5.263  11.612
90174W        W49435   6.216  13.295  12.877
90175W        W49436  34.564  27.184  11.922
90176W        W49437  38.896  22.237   0.865
90177W        W49438  16.232  13.264   1.322
90178W        W49439  33.974   2.254   4.782
90179W        W49440   9.237  11.145  12.416
90180W        W49441  41.831  32.596   4.598
90181W        W49442  21.097   8.779  14.384
90182W        W49443  31.110  20.227   1.339
90183W        W49444   8.228  35.875  14.318
90184W        W49445  22.222  35.057   2.206
90185W        W49446   2.238  41.472  13.391
90186W        W49447  39.942  15.716   1.370
90187W        W49448  17.111   1.776   3.698
90188W        W49449  32.103  32.935  11.986
90189W        W49450  44.993   7.796  11.958
90190W        W49451  31.574  25.071  11.453
90191W        W49452  25.679  10.647   4.788
90192W        W49453  25.166  42.402  13.475
90193W        W49454  44.286   0.923  14.982
90194W        W49455  31.145  24.710  14.925
90195W        W49456  16.202  18.640  14.883
90196W        W49457  15.799  41.493   2.251
90197W        W49458  19.741  36.896  14.356
90198W        W49459  25.480  35.876  10.934
90199W        W49460   8.839  44.503   3.200
90200W        W49461  17.787  17.752   4.749
90201W        W49462   8.846   6.210  11.374
90202W        W49463  24.574  24.485  14.930
90203W        W49464  43.904  28.489   2.805
90204W        W49465  35.005  15.328   2.799
90205W        W49466  28.180  29.482  14.797
90206W        W49467   9.324  25.987  12.009
90207W        W49468   4.216  28.959  11.571
90208W        W49469  25.649  23.526   1.827
90209W        W49470  19.122   3.811  12.410
90210W        W49471   0.904   1.382   2.369
90211W        W49472  23.111  36.956  11.870
90212W        W49473  43.847  11.813  12.895
90213W        W49474  23.670  20.223  14.454
90214W        W49475  31.020   6.197  12.515
90215W        W49476  38.483  27.123   2.729
90216W        W49477  14.674  19.696   5.101
90217W        W49478   6.318  32.480   1.842
90218W        W49479  35.883  17.233  12.089
90219W        W49480  17.661  18.218   2.742
90220W        W49481   8.719  28.953   2.180
90221W        W49482   7.377  21.092   2.671
90222W        W49483  34.039  27.986  10.898
90223W        W49484   1.355  34.385  11.064
90224W        W49485  10.148   1.390  14.463
90225W        W49486  40.310  18.597   2.327
90226W        W49487  34.950   1.473   4.290
90227W        W49488   9.204  33.923   1.412
90228W        W49489   4.211  25.082   0.389
90229W        W49490  32.417   0.796   4.156
90230W        W49491  16.812  25.163   3.182
90231W        W49492   5.815  33.028   3.662
90232W        W49493  35.995   5.899   3.311
90233W        W49494  37.951  26.204   2.224
90234W        W49495  28.477  31.948  11.449
90235W        W49496  30.577  21.155  12.085
90236W        W49497  24.617  14.313  13.350
90237W        W49498  17.235  24.501  11.401
90238W        W49499  25.148  40.518  11.515
90239W        W49500  23.698  21.574  12.019
90240W        W49501  21.737  19.122  11.561
90241W        W49502   4.863  20.551   4.216
90242W        W49503  35.595  17.568  14.920
90243W        W49504   1.732  39.911  13.383
90244W        W49505  35.576  44.945   4.745
90245W        W49506   6.918  25.025  10.421
90246W        W49507  44.504   6.825  11.373
90247W        W49508  39.016  39.816  10.469
90248W        W49509  17.078  44.403  11.893
90249W        W49510  27.603  29.656  13.911
90250W        W49511  33.032  22.088  11.542
90251W        W49512  15.731  39.540  14.763
90252W        W49513  27.615   1.418  14.339
90253W        W49514   0.844  39.403  14.281
90254W        W49515  33.946  34.038   0.879
90255W        W49516  26.010   6.744   3.240
90256W        W49517  31.425   3.345   3.232
90257W        W49518   1.428   5.704   0.285
90258W        W49519  29.085   8.687  12.954
90259W        W49520  33.585  16.584   3.793
90260W        W49521  10.658  24.037  14.332
90261W        W49522  20.536   9.681  11.968
90262W        W49523  22.158  16.110  12.895
90263W        W49524  23.628   9.328   2.380
90264W        W49525  28.102  14.653   0.276
90265W        W49526  17.786  32.054   5.295
90266W        W49527  19.642   3.779   2.829
90267W        W49528  31.616   7.293   3.797
90268W        W49529  37.049   8.343  14.418
90269W        W49530  12.208  18.659  12.504
90270W        W49531  44.768   9.861   2.664
90271W        W49532  27.485  34.885   3.156
90272W        W49533  20.249   4.344   3.861
90273W        W49534  34.586   5.280  14.795
90274W        W49535   3.451   9.871  10.920
90275W        W49536   3.780  39.065  10.431
90276W        W49537  28.593   0.906  14.987
90277W        W49538  30.524  43.846  13.315
90278W        W49539   1.891   3.426   5.322
90279W        W49540  11.328  10.370  13.971
90280W        W49541  44.951   7.412  11.493
90281W        W49542  19.282  25.176   0.370
90282W        W49543  34.049  40.920   1.831
90283W        W49544  31.464  24.520   4.185
90284W        W49545  15.654  24.641  10.927
90285W        W49546  28.140  24.487  10.152
90286W        W49547  27.673   8.856   1.848
90287W        W49548  38.512  23.236  13.501
90288W        W49549  20.610   4.219   4.194
90289W        W49550  20.760  26.986   2.727
90290W        W49551   9.729  19.718  12.032
90291W        W49552  21.137  41.428  14.861
90292W        W49553  27.989  39.937   1.274
90293W        W49554   5.345  11.309  10.580
90294W        W49555  37.007  19.736   0.802
90295W        W49556  41.970   0.441   3.702
90296W        W49557   2.296   1.785   0.314
90297W        W49558  35.476  20.607  10.977
90298W        W49559  21.245  19.640  12.527
90299W        W49560  22.183  27.587  11.471
90300W        W49561  24.652   5.196   3.326
90301W        W49562   2.288  40.876  14.394
90302W        W49563   8.294  21.082   0.386
90303W        W49564  42.923  35.970   0.858
90304W        W49565  22.137  34.459  12.882
90305W        W49566  21.703  35.866  12.920
90306W        W49567  15.764  20.031  12.985
90307W        W49568   3.259  39.847   4.185
90308W        W49569  19.716  37.572   4.809
90309W        W49570   8.402  38.398   1.875
90310W        W49571  18.293  15.330  11.466
90311W        W49572   4.269  18.238  11.577
90312W        W49573   8.856   4.266  10.458
90313W        W49574  30.485  42.504   4.634
90314W        W49575   2.760  27.053  12.511
90315W        W49576   9.848   8.215   2.257
90316W        W49577  10.170  31.562   3.738
90317W        W49578  21.657  39.540  13.002
90318W        W49579   1.941  20.569   0.765
90319W        W49580  35.394   3.950   1.304
90320W        W49581  35.889  24.592  14.325
90321W        W49582  32.945  25.569   1.699
90322W        W49583  33.883  26.597  11.515
90323W        W49584  14.679  10.320  11.474
90324W        W49585  10.337  37.953  12.940
90325W        W49586  23.566  23.146  13.417
90326W        W49587  33.497   4.379  13.920
90327W        W49588   4.863   4.262   2.313
90328W        W49589  43.472  13.815  14.492
90329W        W49590  11.726  13.108   0.327
90330W        W49591  37.034   4.375  14.455
90331W        W49592  32.405  37.855  11.123
90332W        W49593  31.437  32.418  10.617
90333W        W49594  22.698  30.515  13.345
90334W        W49595  43.844  35.968   3.244
90335W        W49596   1.418  26.199   2.340
90336W        W49597  21.259  23.728   4.752
90337W        W49598  12.694  32.617  12.444
90338W        W49599  35.519  36.064  14.987
90339W        W49600  38.053  34.496  12.463
90340W        W49601  19.552  12.634   0.417
90341W        W49602  29.143  23.553  14.785
90342W        W49603  38.454  22.052  12.955
90343W        W49604  12.313  39.849  14.505
90344W        W49605  44.992  17.298   1.790
90345W        W49606  12.213  35.372  14.376
90346W        W49607  42.335  10.158   1.714
90347W        W49608  18.648  24.686   1.313
90348W        W49609  28.441  21.602   0.875
90349W        W49610  35.476  11.298   3.674
90350W        W49611  39.415  44.273   1.697
90351W        W49612  40.501  17.660  10.930
90352W        W49613  22.537  43.952  11.086
90353W        W49614  18.102  42.359  12.933
90354W        W49615  36.908   0.874   4.239
90355W        W49616  31.103  16.279  11.918
90356W        W49617  34.010  14.732   1.299
90357W        W49618  38.496  24.485   3.692
90358W        W49619  39.439  25.066   4.243
90359W        W49620   1.785  40.398  12.396
90360W        W49621  29.594  14.631  10.928
90361W        W49622  13.157  31.114   1.261
90362W        W49623  13.233  12.272   2.758
90363W        W49624  38.924   2.838   0.755
90364W        W49625  30.453  13.158   3.269
90365W        W49626  14.698  13.774   2.797
90366W        W49627  18.229  39.823   1.378
90367W        W49628  16.171   0.398  10.444
90368W        W49629   4.708  30.982  12.905
90369W        W49630  28.997  10.218  14.760
90370W        W49631  15.597  38.381   1.267
90371W        W49632   0.882  10.648   4.621
90372W        W49633  28.108  20.263  14.331
90373W        W49634   1.385  31.442   4.128
90374W        W49635  43.358  19.202   3.762
90375W        W49636   7.220   1.866  12.941
90376W        W49637  29.440  12.258  12.928
90377W        W49638  34.493  21.511  13.344
90378W        W49639  27.649  32.504  12.457
90379W        W49640   6.719  29.538  14.902
90380W        W49641  15.316  15.647   2.734
90381W        W49642  18.063   7.883  12.548
90382W        W49643  32.588  43.450  11.518
90383W        W49644  20.548  37.943  12.499
90384W        W49645   7.330   1.968  13.323
90385W        W49646  29.949   3.457   3.379
90386W        W49647  38.338  38.055  11.045
90387W        W49648   2.437  15.178   4.804
90388W        W49649  34.551  27.546  14.947
90389W        W49650  42.856  33.406   2.764
90390W        W49651  12.361   8.672   2.362
90391W        W49652  43.973  19.085  13.338
90392W        W49653  29.946  32.932  11.884
90393W        W49654  23.517  34.120   1.391
90394W        W49655  39.506  23.217   0.838
90395W        W49656  44.452  10.334  13.061
90396W        W49657  11.260  10.796  10.912
90397W        W49658   1.816  40.527  11.526
90398W        W49659  36.475  15.719   2.181
90399W        W49660  42.484   7.774   0.299
90400W        W49661  23.700   9.782   3.656
90401W        W49662  17.667  38.501  11.423
90402W        W49663  23.579  24.042  14.881
90403W        W49664   3.742   6.370  14.485
90404W        W49665  28.020   8.820   3.339
90405W        W49666  33.537  19.770  14.477
90406W        W49667  11.369  22.034   2.675
90407W        W49668  34.867   5.426   3.376
90408W        W49669  20.255   8.209  11.867
90409W        W49670   7.671  39.057  10.591
90410W        W49671  34.982  39.021  11.935
90411W        W49672  43.465  36.048   2.390
90412W        W49673  24.053  37.910   0.274
90413W        W49674  44.846  23.534  12.462
90414W        W49675  25.577  36.360  14.772
90415W        W49676  41.796  41.800   2.790
90416W        W49677  38.438  20.143  12.365
90417W        W49678   4.411  29.165  12.089
90418W        W49679  43.845  15.656  10.931
90419W        W49680  44.352  38.525  13.484
90420W        W49681  12.642  26.518  13.021
90421W        W49682  40.814  19.768   3.217
90422W        W49683  18.197  42.880  13.421
90423W        W49684   0.889  44.797   1.390
90424W        W49685  39.014  39.523   9.654
90425W        W49686  40.356  38.464  11.125
90426W        W49687  14.816  15.737  12.032
90427W        W49688   9.210  15.260  14.318
90428W        W49689  34.106   5.811   3.867
90429W        W49690  22.534  13.277   1.778
90430W        W49691   2.366  19.283   3.294
90431W        W49692   6.239  18.208  13.860
90432W        W49693  16.627  26.128   4.299
90433W        W49694  17.154  26.025  10.515
90434W        W49695  23.213  44.773  12.937
90435W        W49696  30.547  24.581  10.433
90436W        W49697  35.916   0.355   0.371
90437W        W49698  35.910   6.794   4.346
90438W        W49699   5.752   7.766   3.717
90439W        W49700   3.841   7.394   2.272
90440W        W49701  27.942  39.504   3.644
90441W        W49702   3.883  15.324   1.842
90442W        W49703  12.147  38.982   4.153
90443W        W49704   5.863  39.847  14.461
90444W        W49705  12.143  44.462  12.054
90445W        W49706  18.071   3.892  14.816
90446W        W49707  23.632  33.549  11.500
90447W        W49708  16.211   6.372  14.895
90448W        W49709  43.379   9.243  11.024
90449W        W49710   2.835  35.503   1.228
90450W        W49711  10.840  25.534  14.420
90451W        W49712  23.112  43.869  12.877
90452W        W49713   6.812  31.481  10.544
90453W        W49714  23.063  36.986   1.259
90454W        W49715  36.475  21.124   5.144
90455W        W49716  20.651  34.439   3.168
90456W        W49717  23.693  43.479   0.476
90457W        W49718  13.241  19.259   1.782
90458W        W49719  35.457  16.615  14.461
90459W        W49720  34.565  17.258   1.760
90460W        W49721  41.793  27.520  11.478
90461W        W49722  40.959  39.044  10.610
90462W        W49723  29.644  31.567  13.498
90463W        W49724  10.182   3.385   2.393
90464W        W49725   5.766  23.563   4.191
90465W        W49726  36.013  28.185   0.346
90466W        W49727  13.205  39.438  10.957
90467W        W49728  38.425  37.955   1.713
90468W        W49729  33.474  32.110  13.486
90469W        W49730  42.792  21.258   0.927
90470W        W49731   0.411   8.788  11.427
90471W        W49732   5.337  17.126   3.858
90472W        W49733  23.545  25.987   1.818
90473W        W49734  16.580   0.341  11.082
90474W        W49735  12.187  13.239   1.279
90475W        W49736   4.739   2.775  12.517
90476W        W49737  17.191   0.908  11.526
90477W        W49738   5.423  39.853  14.968
90478W        W49739  13.787  32.960  10.517
90479W        W49740  26.076   3.446  11.991
90480W        W49741  13.759   6.883   2.400
90481W        W49742  20.538  39.342   4.305
90482W        W49743  19.201   4.382   4.201
90483W        W49744  12.153  13.318   4.215
90484W        W49745  20.227  36.443   1.794
90485W        W49746  30.435   6.273  11.523
90486W        W49747   7.276  17.148   0.398
90487W        W49748  18.085  37.433   4.151
90488W        W49749  39.032   8.712   4.686
90489W        W49750  17.579   5.295   0.781
90490W        W49751   0.492  17.796   3.356
90491W        W49752   0.781   2.885   0.779
90492W        W49753  40.965  14.194   0.811
90493W        W49754  44.864  25.181   1.290
90494W        W49755  42.479  11.269  11.904
90495W        W49756  13.739  12.764   5.255
90496W        W49757  36.587   0.882   2.680
90497W        W49758   8.300  26.645  11.477
90498W        W49759  44.884  39.849  13.441
90499W        W49760  44.767  39.023  13.459
90500W        W49761   5.417  22.507  14.457
90501W        W49762   8.307  34.522  12.891
90502W        W49763   9.393   7.244  13.896
90503W        W49764  22.251   4.337  12.899
90504W        W49765  42.864  29.535  12.478
90505W        W49766  28.657   6.741  14.791
90506W        W49767  44.386  21.535   2.223
90507W        W49768  43.885   1.964   1.401
90508W        W49769  41.868  29.166  14.765
90509W        W49770  36.490  43.885   2.761
90510W        W49771   1.934   3.853  10.493
90511W        W49772  11.271  26.625   4.749
90512W        W49773  10.696  36.002   3.201
90513W        W49774   3.353  15.716  11.502
90514W        W49775  34.020  40.541  10.560
90515W        W49776  13.324  13.656  13.508
90516W        W49777  25.681   1.944   4.673
90517W        W49778  19.545  43.283  14.384
90518W        W49779  44.892  33.877  13.386
90519W        W49780   8.843  15.188   3.632
90520W        W49781  29.146   5.355  12.048
90521W        W49782  35.393   9.357  12.514
90522W        W49783   6.404  43.894   4.729
90523W        W49784   3.400  30.925   5.239
90524W        W49785  10.378   1.878   4.232
90525W        W49786  14.103  32.029  12.574
90526W        W49787  16.146   8.795   3.241
90527W        W49788  38.527  18.665  10.489
90528W        W49789  28.511   0.788  13.513
90529W        W49790  20.528   9.650   1.398
90530W        W49791  30.474  33.945  13.794
90531W        W49792  23.089  40.329   0.946
90532W        W49793  14.323  31.130   4.667
90533W        W49794  35.420   3.342  12.485
90534W        W49795   9.216  31.974  14.969
90535W        W49796   6.921  23.217  14.348
90536W        W49797  40.870  28.530   4.670
90537W        W49798  30.071  28.075  13.501
90538W        W49799  42.920  12.240  12.409
90539W        W49800  34.488   1.820   1.210
90540W        W49801  28.567  14.802  13.963
90541W        W49802  36.519   2.413  13.499
90542W        W49803  28.435  25.036  13.490
90543W        W49804  39.945  16.770  11.466
90544W        W49805  10.655   3.948  11.996
90545W        W49806  18.252  28.611   1.291
90546W        W49807  23.677  36.509  14.346
90547W        W49808  17.189   9.315   1.245
90548W        W49809  24.976  23.201   2.727
90549W        W49810  18.782  18.761  13.847
90550W        W49811  36.469  25.182  11.427
90551W        W49812   5.317  42.346   2.255
90552W        W49813   8.369  28.563  11.481
90553W        W49814  42.902  12.251  13.791
90554W        W49815  23.153  23.512   9.951
90555W        W49816   9.804  11.158   0.285
90556W        W49817  21.209  41.919   3.701
90557W        W49818  39.992  11.136  12.986
90558W        W49819  15.131   1.896   4.349
90559W        W49820  37.861   0.389   0.370
90560W        W49821  23.233   4.866  12.520
90561W        W49822  13.242   1.291   9.990
90562W        W49823  31.474  19.142  12.872
90563W        W49824  12.223  32.039  13.988
90564W        W49825  31.055  27.683  10.438
90565W        W49826   1.742  24.204  11.057
90566W        W49827   7.372  34.601  10.623
90567W        W49828  18.777   0.434  14.286
90568W        W49829  13.237  19.578  13.792
90569W        W49830  34.976  25.188   4.182
90570W        W49831  28.452  22.569  12.880
90571W        W49832  34.886  40.977   0.432
90572W        W49833  22.671   8.251  13.328
90573W        W49834  13.120  33.902   4.637
90574W        W49835  30.034  12.788   1.382
90575W        W49836  34.414  27.951   3.701
90576W        W49837  17.777  13.133   3.669
90577W        W49838  31.087   9.333  14.892
90578W        W49839  16.292  37.024  10.616
90579W        W49840   7.298   2.942  14.383
90580W        W49841  39.860  19.729  14.999
90581W        W49842  17.648  31.516   1.395
90582W        W49843  42.464  43.832  10.485
90583W        W49844  35.001   6.802  14.450
90584W        W49845   1.938  24.191  12.537
90585W        W49846  41.304  30.118   0.472
90586W        W49847  34.068  14.242   2.889
90587W        W49848  33.556  14.203   4.347
90588W        W49849  35.949  11.765  13.424
90589W        W49850   1.398  41.971   3.297
90590W        W49851  32.932   1.956  13.939
90591W        W49852  11.651  11.621   2.310
90592W        W49853  33.096  44.455   0.441
90593W        W49854   8.340  41.940  10.996
90594W        W49855  13.717  20.218  11.588
90595W        W49856  21.036  35.040  12.010
90596W        W49857   5.370  18.102  14.778
90597W        W49858  25.996  44.867   3.705
90598W        W49859  43.931   7.782  14.894
90599W        W49860  12.193  27.007  10.563
90600W        W49861  15.220  31.625   3.366
90601W        W49862  24.564   9.291   0.964
90602W        W49863  12.164  11.357  10.928
90603W        W49864  40.896  23.665   3.813
90604W        W49865  26.131  26.189  13.487
90605W        W49866  38.356  15.636   1.841
90606W        W49867  14.811   5.866  11.605
90607W        W49868  34.410  33.552   2.233
90608W        W49869  28.964   9.726  13.980
90609W        W49870   0.350  22.131   1.846
90610W        W49871  28.654   1.378  14.422
90611W        W49872  23.139  21.109   0.926
90612W        W49873  27.947   8.826   0.950
90613W        W49874  20.154  10.784  12.834
90614W        W49875  22.211  17.250  11.950
90615W        W49876  18.199  31.922   2.753
90616W        W49877  25.056   1.949  10.591
90617W        W49878  27.600  33.887   1.902
90618W        W49879  29.009  29.592  12.869
90619W        W49880  40.535  16.160   1.695
90620W        W49881   0.324  39.877   4.349
90621W        W49882  22.229   9.333   2.202
90622W        W49883  39.532  25.652   2.219
90623W        W49884  12.181  34.121  12.349
90624W        W49885  36.547  38.821  14.332
90625W        W49886  40.830  27.519   0.317
90626W        W49887  29.956   9.153   4.308
90627W        W49888   5.731   6.780   0.436
90628W        W49889  42.514   8.249   4.802
90629W        W49890  11.252   5.718   0.785
90630W        W49891  30.640  21.173   1.261
90631W        W49892  29.558  43.925   1.224
90632W        W49893  16.217   3.310   0.301
90633W        W49894  20.598  18.679   0.858
90634W        W49895  26.559   1.387   2.191
90635W        W49896  41.436  10.242  11.602
90636W        W49897  26.963  32.563   3.182
90637W        W49898  38.522  13.658  14.828
90638W        W49899  12.766  15.203  13.797
90639W        W49900  20.256  43.314  10.614
90640W        W49901  20.049  28.618  10.435
90641W        W49902  39.958  30.975  14.425
90642W        W49903  36.006  14.656  12.405
90643W        W49904  19.674  14.678  11.897
90644W        W49905  29.470  21.252   2.846
90645W        W49906  23.060  27.042  13.986
90646W        W49907   2.940  28.002   0.735
90647W        W49908  14.751  36.974   4.203
90648W        W49909  15.649  42.945   3.256
90649W        W49910  15.672   3.361  13.042
90650W        W49911  44.400   7.203  14.949
90651W        W49912   5.827  12.132   0.346
90652W        W49913  28.609  40.936  13.799
90653W        W49914  30.466  17.763  13.540
90654W        W49915   2.945  11.257   9.614
90655W        W49916  26.667  17.236   2.201
90656W        W49917  26.649  20.079   1.308
90657W        W49918  13.641   3.278   3.363
90658W        W49919   3.336  43.825   1.427
90659W        W49920  28.441  44.341   4.204
90660W        W49921  43.433  38.020   0.375
90661W        W49922  13.320  16.717   2.293
90662W        W49923  26.512  37.837   4.352
90663W        W49924  26.182  40.022   0.873
90664W        W49925  38.836  30.078   2.771
90665W        W49926  10.777  27.111  14.449
90666W        W49927  33.114  38.936   2.745
90667W        W49928   8.366   5.745  11.503
90668W        W49929   1.413  10.819   1.328
90669W        W49930  22.208  37.531   9.961
90670W        W49931  43.881  23.127   2.266
90671W        W49932  44.792  16.767   1.799
90672W        W49933  12.720  11.148   0.272
90673W        W49934  29.651  39.943  11.959
90674W        W49935  33.942  15.240   2.794
90675W        W49936  29.491  41.450  12.919
90676W        W49937  30.585   5.781   3.720
90677W        W49938  24.715  40.967   2.740
90678W        W49939  13.173   8.325   0.434
90679W        W49940  20.682  33.914   0.461
90680W        W49941  31.945   4.251  13.813
90681W        W49942  28.156  27.464   3.371
90682W        W49943   0.411   9.799   3.657
90683W        W49944  22.700  21.139  14.022
90684W        W49945   4.310  15.755  12.884
90685W        W49946  17.786   0.961   2.781
90686W        W49947  15.634  11.679   4.288
90687W        W49948  32.020  32.482   0.257
90688W        W49949  12.136  18.663  13.984
90689W        W49950  24.208  13.690  13.439
90690W        W49951  38.034  18.592   1.848
90691W        W49952  28.021  22.709   0.459
90692W        W49953  42.284  16.163   1.731
90693W        W49954  20.169  29.456  12.008
90694W        W49955  24.628  22.040  10.991
90695W        W49956   1.468  10.138   9.975
90696W        W49957  29.483  44.478   2.194
90697W        W49958  32.119  16.674  10.106
90698W        W49959  36.502  21.665  10.478
90699W        W49960  25.534   9.752   3.752
90700W        W49961  27.529  39.944   3.274
90701W        W49962  18.184  33.450   4.815
90702W        W49963  15.214  19.703   0.805
90703W        W49964   9.748   2.958   9.599
90704W        W49965  44.876   4.317  14.335
90705W        W49966  36.545  26.188  13.047
90706W        W49967   5.335   6.413   5.275
90707W        W49968  37.347  27.157  13.489
90708W        W49969  15.725  37.457   4.834
90709W        W49970  35.102  20.172   1.917
90710W        W49971  32.941  13.811   5.624
90711W        W49972  18.091  30.552   4.140
90712W        W49973  31.000   9.351  11.997
90713W        W49974  14.179   6.200  14.969
90714W        W49975  26.592  11.683   4.667
90715W        W49976   6.687  15.617  13.512
90716W        W49977  29.088  22.123  13.371
90717W        W49978  41.453  13.843  11.984
90718W        W49979  35.020  32.084  14.011
90719W        W49980  34.014   3.416  14.962
90720W        W49981  44.882  17.208  12.492
90721W        W49982   5.837  27.071  14.799
90722W        W49983  22.052  34.956  14.764
90723W        W49984  42.959   2.965  11.378
90724W        W49985  11.768  41.387   2.213
90725W        W49986  19.673  14.798   3.214
90726W        W49987   2.375  10.793   0.342
90727W        W49988  13.725   7.858   4.689
90728W        W49989  28.678  20.106   2.886
90729W        W49990  15.782  22.654   1.232
90730W        W49991   0.373  17.086  13.941
90731W        W49992  32.025  18.664  14.320
90732W        W49993  11.670  24.508   4.120
90733W        W49994  19.681  12.217   2.402
90734W        W49995  12.687  39.894   1.258
90735W        W49996  37.872  31.454  14.816
90736W        W49997   1.964   9.252   0.264
90737W        W49998  22.511  39.431   3.162
90738W        W49999   4.942  19.124  12.838
90739W        W50000   2.395   5.756  11.596
90740W        W50001  21.543  39.432  13.533
90741W        W50002   6.391   9.882   2.196
90742W        W50003  11.373  28.102  13.353
90743W        W50004  29.537  26.993   4.800
90744W        W50005  21.557   4.404  10.909
90745W        W50006  41.328   8.780   0.420
90746W        W50007  25.174   9.704  14.315
90747W        W50008  38.388  19.602   1.349
90748W        W50009  43.381  14.654  12.022
90749W        W50010  21.574  11.188   4.693
90750W        W50011  35.912  43.900   2.238
90751W        W50012  34.479  23.725  13.364
90752W        W50013  18.719  34.061   1.891
90753W        W50014   7.786  42.790   1.371
90754W        W50015  42.006  24.189  11.390
90755W        W50016  26.611   6.830  11.097
90756W        W50017  42.461  32.016  10.574
90757W        W50018  17.239   1.831  11.933
90758W        W50019  21.105  39.851  12.974
90759W        W50020  16.578   3.806  11.073
90760W        W50021  30.557  11.222   0.961
90761W        W50022  23.703  36.536  12.909
90762W        W50023  31.081   1.309  14.426
90763W        W50024  35.971   5.404  13.956
90764W        W50025  24.566  15.303  13.975
90765W        W50026  14.731  21.711  11.031
90766W        W50027  19.600  30.601   0.444
90767W        W50028  23.102  42.878  11.856
90768W        W50029  27.179   6.895   3.344
90769W        W50030  33.445  30.578  11.904
90770W        W50031  25.080  11.866   1.437
90771W        W50032  26.166  38.994   2.284
90772W        W50033   2.749   8.760   0.396
90773W        W50034   2.246  11.247  10.894
90774W        W50035  40.343  42.001   2.743
90775W        W50036   1.799   3.364   2.346
90776W        W50037  31.501  30.112   1.858
90777W        W50038  23.700  38.072   2.219
90778W        W50039  17.781  12.664  12.840
90779W        W50040  14.121  14.815  13.969
90780W        W50041  23.601  43.416   3.791
90781W        W50042  23.149   2.735   4.611
90782W        W50043  13.108  30.424  10.953
90783W        W50044   9.734  13.723   2.256
90784W        W50045   0.925  42.490  12.826
90785W        W50046  13.778  30.954  12.884
90786W        W50047   8.672  43.282   0.416
90787W        W50048   8.739   5.833   0.313
90788W        W50049  44.408  22.127   2.273
90789W        W50050  28.174  37.538   0.399
90790W        W50051  18.107  23.005   0.882
90791W        W50052  36.531  35.477   0.779
90792W        W50053  41.496  21.107   3.816
90793W        W50054  23.574  29.997  12.377
90794W        W50055  29.000  30.526   2.283
90795W        W50056  24.479  25.043  12.027
90796W        W50057  13.155  11.137  10.421
90797W        W50058  34.462  31.555  13.939
90798W        W50059  40.329   0.265   9.942
90799W        W50060  37.948  39.440  13.328
90800W        W50061  26.617  39.919   2.720
90801W        W50062   5.742  18.636   1.323
90802W        W50063  18.553  41.522  10.583
90803W        W50064   9.291  26.177   1.439
90804W        W50065  27.464  20.605   3.149
90805W        W50066  40.362  44.409  11.380
90806W        W50067  44.448  40.809  13.876
90807W        W50068  15.108  27.689  10.409
90808W        W50069  37.462  10.853   3.680
90809W        W50070   8.846   5.702   4.714
90810W        W50071   0.334  44.283   1.761
90811W        W50072  34.407   2.919   3.654
90812W        W50073  33.032   9.643   2.243
90813W        W50074  23.505  28.969  12.523
90814W        W50075  34.557  23.175  11.904
90815W        W50076  18.664  32.026  14.474
90816W        W50077  20.728  10.770  14.433
90817W        W50078  27.004  35.517  14.786
90818W        W50079  11.321  29.656  11.981
90819W        W50080  40.852  25.565   2.206
90820W        W50081  37.455  27.607  10.553
90821W        W50082   7.899  23.640  14.284
90822W        W50083  40.393  34.606  14.924
90823W        W50084  17.756  28.460   2.857
90824W        W50085  19.091  40.900   1.332
90825W        W50086  30.069  23.990   1.930
90826W        W50087   3.743  32.514  14.493
90827W        W50088   1.777  13.617  10.602
90828W        W50089  34.001   4.880  12.471
90829W        W50090  25.970  32.960  12.915
90830W        W50091   5.740  10.200  11.965
90831W        W50092  25.142   2.846  13.991
90832W        W50093  16.287  22.718   1.795
90833W        W50094  22.693  32.121   2.320
90834W        W50095  19.675   1.346  10.546
90835W        W50096  22.709  27.145   0.256
90836W        W50097  40.355  12.808   1.387
90837W        W50098  31.041  28.110   0.333
90838W        W50099  29.428  38.372  10.405
90839W        W50100  25.652  33.511   0.290
90840W        W50101  34.583  36.974   3.654
90841W        W50102  31.413  40.047  12.560
90842W        W50103  41.504  34.066   4.656
90843W        W50104   7.278  17.143   3.314
90844W        W50105  41.917  30.022  12.049
90845W        W50106  11.678  15.171   0.314
90846W        W50107  22.522  37.911   0.297
90847W        W50108  28.508  36.034   2.813
90848W        W50109   9.208  32.523  10.465
90849W        W50110  33.612   1.405   3.236
90850W        W50111  13.739  31.424   0.379
90851W        W50112  43.400  39.318   0.391
90852W        W50113  25.565   8.351  15.000
90853W        W50114  44.480   4.872  10.573
90854W        W50115   1.868   5.283  11.999
90855W        W50116  13.646   3.917  13.811
90856W        W50117  44.776  28.138  14.850
90857W        W50118  42.286   8.829  10.494
90858W        W50119  40.484  23.143   3.760
90859W        W50120  30.629  28.643  12.493
90860W        W50121   2.893  12.613  11.594
90861W        W50122  37.000  42.283  12.387
90862W        W50123  39.495  25.077   0.873
90863W        W50124  20.069   2.926  14.882
90864W        W50125  19.217  41.460  13.382
90865W        W50126   7.784   0.952  11.487
90866W        W50127  10.843  26.598   2.862
90867W        W50128   7.841  20.114   0.265
90868W        W50129   7.245  27.637   0.280
90869W        W50130  13.213   7.340  14.483
90870W        W50131  28.580  28.500  11.532
90871W        W50132  17.596  34.034   0.347
90872W        W50133   2.366  10.360  13.843
90873W        W50134  21.100  44.909   1.236
90874W        W50135  29.648  36.488   2.404
90875W        W50136   9.381   8.305   0.374
90876W        W50137  26.096  21.060  10.978
90877W        W50138  22.526  44.933  13.887
90878W        W50139  32.953  28.508   3.332
90879W        W50140   9.339  13.254   0.284
90880W        W50141   4.293  43.920   1.916
90881W        W50142  13.668   2.805   3.147
90882W        W50143  21.247  32.111   1.727
90883W        W50144  21.522   3.923   2.364
90884W        W50145   8.760   5.703   9.934
90885W        W50146  40.952  30.606   1.744
90886W        W50147  25.486  44.983   4.663
90887W        W50148  20.580  21.092   1.319
90888W        W50149   5.390  35.369  11.858
90889W        W50150   4.843  37.390  11.906
90890W        W50151  34.024   4.420   1.399
90891W        W50152  22.703  12.312   2.725
90892W        W50153  16.254   9.363   4.710
90893W        W50154  32.606   1.377   4.299
90894W        W50155  12.808  10.846   0.364
90895W        W50156  37.414  37.017   3.299
90896W        W50157  35.436  25.514  13.533
90897W        W50158  22.647  34.558  11.592
90898W        W50159  28.453  35.586   3.192
90899W        W50160  27.478  34.527   4.282
90900W        W50161  41.024  10.214  13.318
90901W        W50162   4.235  33.585   3.638
90902W        W50163  12.337  37.083   4.609
90903W        W50164  25.688  14.619  13.410
90904W        W50165  22.646  38.485   1.824
90905W        W50166   0.429  20.105   0.822
90906W        W50167  19.756   4.450  14.922
90907W        W50168  14.826   5.219   1.731
90908W        W50169   4.866  30.144   4.753
90909W        W50170   1.775  22.618   4.115
90910W        W50171  38.444   9.331  13.032
90911W        W50172  41.535   5.404   1.379
90912W        W50173  19.201  10.815   0.422
90913W        W50174  17.156  18.168  12.936
90914W        W50175  20.682  34.897  12.889
90915W        W50176  21.112  42.526   0.479
90916W        W50177  15.797  21.604   4.630
90917W        W50178  30.068  19.090   4.655
90918W        W50179   2.338  23.050  10.478
90919W        W50180  33.891  43.888   1.420
90920W        W50181   6.882  10.700   0.901
90921W        W50182  17.236  35.975   9.986
90922W        W50183  13.697  22.610  13.029
90923W        W50184   1.305  28.450   3.186
90924W        W50185  19.077  38.344  14.511
90925W        W50186  29.027  14.177  12.033
90926W        W50187  36.469  10.656  10.404
90927W        W50188  38.879  13.124  13.876
90928W        W50189  13.637  18.760  11.386
90929W        W50190  30.551  34.535  14.361
90930W        W50191  14.615  19.177  13.038
90931W        W50192  27.643  26.694   2.690
90932W        W50193   4.706  21.523   1.221
90933W        W50194  37.906   3.333  12.442
90934W        W50195  10.729  29.066  11.605
90935W        W50196  37.854  37.494  12.547
90936W        W50197  43.928  24.717  11.991
90937W        W50198  23.593  32.579   4.831
90938W        W50199  17.190  31.136   2.242
90939W        W50200  39.824  38.391   1.778
90940W        W50201   7.696  36.349   3.770
90941W        W50202  38.943  11.141  12.446
90942W        W50203  28.557  29.524   4.331
90943W        W50204   6.683  35.577   3.763
90944W        W50205  26.565  10.817   3.704
90945W        W50206  16.215  39.532   3.307
90946W        W50207  44.440  14.222  14.474
90947W        W50208  21.644  14.753  14.426
90948W        W50209   6.290   1.752   3.186
90949W        W50210   9.773  24.497  11.016
90950W        W50211  24.597   3.929  14.490
90951W        W50212  25.625  30.064  11.022
90952W        W50213  44.501  33.544   4.177
90953W        W50214  44.961  10.854   4.172
90954W        W50215  28.472  33.407  10.118
90955W        W50216  25.208  26.049   5.227
90956W        W50217  36.382  26.554   0.475
90957W        W50218  21.653  17.146   1.384
90958W        W50219  11.228  34.934  13.370
90959W        W50220  28.038  27.651  14.782
90960W        W50221   1.428   6.783  12.565
90961W        W50222  17.762  30.629   0.382
90962W        W50223  11.847  11.853  11.974
90963W        W50224  15.113  25.153   3.802
90964W        W50225   7.829  10.832  12.486
90965W        W50226  43.768   7.756   0.821
90966W        W50227  36.950  33.923   9.991
90967W        W50228   6.712  23.006   1.324
90968W        W50229  28.635   6.371  14.022
90969W        W50230   1.948   0.774  13.875
90970W        W50231  21.165  29.949   4.634
90971W        W50232  34.457   1.949  10.471
90972W        W50233  13.149  38.363  14.388
90973W        W50234  40.891   1.904   1.747
90974W        W50235   9.684  14.209   3.300
90975W        W50236  42.364  25.504  10.551
90976W        W50237   1.908  14.203  12.007
90977W        W50238  43.271   0.255  10.414
90978W        W50239  36.435  30.073  14.344
90979W        W50240   4.735  21.053  11.105
90980W        W50241  26.628   2.881  11.577
90981W        W50242  20.629  21.103  12.067
90982W        W50243  32.489   8.901   2.734
90983W        W50244   2.378   8.385   3.768
90984W        W50245  33.918  18.173  14.778
90985W        W50246  12.803   1.952   0.773
90986W        W50247   1.927  23.686   0.916
90987W        W50248  37.572  22.012   2.757
90988W        W50249   8.692  34.457  12.052
90989W        W50250  23.008  14.225  12.376
90990W        W50251  26.542  39.843  14.831
90991W        W50252  19.551  24.054   5.143
90992W        W50253  43.810  28.183   2.879
90993W        W50254  22.210  21.623  10.503
90994W        W50255  26.087  11.708   3.308
90995W        W50256  40.001  27.593  14.783
90996W        W50257  14.599  31.440   3.798
90997W        W50258   0.937  25.580   1.908
90998W        W50259  12.643  34.603   1.271
90999W        W50260  40.475   3.915   4.661
91000W        W50261  16.699  24.697  11.400
91001W        W50262  34.977  28.107   9.994
91002W        W50263  30.589  33.410   1.233
91003W        W50264  21.651  33.406  12.516
91004W        W50265   0.751  39.405  12.030
91005W        W50266  35.403   8.369   3.633
91006W        W50267  25.607  19.118  14.390
91007W        W50268  20.593   1.475  11.000
91008W        W50269   7.407   9.202   1.767
91009W        W50270  41.007  40.899   3.832
91010W        W50271  24.494  35.399  10.437
91011W        W50272  35.962  35.999   3.769
91012W        W50273  25.658  39.525  10.590
91013W        W50274  22.532  34.410  12.964
91014W        W50275   0.442  23.047   4.785
91015W        W50276  22.696  44.381   0.350
91016W        W50277  32.980  23.716   2.267
91017W        W50278  29.604  13.635  14.006
91018W        W50279   7.866  42.397  13.449
91019W        W50280  13.205  17.796  11.905
91020W        W50281  21.669   5.286   2.829
91021W        W50282  28.541  31.917  14.445
91022W        W50283   8.314  37.516  13.509
91023W        W50284   0.328  38.382   0.262
91024W        W50285  16.175   9.374   0.265
91025W        W50286  36.404  23.520   3.311
91026W        W50287   2.916  44.830   3.702
91027W        W50288  22.079  40.506  10.454
91028W        W50289  38.441  20.198   3.224
91029W        W50290  28.148  33.969  11.070
91030W        W50291   6.711  42.957  13.908
91031W        W50292  18.692  36.434  13.003
91032W        W50293   9.311  39.848   3.869
91033W        W50294  19.247  34.919   1.245
91034W        W50295  19.242  40.952  11.948
91035W        W50296  14.122  21.207   2.841
91036W        W50297   2.725  28.044  13.354
91037W        W50298  13.170   6.255  13.976
91038W        W50299  18.608  19.658  11.472
91039W        W50300  38.826  32.587  12.952
91040W        W50301  15.705  22.697   2.332
91041W        W50302  39.891  22.067   0.794
91042W        W50303  29.607  27.973  12.464
91043W        W50304   7.379  20.273  14.463
91044W        W50305  44.782  29.447   1.694
91045W        W50306  34.963   1.960   3.200
91046W        W50307  39.520   8.304  14.982
91047W        W50308   7.668  24.647  11.934
91048W        W50309  25.994   6.704  11.057
91049W        W50310  24.623  16.302   1.803
91050W        W50311   9.867  13.688  14.859
91051W        W50312  38.401  39.443  12.477
91052W        W50313  17.123   4.895  12.340
91053W        W50314  30.464  32.076  12.384
91054W        W50315  33.434   4.837  13.054
91055W        W50316  11.318  11.176  14.847
91056W        W50317  24.175  35.515  13.421
91057W        W50318  35.940  38.522  10.971
91058W        W50319   1.335  44.897  10.518
91059W        W50320  36.552  20.113  13.394
91060W        W50321  44.335  27.984  11.948
91061W        W50322  44.329  40.532   1.331
91062W        W50323  34.970  22.176  11.061
91063W        W50324  19.210  29.047   1.229
91064W        W50325   3.357   1.363  14.768
91065W        W50326  22.221   5.410   3.305
91066W        W50327  11.176  25.535  12.042
91067W        W50328  40.865  32.529   3.325
91068W        W50329  27.171  14.650   3.297
91069W        W50330  42.489  32.442  11.926
91070W        W50331   2.803  20.767  13.450
91071W        W50332  17.203  24.671   0.887
91072W        W50333  22.137  21.206   0.271
91073W        W50334  44.945  37.924  12.021
91074W        W50335  22.656  28.661   0.380
91075W        W50336  39.406  23.213  12.458
91076W        W50337  34.884   6.760   0.313
91077W        W50338  13.211  44.003   4.772
91078W        W50339  35.106  24.186   4.334
91079W        W50340   4.311  43.839   0.321
91080W        W50341  39.821  15.315  10.623
91081W        W50342  20.598  37.944  14.284
91082W        W50343  21.556  42.985   4.767
91083W        W50344  32.497   3.734   4.246
91084W        W50345  13.611   0.981  13.898
91085W        W50346  22.672  15.099  10.095
91086W        W50347  33.996  14.710   3.645
91087W        W50348  26.558  16.682   0.802
91088W        W50349  10.718  22.017   0.852
91089W        W50350  27.603   0.350   4.147
91090W        W50351  22.719   8.301  14.452
91091W        W50352  18.280   6.782  14.323
91092W        W50353  40.003  43.928   0.383
91093W        W50354  19.160  34.495  11.575
91094W        W50355  35.367  12.234   1.728
91095W        W50356  27.646  18.165   0.404
91096W        W50357  32.979   9.722  14.846
91097W        W50358  17.216   5.406  10.545
91098W        W50359  30.512  40.868   3.222
91099W        W50360   7.678  11.356  14.811
91100W        W50361  26.199  29.593   2.215
91101W        W50362  40.500  40.522   1.865
91102W        W50363   4.720  18.165  14.316
91103W        W50364  13.675  38.372  13.918
91104W        W50365   3.253   4.797  12.495
91105W        W50366  32.415  14.739   1.854
91106W        W50367  38.972  40.838  13.027
91107W        W50368   5.353  13.669  12.954
91108W        W50369  18.654  31.019  12.493
91109W        W50370  15.724  22.679   2.723
91110W        W50371  44.804  40.921  12.430
91111W        W50372   9.886  38.843  14.809
91112W        W50373  24.708  15.762   3.678
91113W        W50374  14.678  28.458  14.763
91114W        W50375  10.237  27.090   4.147
91115W        W50376   6.370   0.324  10.406
91116W        W50377  25.967  25.627   0.408
91117W        W50378  11.372  32.590  14.390
91118W        W50379  15.812  12.682   2.810
91119W        W50380   8.340  30.155  11.021
91120W        W50381  11.300  13.740   1.415
91121W        W50382  16.212  40.808  13.468
91122W        W50383  37.467  37.059   0.871
91123W        W50384  15.755   9.855   4.342
91124W        W50385  13.728  26.530   1.289
91125W        W50386   6.198  39.059   1.894
91126W        W50387  35.371  27.616   2.355
91127W        W50388  21.626  25.178   3.285
91128W        W50389  14.754  16.204   1.767
91129W        W50390  26.050  32.506   4.250
91130W        W50391   0.780  34.867   1.755
91131W        W50392  12.212  39.538   2.194
91132W        W50393   5.371  19.748   0.841
91133W        W50394   7.239   6.873  14.908
91134W        W50395  44.979  16.589  12.994
91135W        W50396   7.320  41.021   3.815
91136W        W50397  18.100   7.723   4.688
91137W        W50398  19.757  43.909  12.947
91138W        W50399  18.116  15.702  11.930
91139W        W50400  14.142  30.655  11.606
91140W        W50401  17.248  19.149  14.354
91141W        W50402   1.742  22.539   0.363
91142W        W50403   3.781  26.112   1.284
91143W        W50404  41.376  13.820   0.924
91144W        W50405  19.719  33.555  14.366
91145W        W50406  16.754  43.360   3.155
91146W        W50407  30.509   2.789   3.870
91147W        W50408  41.809  39.975  12.371
91148W        W50409  16.592   2.792  13.854
91149W        W50410  15.672  40.897   1.900
91150W        W50411   1.420  26.058   3.642
91151W        W50412  37.981   9.234   2.878
91152W        W50413   7.786  21.646  11.998
91153W        W50414  14.250  26.560   1.927
91154W        W50415  37.026   6.751   2.244
91155W        W50416   3.808   1.392   2.203
91156W        W50417  22.599   6.271  14.490
91157W        W50418  25.053  41.040  11.560
91158W        W50419  37.950  14.114   3.298
91159W        W50420  23.035  20.177  11.085
91160W        W50421   9.807  14.745  14.885
91161W        W50422  35.426  17.103  10.408
91162W        W50423   9.339  34.566   2.223
91163W        W50424   7.743  13.140   1.879
91164W        W50425  25.217  17.733  10.923
91165W        W50426   2.373  29.533   4.688
91166W        W50427  22.635   1.333   0.858
91167W        W50428  18.055  38.861   3.855
91168W        W50429  39.322   2.249   4.688
91169W        W50430  23.581  20.217   1.375
91170W        W50431  12.276  41.515   4.273
91171W        W50432  11.685  31.085  13.436
91172W        W50433  33.927  37.407  13.820
91173W        W50434  41.528  28.494  11.080
91174W        W50435  39.842  43.784  10.643
91175W        W50436  35.945  28.069   2.756
91176W        W50437  36.471  26.141   1.339
91177W        W50438   3.254   8.685   2.862
91178W        W50439  37.454  13.725   2.661
91179W        W50440   6.234  38.911  13.547
91180W        W50441  16.583  17.676  12.955
91181W        W50442   5.212   6.897   3.251
91182W        W50443   2.791  28.159  10.955
91183W        W50444  10.237  23.677   3.714
91184W        W50445  34.075  33.543  10.521
91185W        W50446  27.964  12.246  11.890
91186W        W50447   4.874  11.701   3.277
91187W        W50448  24.689   7.384  14.994
91188W        W50449  21.729  35.953  10.917
91189W        W50450  21.060  21.628   2.234
91190W        W50451  10.786  35.907   0.927
91191W        W50452  19.683   8.249  12.038
91192W        W50453   1.327  42.502  13.024
91193W        W50454  31.593   8.392   5.681
91194W        W50455  13.170  17.738   5.166
91195W        W50456   2.792   0.344  14.998
91196W        W50457  44.400  39.922  12.512
91197W        W50458   7.201   4.417  13.492
91198W        W50459  40.860  16.182   2.310
91199W        W50460   1.245  27.064  12.861
91200W        W50461  15.725  32.410  12.419
91201W        W50462  33.034  18.276   4.620
91202W        W50463  44.385  31.925   4.639
91203W        W50464  43.506  12.306  13.496
91204W        W50465  37.481  34.455   1.928
91205W        W50466  42.954  25.105   0.279
91206W        W50467   3.755  35.598   3.766
91207W        W50468  18.615  14.658   2.399
91208W        W50469  24.627  25.523   1.780
91209W        W50470  33.547  44.868  11.609
91210W        W50471  40.866  35.868   0.792
91211W        W50472   3.280  21.262   0.815
91212W        W50473  21.211  19.194   0.934
91213W        W50474  23.015  13.162  10.521
91214W        W50475  35.400  10.244  10.502
91215W        W50476  34.112  29.073  13.407
91216W        W50477   7.864  19.203  12.394
91217W        W50478   5.811   3.437   2.284
91218W        W50479  33.559   7.833  14.807
91219W        W50480  16.187   4.823   4.228
91220W        W50481  10.253  14.707  11.917
91221W        W50482  30.652  16.752  13.358
91222W        W50483  21.546  28.667  12.069
91223W        W50484  21.679  39.936   4.679
91224W        W50485  30.109   8.391  13.397
91225W        W50486  34.893   9.361   4.760
91226W        W50487  42.335  17.725  12.069
91227W        W50488  21.137  33.493  11.498
91228W        W50489  18.778  31.449   2.260
91229W        W50490  29.490  26.586   3.656
91230W        W50491  40.373   4.422  10.480
91231W        W50492  44.428  17.784   0.849
91232W        W50493   4.880  37.933  13.496
91233W        W50494  26.475  12.236   4.636
91234W        W50495   1.948  12.166   4.733
91235W        W50496  16.773  12.213  14.431
91236W        W50497  15.693  12.288   1.393
91237W        W50498  33.609   5.361   2.705
91238W        W50499   6.377  29.085   4.240
91239W        W50500  40.483   7.856   0.359
91240W        W50501  15.795  13.312   0.475
91241W        W50502  28.001  14.120  13.881
91242W        W50503   3.325   2.354  11.538
91243W        W50504   9.820  22.567   0.440
91244W        W50505  44.956  18.215   0.966
91245W        W50506   1.960  28.667  14.850
91246W        W50507  10.264  34.019   3.219
91247W        W50508   5.345   0.313  12.878
91248W        W50509  42.467  39.853   3.670
91249W        W50510  30.598  19.650   3.163
91250W        W50511  21.714  12.614   4.219
91251W        W50512  22.740   8.247   4.342
91252W        W50513  12.182  25.535  11.859
91253W        W50514  30.922  10.712   4.819
91254W        W50515  27.072  31.150   3.711
91255W        W50516   3.404  11.803   2.418
91256W        W50517  44.916  31.482  14.391
91257W        W50518  31.431  16.651   1.915
91258W        W50519  10.251  33.998  13.824
91259W        W50520  41.870  23.053   2.808
91260W        W50521  25.045  44.429  10.518
91261W        W50522  12.703   8.308  13.905
91262W        W50523  14.804  35.957  10.031
91263W        W50524  24.031  34.534  14.939
91264W        W50525   1.238  34.479   3.254
91265W        W50526  11.254  28.940  11.452
91266W        W50527  22.099  25.605   0.932
91267W        W50528  11.142  20.659  12.474
91268W        W50529   7.375  32.138  14.815
91269W        W50530   8.322   5.404  10.437
91270W        W50531  14.668  24.631   4.710
91271W        W50532  25.494  41.372   4.203
91272W        W50533  10.327  15.748   1.805
91273W        W50534  11.148  11.726   2.255
91274W        W50535   1.239   4.713   1.770
91275W        W50536   1.933  33.470  10.643
91276W        W50537  44.400  43.942  13.888
91277W        W50538  36.929  15.657   1.884
91278W        W50539  43.934   0.373  12.493
91279W        W50540  19.271   2.805   3.148
91280W        W50541  40.870  21.065  13.009
91281W        W50542  32.545  23.169  11.910
91282W        W50543   7.678  34.018   4.317
91283W        W50544  12.676  33.527   0.307
91284W        W50545  28.091   7.745  13.843
91285W        W50546  40.463   3.941   3.299
91286W        W50547   0.348  27.151  13.440
91287W        W50548   9.661  16.309  10.593
91288W        W50549  36.938  19.567   1.775
91289W        W50550  43.411  39.951  11.970
91290W        W50551   7.266  26.090   0.816
91291W        W50552  33.032  16.809  11.095
91292W        W50553  15.762  34.035   3.827
91293W        W50554  10.776  17.667  14.506
91294W        W50555   0.872  13.789   2.816
91295W        W50556  19.062  11.282  14.995
91296W        W50557  31.430  16.201  10.925
91297W        W50558  40.959  12.180   4.127
91298W        W50559  26.540  42.000   1.226
91299W        W50560   5.780  44.371  12.059
91300W        W50561  20.096  22.216  12.553
91301W        W50562  16.575   2.239  13.826
91302W        W50563  38.969  29.510  12.857
91303W        W50564  12.151  35.559   3.808
91304W        W50565  36.881  28.109  10.538
91305W        W50566   8.342  22.106   0.328
91306W        W50567  20.248   6.918  14.792
91307W        W50568  10.791   7.912   2.297
91308W        W50569  30.512  17.244   1.451
91309W        W50570  37.877   9.676  13.923
91310W        W50571  40.969  21.047  11.094
91311W        W50572  11.821   1.817   4.668
91312W        W50573  13.132  31.601  12.956
91313W        W50574   1.969  11.825   1.354
91314W        W50575  28.973   0.751  14.858
91315W        W50576  41.339  32.930   1.315
91316W        W50577  31.601  27.624  11.076
91317W        W50578  24.590  19.071  12.437
91318W        W50579  38.369   4.935   3.850
91319W        W50580  24.006  41.804  11.989
91320W        W50581  28.983  22.596   1.827
91321W        W50582   2.860  10.703  11.017
91322W        W50583  17.233  21.058   0.787
91323W        W50584  24.162  34.529  13.862
91324W        W50585  44.446   6.424  13.042
91325W        W50586  21.222  34.065  12.446
91326W        W50587  32.114   4.401   3.163
91327W        W50588  31.491  14.206   1.767
91328W        W50589   0.407  31.101  14.853
91329W        W50590  13.683  29.648   2.389
91330W        W50591  26.172   8.745   4.775
91331W        W50592  20.119   1.303  13.953
91332W        W50593   9.649  21.538  10.422
91333W        W50594  44.423  12.623   2.315
91334W        W50595  37.884  36.004   0.891
91335W        W50596   7.280  43.515  11.528
91336W        W50597  28.580  35.853   1.758
91337W        W50598   1.452  39.469   1.366
91338W        W50599   2.258  22.517  10.048
91339W        W50600  39.876  20.614  14.006
91340W        W50601   9.869  17.197   0.762
91341W        W50602  43.420  11.631  10.641
91342W        W50603  23.985  27.183   1.278
91343W        W50604  13.837  25.055   1.367
91344W        W50605   8.337  13.659   4.767
91345W        W50606  26.054   9.390   2.191
91346W        W50607  19.049  21.678   2.862
91347W        W50608  24.593   0.749   0.746
91348W        W50609  44.362  38.474   9.995
91349W        W50610   7.854  15.764   2.695
91350W        W50611  43.389  39.017   1.424
91351W        W50612   5.424  40.442   4.683
91352W        W50613  33.905  40.488   5.322
91353W        W50614  40.834  16.579  12.828
91354W        W50615  31.059   7.806   4.824
91355W        W50616  28.548  19.771   0.915
91356W        W50617  13.824  30.469  11.560
91357W        W50618  39.485   3.281  13.998
91358W        W50619  32.493  11.203  13.951
91359W        W50620  10.250   2.734   3.868
91360W        W50621  43.318   6.259   2.722
91361W        W50622  40.431   8.890   0.835
91362W        W50623  17.765   0.304   4.663
91363W        W50624   6.278   1.924   0.946
91364W        W50625  41.451  43.516   3.256
91365W        W50626   9.221   0.914  10.928
91366W        W50627   0.484   6.205   3.169
91367W        W50628   7.380   1.483   2.245
91368W        W50629  24.129  35.947  14.498
91369W        W50630  42.427  42.343   0.922
91370W        W50631  27.965  36.892   3.318
91371W        W50632   7.672  32.093  10.931
91372W        W50633  25.977  35.469   0.764
91373W        W50634  26.140  23.672  12.843
91374W        W50635  13.754  12.611   2.701
91375W        W50636  16.677   9.149   4.609
91376W        W50637  40.817  17.267   2.211
91377W        W50638  19.563  18.595   2.793
91378W        W50639  36.450  24.655   1.326
91379W        W50640  11.341   6.872  14.878
91380W        W50641  24.687   1.895  14.932
91381W        W50642  42.879   3.827  11.395
91382W        W50643  16.225  34.570  12.939
91383W        W50644  21.587  20.530  11.501
91384W        W50645  10.728  18.078   3.681
91385W        W50646  39.064  34.612   3.358
91386W        W50647  21.038  16.289   4.749
91387W        W50648   5.857  17.572   1.445
91388W        W50649  17.085  26.568  12.341
91389W        W50650  27.971  23.632   9.944
91390W        W50651  27.112   9.685   2.749
91391W        W50652   7.819  31.903   4.147
91392W        W50653  36.995  10.795   3.228
91393W        W50654  35.497   9.750  14.908
91394W        W50655   9.827  30.947  14.994
91395W        W50656  27.180   4.436  13.397
91396W        W50657  42.012  22.118   3.215
91397W        W50658   3.831   0.768  12.567
91398W        W50659  15.779  28.148  12.457
91399W        W50660  29.499   7.884   0.374
91400W        W50661  43.795  27.047  10.466
91401W        W50662  41.294   2.468  13.921
91402W        W50663   6.849  37.376   4.116
91403W        W50664  21.621  29.139  13.870
91404W        W50665   8.194  19.144  10.972
91405W        W50666  33.015   9.268   2.877
91406W        W50667   9.329  31.923   4.783
91407W        W50668  44.968  18.714  12.998
91408W        W50669  27.628  11.626   1.303
91409W        W50670  14.695  30.515   3.246
91410W        W50671   9.345  30.141  11.061
91411W        W50672  33.610  34.919  13.324
91412W        W50673  18.561  10.835   1.412
91413W        W50674   6.716   5.857  10.566
91414W        W50675  39.999  39.996   3.721
91415W        W50676  37.575   4.277   4.321
91416W        W50677  33.886  19.645   1.335
91417W        W50678  21.040  39.391   0.786
91418W        W50679  15.646  44.359   3.672
91419W        W50680  22.626  17.132   3.707
91420W        W50681   8.186  22.735   4.220
91421W        W50682  21.079  12.140  13.913
91422W        W50683  22.249  26.189  12.997
91423W        W50684   7.906  42.455   3.228
91424W        W50685  30.547  23.726   3.819
91425W        W50686  24.211  11.783   4.172
91426W        W50687   5.784  36.956  13.407
91427W        W50688  34.953   6.741  13.361
91428W        W50689  40.351  13.685  12.889
91429W        W50690  12.621  37.569   1.414
91430W        W50691  37.958   1.826   4.733
91431W        W50692  31.897  31.115  10.447
91432W        W50693  20.099  25.712   3.197
91433W        W50694  25.105   2.781  12.468
91434W        W50695   0.356  26.703  13.501
91435W        W50696  35.903  29.958   4.790
91436W        W50697  35.901  42.909  14.839
91437W        W50698  11.309  26.022  14.866
91438W        W50699  18.087  23.587   4.306
91439W        W50700  44.942  34.002   4.684
91440W        W50701  19.273  24.140  11.423
91441W        W50702   1.781  24.132  13.027
91442W        W50703   8.826   2.754   4.136
91443W        W50704  10.316  17.219  12.531
91444W        W50705   5.804   6.854  10.596
91445W        W50706  33.949   2.952   4.129
91446W        W50707  13.276  20.728   4.825
91447W        W50708  21.573  36.533   0.820
91448W        W50709   7.902  42.030   1.395
91449W        W50710  34.082  19.109   4.225
91450W        W50711  18.682   9.820  14.897
91451W        W50712  14.136  10.250  14.461
91452W        W50713  31.549   8.355   1.273
91453W        W50714  24.149   5.890   1.321
91454W        W50715  17.102  31.905   0.823
91455W        W50716  17.555  13.737  13.408
91456W        W50717  42.866  31.057  11.448
91457W        W50718  41.922   5.363   0.436
91458W        W50719   7.291  38.007   1.245
91459W        W50720  39.892  39.413   0.947
91460W        W50721  43.893  32.915  11.489
91461W        W50722   8.197  15.745   1.233
91462W        W50723  21.628  29.480   4.166
91463W        W50724  14.326  42.336   4.312
91464W        W50725   0.989  14.211   0.884
91465W        W50726  16.805   6.714  13.380
91466W        W50727  37.375   5.424  13.390
91467W        W50728  24.010  22.019   1.300
91468W        W50729  30.537  36.843   3.237
91469W        W50730  25.619   6.854   0.474
91470W        W50731  27.122   8.854  11.446
91471W        W50732  13.786   6.403   3.663
91472W        W50733   7.907  15.744   0.871
91473W        W50734  17.730  21.567   2.191
91474W        W50735  29.036   3.326   3.732
91475W        W50736   2.888   8.297   3.814
91476W        W50737   2.421  40.940  11.507
91477W        W50738  22.057  37.575  11.950
91478W        W50739   6.301  16.196   1.881
91479W        W50740  43.901  25.102   1.239
91480W        W50741  24.229  37.084   0.766
91481W        W50742  25.980  12.675  14.895
91482W        W50743  34.868  35.488  13.372
91483W        W50744   6.687   1.387  11.473
91484W        W50745  35.549  39.985   3.696
91485W        W50746   8.252  20.151   0.749
91486W        W50747  42.386  32.036   1.238
91487W        W50748  22.181  40.383   3.267
91488W        W50749  35.883   3.854   3.638
91489W        W50750   6.312   9.816  11.993
91490W        W50751  21.101  16.628   5.266
91491W        W50752   1.237   4.808   3.167
91492W        W50753  21.133  31.001  10.022
91493W        W50754  28.940   9.333   4.599
91494W        W50755  38.022  43.887   3.256
91495W        W50756   1.875  27.452  14.314
91496W        W50757  13.285  34.601  10.454
91497W        W50758  11.735  10.795  12.942
91498W        W50759   0.295  34.973   2.274
91499W        W50760  28.451  35.027   3.336
91500W        W50761   9.819  11.784  13.007
91501W        W50762  33.067   0.275   4.223
91502W        W50763  42.413  39.532   3.633
91503W        W50764  39.058  26.659   2.792
91504W        W50765   8.178  23.530   2.192
91505W        W50766  11.857  34.887  12.367
91506W        W50767  21.687  41.815   2.357
91507W        W50768  39.966  25.684   4.812
91508W        W50769  30.093  31.447  11.010
91509W        W50770   1.854  18.781  10.563
91510W        W50771  22.543  18.684  12.932
91511W        W50772  35.495  26.552  11.980
91512W        W50773  12.855  41.861  14.440
91513W        W50774  12.709  44.346   2.222
91514W        W50775  36.579  44.377   0.460
91515W        W50776  38.939  12.778  13.469
91516W        W50777  11.850   2.282   4.772
91517W        W50778   8.209  22.177  12.838
91518W        W50779  35.515  11.322   5.770
91519W        W50780  37.856   5.423  10.992
91520W        W50781   7.343  44.785  11.888
91521W        W50782  12.167  15.596  13.448
91522W        W50783  44.971   1.940  11.531
91523W        W50784  27.617   1.777   2.348
91524W        W50785  40.829   4.251   0.282
91525W        W50786   3.364  12.276   3.192
91526W        W50787  37.493   0.785  14.914
91527W        W50788  38.508  20.053   4.333
91528W        W50789   0.379  12.295  13.402
91529W        W50790  33.590  34.897  12.929
91530W        W50791   0.871  28.030  14.304
91531W        W50792  26.504   7.749  12.463
91532W        W50793  38.548   2.947  13.533
91533W        W50794  37.495  17.294   3.817
91534W        W50795  18.119  26.484  12.420
91535W        W50796  33.948  36.476  12.343
91536W        W50797  21.646  23.167  13.384
91537W        W50798  37.388  36.042   4.815
91538W        W50799  37.865   0.427  12.970
91539W        W50800   4.427   4.231   3.774
91540W        W50801  18.084  27.541   2.820
91541W        W50802  20.604   9.360  14.331
91542W        W50803  33.411  24.162   2.831
91543W        W50804   4.439  13.708  11.493
91544W        W50805  19.732   6.228   3.339
91545W        W50806  30.515  39.985  12.578
91546W        W50807   7.702  20.611  11.425
91547W        W50808  30.643  30.444  13.000
91548W        W50809  32.434  31.536   1.728
91549W        W50810  28.616  15.822   2.862
91550W        W50811  20.735   3.434  10.456
91551W        W50812  33.062  22.247  10.450
91552W        W50813  17.608   3.232   4.324
91553W        W50814  31.482  32.572   4.288
91554W        W50815  34.995  15.642   0.321
91555W        W50816  39.008  14.719   4.830
91556W        W50817  27.661  18.774  14.413
91557W        W50818  43.514  34.976   2.335
91558W        W50819  14.830  27.968   9.482
91559W        W50820  38.552  29.607   4.323
91560W        W50821  24.649   5.345  13.457
91561W        W50822  41.817  24.636   1.411
91562W        W50823  28.140   2.945  14.808
91563W        W50824  31.562  13.829   1.408
91564W        W50825  15.624  19.684  11.433
91565W        W50826  31.525  42.959  11.412
91566W        W50827   7.764  37.020   2.315
91567W        W50828  12.708  32.561   4.136
91568W        W50829   4.794  11.630  13.795
91569W        W50830  33.528  21.118   1.741
91570W        W50831  17.734  13.262  11.963
91571W        W50832  41.870   5.724  13.815
91572W        W50833   7.875  22.724   0.757
91573W        W50834  26.032  21.588   2.235
91574W        W50835  41.823  44.957  11.412
91575W        W50836  18.637   3.947   1.425
91576W        W50837  22.657  11.706  10.481
91577W        W50838   2.873  29.042  14.989
91578W        W50839  32.437  44.840  13.793
91579W        W50840  15.103  14.181   0.832
91580W        W50841  41.969  34.904  11.481
91581W        W50842  40.956  30.058   2.215
91582W        W50843   6.865  40.890  14.006
91583W        W50844   9.190  22.061   0.319
91584W        W50845   5.211  27.167  12.430
91585W        W50846  24.558  31.460   1.412
91586W        W50847  44.474   8.352   3.186
91587W        W50848  12.323  41.305   1.739
91588W        W50849  42.346  24.500  10.558
91589W        W50850  28.576  34.931  14.499
91590W        W50851  36.914  26.026  12.484
91591W        W50852  30.970   8.674  10.142
91592W        W50853   3.930  41.827  10.580
91593W        W50854   4.448  20.539   0.391
91594W        W50855  28.622   8.357   3.255
91595W        W50856  13.648   8.723   0.251
91596W        W50857  36.040   2.355   0.334
91597W        W50858  21.734  41.402  11.999
91598W        W50859  13.174  31.643  13.994
91599W        W50860  44.488  32.431   2.828
91600W        W50861  36.377  19.690  10.146
91601W        W50862  20.237   6.237   4.788
91602W        W50863  33.484  43.404  12.516
91603W        W50864   1.855  33.008   3.146
91604W        W50865  29.426  14.207   2.726
91605W        W50866  21.184  37.937  14.861
91606W        W50867  28.090  18.111   0.851
91607W        W50868   3.330  37.917  14.507
91608W        W50869  34.933  39.452  14.371
91609W        W50870  43.815  19.079   2.794
91610W        W50871   1.837  13.264  13.417
91611W        W50872  36.059  37.950  12.084
91612W        W50873   0.837   4.705   0.473
91613W        W50874   9.311  20.206   1.285
91614W        W50875  30.128   7.414   3.802
91615W        W50876  35.977  20.090   3.815
91616W        W50877  12.623  29.142  10.988
91617W        W50878  39.033  32.052  10.617
91618W        W50879  39.393  34.951  14.888
91619W        W50880   2.259   4.700  13.035
91620W        W50881  28.066  36.957   0.463
91621W        W50882  26.122   0.947  12.547
91622W        W50883   4.776  27.542   4.243
91623W        W50884  36.384  17.605  10.916
91624W        W50885  16.158  10.871  11.068
91625W        W50886  19.598  12.641   0.845
91626W        W50887   7.906  27.038   3.859
91627W        W50888  33.588  18.605   1.263
91628W        W50889   4.235  24.597   2.275
91629W        W50890  16.571  41.969  11.392
91630W        W50891  26.146   8.685  13.543
91631W        W50892   9.783  28.550  11.556
91632W        W50893  24.647  14.649   1.757
91633W        W50894  38.844   4.335  13.013
91634W        W50895   1.314  43.390   4.141
91635W        W50896  42.315  30.488  14.804
91636W        W50897  36.931  29.666   4.666
91637W        W50898   3.280  31.504   0.796
91638W        W50899  29.546  21.757   4.181
91639W        W50900   8.386   1.247   1.803
91640W        W50901  27.182  32.500   2.663
91641W        W50902  18.636  32.588  10.536
91642W        W50903  20.740   7.272   2.183
91643W        W50904  42.898  41.398   0.408
91644W        W50905  30.129  28.083  14.379
91645W        W50906  19.750  22.654   3.762
91646W        W50907  44.817  12.630  13.848
91647W        W50908  33.460  32.476  13.929
91648W        W50909  41.437   9.191   3.752
91649W        W50910   2.408  33.449  10.631
91650W        W50911  21.054   2.297  14.332
91651W        W50912  20.092   9.281   2.849
91652W        W50913  11.350  10.372   0.908
91653W        W50914   5.374   1.338   0.396
91654W        W50915  22.507  43.442  12.949
91655W        W50916   5.231  16.706  11.607
91656W        W50917  15.710  17.604  13.839
91657W        W50918  12.264  31.574   1.247
91658W        W50919   9.167  44.476   3.651
91659W        W50920  11.292   3.908   2.285
91660W        W50921   5.796   2.815  13.448
91661W        W50922  14.313  42.460   3.371
91662W        W50923  21.665  12.150  12.066
91663W        W50924  40.333  44.008   2.891
91664W        W50925   3.768  31.018   2.404
91665W        W50926  15.806   9.646  13.951
91666W        W50927   3.891  35.874  14.444
91667W        W50928  21.182  11.298  11.555
91668W        W50929  26.465  33.127  12.887
91669W        W50930  32.528  12.842  14.397
91670W        W50931  43.422  10.690   1.244
91671W        W50932  21.240  29.663   1.347
91672W        W50933   0.901   2.785  10.449
91673W        W50934  39.551  28.941   4.764
91674W        W50935   4.705  21.203   0.783
91675W        W50936   4.348  10.156  11.447
91676W        W50937  41.357   9.863  13.998
91677W        W50938  41.009  41.809   0.942
91678W        W50939  12.781  26.190  11.980
91679W        W50940  18.600   5.690   3.661
91680W        W50941  37.560  41.949   2.307
91681W        W50942   2.283   1.802   0.873
91682W        W50943  18.074  44.475  10.577
91683W        W50944   2.435  17.566  14.961
91684W        W50945  31.456  36.538   4.655
91685W        W50946  38.486   7.701  13.950
91686W        W50947  17.601   1.452   1.265
91687W        W50948  33.057  17.300   4.134
91688W        W50949  40.327  18.630   1.827
91689W        W50950  37.952  18.087  11.411
91690W        W50951   4.317  16.234  14.511
91691W        W50952  38.337  18.781  11.968
91692W        W50953  11.216   9.732   0.862
91693W        W50954   1.393  43.765   3.716
91694W        W50955  28.159  21.721   0.422
91695W        W50956  40.917  20.628  11.050
91696W        W50957  26.088   1.418   3.377
91697W        W50958   5.808   3.842   4.827
91698W        W50959   4.292   7.911   9.455
91699W        W50960  44.428  29.943   2.839
91700W        W50961   7.874  18.669   3.637
91701W        W50962  13.757  39.431   0.874
91702W        W50963  43.817  35.493   2.702
91703W        W50964   2.470  23.678  10.110
91704W        W50965  14.106   8.788  13.823
91705W        W50966   6.320  39.528   0.350
91706W        W50967  20.131  14.256   2.312
91707W        W50968  17.083  43.999  14.359
91708W        W50969  31.142  29.600   4.639
91709W        W50970  17.144   6.196  11.589
91710W        W50971   9.299   5.745   2.745
91711W        W50972   3.345   6.226  10.975
91712W        W50973  27.636  11.761   3.815
91713W        W50974  11.836  36.857   4.618
91714W        W50975  22.217  31.432   4.662
91715W        W50976   8.207  11.821  11.404
91716W        W50977  26.065  33.962   0.331
91717W        W50978   3.322  24.573  12.094
91718W        W50979  21.695  39.854   3.666
91719W        W50980  16.091  15.661  12.866
91720W        W50981  44.888  11.321  10.574
91721W        W50982  17.062  31.461  13.021
91722W        W50983  27.188  43.918  12.355
91723W        W50984  39.059  44.310   2.349
91724W        W50985  17.146  12.335  13.908
91725W        W50986  32.466  33.626  13.515
91726W        W50987  33.548  21.620  11.107
91727W        W50988  13.231  38.442   4.633
91728W        W50989  33.470  35.064  10.478
91729W        W50990  18.267  15.147  14.488
91730W        W50991   6.804  42.800   2.892
91731W        W50992  26.992  10.166  11.375
91732W        W50993  12.342  38.446  11.904
91733W        W50994  35.406  40.431   3.846
91734W        W50995  39.025  15.796  12.446
91735W        W50996  18.166  44.780  12.958
91736W        W50997  24.057   9.218   0.934
91737W        W50998   0.254  41.896  13.884
91738W        W50999   8.872  18.651   5.100
91739W        W51000  16.161   4.843  10.014
91740W        W51001  28.443   2.879   1.720
91741W        W51002   3.939  17.800   4.738
91742W        W51003   5.311  16.116   1.926
91743W        W51004  26.033  24.020   0.358
91744W        W51005  32.045  33.470   2.403
91745W        W51006  19.072  19.663   2.255
91746W        W51007  23.547  39.985  12.031
91747W        W51008  22.234  41.016  14.516
91748W        W51009  31.531  29.135   1.811
91749W        W51010  19.048   3.399  14.511
91750W        W51011   2.292  35.065   4.160
91751W        W51012  27.074  35.074   4.801
91752W        W51013  31.100  26.200  14.494
91753W        W51014   9.867   9.338  10.890
91754W        W51015  22.092  24.599   1.419
91755W        W51016  23.711  36.932  13.313
91756W        W51017   6.907  20.169   2.410
91757W        W51018  35.403  32.467  12.347
91758W        W51019  27.548   7.284   2.192
91759W        W51020  31.977  10.206   3.720
91760W        W51021  42.449  21.613   4.303
91761W        W51022  43.282   2.930   0.454
91762W        W51023  13.313   2.297  13.897
91763W        W51024  34.542  10.760   2.854
91764W        W51025  30.502  22.630   4.118
91765W        W51026   6.220  30.590  10.160
91766W        W51027  29.654   5.204   4.821
91767W        W51028  11.362  44.295  13.464
91768W        W51029  42.450  30.492  10.612
91769W        W51030  15.224  36.441  12.572
91770W        W51031  27.539  13.628  14.374
91771W        W51032  13.775  37.565  14.964
91772W        W51033   6.713  11.342   9.478
91773W        W51034   9.791  28.479   3.287
91774W        W51035  22.651   5.397   2.191
91775W        W51036  30.650  10.682  10.599
91776W        W51037  17.222  39.920   3.154
91777W        W51038  11.318   5.325  11.979
91778W        W51039  29.160  30.164  10.462
91779W        W51040  19.104   4.878  14.923
91780W        W51041  23.537  34.875  11.478
91781W        W51042  39.811   1.834  13.997
91782W        W51043  33.574  27.504  11.566
91783W        W51044  14.822   1.475   0.333
91784W        W51045  16.263  38.453  12.433
91785W        W51046  16.790  33.465  10.617
91786W        W51047  33.112   7.232   4.232
91787W        W51048  41.929  29.454  10.068
91788W        W51049  11.716  19.645  12.929
91789W        W51050  34.468  29.626  12.843
91790W        W51051  25.968  15.719   2.795
91791W        W51052   4.815  10.200  12.993
91792W        W51053   2.234  16.280   1.763
91793W        W51054   6.863  29.164  10.636
91794W        W51055  20.047  26.031   2.267
91795W        W51056  36.903  43.867   0.398
91796W        W51057  23.094  20.668  12.910
91797W        W51058  10.138  37.357   9.931
91798W        W51059  12.783  41.999  12.369
91799W        W51060  18.085  22.237  13.032
91800W        W51061  25.065  33.954  12.377
91801W        W51062   6.377   1.867  12.045
91802W        W51063  44.886  31.059   2.686
91803W        W51064  24.676  29.990   1.264
91804W        W51065  12.156  23.723  11.030
91805W        W51066  37.082  17.197  10.482
91806W        W51067  22.121  32.068  11.065
91807W        W51068   7.801  40.481   4.633
91808W        W51069  29.041  11.735   5.294
91809W        W51070   3.870  18.771  11.090
91810W        W51071  22.132  31.918   3.190
91811W        W51072  26.020  40.951   3.290
91812W        W51073  19.630  39.322  10.619
91813W        W51074  39.393  12.254   1.261
91814W        W51075  38.033  26.638   2.201
91815W        W51076   1.966  21.595   4.138
91816W        W51077  44.947  29.144   1.896
91817W        W51078   6.246  20.200   3.205
91818W        W51079  33.116   4.733  14.824
91819W        W51080  30.626  26.696   0.251
91820W        W51081  36.086  22.190  14.296
91821W        W51082  41.889   9.198   3.293
91822W        W51083  17.557  12.305   3.654
91823W        W51084  11.153   0.909  11.944
91824W        W51085   7.676  41.041  14.775
91825W        W51086  33.546  15.819   1.235
91826W        W51087  39.385  33.516   2.403
91827W        W51088  14.728  21.557  10.417
91828W        W51089   9.327  10.314   3.299
91829W        W51090  31.619   9.230  11.474
91830W        W51091  12.683  36.859   3.737
91831W        W51092  39.335   5.881   3.639
91832W        W51093  41.816  14.737  14.808
91833W        W51094  10.285   1.417   3.706
91834W        W51095  13.244  20.597  13.836
91835W        W51096   3.792  11.158  14.827
91836W        W51097  30.483  20.581   1.774
91837W        W51098  12.638   2.318   0.390
91838W        W51099  40.846  41.479   3.649
91839W        W51100  34.540  36.850   1.381
91840W        W51101  37.991  17.098  11.102
91841W        W51102  11.317  43.938  14.502
91842W        W51103  24.048   5.435  13.513
91843W        W51104   1.882  27.548   2.214
91844W        W51105   9.813  21.575   3.196
91845W        W51106  27.575   9.680  14.000
91846W        W51107  11.359   7.845   3.869
91847W        W51108  28.145  19.243  13.044
91848W        W51109  24.008  28.167   2.214
91849W        W51110   9.260   3.800   0.785
91850W        W51111  24.611  38.965   3.806
91851W        W51112  24.224  39.495  12.413
91852W        W51113  19.578  40.944  13.846
91853W        W51114  16.144  35.482   1.877
91854W        W51115  27.961  16.751   0.780
91855W        W51116   9.807  31.460  10.477
91856W        W51117  10.856  21.688   3.856
91857W        W51118   7.186  21.731   4.803
91858W        W51119   4.366  13.780  13.414
91859W        W51120  32.420   1.873   4.345
91860W        W51121  28.588  39.975   1.267
91861W        W51122  27.482  31.600   3.185
91862W        W51123  40.983   0.792   1.252
91863W        W51124  41.827   5.721   3.722
91864W        W51125  36.904   9.388   0.805
91865W        W51126  25.701  38.410   3.193
91866W        W51127  34.512  21.171  12.927
91867W        W51128  44.505  19.588   9.953
91868W        W51129  17.282   6.386  11.887
91869W        W51130  27.097   5.427  14.319
91870W        W51131  27.650  32.039   1.695
91871W        W51132   9.238  36.004  11.987
91872W        W51133  10.356   3.241  12.016
91873W        W51134  44.868  23.557   0.856
91874W        W51135  19.130  23.190   4.248
91875W        W51136  30.913   0.484   3.721
91876W        W51137  20.708  11.142  11.881
91877W        W51138  30.581  32.454   9.928
91878W        W51139  38.060  44.447  12.374
91879W        W51140  27.997  39.823  10.471
91880W        W51141  26.001  24.027  13.808
91881W        W51142  33.511  17.143  12.947
91882W        W51143  39.987  36.072  12.994
91883W        W51144  28.553  33.426  12.518
91884W        W51145  43.919  12.800   1.450
91885W        W51146  17.783  34.891  12.011
91886W        W51147  30.532  22.532  11.589
91887W        W51148  19.282   4.753   9.979
91888W        W51149  21.118  17.618   1.768
91889W        W51150  35.600  43.401   1.447
91890W        W51151   9.853  41.356   3.809
91891W        W51152  30.560  16.129  11.092
91892W        W51153  25.965   0.255   2.250
91893W        W51154  21.654   0.890  13.912
91894W        W51155  30.032  32.549  10.455
91895W        W51156  12.761  26.535   4.723
91896W        W51157   4.895  27.187  11.095
91897W        W51158  37.381   1.874  10.108
91898W        W51159  17.219  38.425  10.509
91899W        W51160  38.891  44.878  14.998
91900W        W51161  40.045  12.308  13.047
91901W        W51162  29.991  18.206  11.120
91902W        W51163  40.918   8.346  14.453
91903W        W51164   7.694   4.403  13.823
91904W        W51165  23.097  28.046   2.402
91905W        W51166   9.874  38.011   0.945
91906W        W51167   9.736  15.619   3.203
91907W        W51168  32.424  28.575   1.367
91908W        W51169  36.538  24.190  14.495
91909W        W51170  38.836  11.283  11.867
91910W        W51171  15.112  23.672   4.834
91911W        W51172  38.449   7.743   4.838
91912W        W51173  41.361  37.439   3.864
91913W        W51174   2.416  28.160   3.242
91914W        W51175   6.900  42.026  14.925
91915W        W51176  29.644  32.491  11.916
91916W        W51177  22.673   0.934  13.447
91917W        W51178  31.520   7.379  12.896
91918W        W51179  25.200  35.953  10.499
91919W        W51180  40.857   2.754  13.975
91920W        W51181  22.244  26.568   2.715
91921W        W51182  10.137  36.030   4.210
91922W        W51183  40.544  41.349  12.567
91923W        W51184   9.876  17.684  12.526
91924W        W51185  18.578  18.164  14.819
91925W        W51186  23.493  21.694  14.474
91926W        W51187  22.605   9.786  14.286
91927W        W51188  20.751  17.609  13.430
91928W        W51189  15.656  24.081   4.209
91929W        W51190  24.706  34.428  12.366
91930W        W51191   9.306  14.314   2.200
91931W        W51192   3.251   8.282   3.794
91932W        W51193  38.063  21.033  12.029
91933W        W51194   2.941  20.247  13.994
91934W        W51195  23.206   7.227   1.928
91935W        W51196  22.553  21.743   1.358
91936W        W51197  35.596  12.843  14.865
91937W        W51198  17.702  13.811   2.366
91938W        W51199  36.005  38.348   3.229
91939W        W51200  20.159  39.450  12.873
91940W        W51201  42.956   2.816   0.905
91941W        W51202  37.430  13.183  14.436
91942W        W51203   6.782  21.261   2.276
91943W        W51204   8.287   7.240  11.474
91944W        W51205   4.766  11.161   2.808
91945W        W51206  17.620  14.226   0.317
91946W        W51207  40.858   1.468  11.375
91947W        W51208  22.585  30.549   2.231
91948W        W51209  44.756  37.970  11.058
91949W        W51210  13.303  43.893  10.933
91950W        W51211   0.393  23.115   2.849
91951W        W51212  14.722  18.067  14.787
91952W        W51213  33.497  31.616   1.828
91953W        W51214   0.326  40.331  11.011
91954W        W51215  18.658  22.170  10.052
91955W        W51216  29.163  25.672  13.481
91956W        W51217  31.913  10.230   0.337
91957W        W51218  15.106  15.203  13.488
91958W        W51219  20.739  13.317   4.248
91959W        W51220  26.964  36.398  11.087
91960W        W51221   6.419  41.456   4.211
91961W        W51222  26.603  30.050   3.715
91962W        W51223  40.031  33.131  14.510
91963W        W51224  21.263   2.367   1.695
91964W        W51225  28.943  31.959   4.197
91965W        W51226   4.436  41.796  13.881
91966W        W51227  19.608  41.937  14.498
91967W        W51228  18.702   0.393  11.128
91968W        W51229  14.160  41.872  13.019
91969W        W51230  44.453  24.644  10.986
91970W        W51231   6.811   0.890  13.897
91971W        W51232  11.720  41.864   0.884
91972W        W51233  19.542   5.723  13.361
91973W        W51234  19.755  40.366   3.346
91974W        W51235  40.831  10.682   4.633
91975W        W51236  33.884   7.325   1.263
91976W        W51237  30.155  32.944   1.381
91977W        W51238  25.997  30.592   0.441
91978W        W51239  30.098  34.596   0.429
91979W        W51240   5.323  31.642  10.525
91980W        W51241   1.928   4.715  13.543
91981W        W51242  34.051  42.446  12.993
91982W        W51243  44.883   5.844   2.795
91983W        W51244  28.556  21.196   0.282
91984W        W51245  34.592  16.303   1.730
91985W        W51246  42.989  43.799  10.527
91986W        W51247  38.821  43.363   1.901
91987W        W51248   9.149  35.535   4.148
91988W        W51249  15.720  37.862  12.352
91989W        W51250   2.930  42.991   4.629
91990W        W51251  27.155  38.385  10.584
91991W        W51252  27.501  40.375   4.830
91992W        W51253  33.388  15.213  11.108
91993W        W51254  28.032  41.946   0.385
91994W        W51255   6.222  13.809   2.334
91995W        W51256   0.789  22.560   5.216
91996W        W51257  32.490  34.010  11.868
91997W        W51258  16.302  44.389  13.380
91998W        W51259  38.021   4.261   3.256
91999W        W51260  42.508   4.346   3.194
92000W        W51261  40.802  13.280  11.519
92001W        W51262  24.621  15.091   4.828
92002W        W51263  32.583  14.764  13.850
92003W        W51264  13.725  32.087   2.732
92004W        W51265  34.121  25.195   4.797
92005W        W51266  13.184  22.235  12.080
92006W        W51267  37.365  43.435   4.274
92007W        W51268  26.194   3.256   4.805
92008W        W51269   9.328   9.374   4.830
92009W        W51270   9.870  35.394  13.418
92010W        W51271  10.240  29.022   3.186
92011W        W51272  31.033  11.358   2.764
92012W        W51273  32.098  41.490   2.893
92013W        W51274  41.857  13.731  12.459
92014W        W51275   2.380  20.194  10.589
92015W        W51276   0.403  23.633  11.078
92016W        W51277  42.798  30.655   4.696
92017W        W51278  26.667  16.616   3.258
92018W        W51279  37.414  24.594  10.898
92019W        W51280  28.098  37.408  13.015
92020W        W51281  18.646   7.354   4.799
92021W        W51282  12.214  31.077   0.378
92022W        W51283  34.592  34.030  14.280
92023W        W51284  44.362  23.681  14.284
92024W        W51285  32.608  34.603   0.924
92025W        W51286  11.211  37.995  11.074
92026W        W51287  25.194  26.552   0.879
92027W        W51288   6.773  32.493   0.386
92028W        W51289  32.043  43.793   1.444
92029W        W51290   6.723  27.543  14.917
92030W        W51291  29.166  44.465  14.787
92031W        W51292  34.008  14.173  10.976
92032W        W51293  19.188  19.772  13.539
92033W        W51294   6.221   6.729  14.763
92034W        W51295  32.560  37.398   0.328
92035W        W51296  24.503  23.024  12.345
92036W        W51297  17.238   5.713  14.807
92037W        W51298  11.180  22.198  14.369
92038W        W51299  13.148   1.450  11.371
92039W        W51300  11.188   8.403  12.089
92040W        W51301  43.315  13.131  14.441
92041W        W51302  34.567   7.191   0.792
92042W        W51303  27.603   9.665  14.855
92043W        W51304  33.941  33.062  10.448
92044W        W51305  15.178  15.159  13.877
92045W        W51306   1.440   3.860   4.247
92046W        W51307  40.891  32.990   1.777
92047W        W51308  24.988  24.573  14.497
92048W        W51309  15.738   4.876  12.884
92049W        W51310  18.621  37.428  13.368
92050W        W51311  42.789  20.645  12.493
92051W        W51312  42.991   2.394   4.837
92052W        W51313  12.297  16.642   3.198
92053W        W51314   3.392  27.947  14.363
92054W        W51315  34.430  43.962   2.308
92055W        W51316  13.704  24.716   0.409
92056W        W51317  20.684  34.886   3.211
92057W        W51318  33.002   8.395  12.394
92058W        W51319   7.224  13.683   1.359
92059W        W51320   4.383  41.837   0.802
92060W        W51321  39.328  33.952  13.905
92061W        W51322  28.929  30.921   3.295
92062W        W51323  27.497  43.346  10.601
92063W        W51324  12.150  23.236  12.470
92064W        W51325   7.860  27.492   3.185
92065W        W51326  19.776   9.736   3.217
92066W        W51327  19.242  27.952  13.539
92067W        W51328  12.294  22.051   4.234
92068W        W51329  40.005  36.077   1.790
92069W        W51330  14.133  41.949  13.419
92070W        W51331  44.386  12.777   4.760
92071W        W51332  34.552   6.900  11.959
92072W        W51333  40.402  38.457   2.260
92073W        W51334  23.099  43.967  10.933
92074W        W51335  38.336   4.714  12.429
92075W        W51336  17.190   4.715   5.304
92076W        W51337  24.645  30.024   0.298
92077W        W51338  12.678  37.531  14.868
92078W        W51339  29.982  42.390   1.706
92079W        W51340  24.036  14.694  12.872
92080W        W51341  24.503  35.376  14.768
92081W        W51342   5.256   0.305  11.945
92082W        W51343  31.049  25.681  11.922
92083W        W51344  41.529  40.490   0.924
92084W        W51345  23.591   2.337   0.865
92085W        W51346  20.664   5.695   4.653
92086W        W51347  32.402   4.729  12.474
92087W        W51348  36.080  42.306  11.571
92088W        W51349  40.828  10.306  11.372
92089W        W51350  14.268   3.925   2.859
92090W        W51351  34.009  19.132   0.338
92091W        W51352  29.544  30.514   1.441
92092W        W51353   4.729  12.247   0.767
92093W        W51354   0.381   8.274   4.197
92094W        W51355   1.400  26.609  11.037
92095W        W51356  37.384  15.716   3.649
92096W        W51357   0.814  42.384  14.937
92097W        W51358  25.672  39.514   2.831
92098W        W51359  20.586  32.572  12.837
92099W        W51360  36.436  17.588  13.001
92100W        W51361   5.396  33.513   0.363
92101W        W51362   4.798  39.971  10.094
92102W        W51363  36.521  43.332   1.781
92103W        W51364  25.994  42.806  11.862
92104W        W51365  29.055  17.738   2.323
92105W        W51366  16.577  42.316  12.433
92106W        W51367  29.072   0.457   1.912
92107W        W51368  25.175  12.628   4.190
92108W        W51369  34.486   5.403   3.356
92109W        W51370  42.893  14.269  11.043
92110W        W51371  43.316  18.207   0.766
92111W        W51372  36.501  21.059   3.199
92112W        W51373  33.417  42.786   2.399
92113W        W51374   2.920  16.788   1.894
92114W        W51375  10.289   2.257  12.090
92115W        W51376   8.763  15.807  11.440
92116W        W51377   4.373   4.307  12.947
92117W        W51378  20.193  31.051  14.844
92118W        W51379   3.710  32.040  12.453
92119W        W51380  12.758   9.244  12.382
92120W        W51381  27.627   4.398  10.635
92121W        W51382   7.840  28.987  13.841
92122W        W51383  12.206  15.168  12.440
92123W        W51384  34.027  30.960  10.626
92124W        W51385  15.246  44.336   4.709
92125W        W51386  25.992  36.449  14.777
92126W        W51387   3.843   5.259  11.397
92127W        W51388  10.699  13.201  14.281
92128W        W51389  12.686  29.642   3.277
92129W        W51390  34.080  32.435   4.834
92130W        W51391  12.695  19.606   0.910
92131W        W51392  16.167  26.463   4.231
92132W        W51393  30.026  11.823  13.345
92133W        W51394   1.735  33.522   4.162
92134W        W51395  26.997  12.677   2.892
92135W        W51396  25.204  26.599  14.768
92136W        W51397  39.334  38.994   2.389
92137W        W51398   7.269   2.377   0.916
92138W        W51399  12.154   5.903  12.967
92139W        W51400  28.944  13.800   0.800
92140W        W51401   3.378  10.218   2.683
92141W        W51402  42.843  28.079  14.415
92142W        W51403  41.377  33.493  11.575
92143W        W51404  15.316  26.616  11.383
92144W        W51405  33.105  26.641   1.755
92145W        W51406   9.305  16.227   9.986
92146W        W51407  15.153  11.818  11.866
92147W        W51408  35.980  22.693  11.022
92148W        W51409   1.361  28.486  14.965
92149W        W51410  33.880  19.201   3.677
92150W        W51411  37.529  17.625  10.500
92151W        W51412   4.728   0.381   4.774
92152W        W51413  35.879  39.972  14.311
92153W        W51414  12.218   3.422   2.250
92154W        W51415  14.108  20.574  11.534
92155W        W51416  31.148  44.440  14.502
92156W        W51417  15.156  25.658   3.695
92157W        W51418   1.773   5.322   2.698
92158W        W51419  15.722   4.261  12.388
92159W        W51420   7.213  25.707  11.423
92160W        W51421  34.504  25.606  11.856
92161W        W51422  41.945  40.968  12.502
92162W        W51423  10.760  31.537  11.113
92163W        W51424  37.050   1.316  10.910
92164W        W51425   0.433   0.824   2.181
92165W        W51426  33.010  26.543  11.439
92166W        W51427  19.064  33.957   4.810
92167W        W51428  38.020   5.879  10.939
92168W        W51429   4.767  24.140  11.392
92169W        W51430   2.772  35.459   4.315
92170W        W51431  35.868  26.176  12.065
92171W        W51432   7.244  17.121   3.638
92172W        W51433  35.055  10.173  13.048
92173W        W51434   2.402  30.571   2.833
92174W        W51435  44.391  26.598   4.224
92175W        W51436  40.430  26.206   1.702
92176W        W51437  41.314  25.630  11.438
92177W        W51438  40.050  15.774  13.032
92178W        W51439  25.506  30.656  13.416
92179W        W51440  29.541  38.563   0.453
92180W        W51441   8.238  22.110  13.960
92181W        W51442  32.602  19.555  12.911
92182W        W51443   3.720  37.427   1.326
92183W        W51444  24.582   9.233   0.271
92184W        W51445  44.418  36.561   4.605
92185W        W51446  13.345  44.346  11.438
92186W        W51447  31.497  23.019  11.502
92187W        W51448  22.240  14.221   3.145
92188W        W51449  11.711  44.423   5.276
92189W        W51450  16.112  17.727  13.396
92190W        W51451   5.912  21.632   2.822
92191W        W51452  43.442   9.358  14.786
92192W        W51453  18.760  37.838  10.948
92193W        W51454  10.260  30.010   4.201
92194W        W51455  27.195  35.087  14.898
92195W        W51456  11.695  35.857   2.770
92196W        W51457   5.772   2.842  10.564
92197W        W51458  39.868  44.489   0.912
92198W        W51459  27.646  39.042   2.729
92199W        W51460  10.726  27.120   1.697
92200W        W51461   9.793   7.213   1.334
92201W        W51462  29.650  12.159  11.399
92202W        W51463  21.754  29.477  10.449
92203W        W51464  29.635  18.674   3.147
92204W        W51465  34.875   4.295  12.446
92205W        W51466  18.627  17.563   3.752
92206W        W51467  23.724   4.210  11.424
92207W        W51468   5.405  19.737  11.525
92208W        W51469  37.476  42.914  10.924
92209W        W51470  16.111  27.046  12.450
92210W        W51471  10.156  25.496  11.993
92211W        W51472  42.846  35.865   1.792
92212W        W51473  25.567   4.270   3.756
92213W        W51474  11.803  29.584   0.402
92214W        W51475   9.859  39.435  14.910
92215W        W51476  15.765  30.472  14.398
92216W        W51477  27.095  37.026   0.324
92217W        W51478  40.019  36.579   0.458
92218W        W51479   2.391  24.056  12.964
92219W        W51480   5.201  38.853   4.660
92220W        W51481  43.856   8.767  11.416
92221W        W51482   6.738  11.845   0.324
92222W        W51483  33.119  33.028  12.396
92223W        W51484   0.288   1.802  14.970
92224W        W51485  25.711  12.323  11.572
92225W        W51486   4.711  39.354  10.438
92226W        W51487  16.716  34.458  13.975
92227W        W51488  23.107  11.373   3.302
92228W        W51489   7.247  32.053   0.773
92229W        W51490  32.005  35.496  10.572
92230W        W51491  26.698  24.058  12.886
92231W        W51492  44.885  29.480  14.439
92232W        W51493  37.869  11.217  10.557
92233W        W51494   3.785  44.827  11.439
92234W        W51495   0.426  24.196  14.316
92235W        W51496  39.499  42.010   1.341
92236W        W51497   1.473  30.461  11.416
92237W        W51498  20.568   0.970  13.006
92238W        W51499  15.290  39.030   0.796
92239W        W51500  35.557  35.419  11.391
92240W        W51501  44.926   2.370   2.322
92241W        W51502   4.768  24.494   1.311
92242W        W51503  39.840  29.474   4.747
92243W        W51504  37.379  11.753   3.862
92244W        W51505  22.179  16.146  13.440
92245W        W51506   9.691  19.607   0.756
92246W        W51507  44.991  15.758   3.689
92247W        W51508  24.210  19.699   3.712
92248W        W51509  11.201   1.467   4.227
92249W        W51510  37.412  11.779  11.519
92250W        W51511  14.652  13.106   1.883
92251W        W51512  24.102  30.564  10.148
92252W        W51513  20.747   9.377   1.788
92253W        W51514  23.007  27.998   0.823
92254W        W51515  13.279   4.890  12.554
92255W        W51516  12.793   3.254  14.348
92256W        W51517  41.461  39.873  13.792
92257W        W51518   2.329   5.822   2.317
92258W        W51519   8.814  32.954  12.538
92259W        W51520  31.447   1.784  11.914
92260W        W51521  35.067   1.873   0.880
92261W        W51522  18.744  43.397  13.400
92262W        W51523  37.372  43.410  14.784
92263W        W51524   2.450  36.085  11.049
92264W        W51525  23.713  23.094   0.438
92265W        W51526  37.535  40.914   4.212
92266W        W51527  10.742   2.810  12.925
92267W        W51528  27.166  34.477  11.988
92268W        W51529  44.447  10.295  10.064
92269W        W51530  24.601  21.707   3.664
92270W        W51531  44.417   9.873  14.444
92271W        W51532  17.678  35.910   3.352
92272W        W51533  11.757   0.308  11.869
92273W        W51534  26.083  20.665  10.994
92274W        W51535  31.608   0.333   3.381
92275W        W51536  13.834  19.545   1.850
92276W        W51537  13.204  14.818  14.977
92277W        W51538  22.087  31.092  10.635
92278W        W51539  18.138   9.214   1.431
92279W        W51540  13.674  11.270   2.708
92280W        W51541  34.481  28.953   0.393
92281W        W51542  23.607  12.736  13.377
92282W        W51543  16.574  25.011  11.961
92283W        W51544  34.918  33.932  12.948
92284W        W51545  21.520  33.467  10.040
92285W        W51546  32.075  19.051   0.728
92286W        W51547   5.919  10.824  12.830
92287W        W51548   8.281  15.664  12.349
92288W        W51549   6.371  27.165   3.365
92289W        W51550  20.603  35.443   2.745
92290W        W51551  17.765  15.644  14.508
92291W        W51552  30.010  24.671  13.797
92292W        W51553  38.951  18.080  13.428
92293W        W51554  42.018  41.981   0.754
92294W        W51555  35.006  17.241  10.039
92295W        W51556  32.526  39.357   1.906
92296W        W51557  17.120  15.263  10.443
92297W        W51558  18.172  42.988  12.467
92298W        W51559  23.054  15.638   2.885
92299W        W51560  23.616  15.792   0.331
92300W        W51561  35.934  25.117   0.923
92301W        W51562  34.060   6.293  10.497
92302W        W51563  31.003   9.829  11.036
92303W        W51564  10.865   0.274  14.766
92304W        W51565  40.860  37.963   4.127
92305W        W51566  34.075  36.054   2.205
92306W        W51567  20.601  29.067  13.341
92307W        W51568  30.478  12.167   1.324
92308W        W51569  28.943  34.073  10.506
92309W        W51570  27.952  10.748   2.252
92310W        W51571  18.253  38.339  13.432
92311W        W51572  32.937  11.633   3.688
92312W        W51573   2.876  19.220   4.175
92313W        W51574  29.493  37.044  11.967
92314W        W51575  42.796  14.827  13.331
92315W        W51576   9.823  44.467  10.403
92316W        W51577  40.992   2.411  13.987
92317W        W51578  12.306  11.370   5.130
92318W        W51579  34.380   5.431   0.740
92319W        W51580  38.838  41.798   1.721
92320W        W51581  30.570  32.496  11.033
92321W        W51582  42.913  31.619  13.485
92322W        W51583  31.448  15.298  11.947
92323W        W51584  19.136  17.782   4.163
92324W        W51585  43.824   0.344   0.953
92325W        W51586  35.896   0.959   2.302
92326W        W51587  28.584  30.468   0.453
92327W        W51588  39.832  20.615   2.234
92328W        W51589  14.261  20.173  12.514
92329W        W51590  32.544  41.292  14.857
92330W        W51591   3.784  23.071   3.288
92331W        W51592   0.339  22.191  14.797
92332W        W51593  23.494  12.213   1.813
92333W        W51594   2.261  36.065  13.929
92334W        W51595   7.850  39.477   4.727
92335W        W51596  30.987  20.671  10.459
92336W        W51597  16.086  12.813  12.575
92337W        W51598  28.521  34.072  12.047
92338W        W51599  11.786  40.435   5.158
92339W        W51600  38.828  22.191  11.988
92340W        W51601  31.061  14.610   3.208
92341W        W51602  37.991  44.839  14.365
92342W        W51603   1.289   8.868   2.808
92343W        W51604  28.583  20.676  10.478
92344W        W51605  37.052   6.856   3.286
92345W        W51606  23.195   6.227  14.395
92346W        W51607  38.367  37.508   4.286
92347W        W51608  39.400  11.276   4.120
92348W        W51609  18.280  38.987  11.096
92349W        W51610  43.999  18.207  14.992
92350W        W51611  28.495   0.933  11.892
92351W        W51612  10.196  35.075  10.537
92352W        W51613  17.248  38.986   1.381
92353W        W51614   0.369  29.921  12.360
92354W        W51615  12.669  11.211  10.544
92355W        W51616  13.261   7.358   3.218
92356W        W51617  25.607  42.948   4.638
92357W        W51618  42.840  29.991   0.855
92358W        W51619   9.667  25.697  10.408
92359W        W51620  16.750  35.864  11.457
92360W        W51621  14.285  36.966   3.736
92361W        W51622   3.765  43.451   4.199
92362W        W51623  40.979   3.832  10.898
92363W        W51624  22.099  41.319  14.300
92364W        W51625  11.762  41.026   2.374
92365W        W51626  21.680  24.977  10.109
92366W        W51627  30.055  39.027  11.079
92367W        W51628  40.339   8.373   3.826
92368W        W51629  24.105  33.576  11.430
92369W        W51630   2.339  41.312   0.944
92370W        W51631  12.262  12.141   1.211
92371W        W51632  11.670  23.567   2.677
92372W        W51633  31.406   2.296   1.797
92373W        W51634  13.753  41.959   4.691
92374W        W51635  22.213   8.228   4.627
92375W        W51636  41.016  28.472  11.899
92376W        W51637  32.128   3.843  11.919
92377W        W51638  39.009  43.773  14.504
92378W        W51639  43.997  43.304   1.694
92379W        W51640  29.596  20.112   4.202
92380W        W51641   2.332  20.206  14.491
92381W        W51642  39.359  31.609   2.217
92382W        W51643  23.695  36.866   3.325
92383W        W51644  18.763  11.205   4.318
92384W        W51645  42.947  43.379   3.236
92385W        W51646  25.677  32.013   2.866
92386W        W51647  42.526  16.807  11.611
92387W        W51648  25.158  23.656   4.783
92388W        W51649  37.511   0.761   2.191
92389W        W51650  43.358   5.236   2.244
92390W        W51651  20.747  25.711   5.246
92391W        W51652  10.146  44.429  11.591
92392W        W51653   0.297   6.724   0.365
92393W        W51654  10.303  26.135   1.726
92394W        W51655   2.340  12.742   1.838
92395W        W51656  44.789  40.951  13.526
92396W        W51657  26.687  43.453   4.723
92397W        W51658   0.310  27.100  10.905
92398W        W51659  35.565  27.120   0.801
92399W        W51660   9.789  29.928   3.303
92400W        W51661  36.552  27.943  13.940
92401W        W51662  43.888  20.601   3.367
92402W        W51663  25.009   6.859  11.424
92403W        W51664  40.973  44.856  12.489
92404W        W51665  20.104  31.462  12.866
92405W        W51666   8.233  39.331   2.308
92406W        W51667  37.393  16.295   0.746
92407W        W51668  13.763  35.951  11.465
92408W        W51669   3.441  30.922   4.761
92409W        W51670  23.063  39.391   0.269
92410W        W51671  33.442  34.938   2.282
92411W        W51672  12.806   7.283  13.951
92412W        W51673  31.102   4.364   1.842
92413W        W51674   4.380   2.790   2.837
92414W        W51675  17.697   2.935  10.933
92415W        W51676  15.308  35.436   2.302
92416W        W51677  14.590   0.973  14.857
92417W        W51678  32.528   4.876  14.979
92418W        W51679  38.359  31.979   0.314
92419W        W51680   3.370  26.145  11.547
92420W        W51681  37.395  13.310   1.443
92421W        W51682  39.946  36.981   3.209
92422W        W51683  29.484  24.565   3.699
92423W        W51684  41.511  26.467   3.358
92424W        W51685  36.842  22.516  12.427
92425W        W51686  27.955  33.000  12.995
92426W        W51687  26.167  33.987  14.364
92427W        W51688  10.800  31.648   0.951
92428W        W51689  30.987  41.348   5.235
92429W        W51690  42.304  27.157   4.138
92430W        W51691  14.682   7.671  10.490
92431W        W51692  44.402  17.770   0.287
92432W        W51693  13.256   0.977  14.312
92433W        W51694  22.725  15.191  10.979
92434W        W51695  10.796  23.724   0.869
92435W        W51696   5.710  30.596  12.545
92436W        W51697  44.355  35.051   3.782
92437W        W51698  19.607   9.177   4.753
92438W        W51699  31.116   9.269   0.849
92439W        W51700   9.208  23.685   4.737
92440W        W51701  35.528  10.653   1.791
92441W        W51702  11.200  35.974   3.225
92442W        W51703  28.968  10.305  10.962
92443W        W51704  22.114  38.982   3.256
92444W        W51705  10.846  31.942  14.922
92445W        W51706  34.982  38.383   3.296
92446W        W51707  43.503  24.159  10.933
92447W        W51708  42.441  10.843   1.762
92448W        W51709  42.471  29.100  11.861
92449W        W51710   0.769  15.097   2.861
92450W        W51711  44.820  28.599   2.734
92451W        W51712  14.284  22.050   4.221
92452W        W51713  27.964  39.824   4.220
92453W        W51714  26.654  19.207   4.666
92454W        W51715  29.596  44.883   3.200
92455W        W51716  40.362  36.417   3.661
92456W        W51717  10.810  23.104   4.626
92457W        W51718  39.899  42.442   1.340
92458W        W51719  14.805  27.060  14.418
92459W        W51720  36.013  34.437  10.520
92460W        W51721  40.381  25.129   4.620
92461W        W51722  38.068  43.482  11.049
92462W        W51723   7.720  20.573  12.884
92463W        W51724  19.075  22.052   3.334
92464W        W51725   2.771   3.931  10.412
92465W        W51726  21.707  33.977  13.428
92466W        W51727  11.268   4.869   3.272
92467W        W51728  16.089   2.395  12.072
92468W        W51729   4.863  31.522  13.467
92469W        W51730  40.942  33.925   3.323
92470W        W51731  30.584  37.885   1.373
92471W        W51732   7.392  33.093   4.832
92472W        W51733  26.597  13.606  14.408
92473W        W51734  44.970  31.466   1.841
92474W        W51735  14.713  44.351   1.448
92475W        W51736  38.482   6.335  14.330
92476W        W51737   3.357  14.679  11.477
92477W        W51738  36.513  25.646  13.843
92478W        W51739  23.641  35.068   4.692
92479W        W51740  14.095  10.337  10.975
92480W        W51741  44.441  24.061   0.474
92481W        W51742   9.221  44.453   0.941
92482W        W51743   9.807  16.753   2.744
92483W        W51744   0.902  38.040  10.467
92484W        W51745   2.470  35.518  13.995
92485W        W51746  19.635  28.568  14.507
92486W        W51747   3.228   2.881   2.732
92487W        W51748   0.299  19.102   4.651
92488W        W51749  28.488   0.487   3.644
92489W        W51750  32.034  22.738   1.334
92490W        W51751  40.537  17.608   2.364
92491W        W51752  41.921   6.225  10.444
92492W        W51753  28.966  36.037   1.696
92493W        W51754  25.624  26.664  12.032
92494W        W51755  15.657   4.446  14.799
92495W        W51756   7.265   1.787   2.807
92496W        W51757   7.738  37.904   0.465
92497W        W51758  18.130  26.992   4.705
92498W        W51759  20.237  10.176  12.917
92499W        W51760  34.100  33.074  12.518
92500W        W51761  32.526  42.875   4.710
92501W        W51762  33.463  42.302   2.237
92502W        W51763  24.039  31.062   4.748
92503W        W51764  41.037  38.945   3.316
92504W        W51765  12.855  27.680  14.301
92505W        W51766  25.583  35.901  14.437
92506W        W51767  24.718  17.101  11.914
92507W        W51768  10.661  11.175  12.475
92508W        W51769  12.164  11.769  11.417
92509W        W51770  18.288  27.091  14.758
92510W        W51771  15.095  34.485  12.881
92511W        W51772  27.465  27.109  13.993
92512W        W51773  40.917  37.953   0.812
92513W        W51774  23.661   1.969   3.346
92514W        W51775  36.857  39.961  11.525
92515W        W51776  17.066  20.078  12.028
92516W        W51777  42.493  30.601   3.372
92517W        W51778   8.867  12.671  11.914
92518W        W51779  22.131  40.423  11.523
92519W        W51780  20.129  11.701  14.368
92520W        W51781  29.952  43.775  14.321
92521W        W51782  31.609   5.221  10.498
92522W        W51783   5.707   0.761   2.678
92523W        W51784   7.820  37.425  14.828
92524W        W51785  40.313  27.644   3.818
92525W        W51786  14.611   8.329   3.351
92526W        W51787  10.300  33.121   4.249
92527W        W51788  42.320   3.419  12.449
92528W        W51789   0.262  40.994   0.807
92529W        W51790   0.396  34.548   2.853
92530W        W51791   2.848  14.133   1.357
92531W        W51792  18.134  30.419  11.481
92532W        W51793  41.333  26.634  12.394
92533W        W51794  35.080  24.980  10.424
92534W        W51795  11.150  32.584  13.056
92535W        W51796  20.755  26.167   3.316
92536W        W51797   9.305  21.017   2.362
92537W        W51798  38.333   8.282  12.515
92538W        W51799   6.887  35.905  13.985
92539W        W51800  13.712  12.637   1.851
92540W        W51801   9.375   9.782  11.007
92541W        W51802  37.972  40.983  10.054
92542W        W51803  30.046  38.034  11.544
92543W        W51804  29.065  33.468   2.214
92544W        W51805  30.623  17.283   4.301
92545W        W51806  36.016   9.718   4.337
92546W        W51807   7.233  41.421   3.177
92547W        W51808  32.998   1.331   0.786
92548W        W51809  13.657   1.740  14.989
92549W        W51810  35.861   6.357   1.395
92550W        W51811  17.644   6.246   4.125
92551W        W51812  38.001  12.843   2.327
92552W        W51813  43.451   4.411   0.812
92553W        W51814  42.842  33.482   4.658
92554W        W51815   4.765  20.244  14.387
92555W        W51816  35.575  13.291  13.380
92556W        W51817  44.268  40.941  12.379
92557W        W51818  38.401  40.507   0.781
92558W        W51819  41.370   2.345  12.894
92559W        W51820  17.122  32.584   1.289
92560W        W51821   0.293  15.215  10.638
92561W        W51822  20.060  18.084  11.407
92562W        W51823   4.235  11.867  11.547
92563W        W51824  15.214  23.518  14.849
92564W        W51825  29.059  37.385  13.469
92565W        W51826  13.657  43.303  11.429
92566W        W51827  12.735  28.595   1.254
92567W        W51828  32.402  34.876   2.215
92568W        W51829  43.322  39.393   4.724
92569W        W51830  11.329  30.611   3.820
92570W        W51831  21.235  18.657  14.828
92571W        W51832  43.369  26.174   4.206
92572W        W51833   6.893  19.263  14.366
92573W        W51834  43.891  11.635  13.356
92574W        W51835  31.506  41.840   4.781
92575W        W51836  44.807   6.235   3.286
92576W        W51837  24.202  23.193   1.266
92577W        W51838  20.689  15.655  14.942
92578W        W51839   1.823  26.689  12.889
92579W        W51840  16.285  22.137   2.388
92580W        W51841   6.382  38.551  14.962
92581W        W51842  32.074  23.089   2.737
92582W        W51843  26.972  25.178   3.807
92583W        W51844   0.289  10.647   1.718
92584W        W51845  34.424  33.432   4.788
92585W        W51846  10.303  12.122  10.957
92586W        W51847  11.705  10.718  10.574
92587W        W51848  17.213  24.193   2.683
92588W        W51849   4.311  16.264   1.739
92589W        W51850   5.783  24.005   2.856
92590W        W51851  11.832  18.635   1.398
92591W        W51852   8.704   0.749   4.163
92592W        W51853  11.637  23.546  13.336
92593W        W51854  13.125  35.085  12.964
92594W        W51855  11.362   5.732  11.944
92595W        W51856  40.891  38.945  12.479
92596W        W51857  30.495  42.812   5.245
92597W        W51858  27.588  15.760   3.349
92598W        W51859  27.594  14.739  11.530
92599W        W51860  35.591  21.241  10.424
92600W        W51861  25.160  22.186  11.927
92601W        W51862  19.081   9.859  10.534
92602W        W51863  26.586   9.673   4.718
92603W        W51864  10.382  31.433  11.954
92604W        W51865  38.491  13.751  10.889
92605W        W51866   8.299  19.732   4.719
92606W        W51867  17.664  37.394   4.602
92607W        W51868   4.343   0.378  12.046
92608W        W51869  17.079   7.838  13.800
92609W        W51870   2.861  18.153   4.600
92610W        W51871  17.253  11.830  13.417
92611W        W51872  14.594  21.031   4.819
92612W        W51873   4.381   2.964  13.487
92613W        W51874  30.053  41.510  12.082
92614W        W51875  37.455  33.510  11.105
92615W        W51876  13.745   3.782  12.440
92616W        W51877   5.780  37.949  11.903
92617W        W51878   6.877  16.209   1.419
92618W        W51879  42.915  24.226   0.405
92619W        W51880  29.567  42.841  13.344
92620W        W51881  29.124  31.555  13.518
92621W        W51882  40.451  11.201   0.744
92622W        W51883  23.020   0.764  11.531
92623W        W51884  28.464  28.143   3.295
92624W        W51885   2.338  15.701   4.785
92625W        W51886  34.512  28.503  10.448
92626W        W51887  31.518  40.028   2.832
92627W        W51888  14.738  22.539  10.036
92628W        W51889  23.213  29.428  10.480
92629W        W51890  21.037  28.640  11.429
92630W        W51891  13.238   0.399  12.008
92631W        W51892  25.701  39.513   3.377
92632W        W51893   5.387  22.065   0.942
92633W        W51894  43.477  44.894  10.564
92634W        W51895  15.237  14.817  11.024
92635W        W51896  20.217  10.690   1.915
92636W        W51897   5.405   9.391  13.060
92637W        W51898   1.818   0.349   3.630
92638W        W51899  23.519   6.725   0.823
92639W        W51900  12.783  16.191   0.368
92640W        W51901  11.246  11.694  10.976
92641W        W51902  21.155   6.203   1.842
92642W        W51903   2.838  22.177   2.269
92643W        W51904   1.476  23.206   3.261
92644W        W51905  33.901   0.394   0.735
92645W        W51906  14.680  17.306  11.383
92646W        W51907  10.160  44.461   0.792
92647W        W51908   6.704  32.027   4.804
92648W        W51909  41.866  38.076  14.435
92649W        W51910  19.066  15.662   4.614
92650W        W51911   3.266  29.986  14.786
92651W        W51912  24.153   1.766   2.186
92652W        W51913   8.391  13.807  13.530
92653W        W51914  11.728  35.885  13.398
92654W        W51915   0.252   7.907  14.426
92655W        W51916  24.550  40.519  13.440
92656W        W51917  22.593  39.540  14.316
92657W        W51918  41.298  11.249  13.466
92658W        W51919  21.025  38.386   1.382
92659W        W51920   2.291  19.641   5.240
92660W        W51921  28.180  19.743   3.251
92661W        W51922  38.012  15.794   1.255
92662W        W51923  14.340  37.919   0.748
92663W        W51924  11.328   3.357   4.210
92664W        W51925  12.178   2.420   3.671
92665W        W51926   7.837  43.342   1.240
92666W        W51927  27.114  42.996   3.204
92667W        W51928  26.474  25.201  11.580
92668W        W51929  32.027  23.683  11.514
92669W        W51930  40.346  41.942  10.631
92670W        W51931   4.437   6.921   0.815
92671W        W51932  44.378  42.438   1.248
92672W        W51933  28.990  15.691   4.242
92673W        W51934  15.677  20.624   0.889
92674W        W51935   5.703  22.542  13.936
92675W        W51936  22.031   2.264  12.071
92676W        W51937   4.904  20.031   2.411
92677W        W51938  39.347  18.074   2.776
92678W        W51939   7.810  43.854  14.924
92679W        W51940  44.824  28.652  13.361
92680W        W51941  36.873  32.946  11.005
92681W        W51942  43.993  39.881  10.969
92682W        W51943  23.617   2.729  13.417
92683W        W51944  33.458   8.800  13.311
92684W        W51945  40.523  10.221   2.764
92685W        W51946  43.995  20.174   1.244
92686W        W51947  18.154  13.126   0.344
92687W        W51948  40.484  38.987   5.143
92688W        W51949  33.459  38.456  10.933
92689W        W51950  21.099  44.289  10.158
92690W        W51951  17.666  33.441   1.778
92691W        W51952  37.862   8.210   1.416
92692W        W51953  19.614   0.295   1.413
92693W        W51954   3.818  20.064  10.905
92694W        W51955  27.524  36.069   0.343
92695W        W51956  31.135  39.348   3.790
92696W        W51957  21.099  10.665   3.170
92697W        W51958  27.028  14.675   2.196
92698W        W51959  19.692  34.949   3.838
92699W        W51960  28.656  11.197  10.953
92700W        W51961   6.690  24.119   1.882
92701W        W51962   8.714  44.914   1.749
92702W        W51963   1.328  15.087  11.879
92703W        W51964  21.540  31.526  14.915
92704W        W51965  14.691   9.374  12.955
92705W        W51966  10.226  28.520   1.696
92706W        W51967   1.887  39.037   4.157
92707W        W51968   5.854   0.444  10.521
92708W        W51969  31.528   9.393   0.922
92709W        W51970  38.376  31.523  14.005
92710W        W51971  16.208  42.459  11.909
92711W        W51972  30.620  37.890  10.967
92712W        W51973  36.966   1.328  11.456
92713W        W51974  33.120  15.811   0.868
92714W        W51975  28.936   6.414   3.706
92715W        W51976   7.727  17.213  13.990
92716W        W51977  25.129  38.024   2.816
92717W        W51978   6.263  30.069  10.624
92718W        W51979  18.614  43.505  11.991
92719W        W51980  10.231  24.009   0.923
92720W        W51981  36.542   6.285  11.116
92721W        W51982  37.905  31.584   3.814
92722W        W51983   7.255   4.928  12.826
92723W        W51984  18.576   3.928  11.576
92724W        W51985  16.291  31.541   3.361
92725W        W51986  20.189  19.648  14.359
92726W        W51987   2.311  22.590   3.310
92727W        W51988  31.117  44.424  13.368
92728W        W51989  34.406   6.355  10.911
92729W        W51990  28.468  31.038   3.313
92730W        W51991  15.269  22.038  14.341
92731W        W51992   9.732   0.989  14.286
92732W        W51993   9.720  33.615  12.845
92733W        W51994  20.606  17.740   1.760
92734W        W51995  35.466  21.636   2.807
92735W        W51996  15.214  20.073  11.404
92736W        W51997  39.336  42.793  13.310
92737W        W51998   1.748  11.355  14.440
92738W        W51999  41.501  43.000   2.752
92739W        W52000   9.206  37.956  12.866
92740W        W52001  42.443   3.428   2.743
92741W        W52002  37.458  41.848   3.865
92742W        W52003  15.133  22.721  11.549
92743W        W52004   1.941  38.995   2.687
92744W        W52005   4.884   2.446  12.935
92745W        W52006   8.209   5.419   1.240
92746W        W52007  13.332  39.019   5.233
92747W        W52008  18.598   4.282   0.790
92748W        W52009   0.799  11.146   0.388
92749W        W52010  35.427  29.935  13.948
92750W        W52011  18.675  14.656  13.335
92751W        W52012  43.870  41.533  12.406
92752W        W52013  31.470  16.215  12.866
92753W        W52014  26.652   6.861   4.833
92754W        W52015  41.893  20.214  11.585
92755W        W52016  23.157   1.336  13.528
92756W        W52017  37.531  23.647   3.847
92757W        W52018  26.569  20.573   3.320
92758W        W52019  36.405  30.594   0.774
92759W        W52020   8.217  30.161  14.889
92760W        W52021  23.642  23.577  11.411
92761W        W52022   2.271   0.267  14.782
92762W        W52023  41.500  17.765   3.775
92763W        W52024  35.006  33.081   4.333
92764W        W52025  27.134  19.711  10.633
92765W        W52026   3.388   2.430  11.071
92766W        W52027   2.802  40.371   4.285
92767W        W52028  17.686  39.902   4.277
92768W        W52029  38.844   6.691   3.689
92769W        W52030  35.885  12.821   0.463
92770W        W52031  24.553  25.990   1.778
92771W        W52032  20.058  32.896   0.876
92772W        W52033   3.860  28.094  14.386
92773W        W52034  28.087  40.526   4.640
92774W        W52035  13.616   8.793  10.416
92775W        W52036  40.461  37.382   2.350
92776W        W52037  41.308  16.224   3.630
92777W        W52038  13.735   0.462  10.058
92778W        W52039   8.728  13.288  12.966
92779W        W52040   4.320  40.812   4.326
92780W        W52041  30.096   3.415   1.257
92781W        W52042  15.742  33.604   3.810
92782W        W52043   6.382   6.873  11.084
92783W        W52044  17.223  37.463  12.435
92784W        W52045   0.410  23.177   0.298
92785W        W52046   8.785  28.569   1.929
92786W        W52047   9.712   6.765   3.707
92787W        W52048  31.940  35.870   3.262
92788W        W52049  28.073  25.159   4.341
92789W        W52050  26.070  13.202   2.186
92790W        W52051  35.451  22.687  14.027
92791W        W52052  42.478   3.791  10.996
92792W        W52053  21.680  43.510  12.376
92793W        W52054  10.224  32.139   2.339
92794W        W52055   0.350  30.008   4.741
92795W        W52056  18.166  18.735  12.472
92796W        W52057  39.811  44.818  11.425
92797W        W52058  11.142  42.961  11.025
92798W        W52059   6.745  24.671  14.809
92799W        W52060  35.541   3.763   2.668
92800W        W52061  39.379   3.456  12.463
92801W        W52062  42.399   6.701  14.028
92802W        W52063  10.636   0.397   0.433
92803W        W52064  33.118  36.399  14.943
92804W        W52065  41.979  15.142  14.332
92805W        W52066   8.171  22.684   4.702
92806W        W52067   2.957  36.523   4.819
92807W        W52068  16.102  32.062  11.091
92808W        W52069  29.610  16.289   3.664
92809W        W52070  33.054  17.655   3.359
92810W        W52071  38.824  43.820  12.906
92811W        W52072  13.297  19.678   3.156
92812W        W52073   0.371  12.192   0.243
92813W        W52074  15.287  22.547  13.819
92814W        W52075  33.898  27.107  12.037
92815W        W52076   3.455  39.866  14.396
92816W        W52077  23.147  11.173   4.696
92817W        W52078  12.310  38.449   1.828
92818W        W52079  38.919  37.481   5.225
92819W        W52080  10.686  30.549   0.472
92820W        W52081   9.382  32.945   0.857
92821W        W52082  33.380   8.735   4.126
92822W        W52083  11.308  22.152   2.334
92823W        W52084  11.686  38.028  14.880
92824W        W52085  30.018  20.533   4.117
92825W        W52086  12.634  39.931  12.008
92826W        W52087   0.968  15.747   9.934
92827W        W52088  25.475  20.704  12.887
92828W        W52089  19.099  20.546   2.757
92829W        W52090   9.653  26.700   4.723
92830W        W52091  44.947  41.460  12.362
92831W        W52092   5.927  18.109  12.480
92832W        W52093   4.701  41.872  11.376
92833W        W52094  42.875   1.245   2.673
92834W        W52095  29.997  31.990  14.330
92835W        W52096   1.845   7.715   3.690
92836W        W52097  34.994  20.596   4.653
92837W        W52098  31.559  15.713  12.922
92838W        W52099  21.618   5.831  12.085
92839W        W52100  16.193  13.670  11.949
92840W        W52101  38.493  36.399  14.322
92841W        W52102  39.498  25.549  11.485
92842W        W52103  15.255  17.195  11.491
92843W        W52104   0.289   8.286  12.995
92844W        W52105  41.862  11.658  11.510
92845W        W52106  44.855  17.773   2.698
92846W        W52107  17.068  32.042  10.407
92847W        W52108   9.766  18.095  12.906
92848W        W52109  40.472  13.322  14.926
92849W        W52110   1.355  43.987  14.760
92850W        W52111  19.112  36.009   4.804
92851W        W52112  32.891  12.657   2.397
92852W        W52113  23.687   2.302  13.371
92853W        W52114  30.973   9.764  12.343
92854W        W52115  22.736  39.991  10.022
92855W        W52116  41.494   0.494  11.520
92856W        W52117  12.625  29.476   4.180
92857W        W52118  34.373  15.795  13.401
92858W        W52119   2.380  20.554  11.924
92859W        W52120  44.756   0.264   0.458
92860W        W52121  12.757  11.277  14.438
92861W        W52122   8.352  24.524   0.881
92862W        W52123  38.417  30.413  14.469
92863W        W52124  28.025  36.937  14.866
92864W        W52125  24.551  23.160  11.424
92865W        W52126  17.084  12.665   2.689
92866W        W52127   7.207  40.035  13.981
92867W        W52128  23.212  37.478  14.352
92868W        W52129  19.763  18.260   4.697
92869W        W52130  17.167  29.658  12.421
92870W        W52131  32.460  41.352   1.710
92871W        W52132  11.629  30.127  14.817
92872W        W52133  41.836  27.069  11.998
92873W        W52134  23.171  29.135  13.009
92874W        W52135  22.095  15.315  11.498
92875W        W52136  32.401  33.024   0.769
92876W        W52137   8.180  14.835   2.687
92877W        W52138   2.827  30.489  14.926
92878W        W52139  40.905   3.345   4.275
92879W        W52140   8.191  21.224   2.882
92880W        W52141  20.158  40.522   9.926
92881W        W52142   0.793   7.404   4.310
92882W        W52143   5.308  30.140   3.795
92883W        W52144  11.679   6.341  11.493
92884W        W52145  16.570  15.780  14.442
92885W        W52146  34.422   4.858  12.571
92886W        W52147  24.680  25.588   0.381
92887W        W52148  40.889  19.616   1.359
92888W        W52149  40.983   7.777   0.963
92889W        W52150  24.708  31.457  12.455
92890W        W52151  34.953   0.811  13.796
92891W        W52152   2.789  20.155   4.333
92892W        W52153  34.034  23.148   3.174
92893W        W52154  29.918  11.159  13.055
92894W        W52155  28.162  17.248   1.328
92895W        W52156  35.992   1.830  11.475
92896W        W52157  29.009  30.634   4.233
92897W        W52158  24.535  12.274   3.150
92898W        W52159  29.658  22.550  12.959
92899W        W52160  11.632   3.280   2.351
92900W        W52161  25.077  27.616  12.013
92901W        W52162  31.118  44.982  14.932
92902W        W52163  41.422  34.493  12.482
92903W        W52164  30.526  38.377  12.063
92904W        W52165  43.799  42.934   2.396
92905W        W52166   6.341   8.866  14.925
92906W        W52167   6.357  28.628  10.421
92907W        W52168  29.425  15.222   1.258
92908W        W52169   8.726  19.597   4.672
92909W        W52170  25.033  25.073   3.261
92910W        W52171  27.531  32.493   0.884
92911W        W52172  19.703  11.373  11.522
92912W        W52173  15.312   2.815  10.425
92913W        W52174  16.281  26.621   5.166
92914W        W52175   2.469   6.851   3.793
92915W        W52176   9.736  30.622   1.335
92916W        W52177  32.038  25.594   3.193
92917W        W52178  16.575  38.048  12.068
92918W        W52179   4.899  15.719   2.273
92919W        W52180   3.426  11.245   4.713
92920W        W52181   7.801  39.948  12.874
92921W        W52182  18.203   3.822  12.433
92922W        W52183  44.437  12.743  14.478
92923W        W52184   4.282   5.918  13.805
92924W        W52185  38.880  39.885   4.707
92925W        W52186  12.682   4.295  13.827
92926W        W52187  21.087  40.464   0.282
92927W        W52188  44.790  18.062   5.308
92928W        W52189   3.460  36.418   2.720
92929W        W52190  10.379  32.409  13.017
92930W        W52191  35.971  20.122  13.794
92931W        W52192  39.427  21.126  14.828
92932W        W52193  27.660  18.212   1.853
92933W        W52194   5.231  16.287   0.924
92934W        W52195  12.306  15.821   4.697
92935W        W52196  29.655   9.376  11.014
92936W        W52197  27.048  22.567  11.081
92937W        W52198  33.438  22.553   1.393
92938W        W52199  29.026   8.342  13.004
92939W        W52200  25.520  26.172  14.015
92940W        W52201  31.583   6.857   1.337
92941W        W52202  20.166  33.551  12.928
92942W        W52203  26.597  32.396   3.339
92943W        W52204  41.368  34.575   3.793
92944W        W52205  41.299  32.553  11.430
92945W        W52206  15.675  20.231  11.056
92946W        W52207  12.774  16.133  10.985
92947W        W52208  31.642  24.196   2.282
92948W        W52209   6.682  36.968   0.759
92949W        W52210   9.802  12.825  12.540
92950W        W52211  19.659  26.463   2.236
92951W        W52212  11.761  20.129  14.829
92952W        W52213  44.005  30.607  10.464
92953W        W52214  13.834  11.348   9.670
92954W        W52215  16.216   2.944   9.443
92955W        W52216  20.248  24.978  10.091
92956W        W52217   0.821  37.016  10.923
92957W        W52218  35.002  22.654  10.042
92958W        W52219  28.134  37.867   9.931
92959W        W52220  20.164  20.194  14.859
92960W        W52221  12.780  29.088   0.755
92961W        W52222  25.488  12.853  14.815
92962W        W52223   9.792  28.586   3.795
92963W        W52224  28.115  19.691  13.333
92964W        W52225  24.698  10.694  12.025
92965W        W52226  37.343  44.385  11.073
92966W        W52227  19.208  32.006  13.905
92967W        W52228   6.205  36.868  13.055
92968W        W52229  22.140  24.071   3.321
92969W        W52230   9.700   8.219  14.009
92970W        W52231  27.042  10.209   4.673
92971W        W52232   5.791  43.020   2.741
92972W        W52233  29.092  16.803  11.482
92973W        W52234  41.474  39.502  14.860
92974W        W52235  29.075  16.651  11.888
92975W        W52236  18.093  36.454  13.063
92976W        W52237  35.910  24.227   0.448
92977W        W52238  25.600  16.286   4.125
92978W        W52239  21.178  13.295   1.777
92979W        W52240  42.360   2.807  12.517
92980W        W52241  18.174  12.816  13.973
92981W        W52242  25.182  36.922  12.380
92982W        W52243  38.066  38.479   4.171
92983W        W52244  11.166  19.188   2.212
92984W        W52245  25.534  17.711   4.248
92985W        W52246  17.582  13.232   1.347
92986W        W52247  35.475   5.364  10.893
92987W        W52248  12.136  10.348  14.420
92988W        W52249  37.430  15.248   2.417
92989W        W52250  21.189  10.169  14.868
92990W        W52251  28.081  37.468  13.981
92991W        W52252  31.645   1.275  14.377
92992W        W52253  13.155  20.588  10.455
92993W        W52254  14.777  25.156  12.092
92994W        W52255  28.487  41.824  11.435
92995W        W52256  21.147  20.107  10.421
92996W        W52257   2.386  24.049  13.863
92997W        W52258  38.910  40.471   3.866
92998W        W52259   5.924   0.804   0.323
92999W        W52260  32.445  12.343   3.256
93000W        W52261   3.245  40.971   3.639
93001W        W52262  20.591  42.878  11.085
93002W        W52263  19.579  23.599  14.497
93003W        W52264  14.141  44.940   3.810
93004W        W52265   6.809  11.298   2.797
93005W        W52266  28.090  15.130  14.895
93006W        W52267  32.027  31.613  11.510
93007W        W52268  29.121  34.556   3.294
93008W        W52269  42.407  29.424   0.473
93009W        W52270  30.910  37.455   0.331
93010W        W52271   2.956  20.267   3.226
93011W        W52272   8.825  28.012  14.804
93012W        W52273  21.236  28.460   2.325
93013W        W52274  19.153  38.437  12.973
93014W        W52275  17.150  43.930  13.949
93015W        W52276  13.793  22.713   4.664
93016W        W52277  16.232  29.653   0.287
93017W        W52278  38.436  26.620   1.713
93018W        W52279  33.055   6.743  12.862
93019W        W52280   3.409   1.296  13.983
93020W        W52281   9.188  15.154  13.906
93021W        W52282  22.531   6.756  11.111
93022W        W52283  31.023  13.291   1.875
93023W        W52284  33.593  34.902   0.292
93024W        W52285  25.512  17.190   1.908
93025W        W52286  37.481  38.331   2.375
93026W        W52287  43.493   4.342  10.503
93027W        W52288   6.777   6.384  13.521
93028W        W52289  17.724   8.174   4.770
93029W        W52290  35.598  41.418   0.765
93030W        W52291  10.861   4.944  10.642
93031W        W52292  32.982   9.853   1.396
93032W        W52293  39.953  27.574   0.756
93033W        W52294   0.390  40.830  13.805
93034W        W52295   9.331   2.468  11.589
93035W        W52296  32.606  41.901  13.323
93036W        W52297  17.179  27.484  13.344
93037W        W52298  29.945  28.082   4.198
93038W        W52299  12.225  27.160   3.357
93039W        W52300   9.802  33.568  12.395
93040W        W52301  26.488  40.840   0.411
93041W        W52302  25.604  12.818  14.481
93042W        W52303  21.087  16.126  10.441
93043W        W52304  40.839   1.391  12.992
93044W        W52305  21.548  42.816   4.340
93045W        W52306  43.776  32.058   0.346
93046W        W52307  21.733  25.495  12.911
93047W        W52308   5.716  11.623  14.410
93048W        W52309   9.281  27.097  10.942
93049W        W52310  42.518  11.788  12.377
93050W        W52311  44.425  12.807  10.483
93051W        W52312  15.797  36.873  10.111
93052W        W52313  38.909  43.493  11.560
93053W        W52314  20.684  16.699  13.976
93054W        W52315  11.749   7.883   3.834
93055W        W52316  17.572  39.986  12.861
93056W        W52317  28.017  30.563  10.894
93057W        W52318   2.792  21.616  14.950
93058W        W52319  32.427  26.614   5.296
93059W        W52320  22.216   4.893  12.552
93060W        W52321   5.762   3.318   1.929
93061W        W52322   9.688  29.088  13.547
93062W        W52323  21.260  15.324   1.825
93063W        W52324   9.794  16.811  11.045
93064W        W52325  33.894  35.097  13.901
93065W        W52326  25.661  37.837  12.037
93066W        W52327   5.290  15.692  11.945
93067W        W52328  35.073  21.260  13.322
93068W        W52329   3.715   2.226  10.524
93069W        W52330  36.009  34.579   2.339
93070W        W52331  35.363   3.760   2.412
93071W        W52332   7.204   3.224  13.884
93072W        W52333  14.299  20.136   3.689
93073W        W52334  12.781  10.139  14.418
93074W        W52335  13.191  36.996   2.663
93075W        W52336   5.774  34.908   1.251
93076W        W52337  24.641   0.746   2.198
93077W        W52338  32.050  31.465   1.322
93078W        W52339  42.820  29.559  10.981
93079W        W52340  23.631  15.225  13.536
93080W        W52341  42.506  33.573   1.779
93081W        W52342  14.260  26.638  10.029
93082W        W52343  23.527   7.840  14.794
93083W        W52344  34.956  32.413   4.692
93084W        W52345  17.705   4.772   2.729
93085W        W52346  15.708   1.428  11.858
93086W        W52347   1.754   1.824  14.862
93087W        W52348   4.705  34.005  13.307
93088W        W52349  21.055  12.688  10.107
93089W        W52350  13.319   9.204   2.835
93090W        W52351  36.876  38.345  14.946
93091W        W52352  39.347  26.023  14.320
93092W        W52353  28.581  17.152  12.404
93093W        W52354  24.995  13.266   2.821
93094W        W52355  39.317  15.216  13.870
93095W        W52356   2.407  26.994   4.749
93096W        W52357  21.150  42.427   4.609
93097W        W52358   4.927  42.403   4.136
93098W        W52359   9.367  40.894  10.486
93099W        W52360  15.796  39.537   0.347
93100W        W52361  24.644  24.714   1.268
93101W        W52362  42.500  32.515  11.013
93102W        W52363  41.372  31.555   3.369
93103W        W52364  12.216  17.684   2.344
93104W        W52365  22.677  34.076   0.422
93105W        W52366  33.506   2.459  14.455
93106W        W52367  39.459  39.357   0.902
93107W        W52368  17.687   9.700  12.449
93108W        W52369  21.127  21.149   2.758
93109W        W52370   5.930  21.655  14.337
93110W        W52371  16.174  19.539  12.544
93111W        W52372  37.890  38.996  14.979
93112W        W52373  43.985  22.200   3.240
93113W        W52374  37.922   8.353  11.046
93114W        W52375  10.163  39.972   1.836
93115W        W52376  14.715  35.525  13.366
93116W        W52377  38.057  12.152  10.569
93117W        W52378  42.934  10.811  10.949
93118W        W52379  26.456  40.445  12.003
93119W        W52380  16.262  39.530   3.856
93120W        W52381   4.390   5.894  13.405
93121W        W52382  21.097  27.492  12.386
93122W        W52383   9.287  27.171   4.813
93123W        W52384  17.169  14.309   5.279
93124W        W52385  11.268   0.418   3.204
93125W        W52386  19.664  26.979   1.772
93126W        W52387   0.930  12.330  14.991
93127W        W52388   2.850  42.856  14.406
93128W        W52389  37.858  20.561  13.057
93129W        W52390  24.123  35.964  11.905
93130W        W52391   3.325   1.738   2.875
93131W        W52392   7.755  11.738  12.398
93132W        W52393  20.028  39.957  10.584
93133W        W52394  26.074  34.074   0.778
93134W        W52395   2.911  43.964   1.219
93135W        W52396  39.344  12.242  13.806
93136W        W52397   9.195  34.907  14.026
93137W        W52398   6.307  24.579   3.302
93138W        W52399  29.159   1.382   0.927
93139W        W52400  27.099  35.051   2.666
93140W        W52401  14.118  22.132  10.521
93141W        W52402  25.176   2.328   3.356
93142W        W52403  25.035  42.969  12.842
93143W        W52404  38.894  14.799  14.301
93144W        W52405  44.827  23.724  14.893
93145W        W52406   5.873  40.920   1.744
93146W        W52407   2.834  22.163   2.755
93147W        W52408  19.665   7.176  10.431
93148W        W52409  38.067  27.028  11.455
93149W        W52410  41.921  43.473  10.973
93150W        W52411  42.385  19.194   1.427
93151W        W52412  10.875  38.562   3.786
93152W        W52413  42.778  37.435  11.611
93153W        W52414  13.746  17.295   2.358
93154W        W52415   1.786  38.559   2.228
93155W        W52416   4.852  36.552   0.409
93156W        W52417  26.609  11.353  14.386
93157W        W52418  21.745  42.388   3.817
93158W        W52419  34.865  29.066  11.549
93159W        W52420  22.632  31.151  12.011
93160W        W52421  43.898   5.887  12.853
93161W        W52422  31.955  42.855  12.987
93162W        W52423   9.239  25.046   0.744
93163W        W52424  26.674  25.083   1.227
93164W        W52425   2.305  23.190  14.847
93165W        W52426  10.172  17.183   0.335
93166W        W52427   2.937  21.039  14.925
93167W        W52428  11.846  18.660   1.797
93168W        W52429  28.535   3.232   0.401
93169W        W52430  23.543  25.656   0.773
93170W        W52431  32.888  25.677   2.199
93171W        W52432  18.194  24.185   0.744
93172W        W52433  24.600  18.050  13.480
93173W        W52434   8.773  13.344   5.188
93174W        W52435  25.968  29.651  14.290
93175W        W52436  26.132  27.525   3.787
93176W        W52437  10.776   3.843  14.948
93177W        W52438  14.773  34.570   2.239
93178W        W52439  15.762  23.514  10.510
93179W        W52440  19.225   2.824  13.063
93180W        W52441   2.793  32.040   1.210
93181W        W52442  24.206  38.523   4.353
93182W        W52443  32.945  29.548  14.911
93183W        W52444  16.304  27.559   0.428
93184W        W52445  22.121  18.061   2.244
93185W        W52446  21.689  41.789  11.456
93186W        W52447  34.564  32.525  14.465
93187W        W52448  38.015   4.351   1.424
93188W        W52449  38.944  27.972  13.877
93189W        W52450  37.535  43.327  10.429
93190W        W52451  26.555  35.086  10.949
93191W        W52452  16.604  15.790   4.321
93192W        W52453  34.458   2.772  14.973
93193W        W52454  39.818  39.017   9.955
93194W        W52455  29.641   1.470   3.148
93195W        W52456   5.333  32.571   0.908
93196W        W52457  10.176  35.475   2.674
93197W        W52458   3.855  44.309   2.305
93198W        W52459  31.082  33.484   2.262
93199W        W52460  16.315  33.079   5.280
93200W        W52461  27.147  25.590  10.636
93201W        W52462  31.973   0.744  11.006
93202W        W52463  36.990  12.205   1.916
93203W        W52464  43.455   5.330   3.852
93204W        W52465   5.692  28.572   3.834
93205W        W52466  44.264  27.588  14.849
93206W        W52467  10.694  21.556  14.356
93207W        W52468  11.269  42.525  14.896
93208W        W52469  34.596  13.283   1.409
93209W        W52470  41.994  15.730  13.820
93210W        W52471  16.312  29.447   3.178
93211W        W52472  12.356  42.314  13.525
93212W        W52473  15.101  20.108   0.834
93213W        W52474  11.340  11.302  13.896
93214W        W52475   4.839  23.179   2.261
93215W        W52476  29.506  40.959  14.418
93216W        W52477  33.116  27.165   2.392
93217W        W52478   9.286   4.832   2.706
93218W        W52479  22.123  14.624   3.348
93219W        W52480  29.592  30.533   3.357
93220W        W52481  17.174   1.910   2.889
93221W        W52482  13.635   1.299  10.407
93222W        W52483  43.853  38.931   2.887
93223W        W52484  44.896  23.678   4.120
93224W        W52485   1.978  25.216  10.944
93225W        W52486  29.611  31.450  11.955
93226W        W52487  15.601  16.203  12.483
93227W        W52488  15.814   4.794  14.935
93228W        W52489  34.470  12.793   2.183
93229W        W52490  12.204  19.207   3.152
93230W        W52491  14.128  44.888   2.385
93231W        W52492   0.959  41.927  11.513
93232W        W52493   9.176  42.863  12.393
93233W        W52494  44.266  26.988   3.351
93234W        W52495   0.480  17.113  14.409
93235W        W52496   4.357   7.282   5.103
93236W        W52497  34.376  40.369  14.447
93237W        W52498  22.661   5.331   3.799
93238W        W52499  12.233   3.360   2.897
93239W        W52500   2.864   5.781  14.018
93240W        W52501  27.110  14.702   0.900
93241W        W52502  20.068   8.900   5.133
93242W        W52503  22.648  12.148  12.391
93243W        W52504  35.475  41.420  14.398
93244W        W52505  27.114  31.973   1.776
93245W        W52506  19.160  42.336  13.980
93246W        W52507  38.069   4.788  14.827
93247W        W52508  15.711  33.623  14.358
93248W        W52509   2.433  24.059  11.039
93249W        W52510  14.590  16.105   4.674
93250W        W52511  34.569   7.765  13.847
93251W        W52512  23.044  30.076   4.280
93252W        W52513  22.518   1.809   1.210
93253W        W52514  33.459   2.874  13.458
93254W        W52515  28.656   8.264   2.678
93255W        W52516  42.980  28.973  11.981
93256W        W52517  23.189  44.268   1.330
93257W        W52518  11.224  15.307   0.852
93258W        W52519  26.644  24.115  14.946
93259W        W52520  10.734  17.071   4.302
93260W        W52521  20.609  31.966  13.423
93261W        W52522   3.334   1.917   2.239
93262W        W52523   6.245   4.797  10.084
93263W        W52524  39.461  41.292   2.342
93264W        W52525  42.856  41.945  14.315
93265W        W52526  24.026   1.272  14.308
93266W        W52527  21.097  11.260   0.331
93267W        W52528  43.912  35.969   4.785
93268W        W52529   0.782  18.587  10.956
93269W        W52530  38.369  41.410  10.526
93270W        W52531  34.413  19.048   4.145
93271W        W52532  14.170  37.508  14.476
93272W        W52533  11.700  33.957   1.912
93273W        W52534  15.728   2.747  10.896
93274W        W52535  42.986  26.691   4.665
93275W        W52536  19.557  12.822   1.777
93276W        W52537  11.240   2.329  10.486
93277W        W52538  17.774   2.305   1.759
93278W        W52539  40.902  32.505  13.441
93279W        W52540  27.066   8.692  13.404
93280W        W52541  32.596  40.391  10.594
93281W        W52542  16.702  44.464   0.254
93282W        W52543  15.584  32.893   2.368
93283W        W52544   3.806   4.774   1.815
93284W        W52545  33.934  25.712  10.976
93285W        W52546   4.433   2.234  11.390
93286W        W52547  26.962   9.754  10.620
93287W        W52548  35.089  40.827   0.831
93288W        W52549   1.928   0.904   2.763
93289W        W52550  15.619  30.146  14.772
93290W        W52551   4.266  35.025   1.377
93291W        W52552  23.055  18.617   4.229
93292W        W52553   1.940  14.832  13.880
93293W        W52554  41.823  19.226   3.748
93294W        W52555  33.443  29.083   3.332
93295W        W52556  13.698  24.197   0.410
93296W        W52557  42.820  28.558   1.777
93297W        W52558   8.842   4.904  13.339
93298W        W52559  29.138   2.291  11.913
93299W        W52560   0.827  10.783  11.101
93300W        W52561  30.072  20.269  12.020
93301W        W52562  16.661  40.394   2.747
93302W        W52563  27.502   8.330   0.298
93303W        W52564  23.733   6.781   2.400
93304W        W52565   1.767  44.768   2.714
93305W        W52566  25.682  39.455   2.330
93306W        W52567   4.707  40.029   0.473
93307W        W52568  27.125  17.769  14.438
93308W        W52569  40.309  15.637   1.364
93309W        W52570  41.426  31.069  11.081
93310W        W52571   5.404  41.490  12.832
93311W        W52572  28.024  22.188  14.293
93312W        W52573  25.653   6.771  12.871
93313W        W52574  26.700  35.402   1.827
93314W        W52575  32.070  14.664   3.796
93315W        W52576   2.358  36.502   4.722
93316W        W52577   8.211  44.419  10.063
93317W        W52578  16.719   0.888  13.532
93318W        W52579   3.771  15.696  11.570
93319W        W52580  44.282  35.108  11.051
93320W        W52581  25.517   4.846  13.400
93321W        W52582  32.455   1.780  11.993
93322W        W52583   1.907   5.713   3.834
93323W        W52584  19.597  16.260   3.240
93324W        W52585  25.613  10.759   2.892
93325W        W52586  32.426  38.877  11.473
93326W        W52587  10.218  37.060  10.483
93327W        W52588  33.020  29.534  13.524
93328W        W52589  23.148  37.079  11.047
93329W        W52590  18.267  21.238  10.103
93330W        W52591  37.579  14.802  12.425
93331W        W52592  35.076  32.584   1.876
93332W        W52593  41.460  11.658  12.922
93333W        W52594  20.109  15.581   0.395
93334W        W52595  13.643  32.115  14.274
93335W        W52596  18.109  24.579  11.018
93336W        W52597  24.578  40.012   4.626
93337W        W52598  39.846  27.570  11.016
93338W        W52599  19.155   0.758   4.752
93339W        W52600  37.834   2.946   0.803
93340W        W52601  36.533   2.816  11.506
93341W        W52602  33.937  35.941   3.210
93342W        W52603   4.279  14.811   3.302
93343W        W52604   6.349   3.886  12.386
93344W        W52605  28.539  26.689  14.510
93345W        W52606  42.867  31.081   2.217
93346W        W52607  35.093  20.192  10.418
93347W        W52608  15.618  14.657  11.096
93348W        W52609   3.835  34.397   4.672
93349W        W52610  30.508  15.757  13.368
93350W        W52611   6.867  30.947  13.394
93351W        W52612  12.222  21.735  13.838
93352W        W52613  43.513   8.290   4.241
93353W        W52614  44.307  35.389  10.574
93354W        W52615  12.330  41.831  12.959
93355W        W52616  33.003  42.483   1.389
93356W        W52617  27.462  33.577  14.800
93357W        W52618  35.085  18.178   2.391
93358W        W52619  27.665  28.155   3.804
93359W        W52620   8.772  38.531   2.241
93360W        W52621  40.852  10.358   2.279
93361W        W52622   9.797  12.755   0.382
93362W        W52623  11.754  44.819  11.399
93363W        W52624  14.786  42.402  11.896
93364W        W52625  18.263   4.791   0.830
93365W        W52626  38.957  25.585   3.663
93366W        W52627  39.829  41.476   2.704
93367W        W52628  15.768  32.429  10.540
93368W        W52629  30.628  25.049   0.320
93369W        W52630  11.781  21.677  12.562
93370W        W52631  21.565   0.936   1.749
93371W        W52632  15.161  44.272   0.269
93372W        W52633  40.475  43.280   2.319
93373W        W52634   3.323   1.837  12.844
93374W        W52635  40.819  43.301   3.235
93375W        W52636   3.921  29.650  10.607
93376W        W52637   6.694  33.031   4.730
93377W        W52638  15.664  14.123   3.352
93378W        W52639  30.594  35.548   4.228
93379W        W52640  11.128  20.550  11.003
93380W        W52641  37.010  27.184   0.740
93381W        W52642  44.401  37.442   9.925
93382W        W52643  28.572  39.511  12.925
93383W        W52644  39.956  44.879  13.366
93384W        W52645   2.801  20.719  12.003
93385W        W52646  29.120  35.527   0.823
93386W        W52647  24.164  26.962  12.527
93387W        W52648  10.170  14.172  12.465
93388W        W52649  29.054   9.263  14.330
93389W        W52650  11.192  33.617  10.991
93390W        W52651  13.290   4.903  14.835
93391W        W52652  42.823  30.469   1.283
93392W        W52653  33.003  27.599  11.555
93393W        W52654  31.954  33.066   2.719
93394W        W52655  41.891  27.520  12.990
93395W        W52656   4.915  16.084  11.524
93396W        W52657  11.278  31.415  11.094
93397W        W52658  22.682   7.189  13.921
93398W        W52659  14.279  17.108  11.432
93399W        W52660  26.602  21.744  11.512
93400W        W52661   8.896   5.286  13.064
93401W        W52662  44.431  20.715   4.347
93402W        W52663  38.364   8.215   0.410
93403W        W52664  18.609  31.948   2.191
93404W        W52665  39.011  12.769  10.962
93405W        W52666  25.122  27.951  12.375
93406W        W52667  29.046  35.921   2.669
93407W        W52668  32.042  35.040  11.027
93408W        W52669  34.560   5.347   4.786
93409W        W52670  32.105  16.312   3.333
93410W        W52671   5.318  12.613   9.553
93411W        W52672  43.788  40.346  12.536
93412W        W52673  19.042  26.547   9.971
93413W        W52674  12.327  42.405   1.728
93414W        W52675  27.459  33.383  13.845
93415W        W52676  12.788  33.483   4.132
93416W        W52677  15.745  21.257   4.237
93417W        W52678   4.838  38.429  11.478
93418W        W52679  25.164  43.362  14.941
93419W        W52680   9.205   1.364   3.270
93420W        W52681  14.663  41.843   3.647
93421W        W52682  37.833  32.413   2.268
93422W        W52683  26.517  19.742  11.397
93423W        W52684  24.561  18.658  10.414
93424W        W52685   3.881   5.697  14.353
93425W        W52686  27.003  29.131  12.054
93426W        W52687  35.006  19.619  13.312
93427W        W52688  41.372  41.331  14.983
93428W        W52689  19.085  42.482   2.361
93429W        W52690  14.294   6.399   0.882
93430W        W52691   9.308  23.036   4.246
93431W        W52692   0.806  37.885  11.927
93432W        W52693  15.240   8.750   4.598
93433W        W52694  40.931  10.176   1.802
93434W        W52695  12.195   0.800  14.020
93435W        W52696  34.544  21.677   2.195
93436W        W52697   3.322  11.276  13.530
93437W        W52698   7.692   3.294   3.235
93438W        W52699   9.741  26.205   1.298
93439W        W52700   0.804  44.815   0.381
93440W        W52701  17.219  40.966   0.242
93441W        W52702  25.073   1.977   4.281
93442W        W52703  39.353  27.977  12.521
93443W        W52704   7.280  33.948   0.394
93444W        W52705  38.549  11.838  13.442
93445W        W52706  22.098  34.615  12.533
93446W        W52707  12.240   8.795   2.812
93447W        W52708  18.055  25.539  13.851
93448W        W52709  34.549  23.090   2.903
93449W        W52710  23.533  10.369   1.326
93450W        W52711  28.525  23.082   0.259
93451W        W52712  25.613  23.211  11.587
93452W        W52713  22.511  33.534   3.284
93453W        W52714  23.613  11.324   2.361
93454W        W52715  34.886  12.313  11.928
93455W        W52716  24.662  43.342  13.334
93456W        W52717  34.044  34.515  12.836
93457W        W52718  40.968  35.076  14.885
93458W        W52719  21.018  12.220   0.855
93459W        W52720   7.306  27.120  13.333
93460W        W52721  44.400  28.956  10.961
93461W        W52722   3.860  12.347   3.348
93462W        W52723  30.038  41.536  13.511
93463W        W52724   0.767  13.635   3.672
93464W        W52725  35.984  24.196  11.543
93465W        W52726  43.399  18.259  14.024
93466W        W52727  10.380  18.130  14.435
93467W        W52728   4.704  28.065  11.001
93468W        W52729  10.756   2.326  14.357
93469W        W52730   1.948  21.529   4.820
93470W        W52731  15.616  27.653  14.428
93471W        W52732  29.650   7.714  11.049
93472W        W52733  19.669  33.586  11.988
93473W        W52734   0.752  10.830   1.259
93474W        W52735  35.892  36.398  11.877
93475W        W52736  13.134   1.844   0.870
93476W        W52737   1.423  17.573   3.645
93477W        W52738   1.924  31.083   3.817
93478W        W52739  25.085  19.243   1.855
93479W        W52740   9.223  11.178   0.756
93480W        W52741  42.320  31.123   4.254
93481W        W52742  27.984   5.713   4.641
93482W        W52743  21.710  35.430   4.305
93483W        W52744  34.371   4.808  14.967
93484W        W52745  36.070  35.023   4.298
93485W        W52746  17.069  27.063  10.576
93486W        W52747  15.191  20.228  12.431
93487W        W52748  22.514  32.452   0.947
93488W        W52749  10.704  26.701  11.492
93489W        W52750  43.384  39.342  13.442
93490W        W52751   6.823  24.109  11.907
93491W        W52752  12.810  33.569  14.987
93492W        W52753  14.230  22.028   1.305
93493W        W52754  21.626  28.447   5.215
93494W        W52755   5.331   6.339   4.148
93495W        W52756  24.549  34.396   4.798
93496W        W52757  44.266  38.960  12.471
93497W        W52758  21.540  36.841  11.047
93498W        W52759  22.248  13.109   2.200
93499W        W52760  30.453  39.370  14.351
93500W        W52761  32.056   0.468   2.897
93501W        W52762  25.629  18.554  12.451
93502W        W52763  26.568  43.292  13.442
93503W        W52764  43.776  22.207   0.243
93504W        W52765  27.651  28.091  13.517
93505W        W52766   0.894   4.764  10.986
93506W        W52767  40.387  34.989   1.300
93507W        W52768   5.715  34.575   4.833
93508W        W52769  10.770  37.572  10.556
93509W        W52770  22.144  14.123   3.677
93510W        W52771  35.492  35.014  12.832
93511W        W52772  11.259  33.069   0.824
93512W        W52773   4.420   9.158  12.911
93513W        W52774  13.758  25.665  11.427
93514W        W52775  44.822  29.167  11.590
93515W        W52776   1.900  11.332  11.883
93516W        W52777  39.537  10.643  12.967
93517W        W52778  18.599  25.672  10.476
93518W        W52779  37.521  21.233  11.008
93519W        W52780  19.772  29.567  12.404
93520W        W52781   7.174  27.099   0.349
93521W        W52782   8.857  32.483   4.663
93522W        W52783  29.577   1.805   0.768
93523W        W52784  22.173  16.236   0.808
93524W        W52785   6.921  34.012   4.665
93525W        W52786  18.554  31.058   3.306
93526W        W52787  30.564  36.517  12.422
93527W        W52788  42.963  15.144   1.920
93528W        W52789  11.788   9.688  13.929
93529W        W52790  14.740  25.707   4.736
93530W        W52791   3.249  27.587   1.224
93531W        W52792   1.875  17.106   3.760
93532W        W52793  35.070  13.604   0.302
93533W        W52794  20.050  36.027   1.790
93534W        W52795  25.038  40.852  13.360
93535W        W52796  14.167  43.467   0.354
93536W        W52797   8.717  11.815  14.338
93537W        W52798  20.601  21.679   4.597
93538W        W52799  17.101  30.622   1.371
93539W        W52800  19.164  36.904  13.388
93540W        W52801  18.673  13.284   4.627
93541W        W52802  27.664   7.824  14.809
93542W        W52803  23.572  15.781   2.347
93543W        W52804  36.389  32.632   1.778
93544W        W52805  27.616  37.505  11.095
93545W        W52806  22.157   8.778   1.715
93546W        W52807   0.822  40.916   4.752
93547W        W52808  27.030  36.400   5.656
93548W        W52809  24.599  38.547   4.153
93549W        W52810  14.168  38.957   2.352
93550W        W52811  42.949  18.288  10.964
93551W        W52812  21.145  39.464   4.804
93552W        W52813  23.728  20.255   2.288
93553W        W52814  25.672  36.490   2.894
93554W        W52815  23.059  17.158  13.403
93555W        W52816  18.186  36.379  14.872
93556W        W52817  23.994  18.671  12.014
93557W        W52818  26.114   6.815   3.683
93558W        W52819  26.579  21.613  11.920
93559W        W52820  35.492  13.126  12.542
93560W        W52821  43.982  12.226   2.400
93561W        W52822  27.123  44.286  14.468
93562W        W52823  36.522  40.853  14.458
93563W        W52824   5.199  37.024   1.267
93564W        W52825  11.814  18.274  10.948
93565W        W52826  24.083  13.677   0.804
93566W        W52827  20.654   8.790   0.467
93567W        W52828  43.982  15.225  14.799
93568W        W52829   0.839  41.312  14.367
93569W        W52830  15.315  20.528  14.408
93570W        W52831  28.986   8.900   4.296
93571W        W52832  27.479   5.358   2.732
93572W        W52833  36.531  20.585   0.929
93573W        W52834  30.913   3.362   4.243
93574W        W52835  21.713  26.523   4.673
93575W        W52836  38.568  14.800   4.693
93576W        W52837  43.407  43.979  13.918
93577W        W52838   9.340   2.952   1.421
93578W        W52839  26.475  28.162   3.770
93579W        W52840  40.357  33.126  12.429
93580W        W52841  11.370  31.054  14.446
93581W        W52842  36.965  43.384   3.235
93582W        W52843   3.387  23.232  14.811
93583W        W52844  25.048  35.388  14.772
93584W        W52845  13.729  28.601   1.394
93585W        W52846  37.019  24.523   3.329
93586W        W52847  24.509  29.110  10.420
93587W        W52848   7.298   5.229  14.426
93588W        W52849   3.949  36.412  14.971
93589W        W52850  22.118  25.594   1.842
93590W        W52851  27.189  42.373  13.953
93591W        W52852  41.890  20.195   2.397
93592W        W52853  28.442  22.586  12.045
93593W        W52854   4.246  24.203   2.824
93594W        W52855  16.147  39.917   2.833
93595W        W52856  41.317  15.651  12.917
93596W        W52857  37.507   9.824  13.062
93597W        W52858  28.472  27.638  11.908
93598W        W52859  10.335  37.015  12.569
93599W        W52860  19.277  28.134   3.782
93600W        W52861  17.304  27.157  13.918
93601W        W52862  29.174  36.354  10.916
93602W        W52863  26.619  29.982  12.513
93603W        W52864   5.788  21.086   1.210
93604W        W52865  21.654  35.031   3.687
93605W        W52866   8.860   1.952   3.289
93606W        W52867  27.468  36.913  12.044
93607W        W52868  27.681  18.296   3.696
93608W        W52869  33.023   9.180   3.157
93609W        W52870   9.314  25.540   3.828
93610W        W52871  18.163  40.860   1.222
93611W        W52872  11.164  38.900  12.873
93612W        W52873  44.805   6.879   2.223
93613W        W52874  11.857  42.949   3.344
93614W        W52875  25.177  24.656  14.811
93615W        W52876  11.651  44.346   0.898
93616W        W52877  18.735  25.026  13.927
93617W        W52878  33.427   4.909  13.975
93618W        W52879   5.809  14.237  14.385
93619W        W52880   4.923  39.425   4.155
93620W        W52881  18.226  11.161   2.743
93621W        W52882   2.459   2.414  14.893
93622W        W52883  27.459   5.408  12.066
93623W        W52884  28.133  28.527   3.286
93624W        W52885  27.181  42.024   2.800
93625W        W52886   2.757   7.252   0.325
93626W        W52887   1.258  15.128  13.536
93627W        W52888   3.396  39.560  11.516
93628W        W52889  25.679  42.526   0.792
93629W        W52890   6.357  21.260   1.770
93630W        W52891   7.782  26.611  12.094
93631W        W52892  11.346  44.955  14.307
93632W        W52893   9.211  19.660   3.372
93633W        W52894   4.442   5.836  12.525
93634W        W52895  14.789  24.177   2.862
93635W        W52896  41.919  25.000  14.328
93636W        W52897  38.936  12.649  11.935
93637W        W52898  15.789  29.927   1.213
93638W        W52899  18.684   4.795  12.881
93639W        W52900  13.322  36.085  11.876
93640W        W52901  42.021  28.135  12.023
93641W        W52902  41.966  32.401  10.430
93642W        W52903   7.778  15.312   2.307
93643W        W52904  32.942   7.296   2.271
93644W        W52905  26.142  11.780   4.177
93645W        W52906  13.628  15.098   2.184
93646W        W52907  40.981  41.406  14.788
93647W        W52908  20.668  44.398  13.044
93648W        W52909  10.243  31.601  12.923
93649W        W52910  22.535   9.271  14.963
93650W        W52911   3.763  38.979  13.990
93651W        W52912   8.870  16.099  12.086
93652W        W52913   8.349  44.909   1.798
93653W        W52914   2.751   5.734  10.519
93654W        W52915  19.283  43.973  11.591
93655W        W52916  34.914  28.619  11.100
93656W        W52917  24.143  31.902  12.898
93657W        W52918  38.063  34.075  13.517
93658W        W52919  30.569  23.034  13.367
93659W        W52920  12.346  13.845  12.395
93660W        W52921  37.349  40.950   0.887
93661W        W52922   0.826   2.287  14.823
93662W        W52923   4.868  21.626   2.851
93663W        W52924  34.042  27.614  12.880
93664W        W52925  43.316  41.478   4.715
93665W        W52926  16.218  42.965  12.926
93666W        W52927  20.243   8.752   4.787
93667W        W52928  15.709  24.192   4.686
93668W        W52929  30.042  17.232  11.879
93669W        W52930  16.663  13.746   3.283
93670W        W52931  35.932  44.826   5.125
93671W        W52932  32.427  13.802   4.182
93672W        W52933  16.582  19.225  12.351
93673W        W52934   0.970   4.381   0.916
93674W        W52935  11.332  23.223   0.249
93675W        W52936   2.396  19.680  11.376
93676W        W52937  41.847  40.868   3.267
93677W        W52938  43.293  29.552  12.406
93678W        W52939  21.088  33.047  13.989
93679W        W52940   5.208   9.661  11.413
93680W        W52941  41.932  18.708   2.194
93681W        W52942  30.152  44.978   0.417
93682W        W52943  34.883  39.445   0.808
93683W        W52944   9.792  44.270  14.990
93684W        W52945  43.418  34.899   2.864
93685W        W52946   9.323  34.542   1.753
93686W        W52947  38.837   6.282  10.123
93687W        W52948  21.755  18.281   5.176
93688W        W52949  21.254  13.756  10.614
93689W        W52950  33.559   9.692   3.770
93690W        W52951  33.585  25.180   4.798
93691W        W52952  13.319   8.360   2.415
93692W        W52953  28.045  17.257   5.230
93693W        W52954   3.907  39.473   3.722
93694W        W52955  18.261  32.609   0.438
93695W        W52956  22.530  41.320   4.806
93696W        W52957  12.640  34.022   3.859
93697W        W52958  30.918  36.984   2.801
93698W        W52959  15.591  23.241  11.995
93699W        W52960  37.446   4.749   0.305
93700W        W52961  43.999  12.669  12.837
93701W        W52962  11.136   5.909  10.934
93702W        W52963  31.041  30.073  10.978
93703W        W52964  21.743  28.963  14.451
93704W        W52965  38.902  37.392   4.821
93705W        W52966  39.896  23.553   1.798
93706W        W52967   3.430  28.505   2.726
93707W        W52968  41.501  12.225  11.492
93708W        W52969  41.798  17.180   0.384
93709W        W52970   0.437  15.737   2.189
93710W        W52971  19.536  23.090  12.970
93711W        W52972  28.625  19.562  14.028
93712W        W52973  35.869  32.395   0.885
93713W        W52974  32.046  30.623  11.059
93714W        W52975  37.510  36.918  11.479
93715W        W52976  41.529  22.253   3.375
93716W        W52977   2.473   0.483   3.157
93717W        W52978   4.863  44.779   2.802
93718W        W52979   3.247   2.815  14.315
93719W        W52980  24.488  36.569   4.207
93720W        W52981  10.828  33.993   0.380
93721W        W52982  25.636  22.584  13.495
93722W        W52983   0.429  42.290  12.952
93723W        W52984  20.671   6.388   0.448
93724W        W52985  34.398  10.209  14.359
93725W        W52986   9.275   2.312  14.338
93726W        W52987  30.484  32.070  10.446
93727W        W52988  28.136   0.329  11.961
93728W        W52989  40.986  16.762   2.901
93729W        W52990  44.474   4.828   3.842
93730W        W52991  34.612  24.581  10.989
93731W        W52992  36.903  12.752  13.872
93732W        W52993  16.668  30.980   1.841
93733W        W52994  19.144  24.620  14.329
93734W        W52995  19.690  17.780  11.908
93735W        W52996   8.365  18.267  13.042
93736W        W52997  20.732  25.507  13.963
93737W        W52998   3.747  20.095  14.387
93738W        W52999   0.764  41.864   0.345
93739W        W53000  21.716  13.228  10.462
93740W        W53001  10.770  12.213   2.182
93741W        W53002  10.809  23.560   3.313
93742W        W53003  21.108  36.428  14.888
93743W        W53004  34.520  23.663   0.899
93744W        W53005   8.328   9.149  14.284
93745W        W53006  24.220  31.082   0.963
93746W        W53007  26.635  28.593  12.499
93747W        W53008  42.861  35.869   2.404
93748W        W53009  25.589   4.270  12.950
93749W        W53010  19.282  31.605   4.255
93750W        W53011  41.817  26.017  12.363
93751W        W53012  31.623  34.019   1.389
93752W        W53013  36.471  40.322  14.414
93753W        W53014  44.842  36.443   4.223
93754W        W53015  20.249  29.105  13.850
93755W        W53016  26.154  10.873   4.118
93756W        W53017  27.117  22.091   4.818
93757W        W53018   4.312  40.974   1.905
93758W        W53019   8.300  16.781  14.821
93759W        W53020  13.139  16.665   4.813
93760W        W53021  31.014  36.415   3.238
93761W        W53022  33.976  21.743  14.424
93762W        W53023  22.035  16.152  11.930
93763W        W53024  19.071  38.048  14.320
93764W        W53025  24.177  25.538   2.761
93765W        W53026   2.962   4.331   1.388
93766W        W53027  28.455   1.833   1.356
93767W        W53028   9.781  26.148   3.673
93768W        W53029  39.842  27.182   2.232
93769W        W53030   3.922  29.528   2.321
93770W        W53031  42.953  26.026  12.540
93771W        W53032  31.476  21.624   3.337
93772W        W53033  20.612  41.923   1.904
93773W        W53034  26.060  43.916   0.915
93774W        W53035  18.770   9.793   2.690
93775W        W53036  37.063   5.383   0.322
93776W        W53037  37.482  27.976   0.950
93777W        W53038  22.704  32.527  10.508
93778W        W53039  15.667  19.763  14.856
93779W        W53040  20.137  13.123  12.947
93780W        W53041  18.662  40.034  12.341
93781W        W53042  34.605  13.810  12.970
93782W        W53043   9.170   2.734   5.101
93783W        W53044  19.209  26.629   3.679
93784W        W53045  14.825   0.849  13.837
93785W        W53046  18.626  33.455  10.063
93786W        W53047   7.386  44.960   0.888
93787W        W53048  25.214  19.064   0.332
93788W        W53049   5.877  14.719  11.426
93789W        W53050  32.616  39.853  14.784
93790W        W53051  20.633  14.200   1.850
93791W        W53052  40.915   9.657   3.277
93792W        W53053   9.783   4.300   4.225
93793W        W53054   3.275  38.052  13.871
93794W        W53055   7.303  35.442   2.236
93795W        W53056   0.899  31.123   3.186
93796W        W53057  30.043  43.506   3.370
93797W        W53058  21.050  26.050   4.281
93798W        W53059  21.020  27.633  14.863
93799W        W53060  17.229  10.650  11.558
93800W        W53061  40.378  34.014  14.826
93801W        W53062   2.226   2.872   0.434
93802W        W53063  25.564  40.916  12.896
93803W        W53064   7.278  10.291   3.372
93804W        W53065   0.280  26.056   0.353
93805W        W53066  15.302  39.000  11.516
93806W        W53067  26.969  22.020  10.925
93807W        W53068   4.837  10.756  13.856
93808W        W53069  41.842   7.218   1.726
93809W        W53070  27.621  29.507  13.502
93810W        W53071  44.364   9.676   1.225
93811W        W53072   5.831  37.374  12.889
93812W        W53073   6.193   9.722   0.447
93813W        W53074   7.795  17.102   3.225
93814W        W53075  15.654  33.596   3.165
93815W        W53076  25.470  39.994   2.300
93816W        W53077  44.407  37.551   5.237
93817W        W53078   0.752  35.088   0.296
93818W        W53079  43.881  38.868  13.443
93819W        W53080  19.778   9.820  14.512
93820W        W53081   6.891  19.190  13.316
93821W        W53082  15.295  33.468   0.854
93822W        W53083  29.509  18.789  12.959
93823W        W53084  41.343  35.860   4.292
93824W        W53085  42.893  25.103  14.853
93825W        W53086  40.839   1.867   3.664
93826W        W53087   8.693  32.397   4.220
93827W        W53088  13.673   6.299   2.703
93828W        W53089  29.455  11.285   3.801
93829W        W53090  32.021  38.927   0.791
93830W        W53091  40.450  23.124   0.367
93831W        W53092  38.538   6.307  12.079
93832W        W53093  20.578  41.382   2.873
93833W        W53094  12.750   3.461  12.086
93834W        W53095  44.322  27.561  10.550
93835W        W53096  43.411  13.218   1.912
93836W        W53097  41.996  44.817   1.805
93837W        W53098  39.405   1.395  12.967
93838W        W53099  31.421  42.842   1.374
93839W        W53100  27.187  16.186  10.446
93840W        W53101  20.157  22.606   9.525
93841W        W53102   0.327  13.207  14.350
93842W        W53103  21.747  30.437   2.242
93843W        W53104  19.770  20.229  14.431
93844W        W53105  31.102   9.781  13.342
93845W        W53106  18.558   8.879  10.570
93846W        W53107  10.230  42.454  14.482
93847W        W53108  16.593  12.685   1.386
93848W        W53109  10.158  36.961   4.136
93849W        W53110  29.036  40.414   4.718
93850W        W53111  43.436  16.709   3.738
93851W        W53112   3.259  18.171  11.439
93852W        W53113  11.829  34.603   2.893
93853W        W53114  42.012  42.376   3.342
93854W        W53115  36.419  16.136   3.763
93855W        W53116   1.303  21.666   0.287
93856W        W53117  35.465  33.426  13.471
93857W        W53118  35.979  29.497   0.951
93858W        W53119  34.974  22.744  10.626
93859W        W53120  16.238   6.337  14.418
93860W        W53121  11.652  30.060   2.816
93861W        W53122  13.207   9.178   4.168
93862W        W53123  29.563  30.077   2.381
93863W        W53124  38.376  33.097   2.856
93864W        W53125  21.660  10.324   1.448
93865W        W53126  32.923  33.993   5.319
93866W        W53127  36.036   2.818   3.260
93867W        W53128  14.212   1.396   1.819
93868W        W53129  38.016  44.793  13.984
93869W        W53130  10.708  30.507   1.780
93870W        W53131  13.135  12.850   1.419
93871W        W53132  32.980  32.930   4.247
93872W        W53133  25.652  13.259   4.744
93873W        W53134  40.369  18.762   0.413
93874W        W53135  31.627  11.849   1.836
93875W        W53136   8.164   0.880   3.348
93876W        W53137   8.398  42.358  11.077
93877W        W53138  41.040  42.845   1.315
93878W        W53139   8.733  27.998  14.306
93879W        W53140  34.012  38.022   1.439
93880W        W53141  41.982  22.222  14.403
93881W        W53142   7.838   2.272   4.716
93882W        W53143  44.470  34.974  12.989
93883W        W53144  15.107  19.635   1.710
93884W        W53145  32.034  16.771   1.852
93885W        W53146  30.053  21.046   0.476
93886W        W53147  23.529  29.537  11.447
93887W        W53148  28.129  42.499   3.761
93888W        W53149  41.990  38.401   2.213
93889W        W53150  33.990  31.608  11.920
93890W        W53151  23.127  16.570   1.344
93891W        W53152  36.450  38.372   1.284
93892W        W53153  37.511  38.333   3.347
93893W        W53154   6.779  33.000  12.394
93894W        W53155   7.239  17.131  14.364
93895W        W53156  30.436  13.625   3.869
93896W        W53157   6.271   2.839  10.413
93897W        W53158  30.008   7.359   2.747
93898W        W53159  44.281  44.322  13.917
93899W        W53160  32.541  44.757  10.007
93900W        W53161   3.852  22.141  12.909
93901W        W53162  37.545   0.359  11.904
93902W        W53163  39.951  39.822  14.872
93903W        W53164  41.365  41.392   2.718
93904W        W53165  34.516  21.066  11.555
93905W        W53166  42.989  11.282   2.844
93906W        W53167  33.897  44.340   0.892
93907W        W53168  28.535  17.183   2.780
93908W        W53169  33.434  41.381   2.669
93909W        W53170  32.990   8.378  11.040
93910W        W53171  10.667   8.757  13.950
93911W        W53172  24.624   8.243   1.297
93912W        W53173  18.610   5.802   4.351
93913W        W53174   6.744  36.080  14.313
93914W        W53175  24.499   6.407   1.846
93915W        W53176   3.415   6.743   2.866
93916W        W53177  32.993  16.229   2.727
93917W        W53178  29.651   1.282   1.805
93918W        W53179  23.559  38.068  13.390
93919W        W53180   1.454  25.076  11.017
93920W        W53181   9.825  11.326  14.822
93921W        W53182  27.678  44.464  11.606
93922W        W53183  42.925   5.201   0.953
93923W        W53184  27.961  27.605  10.556
93924W        W53185  24.101  16.089  11.560
93925W        W53186  17.579  17.738   0.857
93926W        W53187  34.584  22.695  13.846
93927W        W53188  27.953  12.751   2.324
93928W        W53189  16.799  31.071   2.678
93929W        W53190  43.021  12.660   3.797
93930W        W53191  18.595   2.433  12.974
93931W        W53192   0.325  24.105  13.986
93932W        W53193   6.274  20.548   0.934
93933W        W53194  39.338  21.114   3.317
93934W        W53195  17.625   1.311   0.353
93935W        W53196  31.116  35.944   4.767
93936W        W53197   5.275  42.966  13.996
93937W        W53198   5.874  30.654  14.386
93938W        W53199   6.194  20.649  11.980
93939W        W53200   8.898  17.751  12.891
93940W        W53201  10.771  17.597   1.713
93941W        W53202  28.076  23.495  14.944
93942W        W53203  35.418  35.941   4.763
93943W        W53204   0.913  39.327  12.395
93944W        W53205  10.357  26.002  14.021
93945W        W53206  23.654  42.432   0.818
93946W        W53207  14.631  21.043  10.470
93947W        W53208  37.002  14.687   4.683
93948W        W53209  20.642  27.014  10.912
93949W        W53210   4.719  42.320  11.580
93950W        W53211  15.170   2.933  14.347
93951W        W53212  14.712  17.621  13.809
93952W        W53213  29.118  35.457  12.444
93953W        W53214   7.668  41.801  13.328
93954W        W53215  12.297  37.381   2.276
93955W        W53216   8.178  27.495  11.533
93956W        W53217  27.636  39.467  11.588
93957W        W53218  24.664  31.446   4.617
93958W        W53219  40.954   2.318  12.409
93959W        W53220  35.447  40.018   0.783
93960W        W53221  22.567  16.246   0.750
93961W        W53222  26.019  40.880   3.701
93962W        W53223   6.736  37.495  10.489
93963W        W53224   4.791  32.447   1.784
93964W        W53225   2.770  29.499   3.739
93965W        W53226  44.964  32.471  14.295
93966W        W53227  31.619  37.499   3.788
93967W        W53228   1.254   0.857  14.976
93968W        W53229   0.937  11.175   2.779
93969W        W53230  22.246  16.792   2.328
93970W        W53231  12.828   7.191   2.199
93971W        W53232  28.645  30.534   3.250
93972W        W53233  24.533  38.988  13.337
93973W        W53234   8.329  31.046  11.464
93974W        W53235  32.109   2.358  11.971
93975W        W53236   1.756  26.651  10.611
93976W        W53237  17.567  43.793   0.805
93977W        W53238   1.383  11.288   1.273
93978W        W53239   4.714   2.826   1.272
93979W        W53240  32.058  20.610  13.525
93980W        W53241  22.628  14.189   4.726
93981W        W53242  13.347  34.512  13.393
93982W        W53243   5.397  29.574  12.047
93983W        W53244  37.081  24.101  14.831
93984W        W53245   0.394   4.742  13.520
93985W        W53246   7.302  25.552   0.323
93986W        W53247   3.944  39.485   1.836
93987W        W53248  33.398  19.730  11.882
93988W        W53249   0.388  39.849  11.609
93989W        W53250  42.485  35.070  11.945
93990W        W53251  17.208  20.252   1.431
93991W        W53252  12.347   7.720  12.039
93992W        W53253  17.136  17.722  10.618
93993W        W53254  19.251  14.674  11.941
93994W        W53255  20.067  20.538  11.024
93995W        W53256  41.850   4.349   0.397
93996W        W53257   8.769   0.332  12.569
93997W        W53258  14.274  26.000   2.222
93998W        W53259  30.417   6.230  14.401
93999W        W53260   5.206  38.005  11.966
94000W        W53261   9.687  34.042   4.225
94001W        W53262  15.824  42.005  12.536
94002W        W53263   0.935  40.410   3.328
94003W        W53264  21.178   1.246   0.374
94004W        W53265  39.412  10.377  11.586
94005W        W53266  23.041  28.133  12.070
94006W        W53267  32.074  17.771  12.514
94007W        W53268  37.515   9.728   3.230
94008W        W53269  15.253  40.519   0.927
94009W        W53270  40.893  37.440  11.049
94010W        W53271  42.326  30.138   4.303
94011W        W53272  20.126  35.553   3.711
94012W        W53273  20.258  42.320   4.213
94013W        W53274   9.795  13.723   4.775
94014W        W53275  18.591   6.235   9.936
94015W        W53276   9.335  33.949  10.958
94016W        W53277  31.629   5.723  12.932
94017W        W53278  22.213  33.998  14.883
94018W        W53279  10.843  14.303   0.464
94019W        W53280  35.926  23.713   2.748
94020W        W53281  37.958   9.765   1.264
94021W        W53282  15.778  39.334   4.337
94022W        W53283  17.731  44.941  11.505
94023W        W53284  36.022  18.100  11.115
94024W        W53285  29.513  10.369  11.487
94025W        W53286  25.597  40.319   0.251
94026W        W53287  35.601   9.839   4.744
94027W        W53288  37.553  21.587   2.316
94028W        W53289  10.851  15.321  12.831
94029W        W53290  22.241  22.120   2.765
94030W        W53291  15.247  42.872   2.405
94031W        W53292   4.263  14.754  10.546
94032W        W53293  27.101  33.019  12.991
94033W        W53294  27.197  29.945  13.987
94034W        W53295  20.153  27.515  12.416
94035W        W53296   7.227  33.449  12.451
94036W        W53297   5.774  25.206  13.877
94037W        W53298  26.048   4.300  10.441
94038W        W53299  23.590  28.504   4.651
94039W        W53300  43.777  31.939  13.797
94040W        W53301  22.232  36.457   1.344
94041W        W53302   2.817   1.913   2.858
94042W        W53303  30.070  20.129   3.799
94043W        W53304   3.437  11.289   9.938
94044W        W53305  43.902  10.681   0.393
94045W        W53306   5.364  43.387   1.220
94046W        W53307  34.099  18.262  14.323
94047W        W53308   1.407  43.382   2.898
94048W        W53309   3.791   3.334  14.396
94049W        W53310  41.846  11.632   0.370
94050W        W53311  27.474  30.525  10.917
94051W        W53312  14.099  34.407   0.459
94052W        W53313  39.430  39.534  14.495
94053W        W53314  29.995  25.015   3.234
94054W        W53315  16.095   9.754   1.850
94055W        W53316  17.242  15.726   1.886
94056W        W53317  14.769  27.525  11.927
94057W        W53318  27.093  24.648   1.738
94058W        W53319  17.576   6.305   1.872
94059W        W53320   7.287  22.099   1.704
94060W        W53321  18.150  34.932   0.744
94061W        W53322   1.969  42.972   2.284
94062W        W53323  23.657  39.061  14.806
94063W        W53324  23.543  39.378  14.932
94064W        W53325  44.982  25.007   4.604
94065W        W53326  25.713  29.167   2.750
94066W        W53327  36.860  15.095  14.819
94067W        W53328   5.298  25.992  11.549
94068W        W53329   1.829  36.989  13.893
94069W        W53330  44.875   6.817  10.635
94070W        W53331  28.094  41.418   9.997
94071W        W53332  34.008  36.417   2.417
94072W        W53333  17.778  10.370   0.481
94073W        W53334  30.426  43.775   1.820
94074W        W53335  42.473  36.047   1.813
94075W        W53336  12.336  16.310  10.601
94076W        W53337  44.996  21.111   3.284
94077W        W53338  19.592  36.946   4.185
94078W        W53339   1.406  10.689   3.632
94079W        W53340  24.167  37.515  10.917
94080W        W53341  33.045  16.776  14.977
94081W        W53342  31.992  36.573  13.008
94082W        W53343  12.293  13.803   4.226
94083W        W53344  13.116   1.766   4.729
94084W        W53345  12.178  14.834  11.440
94085W        W53346  31.418  16.257  11.500
94086W        W53347  25.708  40.516  11.490
94087W        W53348  39.969  38.341   5.684
94088W        W53349   1.779   4.930   4.621
94089W        W53350  26.480  10.695  15.000
94090W        W53351   9.247  25.216   3.668
94091W        W53352  22.627  28.172   2.886
94092W        W53353   4.756  27.121  14.958
94093W        W53354  43.443  11.817   1.369
94094W        W53355  38.850   7.354   3.243
94095W        W53356  21.713   4.268  10.586
94096W        W53357  33.055  17.753  13.504
94097W        W53358  35.386  34.034   9.619
94098W        W53359  25.170   9.331  13.887
94099W        W53360  25.534  23.683   0.244
94100W        W53361  43.819  26.624  11.374
94101W        W53362  43.366  19.248  11.464
94102W        W53363  19.710  29.031  14.018
94103W        W53364   7.356  26.460  12.490
94104W        W53365  23.704  40.806  13.050
94105W        W53366   2.419  16.242  11.587
94106W        W53367  24.491   0.254   0.838
94107W        W53368   6.693  37.400  11.469
94108W        W53369  31.084  18.122  11.450
94109W        W53370  16.226  39.812   4.623
94110W        W53371  37.024  33.911   1.296
94111W        W53372   7.825  19.170   4.310
94112W        W53373   8.879  13.252  12.036
94113W        W53374  43.510   4.801  11.551
94114W        W53375  17.564  11.735   4.242
94115W        W53376  30.581  44.944  14.857
94116W        W53377   3.374  22.181  13.313
94117W        W53378   4.355  20.175   1.866
94118W        W53379  33.939  14.725  11.954
94119W        W53380  36.458  25.538   0.827
94120W        W53381  22.022  29.149   0.774
94121W        W53382  26.038  21.631  14.413
94122W        W53383  44.265  44.298   2.239
94123W        W53384  44.009   9.224  12.423
94124W        W53385  24.004  44.290  13.513
94125W        W53386  36.027  12.669  13.442
94126W        W53387  15.603  36.913   4.722
94127W        W53388  11.227  31.080   1.887
94128W        W53389   5.233  20.057   2.354
94129W        W53390   6.244  21.120  10.074
94130W        W53391  23.193  24.689   1.717
94131W        W53392  11.747  42.989   2.672
94132W        W53393  14.144  24.172  14.906
94133W        W53394  10.820  10.714   2.745
94134W        W53395  34.595  19.750  11.428
94135W        W53396  19.040  25.501   2.683
94136W        W53397  43.500  27.041  10.405
94137W        W53398  44.771  42.333  10.548
94138W        W53399  34.605  13.316  12.469
94139W        W53400   2.898  31.536  10.920
94140W        W53401   8.796  34.955   2.742
94141W        W53402  22.673  28.001   0.262
94142W        W53403   3.846  18.232  12.560
94143W        W53404  23.017  34.023  12.075
94144W        W53405  37.987  37.480   2.824
94145W        W53406  14.096  23.201  11.898
94146W        W53407  37.578  27.194  14.355
94147W        W53408  11.690  32.516   0.811
94148W        W53409  19.171  14.760   2.664
94149W        W53410  25.141   9.288  13.481
94150W        W53411   7.359  15.235   0.327
94151W        W53412   3.818  26.674  12.041
94152W        W53413  14.248  40.423  12.492
94153W        W53414   0.988   3.436  12.523
94154W        W53415  23.015  29.021   3.179
94155W        W53416  24.171  23.680   2.359
94156W        W53417  28.182   8.265  14.955
94157W        W53418  23.515  39.850   3.838
94158W        W53419  35.939  12.643   2.815
94159W        W53420   3.901  16.174  12.045
94160W        W53421  41.815  39.493   3.240
94161W        W53422  23.541   8.404   2.232
94162W        W53423  15.232  37.471  11.941
94163W        W53424  19.777  15.312  14.293
94164W        W53425  32.920  13.110  12.006
94165W        W53426  29.118  18.779   1.361
94166W        W53427   1.249  28.064  11.555
94167W        W53428  40.051   6.417  10.447
94168W        W53429  41.426   3.259  11.993
94169W        W53430  41.390  35.548  12.058
94170W        W53431  25.621   7.835  11.385
94171W        W53432  18.685  39.435  13.460
94172W        W53433   4.844  44.323  12.490
94173W        W53434  25.194  30.449   0.389
94174W        W53435  30.503  43.777  13.803
94175W        W53436   1.863   9.801  11.499
94176W        W53437  17.302  43.881   3.786
94177W        W53438  11.817  20.578   1.401
94178W        W53439  16.785  29.439   3.231
94179W        W53440   6.286  39.360   1.326
94180W        W53441  25.991  38.355   4.126
94181W        W53442  22.574   4.279  10.608
94182W        W53443   2.901  27.113   3.162
94183W        W53444  21.529  16.279   0.452
94184W        W53445  42.426  20.234  11.929
94185W        W53446   9.162  26.656   4.323
94186W        W53447  33.880  33.958   5.569
94187W        W53448   5.857   2.242   2.348
94188W        W53449  11.310  35.483  11.989
94189W        W53450  43.500  17.161   3.182
94190W        W53451  34.601  17.631   2.411
94191W        W53452  12.765   4.407  11.010
94192W        W53453  36.527  32.006  13.515
94193W        W53454  18.239  44.820   4.143
94194W        W53455  41.506  23.141   1.728
94195W        W53456  35.865   0.804   1.783
94196W        W53457   3.401  35.557  12.535
94197W        W53458  23.660  41.468  13.316
94198W        W53459  16.679  17.178  11.468
94199W        W53460  31.993  33.621  11.861
94200W        W53461  34.084  26.589  14.874
94201W        W53462  21.213   6.874   2.302
94202W        W53463  26.577  21.688  10.994
94203W        W53464  30.126   5.234   2.409
94204W        W53465   7.385  15.198  14.790
94205W        W53466  35.928  35.539   4.154
94206W        W53467  27.647  29.589  11.559
94207W        W53468   5.913   1.959  14.858
94208W        W53469   0.920  35.376   0.762
94209W        W53470  14.805   4.844  14.978
94210W        W53471  20.559  19.094   2.712
94211W        W53472  38.000  26.483   2.893
94212W        W53473  42.907  23.121   1.244
94213W        W53474  29.093  16.122   3.156
94214W        W53475  42.401  18.790   0.943
94215W        W53476  36.948   8.325   3.847
94216W        W53477  18.728   8.271   3.647
94217W        W53478   0.797  32.568  13.465
94218W        W53479   2.818  25.208   0.801
94219W        W53480  34.519  42.801   3.805
94220W        W53481  17.671  37.411  10.563
94221W        W53482  25.585  39.476  14.966
94222W        W53483  16.179   2.458   9.452
94223W        W53484  22.228  10.854  13.847
94224W        W53485  36.501  38.826  11.010
94225W        W53486   3.744   4.905  12.451
94226W        W53487  10.368  17.591  11.400
94227W        W53488  13.780  40.873   4.134
94228W        W53489   5.346  41.376  12.411
94229W        W53490  25.646  26.676   4.320
94230W        W53491  11.307  42.441  13.983
94231W        W53492   1.450  32.992  12.423
94232W        W53493  21.213  27.662  11.520
94233W        W53494   0.268  17.684  14.335
94234W        W53495  42.358  33.418  11.418
94235W        W53496   6.706  20.078  14.471
94236W        W53497  33.059  18.060   2.210
94237W        W53498  41.332  12.691  10.446
94238W        W53499  17.738   4.864  11.956
94239W        W53500  40.487  11.261  10.974
94240W        W53501  21.566   2.798  13.846
94241W        W53502  13.142  12.763  14.820
94242W        W53503  34.062   2.398  13.830
94243W        W53504  39.546   8.193   2.333
94244W        W53505   1.788  10.812   4.820
94245W        W53506  25.482  38.978   2.307
94246W        W53507  23.574  20.263  12.455
94247W        W53508  32.560  23.238  13.865
94248W        W53509  44.006  37.401   3.318
94249W        W53510  44.837  44.930   3.678
94250W        W53511  33.547  44.778   4.747
94251W        W53512  18.064   3.418   2.265
94252W        W53513   9.888  18.100  11.934
94253W        W53514  35.509   8.737   2.846
94254W        W53515  26.012  23.075  11.876
94255W        W53516   7.893   0.855   0.933
94256W        W53517  40.428  10.816   2.323
94257W        W53518  21.250  15.789   5.171
94258W        W53519   5.203   9.751   0.388
94259W        W53520   0.964  23.673  14.852
94260W        W53521   8.357  10.870  14.850
94261W        W53522  25.159  31.624   2.831
94262W        W53523  11.144  28.097  14.818
94263W        W53524  13.813  32.467  13.848
94264W        W53525  23.534   2.241   1.844
94265W        W53526  22.249  40.472  10.902
94266W        W53527  25.219  25.976   0.924
94267W        W53528  38.977   9.218  14.389
94268W        W53529   3.442   9.868   0.936
94269W        W53530  22.185   8.276  14.482
94270W        W53531   3.881  22.133   3.793
94271W        W53532   1.822  39.388  10.449
94272W        W53533  40.416  22.013   0.807
94273W        W53534  30.052  40.467   1.247
94274W        W53535   1.735  13.718  13.856
94275W        W53536   5.843  39.959   3.713
94276W        W53537  27.100  36.435  12.560
94277W        W53538  10.777   7.788   0.842
94278W        W53539  20.205  28.156  10.923
94279W        W53540   8.671  11.737  11.604
94280W        W53541  31.946  36.566   0.411
94281W        W53542   1.300  44.804  14.779
94282W        W53543  41.016  36.863   2.817
94283W        W53544   2.822   9.214  14.298
94284W        W53545  31.982  10.295   2.876
94285W        W53546  31.032  43.930   1.367
94286W        W53547  28.516  41.492   1.740
94287W        W53548  41.833  35.435   3.296
94288W        W53549  20.170   9.395  11.564
94289W        W53550  41.812  16.280  13.870
94290W        W53551  44.915  34.957   2.731
94291W        W53552  34.968  36.506   5.743
94292W        W53553  28.979  38.040   1.427
94293W        W53554   4.876  18.713   4.759
94294W        W53555  36.348  23.575  13.417
94295W        W53556  14.137  23.175   4.296
94296W        W53557  32.061  17.073   3.804
94297W        W53558  14.672   1.747  11.565
94298W        W53559  12.274  19.118   3.812
94299W        W53560  33.476  23.102  10.635
94300W        W53561  42.993  29.494   1.905
94301W        W53562  19.107  15.663  12.542
94302W        W53563   4.318  30.134  14.390
94303W        W53564  13.184  37.867   2.237
94304W        W53565   7.783  18.779  13.914
94305W        W53566   7.296  18.735   2.269
94306W        W53567  14.639   3.332   3.835
94307W        W53568  29.000  32.409   1.908
94308W        W53569  13.774   8.816  12.841
94309W        W53570   0.954  22.032  11.126
94310W        W53571  40.042  17.266   1.891
94311W        W53572   7.313  44.382  11.977
94312W        W53573  38.349  24.541  14.417
94313W        W53574  40.374   0.259   4.185
94314W        W53575  43.457  37.884  13.060
94315W        W53576  31.046  29.553  13.916
94316W        W53577   1.772  24.688  14.981
94317W        W53578   3.440  18.663  12.504
94318W        W53579  15.139  42.990   2.735
94319W        W53580  30.915  18.192  10.956
94320W        W53581  29.999   8.862  11.485
94321W        W53582  31.554  34.870   0.862
94322W        W53583  15.218   4.337  13.347
94323W        W53584  40.015  38.862  13.029
94324W        W53585  38.554  25.572  12.569
94325W        W53586  36.567   1.246  11.086
94326W        W53587  40.420  34.411   0.914
94327W        W53588  33.562  30.053  11.074
94328W        W53589  23.069  35.566  13.473
94329W        W53590  37.046  43.826   2.332
94330W        W53591   0.264  14.303   3.699
94331W        W53592  18.247  35.436  13.924
94332W        W53593  10.255  14.815   0.743
94333W        W53594  18.723   7.201   4.255
94334W        W53595   7.262  20.256  11.574
94335W        W53596  33.950  39.953   2.324
94336W        W53597   0.817   7.306  13.399
94337W        W53598  37.942   7.377  13.914
94338W        W53599   0.326  40.833  14.354
94339W        W53600  39.952  28.185  11.040
94340W        W53601  33.070  28.183   2.715
94341W        W53602  26.604  11.810  12.429
94342W        W53603  15.782  12.738  13.943
94343W        W53604  18.559  21.723  13.989
94344W        W53605  13.720   7.223  13.531
94345W        W53606   1.920  30.155  12.842
94346W        W53607  21.193   8.226  12.370
94347W        W53608  32.501  40.320  14.975
94348W        W53609  41.938   7.276  12.984
94349W        W53610   2.248  29.995  13.481
94350W        W53611  22.647  18.291  10.063
94351W        W53612  11.290   2.419  11.373
94352W        W53613  30.489  19.704  13.943
94353W        W53614  15.628  42.924   0.889
94354W        W53615  13.734  17.082   4.198
94355W        W53616  40.392   1.399   1.266
94356W        W53617  32.082  16.679   3.166
94357W        W53618  14.825  42.437   2.793
94358W        W53619  19.746  41.467  13.404
94359W        W53620  19.567  19.171  14.829
94360W        W53621  31.636   8.368   1.908
94361W        W53622   5.347   1.895  14.848
94362W        W53623   0.460  18.283  13.816
94363W        W53624  23.156   9.162   2.336
94364W        W53625   8.308  14.316   4.259
94365W        W53626   9.150  23.234   4.736
94366W        W53627  11.816  22.554  10.587
94367W        W53628  28.585  34.044  12.341
94368W        W53629  18.763  19.255  13.456
94369W        W53630   3.375   0.427  14.903
94370W        W53631   7.302  37.930  12.976
94371W        W53632  44.976  31.552   0.948
94372W        W53633  41.792  18.715   4.262
94373W        W53634  39.827  21.569   3.753
94374W        W53635  40.864  38.882  13.902
94375W        W53636   8.396  36.377  10.423
94376W        W53637  41.338  18.648  10.552
94377W        W53638   6.678   6.721  13.382
94378W        W53639   8.862  34.501   2.345
94379W        W53640  31.437  28.667   4.806
94380W        W53641  17.725  29.174  14.289
94381W        W53642  23.571  35.949  10.579
94382W        W53643  20.558  26.009  13.318
94383W        W53644  15.305  33.415  10.636
94384W        W53645   2.465  39.533  12.530
94385W        W53646  22.157   9.345  11.985
94386W        W53647  32.500  16.146   1.763
94387W        W53648  37.912  23.168  13.945
94388W        W53649  33.884  12.688   5.283
94389W        W53650  29.471  10.808  12.483
94390W        W53651  26.126  15.821   3.278
94391W        W53652  39.393  18.597  12.061
94392W        W53653  19.247  14.294   2.418
94393W        W53654   9.164  13.211   4.186
94394W        W53655  28.968  28.098   4.708
94395W        W53656  17.750  41.825  10.489
94396W        W53657   0.891  38.431  14.433
94397W        W53658  11.326  12.818   1.815
94398W        W53659  17.088  25.481  11.443
94399W        W53660  12.815   3.842  13.318
94400W        W53661   8.817  19.682   3.185
94401W        W53662  15.106  41.888   1.702
94402W        W53663  27.188   9.345   4.721
94403W        W53664  40.861  30.647   3.214
94404W        W53665  31.439  10.178  13.028
94405W        W53666  35.548   6.273  13.906
94406W        W53667   7.881  31.524   4.244
94407W        W53668  28.090  42.427   0.422
94408W        W53669   6.421  42.933   2.288
94409W        W53670  21.589  31.037  11.094
94410W        W53671   8.303  34.464  11.416
94411W        W53672  27.078   4.436  14.027
94412W        W53673  32.101  14.795  10.527
94413W        W53674   4.324  25.677   2.789
94414W        W53675  10.261  22.725  13.490
94415W        W53676  17.205  17.745  11.971
94416W        W53677  22.094  44.875   2.396
94417W        W53678  36.431  13.260   4.343
94418W        W53679  16.766  28.991   9.946
94419W        W53680   0.308  17.241  12.928
94420W        W53681  17.071  11.307   0.447
94421W        W53682  42.295  27.667   2.411
94422W        W53683   4.296  20.574  13.332
94423W        W53684  23.622  26.566   3.761
94424W        W53685   7.816   6.916  13.367
94425W        W53686   2.797  41.362  12.071
94426W        W53687  26.090  10.747  13.888
94427W        W53688   1.887  19.553   2.200
94428W        W53689   9.699  44.768   3.664
94429W        W53690  20.038  34.993   2.689
94430W        W53691  15.200  41.535   0.888
94431W        W53692  15.727  38.061   2.843
94432W        W53693  33.388  38.480  14.777
94433W        W53694  11.743   9.674   0.474
94434W        W53695  36.368  40.412   4.823
94435W        W53696  25.218  44.872  13.453
94436W        W53697  30.156  39.923  14.792
94437W        W53698  13.694  24.534  11.389
94438W        W53699  43.493  23.489  12.400
94439W        W53700  38.369  32.402   1.224
94440W        W53701  32.037  22.182   9.985
94441W        W53702  32.034  37.077  14.361
94442W        W53703  11.342  25.153   3.713
94443W        W53704  42.786   9.389   2.334
94444W        W53705  28.167  12.181  14.972
94445W        W53706   4.280  19.635  14.898
94446W        W53707  37.840  22.057   2.699
94447W        W53708  32.578  17.779  14.486
94448W        W53709  29.037   7.859   1.318
94449W        W53710   6.418  31.637  10.119
94450W        W53711  38.074  27.581  11.493
94451W        W53712  44.937  13.808  13.006
94452W        W53713  39.054  12.314  10.928
94453W        W53714  43.462  35.375  12.840
94454W        W53715   4.337  34.534   0.792
94455W        W53716   1.797  34.457  11.417
94456W        W53717  23.193  26.565  10.609
94457W        W53718  43.337  12.244   0.453
94458W        W53719  32.003   1.935  13.307
94459W        W53720  15.665  11.242   3.375
94460W        W53721  42.834   7.315   0.442
94461W        W53722   5.266   9.862   1.838
94462W        W53723  33.972  23.100  11.906
94463W        W53724  37.859   5.238  11.403
94464W        W53725  31.577  18.249   1.223
94465W        W53726  42.811   7.790   0.412
94466W        W53727  21.692  22.098   4.115
94467W        W53728  37.535  29.612  11.094
94468W        W53729  34.993   2.444  10.986
94469W        W53730   6.878  27.946  11.982
94470W        W53731  30.570  44.263   0.882
94471W        W53732   8.370   3.720  10.534
94472W        W53733  35.913  43.354   4.319
94473W        W53734   2.261  21.613  13.357
94474W        W53735  41.847  31.647   1.871
94475W        W53736  35.856  16.766  13.480
94476W        W53737  10.692  25.976   1.902
94477W        W53738  44.398  20.176  14.924
94478W        W53739  41.345  34.992   2.260
94479W        W53740  32.950  44.470  11.880
94480W        W53741  21.057  35.889  13.917
94481W        W53742  30.569   7.866  14.357
94482W        W53743   8.716  40.985  13.025
94483W        W53744   7.842   7.679   1.288
94484W        W53745   8.200  35.989  10.917
94485W        W53746  20.064  39.409   1.925
94486W        W53747   8.317  39.988  11.382
94487W        W53748   3.863  38.046   3.766
94488W        W53749  34.865  31.461   4.756
94489W        W53750  40.517  23.103   1.822
94490W        W53751  42.875  38.967  13.936
94491W        W53752  20.525  40.031  14.976
94492W        W53753  31.575  32.564  14.964
94493W        W53754  38.831   2.905   0.400
94494W        W53755   2.721  28.058   4.198
94495W        W53756  27.500  43.283  14.975
94496W        W53757  29.957  12.714  11.117
94497W        W53758   6.191   8.878  13.889
94498W        W53759   3.313  20.185  13.457
94499W        W53760  32.020   4.770  14.320
94500W        W53761  17.669   7.875   3.244
94501W        W53762  34.448  18.280  12.489
94502W        W53763   0.315  43.364   4.153
94503W        W53764  44.835   3.285  13.911
94504W        W53765  34.883  19.692   3.220
94505W        W53766  12.347  34.412   4.647
94506W        W53767  35.930  32.089   4.821
94507W        W53768   7.754  42.502  12.016
94508W        W53769   3.458  24.699  13.994
94509W        W53770  42.917  32.469   3.179
94510W        W53771  39.882  36.370   0.944
94511W        W53772  36.085  28.175  11.563
94512W        W53773   1.882  41.337   0.807
94513W        W53774  10.248   6.718  11.973
94514W        W53775  14.117  20.201  10.970
94515W        W53776  11.667  41.505   3.631
94516W        W53777   2.900  18.160   1.851
94517W        W53778   8.728  17.146   1.348
94518W        W53779  30.590  19.177  14.894
94519W        W53780  31.917  23.088  10.618
94520W        W53781   2.785  19.188   2.290
94521W        W53782  28.949   4.439  10.983
94522W        W53783  40.531   5.762   1.308
94523W        W53784  33.538   8.827   9.993
94524W        W53785  13.764   1.399  12.957
94525W        W53786   3.841   0.743  10.906
94526W        W53787  34.406   8.256   3.316
94527W        W53788  37.355  40.989   1.828
94528W        W53789  28.984  21.581  13.006
94529W        W53790  22.590  40.317   1.694
94530W        W53791  21.514  40.404   4.802
94531W        W53792  29.510  12.122   1.390
94532W        W53793   7.322  27.669   1.344
94533W        W53794   9.160  38.531  11.857
94534W        W53795  43.935  34.571  10.488
94535W        W53796  22.231  11.338   1.803
94536W        W53797  14.834  33.594   2.220
94537W        W53798  39.513   9.297   3.672
94538W        W53799   4.844  20.533   3.826
94539W        W53800   4.246  28.079   4.184
94540W        W53801  30.625   2.396   2.886
94541W        W53802  32.615  28.974  11.036
94542W        W53803  11.685  43.376  12.556
94543W        W53804  18.672   6.182   3.783
94544W        W53805  37.448   7.816   0.256
94545W        W53806  21.551  14.758   1.262
94546W        W53807   1.259  25.685   0.415
94547W        W53808  41.910  36.399   3.647
94548W        W53809  31.905  35.488  14.015
94549W        W53810  18.644   4.900  10.151
94550W        W53811  25.999  16.153   4.711
94551W        W53812  27.053  15.280  13.965
94552W        W53813  39.539  31.975  12.449
94553W        W53814  29.132  15.317  13.449
94554W        W53815  29.149  36.990   1.216
94555W        W53816   7.406  14.655  14.438
94556W        W53817  26.488  37.365   3.705
94557W        W53818  23.520  25.540  11.502
94558W        W53819  29.063  12.281   2.374
94559W        W53820  14.603  36.934  14.794
94560W        W53821  35.074   1.762   4.139
94561W        W53822  19.693  11.845   3.717
94562W        W53823  42.327  37.069   2.812
94563W        W53824  11.651  36.886  10.909
94564W        W53825  34.052  40.466  11.940
94565W        W53826  31.471   5.337   4.184
94566W        W53827  34.584  22.240  11.119
94567W        W53828  18.240   9.197  11.543
94568W        W53829  42.282  19.692  11.017
94569W        W53830  24.030  13.650   1.214
94570W        W53831  37.470  28.094   2.361
94571W        W53832  27.591   1.732  13.349
94572W        W53833  40.848  21.034  14.941
94573W        W53834  28.448  22.229   0.820
94574W        W53835   6.304  43.451  14.509
94575W        W53836  38.330  21.043   2.670
94576W        W53837  41.880  43.371   0.827
94577W        W53838  22.180   5.366  10.926
94578W        W53839  27.612   3.858   0.832
94579W        W53840  26.951  13.144  13.039
94580W        W53841  26.052  31.905  13.399
94581W        W53842  15.107  13.724   1.304
94582W        W53843   9.708  39.055   1.935
94583W        W53844  32.581  25.628  11.104
94584W        W53845  37.880  42.805  14.852
94585W        W53846  11.132  43.012   1.280
94586W        W53847  31.913  22.568   4.827
94587W        W53848  18.673   4.929  12.566
94588W        W53849  12.799  21.560  11.091
94589W        W53850  34.020  36.478   4.683
94590W        W53851  42.921   0.907   1.797
94591W        W53852  22.512  12.736  12.424
94592W        W53853  26.622  10.753   3.171
94593W        W53854  31.492  29.951   2.410
94594W        W53855  22.551   7.239  14.884
94595W        W53856   7.890  25.163   0.889
94596W        W53857  41.453  31.459  14.910
94597W        W53858  39.911   8.399  10.992
94598W        W53859   3.722   3.873   0.250
94599W        W53860  25.705  23.990   3.756
94600W        W53861  18.259  18.111  13.348
94601W        W53862   3.889   4.275   1.376
94602W        W53863  30.104  35.877   0.379
94603W        W53864  33.500  34.467  13.916
94604W        W53865  43.948  27.172  11.012
94605W        W53866  30.657  14.205   9.622
94606W        W53867  30.590  18.070   1.224
94607W        W53868  27.644  31.600   0.430
94608W        W53869  14.276  37.047  12.935
94609W        W53870  11.234   3.857   0.963
94610W        W53871  11.278  29.545   1.286
94611W        W53872  17.133  35.601  12.457
94612W        W53873  43.300  15.669   4.617
94613W        W53874   2.906   9.856  11.903
94614W        W53875  33.447   7.799  10.937
94615W        W53876  34.011  14.687  13.510
94616W        W53877  30.944  28.480   0.826
94617W        W53878  22.116  30.581  11.957
94618W        W53879  19.600  43.978   2.850
94619W        W53880  19.571  41.874  14.953
94620W        W53881  12.791   6.204  14.397
94621W        W53882  12.700   7.674  12.903
94622W        W53883  17.644  33.523   2.685
94623W        W53884  31.569  25.967  11.598
94624W        W53885  21.132  26.134   3.834
94625W        W53886   1.819   4.359   1.247
94626W        W53887   8.301  11.203  13.972
94627W        W53888  25.967   3.731  10.981
94628W        W53889   4.913  22.212  12.866
94629W        W53890  11.840   4.374   2.181
94630W        W53891   1.266   4.259   0.924
94631W        W53892   0.793  32.049  14.988
94632W        W53893   4.780  16.176  12.075
94633W        W53894  32.459  21.722   2.901
94634W        W53895  38.569  42.005  14.403
94635W        W53896  37.481   4.367  12.372
94636W        W53897  30.009  35.426   0.396
94637W        W53898   0.304  21.568   3.251
94638W        W53899  18.778  20.162   2.364
94639W        W53900  31.523  34.449  12.832
94640W        W53901  39.945   6.778   3.207
94641W        W53902  18.201  31.117   1.927
94642W        W53903  42.288   7.864  12.895
94643W        W53904  22.113  12.800   1.857
94644W        W53905   0.415  20.085  10.474
94645W        W53906  29.954   3.877  11.404
94646W        W53907   4.849  22.213   9.945
94647W        W53908  10.214   7.325  13.036
94648W        W53909   8.179  40.945  10.941
94649W        W53910  36.063  29.662   4.256
94650W        W53911  30.583   9.832  11.982
94651W        W53912  34.402  29.043  10.412
94652W        W53913  34.369   0.388   0.887
94653W        W53914  34.583  43.781   1.324
94654W        W53915  10.365  32.430  12.452
94655W        W53916  20.259  36.575   3.658
94656W        W53917  28.130  25.031  10.624
94657W        W53918  23.987   3.760  11.430
94658W        W53919  41.943  28.070   1.380
94659W        W53920  26.540  42.503  11.108
94660W        W53921  39.344  10.317   2.380
94661W        W53922   8.323  29.446   1.344
94662W        W53923  21.686  21.039  14.813
94663W        W53924   1.250  18.146   4.649
94664W        W53925  43.823  36.844  14.996
94665W        W53926   8.660  36.940   3.675
94666W        W53927  44.809   0.325   0.876
94667W        W53928  43.474  32.051   3.670
94668W        W53929  16.652  23.523  13.451
94669W        W53930  17.138  30.984   0.373
94670W        W53931  33.550  12.616   1.788
94671W        W53932  17.611   2.280   0.831
94672W        W53933  39.848  33.006  14.860
94673W        W53934  42.803  11.270   1.734
94674W        W53935  43.806  43.447   3.821
94675W        W53936  32.886  28.563   3.634
94676W        W53937  31.897  22.243   4.712
94677W        W53938  31.996  26.511   3.150
94678W        W53939  42.309   7.349  13.871
94679W        W53940   7.241  16.260   4.802
94680W        W53941  32.529   3.928  11.089
94681W        W53942   4.235  18.642  10.523
94682W        W53943  13.696  16.193   2.772
94683W        W53944  38.463   0.935  14.466
94684W        W53945  33.932   0.282  11.551
94685W        W53946   9.680  25.654   4.270
94686W        W53947   1.850   8.267   1.887
94687W        W53948  25.157  19.241  14.958
94688W        W53949   6.197   6.786   3.787
94689W        W53950  37.059   8.710  10.634
94690W        W53951  14.635  16.740  11.868
94691W        W53952  32.450   9.658   5.237
94692W        W53953  35.922  17.106  12.966
94693W        W53954   2.853  24.566   0.348
94694W        W53955  12.164  22.620   4.247
94695W        W53956  40.364  25.587   4.638
94696W        W53957  12.663  23.516  10.429
94697W        W53958  13.624   6.268  12.935
94698W        W53959   8.770  33.404  10.409
94699W        W53960  35.866  37.389  13.004
94700W        W53961  18.569   1.959  12.084
94701W        W53962  35.882  41.304  14.935
94702W        W53963  16.317  38.391   2.379
94703W        W53964   6.749  20.140   3.343
94704W        W53965  44.863  30.994   2.198
94705W        W53966  22.566  24.540  14.986
94706W        W53967   9.802  35.573  13.027
94707W        W53968  41.988   6.729  13.543
94708W        W53969  29.065  16.192   1.351
94709W        W53970  20.740  31.448   3.821
94710W        W53971  39.320   4.300   1.818
94711W        W53972  18.628   7.295   3.796
94712W        W53973  25.607  31.991  14.804
94713W        W53974   7.910  34.579  11.481
94714W        W53975  15.307   4.729  12.343
94715W        W53976  14.662  33.445  13.506
94716W        W53977  14.337  36.075   3.718
94717W        W53978  34.979  23.534  10.536
94718W        W53979  34.503  34.075   5.806
94719W        W53980  30.653   2.385   3.214
94720W        W53981  10.195  26.033   4.349
94721W        W53982  34.484  33.010  12.037
94722W        W53983  29.535  21.050   5.280
94723W        W53984  38.381  25.131  12.429
94724W        W53985  10.351  41.978  13.957
94725W        W53986  24.066  11.723  10.485
94726W        W53987  42.927  42.845  11.562
94727W        W53988  30.066  15.600  13.049
94728W        W53989  23.178   3.935  11.478
94729W        W53990  38.930   7.866   4.295
94730W        W53991  41.939  38.883  14.497
94731W        W53992   4.402  37.050  12.924
94732W        W53993   2.907  18.095  14.777
94733W        W53994   7.849  21.092  10.622
94734W        W53995  31.065  11.686  12.924
94735W        W53996  19.046  10.197   4.721
94736W        W53997  33.962  22.723   1.363
94737W        W53998  29.110  11.752  13.480
94738W        W53999   3.866  37.417   2.723
94739W        W54000   6.381  32.071  12.912
94740W        W54001  25.184   4.705  10.410
94741W        W54002  15.720  44.370   5.130
94742W        W54003   3.916  31.529   2.792
94743W        W54004   2.839  20.028  10.475
94744W        W54005  16.264  31.021   3.753
94745W        W54006   1.782   3.355   1.290
94746W        W54007  36.987  16.765  12.830
94747W        W54008  32.445  20.245  11.452
94748W        W54009  23.135  27.575   2.667
94749W        W54010  44.277  25.711   4.665
94750W        W54011  22.673  25.973  14.355
94751W        W54012  23.609  40.491   0.824
94752W        W54013   7.839  10.656  10.940
94753W        W54014  32.495  38.869  13.006
94754W        W54015  36.590   9.887   2.690
94755W        W54016   4.907  36.056   4.710
94756W        W54017   1.481  27.684  13.417
94757W        W54018   0.885  37.077  11.402
94758W        W54019  31.406  41.374   2.743
94759W        W54020   6.840   4.332  10.457
94760W        W54021   7.385  30.413  13.013
94761W        W54022  14.770  14.675   3.676
94762W        W54023   4.734  29.953   4.134
94763W        W54024  14.739  22.084   1.433
94764W        W54025   2.938   8.167  13.469
94765W        W54026  11.152  18.600   3.275
94766W        W54027  19.601  13.796  13.337
94767W        W54028  27.953  16.239   2.335
94768W        W54029  22.070  44.337  13.400
94769W        W54030  22.723  34.871   0.291
94770W        W54031  25.677  44.800  12.417
94771W        W54032  33.009   7.236   2.836
94772W        W54033  21.028  32.134  14.309
94773W        W54034  27.081  41.894   3.234
94774W        W54035  30.440  17.252   3.658
94775W        W54036  21.262   7.206   2.203
94776W        W54037  40.884  18.765  11.025
94777W        W54038  37.519  12.702   9.961
94778W        W54039   1.360  18.787   0.939
94779W        W54040   3.234  16.248   2.371
94780W        W54041  27.543   8.805  14.849
94781W        W54042  10.261  25.171  11.377
94782W        W54043  38.964  18.149   2.901
94783W        W54044  24.588  41.848   4.141
94784W        W54045   7.904   1.858  10.911
94785W        W54046  32.446  16.745   4.781
94786W        W54047  27.945  34.564  12.577
94787W        W54048  21.171  29.128   4.266
94788W        W54049  17.680  35.573  11.500
94789W        W54050  33.972  44.275  12.896
94790W        W54051  20.698  18.270  13.342
94791W        W54052  11.842  12.807   3.715
94792W        W54053  14.330  24.018   2.327
94793W        W54054   6.745  24.609  13.877
94794W        W54055  38.469   3.751  14.952
94795W        W54056  40.470  22.094  13.905
94796W        W54057  21.625  34.083  10.998
94797W        W54058  21.114   9.763   4.159
94798W        W54059  28.129  19.718   1.857
94799W        W54060   6.812  27.512   0.965
94800W        W54061  26.147   7.232   2.321
94801W        W54062  24.228  33.069   0.848
94802W        W54063  26.640  24.030   2.320
94803W        W54064   8.712  36.881   1.917
94804W        W54065  21.586  11.262   0.917
94805W        W54066  42.502   5.741   4.171
94806W        W54067   8.883  34.958   2.316
94807W        W54068  26.033  35.933   0.298
94808W        W54069  22.025   2.368  11.489
94809W        W54070   7.328  10.767  11.575
94810W        W54071  25.979  34.485   0.930
94811W        W54072  32.905  11.349  14.015
94812W        W54073  39.379  43.463  11.040
94813W        W54074  25.962  42.489  14.406
94814W        W54075  37.347  30.066   0.368
94815W        W54076  23.051   9.213   4.170
94816W        W54077   9.714  20.759  11.553
94817W        W54078   4.418  37.549   2.789
94818W        W54079  35.036   4.913   4.784
94819W        W54080  36.347   6.396   2.750
94820W        W54081   0.901  44.406  13.044
94821W        W54082  36.912  31.541  11.882
94822W        W54083  11.311  15.817   1.217
94823W        W54084   7.781  37.385  11.526
94824W        W54085  25.502  42.414   1.250
94825W        W54086   6.919   6.282   2.744
94826W        W54087  32.935  40.465  13.455
94827W        W54088  28.444  13.112   3.662
94828W        W54089  11.803  24.066  13.001
94829W        W54090  38.010  33.127   0.837
94830W        W54091  13.140  39.447  10.537
94831W        W54092   2.427   9.729  11.394
94832W        W54093  19.628   5.821  10.919
94833W        W54094  38.014  21.639  12.501
94834W        W54095  38.830  25.037  12.352
94835W        W54096  23.728  22.680   0.450
94836W        W54097  35.991   7.390   1.318
94837W        W54098  27.635  16.309  14.281
94838W        W54099  24.715  43.412   2.900
94839W        W54100  36.574  28.524  13.406
94840W        W54101  32.074  18.050  11.012
94841W        W54102  43.390   0.290   4.608
94842W        W54103   5.227  34.593   3.280
94843W        W54104  36.913  18.606   0.261
94844W        W54105   3.816   3.769  11.861
94845W        W54106  33.481  37.920   3.158
94846W        W54107  14.761  21.680   1.249
94847W        W54108  42.466  38.429   0.468
94848W        W54109   8.270   7.179  12.823
94849W        W54110  39.418  39.915   3.693
94850W        W54111  38.831  38.042   2.354
94851W        W54112  12.831  39.996  13.363
94852W        W54113  32.077  38.418  14.763
94853W        W54114  36.056  26.065  11.028
94854W        W54115  41.370  38.850  12.044
94855W        W54116  11.282   3.347   2.194
94856W        W54117   2.336  10.815   2.827
94857W        W54118  25.164  12.278  11.468
94858W        W54119  16.074  16.673  13.831
94859W        W54120  12.730  44.990  13.407
94860W        W54121  17.244   9.732  14.403
94861W        W54122   8.864  15.328   0.387
94862W        W54123  17.710   5.886   2.672
94863W        W54124  31.568  40.933  14.005
94864W        W54125  26.177   6.340  11.525
94865W        W54126  21.146  17.176   1.833
94866W        W54127  31.617   1.925   3.198
94867W        W54128  23.687  23.177  14.484
94868W        W54129   8.661  32.912  13.881
94869W        W54130  20.145  35.859  14.478
94870W        W54131  29.167  20.045  12.358
94871W        W54132  13.650  34.104  14.021
94872W        W54133  38.918   2.415   3.155
94873W        W54134   2.899  41.391  10.985
94874W        W54135  18.071  24.609   4.308
94875W        W54136  44.856   3.229  12.026
94876W        W54137   4.207  39.542  10.967
94877W        W54138  21.188  10.373  13.516
94878W        W54139  11.305  11.137   9.475
94879W        W54140  24.163  25.656  11.096
94880W        W54141  40.012   6.360   4.675
94881W        W54142  18.669   8.843  14.961
94882W        W54143  13.617  44.487  13.452
94883W        W54144  26.642  33.443  13.350
94884W        W54145  14.270   2.953  13.953
94885W        W54146  35.546  27.071   3.175
94886W        W54147  13.346  25.038  11.079
94887W        W54148  33.475  34.482   2.344
94888W        W54149  29.618   6.406  10.019
94889W        W54150  25.608  26.646  14.455
94890W        W54151  30.480  34.601   1.255
94891W        W54152  21.726  14.822   3.843
94892W        W54153   4.776  13.749  13.448
94893W        W54154  17.655  30.913   3.698
94894W        W54155   7.285  11.294   3.317
94895W        W54156  11.650   2.248   1.903
94896W        W54157  39.407  22.648   0.406
94897W        W54158  35.376   8.274   1.407
94898W        W54159  40.843   5.225   2.724
94899W        W54160  16.218  12.293  11.046
94900W        W54161  43.958  30.925  13.310
94901W        W54162  22.106  16.672  11.000
94902W        W54163  39.876   5.215   2.678
94903W        W54164  42.430  17.222  11.030
94904W        W54165   3.780  21.548  13.311
94905W        W54166   0.269   9.368  13.471
94906W        W54167  24.536  27.155  12.437
94907W        W54168   9.367  23.629   3.227
94908W        W54169  41.362  21.548  12.885
94909W        W54170  42.845  18.152   0.469
94910W        W54171  41.025  39.357   3.384
94911W        W54172   9.693  38.387   2.789
94912W        W54173  43.320   4.401   0.462
94913W        W54174  24.995  29.659  11.118
94914W        W54175   4.436  20.122  11.868
94915W        W54176  20.578  37.378  13.894
94916W        W54177  17.063  41.952   2.779
94917W        W54178  35.367   2.807  13.393
94918W        W54179  10.207  34.433  13.975
94919W        W54180  21.631   7.898  13.309
94920W        W54181  38.059  10.313   0.273
94921W        W54182  22.147  38.502   4.285
94922W        W54183  41.323  19.685   3.322
94923W        W54184  28.502  31.479   1.291
94924W        W54185  29.960   4.734  11.989
94925W        W54186  33.595  33.563   2.888
94926W        W54187  26.587  41.867   4.287
94927W        W54188  34.481   7.768  14.962
94928W        W54189  41.397   3.709   4.610
94929W        W54190  17.172  27.108   3.202
94930W        W54191  37.436  34.100   1.390
94931W        W54192   7.872   9.726   2.703
94932W        W54193  35.855  41.008   4.642
94933W        W54194  39.952   8.340  14.315
94934W        W54195  26.662  23.036   1.252
94935W        W54196  38.342  14.302   4.246
94936W        W54197  35.553  28.090   1.847
94937W        W54198  14.756   8.298  13.989
94938W        W54199   3.814  19.543  14.435
94939W        W54200  23.707  26.043   2.297
94940W        W54201  11.723  33.028  12.954
94941W        W54202  40.355  38.075   4.202
94942W        W54203  16.618  27.687  11.449
94943W        W54204  33.040  38.890   1.450
94944W        W54205  42.915  44.991   3.665
94945W        W54206  22.619  14.619  11.996
94946W        W54207  22.108   0.919  10.416
94947W        W54208  13.220   0.929   1.851
94948W        W54209  34.940  21.102   3.653
94949W        W54210  35.573  35.912   5.309
94950W        W54211  37.861  33.588   3.189
94951W        W54212  22.056  24.179  13.046
94952W        W54213  13.241  21.140  12.844
94953W        W54214  30.054  28.670  10.919
94954W        W54215  43.386  15.261  12.429
94955W        W54216  18.068  23.504  12.961
94956W        W54217   0.362   0.935  12.908
94957W        W54218  35.030   5.705   1.903
94958W        W54219  37.518  41.829  14.399
94959W        W54220   1.732  30.655   3.650
94960W        W54221  10.641   1.327   3.217
94961W        W54222  32.488  40.935   1.864
94962W        W54223  15.685  22.710   0.802
94963W        W54224  10.697  26.685  12.436
94964W        W54225  36.350  39.499  12.024
94965W        W54226  38.065  26.489  10.966
94966W        W54227   5.244  41.804   4.178
94967W        W54228  10.366   7.859  13.892
94968W        W54229  14.230  29.578   3.633
94969W        W54230  18.127   4.319   3.776
94970W        W54231  20.118  33.975  10.976
94971W        W54232  13.838  37.049  10.409
94972W        W54233  38.520  20.690   1.211
94973W        W54234  15.822  21.734   9.517
94974W        W54235  23.144  37.982  12.869
94975W        W54236  37.840   2.446  12.918
94976W        W54237  40.867  39.910  10.911
94977W        W54238  35.084  24.490   3.359
94978W        W54239  24.512  30.079   3.656
94979W        W54240  28.491   7.374   2.309
94980W        W54241  36.369  44.771   0.739
94981W        W54242  10.666  15.593   3.633
94982W        W54243  23.605  15.803  12.524
94983W        W54244  38.517  12.141  11.563
94984W        W54245  30.575  15.088  14.804
94985W        W54246  19.195  37.375  13.044
94986W        W54247  29.134  32.397   0.837
94987W        W54248  34.993  25.632  11.529
94988W        W54249  25.200  17.750  13.793
94989W        W54250  10.852  32.455   0.916
94990W        W54251  16.584  11.172   3.678
94991W        W54252  13.314  20.141   4.794
94992W        W54253  40.438   0.890  14.932
94993W        W54254   6.902  24.640   4.700
94994W        W54255  40.539  18.105  11.554
94995W        W54256   6.738  16.749  13.900
94996W        W54257  17.710  36.360   4.729
94997W        W54258   3.312  43.895   3.647
94998W        W54259  18.292  18.545  13.866
94999W        W54260   3.239  16.106   3.304
95000W        W54261   7.754  17.137  14.995
95001W        W54262  32.439  18.552   3.799
95002W        W54263  33.522  19.776   4.799
95003W        W54264  39.456  43.856  13.452
95004W        W54265   8.803  13.611  11.377
95005W        W54266  32.535  21.705  13.523
95006W        W54267  31.519  21.243  12.841
95007W        W54268  36.524  12.837   9.923
95008W        W54269  26.114   4.725   4.281
95009W        W54270  23.131  15.216   0.848
95010W        W54271  17.736   8.271  12.536
95011W        W54272   0.767  18.604  14.332
95012W        W54273  17.718   3.866  12.897
95013W        W54274   9.259   5.237  13.377
95014W        W54275   0.883  30.655  10.045
95015W        W54276   6.353  18.760   3.655
95016W        W54277  14.639   3.769  13.311
95017W        W54278  11.734  41.302   0.448
95018W        W54279   2.786  22.057   3.869
95019W        W54280  18.666  15.611  10.106
95020W        W54281  43.384  24.153  14.995
95021W        W54282  29.089  17.746  10.643
95022W        W54283   0.806  39.862  13.480
95023W        W54284  30.989  39.889  12.057
95024W        W54285   4.785   1.350  10.525
95025W        W54286  27.582  41.392  13.419
95026W        W54287  27.457  29.475  14.280
95027W        W54288  22.142  17.663   4.240
95028W        W54289  43.912  41.947  12.931
95029W        W54290  25.688   5.907   3.865
95030W        W54291  17.769  26.191  11.034
95031W        W54292  43.834  16.750  11.603
95032W        W54293   7.676   4.842   2.224
95033W        W54294   1.421  43.804   0.270
95034W        W54295  21.052   2.895   0.368
95035W        W54296  20.047   3.710   3.193
95036W        W54297   7.889  33.127   0.890
95037W        W54298  42.506  37.901   4.257
95038W        W54299  21.075  35.961  11.470
95039W        W54300  17.708   2.885  14.438
95040W        W54301  42.283   5.207  12.087
95041W        W54302  20.685  18.691  10.941
95042W        W54303  24.989  42.320   4.778
95043W        W54304  35.066  19.674  11.870
95044W        W54305  19.219  44.445   3.279
95045W        W54306   9.264   2.939   9.517
95046W        W54307  13.214   3.785   0.730
95047W        W54308  35.519  15.702   2.831
95048W        W54309  20.624  33.918  10.495
95049W        W54310  44.777  19.045   0.785
95050W        W54311  22.712  18.782  12.541
95051W        W54312  43.354  35.544   4.265
95052W        W54313   8.874   8.835   1.443
95053W        W54314  17.238  23.079   3.718
95054W        W54315  39.813  37.387  10.484
95055W        W54316  17.584  32.520  13.910
95056W        W54317  15.808  23.238   0.255
95057W        W54318  22.735   8.304  14.777
95058W        W54319   8.316  24.174   0.771
95059W        W54320   2.773   9.175  11.596
95060W        W54321  37.582  18.192   0.730
95061W        W54322  27.007  19.244   1.304
95062W        W54323  28.972  43.328   2.286
95063W        W54324  15.301   4.817  11.919
95064W        W54325  11.809  43.395  11.441
95065W        W54326  32.591  36.093   5.240
95066W        W54327   6.865   5.727  10.932
95067W        W54328  44.003   0.266  13.876
95068W        W54329   2.937  42.299   1.243
95069W        W54330  24.995  20.205  13.973
95070W        W54331   2.898  35.476  12.971
95071W        W54332  19.559  15.261   0.367
95072W        W54333  38.331  23.565   3.211
95073W        W54334  44.914  42.027   1.834
95074W        W54335  10.348  17.073  11.971
95075W        W54336  38.067  24.666  14.471
95076W        W54337  17.568   7.303  12.055
95077W        W54338  11.183  20.728   2.705
95078W        W54339  29.931  13.636  12.956
95079W        W54340  10.683  30.470  10.629
95080W        W54341   8.316  16.237   3.316
95081W        W54342  25.198  31.106  12.966
95082W        W54343  20.636  42.964  13.405
95083W        W54344   7.885  19.609  13.472
95084W        W54345  22.156  42.796   0.942
95085W        W54346  36.875  40.809  13.809
95086W        W54347  23.714  12.796  14.928
95087W        W54348   1.370  26.981   0.460
95088W        W54349  36.862  10.748   3.844
95089W        W54350   9.279  14.596   3.648
95090W        W54351  31.462   6.740   0.290
95091W        W54352  22.147  31.643  13.501
95092W        W54353  29.064  31.144  13.863
95093W        W54354  24.057   4.431  12.889
95094W        W54355  34.473  43.879  12.459
95095W        W54356  21.072  14.324  10.048
95096W        W54357  31.498  30.547   1.929
95097W        W54358  18.671  23.584  14.817
95098W        W54359  14.321   5.391   2.256
95099W        W54360   8.346  26.071   3.688
95100W        W54361  16.083   3.758  12.860
95101W        W54362  21.241  33.624   4.742
95102W        W54363  20.743  16.743   0.858
95103W        W54364  18.229  28.004   2.750
95104W        W54365   3.945  11.219   0.269
95105W        W54366  26.173  13.309   4.628
95106W        W54367  28.495   8.344   2.395
95107W        W54368  30.487   3.363   5.136
95108W        W54369  40.411   8.812  13.907
95109W        W54370   3.895  14.130   4.289
95110W        W54371  15.302  10.769  13.426
95111W        W54372  33.969  40.901  14.003
95112W        W54373   3.916   6.761  11.877
95113W        W54374  26.999  12.312   2.202
95114W        W54375   3.757  24.974   0.962
95115W        W54376  20.716  32.461  11.434
95116W        W54377   0.976   2.867  14.961
95117W        W54378  21.171   3.443   1.284
95118W        W54379  19.187   4.354  14.924
95119W        W54380   0.780  28.960   3.698
95120W        W54381  42.420  19.582   3.273
95121W        W54382  27.058  31.083  13.895
95122W        W54383  34.913  17.714  12.507
95123W        W54384   4.941  26.992  10.486
95124W        W54385   4.822  42.986  13.465
95125W        W54386  41.497  31.591  12.551
95126W        W54387  12.678  36.071  11.964
95127W        W54388  30.585  32.996  10.408
95128W        W54389  20.752  16.267  12.996
95129W        W54390   4.899   9.200  12.536
95130W        W54391  28.538   8.251   0.898
95131W        W54392  10.271  37.513  13.037
95132W        W54393  43.477  25.099   3.253
95133W        W54394   0.248  36.510  11.938
95134W        W54395  21.736   3.454   3.795
95135W        W54396  25.599  24.066  14.777
95136W        W54397  38.458   1.735   1.440
95137W        W54398  29.626   4.323   0.813
95138W        W54399  41.341  27.590   1.332
95139W        W54400  43.824  31.914   4.308
95140W        W54401  41.952  39.889  13.409
95141W        W54402   7.768  24.047   2.379
95142W        W54403  41.509  10.221  13.832
95143W        W54404   0.382  30.007  11.557
95144W        W54405  43.844  21.208  14.458
95145W        W54406  28.451  14.155   0.362
95146W        W54407  10.226  37.854  11.481
95147W        W54408  10.871  23.670   4.230
95148W        W54409   3.907  21.184  10.408
95149W        W54410  31.109  15.313  11.950
95150W        W54411  21.129   5.420  11.532
95151W        W54412  22.685  12.138   1.225
95152W        W54413  19.245  20.124   1.228
95153W        W54414  21.758  30.512   4.709
95154W        W54415  38.007  23.596  14.789
95155W        W54416  18.201  36.926  11.860
95156W        W54417  19.657   8.752  14.495
95157W        W54418   2.267  23.520  12.843
95158W        W54419  33.091  26.685  12.032
95159W        W54420  32.501   9.243  13.522
95160W        W54421  10.365  14.709  11.429
95161W        W54422  34.393  43.358  11.402
95162W        W54423  22.554  32.140   2.879
95163W        W54424  24.669  26.962  11.960
95164W        W54425  38.416  30.088  14.448
95165W        W54426  23.024  17.188   3.260
95166W        W54427   0.834  19.662   1.386
95167W        W54428  23.667  30.425   4.200
95168W        W54429  25.962  37.489  11.024
95169W        W54430   0.288  36.977   3.250
95170W        W54431  37.899  24.520   2.214
95171W        W54432  15.799  41.852  14.449
95172W        W54433  28.460   2.853  13.412
95173W        W54434   0.974  21.045   4.125
95174W        W54435  12.331  26.564   0.384
95175W        W54436  18.578   1.898   4.677
95176W        W54437  11.287  34.609   0.859
95177W        W54438  18.282  43.359  13.849
95178W        W54439   6.418   5.349   4.657
95179W        W54440   0.287   7.314   4.737
95180W        W54441  21.206  27.175  13.428
95181W        W54442  44.970   5.402   1.403
95182W        W54443  28.009   9.221   0.954
95183W        W54444  32.064  20.580  12.438
95184W        W54445  21.584  29.426  14.911
95185W        W54446  30.636  10.167  12.371
95186W        W54447  34.066  10.157  14.913
95187W        W54448  36.001  33.015  10.920
95188W        W54449  25.086  23.112  11.036
95189W        W54450  42.287  30.064  11.381
95190W        W54451  38.372  23.116   3.701
95191W        W54452  36.853  42.335   0.294
95192W        W54453  29.458  42.942   1.275
95193W        W54454  32.498  36.487   2.387
95194W        W54455  35.398  14.818  13.011
95195W        W54456   9.881  23.650  10.562
95196W        W54457  24.549  40.480   1.259
95197W        W54458  12.723  44.265  11.586
95198W        W54459   4.417  38.070   1.744
95199W        W54460  31.466  37.473  10.974
95200W        W54461  42.515  31.483   3.728
95201W        W54462   7.741   2.258  12.960
95202W        W54463  11.250  34.444   3.328
95203W        W54464  40.435  21.586  12.491
95204W        W54465   0.917  30.014  14.833
95205W        W54466  17.136   9.767  12.884
95206W        W54467   5.843  12.627  14.968
95207W        W54468  45.000   0.906  13.314
95208W        W54469   4.283  42.363  14.305
95209W        W54470  41.343  29.462   3.370
95210W        W54471   0.839  26.546  12.076
95211W        W54472   2.449  37.866  12.982
95212W        W54473  37.838  39.350   2.347
95213W        W54474  26.466  26.203   0.364
95214W        W54475  26.626  15.680   4.169
95215W        W54476  14.216  42.433  12.392
95216W        W54477  44.899   7.180  12.950
95217W        W54478  43.469  42.436   3.653
95218W        W54479   5.797  24.187  10.644
95219W        W54480  27.648  33.475   0.366
95220W        W54481  38.823  44.297   0.254
95221W        W54482   7.364  40.428   2.236
95222W        W54483  35.475  13.846  14.000
95223W        W54484  27.597  31.939   0.937
95224W        W54485  23.226   3.838   2.808
95225W        W54486  22.690  31.996   1.755
95226W        W54487  12.749  35.403  10.975
95227W        W54488  40.501  12.213  11.428
95228W        W54489  21.534  38.498   0.955
95229W        W54490  36.975  10.302  10.438
95230W        W54491  13.633   2.923   1.358
95231W        W54492  28.995  23.190   3.757
95232W        W54493   7.832   6.723  11.561
95233W        W54494  29.932  26.475   1.404
95234W        W54495   2.928  40.918  12.960
95235W        W54496  24.676  43.900   1.373
95236W        W54497  30.500  17.770   0.332
95237W        W54498  36.581  18.243   5.301
95238W        W54499  16.255   6.906  10.992
95239W        W54500  42.011  32.893  13.819
95240W        W54501  42.811   7.171   4.247
95241W        W54502  30.044   0.787  11.877
95242W        W54503   7.761   4.328  13.321
95243W        W54504   4.929  42.808  14.299
95244W        W54505  41.347   8.258  13.857
95245W        W54506   0.984  18.676  12.890
95246W        W54507  38.415  16.165  14.434
95247W        W54508  14.809  39.991  12.435
95248W        W54509  38.909  38.871  14.836
95249W        W54510  25.144  13.151  14.301
95250W        W54511  38.068  26.991   2.752
95251W        W54512  39.440   8.664   2.702
95252W        W54513  32.074  38.474   1.265
95253W        W54514  43.840   6.858  11.978
95254W        W54515   1.908  24.691  13.805
95255W        W54516  15.170  23.720  10.467
95256W        W54517  20.061   3.723  14.957
95257W        W54518   4.870   0.464  12.461
95258W        W54519   4.350  40.426  13.808
95259W        W54520  37.420  35.412   2.280
95260W        W54521  12.683  25.023  12.861
95261W        W54522  41.531   2.769  12.445
95262W        W54523  17.288   6.898  12.097
95263W        W54524   3.720  34.905   1.850
95264W        W54525  24.609   3.359   5.305
95265W        W54526  15.171  19.134   4.178
95266W        W54527   6.268  11.838  12.868
95267W        W54528  16.171  42.496   3.308
95268W        W54529  37.876   6.400  10.520
95269W        W54530  21.727  40.528   1.856
95270W        W54531   3.812   3.776  12.888
95271W        W54532  13.699   4.257   3.145
95272W        W54533  41.521   0.789   4.176
95273W        W54534   2.418  19.267   0.454
95274W        W54535   6.739  19.218  13.795
95275W        W54536  30.580  23.215   3.838
95276W        W54537   6.767  42.517   3.153
95277W        W54538   4.388   6.356   1.768
95278W        W54539  41.912  42.325   3.775
95279W        W54540  44.264  17.622   2.393
95280W        W54541  32.964  16.811   0.773
95281W        W54542  23.054  13.842   4.601
95282W        W54543  39.476  29.154  11.032
95283W        W54544  40.877  19.161  13.399
95284W        W54545   4.924  41.857  14.818
95285W        W54546  24.674  36.962  11.048
95286W        W54547  19.590  20.673  13.035
95287W        W54548  34.435   0.399   1.763
95288W        W54549  24.651  22.016  14.858
95289W        W54550  13.286  29.628  10.420
95290W        W54551  39.896  39.512   3.324
95291W        W54552  18.165  25.504  12.476
95292W        W54553  36.493   0.478  13.838
95293W        W54554  34.998  11.310   2.887
95294W        W54555   2.463  32.121   0.291
95295W        W54556   4.731  15.129   4.334
95296W        W54557  12.680  44.986   1.395
95297W        W54558   9.301  39.001   0.903
95298W        W54559  34.545  17.758   3.729
95299W        W54560  41.361   5.277  11.456
95300W        W54561  10.690  40.351   4.816
95301W        W54562   7.899  18.284  13.316
95302W        W54563  30.059   0.944  14.898
95303W        W54564  15.730  30.477   2.849
95304W        W54565  25.529  23.070   3.328
95305W        W54566  14.213   3.785  14.984
95306W        W54567  25.216  11.199  11.461
95307W        W54568  17.630  24.062  10.479
95308W        W54569  24.209  40.544   4.155
95309W        W54570  13.821   7.222   0.325
95310W        W54571  36.894  25.200  14.411
95311W        W54572  42.860  38.564   3.729
95312W        W54573   4.414  18.613   3.846
95313W        W54574  20.089   1.939  13.900
95314W        W54575   9.184   0.372   0.891
95315W        W54576  22.059   5.771  11.101
95316W        W54577  23.226   6.226   3.322
95317W        W54578  38.957  44.940   0.812
95318W        W54579  11.790  15.226  13.974
95319W        W54580  31.984  29.663  11.378
95320W        W54581  10.383  26.588  12.445
95321W        W54582  16.744  27.478   5.578
95322W        W54583   3.755  33.625  12.512
95323W        W54584  41.352  41.840  12.463
95324W        W54585  41.932  26.553   3.382
95325W        W54586   0.947  15.109   0.412
95326W        W54587  16.572  38.826  14.470
95327W        W54588   9.824   1.297   1.725
95328W        W54589  43.784  24.538  11.523
95329W        W54590  31.025  43.336  13.392
95330W        W54591  34.057  43.939   5.320
95331W        W54592  31.086  36.867   2.339
95332W        W54593  27.615  27.186   4.215
95333W        W54594  10.718  13.714   0.380
95334W        W54595  33.090   5.287   1.778
95335W        W54596  42.832  19.779  11.866
95336W        W54597  38.374   9.243  12.012
95337W        W54598  36.996  26.192  14.922
95338W        W54599   7.198  15.653  12.083
95339W        W54600  25.561  30.507   1.220
95340W        W54601  32.584   4.254  12.870
95341W        W54602  31.105  36.567   5.312
95342W        W54603   3.410  19.589  13.409
95343W        W54604  32.444  24.621  10.634
95344W        W54605  30.422  44.450   3.237
95345W        W54606   2.472  43.413  13.457
95346W        W54607  24.651   3.901  13.849
95347W        W54608  30.954  23.150   2.207
95348W        W54609  11.317  28.576  13.990
95349W        W54610  14.222  43.407  12.426
95350W        W54611  24.503  20.119  11.502
95351W        W54612   8.343   4.831  11.495
95352W        W54613  10.283   4.749  11.607
95353W        W54614  29.128  11.142  14.437
95354W        W54615  36.410   7.689  14.809
95355W        W54616  26.987  14.320   3.867
95356W        W54617   3.933  21.651   1.832
95357W        W54618  41.398  36.980   1.718
95358W        W54619  43.516  41.398   1.890
95359W        W54620  41.384  13.827   1.721
95360W        W54621  21.120  19.637  10.618
95361W        W54622   4.801  27.634   0.342
95362W        W54623  44.307  10.174   0.726
95363W        W54624  19.079  27.453   4.225
95364W        W54625  33.969  34.882   1.736
95365W        W54626  37.486  22.166   4.326
95366W        W54627  35.515   1.803   1.229
95367W        W54628  42.990  40.868  11.382
95368W        W54629   9.188   5.735  13.845
95369W        W54630  13.647   1.299   4.303
95370W        W54631  17.162  17.570  14.779
95371W        W54632  33.580   6.706  14.316
95372W        W54633   1.835  12.786  12.987
95373W        W54634   4.855  26.647  12.957
95374W        W54635  33.903  20.752   2.883
95375W        W54636   7.406  21.661  12.459
95376W        W54637  16.291  21.024  14.359
95377W        W54638   3.340  15.298   4.253
95378W        W54639   7.718  23.197   4.150
95379W        W54640  10.773   7.186   3.355
95380W        W54641  19.180   2.322  11.036
95381W        W54642  43.836  43.821   2.307
95382W        W54643  14.192  36.387   1.400
95383W        W54644  20.139  34.441   1.314
95384W        W54645  30.504   0.810   3.272
95385W        W54646  36.494  40.521  12.877
95386W        W54647  21.110  42.887   3.171
95387W        W54648  40.426  41.434  10.565
95388W        W54649  19.045  28.669  11.495
95389W        W54650  24.144  26.576  10.939
95390W        W54651  21.526  23.994  13.033
95391W        W54652   1.924   6.410  12.400
95392W        W54653   6.835  23.546  11.976
95393W        W54654   6.424  12.816  11.971
95394W        W54655  40.048   2.808   1.260
95395W        W54656   2.935  41.436   4.263
95396W        W54657  27.458  18.133  13.031
95397W        W54658  27.974  43.507  10.552
95398W        W54659   1.253  36.952   1.775
95399W        W54660  28.931   5.223   3.366
95400W        W54661  44.949  15.171   3.284
95401W        W54662  27.597  23.506   3.710
95402W        W54663  20.221  20.757   1.367
95403W        W54664  11.254  28.041   3.828
95404W        W54665  44.932  37.395  11.490
95405W        W54666  16.643  35.422  13.318
95406W        W54667   0.267   9.230  11.021
95407W        W54668   4.929  32.107  14.872
95408W        W54669  44.778  23.592  14.291
95409W        W54670  15.664  21.653  10.546
95410W        W54671  44.272  24.224   2.278
95411W        W54672  43.975  30.460  12.477
95412W        W54673   7.329   0.358  12.071
95413W        W54674  44.924  29.630  11.118
95414W        W54675  36.473  36.503   1.772
95415W        W54676  18.587  26.114   4.260
95416W        W54677   4.941  20.559  11.434
95417W        W54678   7.286  42.796   3.291
95418W        W54679  12.766  16.155   2.396
95419W        W54680  12.116  10.736   0.859
95420W        W54681  37.911   7.781   1.233
95421W        W54682  20.729  32.444  11.908
95422W        W54683  15.126   9.210  14.443
95423W        W54684   0.301  39.043   0.454
95424W        W54685  23.143  19.245   1.222
95425W        W54686  11.660  15.805   1.925
95426W        W54687  33.483  16.273  13.971
95427W        W54688  39.065   6.300   3.798
95428W        W54689  20.757  30.029  10.525
95429W        W54690  20.665  27.008  12.929
95430W        W54691  44.916  19.555  13.813
95431W        W54692  27.011   0.333  13.478
95432W        W54693   4.851  44.926  11.525
95433W        W54694   3.895  36.024   4.343
95434W        W54695  32.570  30.981   1.893
95435W        W54696  36.096   1.771   2.802
95436W        W54697  12.330   7.414  11.441
95437W        W54698   4.373  10.256  13.428
95438W        W54699  35.384  35.920  11.861
95439W        W54700  13.835  37.338  10.473
95440W        W54701  29.591  28.460  11.070
95441W        W54702  30.094  10.197  13.907
95442W        W54703  37.068  10.844  14.822
95443W        W54704   8.250   1.813  14.921
95444W        W54705  37.978  44.347   0.359
95445W        W54706  29.997  26.170   1.385
95446W        W54707  16.291  15.807  11.376
95447W        W54708   1.973   5.861   2.299
95448W        W54709  30.450  30.618   4.314
95449W        W54710  43.926  24.638   4.749
95450W        W54711  13.291  34.980   5.200
95451W        W54712  34.508  38.522   1.215
95452W        W54713  41.017  36.991   0.958
95453W        W54714   3.280   7.800  14.964
95454W        W54715  22.142  17.573  11.543
95455W        W54716  10.222  42.846   2.386
95456W        W54717  37.882  39.948   4.332
95457W        W54718  21.729   1.971  11.386
95458W        W54719  16.686  10.650  12.559
95459W        W54720  33.441  25.976   4.238
95460W        W54721  35.866   8.770   0.445
95461W        W54722   0.398  11.785  12.492
95462W        W54723  18.600  35.963   3.682
95463W        W54724  22.588  11.320   2.300
95464W        W54725  38.004  15.221  12.497
95465W        W54726  16.118   9.804   0.282
95466W        W54727  41.036  22.038  14.795
95467W        W54728  43.951   7.692   2.342
95468W        W54729   2.230  29.050  14.400
95469W        W54730  28.529  15.316   2.239
95470W        W54731  33.557  20.259  14.891
95471W        W54732  44.263   9.798  10.533
95472W        W54733   6.724   6.399   4.158
95473W        W54734   9.351   9.676  12.515
95474W        W54735  11.738  38.510  14.876
95475W        W54736  12.813  29.433   0.319
95476W        W54737  10.775  19.243   3.870
95477W        W54738  32.960   9.346   3.713
95478W        W54739  42.939  27.964  14.914
95479W        W54740  36.908  33.998  12.491
95480W        W54741  19.197  42.338  10.569
95481W        W54742  25.615  15.759   2.257
95482W        W54743  41.351  38.004   1.246
95483W        W54744  35.984  24.014  14.352
95484W        W54745  23.086  28.655  14.760
95485W        W54746  10.690  44.308  11.468
95486W        W54747  36.093   9.800   3.237
95487W        W54748  40.454   9.269   2.185
95488W        W54749   3.905  16.695  12.865
95489W        W54750   0.313  37.957  13.400
95490W        W54751  18.634  34.078   4.597
95491W        W54752  22.252  39.325  14.785
95492W        W54753   6.921  33.045   2.287
95493W        W54754  23.097  20.740  14.766
95494W        W54755   3.836  20.626  13.807
95495W        W54756  44.415  31.447  11.982
95496W        W54757   5.384  15.666  10.047
95497W        W54758  38.974  14.656  11.905
95498W        W54759  27.011  11.178  12.373
95499W        W54760  37.850  19.611  13.334
95500W        W54761   8.266  28.025  14.926
95501W        W54762   1.420   3.296   1.880
95502W        W54763   5.225  13.678   0.430
95503W        W54764  10.322  31.075   2.239
95504W        W54765  11.712  35.052   0.312
95505W        W54766  28.444  13.134   2.278
95506W        W54767   2.770  14.688   2.740
95507W        W54768  40.362  29.149  13.311
95508W        W54769  39.416   6.904  11.981
95509W        W54770   3.930  20.735  12.339
95510W        W54771  14.152   4.320   5.709
95511W        W54772  16.124  44.919   2.257
95512W        W54773   1.321  37.412   4.679
95513W        W54774  18.269  11.832   2.688
95514W        W54775  17.802  42.474   1.851
95515W        W54776  12.230  15.169   5.767
95516W        W54777  30.541  39.518   4.690
95517W        W54778  17.707   8.864   2.747
95518W        W54779  10.824   2.235  13.497
95519W        W54780  26.075  15.175  11.417
95520W        W54781  43.444   0.494  13.316
95521W        W54782  32.904  18.072  11.529
95522W        W54783  42.351  38.070  12.967
95523W        W54784   3.366   8.866  13.887
95524W        W54785  21.241  44.931   3.657
95525W        W54786   9.161   9.808   3.152
95526W        W54787   5.895  23.599   4.732
95527W        W54788  28.493  40.316  14.331
95528W        W54789  41.384  38.443   3.156
95529W        W54790  15.171  32.430  13.450
95530W        W54791  20.087  32.446   4.623
95531W        W54792  44.370  24.639  14.372
95532W        W54793  24.148  20.568  10.491
95533W        W54794  38.913  34.075  10.950
95534W        W54795  11.156  21.737   2.341
95535W        W54796  36.363  33.909   0.859
95536W        W54797   3.437  21.190  12.565
95537W        W54798  35.568  34.006   0.473
95538W        W54799  44.781  25.575  13.949
95539W        W54800  41.021  43.373   4.353
95540W        W54801  40.502  40.050  10.954
95541W        W54802   6.202  18.748  11.572
95542W        W54803  15.172  13.236  12.037
95543W        W54804  32.549  20.551   0.457
95544W        W54805   8.727  10.170  12.066
95545W        W54806  34.417   0.824   2.818
95546W        W54807  38.849   9.789  12.037
95547W        W54808  12.676   6.745   3.325
95548W        W54809  42.963   2.296   3.322
95549W        W54810  23.999   5.782  12.930
95550W        W54811   6.839  12.611  14.335
95551W        W54812  40.508  33.922   5.140
95552W        W54813  33.007  24.582  10.637
95553W        W54814   4.204  13.758   1.258
95554W        W54815  20.709  28.125   3.688
95555W        W54816   1.787   1.962  13.353
95556W        W54817  37.038  12.791  11.560
95557W        W54818  15.217  12.636  11.612
95558W        W54819  19.766   4.890  11.067
95559W        W54820  10.649   7.343  14.028
95560W        W54821  31.510  43.921   2.823
95561W        W54822  17.229  10.752  14.786
95562W        W54823   7.310  39.845   4.239
95563W        W54824  38.007  15.596  11.960
95564W        W54825   4.232  15.716   2.258
95565W        W54826   4.391  20.043   0.423
95566W        W54827  29.582  39.021  14.362
95567W        W54828   8.846  18.629   4.149
95568W        W54829  32.483  31.906   1.236
95569W        W54830   3.749  12.221  14.955
95570W        W54831  34.079  42.890  12.892
95571W        W54832  33.481  26.126  11.502
95572W        W54833  36.093  44.458  11.096
95573W        W54834  27.186  40.995   1.698
95574W        W54835  11.312  35.965   1.880
95575W        W54836  41.293   4.916  11.915
95576W        W54837  19.151  31.497   0.801
95577W        W54838  35.561  11.153  11.580
95578W        W54839  39.433  24.572  13.798
95579W        W54840   3.955  15.167   2.713
95580W        W54841  33.525  29.102  12.850
95581W        W54842  22.605   4.223  14.937
95582W        W54843  13.624  15.287  13.876
95583W        W54844  12.822  24.227   4.272
95584W        W54845  37.444  43.474   9.673
95585W        W54846  27.951  23.223  11.421
95586W        W54847  40.336   9.795   1.909
95587W        W54848  41.487  23.016   4.154
95588W        W54849  10.868  28.059   3.790
95589W        W54850  32.425  26.033   0.421
95590W        W54851  17.771   2.781   0.265
95591W        W54852  19.131  21.129   3.291
95592W        W54853  36.486  25.200  10.989
95593W        W54854  16.796  44.419   2.278
95594W        W54855  27.014  12.172  10.913
95595W        W54856  23.521  27.962   1.744
95596W        W54857  27.540  44.259   3.784
95597W        W54858  33.594  34.930   3.802
95598W        W54859  33.122  43.468  14.400
95599W        W54860  17.292   0.309   1.702
95600W        W54861  22.544   2.780   1.896
95601W        W54862   1.963  29.072   4.769
95602W        W54863   8.812  25.963   2.697
95603W        W54864   4.230  19.770   2.411
95604W        W54865   1.908  18.783  11.891
95605W        W54866  16.154  26.001  12.864
95606W        W54867  22.719   5.848   3.810
95607W        W54868  22.214   5.392   2.270
95608W        W54869  31.525  38.327   2.229
95609W        W54870   7.198  26.960  10.404
95610W        W54871  27.550  22.552  12.455
95611W        W54872  12.298  39.004   3.657
95612W        W54873  11.357  40.901   1.447
95613W        W54874  20.714  35.563   4.807
95614W        W54875  37.968  19.079   2.778
95615W        W54876   5.354  37.355  11.476
95616W        W54877  23.582  37.388   4.208
95617W        W54878   1.803  40.017  11.962
95618W        W54879  35.972  31.932  10.933
95619W        W54880  41.299  42.800  13.968
95620W        W54881  12.765  21.021  13.365
95621W        W54882  33.122  36.496  13.439
95622W        W54883  39.997  43.019   5.250
95623W        W54884  38.367  41.419   3.237
95624W        W54885  13.221  32.522   3.277
95625W        W54886  15.310  28.565  13.379
95626W        W54887  35.042  35.975  14.345
95627W        W54888   8.821  26.703   3.742
95628W        W54889  16.168  24.055  12.905
95629W        W54890  29.029  37.041  13.970
95630W        W54891  32.912   9.176  13.034
95631W        W54892  11.733  32.028   2.901
95632W        W54893   2.388  31.042  11.380
95633W        W54894  31.417  35.020   1.315
95634W        W54895  26.609  16.788   2.306
95635W        W54896  19.222  16.760  14.957
95636W        W54897  27.103  39.414  14.962
95637W        W54898  17.605  24.215  13.889
95638W        W54899  42.799  21.177   0.330
95639W        W54900   2.365   7.911  11.539
95640W        W54901   5.341  27.973  11.957
95641W        W54902   0.857  32.015  11.877
95642W        W54903  42.997  12.611   4.652
95643W        W54904  21.722  23.504  13.399
95644W        W54905  36.975  13.117  12.562
95645W        W54906  22.212  44.352  10.475
95646W        W54907  14.152  26.035   0.945
95647W        W54908  13.218  17.696   3.810
95648W        W54909  18.547  38.908  12.495
95649W        W54910  44.334  14.762   4.764
95650W        W54911  27.031  11.249  11.507
95651W        W54912  10.699  24.156  12.946
95652W        W54913  31.505  36.095  14.308
95653W        W54914  13.325  27.961   4.675
95654W        W54915   0.429  36.559  14.391
95655W        W54916  27.627  10.219   2.863
95656W        W54917  22.670  42.330  12.472
95657W        W54918  24.516   3.258   0.281
95658W        W54919  30.635  32.413   1.361
95659W        W54920  27.624  15.272  13.881
95660W        W54921  39.978  24.089  12.578
95661W        W54922   1.950  30.536  10.509
95662W        W54923  24.689   6.403  11.537
95663W        W54924  24.697  20.748   2.871
95664W        W54925  20.700  18.271   1.425
95665W        W54926  15.651   3.285   1.707
95666W        W54927   6.855  43.439   2.753
95667W        W54928  37.548  23.152   3.168
95668W        W54929   9.291  44.863  12.053
95669W        W54930   9.223  34.992  11.602
95670W        W54931  26.681   5.709   0.879
95671W        W54932  42.884  33.463  14.286
95672W        W54933  37.449  25.564   0.248
95673W        W54934  36.984  44.478   3.332
95674W        W54935  27.153  29.540  13.993
95675W        W54936  40.332   8.667   1.211
95676W        W54937  12.655  37.947   2.267
95677W        W54938  42.880  26.971   4.821
95678W        W54939  10.639  24.546   2.846
95679W        W54940   5.344  19.670   1.870
95680W        W54941  32.590  40.369  11.013
95681W        W54942  24.010  13.334   1.400
95682W        W54943  36.868  30.057   4.598
95683W        W54944  30.939  40.478   1.846
95684W        W54945  23.630  11.637  13.043
95685W        W54946  14.295  18.221  14.818
95686W        W54947  42.496  35.882   0.741
95687W        W54948   4.324  42.374  10.495
95688W        W54949  43.977  38.571  12.831
95689W        W54950  27.020  22.640  13.049
95690W        W54951   6.701  14.250   0.964
95691W        W54952   5.230  18.685   4.192
95692W        W54953  32.064  21.606   1.393
95693W        W54954  42.787  33.994   3.322
95694W        W54955   6.821  34.987  12.510
95695W        W54956   8.309   1.417   0.313
95696W        W54957  11.167  34.431  12.086
95697W        W54958  14.273  19.141   3.162
95698W        W54959  43.409  37.921  10.913
95699W        W54960  13.244  17.598   1.248
95700W        W54961  19.150  12.671   4.118
95701W        W54962  27.573   4.725   4.835
95702W        W54963  39.873  37.517   3.639
95703W        W54964  44.353  43.449   3.693
95704W        W54965  17.582  31.027  12.052
95705W        W54966  37.084   9.816  12.520
95706W        W54967  40.339  15.218  10.458
95707W        W54968  33.000  39.456   3.368
95708W        W54969   5.912  35.547   3.691
95709W        W54970  38.449  16.733  13.387
95710W        W54971  35.980  28.012  14.832
95711W        W54972  10.245   8.348  14.324
95712W        W54973  21.584  44.930   4.804
95713W        W54974  10.649  34.910  14.929
95714W        W54975  16.074  28.026  14.963
95715W        W54976  26.587  38.028  10.442
95716W        W54977  31.021  43.770   2.891
95717W        W54978  29.529  37.537  11.565
95718W        W54979  16.139   0.303   1.282
95719W        W54980  37.341  28.671   4.270
95720W        W54981   9.315  27.184  14.333
95721W        W54982  43.814  38.819  10.630
95722W        W54983  23.037   2.935   0.456
95723W        W54984  31.965   8.779   4.157
95724W        W54985   7.371  25.566   3.185
95725W        W54986  42.367  25.542   4.219
95726W        W54987  42.364  17.263   2.886
95727W        W54988   7.378  15.625   4.758
95728W        W54989  42.486  32.905   0.761
95729W        W54990  35.414  18.154  10.945
95730W        W54991   4.439  34.045   3.736
95731W        W54992  32.518   6.875  13.400
95732W        W54993  15.217  30.592   3.386
95733W        W54994  42.415  19.574   1.879
95734W        W54995  38.427  35.945   1.714
95735W        W54996   2.939   9.191  10.598
95736W        W54997   6.910   5.897   4.170
95737W        W54998  27.520  37.907   2.256
95738W        W54999  14.114   5.322   1.796
95739W        W55000  11.753  17.759  14.869
95740W        W55001  42.378  39.876  11.861
95741W        W55002  30.067  33.471  14.487
95742W        W55003   1.786  37.885  12.465
95743W        W55004  35.479   6.202   4.742
95744W        W55005   6.387  20.743  10.474
95745W        W55006  38.930  37.413   4.277
95746W        W55007  15.715  38.874  10.962
95747W        W55008   8.713   1.375   4.149
95748W        W55009  14.649  30.145  10.949
95749W        W55010  18.200  29.988   4.782
95750W        W55011   5.403   6.354   0.417
95751W        W55012  24.619  44.765  14.455
95752W        W55013   2.784  11.735   4.799
95753W        W55014  36.037  25.471  11.501
95754W        W55015  15.197  28.938   4.131
95755W        W55016  32.018  23.155  12.988
95756W        W55017  35.852  43.823  14.785
95757W        W55018  44.446  13.339  12.502
95758W        W55019   9.214  33.908   0.933
95759W        W55020  23.006  24.161  11.033
95760W        W55021  44.910  12.223   3.358
95761W        W55022  18.170  24.140   4.724
95762W        W55023  31.453  44.904   5.171
95763W        W55024  20.623  12.249   3.228
95764W        W55025  35.588   1.374  14.850
95765W        W55026  42.775  44.975   3.215
95766W        W55027  33.616  30.038   3.859
95767W        W55028  19.268  37.086   0.264
95768W        W55029  24.194  33.465   4.248
95769W        W55030  35.567  34.414   4.190
95770W        W55031  40.867   2.863   4.354
95771W        W55032  33.920  26.196  12.538
95772W        W55033  33.468  41.392   1.768
95773W        W55034  20.220  33.445  10.116
95774W        W55035  20.570  42.793  10.614
95775W        W55036  22.503   8.184   0.283
95776W        W55037  34.536  23.567   3.174
95777W        W55038  38.450  36.082   3.386
95778W        W55039  24.212  34.043  10.601
95779W        W55040  30.114  14.646  10.541
95780W        W55041  30.446  31.630   3.292
95781W        W55042  13.239  28.010   0.832
95782W        W55043   6.251  14.129  14.380
95783W        W55044   8.727  26.654   4.247
95784W        W55045  36.082  42.467  12.382
95785W        W55046  41.440  13.678  10.990
95786W        W55047  15.786   5.200  14.914
95787W        W55048  12.169  10.725   4.239
95788W        W55049  15.790  44.960  12.998
95789W        W55050  44.773  37.059  14.854
95790W        W55051  10.306  37.075   3.158
95791W        W55052  13.618  10.172   3.206
95792W        W55053  10.206   3.335   5.179
95793W        W55054  32.608   9.336   3.302
95794W        W55055  41.003  15.279  12.385
95795W        W55056  30.994  19.639   0.368
95796W        W55057  19.074  39.905   4.777
95797W        W55058   6.731  35.893  11.926
95798W        W55059  19.221  41.348   3.375
95799W        W55060  17.067  25.981   3.170
95800W        W55061  35.987   6.350   0.868
95801W        W55062   1.821  10.846  13.814
95802W        W55063  39.964  30.014   4.305
95803W        W55064   9.307  35.493   0.368
95804W        W55065  22.662  35.055  12.415
95805W        W55066  21.587  31.983  14.987
95806W        W55067   9.869   2.887  14.783
95807W        W55068  28.668   4.896  11.073
95808W        W55069  25.685   3.332  11.447
95809W        W55070  30.480  44.488  12.078
95810W        W55071  21.170  28.647   2.663
95811W        W55072   3.816  21.538   0.346
95812W        W55073  27.683  25.614  13.896
95813W        W55074  19.745   2.785   2.746
95814W        W55075  40.315  34.011   0.727
95815W        W55076   7.413   2.438  11.599
95816W        W55077  10.376  40.318   2.179
95817W        W55078  21.057  26.635  14.960
95818W        W55079  32.096  29.106   0.747
95819W        W55080   7.407   6.406   1.854
95820W        W55081   0.833   2.863  12.998
95821W        W55082  16.750  44.484   4.642
95822W        W55083  28.449  26.521  10.553
95823W        W55084  22.569  21.057  12.900
95824W        W55085  27.065  38.999   0.902
95825W        W55086  31.470  32.932  13.820
95826W        W55087  32.608  34.397   2.283
95827W        W55088  35.088  18.054  10.134
95828W        W55089  44.362  34.607  11.941
95829W        W55090   3.334   4.770   1.370
95830W        W55091   5.890  21.231  13.934
95831W        W55092   7.798  26.964   0.434
95832W        W55093  12.755  36.531  12.491
95833W        W55094   9.819  34.944   3.291
95834W        W55095  42.360   5.238  13.531
95835W        W55096   0.909  42.809   0.866
95836W        W55097  20.149  12.344   2.897
95837W        W55098   6.294  22.155   1.365
95838W        W55099  16.117  15.205   3.795
95839W        W55100  20.709  28.589   4.713
95840W        W55101  25.073  37.477   0.259
95841W        W55102  32.062  44.989  11.508
95842W        W55103  35.562  22.575  11.485
95843W        W55104  42.290  32.127   4.695
95844W        W55105  11.135  43.926  13.432
95845W        W55106   0.373  12.261   0.837
95846W        W55107  25.971   4.274   2.349
95847W        W55108   4.408  19.602  10.515
95848W        W55109   6.330   8.681  12.977
95849W        W55110   8.782  29.558  12.981
95850W        W55111  18.772  25.048   2.780
95851W        W55112  40.799  22.152  14.503
95852W        W55113  25.513  29.566   0.270
95853W        W55114  26.615   7.718   5.284
95854W        W55115  29.592  25.016  12.883
95855W        W55116  42.285   4.885   3.242
95856W        W55117  15.205  33.035  13.870
95857W        W55118  32.898  27.460   2.697
95858W        W55119  31.014   0.930   3.798
95859W        W55120  29.134  13.351   1.753
95860W        W55121  13.631  30.161   2.200
95861W        W55122   0.859   0.255   2.842
95862W        W55123   5.774  21.697   4.755
95863W        W55124  29.977  38.522   4.834
95864W        W55125  41.366  15.243  14.758
95865W        W55126   7.355  40.354   4.801
95866W        W55127  17.233  41.368  13.473
95867W        W55128  36.025  12.222   0.964
95868W        W55129  20.626   8.882   4.739
95869W        W55130   1.910  23.148  13.540
95870W        W55131  41.332   1.364   3.712
95871W        W55132  44.274  13.236   2.723
95872W        W55133   8.275  41.389   1.295
95873W        W55134  28.086  20.049   0.427
95874W        W55135   3.799   4.246  14.975
95875W        W55136   4.931  10.309  14.392
95876W        W55137   0.407  10.803  11.916
95877W        W55138   1.384   3.825   3.341
95878W        W55139  19.159   1.263   1.434
95879W        W55140   9.382  39.955  13.482
95880W        W55141  43.977  20.750   0.277
95881W        W55142  32.131  19.158  12.954
95882W        W55143  42.000  34.380  12.946
95883W        W55144  12.315  27.588   3.709
95884W        W55145   3.290  22.565   3.661
95885W        W55146  32.975  43.857  14.787
95886W        W55147  20.531  42.000  14.873
95887W        W55148  17.696  35.472   1.900
95888W        W55149  27.039   5.273   4.693
95889W        W55150   8.344  28.604  14.482
95890W        W55151   5.355  10.834   4.236
95891W        W55152  41.003  17.739  12.839
95892W        W55153   2.744  26.183   2.282
95893W        W55154  20.248  18.556  14.348
95894W        W55155  29.607  18.214  10.141
95895W        W55156  19.711  36.411  12.948
95896W        W55157  36.575   3.276   2.328
95897W        W55158  26.460   6.772  14.426
95898W        W55159  11.274  42.282  13.441
95899W        W55160  38.429  13.324  14.786
95900W        W55161   3.934  40.537  13.432
95901W        W55162  36.582  22.132  13.030
95902W        W55163  42.355   5.877   1.894
95903W        W55164  11.625  15.218  12.450
95904W        W55165  25.639   6.228   3.713
95905W        W55166  19.276  41.510  14.356
95906W        W55167  44.503  31.634  14.821
95907W        W55168  23.997  10.314   0.276
95908W        W55169  25.522  18.136  10.899
95909W        W55170   7.676  26.501  11.447
95910W        W55171   7.265  40.941   4.824
95911W        W55172  15.591  12.200  12.858
95912W        W55173  28.482  17.232   1.775
95913W        W55174  10.271  25.182   0.814
95914W        W55175  13.630  25.590  10.551
95915W        W55176  36.382  36.853   2.280
95916W        W55177  30.945  33.882  11.567
95917W        W55178  31.470  11.684  12.825
95918W        W55179  38.038   7.359   3.361
95919W        W55180   0.327  27.605   2.864
95920W        W55181   4.328   4.941  10.964
95921W        W55182  10.736  33.003   0.474
95922W        W55183  24.114  31.104  10.601
95923W        W55184  18.682  34.453  11.921
95924W        W55185  23.588  39.975  14.877
95925W        W55186  42.416  26.592  13.837
95926W        W55187  43.882  43.973   0.305
95927W        W55188  17.144  13.115  13.458
95928W        W55189  42.776  33.504   1.338
95929W        W55190  13.833  11.634  12.847
95930W        W55191  12.121  11.678  10.947
95931W        W55192  10.194  33.532   5.277
95932W        W55193  37.569  23.654  10.590
95933W        W55194  27.685  24.575   1.404
95934W        W55195  20.206   6.897  10.633
95935W        W55196  20.724  12.248   2.709
95936W        W55197  22.725   4.800  12.933
95937W        W55198  42.897   3.315  10.029
95938W        W55199   0.828  14.747  11.398
95939W        W55200   7.710  23.656   0.830
95940W        W55201  11.299  24.590   1.741
95941W        W55202  19.599  11.645   1.426
95942W        W55203  21.688  38.544  13.942
95943W        W55204  36.891   6.904   1.343
95944W        W55205  27.079   0.444  14.390
95945W        W55206   0.286  28.521  11.860
95946W        W55207  32.416  14.651  12.824
95947W        W55208  13.286  12.696   3.267
95948W        W55209  18.252  41.989   3.290
95949W        W55210  38.013  35.906  11.903
95950W        W55211  16.759  11.838  14.801
95951W        W55212  25.502  12.777  12.554
95952W        W55213  37.385  21.727   3.645
95953W        W55214  44.790  43.365   2.387
95954W        W55215   4.807   9.844   2.253
95955W        W55216  29.962  10.313  14.475
95956W        W55217  44.425   5.405  11.409
95957W        W55218   2.234  12.796   3.660
95958W        W55219  44.418  16.689  10.498
95959W        W55220  44.269   6.289   0.768
95960W        W55221  10.851  22.083   0.296
95961W        W55222  29.499  30.605   3.747
95962W        W55223  32.018  35.379   0.965
95963W        W55224  20.111  42.450  13.484
95964W        W55225  13.278  44.277   5.232
95965W        W55226  18.594  39.560   2.870
95966W        W55227  21.221  18.102  14.786
95967W        W55228  43.781  24.669   4.150
95968W        W55229  22.678   6.305   0.290
95969W        W55230  24.592  27.962  14.903
95970W        W55231   4.362  36.858   1.372
95971W        W55232  34.026  13.261   1.754
95972W        W55233  41.933  35.884  13.464
95973W        W55234  29.585   7.241   0.921
95974W        W55235  42.303  26.144   3.223
95975W        W55236   5.743   7.247  12.424
95976W        W55237  42.379  23.103  12.007
95977W        W55238  19.188  35.567  14.367
95978W        W55239   6.855  33.540   4.806
95979W        W55240  13.174   1.286   0.857
95980W        W55241  14.790   6.231  12.543
95981W        W55242  33.949  34.901  12.044
95982W        W55243  24.013  42.505   4.284
95983W        W55244  12.158   7.389   9.957
95984W        W55245  19.750   4.706  14.935
95985W        W55246  20.268   4.846  13.794
95986W        W55247  32.026  42.315   3.717
95987W        W55248   2.394   6.183   2.738
95988W        W55249   0.492   3.712  10.961
95989W        W55250  37.918  14.812  13.056
95990W        W55251   8.210   4.233  10.457
95991W        W55252   2.886   6.820  14.007
95992W        W55253  31.994  20.549  13.797
95993W        W55254  33.028   7.694   4.207
95994W        W55255  27.506   1.771   1.433
95995W        W55256  29.057  17.208   2.297
95996W        W55257  22.237  32.976   4.137
95997W        W55258  33.944  35.033   4.343
95998W        W55259   2.383  22.249   3.281
95999W        W55260  11.627  36.356  10.468
96000W        W55261   4.278  19.159  14.493
96001W        W55262  23.104  12.270  10.485
96002W        W55263  26.996  41.444   4.219
96003W        W55264  11.831  16.120  11.095
96004W        W55265   2.453  32.091   0.812
96005W        W55266  41.449  27.066  11.102
96006W        W55267  31.601   2.350   0.329
96007W        W55268  10.635  30.981   0.827
96008W        W55269  29.952  22.070   0.386
96009W        W55270  13.713  27.077  12.865
96010W        W55271  36.001  12.637  12.525
96011W        W55272  26.516  44.863   1.314
96012W        W55273   7.807   0.390  10.894
96013W        W55274   0.296  29.553   3.785
96014W        W55275  12.615   7.189   0.404
96015W        W55276  42.007  28.438   1.447
96016W        W55277  42.940  31.053  13.063
96017W        W55278  12.215  27.569  12.552
96018W        W55279  30.601   0.840  13.410
96019W        W55280  23.543   0.829   1.813
96020W        W55281   2.866  25.099   3.720
96021W        W55282   4.753   1.956   0.737
96022W        W55283  18.561  29.145   0.802
96023W        W55284  24.017  11.849  10.889
96024W        W55285  30.128   1.412  11.401
96025W        W55286  44.465  13.213   5.163
96026W        W55287  21.248   4.935   2.376
96027W        W55288   0.946  22.715   0.814
96028W        W55289  19.701  33.528   2.329
96029W        W55290   4.268  11.680   5.297
96030W        W55291   2.381   2.237  11.995
96031W        W55292  37.483  15.584  13.447
96032W        W55293  21.658   8.709   1.396
96033W        W55294  37.057  25.985   3.763
96034W        W55295  35.493   1.899  12.038
96035W        W55296   4.848  34.921  10.482
96036W        W55297   9.265  32.629   0.482
96037W        W55298   4.249  20.734  10.436
96038W        W55299   3.784  40.549   3.302
96039W        W55300  19.605   1.394  11.472
96040W        W55301   1.943  25.068   4.195
96041W        W55302   4.724  19.753   3.155
96042W        W55303  13.317   9.649  11.105
96043W        W55304  35.503  20.241   3.349
96044W        W55305  16.701  23.228   4.260
96045W        W55306   3.323  41.979   2.242
96046W        W55307   7.362  15.641   0.787
96047W        W55308  35.896  21.141   4.706
96048W        W55309   4.789   9.380   0.362
96049W        W55310   0.431  13.326  14.829
96050W        W55311  23.170  35.890   3.181
96051W        W55312  30.476  38.446  14.296
96052W        W55313  26.700  18.091   1.236
96053W        W55314  18.753  12.338   3.789
96054W        W55315  28.156  36.588   0.387
96055W        W55316  11.240  21.197  13.033
96056W        W55317   4.755  26.572  12.424
96057W        W55318  33.444   3.733   4.608
96058W        W55319  36.517  34.610  14.955
96059W        W55320  32.971   4.802  13.451
96060W        W55321  32.474  20.135  14.884
96061W        W55322  43.462  11.767   4.601
96062W        W55323  15.285  32.027  14.972
96063W        W55324  32.577   9.251  14.322
96064W        W55325  12.170  40.032   4.703
96065W        W55326   1.798   9.346  12.894
96066W        W55327  44.467   4.743  13.872
96067W        W55328  15.214  31.896   1.328
96068W        W55329  37.961  15.761   0.807
96069W        W55330   5.354  32.461  14.880
96070W        W55331   7.762   2.902   1.879
96071W        W55332  27.026  19.043   3.674
96072W        W55333  19.252  21.523   3.215
96073W        W55334  32.450   7.198   4.786
96074W        W55335  15.213   3.950   1.264
96075W        W55336  42.009  30.648  12.471
96076W        W55337   9.677  22.666  10.416
96077W        W55338  41.485  27.636   2.664
96078W        W55339  38.541  10.727  14.840
96079W        W55340  25.076  30.949   0.945
96080W        W55341  28.663  30.165   1.804
96081W        W55342  14.651   9.671   1.300
96082W        W55343  36.056  34.928   2.799
96083W        W55344  15.637  10.164  12.014
96084W        W55345  11.294  20.674   0.761
96085W        W55346  24.205  35.881   4.793
96086W        W55347  24.493  22.223   0.299
96087W        W55348  11.751  15.125   2.283
96088W        W55349   6.802  44.010   1.773
96089W        W55350  18.150  22.695  11.961
96090W        W55351  28.524  34.064   0.752
96091W        W55352  14.284   9.302  11.982
96092W        W55353  14.319  26.675  12.034
96093W        W55354  35.493  26.138   1.782
96094W        W55355  32.503  28.053   4.227
96095W        W55356  27.136  38.468   3.729
96096W        W55357  26.169  34.506  13.888
96097W        W55358  38.927   8.285   0.283
96098W        W55359  30.530   2.341  13.963
96099W        W55360   5.895  14.117  13.466
96100W        W55361  44.821  18.271   3.286
96101W        W55362  30.624  27.174  13.495
96102W        W55363  35.399  32.132   3.385
96103W        W55364  32.497  30.028   2.709
96104W        W55365   3.398  34.963  14.786
96105W        W55366  18.260  33.507  14.969
96106W        W55367   3.401  42.944   5.111
96107W        W55368   5.714  38.362   2.296
96108W        W55369  36.362   8.659  11.083
96109W        W55370  33.050  20.558   1.347
96110W        W55371  20.258  12.644   0.884
96111W        W55372  40.017  11.366   0.444
96112W        W55373  35.943  15.815   1.785
96113W        W55374  39.808  26.070   2.809
96114W        W55375  31.928   3.436  13.521
96115W        W55376  12.796  17.754   2.731
96116W        W55377  33.517   9.717   4.793
96117W        W55378  29.589  41.805  10.888
96118W        W55379   8.703  15.098   0.739
96119W        W55380  21.034   3.840  12.403
96120W        W55381  31.075  43.961   3.638
96121W        W55382  43.430  19.580  11.551
96122W        W55383   8.181  11.785  13.862
96123W        W55384  25.631  29.622  13.806
96124W        W55385  44.972  33.512   2.193
96125W        W55386  11.689   4.794  14.438
96126W        W55387  11.726  41.976  14.365
96127W        W55388  33.534   6.390  10.636
96128W        W55389   5.296   6.884   5.661
96129W        W55390  22.525   3.300   2.837
96130W        W55391  35.509  17.250  12.901
96131W        W55392  20.218  38.057  11.466
96132W        W55393  37.935   8.747  10.904
96133W        W55394  33.120  16.161   0.935
96134W        W55395  24.502  18.268  13.022
96135W        W55396  27.566  40.911   1.765
96136W        W55397   3.240  19.161   3.816
96137W        W55398  34.454  11.641  11.902
96138W        W55399   1.288   8.359   2.785
96139W        W55400   1.423  18.077   0.459
96140W        W55401  36.382  13.618   1.727
96141W        W55402  31.021   0.439   0.280
96142W        W55403  18.276   5.821   4.125
96143W        W55404  17.703  15.087  12.845
96144W        W55405  35.974  13.233   0.730
96145W        W55406  38.069   2.426  12.430
96146W        W55407  43.494  31.152  13.364
96147W        W55408  28.639  35.581   3.786
96148W        W55409  29.619  39.491   1.694
96149W        W55410  25.087   3.742   3.801
96150W        W55411   8.238  35.460  12.443
96151W        W55412  41.873  25.477  14.002
96152W        W55413  44.319  39.507   3.236
96153W        W55414  32.437  16.100  13.934
96154W        W55415  19.249  11.284   1.353
96155W        W55416  26.988  12.258  13.868
96156W        W55417   5.744  41.911  12.546
96157W        W55418  42.383  17.786   0.788
96158W        W55419   8.169  42.025   1.733
96159W        W55420  30.524   8.782   1.290
96160W        W55421  39.052  13.607  12.445
96161W        W55422   5.816  42.336   4.124
96162W        W55423  38.841  21.144   1.445
96163W        W55424  27.038  29.473  14.998
96164W        W55425  11.825  11.751   5.596
96165W        W55426  34.963  27.614  13.939
96166W        W55427   0.482   0.340  10.577
96167W        W55428   8.791   3.717   4.267
96168W        W55429  38.892  32.978  12.388
96169W        W55430  37.882   3.941  14.841
96170W        W55431  39.884  36.451   4.249
96171W        W55432  40.527   5.903   3.185
96172W        W55433  33.027  13.835  14.840
96173W        W55434   1.444  43.007  13.439
96174W        W55435  43.840  12.124   0.765
96175W        W55436  12.346  43.383   2.758
96176W        W55437  11.144  17.177  14.906
96177W        W55438  38.542  20.703   4.703
96178W        W55439   1.303  43.870  11.557
96179W        W55440  23.185  33.095   4.222
96180W        W55441  13.205  32.068  13.381
96181W        W55442  17.103   5.400  13.992
96182W        W55443  44.393  29.162  14.934
96183W        W55444  26.465   0.913  13.512
96184W        W55445  30.041  39.024   1.432
96185W        W55446   5.377   7.805  11.007
96186W        W55447  36.913  25.201   1.385
96187W        W55448  13.599  34.917  14.018
96188W        W55449  42.407  18.692   1.337
96189W        W55450  14.097   8.814  12.066
96190W        W55451  38.074   6.879  12.442
96191W        W55452  43.283  40.011   3.170
96192W        W55453   9.704  32.900  12.397
96193W        W55454  36.403  21.643  11.038
96194W        W55455  44.945  30.981  14.847
96195W        W55456   0.771  39.971  14.399
96196W        W55457  10.192  14.693   1.437
96197W        W55458   4.846  27.568   9.975
96198W        W55459   8.728  11.631   0.333
96199W        W55460  17.741  44.821   1.319
96200W        W55461  44.485  44.865  11.127
96201W        W55462  21.589   4.354   0.856
96202W        W55463  30.057  15.244   9.942
96203W        W55464  43.360  33.996  11.930
96204W        W55465  31.606  24.133  11.943
96205W        W55466  19.261   9.860   2.894
96206W        W55467   4.347  16.164   3.649
96207W        W55468  19.245  40.431  12.000
96208W        W55469  41.864  22.691   0.757
96209W        W55470   1.247  17.089   3.169
96210W        W55471   2.748  34.384   3.649
96211W        W55472   7.245  32.104   2.348
96212W        W55473  31.648   9.657   9.967
96213W        W55474  20.094  18.620  12.021
96214W        W55475  20.213  25.110   3.258
96215W        W55476  20.254  33.625   4.343
96216W        W55477   2.904  14.599  11.375
96217W        W55478  30.069  32.008   1.706
96218W        W55479  44.269  19.266  13.838
96219W        W55480  13.315  17.696  14.450
96220W        W55481  18.602  18.666   0.288
96221W        W55482  30.503  21.699   3.310
96222W        W55483  42.884  32.041   4.150
96223W        W55484  43.284  28.072  10.921
96224W        W55485   2.362  19.653   0.914
96225W        W55486  44.792  25.996  12.464
96226W        W55487  23.544  24.151   1.253
96227W        W55488  24.492  44.866   3.662
96228W        W55489  38.934  38.343  11.099
96229W        W55490  24.024  42.447  11.875
96230W        W55491   2.925  32.011   0.761
96231W        W55492  41.806  18.624   5.224
96232W        W55493  35.473  18.559   0.870
96233W        W55494   5.263  18.142   2.871
96234W        W55495  28.602  41.352   0.463
96235W        W55496   0.988   5.696   0.963
96236W        W55497  27.158  24.491   9.487
96237W        W55498   1.301  31.644   1.390
96238W        W55499  19.635  35.576  10.917
96239W        W55500  12.345   0.875   1.392
96240W        W55501  16.705  24.975   3.756
96241W        W55502   3.334  28.047   4.144
96242W        W55503  38.516  36.953  11.026
96243W        W55504   0.828   3.841   3.811
96244W        W55505  37.484   6.330  14.393
96245W        W55506  28.450  30.907  13.462
96246W        W55507  22.683  14.750  13.349
96247W        W55508  34.921  19.072   0.774
96248W        W55509   1.329  42.437   4.663
96249W        W55510  43.992  36.490  14.865
96250W        W55511   0.952  17.102   1.846
96251W        W55512   7.733  21.053   2.834
96252W        W55513   5.419  41.791  10.896
96253W        W55514  14.827  27.091   1.328
96254W        W55515  23.093  32.594   3.840
96255W        W55516  40.012   2.857  14.481
96256W        W55517   5.400  17.241  10.606
96257W        W55518  35.922   8.248   4.203
96258W        W55519   7.358  26.968   1.727
96259W        W55520   0.282  23.522  11.461
96260W        W55521  17.297   8.824  10.909
96261W        W55522   6.404  17.195   9.938
96262W        W55523   8.314  24.192   4.147
96263W        W55524  43.412  44.302   3.355
96264W        W55525  14.120  42.026   4.708
96265W        W55526  13.228  41.366   3.853
96266W        W55527  35.492  43.383  10.937
96267W        W55528  37.881  18.738   0.805
96268W        W55529  40.312  30.631  14.313
96269W        W55530  41.837  13.255  12.951
96270W        W55531  27.644  14.649  11.862
96271W        W55532  28.030  18.227  10.578
96272W        W55533  36.536   4.879  14.418
96273W        W55534  27.176  43.487  13.010
96274W        W55535  16.296   1.253   0.811
96275W        W55536   3.908  25.652  13.504
96276W        W55537   9.849  19.743   1.731
96277W        W55538  13.812  29.998  13.542
96278W        W55539  35.452  11.348   2.834
96279W        W55540  42.423  36.000   3.772
96280W        W55541   4.798  38.002  12.505
96281W        W55542   0.304  39.373  11.873
96282W        W55543  20.030   6.810   3.793
96283W        W55544   7.889  42.300   1.298
96284W        W55545   8.780  38.360   1.761
96285W        W55546  16.687  14.756  10.579
96286W        W55547  29.928  12.794   3.239
96287W        W55548  25.695  17.249  14.891
96288W        W55549  21.601  42.332  12.356
96289W        W55550  39.014  25.028   4.692
96290W        W55551  22.521  18.092   1.334
96291W        W55552  28.042  31.147   1.929
96292W        W55553  27.484   4.754   1.871
96293W        W55554  27.164  34.567   3.697
96294W        W55555  38.559  13.747  13.051
96295W        W55556  33.459  30.497   4.144
96296W        W55557  29.021  26.056   1.242
96297W        W55558  24.603   9.797  12.414
96298W        W55559  25.147  15.682  11.109
96299W        W55560  14.732  21.082   3.763
96300W        W55561  10.661  15.814  13.886
96301W        W55562  34.030  33.594   0.930
96302W        W55563  17.591  33.488  14.852
96303W        W55564  43.432  14.116  12.343
96304W        W55565  31.519  28.123  12.516
96305W        W55566   7.279   4.836   3.690
96306W        W55567  11.344  23.162  12.517
96307W        W55568   5.841  10.371   2.256
96308W        W55569   0.976  16.743  12.470
96309W        W55570  13.794  26.551  10.503
96310W        W55571  21.689  19.126  12.047
96311W        W55572  28.650  12.195  13.791
96312W        W55573  20.569   5.316   3.333
96313W        W55574  19.136  21.238  12.969
96314W        W55575  32.529  27.173   3.685
96315W        W55576  35.439  44.502   2.700
96316W        W55577   2.253  28.657   4.643
96317W        W55578   9.394  15.715  13.420
96318W        W55579   6.205  32.544   3.634
96319W        W55580   9.380  39.365   1.264
96320W        W55581  20.135  17.565  11.611
96321W        W55582  18.190  32.010  10.628
96322W        W55583   6.354  18.183  13.546
96323W        W55584  15.267  30.066   3.195
96324W        W55585   4.922  31.443  14.445
96325W        W55586  22.204  40.961   3.704
96326W        W55587  34.039  31.419  13.424
96327W        W55588  37.928  11.229  12.345
96328W        W55589   3.839  37.559  11.575
96329W        W55590  30.080  14.246  12.878
96330W        W55591  27.010  12.685  13.975
96331W        W55592  37.380  10.805  12.912
96332W        W55593  26.984  39.958   4.806
96333W        W55594  32.918  22.673  13.802
96334W        W55595   1.385   1.376   3.179
96335W        W55596   6.358  26.534   1.757
96336W        W55597  16.681  32.486  12.544
96337W        W55598  36.068  16.269   3.330
96338W        W55599   7.378   5.195  11.072
96339W        W55600   9.724  44.002  13.031
96340W        W55601  41.972  28.049   2.342
96341W        W55602  33.938   0.464  12.963
96342W        W55603  38.568  31.044  10.513
96343W        W55604  28.442  21.662  12.429
96344W        W55605  19.183  34.400   4.246
96345W        W55606  30.594  11.154   0.266
96346W        W55607  18.115   7.398  11.049
96347W        W55608   6.703  28.677  14.950
96348W        W55609  17.242  41.497  10.088
96349W        W55610  24.542   7.345   3.698
96350W        W55611  28.673   1.463  13.029
96351W        W55612  37.943  11.158   3.207
96352W        W55613   3.254  22.108  14.882
96353W        W55614   0.368  42.359   4.739
96354W        W55615  27.527  29.665  14.894
96355W        W55616  40.373  25.677   3.335
96356W        W55617  41.399  32.128   3.163
96357W        W55618  36.844  18.608   4.783
96358W        W55619  28.946   3.849  11.124
96359W        W55620  10.319  38.957  14.478
96360W        W55621  38.824  34.003   0.784
96361W        W55622  42.881  35.488  11.582
96362W        W55623  14.713   5.334   0.360
96363W        W55624  43.429  37.977   3.210
96364W        W55625  32.611  44.325  11.925
96365W        W55626  36.489  13.681  11.954
96366W        W55627   7.378   0.305   1.830
96367W        W55628  44.985  20.602   1.245
96368W        W55629  39.527  29.993   0.437
96369W        W55630  25.056  12.155   3.232
96370W        W55631  37.954  22.682  11.060
96371W        W55632  24.185  34.962  13.815
96372W        W55633  38.510  13.680   2.219
96373W        W55634  37.075  38.986   1.907
96374W        W55635  39.881   0.430   2.798
96375W        W55636  43.847  23.666   3.863
96376W        W55637   9.361  11.234  14.471
96377W        W55638   8.808  12.281  10.115
96378W        W55639  17.745  28.589  11.984
96379W        W55640  15.172  19.710  12.087
96380W        W55641  21.519  16.626   0.327
96381W        W55642  37.485  30.974   2.348
96382W        W55643  24.536   6.681   4.228
96383W        W55644  31.031  24.618   1.293
96384W        W55645  18.076   5.368   2.820
96385W        W55646  39.317  18.672   3.181
96386W        W55647  20.707  17.228   2.680
96387W        W55648   6.349   4.384   3.158
96388W        W55649  33.596  25.038  10.592
96389W        W55650  19.143   0.806  14.814
96390W        W55651  44.811  38.944   0.382
96391W        W55652  12.792   7.735   0.804
96392W        W55653   2.889   7.792   5.157
96393W        W55654   0.344  16.204   3.383
96394W        W55655  31.631  32.942   1.230
96395W        W55656  27.063  30.500  13.354
96396W        W55657  24.714  36.417   0.912
96397W        W55658  39.440  38.419  11.516
96398W        W55659  36.500  12.130  11.504
96399W        W55660  27.020  22.225   1.238
96400W        W55661  21.029  23.720  11.488
96401W        W55662   9.181  16.316   0.785
96402W        W55663  15.099  26.590  13.058
96403W        W55664  42.997  32.577   2.713
96404W        W55665  33.984   1.865  13.348
96405W        W55666  11.150   4.874   2.713
96406W        W55667   4.212  24.038   4.619
96407W        W55668  43.014  20.642  14.925
96408W        W55669   8.791  15.713   5.168
96409W        W55670   4.215  16.760   4.308
96410W        W55671  10.723  18.639  13.522
96411W        W55672  11.188  41.885  12.054
96412W        W55673  11.212   1.913   1.749
96413W        W55674   5.835  35.529   1.288
96414W        W55675  18.239  19.672   2.672
96415W        W55676  44.437  35.022   1.765
96416W        W55677  30.144   3.821  13.001
96417W        W55678  41.838  43.980  11.010
96418W        W55679   1.360  33.102   3.198
96419W        W55680  34.432  12.704   4.334
96420W        W55681   5.209  11.174   0.755
96421W        W55682   5.274  28.516  14.887
96422W        W55683   7.749  18.111   0.873
96423W        W55684  37.061  14.721  12.518
96424W        W55685   1.956   5.423   4.274
96425W        W55686  10.706  17.105  14.281
96426W        W55687  22.076  10.259  14.505
96427W        W55688  27.564  27.006   1.869
96428W        W55689  33.603  11.822   0.262
96429W        W55690   5.322  15.156  14.869
96430W        W55691  28.640  26.527  14.012
96431W        W55692   1.815  31.948  14.930
96432W        W55693   0.449  25.029   3.693
96433W        W55694  12.788  33.478   1.781
96434W        W55695  39.540  25.609  12.865
96435W        W55696  27.656  23.008  14.872
96436W        W55697  15.666  24.482  14.853
96437W        W55698  43.411  13.262   2.243
96438W        W55699  39.811  26.037  11.391
96439W        W55700  14.779  20.660   1.866
96440W        W55701  37.919  24.534   0.855
96441W        W55702  26.653  26.560  13.379
96442W        W55703   1.859  42.801   2.734
96443W        W55704  13.257  33.492   2.749
96444W        W55705   2.953  13.163   1.315
96445W        W55706  17.209  15.612   1.255
96446W        W55707   8.741  38.837   3.839
96447W        W55708  40.802  33.004  14.843
96448W        W55709  16.294  17.189  11.426
96449W        W55710  23.103  19.152   3.265
96450W        W55711   2.459   5.699  11.081
96451W        W55712  28.626  39.460   0.350
96452W        W55713  18.156  33.899  11.908
96453W        W55714   7.226  29.065  13.051
96454W        W55715   6.414  43.301  14.771
96455W        W55716  28.106  35.028  13.473
96456W        W55717  28.559  32.026   1.847
96457W        W55718  31.004  36.502   2.411
96458W        W55719  23.607  11.222   0.848
96459W        W55720  14.298  37.915  11.957
96460W        W55721  31.486  42.394   2.402
96461W        W55722  42.005  42.819  10.904
96462W        W55723  37.413  19.198   3.374
96463W        W55724  31.903  14.801   4.147
96464W        W55725  30.003   3.419  14.002
96465W        W55726  24.535  22.120   4.744
96466W        W55727  44.417  15.127  11.026
96467W        W55728   6.695  11.197   1.263
96468W        W55729  18.596  31.620  11.912
96469W        W55730  24.712   0.985  12.459
96470W        W55731   7.905  28.117   1.838
96471W        W55732  37.042   0.804  13.007
96472W        W55733   7.889  18.264   5.090
96473W        W55734  42.782  21.728  14.800
96474W        W55735   7.830  26.119   3.235
96475W        W55736   2.781  20.691   2.284
96476W        W55737  29.113   1.781   3.834
96477W        W55738  32.507   8.263  13.974
96478W        W55739   9.686  34.935   2.322
96479W        W55740  40.374  39.023  14.776
96480W        W55741  44.811  36.531  13.394
96481W        W55742   0.836   2.242   3.255
96482W        W55743  23.701  31.153  12.073
96483W        W55744  17.655  19.192   1.820
96484W        W55745   1.418   9.709   4.628
96485W        W55746  22.089   4.266  14.895
96486W        W55747  19.177  30.548  14.487
96487W        W55748  44.918  24.080  10.461
96488W        W55749  33.623   5.854   2.398
96489W        W55750  30.088  22.038  12.430
96490W        W55751  28.516  37.934   0.292
96491W        W55752  33.072  11.271   1.437
96492W        W55753  15.663  32.402   1.358
96493W        W55754   2.408  41.833  11.565
96494W        W55755  27.082   3.284   0.949
96495W        W55756   6.313  17.072  14.369
96496W        W55757  30.446   5.689  13.792
96497W        W55758  15.127  38.326  14.485
96498W        W55759  32.601  11.132  14.799
96499W        W55760  20.583   0.439  14.966
96500W        W55761  16.703  44.911  11.875
96501W        W55762  10.326  21.624  14.425
96502W        W55763  43.378  21.262   3.244
96503W        W55764  16.230  43.977   0.388
96504W        W55765  15.669   8.740   4.650
96505W        W55766  18.726  11.289  11.001
96506W        W55767  20.686  33.608   4.339
96507W        W55768   7.238  12.793   0.316
96508W        W55769   6.916  18.646   2.712
96509W        W55770  36.991  24.196   2.378
96510W        W55771  37.002  24.497  12.462
96511W        W55772  36.054   5.735  14.498
96512W        W55773  10.836  39.519   0.856
96513W        W55774  39.436  19.135  14.940
96514W        W55775  24.135  38.500  12.995
96515W        W55776   6.316  26.599  10.900
96516W        W55777   2.816  29.135  13.983
96517W        W55778  44.791  28.995  14.784
96518W        W55779   1.398  33.415   2.855
96519W        W55780  19.245  40.047   3.264
96520W        W55781  22.224  23.000  14.479
96521W        W55782   4.366  15.300  12.531
96522W        W55783  17.231   7.321   1.897
96523W        W55784  34.875  18.721  12.087
96524W        W55785  14.196  22.621   1.355
96525W        W55786  28.637  10.827  12.434
96526W        W55787  35.088  22.601  14.938
96527W        W55788  41.934   1.927   1.397
96528W        W55789   2.849  20.115   3.792
96529W        W55790  25.171  17.648  12.351
96530W        W55791  15.099  13.747   3.218
96531W        W55792  39.001   3.920   1.869
96532W        W55793  35.450  12.201   0.735
96533W        W55794   5.400  15.776  11.502
96534W        W55795  15.227  42.826  11.071
96535W        W55796   8.243  41.004  14.858
96536W        W55797  25.088  30.579   2.802
96537W        W55798  43.305   5.360  11.428
96538W        W55799  27.469  19.042  13.934
96539W        W55800  36.393  36.535   1.357
96540W        W55801  28.944  17.203  12.371
96541W        W55802  13.719   2.835  13.425
96542W        W55803  15.237  39.919   3.339
96543W        W55804   6.893   8.323  12.503
96544W        W55805  32.498   3.349  12.984
96545W        W55806   5.735  40.989   2.804
96546W        W55807  24.526  30.555  14.421
96547W        W55808  33.429  27.052  14.443
96548W        W55809   7.802   7.245  12.474
96549W        W55810  35.975  26.572   4.277
96550W        W55811  30.573   8.227  14.802
96551W        W55812  18.245   7.690  14.844
96552W        W55813   3.384  27.070   3.864
96553W        W55814  35.460   4.318  13.352
96554W        W55815   5.744  26.171   0.384
96555W        W55816   7.665   7.309   2.772
96556W        W55817  36.557  14.621  13.462
96557W        W55818  28.948  41.494  14.343
96558W        W55819  32.582  12.264   1.281
96559W        W55820   9.370  28.043   1.352
96560W        W55821  14.691  36.002   4.720
96561W        W55822  14.135  40.003   3.831
96562W        W55823  24.616  29.498   5.116
96563W        W55824  26.523   0.459  12.406
96564W        W55825  35.045   1.788  10.633
96565W        W55826  10.866  12.268  11.570
96566W        W55827  11.266   6.679   4.236
96567W        W55828  43.838  24.043   4.241
96568W        W55829  16.582  37.963   3.667
96569W        W55830  43.930  25.510   4.295
96570W        W55831   4.733  14.099   0.247
96571W        W55832  40.374   1.342  11.413
96572W        W55833   0.793  14.631   1.745
96573W        W55834   7.856   3.954   2.293
96574W        W55835   7.693  17.252   1.704
96575W        W55836  39.955  38.398   9.668
96576W        W55837  30.532  21.095   2.319
96577W        W55838  36.462   4.786  12.023
96578W        W55839   7.868  21.253  14.950
96579W        W55840  39.904  37.991   3.185
96580W        W55841  26.588  30.444  12.547
96581W        W55842   7.699  28.503  14.788
96582W        W55843  15.824   3.764  14.480
96583W        W55844   9.283  37.994  13.798
96584W        W55845  23.490  25.203  13.961
96585W        W55846   2.883   9.222  12.068
96586W        W55847  40.444  19.269  10.558
96587W        W55848  22.115  11.669   2.813
96588W        W55849   0.875  27.994   4.819
96589W        W55850   5.728  20.158  12.083
96590W        W55851  13.214  29.577   0.339
96591W        W55852  15.776  42.330  11.879
96592W        W55853  19.222  19.713  12.354
96593W        W55854  22.092  37.472   3.319
96594W        W55855  27.997  26.989   1.752
96595W        W55856  33.993  29.624   1.426
96596W        W55857  42.409  29.423  11.464
96597W        W55858  38.951  30.990   2.704
96598W        W55859  28.542   9.793   1.386
96599W        W55860  33.571  41.453  12.839
96600W        W55861  39.355  10.658   4.733
96601W        W55862  29.086   5.734  12.483
96602W        W55863  23.134  10.653   2.321
96603W        W55864  23.218  31.097  12.829
96604W        W55865  44.321  28.588  12.497
96605W        W55866  42.288   5.420   3.299
96606W        W55867  27.963  31.941   0.319
96607W        W55868  13.241  40.994  12.972
96608W        W55869  22.124   3.361   2.704
96609W        W55870   4.206  27.533   2.374
96610W        W55871  31.620   7.845   4.321
96611W        W55872  20.251  44.832   3.823
96612W        W55873   8.301  26.565  12.473
96613W        W55874  25.088  41.457  10.117
96614W        W55875  21.719  26.015  14.504
96615W        W55876  39.880  42.991  13.359
96616W        W55877  22.617   8.846  12.035
96617W        W55878  11.629   4.854  13.909
96618W        W55879  39.393  25.218   1.845
96619W        W55880  11.861  14.664  12.969
96620W        W55881  44.850  13.349   0.422
96621W        W55882  39.875  31.066   0.854
96622W        W55883  16.309  39.051  13.402
96623W        W55884  21.728  15.669   2.854
96624W        W55885  33.122  14.192   3.752
96625W        W55886   7.172  25.474   2.228
96626W        W55887  25.583  43.337  10.627
96627W        W55888  44.871   2.374  14.450
96628W        W55889  13.683  13.205  13.331
96629W        W55890  19.686  23.518  10.479
96630W        W55891   0.809  26.119  11.056
96631W        W55892  12.324  42.870   1.786
96632W        W55893   6.200   0.972  12.832
96633W        W55894   4.383  18.554  14.817
96634W        W55895  36.929  38.038  11.423
96635W        W55896   1.927  25.483  12.841
96636W        W55897  40.018  28.528  14.427
96637W        W55898   0.477  12.825   1.235
96638W        W55899  33.029  26.123   4.634
96639W        W55900  42.345   4.397  13.812
96640W        W55901  22.648  18.759  12.091
96641W        W55902   0.892  20.698   0.821
96642W        W55903  28.436  24.062  14.867
96643W        W55904   6.774  33.105  11.904
96644W        W55905   9.877  36.491  13.850
96645W        W55906  38.448  25.665   0.922
96646W        W55907  22.153   2.938  11.104
96647W        W55908  27.962  43.950   0.423
96648W        W55909  43.946  37.454   0.301
96649W        W55910  24.031  37.423  12.825
96650W        W55911  15.779  29.033  14.444
96651W        W55912  37.480  33.875   0.361
96652W        W55913   0.953  19.281   3.820
96653W        W55914  38.993  17.067  10.427
96654W        W55915   4.276  14.198  11.428
96655W        W55916  33.088  19.569  10.512
96656W        W55917  39.017   4.411  11.041
96657W        W55918  36.547   8.339   3.279
96658W        W55919  42.885  35.587  13.311
96659W        W55920  33.923  15.158  11.577
96660W        W55921  16.072  22.505  11.569
96661W        W55922  39.471  42.899  12.381
96662W        W55923  21.603   6.260  10.987
96663W        W55924  14.821  25.974  10.912
96664W        W55925  11.739   2.777   1.416
96665W        W55926  10.329   6.325   2.355
96666W        W55927  35.054  34.600   1.286
96667W        W55928  17.702  14.786   3.725
96668W        W55929   4.435  11.312   2.219
96669W        W55930  23.140  27.175   3.333
96670W        W55931  16.662   5.917  10.557
96671W        W55932  15.717  44.780   1.233
96672W        W55933  23.217   1.750  14.360
96673W        W55934  37.914  33.392   0.289
96674W        W55935  26.636  20.073  11.869
96675W        W55936  37.999  38.566  11.403
96676W        W55937  17.772   0.840   3.245
96677W        W55938  29.514  37.887   5.229
96678W        W55939   0.485  13.628   1.384
96679W        W55940  20.209  34.566  10.450
96680W        W55941  31.152  25.974   3.349
96681W        W55942   5.720  16.088   3.183
96682W        W55943  17.567   4.284   0.905
96683W        W55944  34.464  29.990   4.607
96684W        W55945  39.847  31.042  12.342
96685W        W55946   5.879  30.961   1.240
96686W        W55947  19.282  29.147  11.376
96687W        W55948  26.678   8.683   3.180
96688W        W55949  33.567  17.577  14.345
96689W        W55950  40.922   0.318  12.911
96690W        W55951   1.898  38.365   2.891
96691W        W55952   0.472  16.765  14.779
96692W        W55953   2.425   4.224   3.722
96693W        W55954  15.781   4.324   3.227
96694W        W55955  12.322  28.183  13.444
96695W        W55956  21.065   9.767   1.737
96696W        W55957  15.140  25.597  14.759
96697W        W55958  36.446  18.269  11.562
96698W        W55959   3.417  14.663  10.517
96699W        W55960   9.394  21.031   0.270
96700W        W55961  39.058  32.128   0.847
96701W        W55962  17.301  29.480   5.173
96702W        W55963  33.015  28.981   0.384
96703W        W55964  10.271  28.458  12.509
96704W        W55965  25.663  24.166   4.172
96705W        W55966  32.087  20.185   1.769
96706W        W55967   7.346  23.599  14.936
96707W        W55968  31.505  34.002  14.846
96708W        W55969  11.673  29.557   0.894
96709W        W55970  18.789  27.165   3.270
96710W        W55971   8.267  37.855  11.943
96711W        W55972  28.595  29.091   1.774
96712W        W55973  40.510  16.719  14.367
96713W        W55974   4.406  26.985   0.304
96714W        W55975  32.453   6.806  13.019
96715W        W55976  11.346  19.093   0.808
96716W        W55977  33.625  29.626  10.544
96717W        W55978  34.502  15.170   2.703
96718W        W55979   2.327  37.064   3.805
96719W        W55980   9.875  23.680   1.278
96720W        W55981  17.173  29.595   1.831
96721W        W55982  41.493  11.712   2.346
96722W        W55983  17.254  18.788  10.977
96723W        W55984  32.041  43.967   0.924
96724W        W55985   1.297  12.236   3.151
96725W        W55986   2.428   8.333   5.642
96726W        W55987  14.670   5.213  11.395
96727W        W55988  31.947  25.699  12.433
96728W        W55989  41.022  21.248   2.319
96729W        W55990  12.845  39.980  13.058
96730W        W55991  33.044  17.093  10.493
96731W        W55992  12.273  28.033   3.751
96732W        W55993  26.111  37.437  12.457
96733W        W55994  34.421  37.024   0.786
96734W        W55995   2.450  36.396   4.262
96735W        W55996  24.548  23.116  13.997
96736W        W55997  43.976  17.178   1.378
96737W        W55998  43.419   9.813   0.453
96738W        W55999  24.014  24.606  13.023
96739W        W56000  20.252  32.004   4.218
96740W        W56001  31.575  20.743  14.023
96741W        W56002  13.232  37.427   3.384
96742W        W56003   1.414  16.274   0.907
96743W        W56004  35.404   5.742  14.489
96744W        W56005  29.500  37.081  14.491
96745W        W56006   3.458  19.243  14.392
96746W        W56007  18.079   9.848   3.307
96747W        W56008  34.542   8.379  14.472
96748W        W56009   7.736   5.301   1.915
96749W        W56010  38.514  28.637   2.328
96750W        W56011  10.378  13.692  14.352
96751W        W56012  42.924  42.027  13.896
96752W        W56013  10.856  14.264   1.360
96753W        W56014  43.884  33.497  10.421
96754W        W56015  18.109  34.900   1.705
96755W        W56016  44.406  15.195   3.750
96756W        W56017  25.663  37.484  10.447
96757W        W56018  12.273  17.217  14.437
96758W        W56019  37.521  11.634  10.540
96759W        W56020  14.616  34.936  11.946
96760W        W56021  23.612   6.806   3.342
96761W        W56022  38.531  42.854   2.862
96762W        W56023  10.854  44.855   2.676
96763W        W56024   1.786  24.032   4.791
96764W        W56025  43.495  18.087  10.560
96765W        W56026   7.173  32.942  13.379
96766W        W56027  30.620  44.303   5.211
96767W        W56028  38.402  29.568  13.927
96768W        W56029  14.742  25.611  10.544
96769W        W56030   0.796   7.370  11.606
96770W        W56031  21.513  38.034   1.439
96771W        W56032  15.219  12.222  14.824
96772W        W56033   4.238   3.921  13.879
96773W        W56034  15.653  17.204   0.914
96774W        W56035  29.580  19.279  11.903
96775W        W56036   3.389   2.883   0.958
96776W        W56037  28.633  30.565  14.803
96777W        W56038  32.065  18.667  11.502
96778W        W56039  38.003  13.135  13.519
96779W        W56040   0.308  27.564  13.490
96780W        W56041  19.574   8.213   0.835
96781W        W56042  26.097  13.159   0.458
96782W        W56043   5.721   8.808  10.931
96783W        W56044  23.118  18.651   2.902
96784W        W56045   3.805  15.681   2.761
96785W        W56046   7.791  30.014  11.875
96786W        W56047  36.467  42.487   4.759
96787W        W56048   6.239  40.413   1.859
96788W        W56049   0.382   5.858  13.029
96789W        W56050  13.698  30.423  12.482
96790W        W56051  13.326  32.481  12.907
96791W        W56052  35.573   8.245   4.338
96792W        W56053  12.162   9.755   4.220
96793W        W56054  38.565  13.686  13.814
96794W        W56055   4.231  29.080   4.810
96795W        W56056   3.334  10.276   4.239
96796W        W56057  36.586  37.953  12.976
96797W        W56058  35.084  12.140  14.800
96798W        W56059  19.673  33.893   0.446
96799W        W56060  28.945  43.478   3.704
96800W        W56061  29.656  20.076  11.023
96801W        W56062  29.104  35.955   2.276
96802W        W56063  33.549   5.215   4.127
96803W        W56064  28.031  17.126   0.770
96804W        W56065  27.662   3.740  10.923
96805W        W56066  44.814  43.285  14.373
96806W        W56067  19.701   5.222   2.833
96807W        W56068  35.864  35.370   4.789
96808W        W56069  12.808  44.349   3.249
96809W        W56070   3.434   7.841   0.798
96810W        W56071  37.342  13.845  14.372
96811W        W56072  38.534   2.948   0.294
96812W        W56073  43.923  39.985   2.691
96813W        W56074  31.562  18.565  10.926
96814W        W56075   0.797  33.099   2.369
96815W        W56076  26.028  34.599   0.340
96816W        W56077  18.743  33.128   0.773
96817W        W56078  40.867   9.260   3.801
96818W        W56079  26.568  15.093  11.934
96819W        W56080  27.991  36.531  11.528
96820W        W56081  34.973  31.144  11.581
96821W        W56082  21.168  37.963  11.477
96822W        W56083  29.995  21.222  14.425
96823W        W56084  23.172  44.939  12.348
96824W        W56085   5.888  35.971  11.054
96825W        W56086  38.059  19.673  14.031
96826W        W56087   9.159  16.100  12.082
96827W        W56088  11.845  43.822   4.707
96828W        W56089  26.610  36.866  11.123
96829W        W56090  22.010  34.894  12.356
96830W        W56091  20.076  13.337  14.850
96831W        W56092  17.254  25.633   1.358
96832W        W56093  29.977   1.451  12.496
96833W        W56094   0.436   3.823   3.753
96834W        W56095  15.290  42.462   0.245
96835W        W56096   2.399  33.984   1.734
96836W        W56097  38.900  32.464   2.765
96837W        W56098  34.377  43.372   2.181
96838W        W56099  14.339   5.691   0.736
96839W        W56100  35.452  19.269  10.494
96840W        W56101  39.436   0.978   4.182
96841W        W56102  17.697  39.864  14.932
96842W        W56103  31.588  10.695   5.281
96843W        W56104  37.548  40.851  10.611
96844W        W56105   3.444  22.111   0.941
96845W        W56106  44.859  32.091  13.335
96846W        W56107  39.461  32.466  10.415
96847W        W56108  15.711  40.547   4.118
96848W        W56109  28.965  44.772  12.474
96849W        W56110  34.927   8.376  14.825
96850W        W56111  37.418  40.310  14.974
96851W        W56112  44.437  34.610  11.128
96852W        W56113  27.655  38.543  12.391
96853W        W56114  30.449  24.040  10.550
96854W        W56115   8.664   8.672   2.301
96855W        W56116   9.825  11.345   2.733
96856W        W56117   2.334  28.176   1.279
96857W        W56118  28.148  37.409  11.531
96858W        W56119  12.192  18.050   0.964
96859W        W56120  17.584  39.497  11.451
96860W        W56121   8.264   3.289  13.999
96861W        W56122   6.737   1.269   3.326
96862W        W56123  22.053   1.383   1.260
96863W        W56124  25.522  41.876   2.800
96864W        W56125   3.714  21.088  13.972
96865W        W56126  40.826   1.244   1.710
96866W        W56127  16.655  15.321  14.428
96867W        W56128  23.110   8.395  13.358
96868W        W56129  19.242   0.465   0.951
96869W        W56130  10.227  21.530   0.829
96870W        W56131   8.267   1.473   4.809
96871W        W56132  17.095   3.908  12.093
96872W        W56133  39.542  20.232   0.764
96873W        W56134  30.507  34.380  14.820
96874W        W56135   1.468  24.040   2.739
96875W        W56136  22.507  43.468  11.416
96876W        W56137  36.554  32.576   4.743
96877W        W56138   7.260  14.800  13.810
96878W        W56139   9.300  27.158  12.894
96879W        W56140  36.432  14.145  13.545
96880W        W56141   6.827  21.661  14.799
96881W        W56142  15.646  26.486   3.379
96882W        W56143  42.013   5.431   1.760
96883W        W56144  18.690  40.918  12.863
96884W        W56145  11.685  23.665   3.383
96885W        W56146  13.180   0.865  11.520
96886W        W56147  30.521  25.189  13.985
96887W        W56148  32.508   4.809   3.305
96888W        W56149   1.940  41.375  11.042
96889W        W56150  10.305   5.783   3.870
96890W        W56151  21.153  20.642   2.799
96891W        W56152  12.333  33.423   3.699
96892W        W56153  42.411  17.120  11.442
96893W        W56154  16.688  27.016   0.753
96894W        W56155  41.529  10.834  14.426
96895W        W56156  19.160   1.257  12.013
96896W        W56157  26.509  32.888   0.764
96897W        W56158  18.212  30.060  12.847
96898W        W56159  28.047  31.594   0.367
96899W        W56160  40.902  27.673  12.996
96900W        W56161  11.711  27.483  11.930
96901W        W56162   3.845  35.490  11.591
96902W        W56163  24.099  40.936  10.970
96903W        W56164  40.327   3.779  11.919
96904W        W56165  35.524  40.419   2.694
96905W        W56166  42.464  14.612   4.660
96906W        W56167  44.498  43.971   0.391
96907W        W56168  37.921  10.212  11.039
96908W        W56169  13.748   0.416   5.787
96909W        W56170  27.518  28.537   0.928
96910W        W56171  19.182   0.490  13.913
96911W        W56172  39.901  42.028   4.178
96912W        W56173  19.049  34.005  11.912
96913W        W56174   0.929  12.763  10.595
96914W        W56175  19.726   7.342  12.563
96915W        W56176  43.891   6.721  11.588
96916W        W56177  21.228  32.459   2.786
96917W        W56178  38.019  37.533  11.405
96918W        W56179   2.321   3.803  11.375
96919W        W56180  25.672  32.416  11.890
96920W        W56181  43.862  24.162   2.876
96921W        W56182  38.826  35.929   5.211
96922W        W56183  19.717  19.153   2.254
96923W        W56184  44.462  28.615   2.709
96924W        W56185   0.913  12.777  13.399
96925W        W56186  15.610  21.204  12.507
96926W        W56187   7.204  16.644   2.841
96927W        W56188  25.064  43.383  12.049
96928W        W56189  36.349  35.391   3.337
96929W        W56190  43.397  40.831  14.769
96930W        W56191  41.392  22.662   4.634
96931W        W56192   2.410  11.754  13.325
96932W        W56193  11.358  22.554   1.235
96933W        W56194  25.177  40.824  14.344
96934W        W56195  25.021  30.645   4.144
96935W        W56196  31.632   9.876  11.464
96936W        W56197  37.900  16.573  13.867
96937W        W56198  37.541  37.881  14.023
96938W        W56199  12.740  35.008   4.199
96939W        W56200  31.029  38.367  11.986
96940W        W56201  33.984  42.998   3.352
96941W        W56202  42.918  23.195   2.783
96942W        W56203  35.990  15.272   0.405
96943W        W56204   1.823   2.752  14.906
96944W        W56205  23.527  33.515  14.403
96945W        W56206  13.277  36.071   0.823
96946W        W56207  33.879  21.111  12.468
96947W        W56208  35.383  20.630  12.998
96948W        W56209  13.740  35.026  14.962
96949W        W56210  29.463  13.815  14.340
96950W        W56211   8.862  17.286   3.693
96951W        W56212  39.867  23.984  14.888
96952W        W56213   2.469  29.647   4.166
96953W        W56214  34.033  32.018   0.345
96954W        W56215  15.804   9.799  11.408
96955W        W56216  23.717  30.068   4.205
96956W        W56217  17.253   9.391   4.762
96957W        W56218  38.066  19.139  12.508
96958W        W56219  36.012  29.596  13.868
96959W        W56220  16.175  16.621   4.235
96960W        W56221  43.895  33.472  11.454
96961W        W56222  16.306   9.676   4.164
96962W        W56223  15.751   2.935   4.785
96963W        W56224   7.839   0.388   4.306
96964W        W56225  29.976   6.769  12.576
96965W        W56226   5.311  44.357  14.016
96966W        W56227  35.955  39.817   3.368
96967W        W56228   4.789  12.348   1.230
96968W        W56229  38.045  24.596   4.654
96969W        W56230  19.534  14.674   4.638
96970W        W56231  40.929  34.479   2.903
96971W        W56232  20.163  10.166   2.279
96972W        W56233  25.665  37.407   0.921
96973W        W56234  17.095   1.815   5.266
96974W        W56235  40.869   6.409   0.864
96975W        W56236  35.417  44.871  12.892
96976W        W56237  28.623  15.262  12.985
96977W        W56238  29.588  23.515  14.913
96978W        W56239  17.109  15.224  14.381
96979W        W56240  43.830  14.644   4.785
96980W        W56241  41.036  42.350   4.166
96981W        W56242   5.730  42.316  13.854
96982W        W56243  40.408  19.077  14.460
96983W        W56244   3.889  20.683   0.845
96984W        W56245  42.856  18.741   4.800
96985W        W56246  36.928  37.540   0.956
96986W        W56247  39.475  35.600  11.505
96987W        W56248  38.558   8.694  10.990
96988W        W56249   1.239  24.709   1.717
96989W        W56250   6.752  32.395  14.485
96990W        W56251  35.500  32.391   0.359
96991W        W56252  14.788   6.713  13.386
96992W        W56253  30.129  33.513  11.967
96993W        W56254   0.480  31.481  12.536
96994W        W56255  23.185  27.558  11.999
96995W        W56256  41.487  35.884   0.397
96996W        W56257   7.364   9.211  13.508
96997W        W56258  42.006  19.279  12.426
96998W        W56259   9.685  13.266   1.260
96999W        W56260   6.836  41.392   0.267
97000W        W56261  40.341  40.023  10.622
97001W        W56262  38.855  22.670   0.879
97002W        W56263  21.693  11.212  12.481
97003W        W56264   4.830  22.116   5.320
97004W        W56265  21.751  20.755   3.187
97005W        W56266  17.666  17.566  10.549
97006W        W56267   6.188  33.877   3.266
97007W        W56268  37.870  44.336   4.163
97008W        W56269  42.442  44.877  14.957
97009W        W56270   0.823  31.629   1.357
97010W        W56271  31.582  24.673  12.563
97011W        W56272  26.096  13.838   2.400
97012W        W56273  42.817  35.377  11.980
97013W        W56274  29.002  23.006   1.826
97014W        W56275  20.559  33.488   0.261
97015W        W56276  26.006  30.062   4.237
97016W        W56277  23.109  14.759  13.362
97017W        W56278  33.089   2.255   1.294
97018W        W56279  36.050   1.806   3.782
97019W        W56280  17.669  41.040  10.603
97020W        W56281  36.508  22.007   0.733
97021W        W56282   8.773  32.413   0.407
97022W        W56283  42.874  23.058  10.966
97023W        W56284  13.836  31.529   4.609
97024W        W56285  41.886  36.575   2.706
97025W        W56286  28.576  15.319   2.821
97026W        W56287  41.484   7.904  11.992
97027W        W56288  13.316  15.746   1.381
97028W        W56289  15.619   6.804   5.225
97029W        W56290  10.240   0.432  14.849
97030W        W56291   7.877  23.222   3.286
97031W        W56292  27.564  18.760   2.679
97032W        W56293  31.558  25.544  11.105
97033W        W56294  44.352  29.623   4.742
97034W        W56295  36.574  40.983  11.510
97035W        W56296   0.273  11.319   4.640
97036W        W56297  10.729  38.068  11.866
97037W        W56298  25.040  12.650  14.956
97038W        W56299  40.450  35.920   3.273
97039W        W56300   6.773  21.182   1.410
97040W        W56301   7.348  44.998   1.234
97041W        W56302  22.531  18.689  10.601
97042W        W56303  21.563  26.126   3.233
97043W        W56304   9.388  36.956  12.562
97044W        W56305   3.808  33.601   2.700
97045W        W56306  35.082   0.906   3.242
97046W        W56307  31.030  36.935  14.324
97047W        W56308  19.728  13.825  10.536
97048W        W56309   0.325  12.681  10.446
97049W        W56310  15.593   6.255   2.348
97050W        W56311  42.787   6.214  11.609
97051W        W56312  29.158  16.309   0.425
97052W        W56313   2.461   0.808  12.067
97053W        W56314  18.284  42.817  10.486
97054W        W56315  15.297  16.808   4.333
97055W        W56316  23.491  12.230   0.819
97056W        W56317  38.409  21.216   3.788
97057W        W56318  38.503  18.649  11.466
97058W        W56319   1.290  14.707  14.775
97059W        W56320   0.843  10.820  14.293
97060W        W56321   7.755   2.849  11.869
97061W        W56322  37.969  43.294   3.775
97062W        W56323  30.960  31.098  10.557
97063W        W56324  17.601  16.167   3.355
97064W        W56325   0.406  24.110   3.810
97065W        W56326  29.525  43.871   3.289
97066W        W56327  18.708  32.061   4.802
97067W        W56328  35.992  18.573   5.281
97068W        W56329  38.559  33.114  12.913
97069W        W56330   2.266  28.132   5.087
97070W        W56331  26.664  14.314   0.397
97071W        W56332  27.568  20.180  11.594
97072W        W56333   9.861  27.149  13.318
97073W        W56334  40.385  12.660  14.333
97074W        W56335  36.516   8.887   4.340
97075W        W56336  26.026  10.280  10.910
97076W        W56337  41.030  32.461  11.598
97077W        W56338  18.115  17.677   4.792
97078W        W56339  27.071  35.480   2.401
97079W        W56340  24.143  31.998  10.134
97080W        W56341  16.611  37.925   4.299
97081W        W56342   7.823  16.697  11.548
97082W        W56343  41.471  19.095  12.536
97083W        W56344  41.912  13.282  13.460
97084W        W56345  26.508  11.197  10.561
97085W        W56346  20.100  17.270  14.401
97086W        W56347  40.511  29.447   4.300
97087W        W56348  14.249  24.565   3.327
97088W        W56349  13.271  18.222   3.320
97089W        W56350  41.980  30.594   0.454
97090W        W56351  10.158  40.031   0.436
97091W        W56352   3.248  43.004   3.810
97092W        W56353  26.061   9.196  13.917
97093W        W56354  30.973   1.812   0.768
97094W        W56355  40.858  35.926   5.275
97095W        W56356   7.906   6.787   3.867
97096W        W56357  38.366  39.488  14.893
97097W        W56358  26.951  14.779  12.523
97098W        W56359   8.699  17.678   3.303
97099W        W56360  34.606  15.674  10.589
97100W        W56361   4.715  35.033   3.714
97101W        W56362   6.710  25.972  14.348
97102W        W56363  36.034   2.433   2.776
97103W        W56364  34.881  31.003  14.846
97104W        W56365  27.121  20.610  13.337
97105W        W56366  35.494  22.203   3.154
97106W        W56367   2.306   6.860  11.372
97107W        W56368  24.576  20.054   2.239
97108W        W56369   8.181   0.968  11.880
97109W        W56370   5.692  12.631  12.452
97110W        W56371  27.507   5.338  12.497
97111W        W56372   5.275  15.701  13.374
97112W        W56373  37.965  30.971  12.875
97113W        W56374  10.246  23.201   0.732
97114W        W56375  22.104  24.200  14.851
97115W        W56376  37.436  10.213   2.349
97116W        W56377  21.205  14.734  12.945
97117W        W56378  40.035  23.588  14.383
97118W        W56379  29.531  39.818  10.595
97119W        W56380  24.590  22.730   2.417
97120W        W56381  31.624  10.194   4.233
97121W        W56382  20.694  12.136   1.358
97122W        W56383   3.364  13.154   0.271
97123W        W56384  10.671   9.376  14.337
97124W        W56385   1.338   8.174   1.309
97125W        W56386  41.412  41.995   1.307
97126W        W56387   6.778   2.372  11.407
97127W        W56388  42.946  24.116  11.944
97128W        W56389   5.737   8.222   3.190
97129W        W56390   2.921  32.586   2.344
97130W        W56391  30.050  29.144   4.799
97131W        W56392  23.724  12.663  11.470
97132W        W56393  11.184  10.375   1.715
97133W        W56394  44.930  20.599   1.764
97134W        W56395  18.163  39.418  12.458
97135W        W56396   3.315  30.579  13.880
97136W        W56397  12.349  29.652  14.821
97137W        W56398   0.351  23.205  11.454
97138W        W56399  39.477  12.787   1.835
97139W        W56400  42.433  31.583  12.850
97140W        W56401  26.166  40.548  14.952
97141W        W56402   6.786  21.666  13.540
97142W        W56403  40.455  15.315  11.086
97143W        W56404  20.643   3.313  12.450
97144W        W56405  30.606  29.164  11.857
97145W        W56406  12.800  39.007   0.302
97146W        W56407   7.795  17.692  12.393
97147W        W56408  17.136  29.425   2.319
97148W        W56409  34.454  17.570   4.678
97149W        W56410  41.371   0.393   4.754
97150W        W56411  35.463  19.589  14.494
97151W        W56412  44.892  28.129  10.932
97152W        W56413  12.720   2.228  13.471
97153W        W56414  31.605  33.086  13.421
97154W        W56415  20.613  30.990   2.834
97155W        W56416  18.745   1.419   3.632
97156W        W56417  34.079  35.955   0.348
97157W        W56418  16.181   6.372   1.837
97158W        W56419   3.709  32.495  14.975
97159W        W56420  32.633   3.915  11.519
97160W        W56421   6.369  40.018  12.443
97161W        W56422  36.420  30.412  11.467
97162W        W56423  12.273  26.462   2.270
97163W        W56424   3.924   3.413  11.003
97164W        W56425   4.789  23.497  14.027
97165W        W56426   1.301  33.018  14.769
97166W        W56427   1.771   7.313  13.357
97167W        W56428  43.980  25.624   3.772
97168W        W56429  18.228  28.108  14.896
97169W        W56430   1.331  13.264  14.832
97170W        W56431  42.359  39.945  12.830
97171W        W56432  34.471  22.067   2.728
97172W        W56433  31.975  28.545   2.310
97173W        W56434  15.311  31.008  13.847
97174W        W56435  16.181  10.676   3.729
97175W        W56436  43.785   7.402  12.825
97176W        W56437  37.905  22.016   4.724
97177W        W56438  36.850  28.167  14.980
97178W        W56439   5.259  34.104  10.607
97179W        W56440  40.925  14.739   4.223
97180W        W56441  26.047   7.685  14.950
97181W        W56442  14.106  36.495   1.815
97182W        W56443  31.506  35.018   3.152
97183W        W56444  30.436  19.251  11.939
97184W        W56445  14.207  44.913  14.275
97185W        W56446   5.865   5.813  11.990
97186W        W56447   6.844   1.312  11.965
97187W        W56448  35.897  16.716  12.906
97188W        W56449   0.917  17.739   0.871
97189W        W56450  36.381   3.410  12.378
97190W        W56451  43.980  21.722  12.051
97191W        W56452  14.633  29.533  10.910
97192W        W56453  19.047  25.129  13.846
97193W        W56454  16.701  44.446  14.332
97194W        W56455  12.355  21.656   0.424
97195W        W56456   9.709  40.003  14.408
97196W        W56457  12.248  16.147   1.932
97197W        W56458   9.286  42.842  12.074
97198W        W56459  44.958  42.354   1.263
97199W        W56460  20.540  12.255  13.874
97200W        W56461  24.629  20.214  14.847
97201W        W56462  33.480  41.964  13.345
97202W        W56463   4.304  16.282   3.265
97203W        W56464  21.182  26.459  11.000
97204W        W56465  42.995  42.825   0.774
97205W        W56466  26.166  10.723   3.692
97206W        W56467  17.671  27.134  11.540
97207W        W56468  38.528  21.622  13.461
97208W        W56469  14.640  14.687   0.371
97209W        W56470  15.609  15.112  14.981
97210W        W56471  13.700  38.476   4.686
97211W        W56472  44.455  40.880  13.338
97212W        W56473  41.402  23.061  13.881
97213W        W56474  11.811  29.482   2.902
97214W        W56475   3.882  16.135   1.410
97215W        W56476   6.347  15.617   0.467
97216W        W56477  38.939  33.605   9.966
97217W        W56478  11.164   4.782  11.524
97218W        W56479  42.418   1.907   1.440
97219W        W56480  31.112  42.400  10.898
97220W        W56481   7.806  39.855   4.819
97221W        W56482   3.403   2.332   3.733
97222W        W56483  30.489   0.368   0.956
97223W        W56484   3.821  33.615   4.833
97224W        W56485  21.200   7.329   4.241
97225W        W56486  23.169  42.490  10.621
97226W        W56487  36.946  14.821   0.924
97227W        W56488  13.725  37.453  10.976
97228W        W56489  19.642  15.170   0.837
97229W        W56490  42.492  23.000  13.530
97230W        W56491   5.437   6.208  10.548
97231W        W56492  40.336  12.701  13.936
97232W        W56493  17.752  37.456  12.564
97233W        W56494  29.539  42.951   4.118
97234W        W56495  28.969  22.995   4.308
97235W        W56496  31.957  19.278  14.999
97236W        W56497   5.856   2.763   2.279
97237W        W56498  36.089  40.956  12.439
97238W        W56499  30.616   4.702  12.948
97239W        W56500  32.533  31.618  10.586
97240W        W56501  34.476  42.402   2.809
97241W        W56502  33.071   6.279  10.909
97242W        W56503  13.113  37.075  13.494
97243W        W56504   8.346   6.800  13.335
97244W        W56505  17.140  20.665  11.899
97245W        W56506  12.817   9.157   1.743
97246W        W56507   9.675  23.050   0.858
97247W        W56508   4.772  39.883   3.356
97248W        W56509   9.219  10.180  10.577
97249W        W56510   8.799  25.504  14.003
97250W        W56511  17.727  18.703   0.313
97251W        W56512  35.992  36.996  12.458
97252W        W56513  25.541  25.696  12.409
97253W        W56514  21.094  43.412  14.439
97254W        W56515  15.601  25.181  11.974
97255W        W56516  16.311  15.774  11.070
97256W        W56517   9.743  27.655   0.929
97257W        W56518  13.775   5.835   3.346
97258W        W56519  43.890  40.362  14.506
97259W        W56520  31.615  12.809  12.346
97260W        W56521   0.769  22.540   2.348
97261W        W56522  32.397  31.915  14.457
97262W        W56523  35.045  42.836  13.407
97263W        W56524  27.106  32.997  12.341
97264W        W56525   0.474  20.733   4.262
97265W        W56526  20.205   4.321  13.486
97266W        W56527  28.676  42.938   4.708
97267W        W56528  16.196  19.214  14.432
97268W        W56529  35.384  21.045  11.400
97269W        W56530  26.986  21.208  11.558
97270W        W56531  42.500  23.527   3.378
97271W        W56532  22.194  24.098   0.408
97272W        W56533  18.594  18.249   0.887
97273W        W56534  14.738   5.203   2.391
97274W        W56535   3.756   5.357  11.959
97275W        W56536   6.359  19.558   5.255
97276W        W56537   8.212   8.738   3.789
97277W        W56538  33.879  14.743   1.788
97278W        W56539  42.826  22.127  12.915
97279W        W56540  34.388  36.856  12.354
97280W        W56541   0.873   0.824  14.814
97281W        W56542  26.553   2.242   3.237
97282W        W56543  23.515  30.470  14.809
97283W        W56544  28.167  44.903   4.237
97284W        W56545  39.375  37.032  13.014
97285W        W56546  14.797  21.559   4.798
97286W        W56547   3.247  35.098  11.018
97287W        W56548  11.775  24.617  12.923
97288W        W56549  29.097   6.248   2.719
97289W        W56550  39.530  34.106   3.827
97290W        W56551  35.372  19.617   2.239
97291W        W56552  37.054   0.788   0.726
97292W        W56553  20.703  10.231   3.269
97293W        W56554   9.848  33.625  13.943
97294W        W56555  23.046  42.358  14.938
97295W        W56556   4.272  27.613  13.508
97296W        W56557   1.288  33.875  12.384
97297W        W56558  32.964  32.077   1.803
97298W        W56559   0.318  21.142   3.802
97299W        W56560  15.682   6.393   3.298
97300W        W56561   7.708   6.423  14.331
97301W        W56562   3.383  27.580   4.271
97302W        W56563  42.896  30.962   3.853
97303W        W56564  29.044  39.535   1.739
97304W        W56565  14.794  30.454   1.422
97305W        W56566  40.441  41.388   2.381
97306W        W56567  21.189  41.446  14.399
97307W        W56568  40.894  31.031  11.599
97308W        W56569  11.864   2.396  14.964
97309W        W56570  16.211  16.645  11.422
97310W        W56571  40.800   6.883  14.800
97311W        W56572  30.632   4.326  12.085
97312W        W56573  31.994   3.340  11.875
97313W        W56574  30.036  20.640   0.335
97314W        W56575  14.748  39.888   3.358
97315W        W56576  42.958  16.077   0.803
97316W        W56577  12.267  19.720  14.835
97317W        W56578  32.417  16.623  10.929
97318W        W56579  29.938  42.449   2.291
97319W        W56580  20.755  30.006  11.943
97320W        W56581   3.221   3.862  10.408
97321W        W56582  13.209  24.989   3.685
97322W        W56583  28.094  29.067   0.936
97323W        W56584  43.811  12.170  12.368
97324W        W56585  39.841  12.757   3.730
97325W        W56586   1.874  24.096  10.579
97326W        W56587   6.372  41.932   0.296
97327W        W56588   8.261  33.010   3.281
97328W        W56589  19.651  17.148   2.901
97329W        W56590  21.755  13.278  13.854
97330W        W56591   7.865  12.666  10.049
97331W        W56592  30.586  11.781  11.524
97332W        W56593  24.110  25.201  14.348
97333W        W56594  30.944  26.079  12.003
97334W        W56595  28.609  33.427  13.975
97335W        W56596  35.368   7.774   0.835
97336W        W56597  19.260  18.224   0.915
97337W        W56598  26.049  43.507  13.895
97338W        W56599  24.227  11.828   2.833
97339W        W56600  18.123  31.113  14.285
97340W        W56601  30.417  10.148  11.486
97341W        W56602  19.722  17.286   1.895
97342W        W56603  36.951   3.943   1.887
97343W        W56604  24.648  14.642  12.073
97344W        W56605   9.886  10.233   3.333
97345W        W56606   1.343  42.806  11.446
97346W        W56607   4.319   2.785  14.976
97347W        W56608  26.590  41.790   0.297
97348W        W56609   7.247  44.825  11.107
97349W        W56610  18.053  18.226   1.310
97350W        W56611  18.147  25.970  14.432
97351W        W56612  24.979  10.264   1.757
97352W        W56613   7.382  13.264  12.540
97353W        W56614  11.644  41.000   4.641
97354W        W56615  11.718  27.650  13.873
97355W        W56616   6.370   3.326   5.226
97356W        W56617  21.247   8.382   1.365
97357W        W56618  32.612   3.780   3.686
97358W        W56619  15.626  32.061   2.279
97359W        W56620   6.217  14.163   2.244
97360W        W56621  13.257  42.953  12.944
97361W        W56622  37.997  13.154   0.793
97362W        W56623  41.895  35.922   2.872
97363W        W56624  31.635  26.583   1.782
97364W        W56625  40.318  22.108  14.949
97365W        W56626  37.490  28.638   4.635
97366W        W56627  13.609  43.957  13.419
97367W        W56628   4.374  16.154  12.393
97368W        W56629  15.260   2.866   3.708
97369W        W56630  21.056  20.752  11.928
97370W        W56631  10.221  18.114  14.905
97371W        W56632   0.340   9.370  10.509
97372W        W56633  10.290  19.097   3.205
97373W        W56634  36.978  33.891   4.621
97374W        W56635   4.869   6.835   4.239
97375W        W56636  38.552  38.900  11.878
97376W        W56637  34.498  38.569  11.478
97377W        W56638  36.942   4.854   4.681
97378W        W56639  41.462  28.594  13.896
97379W        W56640  13.663  30.473  13.044
97380W        W56641  27.011  11.311   0.934
97381W        W56642   2.867  42.427  11.535
97382W        W56643  12.222  43.455   0.339
97383W        W56644   8.351   5.924  12.977
97384W        W56645  11.153  18.125  14.898
97385W        W56646  42.810   6.359  12.873
97386W        W56647  16.639  36.529  13.415
97387W        W56648  14.615   9.842   0.818
97388W        W56649  33.905   8.284  12.832
97389W        W56650   6.808   4.797  10.990
97390W        W56651   6.313   9.177   3.177
97391W        W56652  11.308  33.428  11.960
97392W        W56653  38.499   7.675  11.494
97393W        W56654  43.443   9.220   1.744
97394W        W56655  14.742  37.995  12.504
97395W        W56656   9.813  21.514   2.803
97396W        W56657  39.546  18.763  14.386
97397W        W56658   1.824  19.134  12.093
97398W        W56659  42.389  17.130  10.426
97399W        W56660  30.578  25.566  11.537
97400W        W56661  32.958  18.195  11.106
97401W        W56662   1.818  23.235   1.428
97402W        W56663  37.562   3.873   1.744
97403W        W56664  33.394  19.174   2.214
97404W        W56665  40.040  37.515  10.906
97405W        W56666  34.548  44.414   1.784
97406W        W56667  34.512   1.796   3.335
97407W        W56668  25.487   0.443   2.778
97408W        W56669   8.669  24.160   1.792
97409W        W56670  14.615  19.556   4.166
97410W        W56671  18.582   1.934  12.855
97411W        W56672  10.166  19.187   0.863
97412W        W56673   7.366  18.602  11.520
97413W        W56674  35.441   1.260   1.763
97414W        W56675  20.159   5.878  12.056
97415W        W56676  44.992   1.348   1.840
97416W        W56677  28.972  19.096   4.336
97417W        W56678  32.445  14.678   1.408
97418W        W56679   6.830  25.560   2.766
97419W        W56680   7.185  22.226  11.928
97420W        W56681   5.420  23.507  10.955
97421W        W56682  44.463  19.210   4.335
97422W        W56683   1.849  15.608  14.857
97423W        W56684  31.612  34.921  14.001
97424W        W56685  32.142   6.742   3.239
97425W        W56686   6.345  22.151   4.158
97426W        W56687  24.710  22.096   3.194
97427W        W56688  17.273  15.280   0.928
97428W        W56689  43.805  22.659   1.862
97429W        W56690  17.118  42.499  10.590
97430W        W56691  25.988   3.932  12.570
97431W        W56692  19.609  20.150  14.992
97432W        W56693  44.999  31.913   3.735
97433W        W56694  44.453   1.269   3.802
97434W        W56695   6.887   3.429   2.245
97435W        W56696  44.905  30.091  12.430
97436W        W56697   4.879  37.024  12.968
97437W        W56698  13.251   7.826   2.695
97438W        W56699   3.276  33.016   1.370
97439W        W56700   3.900  17.072  14.902
97440W        W56701   1.815  12.669   1.837
97441W        W56702   5.409  24.607  13.794
97442W        W56703   1.243  19.122   1.247
97443W        W56704  26.554   2.310   3.668
97444W        W56705  16.568  13.675   1.729
97445W        W56706  23.170  27.496   0.362
97446W        W56707  22.575  29.495   4.276
97447W        W56708  19.675  32.506   2.347
97448W        W56709  27.070  44.778   0.333
97449W        W56710  40.440  40.025   4.816
97450W        W56711  11.266  20.106  10.475
97451W        W56712   9.187  24.612  13.822
97452W        W56713   1.964   0.843   0.814
97453W        W56714   1.293  11.776   1.259
97454W        W56715  17.801   0.443   4.196
97455W        W56716  10.164  12.828   2.834
97456W        W56717  37.845  16.611   0.800
97457W        W56718   4.945   0.984  12.393
97458W        W56719  28.655  40.959  13.000
97459W        W56720   4.304  15.793  14.814
97460W        W56721  39.526  31.094  11.882
97461W        W56722  27.624   2.463  13.967
97462W        W56723   5.370  29.645   4.827
97463W        W56724  18.663  28.447   2.238
97464W        W56725   5.412  35.942   3.315
97465W        W56726   8.718  19.103  11.610
97466W        W56727  31.933  36.591   3.750
97467W        W56728  14.769  28.940   0.806
97468W        W56729   0.434   7.215  13.023
97469W        W56730  42.780  27.604  11.551
97470W        W56731  39.901  16.234  12.484
97471W        W56732  20.724   3.742  11.042
97472W        W56733  14.136  42.937   0.900
97473W        W56734  27.074  26.644   3.275
97474W        W56735  43.906  37.832   0.887
97475W        W56736   9.828  35.529  11.588
97476W        W56737  35.391  24.193  10.549
97477W        W56738  27.575  33.980  10.438
97478W        W56739  24.204  31.129   2.735
97479W        W56740  28.024  26.111   4.691
97480W        W56741  16.143   5.755   0.758
97481W        W56742  17.090  21.702  13.486
97482W        W56743  14.151  26.694   0.747
97483W        W56744  10.191  14.686  12.936
97484W        W56745  16.803  30.496  12.473
97485W        W56746   2.383  41.935  11.107
97486W        W56747  37.377  25.967   3.739
97487W        W56748   5.251  25.536   0.807
97488W        W56749  11.264   2.770  10.547
97489W        W56750  32.979  20.524  14.332
97490W        W56751  21.110  25.097   4.822
97491W        W56752  30.044  36.559  10.899
97492W        W56753  14.335  14.782  10.895
97493W        W56754  24.990  40.446  10.556
97494W        W56755   1.364  22.531   4.657
97495W        W56756  40.534  35.959   2.391
97496W        W56757  40.799   4.802   1.735
97497W        W56758  19.135  18.241   1.389
97498W        W56759  34.936  23.685   0.878
97499W        W56760  30.519  17.665   1.759
97500W        W56761  26.479  13.754  10.597
97501W        W56762  43.873   3.840   1.384
97502W        W56763   9.381  28.037  10.564
97503W        W56764  43.896  39.444  14.945
97504W        W56765  44.393  18.263  12.844
97505W        W56766  43.811  42.808   4.695
97506W        W56767  29.054  28.972  11.599
97507W        W56768  31.455  22.510   2.664
97508W        W56769   6.693  16.107  13.343
97509W        W56770  27.179  12.143   0.918
97510W        W56771   5.788  25.020   3.640
97511W        W56772  24.502  30.115  13.927
97512W        W56773  18.713  17.573   4.823
97513W        W56774   2.412  42.292   0.728
97514W        W56775  16.623  25.704  13.860
97515W        W56776  18.688   5.855  14.360
97516W        W56777  37.348   3.835   4.240
97517W        W56778  26.996  27.642   1.393
97518W        W56779  22.562   9.387  13.375
97519W        W56780  17.076  33.464  11.908
97520W        W56781   6.690  21.262  11.475
97521W        W56782  27.189  21.032  10.996
97522W        W56783  41.791  19.088  12.048
97523W        W56784  11.208  44.265  13.882
97524W        W56785  23.606   4.759  12.849
97525W        W56786  19.579  24.695   3.171
97526W        W56787  11.811  10.814   0.431
97527W        W56788   2.345  31.043  10.552
97528W        W56789   4.795   1.239   4.791
97529W        W56790  28.042  20.532   1.920
97530W        W56791  42.877   5.794  11.933
97531W        W56792  43.438  13.350  11.981
97532W        W56793  35.080  24.615   2.758
97533W        W56794  18.100  12.152   4.304
97534W        W56795  44.385  16.110   3.800
97535W        W56796  33.126  26.112  12.983
97536W        W56797   5.729   3.940  14.863
97537W        W56798  39.336  18.737   3.859
97538W        W56799  41.497  40.509  11.014
97539W        W56800  21.111  20.257  12.850
97540W        W56801  16.126  24.148   1.231
97541W        W56802  11.372  31.627  14.350
97542W        W56803  14.242   4.210   2.228
97543W        W56804   4.373  37.451  11.605
97544W        W56805  23.995  40.903   0.895
97545W        W56806   2.906  12.276   4.250
97546W        W56807   1.780  18.262  12.920
97547W        W56808  15.180  42.025  14.358
97548W        W56809  40.497  20.042  12.842
97549W        W56810  31.933  15.807  12.554
97550W        W56811  29.977   8.173   2.347
97551W        W56812  44.820  23.193   2.816
97552W        W56813  26.011   8.303   1.874
97553W        W56814   6.200  16.802  13.540
97554W        W56815  37.061  30.450  14.905
97555W        W56816  31.100  23.668   4.689
97556W        W56817  44.897  33.571  13.923
97557W        W56818   7.804  11.782  13.060
97558W        W56819  13.284  24.696   2.412
97559W        W56820  27.080  34.914   2.223
97560W        W56821  27.171  33.546   1.813
97561W        W56822  42.281  43.327  12.400
97562W        W56823   8.727  41.813   3.757
97563W        W56824  20.561  20.115  14.315
97564W        W56825   1.745   6.685  10.004
97565W        W56826  42.793  39.370  11.890
97566W        W56827  31.005  19.194  11.453
97567W        W56828  26.956  21.095  12.350
97568W        W56829   2.391  42.339   3.758
97569W        W56830  30.541  36.433  11.478
97570W        W56831  41.522  22.248  11.898
97571W        W56832   9.700   2.920   1.221
97572W        W56833  38.486   2.396   0.918
97573W        W56834  26.119  19.573   2.211
97574W        W56835  25.987  26.521   2.712
97575W        W56836  29.029   3.893   1.450
97576W        W56837  31.006  35.489  12.924
97577W        W56838  31.409  13.707   1.866
97578W        W56839  27.682  27.578   4.827
97579W        W56840  30.092  38.504   3.715
97580W        W56841   2.408   5.369   0.813
97581W        W56842   6.893  30.041  12.499
97582W        W56843  26.558  26.506  14.990
97583W        W56844  40.041  32.548   4.221
97584W        W56845  43.497  13.193   0.319
97585W        W56846  11.330   2.291   0.745
97586W        W56847  35.036  21.629   4.616
97587W        W56848  43.882  21.585  12.847
97588W        W56849  19.066   8.834  12.875
97589W        W56850  30.946  14.588  12.086
97590W        W56851  14.289   4.349  13.965
97591W        W56852  12.836  32.033   0.384
97592W        W56853  14.105  18.692  12.068
97593W        W56854  38.076  13.785  14.479
97594W        W56855  20.709  19.200   1.431
97595W        W56856   8.883   8.866   1.863
97596W        W56857  17.610   6.878  10.909
97597W        W56858  24.553  20.045   0.733
97598W        W56859   2.809  30.976  11.542
97599W        W56860  14.630   8.760  12.843
97600W        W56861  17.268  33.029  13.874
97601W        W56862  18.275   9.770  13.500
97602W        W56863  39.821  14.287   3.747
97603W        W56864   4.911  13.315   2.363
97604W        W56865  29.639  31.072  13.817
97605W        W56866  15.811  27.587   0.836
97606W        W56867   1.291   4.408  10.435
97607W        W56868  16.640  34.548   4.347
97608W        W56869  14.209  31.586  12.424
97609W        W56870   8.719  23.623   0.917
97610W        W56871  12.663  23.074  13.431
97611W        W56872  33.525  20.069   4.691
97612W        W56873  41.378  43.488   1.333
97613W        W56874  23.510  31.992  12.986
97614W        W56875  20.053  23.696   2.707
97615W        W56876  24.667   5.891   1.365
97616W        W56877  41.980  44.802  11.001
97617W        W56878  27.558   8.240  11.510
97618W        W56879  27.560  41.041   0.941
97619W        W56880  34.050  38.942   4.832
97620W        W56881  30.436  24.603   4.607
97621W        W56882  41.396  14.154  13.830
97622W        W56883  41.292  39.429  12.561
97623W        W56884  29.667  17.068  14.789
97624W        W56885   8.669  44.362   0.247
97625W        W56886  10.381   9.825  10.462
97626W        W56887  23.075  44.376   4.648
97627W        W56888   9.643  16.157  10.152
97628W        W56889  23.153  12.758   3.228
97629W        W56890  14.341  22.064  12.992
97630W        W56891   4.934  14.276   4.816
97631W        W56892   4.785  41.434  14.973
97632W        W56893  41.935  25.482   3.851
97633W        W56894   6.350  21.651  12.512
97634W        W56895  29.612  34.060  12.396
97635W        W56896  25.637   7.403   4.654
97636W        W56897   9.847   2.898  11.040
97637W        W56898  23.000  42.400   4.321
97638W        W56899  24.179  44.799  11.477
97639W        W56900  16.783  44.824   4.677
97640W        W56901  42.365  22.169  12.502
97641W        W56902  28.477  41.038  14.395
97642W        W56903  19.097  16.637   0.262
97643W        W56904  39.404   0.469   4.274
97644W        W56905  39.377  15.770   4.707
97645W        W56906  37.953  30.091  12.421
97646W        W56907  35.940  40.331   2.370
97647W        W56908  12.181  22.535  14.349
97648W        W56909   8.721  31.419   3.848
97649W        W56910  10.213  11.145   3.779
97650W        W56911  32.056  41.803   2.237
97651W        W56912  20.705  22.129  11.580
97652W        W56913  20.263  40.935  11.590
97653W        W56914  10.257   6.299   3.680
97654W        W56915  27.947  36.559  14.876
97655W        W56916  27.606  40.939  12.510
97656W        W56917  44.474  20.537  14.954
97657W        W56918  10.722  25.076   4.642
97658W        W56919   8.853   6.211  12.962
97659W        W56920  16.088  14.247  14.933
97660W        W56921   3.850  12.155  13.539
97661W        W56922  32.927  44.786   4.333
97662W        W56923   3.733  13.185   0.966
97663W        W56924  33.414   2.840  11.429
97664W        W56925  14.811  17.784  12.067
97665W        W56926  15.249  40.908   3.733
97666W        W56927  41.344  25.651   4.695
97667W        W56928  21.534   4.367   2.377
97668W        W56929  15.818  26.550   0.868
97669W        W56930   9.866  24.017   3.365
97670W        W56931   9.712   3.284   0.474
97671W        W56932  11.779  26.983   4.231
97672W        W56933  28.436  32.554  10.522
97673W        W56934  34.411   1.360  13.331
97674W        W56935  35.434   9.200  10.927
97675W        W56936  38.864  23.544   2.273
97676W        W56937   1.836   8.809   5.288
97677W        W56938  21.541  22.546   0.854
97678W        W56939  44.416  30.995  14.000
97679W        W56940  40.331  26.082  13.804
97680W        W56941  41.819  30.511  11.027
97681W        W56942   2.875  40.804  10.963
97682W        W56943   6.349   0.953   0.831
97683W        W56944  13.654  30.459  10.994
97684W        W56945  27.497   7.414   4.184
97685W        W56946  44.302  40.045   0.483
97686W        W56947  44.957   9.813   4.154
97687W        W56948   1.773   7.750  11.461
97688W        W56949  40.028  16.145  11.974
97689W        W56950  12.332   0.418  13.360
97690W        W56951  10.351  14.771  14.827
97691W        W56952   2.424  43.478  11.047
97692W        W56953   2.780  41.819   2.208
97693W        W56954  24.106  36.993  11.525
97694W        W56955   9.855  20.629  10.459
97695W        W56956   3.390  36.373  13.539
97696W        W56957  12.790  28.132   4.790
97697W        W56958  41.031  29.117  14.860
97698W        W56959   8.199  36.073   3.713
97699W        W56960  39.484  30.981   1.359
97700W        W56961   0.756  37.374  10.504
97701W        W56962  39.328  30.008  14.027
97702W        W56963  17.800  28.563  14.910
97703W        W56964  18.257  37.496  12.520
97704W        W56965  25.193  13.782   0.961
97705W        W56966  14.610  26.477  12.893
97706W        W56967  16.615  33.418   0.355
97707W        W56968   4.297   6.718  11.426
97708W        W56969  21.646  31.626   1.918
97709W        W56970  44.908  26.190   3.652
97710W        W56971  42.475  43.383   2.665
97711W        W56972   6.919  36.868   0.267
97712W        W56973  14.139  18.672   0.337
97713W        W56974  36.455   9.746   4.281
97714W        W56975  20.591  21.758  11.091
97715W        W56976  33.032  20.728   0.461
97716W        W56977  40.533  12.738   3.295
97717W        W56978  23.673   4.325  11.053
97718W        W56979  11.868   8.742  11.535
97719W        W56980  33.501  18.595  14.846
97720W        W56981   8.701  15.222  12.371
97721W        W56982   7.322  25.566   4.216
97722W        W56983  21.683  31.038  13.041
97723W        W56984  17.093  38.421   3.239
97724W        W56985   7.263   4.312  10.573
97725W        W56986   9.799   6.255   4.227
97726W        W56987  22.564  30.495  11.498
97727W        W56988  38.041   1.830  11.038
97728W        W56989  10.643  28.511  10.439
97729W        W56990  26.173   1.384  12.458
97730W        W56991  26.084  32.600  10.495
97731W        W56992  32.963  40.343   4.805
97732W        W56993  21.198  10.780   2.716
97733W        W56994  13.801  28.179   3.372
97734W        W56995  35.542  13.248  14.392
97735W        W56996  33.594  24.201  13.406
97736W        W56997  26.608   8.869   4.718
97737W        W56998  17.801  42.291   3.727
97738W        W56999   4.223  21.641   3.181
97739W        W57000  33.416  10.824   3.231
97740W        W57001   1.802  27.107  10.603
97741W        W57002  10.876  20.750   3.331
97742W        W57003   5.285   5.420   3.371
97743W        W57004  13.840  40.931   4.805
97744W        W57005  34.377  23.024  10.986
97745W        W57006  21.578   9.264   2.853
97746W        W57007  12.640  11.711  11.381
97747W        W57008  40.837  44.795   2.896
97748W        W57009   6.305  10.830  10.627
97749W        W57010  33.626  39.868   1.896
97750W        W57011  12.740  20.671  14.986
97751W        W57012  40.903  42.796   4.624
97752W        W57013  11.692  36.880   9.946
97753W        W57014   4.419  15.152   4.289
97754W        W57015   6.411  18.053  14.461
97755W        W57016   8.768  22.573  12.365
97756W        W57017   1.886  10.763   2.306
97757W        W57018  35.032  28.463  14.439
97758W        W57019  23.638   8.184  11.931
97759W        W57020  20.742  41.019   3.291
97760W        W57021  17.634  22.593  11.983
97761W        W57022  36.529  22.021   1.860
97762W        W57023  18.191  35.033   0.469
97763W        W57024  34.892  22.078  13.375
97764W        W57025  20.043  13.778  12.438
97765W        W57026  14.240  20.071   4.755
97766W        W57027  27.075  18.693  12.915
97767W        W57028   7.863  15.612  13.792
97768W        W57029  30.012   0.353   1.875
97769W        W57030  23.199   6.758   3.821
97770W        W57031  28.033  31.090  10.476
97771W        W57032   3.777  20.085   4.623
97772W        W57033  21.604  28.161  10.134
97773W        W57034  34.407  39.483  11.118
97774W        W57035   6.735  15.263   3.230
97775W        W57036  30.087  42.912  11.129
97776W        W57037  30.647  35.995  10.100
97777W        W57038  42.435  21.649  13.883
97778W        W57039  13.231  18.727   0.943
97779W        W57040  31.455  30.604  14.805
97780W        W57041   2.809  44.265  13.859
97781W        W57042  28.579  37.011   2.209
97782W        W57043  20.112  25.159  14.003
97783W        W57044  27.455  34.082  11.590
97784W        W57045  34.094  41.517  14.356
97785W        W57046  42.797  39.048  14.291
97786W        W57047  36.894  12.270   3.657
97787W        W57048  19.539   3.854   3.226
97788W        W57049  17.196  17.253   3.862
97789W        W57050  34.528  12.785  10.072
97790W        W57051  43.358  30.944  11.927
97791W        W57052  42.900  26.168   0.459
97792W        W57053  12.207   7.672  13.920
97793W        W57054  15.306  33.464   2.372
97794W        W57055  22.518  10.145  13.036
97795W        W57056  20.271  41.459   2.333
97796W        W57057  27.021  33.114   3.644
97797W        W57058   5.437   0.312  14.351
97798W        W57059   2.314  29.613   0.340
97799W        W57060  20.191  32.022  11.951
97800W        W57061  12.226  30.588  11.492
97801W        W57062  25.663  11.701   1.264
97802W        W57063  42.977  17.161  12.890
97803W        W57064  39.998  24.705   1.445
97804W        W57065  12.851   4.441   3.857
97805W        W57066   1.303  14.226   4.748
97806W        W57067  13.202  40.336   4.792
97807W        W57068   7.187  13.752   4.656
97808W        W57069  23.680  11.735  14.442
97809W        W57070   1.831   6.223  11.400
97810W        W57071   4.702  30.010  14.411
97811W        W57072   6.830  30.070  13.491
97812W        W57073   2.247  36.861   2.856
97813W        W57074  21.512  40.951  10.450
97814W        W57075   5.785  20.118   3.318
97815W        W57076  37.047   9.315  12.379
97816W        W57077  23.051  21.691  10.924
97817W        W57078  29.461  14.224  11.004
97818W        W57079  24.138   4.916   4.305
97819W        W57080  40.396  40.983  11.860
97820W        W57081  27.563  33.027   1.762
97821W        W57082   0.412  14.677   2.902
97822W        W57083   6.324  44.323  12.477
97823W        W57084  36.851  44.473  12.905
97824W        W57085  28.133  39.890  14.481
97825W        W57086  21.599  23.537  14.460
97826W        W57087  35.093   6.318  12.482
97827W        W57088   6.263  26.973   1.842
97828W        W57089  24.688  28.615   4.310
97829W        W57090  12.751  15.696   0.894
97830W        W57091  44.758  34.970  12.869
97831W        W57092  28.165  12.190   3.740
97832W        W57093  42.021   3.316   4.818
97833W        W57094   0.839  22.177  11.524
97834W        W57095  16.217  35.555   1.270
97835W        W57096  27.176  28.598  11.882
97836W        W57097  22.591   3.791   3.819
97837W        W57098  10.211   7.880   2.327
97838W        W57099  41.972  27.084   2.676
97839W        W57100  33.620  22.074  11.592
97840W        W57101   0.295   6.833   4.293
97841W        W57102  37.935  21.522  14.510
97842W        W57103  20.197  32.906  13.833
97843W        W57104   8.210  24.551  11.980
97844W        W57105  41.828   1.940  12.561
97845W        W57106   8.249   5.793   4.218
97846W        W57107  42.938  32.935  13.340
97847W        W57108  38.445  14.724   1.709
97848W        W57109  13.180  27.656   5.212
97849W        W57110  29.108  12.818   0.854
97850W        W57111  35.453  11.667   9.981
97851W        W57112  24.071  32.118  11.553
97852W        W57113  38.063  27.002  10.473
97853W        W57114  26.673   6.386  12.361
97854W        W57115  14.154   5.829   1.872
97855W        W57116  41.329  20.752  14.925
97856W        W57117  33.086   0.300   1.911
97857W        W57118  39.886   6.255  12.010
97858W        W57119   7.282  35.852   1.265
97859W        W57120  13.696  28.963   3.206
97860W        W57121  30.908  24.164   2.846
97861W        W57122  25.969  24.658   3.645
97862W        W57123  25.115  26.171  12.518
97863W        W57124  29.613  26.050   2.316
97864W        W57125  27.167  40.479   0.966
97865W        W57126  26.134  43.512  11.924
97866W        W57127  13.265  25.034   1.728
97867W        W57128  34.083  32.015  14.881
97868W        W57129  32.910   0.378  13.974
97869W        W57130  19.563   9.760  12.873
97870W        W57131  27.530  41.007   3.254
97871W        W57132  21.254  31.957  10.489
97872W        W57133   5.380  26.045   4.250
97873W        W57134   8.315  13.644   0.849
97874W        W57135  18.563  11.197  10.519
97875W        W57136  42.889  29.582  13.830
97876W        W57137  35.062  36.438   4.617
97877W        W57138  11.328   3.952  14.949
97878W        W57139  20.072  44.410  14.291
97879W        W57140   9.386  16.771   2.827
97880W        W57141  38.960  19.542  12.426
97881W        W57142   9.858   3.895  11.611
97882W        W57143  36.857  44.497  13.954
97883W        W57144  43.856  37.364   4.801
97884W        W57145  28.525  20.074   0.296
97885W        W57146  23.698  24.697  11.033
97886W        W57147   8.241  18.569   0.812
97887W        W57148   0.309   2.278  13.859
97888W        W57149   9.325  12.630  14.919
97889W        W57150  13.722  11.263   4.246
97890W        W57151  11.658   5.891  12.543
97891W        W57152  14.749  12.724  13.501
97892W        W57153  22.059  35.594  14.856
97893W        W57154   1.922  11.216  14.784
97894W        W57155  32.625  18.288   2.362
97895W        W57156  30.520   1.383  13.548
97896W        W57157  22.512   9.774   1.300
97897W        W57158  22.092  31.016   0.297
97898W        W57159  41.433  41.530  13.030
97899W        W57160  44.463  22.996  14.881
97900W        W57161   4.815  17.149  13.314
97901W        W57162  42.348   0.352   0.872
97902W        W57163   2.892   5.825   1.446
97903W        W57164  31.555  35.941   2.720
97904W        W57165   7.760  19.214   0.822
97905W        W57166  27.960   9.272   3.208
97906W        W57167  34.897  37.878   1.302
97907W        W57168   2.760  43.305  14.373
97908W        W57169   8.786  27.473   4.808
97909W        W57170  22.248  36.961   0.753
97910W        W57171  15.264  13.260   2.385
97911W        W57172  10.752  33.120   3.784
97912W        W57173  29.099  13.779  11.411
97913W        W57174   4.233   3.261   0.250
97914W        W57175   7.259   9.382  11.592
97915W        W57176  30.597  41.912   4.715
97916W        W57177  36.891  26.082   4.607
97917W        W57178  20.722  34.587   1.267
97918W        W57179   6.850  44.870   0.816
97919W        W57180  20.247  41.393  13.466
97920W        W57181   5.313  34.379  12.506
97921W        W57182   0.488  12.679  13.373
97922W        W57183  31.565   8.256   3.828
97923W        W57184   2.866  24.595   4.695
97924W        W57185   6.788  42.337   2.706
97925W        W57186  31.151   1.926  14.488
97926W        W57187  24.166   4.911   1.257
97927W        W57188  30.945  43.403  11.506
97928W        W57189  43.022  24.559   4.641
97929W        W57190  29.925   7.711  14.880
97930W        W57191  27.003  31.149  11.386
97931W        W57192  16.667  10.635   1.324
97932W        W57193  41.826  43.484   4.771
97933W        W57194   8.787  36.921   1.303
97934W        W57195   9.344  18.628   4.668
97935W        W57196   0.288  44.974   4.628
97936W        W57197  34.919  34.475   4.204
97937W        W57198  13.350   4.319  11.571
97938W        W57199  23.221  41.376  13.449
97939W        W57200  41.513  10.253   2.286
97940W        W57201  29.481   4.370   0.434
97941W        W57202  38.964   7.906  10.448
97942W        W57203   5.925  30.422   2.740
97943W        W57204  36.021   2.292   2.417
97944W        W57205  40.367  10.293  14.023
97945W        W57206  18.651  22.609   3.670
97946W        W57207   5.241   1.386   3.762
97947W        W57208  17.583  26.164   2.699
97948W        W57209  34.531   2.397   1.388
97949W        W57210  41.360  42.891  12.047
97950W        W57211  13.182  41.390   1.926
97951W        W57212  42.452  10.149  14.333
97952W        W57213  17.579  26.177   1.312
97953W        W57214  43.940  18.698   2.897
97954W        W57215  43.329   6.220   0.748
97955W        W57216  11.272  17.181  12.054
97956W        W57217  34.105  14.203  14.961
97957W        W57218  12.708   3.818  11.084
97958W        W57219  24.553  23.550  12.980
97959W        W57220   1.924  33.454  10.963
97960W        W57221  11.256  30.009   4.815
97961W        W57222  19.168  30.078   2.891
97962W        W57223  41.956   5.860  14.866
97963W        W57224  17.199  25.052  14.024
97964W        W57225  41.021  19.243  13.965
97965W        W57226  43.926  42.944  14.003
97966W        W57227  40.869  43.805  12.390
97967W        W57228   4.252  17.584   4.822
97968W        W57229  34.993  27.554   1.411
97969W        W57230  40.955   8.883   3.199
97970W        W57231   1.884  26.980   2.884
97971W        W57232  22.703  16.162   2.835
97972W        W57233  13.689  17.231   4.756
97973W        W57234   2.273  35.480  12.428
97974W        W57235   0.859  29.015   0.303
97975W        W57236  18.118  25.489   1.760
97976W        W57237  41.520  17.591  13.369
97977W        W57238   4.929   2.898   2.702
97978W        W57239  29.457  16.167   3.347
97979W        W57240  43.502   8.216   0.967
97980W        W57241   2.745  12.278  12.502
97981W        W57242  24.582  39.877   2.853
97982W        W57243  24.695  36.006  13.878
97983W        W57244  22.680   2.429  14.295
97984W        W57245  34.095  17.700   3.712
97985W        W57246  19.632  10.835   2.718
97986W        W57247  20.079  15.647  14.907
97987W        W57248  34.978  18.783  14.849
97988W        W57249   9.162  17.639   4.669
97989W        W57250  40.310  42.393  12.830
97990W        W57251  35.855   8.773   2.844
97991W        W57252  25.622  20.696  14.934
97992W        W57253   5.777  33.989   1.911
97993W        W57254  38.539   9.847  11.035
97994W        W57255  31.143  10.643  12.401
97995W        W57256  11.821  43.475   0.934
97996W        W57257   1.931  40.974  12.358
97997W        W57258   8.851  22.088  12.970
97998W        W57259  44.414  33.514  11.010
97999W        W57260  39.362  16.292  11.028
98000W        W57261  43.806  38.444   3.158
98001W        W57262  11.825  43.506   3.292
98002W        W57263  32.919  36.367  14.303
98003W        W57264  19.135  26.536   4.748
98004W        W57265  30.580  12.792  13.414
98005W        W57266   7.892  42.814  13.813
98006W        W57267  42.444   0.346   2.711
98007W        W57268  25.713  37.508  13.878
98008W        W57269  29.985   2.949  12.944
98009W        W57270   9.291  41.851   0.387
98010W        W57271  40.548   6.280   3.152
98011W        W57272  29.603  25.119   3.167
98012W        W57273   6.914  28.464   4.687
98013W        W57274  27.634   4.722   3.263
98014W        W57275  21.163   7.795   5.162
98015W        W57276  11.372  37.924  13.544
98016W        W57277  11.729  43.274  13.444
98017W        W57278  17.707  16.240  12.907
98018W        W57279  40.396  23.041   4.115
98019W        W57280   6.262  38.395   0.811
98020W        W57281  10.219   4.421  11.536
98021W        W57282   6.692  11.277  10.898
98022W        W57283  25.193  37.503   1.837
98023W        W57284   5.223  30.023   1.735
98024W        W57285  33.400   3.814  13.514
98025W        W57286  31.404  30.117   4.192
98026W        W57287  20.646  30.498  12.070
98027W        W57288  34.972  18.158  12.539
98028W        W57289  31.425  22.727  14.284
98029W        W57290   8.887  37.420   2.742
98030W        W57291   1.746  10.638   1.726
98031W        W57292  34.451   6.258   0.282
98032W        W57293  26.101  25.692  13.968
98033W        W57294  17.721  11.255  14.982
98034W        W57295  43.417  35.526  11.918
98035W        W57296  19.651  29.605   3.726
98036W        W57297   5.344  21.111  14.305
98037W        W57298  35.890  13.148  11.577
98038W        W57299  15.646  35.484   4.137
98039W        W57300  15.229  18.606  10.430
98040W        W57301  18.714  21.586   1.409
98041W        W57302   4.704  24.656  13.475
98042W        W57303  14.175   8.193   2.788
98043W        W57304  26.131  13.301   4.328
98044W        W57305  43.978   3.911   2.218
98045W        W57306  21.725   7.297  11.515
98046W        W57307  15.218   1.794   3.719
98047W        W57308  13.114  40.916  14.813
98048W        W57309  11.809  18.607  13.994
98049W        W57310  30.461   2.826   0.252
98050W        W57311  28.632  36.083  11.419
98051W        W57312  29.615  19.072  10.450
98052W        W57313  20.634  32.581  10.506
98053W        W57314   5.363  12.358   3.640
98054W        W57315  16.747  13.689  14.455
98055W        W57316   0.326  26.096   3.649
98056W        W57317  17.556  36.940  12.566
98057W        W57318  44.382  40.502   1.729
98058W        W57319  36.903  10.218   0.364
98059W        W57320   3.236  25.632  11.594
98060W        W57321  44.447  17.709   4.823
98061W        W57322  19.676  31.420  10.486
98062W        W57323  15.757  25.694   4.251
98063W        W57324  25.129  16.259   4.336
98064W        W57325  21.159  22.605  11.536
98065W        W57326  26.115  14.278   0.339
98066W        W57327  26.668   5.311  10.961
98067W        W57328  11.261  37.997   0.410
98068W        W57329  14.685  20.125  12.987
98069W        W57330  14.160   6.725   1.239
98070W        W57331   9.832   2.379   0.735
98071W        W57332  35.007  10.227  13.525
98072W        W57333   7.780  35.396   0.913
98073W        W57334   4.309  44.437   0.275
98074W        W57335   4.401  25.106  14.359
98075W        W57336  35.030  34.892  10.990
98076W        W57337  38.449  16.668  14.348
98077W        W57338  41.536  28.527   0.468
98078W        W57339  19.205  11.759   2.885
98079W        W57340   9.214   4.374   3.652
98080W        W57341  14.292  22.745   4.697
98081W        W57342  41.876  36.088   0.261
98082W        W57343  14.608  14.796   0.912
98083W        W57344  19.578  14.174  12.941
98084W        W57345  39.812  30.973   4.834
98085W        W57346   8.703  14.792   2.182
98086W        W57347  34.901  32.958   3.805
98087W        W57348  36.927  31.607   1.257
98088W        W57349  24.085  32.495  11.566
98089W        W57350  22.641  38.348   0.768
98090W        W57351  37.556  36.472   1.766
98091W        W57352   9.365  28.639  14.348
98092W        W57353  17.203   2.766  12.998
98093W        W57354   8.787  12.159   0.429
98094W        W57355  42.029  17.714  10.485
98095W        W57356  40.424  10.280   3.319
98096W        W57357   5.770  12.306   3.287
98097W        W57358  35.862  23.512   0.849
98098W        W57359  26.618   4.219  14.925
98099W        W57360   8.783  37.005  13.367
98100W        W57361   8.834  42.891  13.983
98101W        W57362  38.434  42.794  14.884
98102W        W57363  17.661   4.811  11.569
98103W        W57364  21.077   4.854   4.625
98104W        W57365  16.254  32.054  11.381
98105W        W57366  35.022  16.192  13.519
98106W        W57367  43.501  38.927  13.379
98107W        W57368  24.481  20.173  11.046
98108W        W57369  33.012  27.144   0.401
98109W        W57370  38.860  10.188   4.259
98110W        W57371  17.797  21.748   2.894
98111W        W57372   2.739  10.221  13.801
98112W        W57373  21.051  18.639   0.735
98113W        W57374  30.534   7.818  10.465
98114W        W57375  36.054  29.153  12.468
98115W        W57376  39.043  28.628   3.742
98116W        W57377  37.974  38.923   1.425
98117W        W57378  20.178   8.351  14.462
98118W        W57379  41.530   6.232  12.453
98119W        W57380  27.012  11.242   2.344
98120W        W57381  31.915  44.496   4.308
98121W        W57382  39.479  20.166  10.501
98122W        W57383  26.989  20.197   1.220
98123W        W57384  32.428  14.722   3.763
98124W        W57385   9.790  21.097  12.373
98125W        W57386  34.561  25.574  11.431
98126W        W57387  41.338   5.258   4.117
98127W        W57388   6.722  19.704  12.403
98128W        W57389  23.016  16.160  10.481
98129W        W57390   5.294  25.021   3.166
98130W        W57391  40.537  27.116  11.413
98131W        W57392  36.547  27.084  13.527
98132W        W57393  23.075  14.133  14.911
98133W        W57394  18.199  41.317  10.604
98134W        W57395  17.715  37.907   3.166
98135W        W57396   6.191  31.573  14.983
98136W        W57397  22.152   6.739   0.762
98137W        W57398  20.575   9.361  11.035
98138W        W57399  16.710  40.799  13.354
98139W        W57400  18.601   6.692  11.483
98140W        W57401  13.748   3.845   3.720
98141W        W57402   9.202  25.511  12.032
98142W        W57403  32.467  27.679  12.374
98143W        W57404  25.969  27.952   2.259
98144W        W57405  17.115   4.259   0.902
98145W        W57406  33.559  10.165   1.305
98146W        W57407  39.899  18.289   2.816
98147W        W57408  42.480  14.633  13.806
98148W        W57409  24.009  13.684  10.404
98149W        W57410  37.559  12.641  14.472
98150W        W57411  20.606  19.142   3.165
98151W        W57412  42.282  15.172  11.047
98152W        W57413   2.959  11.145  11.477
98153W        W57414  32.935  34.416   3.167
98154W        W57415   6.288  24.573   1.250
98155W        W57416  18.679   6.248  11.529
98156W        W57417  35.379   4.445   1.880
98157W        W57418  43.283   6.719   0.807
98158W        W57419  17.587   5.824   4.608
98159W        W57420  10.733  36.059   0.388
98160W        W57421  44.501  19.273   2.251
98161W        W57422   6.203  11.639   3.723
98162W        W57423  15.793  32.008   1.909
98163W        W57424  30.017  42.330  10.453
98164W        W57425  30.600  33.441   9.664
98165W        W57426  30.918  23.685  14.907
98166W        W57427  23.634   1.350   3.754
98167W        W57428  21.022   4.348  12.545
98168W        W57429  18.055  16.700  10.912
98169W        W57430   4.707   4.420  11.442
98170W        W57431  43.827   8.671   1.920
98171W        W57432  39.827  13.698  14.373
98172W        W57433  23.584  37.363   2.714
98173W        W57434  42.355  26.017  10.546
98174W        W57435  28.112  42.843   1.376
98175W        W57436  44.837  37.398  13.390
98176W        W57437  39.408  16.166  11.608
98177W        W57438  12.783  35.561   4.744
98178W        W57439  12.215   9.711  11.407
98179W        W57440   6.351  18.742   2.777
98180W        W57441  25.200  32.456   1.782
98181W        W57442  37.381  41.525  14.373
98182W        W57443  10.183  21.134   0.837
98183W        W57444  14.685   6.288  13.812
98184W        W57445  10.818  28.536  13.918
98185W        W57446  34.583  29.628   4.209
98186W        W57447  17.763  24.511  12.036
98187W        W57448   7.284   5.871  11.940
98188W        W57449  35.540  25.627   0.289
98189W        W57450  23.537  40.869  10.548
98190W        W57451  44.437  41.317  14.892
98191W        W57452   7.207   3.328  14.352
98192W        W57453   9.264  28.972   1.366
98193W        W57454   9.160  43.914   1.924
98194W        W57455   0.385  13.201   1.859
98195W        W57456  38.063  38.923  10.422
98196W        W57457  20.233  11.690   0.316
98197W        W57458   7.397  40.343   4.346
98198W        W57459  12.806  18.083   4.127
98199W        W57460  44.801  18.701   3.354
98200W        W57461  28.521  44.785   3.261
98201W        W57462  24.071  36.972  14.365
98202W        W57463  29.576  27.458   2.311
98203W        W57464   2.298  31.602  13.421
98204W        W57465  29.496   9.856   4.310
98205W        W57466  24.710  14.247   0.832
98206W        W57467  10.657  20.133  11.455
98207W        W57468  22.097  23.704  14.970
98208W        W57469  31.574  42.953  14.376
98209W        W57470   2.947  42.953  12.945
98210W        W57471  21.627   3.336   0.883
98211W        W57472  32.542   6.340   1.433
98212W        W57473  12.630   7.717   3.335
98213W        W57474  13.612  34.520   2.397
98214W        W57475  15.620  23.558   4.737
98215W        W57476  44.941   2.956   3.773
98216W        W57477  16.300   5.922   2.837
98217W        W57478  13.311  16.661   3.332
98218W        W57479   8.807  36.548  12.406
98219W        W57480  24.190  42.460  10.590
98220W        W57481  43.979  41.352  13.408
98221W        W57482  11.220  23.202  14.988
98222W        W57483  20.601  30.934   3.642
98223W        W57484  24.714  21.254  13.407
98224W        W57485   2.944  35.078  14.958
98225W        W57486  42.439  33.077   3.223
98226W        W57487  21.561  38.060   2.295
98227W        W57488  13.789   4.708   4.673
98228W        W57489  43.346  30.023   2.753
98229W        W57490  21.548   8.776   2.817
98230W        W57491  13.815  24.709  12.561
98231W        W57492  25.510   8.720  11.050
98232W        W57493  42.455  31.530  12.015
98233W        W57494  24.053   0.373  14.306
98234W        W57495   3.460  26.061   2.687
98235W        W57496  22.137  27.026  14.924
98236W        W57497   5.744   8.786   2.336
98237W        W57498   0.257  42.869  13.027
98238W        W57499  29.113  34.520  14.795
98239W        W57500   7.239  37.857  11.468
98240W        W57501   0.494  33.451  10.979
98241W        W57502  23.218  29.162   1.238
98242W        W57503  27.502   2.913  14.282
98243W        W57504  15.202  21.732  11.576
98244W        W57505   3.745   3.931  11.439
98245W        W57506  15.091  34.996  13.488
98246W        W57507   0.349  37.525  11.917
98247W        W57508  15.582   6.271   4.644
98248W        W57509  43.500  31.517   3.668
98249W        W57510   6.244  44.819   2.302
98250W        W57511  13.257  10.749  10.949
98251W        W57512  42.896  25.160  11.035
98252W        W57513  15.249   5.435   0.320
98253W        W57514  18.146  12.222   3.856
98254W        W57515  43.009   0.954   3.341
98255W        W57516  25.007  38.847  11.451
98256W        W57517  20.146  21.679   4.256
98257W        W57518  24.171  37.864  11.937
98258W        W57519  20.207  14.666  13.483
98259W        W57520  39.448  29.441  12.950
98260W        W57521   7.333  33.039  12.061
98261W        W57522  21.134  34.069   3.644
98262W        W57523   2.965  30.042   2.266
98263W        W57524  13.773   0.276   1.331
98264W        W57525  32.414  39.900   4.313
98265W        W57526  28.656   3.265   1.222
98266W        W57527  27.645  38.339  14.959
98267W        W57528  42.876  40.866   2.209
98268W        W57529  41.439  19.280  10.473
98269W        W57530  19.779  11.208  12.391
98270W        W57531  14.101   1.769   1.427
98271W        W57532   3.798   4.904  14.999
98272W        W57533  10.260  27.949  11.874
98273W        W57534  12.620   0.769  11.560
98274W        W57535  33.006  30.108  14.463
98275W        W57536  17.235  37.460   2.329
98276W        W57537  29.492   5.854   0.319
98277W        W57538   8.731  43.946   3.308
98278W        W57539   6.284  26.134  12.504
98279W        W57540  32.511  18.134  12.412
98280W        W57541  21.559   8.670   1.737
98281W        W57542   1.351  33.428   1.784
98282W        W57543  30.446  21.601  11.073
98283W        W57544   5.838  11.304  14.950
98284W        W57545   0.912  27.664  12.829
98285W        W57546  40.820  22.679   3.690
98286W        W57547   3.358  26.085  14.029
98287W        W57548  27.181  42.785   5.156
98288W        W57549   0.893  44.002  13.034
98289W        W57550  20.706   2.299  10.603
98290W        W57551  28.155   4.294   3.768
98291W        W57552   9.846   4.873  11.602
98292W        W57553  29.162  10.846  11.501
98293W        W57554  36.087  27.535   3.725
98294W        W57555  17.138  28.526  14.821
98295W        W57556  42.013  30.113   3.227
98296W        W57557  27.018  20.147  11.605
98297W        W57558  30.996  19.719  11.455
98298W        W57559   4.328   3.243  10.545
98299W        W57560  35.585  35.561   3.793
98300W        W57561   8.173  37.831   1.767
98301W        W57562  29.429  24.107   3.347
98302W        W57563   4.430   4.251  12.017
98303W        W57564  32.509  11.372  10.641
98304W        W57565  32.055   8.860  13.324
98305W        W57566   0.389  22.727   3.728
98306W        W57567   4.714  43.883  14.489
98307W        W57568   5.727  16.195   4.699
98308W        W57569  40.854  42.339  13.437
98309W        W57570  19.187  24.720   0.935
98310W        W57571   8.231  20.635   2.228
98311W        W57572  31.589  37.440   4.266
98312W        W57573  19.713  18.172   1.410
98313W        W57574  21.528   1.963   1.296
98314W        W57575   4.823  32.904  14.996
98315W        W57576  44.825  30.016   1.705
98316W        W57577  12.126  41.811   4.655
98317W        W57578   2.912  29.038   3.835
98318W        W57579  35.996  12.814  12.864
98319W        W57580  10.197  16.094  14.889
98320W        W57581  37.427  23.201  13.929
98321W        W57582  37.974  39.811  10.997
98322W        W57583  14.203  16.089   3.228
98323W        W57584  30.585  19.241   4.631
98324W        W57585  21.229  27.137  12.462
98325W        W57586  33.439  26.682   2.236
98326W        W57587  20.577  24.503   5.570
98327W        W57588   6.205  36.585  13.493
98328W        W57589   1.812  16.808  14.857
98329W        W57590  24.480   8.854   3.723
98330W        W57591  44.310  29.613  11.033
98331W        W57592  44.445  14.676  12.892
98332W        W57593  21.724  18.217  10.044
98333W        W57594  10.788   4.837  12.383
98334W        W57595  28.109  18.111   2.215
98335W        W57596   9.830  39.475   3.248
98336W        W57597  22.075  17.731  10.943
98337W        W57598  26.568   1.340  12.450
98338W        W57599  36.512  38.055   3.822
98339W        W57600  21.680   5.898  10.456
98340W        W57601  13.808   0.963  14.988
98341W        W57602   6.368   5.270   3.652
98342W        W57603   0.296   5.219   0.879
98343W        W57604  42.977   1.238   4.760
98344W        W57605  44.369  28.566   4.829
98345W        W57606  38.951  12.252   2.758
98346W        W57607  43.782  44.836  12.917
98347W        W57608  31.987  33.487   1.893
98348W        W57609   0.324  23.619  13.888
98349W        W57610  39.950  40.947  13.345
98350W        W57611  12.346  31.916   0.856
98351W        W57612  40.882  41.505   2.323
98352W        W57613  43.862   2.234   0.347
98353W        W57614  15.580  23.027   2.376
98354W        W57615   7.675  33.082   3.642
98355W        W57616  31.926  19.561   2.311
98356W        W57617   3.459   5.196  11.548
98357W        W57618  20.571  38.989  12.505
98358W        W57619  25.088  35.910  11.064
98359W        W57620   2.284  33.044  11.491
98360W        W57621   4.403  14.797   0.386
98361W        W57622  15.150   7.865   4.238
98362W        W57623  14.176  19.245  13.921
98363W        W57624  37.466  44.396  10.518
98364W        W57625   3.272   1.809  14.445
98365W        W57626  23.115  41.379   1.244
98366W        W57627  35.016  27.646   0.767
98367W        W57628  12.702   5.394   2.798
98368W        W57629  23.676  40.982  11.384
98369W        W57630  30.053   6.298   1.799
98370W        W57631  44.949  25.086   1.727
98371W        W57632  38.004   1.276   2.802
98372W        W57633  38.885  13.779   4.699
98373W        W57634  17.789  29.517   1.736
98374W        W57635  30.511  31.463  10.440
98375W        W57636  24.987   7.236  14.024
98376W        W57637  28.980  38.982   3.712
98377W        W57638  11.645  13.196  14.861
98378W        W57639  30.628  12.336   5.733
98379W        W57640   1.821   7.725   4.273
98380W        W57641  25.566  28.526   2.316
98381W        W57642  30.035  42.324   0.346
98382W        W57643  18.207  33.031   1.413
98383W        W57644  40.542  20.068   0.299
98384W        W57645  34.387   0.263  13.338
98385W        W57646  11.343   4.246  14.345
98386W        W57647  14.610   1.362  14.395
98387W        W57648  27.501  26.110   4.795
98388W        W57649  21.646  27.519   0.445
98389W        W57650  12.613  35.106   0.896
98390W        W57651   5.699  15.327   4.220
98391W        W57652  16.205  18.181  11.492
98392W        W57653  15.144  23.575   1.446
98393W        W57654  27.186   4.440   0.830
98394W        W57655  23.029  13.136  11.446
98395W        W57656   0.969   3.883   3.378
98396W        W57657  29.923   0.454  13.802
98397W        W57658  26.023  33.557  11.059
98398W        W57659  17.561   7.176   0.946
98399W        W57660  35.885  27.526  14.852
98400W        W57661  33.929  37.373   4.315
98401W        W57662  43.416  25.628   2.841
98402W        W57663  41.411  25.079   2.732
98403W        W57664  22.047  23.033   2.377
98404W        W57665  17.185  34.898  10.526
98405W        W57666  38.422   9.384  14.012
98406W        W57667  24.120   3.341   9.968
98407W        W57668  42.281  20.534   4.152
98408W        W57669  23.596  12.613   3.348
98409W        W57670   9.337  10.841   2.688
98410W        W57671   6.192  44.815   0.449
98411W        W57672   5.374  22.185   1.722
98412W        W57673  29.519  19.108   0.359
98413W        W57674   4.794  12.721   0.836
98414W        W57675  27.583  27.168   0.424
98415W        W57676  35.502  20.212  11.893
98416W        W57677  41.983   6.693   2.871
98417W        W57678  35.585  41.920   1.773
98418W        W57679   4.778  32.961  11.409
98419W        W57680  24.723  17.760   3.783
98420W        W57681  31.555  20.064   0.920
98421W        W57682  21.600  27.557  13.857
98422W        W57683  27.610  26.049  14.030
98423W        W57684  17.170  11.795  12.514
98424W        W57685  26.593  29.573  12.505
98425W        W57686  41.923  44.340   4.201
98426W        W57687  19.240  44.955   0.340
98427W        W57688  22.605  17.145   4.254
98428W        W57689  33.436  40.480  13.382
98429W        W57690  23.172  35.963   1.918
98430W        W57691  11.225  22.110   1.861
98431W        W57692  27.014  25.704  13.385
98432W        W57693   6.824  13.261  12.460
98433W        W57694   4.305   2.867   3.188
98434W        W57695   0.752  10.809   1.742
98435W        W57696  30.970  20.146   3.856
98436W        W57697   4.812  21.136   0.250
98437W        W57698  23.129   3.898   2.367
98438W        W57699  17.139  23.190  12.505
98439W        W57700  40.333  15.801  13.953
98440W        W57701   2.836  36.524   0.840
98441W        W57702  43.387  34.949  14.830
98442W        W57703  44.505  44.758   2.343
98443W        W57704  15.805   9.202   3.856
98444W        W57705   1.970  32.026   5.222
98445W        W57706  13.731  35.994  11.111
98446W        W57707  44.915  44.804   2.299
98447W        W57708  16.109   1.845   1.314
98448W        W57709  31.565   2.277  14.447
98449W        W57710  26.146  21.628   3.697
98450W        W57711  11.701  39.041   4.763
98451W        W57712   0.895  11.803   3.357
98452W        W57713  33.555   8.795  12.382
98453W        W57714  42.999  27.511   0.250
98454W        W57715  24.628   0.445  12.354
98455W        W57716   1.256  13.236  11.410
98456W        W57717  29.644   1.395   4.749
98457W        W57718  11.777  18.746   4.645
98458W        W57719  34.558  12.841   1.868
98459W        W57720  38.497  28.455  14.373
98460W        W57721  36.495   3.271   1.226
98461W        W57722  40.024  32.586  10.619
98462W        W57723  13.284  10.796  14.970
98463W        W57724  40.800  17.070  11.857
98464W        W57725  13.779  10.362  14.928
98465W        W57726  42.395  18.701  10.919
98466W        W57727  20.226  21.120  10.590
98467W        W57728  24.705  42.472   4.325
98468W        W57729  15.694   7.878   5.308
98469W        W57730  44.967  41.975   4.286
98470W        W57731  14.219  39.322  13.865
98471W        W57732  32.573  20.664  13.920
98472W        W57733  24.542   7.713  11.483
98473W        W57734  33.436  26.195  12.551
98474W        W57735  37.838  14.267   5.214
98475W        W57736  38.505   5.932  10.547
98476W        W57737  33.418  38.409  12.526
98477W        W57738  21.201  40.871   2.195
98478W        W57739   4.878  36.400   5.171
98479W        W57740   4.854  28.041  12.049
98480W        W57741   0.287  33.009   2.736
98481W        W57742   8.167   4.709  12.882
98482W        W57743  19.275  37.374   0.808
98483W        W57744  17.112  18.162  14.980
98484W        W57745  23.677   3.713  13.061
98485W        W57746  32.970  24.212  12.440
98486W        W57747  14.693  31.611   0.801
98487W        W57748  42.944   9.790   3.797
98488W        W57749  41.970  11.179   4.663
98489W        W57750  11.796   5.772  13.506
98490W        W57751  37.462  17.698  14.452
98491W        W57752  25.123   9.217  12.932
98492W        W57753  39.344  35.942   1.819
98493W        W57754  43.944  11.801   1.851
98494W        W57755  10.831  17.571  12.930
98495W        W57756  38.468   2.937  14.885
98496W        W57757  36.937   1.828  13.988
98497W        W57758   0.434  11.693   2.672
98498W        W57759  29.523  25.598  11.515
98499W        W57760  10.333   9.383   2.836
98500W        W57761  31.562  40.025  13.490
98501W        W57762   1.317  38.956  12.049
98502W        W57763  15.768   1.320  12.422
98503W        W57764  21.569  22.172  14.418
98504W        W57765  31.148  21.106   1.756
98505W        W57766  28.560   1.746   0.456
98506W        W57767   3.238  27.988   2.783
98507W        W57768  25.546   1.846   2.283
98508W        W57769   1.885   9.756   3.336
98509W        W57770  12.159  25.592  10.926
98510W        W57771   4.351   3.938  13.038
98511W        W57772  20.259  39.387   4.644
98512W        W57773  44.322  15.802   3.357
98513W        W57774  26.004   9.853   4.729
98514W        W57775  43.349  43.355   1.740
98515W        W57776  23.573  23.017   0.851
98516W        W57777  32.077  28.138  14.021
98517W        W57778   0.753  37.371   4.790
98518W        W57779  12.709  38.841  13.389
98519W        W57780  32.481  14.174  12.418
98520W        W57781  32.411   5.297   0.837
98521W        W57782  15.624  15.665   2.871
98522W        W57783  19.655   7.878   0.439
98523W        W57784  23.608  20.738   1.449
98524W        W57785   2.310  38.911  12.433
98525W        W57786  40.544  24.536  10.634
98526W        W57787  29.500  42.488   2.680
98527W        W57788  23.523  37.936   4.764
98528W        W57789  27.946  18.180  12.943
98529W        W57790  13.271   4.268  11.927
98530W        W57791  31.140  15.102   2.689
98531W        W57792  12.316  40.053   1.919
98532W        W57793  16.189  21.692   3.199
98533W        W57794  21.161  32.989   0.408
98534W        W57795  19.619   5.221  11.489
98535W        W57796   1.880  27.119   4.282
98536W        W57797  32.076  40.883   9.546
98537W        W57798  39.395   2.266  14.908
98538W        W57799  18.101   2.371  12.946
98539W        W57800  34.609  34.946   3.751
98540W        W57801  17.145  29.124  11.047
98541W        W57802   1.471  14.660   3.336
98542W        W57803  15.682  33.530   4.128
98543W        W57804  33.050  39.490   2.707
98544W        W57805  21.136  42.432  13.980
98545W        W57806  35.003  40.021   4.151
98546W        W57807  37.996   8.199  13.976
98547W        W57808  18.162   8.195  13.512
98548W        W57809  13.741  43.899   0.918
98549W        W57810  21.636  12.270   3.832
98550W        W57811  19.259  14.252  14.786
98551W        W57812  28.964  33.587   4.318
98552W        W57813  37.975   3.894  10.481
98553W        W57814   7.220   1.933  11.487
98554W        W57815  41.037  34.388  10.983
98555W        W57816  21.233   3.834   2.780
98556W        W57817  26.059  26.164   4.630
98557W        W57818  33.034  12.770   1.908
98558W        W57819  18.688  26.161   4.704
98559W        W57820  11.211   6.818  10.145
98560W        W57821  39.505  29.604   2.901
98561W        W57822  32.921   4.288  10.944
98562W        W57823  41.305  25.565   3.295
98563W        W57824  10.238  33.426   2.849
98564W        W57825   5.806  21.226   2.267
98565W        W57826   9.684   5.395   3.820
98566W        W57827  31.591   2.755   0.901
98567W        W57828  38.549  19.622  14.818
98568W        W57829  25.639  44.424  11.604
98569W        W57830  14.781  25.591  13.377
98570W        W57831  25.498  26.985  14.945
98571W        W57832  43.481  19.203   1.783
98572W        W57833  27.130  32.470   0.329
98573W        W57834   8.788  23.555  11.959
98574W        W57835  20.133  38.057   1.823
98575W        W57836   7.703  39.338  11.518
98576W        W57837  21.634   6.892   0.823
98577W        W57838  11.151  32.066   4.343
98578W        W57839  43.321   0.360  11.572
98579W        W57840  28.484  42.525   1.767
98580W        W57841   1.284  21.610   2.267
98581W        W57842  18.550  28.510  14.977
98582W        W57843  27.957  11.292   0.846
98583W        W57844   2.423  24.109   2.206
98584W        W57845   6.217  33.498   2.676
98585W        W57846  40.045  16.570  11.015
98586W        W57847  42.904  22.519   5.214
98587W        W57848  11.309   9.362  12.449
98588W        W57849  34.599  36.581  13.823
98589W        W57850  29.095  22.620  13.926
98590W        W57851  38.472  33.108  10.450
98591W        W57852  43.510  31.140  11.077
98592W        W57853  13.218  36.539  14.014
98593W        W57854  35.051  14.829   4.782
98594W        W57855   8.291  23.492  14.837
98595W        W57856   6.902   4.332   4.706
98596W        W57857   3.440  43.371   3.864
98597W        W57858   1.905  24.571   4.692
98598W        W57859  11.668   6.789  14.456
98599W        W57860  40.887   4.766   3.233
98600W        W57861  30.433  31.571   1.388
98601W        W57862  31.135   6.881  14.431
98602W        W57863  37.557  33.889   3.347
98603W        W57864  27.664  37.043   4.243
98604W        W57865  22.173  28.678   2.889
98605W        W57866  35.030   3.441   5.297
98606W        W57867  18.078  15.798   1.349
98607W        W57868  13.341  43.383  13.064
98608W        W57869   2.953  35.526   2.262
98609W        W57870  28.525  28.139  10.133
98610W        W57871  33.419   9.789   1.231
98611W        W57872   4.295  41.023  13.512
98612W        W57873  21.513  28.970   2.334
98613W        W57874  26.670  13.774   0.479
98614W        W57875  39.338  42.007  14.446
98615W        W57876  26.592   6.411   1.897
98616W        W57877  16.079  42.970  13.922
98617W        W57878   6.322  26.562  11.872
98618W        W57879  17.800  17.107   5.258
98619W        W57880  42.861  42.420   0.813
98620W        W57881   0.471   8.270  14.475
98621W        W57882  15.111  13.129  13.832
98622W        W57883   9.280   4.862   0.255
98623W        W57884  33.534  38.964  14.975
98624W        W57885  23.631  19.281  10.500
98625W        W57886  20.682  33.550   1.928
98626W        W57887  40.425   1.324  12.913
98627W        W57888  21.238   0.432  13.920
98628W        W57889  27.165  14.193   0.266
98629W        W57890  30.132  15.593   2.869
98630W        W57891  14.816  16.581  12.972
98631W        W57892  23.555  31.955   4.649
98632W        W57893  38.570  22.695  14.925
98633W        W57894   3.390  42.342   1.349
98634W        W57895  19.170  37.448   2.732
98635W        W57896  38.476  17.255  12.385
98636W        W57897  26.169  15.165   2.255
98637W        W57898   4.225  13.623  13.818
98638W        W57899  27.506  31.933  14.016
98639W        W57900  13.251  31.016   0.289
98640W        W57901   4.255  26.098  13.511
98641W        W57902  31.019  12.306  11.917
98642W        W57903  14.330  35.567   1.711
98643W        W57904  37.044  19.614   2.804
98644W        W57905   8.833  36.019  11.469
98645W        W57906   5.261  29.932   0.311
98646W        W57907  10.277  19.694  11.583
98647W        W57908   9.288  10.347  10.159
98648W        W57909  23.046  35.460  14.474
98649W        W57910  34.087   2.751  13.422
98650W        W57911  11.210  27.962   4.228
98651W        W57912  38.945  22.624  13.493
98652W        W57913  34.607  14.721   1.743
98653W        W57914   8.898  19.168   0.817
98654W        W57915  28.456   7.255   1.755
98655W        W57916  42.493  22.558   0.908
98656W        W57917   6.413  26.047  13.051
98657W        W57918  30.921  25.218   1.794
98658W        W57919  21.753  39.355  14.391
98659W        W57920  19.221   3.811   3.717
98660W        W57921  40.507  17.593  13.924
98661W        W57922  42.949  20.044   0.916
98662W        W57923  38.050  31.057  12.095
98663W        W57924  16.575  13.333   2.338
98664W        W57925   1.411   6.688   3.306
98665W        W57926  32.462  29.468  11.404
98666W        W57927  24.630   7.231   0.773
98667W        W57928  18.727  14.242   1.379
98668W        W57929  44.912  17.634   2.370
98669W        W57930   2.462  37.830  12.533
98670W        W57931  32.629  13.258   2.241
98671W        W57932  22.147  38.330   0.392
98672W        W57933  14.184  15.302   3.753
98673W        W57934  42.461  34.097   4.334
98674W        W57935  36.427  15.657  12.480
98675W        W57936  11.353  12.692   1.222
98676W        W57937   0.385  21.215   5.272
98677W        W57938  12.622  27.115   0.463
98678W        W57939  37.028  40.885  14.888
98679W        W57940   5.846  42.000   3.717
98680W        W57941  22.635   2.729   1.316
98681W        W57942  17.790  11.291   4.802
98682W        W57943  12.715  43.438  13.026
98683W        W57944  26.061  41.807   3.374
98684W        W57945   4.921  16.725  11.073
98685W        W57946  22.199   4.356  14.348
98686W        W57947   7.226  33.988  10.417
98687W        W57948  29.992  35.538   1.277
98688W        W57949  25.037  33.951   2.686
98689W        W57950  12.131  19.757   3.322
98690W        W57951  40.019  21.187   0.440
98691W        W57952  17.592   2.445  13.475
98692W        W57953   2.225  38.940  11.428
98693W        W57954  21.737  28.612  14.023
98694W        W57955  27.126   1.960   1.734
98695W        W57956  42.942  27.485   4.615
98696W        W57957  11.322  44.325   1.716
98697W        W57958   8.845  37.501  13.440
98698W        W57959   5.289  10.154   1.307
98699W        W57960  30.083  23.691   1.759
98700W        W57961  30.963  42.330  13.042
98701W        W57962  31.938   1.811   0.752
98702W        W57963  31.403   2.746  13.417
98703W        W57964  38.993  43.944   3.202
98704W        W57965  13.632  37.350   1.423
98705W        W57966  22.124  36.540  12.446
98706W        W57967  36.435   5.272  12.472
98707W        W57968  31.033   9.182   4.824
98708W        W57969  19.597  29.115   2.295
98709W        W57970   7.171  40.864  13.862
98710W        W57971  38.540  36.564  14.870
98711W        W57972   8.217   4.244  14.307
98712W        W57973   1.381  42.880   0.264
98713W        W57974  18.644  10.279   4.661
98714W        W57975  15.650  42.835   0.348
98715W        W57976  39.868   8.900   3.654
98716W        W57977   2.313  19.761   1.294
98717W        W57978  28.075  22.721   2.368
98718W        W57979  44.415   3.265  12.959
98719W        W57980  36.431  21.023   4.306
98720W        W57981  39.524   9.777   4.709
98721W        W57982  40.881  36.383   4.824
98722W        W57983  14.742  27.520   1.823
98723W        W57984  12.644  31.907  13.981
98724W        W57985  23.703  40.935  12.046
98725W        W57986  34.953   8.233   1.731
98726W        W57987  24.638   5.433  14.491
98727W        W57988  14.297  32.572   4.236
98728W        W57989  19.625  33.519   3.329
98729W        W57990  11.254  33.609   0.791
98730W        W57991  43.282  27.549   3.282
98731W        W57992  12.820  15.726  11.605
98732W        W57993   4.808  43.462   1.413
98733W        W57994  10.855  19.567  14.798
98734W        W57995   8.814  27.002  13.337
98735W        W57996   9.689  34.543   3.369
98736W        W57997   9.245  10.876  10.542
98737W        W57998   6.300   2.408   1.849
98738W        W57999  22.237  12.304  13.907
98739W        W58000   1.285  12.682   1.912
98740W        W58001  29.110  17.739   0.911
98741W        W58002   0.265  25.626   0.417
98742W        W58003  24.639  36.503  11.089
98743W        W58004  33.978  43.420   1.918
98744W        W58005   9.216  10.230  13.533
98745W        W58006  41.293   5.263  13.480
98746W        W58007  17.189  44.462   1.355
98747W        W58008  30.491  24.656   2.881
98748W        W58009   3.766  38.355  12.389
98749W        W58010   2.915  33.411  13.475
98750W        W58011   2.240  43.483  12.069
98751W        W58012  38.416  29.519  14.443
98752W        W58013  33.940   6.333   4.236
98753W        W58014   4.716  11.129  10.987
98754W        W58015  44.804  43.476   3.721
98755W        W58016   8.654  24.154   0.457
98756W        W58017  16.733   8.758   1.313
98757W        W58018  19.662  34.424   4.696
98758W        W58019  12.811  12.786   3.637
98759W        W58020  34.496  13.717  11.997
98760W        W58021   2.443  25.514  10.621
98761W        W58022  40.016  36.405  12.999
98762W        W58023  13.349   4.770   3.306
98763W        W58024  15.229   9.372  13.450
98764W        W58025  43.006  12.345   1.426
98765W        W58026  13.209  31.009  11.990
98766W        W58027  33.939  42.512  11.510
98767W        W58028   3.843  42.348   1.412
98768W        W58029   8.229  43.398   3.197
98769W        W58030  39.890  19.709   4.811
98770W        W58031   8.340   3.730  11.089
98771W        W58032  23.211  34.878   2.215
98772W        W58033   4.401   4.731  11.593
98773W        W58034   5.254  15.247   0.462
98774W        W58035  15.242  13.726   2.333
98775W        W58036  24.108   3.876   0.798
98776W        W58037  21.607  41.909   3.362
98777W        W58038  42.841  22.175  11.948
98778W        W58039  24.526   6.328   2.216
98779W        W58040  40.472  43.341  13.420
98780W        W58041   5.824  18.605  10.940
98781W        W58042  15.620  24.001  12.889
98782W        W58043  19.212  29.437  11.488
98783W        W58044  40.404  38.860  14.476
98784W        W58045   3.856  14.174  12.356
98785W        W58046  41.490  10.747  11.060
98786W        W58047  40.944  25.076   0.795
98787W        W58048  30.042  33.513  12.343
98788W        W58049  40.492   7.764  14.383
98789W        W58050  44.429  13.686  10.584
98790W        W58051   0.258  35.497   3.190
98791W        W58052  42.441  22.716  14.339
98792W        W58053  27.191   5.807   4.718
98793W        W58054  12.769  42.373  14.939
98794W        W58055  36.481  36.525  12.498
98795W        W58056   1.443  20.260  14.973
98796W        W58057  40.923  17.794   0.329
98797W        W58058  16.141  15.240   1.403
98798W        W58059  17.136   6.407   1.903
98799W        W58060  22.057  20.167   2.895
98800W        W58061  24.148  29.518   9.981
98801W        W58062  44.263  41.349   3.763
98802W        W58063   1.451  36.099   1.412
98803W        W58064  36.961  27.654  14.338
98804W        W58065   1.932   2.326   3.169
98805W        W58066  42.300  13.630   4.623
98806W        W58067  37.557  24.598   2.859
98807W        W58068   4.263   0.350  10.591
98808W        W58069  30.473  31.154   2.312
98809W        W58070  13.726  12.767   0.788
98810W        W58071  28.929  32.122  11.918
98811W        W58072  33.519   1.380  10.570
98812W        W58073  30.543  27.685   1.312
98813W        W58074  40.876  36.034   4.807
98814W        W58075  31.960  19.775  14.975
98815W        W58076   7.782  33.398  10.977
98816W        W58077  22.510  44.390   2.844
98817W        W58078   4.256  14.808   2.182
98818W        W58079   2.787  37.888   2.266
98819W        W58080  27.625  18.731  14.875
98820W        W58081   2.889  33.930   0.279
98821W        W58082  11.307  34.370   3.737
98822W        W58083   1.962  24.667  12.443
98823W        W58084  30.114  31.065   2.692
98824W        W58085  14.712   6.338  12.095
98825W        W58086  33.874  42.318  11.121
98826W        W58087  26.662  17.657  13.905
98827W        W58088  16.097  12.249  13.960
98828W        W58089  33.449  26.117   1.227
98829W        W58090  39.397   3.254  11.957
98830W        W58091  12.141  20.581   4.681
98831W        W58092  12.815  25.998  14.292
98832W        W58093  14.806  33.481  14.985
98833W        W58094  32.979  22.165  14.326
98834W        W58095  20.084   7.826  11.889
98835W        W58096  34.496  23.582  14.961
98836W        W58097  30.005  39.339   2.415
98837W        W58098   0.266  44.281  10.945
98838W        W58099  18.227   5.357   3.362
98839W        W58100  29.951  42.837  12.435
98840W        W58101   5.858   2.450   0.759
98841W        W58102  11.638  41.314  11.427
98842W        W58103  22.713  20.041  11.968
98843W        W58104  10.363   3.770  14.940
98844W        W58105  42.320   8.375   4.125
98845W        W58106  32.140  16.213  11.979
98846W        W58107  27.667  41.978   3.267
98847W        W58108   9.205  23.079  12.900
98848W        W58109  27.498  31.140  11.488
98849W        W58110  41.811  26.520   2.341
98850W        W58111   7.346  36.917   4.270
98851W        W58112   6.746  29.967   4.703
98852W        W58113   6.890  38.410  13.378
98853W        W58114  26.042   5.433   0.342
98854W        W58115  43.857  24.696   1.276
98855W        W58116  15.147  35.976   2.858
98856W        W58117   8.888  11.817  13.384
98857W        W58118  41.966   2.298   1.345
98858W        W58119  35.386  19.269  12.371
98859W        W58120  29.628  27.011  11.498
98860W        W58121  16.649  30.516   1.357
98861W        W58122   2.376  10.824   3.767
98862W        W58123  30.440  26.501   1.836
98863W        W58124  29.009  22.591   0.890
98864W        W58125  23.514  23.010  13.975
98865W        W58126   6.359  43.466   4.695
98866W        W58127  16.781   7.199   1.432
98867W        W58128  12.160  12.675   9.926
98868W        W58129   2.311   0.441   0.263
98869W        W58130  23.696  28.534  11.480
98870W        W58131   0.843   9.323   4.295
98871W        W58132   0.336  21.541   4.266
98872W        W58133  38.945  34.376  11.522
98873W        W58134  24.623  27.127   1.259
98874W        W58135  35.060  11.822   1.751
98875W        W58136  40.958  42.386  11.974
98876W        W58137   7.351  13.652   4.262
98877W        W58138  35.426  39.998  12.951
98878W        W58139  25.979  43.344  12.549
98879W        W58140  34.866  42.466  12.860
98880W        W58141  42.898  39.032   3.640
98881W        W58142  44.375   2.297  13.510
98882W        W58143  39.946  21.596  14.405
98883W        W58144  31.587  44.434   3.676
98884W        W58145  23.187  17.776  10.547
98885W        W58146  43.772  41.369   3.179
98886W        W58147  22.583  31.470   1.237
98887W        W58148   0.370   1.756   0.783
98888W        W58149  10.178   9.193   2.327
98889W        W58150  18.286  39.884  14.291
98890W        W58151  27.024  12.332  12.436
98891W        W58152  12.769  25.513  10.975
98892W        W58153  35.965  10.864  13.457
98893W        W58154  24.563   5.212   3.732
98894W        W58155  15.609  19.154  10.511
98895W        W58156  33.617  17.191   4.185
98896W        W58157  29.146  24.990  12.056
98897W        W58158  43.908  33.926  13.367
98898W        W58159  32.622   0.764  13.952
98899W        W58160  29.537  28.159   0.858
98900W        W58161  43.954  36.901  13.891
98901W        W58162  22.064  40.355  14.387
98902W        W58163  32.032  10.305   1.700
98903W        W58164  35.515  20.708   2.799
98904W        W58165  24.983   8.309   4.605
98905W        W58166  12.746  36.987   1.371
98906W        W58167  23.632  23.730  10.912
98907W        W58168  28.672   2.460   0.773
98908W        W58169  11.355  17.091   3.678
98909W        W58170  28.062  11.215   4.186
98910W        W58171  31.918   6.680  13.418
98911W        W58172  13.248  34.982   1.364
98912W        W58173  18.687  25.571  11.568
98913W        W58174  14.630   5.203  14.010
98914W        W58175  25.028  39.914  13.841
98915W        W58176  36.880  34.498  14.374
98916W        W58177  11.197  33.581   4.115
98917W        W58178  12.817  40.988  10.980
98918W        W58179  30.076  40.896   0.414
98919W        W58180   8.830  18.706   3.749
98920W        W58181  11.294  41.453  11.544
98921W        W58182  35.104  32.070   3.694
98922W        W58183  38.419   5.338   2.388
98923W        W58184  13.649  20.539   1.725
98924W        W58185  34.497  28.663   4.333
98925W        W58186  16.751  10.362   3.329
98926W        W58187   4.886  36.482   1.729
98927W        W58188  33.066  35.081  14.996
98928W        W58189  17.111  12.799   2.212
98929W        W58190  13.684  39.388  13.961
98930W        W58191  21.070  34.528   3.746
98931W        W58192  39.506   9.828  10.457
98932W        W58193  27.688  40.967  10.594
98933W        W58194  25.995  38.045  10.542
98934W        W58195   2.917  28.036   4.688
98935W        W58196  14.617  44.789   3.362
98936W        W58197   9.677   6.887   2.686
98937W        W58198  11.247   2.886   4.695
98938W        W58199  38.519   6.355   4.813
98939W        W58200  12.676  16.307   3.294
98940W        W58201  14.307  13.728  12.961
98941W        W58202  30.437  22.166   0.417
98942W        W58203   2.748  44.972   2.189
98943W        W58204  31.508  41.872  10.582
98944W        W58205  18.546  31.406   1.305
98945W        W58206  44.280  32.993   1.902
98946W        W58207  34.485  34.935  10.574
98947W        W58208  24.016  32.078  11.960
98948W        W58209  22.051  28.952  10.575
98949W        W58210  11.176   2.732   3.808
98950W        W58211  17.272  36.469  10.425
98951W        W58212   1.788  11.322   4.834
98952W        W58213  28.110  15.817   1.895
98953W        W58214   4.417  44.826  12.917
98954W        W58215  39.371  31.899  11.856
98955W        W58216  22.697  27.552   2.234
98956W        W58217   1.444  13.622   2.370
98957W        W58218   1.405  41.412  13.505
98958W        W58219  27.086  25.599   4.123
98959W        W58220   3.861   1.780  10.894
98960W        W58221  36.952   6.816  13.954
98961W        W58222   6.190  30.641  10.584
98962W        W58223  37.041  40.815   1.761
98963W        W58224  33.011  16.257   4.666
98964W        W58225  40.797  16.678   4.307
98965W        W58226  21.132   3.432   3.822
98966W        W58227  38.469  20.528   2.368
98967W        W58228  13.317  31.903  14.019
98968W        W58229   9.151   4.771   0.777
98969W        W58230  28.486   8.715   2.884
98970W        W58231  41.814  42.462   0.305
98971W        W58232  42.820  43.944   3.278
98972W        W58233  40.317   4.884   4.205
98973W        W58234  39.037  26.506  13.434
98974W        W58235   8.741  20.110  10.574
98975W        W58236   5.196  44.834   3.182
98976W        W58237  24.028  39.393  11.410
98977W        W58238  17.081  12.751   1.290
98978W        W58239   7.696  41.458   1.804
98979W        W58240  34.885  35.008  13.869
98980W        W58241  13.269  13.704   3.191
98981W        W58242   6.277  29.639   4.679
98982W        W58243  10.229  22.080  11.887
98983W        W58244  28.980  11.743  14.890
98984W        W58245   3.917  31.558  14.888
98985W        W58246  16.288   2.920   5.204
98986W        W58247  25.575  22.627  10.424
98987W        W58248  39.528  10.324  12.517
98988W        W58249   1.882  15.256   2.352
98989W        W58250  18.731  27.646  14.287
98990W        W58251  17.613  44.809   4.838
98991W        W58252  32.902   3.311   4.248
98992W        W58253  27.952  24.545   0.775
98993W        W58254  35.477  43.887  14.467
98994W        W58255  25.990   3.421  12.829
98995W        W58256  38.998  43.003  14.773
98996W        W58257  17.165  25.661  10.901
98997W        W58258  21.530   0.957   3.284
98998W        W58259  24.220  19.567  13.902
98999W        W58260  17.628  31.621  10.588
99000W        W58261   3.914   1.385  14.791
99001W        W58262  13.212  32.890   0.889
99002W        W58263  44.463  20.192   1.804
99003W        W58264  13.806  11.239  13.503
99004W        W58265   6.357  31.006  13.407
99005W        W58266  21.656  14.730   1.833
99006W        W58267   9.676  22.149  11.129
99007W        W58268  32.009  41.926   5.088
99008W        W58269   2.383   6.363  13.995
99009W        W58270  42.919  36.998  11.471
99010W        W58271   8.249   4.736   2.254
99011W        W58272  34.042  40.401   1.848
99012W        W58273   9.882  36.954  10.630
99013W        W58274  12.779  26.683   0.797
99014W        W58275  27.501  37.890  12.830
99015W        W58276  31.603   1.978  12.475
99016W        W58277  41.401  27.098   1.712
99017W        W58278  22.164  33.878  11.892
99018W        W58279  33.545   8.789  12.957
99019W        W58280  16.168  32.598   4.719
99020W        W58281   2.372  17.076   4.193
99021W        W58282  18.268  24.617   0.276
99022W        W58283  37.523  43.007  13.369
99023W        W58284  27.652  39.016  10.584
99024W        W58285   2.350  14.768   2.719
99025W        W58286   9.671  25.626   2.828
99026W        W58287   1.956  42.419   3.871
99027W        W58288  15.754  25.166  11.001
99028W        W58289   3.909   2.809   0.296
99029W        W58290  20.571  18.237  12.417
99030W        W58291   2.258  17.234  10.046
99031W        W58292  36.561  41.323  12.046
99032W        W58293  29.128   9.651   2.310
99033W        W58294  36.983   5.690  14.997
99034W        W58295  16.665  21.717  13.822
99035W        W58296  20.610  41.446   0.736
99036W        W58297   6.822   5.245  10.535
99037W        W58298  29.114  21.688   4.597
99038W        W58299   1.798  33.478   2.230
99039W        W58300  11.736  29.595   3.697
99040W        W58301   2.361  31.134   4.695
99041W        W58302  12.219  29.098   4.760
99042W        W58303  21.676  16.607  12.904
99043W        W58304   9.277  40.527   4.794
99044W        W58305  27.967  20.707  14.869
99045W        W58306  44.893  33.090  11.502
99046W        W58307  17.157  14.210  10.928
99047W        W58308  29.938  33.597  11.123
99048W        W58309  10.146  24.128  10.614
99049W        W58310  28.618  27.622  14.467
99050W        W58311  19.759   6.869   3.700
99051W        W58312  13.121  12.146   2.330
99052W        W58313  20.742  15.802   2.786
99053W        W58314  38.918  38.491  12.045
99054W        W58315  15.811  18.256   4.627
99055W        W58316   1.951   6.247  12.862
99056W        W58317   5.921  13.332   1.854
99057W        W58318   6.753  31.115  14.848
99058W        W58319  33.547   2.331  11.407
99059W        W58320  43.864  38.977  14.875
99060W        W58321  20.053  14.683  11.570
99061W        W58322  39.497  18.683  14.856
99062W        W58323   7.334  18.711  14.286
99063W        W58324  41.040   9.790  13.870
99064W        W58325  36.525  36.400  13.012
99065W        W58326  33.449  38.356   4.773
99066W        W58327  38.923  23.170  10.544
99067W        W58328  30.577   3.920   1.387
99068W        W58329  12.650  19.121  14.438
99069W        W58330   0.343   7.361  14.940
99070W        W58331  19.601  24.619   5.156
99071W        W58332  12.153  32.064   2.796
99072W        W58333  16.784  17.631   4.132
99073W        W58334  42.020  25.037  14.895
99074W        W58335   3.432   2.808  13.054
99075W        W58336  14.729   3.751   3.305
99076W        W58337   7.342  18.134   4.147
99077W        W58338  10.660  38.051  13.822
99078W        W58339  19.071  33.397  12.989
99079W        W58340  22.649  44.350   4.674
99080W        W58341  43.345  30.970  12.926
99081W        W58342  38.928  14.614   1.773
99082W        W58343  20.658  23.211   3.671
99083W        W58344  35.909  34.031  13.489
99084W        W58345   8.852   3.339   4.835
99085W        W58346   6.215  13.703  11.110
99086W        W58347   7.192   8.344   1.913
99087W        W58348  10.801  18.640   3.371
99088W        W58349  24.696  35.461  13.328
99089W        W58350   6.723  34.387  13.325
99090W        W58351  28.044  18.619   5.161
99091W        W58352  14.249  33.087  11.440
99092W        W58353   3.894   0.375  10.606
99093W        W58354  42.011   9.788   4.635
99094W        W58355   4.913   1.864  11.985
99095W        W58356   3.793  44.990   2.269
99096W        W58357  43.297  39.318  10.444
99097W        W58358   3.378  40.388   0.287
99098W        W58359  29.158   7.828  11.527
99099W        W58360  20.274  22.108   2.249
99100W        W58361  44.944  43.792  14.419
99101W        W58362  40.923  20.674   3.784
99102W        W58363  10.667  39.011  10.138
99103W        W58364  39.961  40.864  12.918
99104W        W58365  28.126  26.523  11.933
99105W        W58366  18.107  32.476  14.493
99106W        W58367   5.264  25.024  10.610
99107W        W58368  17.189  41.427  14.916
99108W        W58369  39.394  33.108  14.888
99109W        W58370  29.553  29.495   2.218
99110W        W58371  36.489  21.677  13.499
99111W        W58372  38.477  30.973  10.969
99112W        W58373  20.098  13.320  14.278
99113W        W58374  43.802  33.975   1.234
99114W        W58375  12.685   0.886   1.268
99115W        W58376  30.641  28.961  11.102
99116W        W58377  29.614   7.253  14.510
99117W        W58378   4.851  32.557   2.900
99118W        W58379  18.079  39.390   1.860
99119W        W58380  31.041  22.523   0.332
99120W        W58381  11.797  17.645  13.452
99121W        W58382   3.876  24.546   4.801
99122W        W58383  27.686  25.588   0.866
99123W        W58384  10.356  25.530  14.326
99124W        W58385  40.468  26.192   2.744
99125W        W58386  38.537   7.727  14.970
99126W        W58387  37.923  22.055  13.485
99127W        W58388  21.166  35.433   1.406
99128W        W58389  39.920  13.222  11.952
99129W        W58390  23.634  31.485  14.005
99130W        W58391   0.965  22.655   3.693
99131W        W58392   5.319  16.207  11.927
99132W        W58393  28.110  29.948   2.724
99133W        W58394   6.277  35.896   0.781
99134W        W58395  23.704  17.290   1.443
99135W        W58396  40.427  19.603   2.296
99136W        W58397  42.027  39.386  10.462
99137W        W58398  28.447  39.847  10.419
99138W        W58399  32.067   9.358   5.238
99139W        W58400   2.939  25.633   4.684
99140W        W58401  31.596  14.165   0.802
99141W        W58402  40.350  20.732   3.725
99142W        W58403  15.719   7.343   2.337
99143W        W58404  39.522  13.675   4.279
99144W        W58405   0.492  23.548  14.464
99145W        W58406  10.655  32.984  10.630
99146W        W58407  32.511  29.001   3.712
99147W        W58408  29.436  31.460   1.230
99148W        W58409  39.536  11.631  12.428
99149W        W58410   4.739  22.093  13.419
99150W        W58411   7.712  33.395  14.451
99151W        W58412  37.861  22.650  14.872
99152W        W58413  20.086  21.263   3.374
99153W        W58414  32.032  10.877  13.345
99154W        W58415   7.714  39.528   1.799
99155W        W58416   6.801  14.709   0.742
99156W        W58417  27.483   6.269   2.302
99157W        W58418  15.203  16.235   1.241
99158W        W58419  22.574  22.640  12.832
99159W        W58420   8.684  14.299   2.410
99160W        W58421  34.042   4.391   0.399
99161W        W58422  32.027  19.569  13.414
99162W        W58423  23.686  28.618   2.796
99163W        W58424  12.211  27.978  12.574
99164W        W58425  34.900  24.601  10.931
99165W        W58426  25.660  38.845  14.985
99166W        W58427  22.600  21.559   4.665
99167W        W58428  33.482  17.235  14.303
99168W        W58429  21.727  18.564  14.321
99169W        W58430  40.420  29.144   2.858
99170W        W58431  13.155  33.443  12.990
99171W        W58432  22.738  23.548   4.763
99172W        W58433  18.655  39.471   2.214
99173W        W58434  18.558   0.388   1.282
99174W        W58435  38.959  23.554  13.005
99175W        W58436  36.873  42.784  14.278
99176W        W58437  33.886  44.361   1.307
99177W        W58438   4.820  27.548  12.400
99178W        W58439   5.420   3.365   0.439
99179W        W58440  10.743  10.805  13.462
99180W        W58441  35.856  39.936   3.732
99181W        W58442  11.750  27.944  12.872
99182W        W58443  33.903  24.537  14.783
99183W        W58444  42.455  14.794   1.746
99184W        W58445  40.470   3.455  12.400
99185W        W58446   3.445  24.588  12.558
99186W        W58447  26.485   4.265  13.845
99187W        W58448   4.738  21.158   1.423
99188W        W58449  43.871  26.582   0.421
99189W        W58450  42.880  20.560  11.097
99190W        W58451  16.685   1.914  12.556
99191W        W58452   4.813   2.870   0.246
99192W        W58453   9.731  19.602   1.387
99193W        W58454  11.657  11.180  13.819
99194W        W58455  27.134  32.016  12.412
99195W        W58456  29.656   4.782   0.397
99196W        W58457   8.877  14.794  14.820
99197W        W58458   0.894  34.386  12.080
99198W        W58459  37.912  28.170  14.951
99199W        W58460  19.060  15.658   0.327
99200W        W58461  11.862  40.888  14.392
99201W        W58462  39.988  32.578   2.854
99202W        W58463  33.388  22.173   1.760
99203W        W58464  27.192   0.983  12.382
99204W        W58465  17.112  28.177  12.998
99205W        W58466  13.309  35.922  14.905
99206W        W58467  40.901   6.707   0.856
99207W        W58468  36.541  29.142   4.675
99208W        W58469  27.955  27.019  11.387
99209W        W58470  13.327   8.673  10.574
99210W        W58471  10.709  31.927  10.618
99211W        W58472  29.957   9.787   1.409
99212W        W58473  38.475   5.278   4.206
99213W        W58474  19.658   2.874  11.398
99214W        W58475  20.240  28.070  11.610
99215W        W58476   9.741   4.856  14.393
99216W        W58477  15.754  25.508   4.822
99217W        W58478  11.625  44.985   3.670
99218W        W58479  17.106  37.399  11.557
99219W        W58480  20.659  17.765  14.986
99220W        W58481  22.243  22.615   2.190
99221W        W58482   4.775  23.727  12.948
99222W        W58483  13.624   0.897   2.750
99223W        W58484  36.057  32.549   2.730
99224W        W58485   4.220  11.628   2.320
99225W        W58486   0.389  43.383  11.933
99226W        W58487  37.485  17.654   0.821
99227W        W58488   8.785  39.927  12.555
99228W        W58489  38.551  21.520   4.298
99229W        W58490  33.991  12.658   4.606
99230W        W58491   7.176  20.194   4.837
99231W        W58492  23.658  37.033   3.864
99232W        W58493  27.491  20.190   2.895
99233W        W58494  40.469  41.432  14.826
99234W        W58495  24.678  43.784  14.027
99235W        W58496  15.708  20.267  14.998
99236W        W58497  30.142  18.673  13.910
99237W        W58498  28.603   2.955   1.231
99238W        W58499   2.741   4.348   4.259
99239W        W58500  28.080   1.272   3.363
99240W        W58501   6.314   4.240  10.544
99241W        W58502  38.999   0.368   1.745
99242W        W58503   8.824   4.291  14.502
99243W        W58504  18.107  18.224   1.801
99244W        W58505  14.625   4.359  14.766
99245W        W58506  41.489  20.071  12.985
99246W        W58507  37.957   3.750  12.452
99247W        W58508   9.195   3.300  14.285
99248W        W58509   2.425   8.401  14.906
99249W        W58510  32.986   7.390   4.619
99250W        W58511  33.412  23.535   5.113
99251W        W58512  23.582  24.105   2.376
99252W        W58513  34.495  23.599   2.393
99253W        W58514  19.152  15.823   1.351
99254W        W58515  32.633  16.191  11.544
99255W        W58516   4.918  34.421   1.933
99256W        W58517   3.220   5.751  12.407
99257W        W58518  28.166  37.949  14.467
99258W        W58519  26.621  41.292  13.890
99259W        W58520  31.033  28.150   2.802
99260W        W58521   2.356  11.357  14.947
99261W        W58522  21.756  30.615  12.452
99262W        W58523  35.399  37.395   2.265
99263W        W58524   4.831  40.004  12.006
99264W        W58525  22.154  12.708   4.704
99265W        W58526   1.426  33.548   0.852
99266W        W58527   5.293  37.444  14.430
99267W        W58528  36.003  18.783   4.662
99268W        W58529   4.352  36.971  14.443
99269W        W58530   8.739  42.309  10.915
99270W        W58531  22.569  10.746  10.918
99271W        W58532   9.751  12.173   3.326
99272W        W58533  24.159  21.633  11.066
99273W        W58534   6.741   8.283  13.358
99274W        W58535  31.105  29.946  14.890
99275W        W58536  33.010  17.789  14.883
99276W        W58537  18.287  32.039  12.341
99277W        W58538   4.739  28.455  14.869
99278W        W58539  16.155  31.027  14.870
99279W        W58540  17.771  11.325   1.290
99280W        W58541  42.475  31.606  14.976
99281W        W58542  25.522  37.953   1.879
99282W        W58543  26.991   0.853   0.394
99283W        W58544  10.690  12.647  14.980
99284W        W58545  18.136  14.651  12.050
99285W        W58546  10.787  10.202  12.911
99286W        W58547   3.261  14.709  14.359
99287W        W58548  30.030  28.555  11.984
99288W        W58549  20.605  37.398   2.282
99289W        W58550   7.673  22.628  10.477
99290W        W58551  17.573  14.301  11.489
99291W        W58552  11.345  26.143  10.520
99292W        W58553  38.033  28.647  14.313
99293W        W58554  10.202  14.731   2.416
99294W        W58555   3.811  10.804   0.822
99295W        W58556  16.807   7.694  13.307
99296W        W58557   0.799  35.994   4.281
99297W        W58558   5.896   5.783   0.926
99298W        W58559  10.178  31.618  10.583
99299W        W58560  32.964  15.299  10.419
99300W        W58561  31.000  10.283   0.857
99301W        W58562  15.291  35.032   1.285
99302W        W58563  20.527  26.972  14.761
99303W        W58564  41.911  14.753  14.400
99304W        W58565   9.362   6.784   0.246
99305W        W58566  40.929  20.528  12.458
99306W        W58567   6.844  38.399  14.425
99307W        W58568   0.491  15.753   1.853
99308W        W58569   0.267   5.803   0.387
99309W        W58570   7.817  39.546   1.355
99310W        W58571  44.942  21.130  13.799
99311W        W58572  16.300   5.746  13.831
99312W        W58573  27.188  28.137  13.354
99313W        W58574  31.484   9.881   5.659
99314W        W58575  37.963  18.658  12.905
99315W        W58576  40.529   4.448   0.927
99316W        W58577  33.531  14.185   3.850
99317W        W58578  23.695   3.327   2.754
99318W        W58579  42.400   7.748   2.691
99319W        W58580  23.163  19.592  11.866
99320W        W58581  15.794  21.589  11.111
99321W        W58582  42.902  29.959   2.264
99322W        W58583  42.013  11.224  13.390
99323W        W58584  37.401  34.992  11.906
99324W        W58585  12.142  42.017   3.316
99325W        W58586  17.704  17.557  11.015
99326W        W58587   4.720  37.934  14.002
99327W        W58588   0.965  26.514   5.143
99328W        W58589  34.996  20.622  13.530
99329W        W58590  31.111  28.992   0.302
99330W        W58591  18.765  26.700  13.477
99331W        W58592  23.987  23.589   4.668
99332W        W58593   7.703  10.746   3.202
99333W        W58594  24.719  42.347   3.164
99334W        W58595  41.858  43.279   1.852
99335W        W58596   1.299  33.429   4.167
99336W        W58597  14.647  34.025  13.022
99337W        W58598  33.916   8.273  11.094
99338W        W58599  37.938  31.140  12.559
99339W        W58600  16.730  22.226   3.742
99340W        W58601  21.121   3.834   0.265
99341W        W58602  33.953  26.630   3.309
99342W        W58603  19.087  13.646   4.127
99343W        W58604  33.389   3.438   0.771
99344W        W58605   3.928  13.316   1.327
99345W        W58606  23.021  36.959  11.455
99346W        W58607  18.641  36.412  14.889
99347W        W58608  41.999  37.883  13.307
99348W        W58609  18.144  17.101  14.455
99349W        W58610  31.593  17.678  12.474
99350W        W58611  33.582   2.327   4.737
99351W        W58612  24.688   3.275  13.057
99352W        W58613  20.081  35.537   4.634
99353W        W58614   8.369  18.624   3.268
99354W        W58615   8.343  32.528   1.433
99355W        W58616  35.560  20.748  12.352
99356W        W58617  30.611  37.038   5.187
99357W        W58618   2.753  40.888   1.889
99358W        W58619  20.172  33.102   4.134
99359W        W58620  35.385  41.978   2.416
99360W        W58621  10.757  29.568  14.925
99361W        W58622  36.047  39.417   1.431
99362W        W58623  30.112   1.450  14.427
99363W        W58624  40.898  23.047  11.443
99364W        W58625  28.044  37.458   1.304
99365W        W58626  29.971  39.408   1.433
99366W        W58627  37.509  15.767   4.657
99367W        W58628   0.857  43.814  11.510
99368W        W58629   1.901  15.241   1.406
99369W        W58630   1.311   1.868  13.513
99370W        W58631   0.263  41.526   1.238
99371W        W58632  32.941  20.596   0.755
99372W        W58633  11.247   1.801  14.907
99373W        W58634  26.557  40.956  11.509
99374W        W58635  41.962   1.873   5.299
99375W        W58636  27.558  28.156   1.871
99376W        W58637  22.225  42.972  11.387
99377W        W58638   0.950  40.528  13.886
99378W        W58639  44.930  27.448  11.089
99379W        W58640   9.335   5.815  11.985
99380W        W58641  42.425  26.517   4.757
99381W        W58642   2.737  15.776   5.101
99382W        W58643  36.885   9.876   3.293
99383W        W58644   6.741   9.157   5.673
99384W        W58645  39.422   3.427   3.870
99385W        W58646   7.774   0.784  12.060
99386W        W58647   8.354  10.325   4.758
99387W        W58648  42.010  15.599  10.604
99388W        W58649  22.217  13.718   4.164
99389W        W58650  35.448  37.551   1.858
99390W        W58651  25.685   3.838  13.859
99391W        W58652   0.428  17.758   3.653
99392W        W58653  23.060  22.113  14.469
99393W        W58654  33.425  20.631   1.340
99394W        W58655  27.673  13.748  11.869
99395W        W58656  43.320  42.477   0.848
99396W        W58657   5.311  13.124  12.009
99397W        W58658  36.450   6.870   4.282
99398W        W58659  20.732  40.858   1.379
99399W        W58660  40.945  43.871  13.346
99400W        W58661  11.222   7.350  10.615
99401W        W58662  27.974  44.330  10.946
99402W        W58663  19.159   2.365  14.286
99403W        W58664  27.641  44.270   0.951
99404W        W58665   8.350  29.092  11.880
99405W        W58666  44.275  23.622   5.287
99406W        W58667  18.556   7.354  11.860
99407W        W58668  15.607  10.877   1.731
99408W        W58669  23.113  32.554  13.902
99409W        W58670   9.194  11.705  10.642
99410W        W58671  36.536  15.220   1.808
99411W        W58672   6.701   1.927  10.539
99412W        W58673  20.710  11.720  12.978
99413W        W58674  22.081  16.141   4.317
99414W        W58675   1.936  25.496   1.212
99415W        W58676  31.944   5.367  11.865
99416W        W58677  28.102  17.291  10.577
99417W        W58678  35.393  29.162   2.898
99418W        W58679  12.253  23.555   4.273
99419W        W58680   4.217  16.687  10.937
99420W        W58681  32.895  20.734   3.232
99421W        W58682   1.954  36.535   0.447
99422W        W58683  41.538  25.008  14.452
99423W        W58684  35.435   0.782  10.933
99424W        W58685  18.774  30.570   3.749
99425W        W58686   7.787   5.886  11.984
99426W        W58687  33.042   7.245   3.332
99427W        W58688  26.088  27.179   1.711
99428W        W58689  29.649  22.606   5.102
99429W        W58690  14.264  43.851  12.028
99430W        W58691  20.126  40.993   1.256
99431W        W58692  15.770  44.277  14.471
99432W        W58693   7.847   7.847   9.596
99433W        W58694   4.701  40.432   3.153
99434W        W58695  21.247  31.062  13.988
99435W        W58696  16.080  23.555  10.553
99436W        W58697  38.006   2.822  13.951
99437W        W58698  12.227  15.283   4.143
99438W        W58699  20.704  26.584   1.332
99439W        W58700  17.234  22.006  14.797
99440W        W58701  28.668  28.475  13.448
99441W        W58702  38.344  32.943   5.740
99442W        W58703  15.815  21.148   3.377
99443W        W58704  39.858  11.132  13.476
99444W        W58705  38.821  15.304  13.327
99445W        W58706  31.153   5.797  11.104
99446W        W58707  21.072  33.487  13.966
99447W        W58708  16.191  11.203  12.933
99448W        W58709  30.505  26.977   2.838
99449W        W58710  20.152  20.164   1.377
99450W        W58711  24.218   4.759  13.418
99451W        W58712   3.236  14.214  12.084
99452W        W58713  40.395  32.953   0.795
99453W        W58714  10.374  26.691   5.201
99454W        W58715  41.488  35.441   3.386
99455W        W58716   9.204  39.405   0.814
99456W        W58717  22.605   7.728  14.801
99457W        W58718  18.087  44.852   2.728
99458W        W58719  30.096  14.773   1.272
99459W        W58720  33.419  21.563  13.938
99460W        W58721  39.480  21.559   3.704
99461W        W58722  34.118  41.873  11.868
99462W        W58723  30.159   2.246  12.007
99463W        W58724  34.910  33.944   4.693
99464W        W58725   7.348  32.629   3.818
99465W        W58726  42.806  32.464  14.427
99466W        W58727  17.177  37.354  10.107
99467W        W58728  13.613  33.487  13.442
99468W        W58729  31.624  20.125   3.166
99469W        W58730  39.407  37.391  10.526
99470W        W58731  41.472   0.275  14.797
99471W        W58732  40.487  27.955  11.078
99472W        W58733  26.963  20.644  10.948
99473W        W58734  16.584  36.569   4.294
99474W        W58735  43.872  16.704   1.372
99475W        W58736   5.268   6.774  14.774
99476W        W58737  13.640  42.509  11.043
99477W        W58738  19.661   2.276   1.739
99478W        W58739   8.719  26.007   4.143
99479W        W58740  32.994  41.861   0.839
99480W        W58741   6.217  16.638   3.222
99481W        W58742  25.085   4.858  12.912
99482W        W58743   5.880  39.976   1.377
99483W        W58744  39.363  22.057   3.148
99484W        W58745  19.595   7.198   2.850
99485W        W58746  35.523  27.637   3.274
99486W        W58747  36.506  16.619   3.352
99487W        W58748  43.428   4.384  14.407
99488W        W58749  16.145  36.359  14.831
99489W        W58750  35.595  22.657   4.146
99490W        W58751  13.281  37.932  14.500
99491W        W58752  34.377  16.145  13.368
99492W        W58753   3.342  41.308   1.436
99493W        W58754   6.414  30.030   3.721
99494W        W58755  42.424  21.662   2.212
99495W        W58756  43.435  19.194  13.016
99496W        W58757  41.473  34.430  13.938
99497W        W58758  15.819  29.122   0.351
99498W        W58759  18.584  43.414  11.596
99499W        W58760  14.795  15.318  14.491
99500W        W58761  25.136  34.946  13.377
99501W        W58762  37.363  19.670  10.909
99502W        W58763  39.327  17.257  13.346
99503W        W58764  11.725   6.802  12.881
99504W        W58765  17.621  27.474   3.866
99505W        W58766  32.409  25.023  14.018
99506W        W58767  41.510  42.377  12.494
99507W        W58768  14.706  25.701  11.073
99508W        W58769  44.482  14.774  11.117
99509W        W58770  42.849  27.088  11.382
99510W        W58771  24.664   5.374   1.435
99511W        W58772  37.514  22.047  10.973
99512W        W58773  31.437  39.446   0.308
99513W        W58774  20.210   3.222   3.372
99514W        W58775   5.783   9.347  11.479
99515W        W58776  40.367   9.382   1.315
99516W        W58777  14.698  26.151  10.026
99517W        W58778   8.708  30.073  12.393
99518W        W58779  34.525  26.548   2.285
99519W        W58780  31.139  31.996  11.493
99520W        W58781  28.042  37.540  13.481
99521W        W58782  24.114  16.786   1.750
99522W        W58783   9.185   3.923  14.839
99523W        W58784  25.106  11.811  10.524
99524W        W58785   1.971  27.544  12.892
99525W        W58786  27.568  14.238   2.290
99526W        W58787  21.739  18.055  13.800
99527W        W58788  20.080   9.886   0.868
99528W        W58789  37.917  26.500  10.067
99529W        W58790  18.623  10.235  12.081
99530W        W58791   5.868  43.333  13.502
99531W        W58792  37.414   4.890   1.835
99532W        W58793  29.161  41.834   4.822
99533W        W58794  43.310   4.794   1.242
99534W        W58795  36.897  16.087  10.559
99535W        W58796  35.445  40.351  12.846
99536W        W58797  39.886  26.643   0.351
99537W        W58798   4.708  20.571  14.316
99538W        W58799  38.480   4.307   2.742
99539W        W58800   9.774  18.258  10.988
99540W        W58801  43.947  16.165  12.544
99541W        W58802  36.075  31.448   2.195
99542W        W58803  12.146  18.737   3.272
99543W        W58804   4.379  29.510  13.018
99544W        W58805  43.309  14.140   2.786
99545W        W58806   0.383   6.391   0.392
99546W        W58807  28.666   1.936  10.637
99547W        W58808  36.442  15.190   3.227
99548W        W58809   2.941  32.528  13.791
99549W        W58810  30.949  16.671   4.296
99550W        W58811  32.104  14.096   1.918
99551W        W58812  27.158   5.790   2.299
99552W        W58813  44.340  13.832  13.801
99553W        W58814  37.864  39.442  10.614
99554W        W58815  25.643  16.231  10.455
99555W        W58816  29.587  21.650   3.667
99556W        W58817  26.103  40.379  14.421
99557W        W58818  18.682  28.496   1.864
99558W        W58819  16.184  42.516  10.534
99559W        W58820  33.973  16.147  13.930
99560W        W58821   5.924   7.266   3.765
99561W        W58822   1.859  18.746   1.287
99562W        W58823   4.366   1.324   1.880
99563W        W58824  44.831  19.559   4.752
99564W        W58825  24.560  26.053  12.560
99565W        W58826  24.489   3.949   0.879
99566W        W58827  23.664  41.887   1.753
99567W        W58828   8.862  30.500   4.338
99568W        W58829  25.058  41.356  13.960
99569W        W58830  31.918  31.023   1.358
99570W        W58831   5.866   3.748  14.303
99571W        W58832  21.106   1.348  14.441
99572W        W58833  13.210  33.479   1.844
99573W        W58834  40.826  15.753   1.300
99574W        W58835  41.451  27.088   4.314
99575W        W58836  18.748  20.133   0.355
99576W        W58837  42.868  44.503  14.770
99577W        W58838  37.000  14.708   1.258
99578W        W58839  31.077  35.572   3.170
99579W        W58840  16.712  15.200  10.587
99580W        W58841  18.089  43.864   2.271
99581W        W58842  37.421  24.714  14.985
99582W        W58843  27.660  44.871   4.627
99583W        W58844  37.402  39.418   3.857
99584W        W58845  24.081  43.015   2.882
99585W        W58846  35.042  37.510   4.302
99586W        W58847  39.969   2.851  10.971
99587W        W58848  14.288   1.843  12.832
99588W        W58849  38.823  21.582  14.003
99589W        W58850  20.666   8.300  11.914
99590W        W58851   7.678   6.330   0.887
99591W        W58852  43.797  42.415  11.002
99592W        W58853  26.506   0.295  11.880
99593W        W58854   3.417  36.429   3.782
99594W        W58855  27.998  10.342  13.841
99595W        W58856  34.464  31.637  10.917
99596W        W58857  35.559  30.050  13.321
99597W        W58858  36.889   4.717  11.994
99598W        W58859  35.482  17.609   0.857
99599W        W58860  18.648  38.862   3.867
99600W        W58861  39.862   5.890  11.949
99601W        W58862  44.471  37.442  13.866
99602W        W58863  14.324   4.309  10.405
99603W        W58864   5.400   9.163  13.802
99604W        W58865   1.765  25.652  10.921
99605W        W58866  44.319   3.739  12.914
99606W        W58867   5.828  38.558   3.663
99607W        W58868  28.164  29.515  14.459
99608W        W58869   4.782  22.522   4.720
99609W        W58870  30.420  25.143   4.758
99610W        W58871  15.624  20.769   5.315
99611W        W58872   5.760  36.954   3.226
99612W        W58873  19.770  38.337   4.208
99613W        W58874  37.351   8.740  12.887
99614W        W58875  30.542  21.261   0.479
99615W        W58876  29.477  37.487   1.773
99616W        W58877   5.826  31.468  14.384
99617W        W58878   4.293  27.031   4.158
99618W        W58879  13.107  27.142  14.850
99619W        W58880  39.320  41.390  11.413
99620W        W58881  28.120  11.867   2.223
99621W        W58882  17.793   7.180   3.785
99622W        W58883  30.907  41.029   1.851
99623W        W58884  20.568  36.926   1.820
99624W        W58885  25.661   1.467   4.197
99625W        W58886  27.493  22.203  10.556
99626W        W58887  25.097  28.658  14.504
99627W        W58888   9.156  41.356   0.478
99628W        W58889   2.823  27.618  12.077
99629W        W58890  11.851  30.019   3.853
99630W        W58891  28.445  23.078   4.676
99631W        W58892  14.134  10.330   2.195
99632W        W58893  15.163  16.101  13.985
99633W        W58894  39.433  14.259  13.799
99634W        W58895  25.638  27.509   0.787
99635W        W58896  25.097  26.700  12.558
99636W        W58897   8.364  35.863  12.854
99637W        W58898  20.591  23.237   2.198
99638W        W58899  10.312  26.122   4.645
99639W        W58900  17.684   8.297   2.403
99640W        W58901   5.819  22.227   3.169
99641W        W58902  32.962   0.295   3.250
99642W        W58903   5.406  22.528   0.349
99643W        W58904   7.888  30.535   4.246
99644W        W58905  24.079  31.581  14.890
99645W        W58906  28.938  10.236   3.661
99646W        W58907   6.901  19.637  14.426
99647W        W58908  10.138  32.982  11.472
99648W        W58909   7.715   9.396   0.841
99649W        W58910   4.880  15.175   3.674
99650W        W58911   4.449   9.230  12.090
99651W        W58912  32.917   1.433   1.868
99652W        W58913  24.164  42.839   2.199
99653W        W58914  35.005  39.918   1.747
99654W        W58915  21.688  26.170   4.788
99655W        W58916  28.535  13.334   3.220
99656W        W58917  27.119  28.663   0.831
99657W        W58918  33.075  26.666  13.327
99658W        W58919  44.878  23.075  10.945
99659W        W58920  38.491  20.675  11.485
99660W        W58921  22.101  33.388  10.618
99661W        W58922  12.193   1.743   3.676
99662W        W58923  14.778   0.271   2.759
99663W        W58924  44.885  44.372  11.437
99664W        W58925   8.391  30.045   0.733
99665W        W58926  34.113  44.945   5.271
99666W        W58927  19.051   3.735   1.795
99667W        W58928  20.611  27.196  10.546
99668W        W58929  35.070  21.740  14.295
99669W        W58930  32.907   8.218   9.932
99670W        W58931   8.665  40.818   2.369
99671W        W58932  26.132  30.939  12.507
99672W        W58933   5.762  11.623   1.827
99673W        W58934  41.452  33.463   3.268
99674W        W58935  34.503  38.988   1.436
99675W        W58936  31.502  29.087  13.410
99676W        W58937  28.637  20.258  11.867
99677W        W58938   9.207  14.595  11.575
99678W        W58939  12.199   8.868  14.346
99679W        W58940  23.722  27.548   3.870
99680W        W58941   9.828   4.944  14.935
99681W        W58942   1.459  23.089   3.855
99682W        W58943   7.414  14.212   2.205
99683W        W58944   5.741  20.070  12.424
99684W        W58945   8.187  42.929   4.280
99685W        W58946  30.495  29.614  11.976
99686W        W58947  15.634  40.801  13.409
99687W        W58948  12.254  27.994   2.273
99688W        W58949  30.531  27.063  10.959
99689W        W58950  37.499  11.133  14.460
99690W        W58951  10.254  12.668  10.145
99691W        W58952  15.094  41.403   1.439
99692W        W58953  28.089  13.244   2.893
99693W        W58954  17.678  36.928   3.358
99694W        W58955  38.938  33.455  12.379
99695W        W58956   2.800   6.848   4.315
99696W        W58957   4.788   2.298  14.007
99697W        W58958  13.310  16.740   1.370
99698W        W58959  42.932  36.855  11.894
99699W        W58960   2.828  14.631  11.036
99700W        W58961  32.527  31.057   3.757
99701W        W58962  39.401  40.326   1.279
99702W        W58963  37.437  33.068  10.963
99703W        W58964  38.533  14.163   3.799
99704W        W58965  10.249  30.928  12.450
99705W        W58966  30.968  10.726   2.763
99706W        W58967   1.799   4.737   2.834
99707W        W58968  20.555   6.877  10.957
99708W        W58969  23.616  13.687  14.886
99709W        W58970  13.286  37.921  12.071
99710W        W58971  14.703  20.622  14.822
99711W        W58972  18.712  30.615  13.548
99712W        W58973  32.984  38.342   0.803
99713W        W58974  42.866  31.518   4.321
99714W        W58975  18.184  18.732  14.507
99715W        W58976  36.457  27.142  10.916
99716W        W58977  42.813  21.213  13.902
99717W        W58978  32.969   3.817   1.933
99718W        W58979  19.556   7.291   2.252
99719W        W58980  44.495   8.657   0.875
99720W        W58981  43.911  18.212  11.863
99721W        W58982   9.215   7.180  13.532
99722W        W58983   5.905  33.618   2.812
99723W        W58984  29.063  15.201   4.207
99724W        W58985  33.970  26.458   1.774
99725W        W58986  39.931  29.460   2.791
99726W        W58987  34.980   7.353  12.551
99727W        W58988  39.480  21.552   0.433
99728W        W58989  11.687  32.961   3.165
99729W        W58990  37.538  20.053   2.831
99730W        W58991   2.444  21.531  14.860
99731W        W58992   1.465  18.130  12.951
99732W        W58993   6.213   6.807   4.787
99733W        W58994  34.022  43.006   2.881
99734W        W58995  15.324  14.109   2.843
99735W        W58996   1.259  39.808   2.855
99736W        W58997  30.559   8.869  11.875
99737W        W58998  24.508  39.974   0.249
99738W        W58999  29.656  14.808   9.586
99739W        W59000  29.493  34.907   3.297
99740W        W59001   5.225  31.086  10.999
99741W        W59002  40.539  28.055  12.040
99742W        W59003  12.241   6.791   3.183
99743W        W59004  43.890   7.752   3.288
99744W        W59005  19.615  17.747  14.463
99745W        W59006  43.008   2.924   3.733
99746W        W59007   0.787  31.089  13.961
99747W        W59008   6.207  38.048   2.282
99748W        W59009  24.508   6.207   2.664
99749W        W59010  10.280   3.863  14.513
99750W        W59011  29.157  30.621   1.729
99751W        W59012  27.598  15.687   1.378
99752W        W59013  40.515  34.593   1.409
99753W        W59014  22.251   4.775  13.850
99754W        W59015  38.037   4.263   2.294
99755W        W59016  36.921  17.292  14.447
99756W        W59017  31.008   0.840  13.977
99757W        W59018  37.045   2.826  12.094
99758W        W59019   0.836  13.149   2.316
99759W        W59020  29.576  37.945   4.232
99760W        W59021  29.038   9.744  12.500
99761W        W59022   4.204   7.735  14.939
99762W        W59023  33.900  41.294   1.896
99763W        W59024  28.963  24.092  14.481
99764W        W59025  19.221  21.029   2.288
99765W        W59026  37.021   2.311   2.800
99766W        W59027  30.955  14.301   3.266
99767W        W59028  18.698  33.566  11.930
99768W        W59029   6.717  32.920  13.419
99769W        W59030  10.262  40.868  11.539
99770W        W59031  41.833  38.015   2.284
99771W        W59032   6.900  11.811  14.783
99772W        W59033   7.201  12.657   4.726
99773W        W59034  29.034  23.650  12.978
99774W        W59035  30.534  36.054   3.269
99775W        W59036  32.531  11.271   3.857
99776W        W59037  44.300  33.935   2.728
99777W        W59038  44.309   7.285  10.105
99778W        W59039  30.608   6.786  13.795
99779W        W59040  39.386  30.586   3.759
99780W        W59041  13.664  13.319   2.410
99781W        W59042  17.739  14.652  10.427
99782W        W59043  10.681  19.199   0.330
99783W        W59044  22.710  19.736  11.506
99784W        W59045   7.179  33.945   1.759
99785W        W59046   0.359  42.513  11.975
99786W        W59047  26.469  10.249  10.089
99787W        W59048  44.364   6.735   0.905
99788W        W59049  26.663  38.916   4.224
99789W        W59050   5.880  23.207   3.274
99790W        W59051  36.409  33.977  13.964
99791W        W59052  38.371  28.128   0.821
99792W        W59053  40.412  20.744   1.695
99793W        W59054  30.527  43.484  13.985
99794W        W59055  29.923  39.438   5.212
99795W        W59056  40.405   7.781   2.886
99796W        W59057  19.592   7.671   2.269
99797W        W59058  36.863  37.062  10.579
99798W        W59059  39.821  35.513  10.989
99799W        W59060  27.960   4.705   3.354
99800W        W59061  19.077  39.512  14.894
99801W        W59062  36.547  14.139   0.357
99802W        W59063  18.548  22.067  13.355
99803W        W59064   0.450   2.328   3.193
99804W        W59065   5.902  17.685  14.920
99805W        W59066  27.014  32.946   0.474
99806W        W59067  12.631   9.175   2.187
99807W        W59068  39.337   0.289  13.405
99808W        W59069  38.076  28.566   2.826
99809W        W59070  44.874  38.824  14.768
99810W        W59071  35.509  34.517  12.551
99811W        W59072  43.937  23.186  10.550
99812W        W59073  10.193   0.314  12.548
99813W        W59074  36.911  35.861   2.773
99814W        W59075  44.962  10.707   1.220
99815W        W59076  41.423  12.260  11.059
99816W        W59077  44.004  35.569   3.775
99817W        W59078   5.785   9.716  12.853
99818W        W59079  27.111   7.715   2.199
99819W        W59080  21.078   7.793  12.576
99820W        W59081   5.273   1.862   4.688
99821W        W59082   1.407  39.883   1.735
99822W        W59083   0.361  23.587  13.435
99823W        W59084   5.306  36.441  11.542
99824W        W59085  19.223  37.951   2.401
99825W        W59086  38.066  29.097  11.458
99826W        W59087  42.367   8.775   1.252
99827W        W59088  29.096  19.167  12.828
99828W        W59089   9.731  10.837   3.822
99829W        W59090  12.745  22.717  11.570
99830W        W59091   3.398  13.602  12.977
99831W        W59092  42.939   3.754  14.956
99832W        W59093  29.925  20.603  10.955
99833W        W59094  15.236   5.866  11.394
99834W        W59095  40.964  16.745   1.805
99835W        W59096   6.740  12.316   4.690
99836W        W59097  16.162  10.236  14.368
99837W        W59098   6.203  42.326   0.360
99838W        W59099  19.042  11.135   3.869
99839W        W59100  10.301  34.554   1.734
99840W        W59101  26.207  25.994  12.091
99841W        W59102  38.535   5.229   3.631
99842W        W59103  41.461   5.365  12.048
99843W        W59104  30.657   2.287   5.283
99844W        W59105  38.993   9.654   2.254
99845W        W59106  14.306  14.653  11.538
99846W        W59107  42.904  16.138   2.882
99847W        W59108   3.249  26.992   1.768
99848W        W59109  20.695   1.970  12.966
99849W        W59110   9.702   2.444  13.872
99850W        W59111  27.647  22.223   3.703
99851W        W59112  29.926  13.820  13.315
99852W        W59113  34.388  18.587   3.780
99853W        W59114   4.232  43.419   1.295
99854W        W59115  22.054  34.994  13.945
99855W        W59116   9.831   6.807   4.181
99856W        W59117  20.598  33.475   4.729
99857W        W59118  37.833  13.332   0.296
99858W        W59119   4.904  23.687   0.464
99859W        W59120  12.177  25.071   1.852
99860W        W59121  23.588   0.428  10.636
99861W        W59122  31.582   8.373  14.283
99862W        W59123  34.444   1.890   2.358
99863W        W59124   3.454   1.758   0.243
99864W        W59125  34.043  42.814   3.840
99865W        W59126  16.673  21.651   0.451
99866W        W59127  44.465  20.616  11.113
99867W        W59128  13.267  14.303  13.964
99868W        W59129   4.875  17.686   0.447
99869W        W59130  16.132  16.272   2.360
99870W        W59131  33.507  39.900  14.023
99871W        W59132  27.990  32.088   4.629
99872W        W59133  15.104  25.003  10.609
99873W        W59134  36.859  27.683   4.190
99874W        W59135  23.491  22.624  10.910
99875W        W59136  43.309   1.784   4.655
99876W        W59137  20.756  34.456  10.506
99877W        W59138  12.757   1.447   3.777
99878W        W59139  36.559  25.148   1.854
99879W        W59140  39.911  32.967  13.482
99880W        W59141   0.426  11.639   2.311
99881W        W59142  23.146  18.703  11.466
99882W        W59143  18.592   6.253  11.092
99883W        W59144  42.477  29.137  13.842
99884W        W59145   5.902  24.618   3.272
99885W        W59146  22.555  11.353  13.991
99886W        W59147  30.955  17.644   1.345
99887W        W59148   6.832  18.653   3.768
99888W        W59149  10.213  18.588  13.397
99889W        W59150  30.415   8.819   2.271
99890W        W59151   5.738   1.797   0.869
99891W        W59152  18.645   3.342   0.800
99892W        W59153  16.707  11.754  12.382
99893W        W59154  36.910  12.648  12.493
99894W        W59155  37.984  24.158  11.930
99895W        W59156  31.468  31.446  14.826
99896W        W59157  23.043  21.537  10.546
99897W        W59158  21.067   7.382  13.376
99898W        W59159  14.171  28.089   2.886
99899W        W59160  22.703  44.793   3.756
99900W        W59161  17.091  17.307  12.091
99901W        W59162  26.111   2.322  10.929
99902W        W59163  12.175  28.561  10.895
99903W        W59164  33.893  44.938  12.463
99904W        W59165  25.204  31.440   1.932
99905W        W59166  41.483  35.444   5.594
99906W        W59167  16.738  36.363   2.405
99907W        W59168  41.030  19.284   0.820
99908W        W59169  44.997  27.160  14.904
99909W        W59170  35.495   8.684   3.778
99910W        W59171  33.450   2.789   0.451
99911W        W59172   7.820  24.643   3.848
99912W        W59173  19.150  24.623  11.508
99913W        W59174  25.648  29.077   4.305
99914W        W59175  12.301  23.213  12.889
99915W        W59176   1.772  12.127  13.063
99916W        W59177   1.409  24.049  11.121
99917W        W59178  32.558  24.584   3.298
99918W        W59179  17.564  19.684  13.397
99919W        W59180  23.549  19.153   2.261
99920W        W59181  38.826  11.867   2.314
99921W        W59182  34.990  30.504   5.164
99922W        W59183  41.832  35.379   1.333
99923W        W59184  39.810  18.659   1.718
99924W        W59185  20.183   7.904  13.417
99925W        W59186  19.778  29.126  14.841
99926W        W59187   1.354  30.121   4.663
99927W        W59188  19.266  37.462   4.828
99928W        W59189   0.830  39.879  11.535
99929W        W59190  42.801   6.729   1.895
99930W        W59191  13.348  43.272   2.853
99931W        W59192  31.488  24.528  13.511
99932W        W59193   0.377  41.310  11.569
99933W        W59194  12.816  24.029  11.918
99934W        W59195  28.104  19.244  13.505
99935W        W59196   7.830   7.751   4.768
99936W        W59197  44.942  36.939   0.923
99937W        W59198  19.146  16.116   1.364
99938W        W59199   0.303  42.983  14.375
99939W        W59200   9.353  28.521   2.765
99940W        W59201  20.229  12.202   2.387
99941W        W59202  18.599  26.648   2.828
99942W        W59203  29.600  35.541   0.480
99943W        W59204  33.442  14.813  13.418
99944W        W59205  23.989  35.587   3.338
99945W        W59206   2.247  32.531  11.393
99946W        W59207  15.627  13.728  13.820
99947W        W59208  33.877  38.919  14.897
99948W        W59209  16.585  27.660  12.035
99949W        W59210  31.051  14.829   1.716
99950W        W59211   5.698   7.414   4.190
99951W        W59212  10.716  41.441   4.664
99952W        W59213  22.224  43.957  10.586
99953W        W59214  44.004  38.908  14.317
99954W        W59215  20.617  18.586   0.437
99955W        W59216  36.092  15.769   2.839
99956W        W59217   0.916  43.358  10.472
99957W        W59218  35.406  22.631   4.735
99958W        W59219  12.847   2.839  14.312
99959W        W59220  22.583  20.714   4.704
99960W        W59221  43.893  21.148  13.977
99961W        W59222  24.173  30.508  10.517
99962W        W59223  41.813  30.627  10.092
99963W        W59224   7.302  28.056  12.941
99964W        W59225  19.598  13.636   4.198
99965W        W59226  41.463  36.588  14.943
99966W        W59227   9.393   9.290   2.300
99967W        W59228  19.641   7.688  14.385
99968W        W59229  26.087   5.219   3.647
99969W        W59230  16.783  36.436   0.354
99970W        W59231  18.779  24.048   0.842
99971W        W59232  17.773  42.873   1.397
99972W        W59233  25.018  33.450   2.739
99973W        W59234  23.543  25.531   2.795
99974W        W59235  33.915  43.820  11.393
99975W        W59236  40.410  27.188   1.784
99976W        W59237   4.927   5.871  11.034
99977W        W59238  14.688   8.297   1.771
99978W        W59239  30.910  44.488   3.636
99979W        W59240  12.189  36.027  11.503
99980W        W59241  37.553  20.714   2.899
99981W        W59242  26.114  15.235   1.311
99982W        W59243  28.520  15.314   0.478
99983W        W59244  11.665   1.769   2.843
99984W        W59245  11.690   0.417   4.690
99985W        W59246  44.977  39.978  13.896
99986W        W59247  33.000  12.765   3.344
99987W        W59248  10.264  32.611   0.785
99988W        W59249   5.760  44.755   0.789
99989W        W59250  14.139  15.756   2.268
99990W        W59251  23.013  10.782  12.033
99991W        W59252  27.631  33.887   2.242
99992W        W59253  39.847  22.119  11.085
99993W        W59254  11.289  40.471   4.208
99994W        W59255  36.899  33.455  13.398
99995W        W59256  40.372  43.806  11.046
99996W        W59257  39.490  21.740   2.746
99997W        W59258  11.740  39.827   0.830
99998W        W59259  34.406  18.093  11.116
99999W        W59260  19.652   3.836   2.386
    0W        W59261  21.147  43.837  10.526
    1W        W59262   9.811  42.030  14.847
    2W        W59263   2.301  42.971  11.883
    3W        W59264  22.246  39.437  10.543
    4W        W59265  14.136  24.030   4.291
    5W        W59266   7.285  20.211  12.087
    6W        W59267   8.383  32.094   2.805
    7W        W59268  37.020  33.578  11.960
    8W        W59269   4.734   1.921  13.868
    9W        W59270  19.129  16.790   4.656
   10W        W59271  41.970  22.644   4.694
   11W        W59272  23.052  38.885  10.430
   12W        W59273  33.099   4.753  12.373
   13W        W59274  14.752  20.615   0.892
   14W        W59275  11.158  17.242  12.862
   15W        W59276  14.684   9.664  10.447
   16W        W59277  29.139  22.718   0.315
   17W        W59278  10.812  11.155   3.856
   18W        W59279  34.892   9.813  11.958
   19W        W59280  19.715  34.567  14.426
   20W        W59281  17.595  27.116   4.640
   21W        W59282  31.621   9.729  14.326
   22W        W59283  40.332  10.866  14.430
   23W        W59284  25.583  11.761  10.934
   24W        W59285  24.536  11.773  12.516
   25W        W59286   4.879  42.366   2.857
   26W        W59287  21.611   1.810  13.800
   27W        W59288  41.459  20.243   3.685
   28W        W59289  20.705  18.285  11.375
   29W        W59290  16.728  12.165   3.345
   30W        W59291  16.736  14.335   1.438
   31W        W59292  36.430  22.706   4.271
   32W        W59293  35.945  29.169   3.361
   33W        W59294   3.727   8.183  13.352
   34W        W59295  11.740  19.059   4.617
   35W        W59296   7.705  42.345   2.662
   36W        W59297  35.379  21.123   2.703
   37W        W59298  34.894  17.740  13.916
   38W        W59299  24.598  31.955   2.695
   39W        W59300  37.487  15.771   9.955
   40W        W59301  19.780  28.036  13.903
   41W        W59302  27.970   6.277  11.948
   42W        W59303   3.214  23.571   0.811
   43W        W59304   0.274  40.390   1.729
   44W        W59305   5.849  18.566  14.305
   45W        W59306  35.453  44.306   3.633
   46W        W59307  23.675  32.999  10.415
   47W        W59308  32.630   4.806  13.533
   48W        W59309  42.455  14.752  10.563
   49W        W59310   5.405  31.985   2.852
   50W        W59311   9.646  41.357   4.687
   51W        W59312  13.340  20.222   1.382
   52W        W59313  12.141  22.098  11.011
   53W        W59314   9.380   0.878   2.681
   54W        W59315   6.758  43.416  14.006
   55W        W59316  40.853  29.972  11.394
   56W        W59317  26.468  13.309  10.472
   57W        W59318  20.045  44.915  13.495
   58W        W59319  20.153  43.359  14.818
   59W        W59320  11.372   0.789   0.922
   60W        W59321  40.478  31.427   0.480
   61W        W59322  10.877  11.707   3.228
   62W        W59323  24.002  18.155   4.321
   63W        W59324  25.710  17.608  10.446
   64W        W59325  41.945  22.132   1.885
   65W        W59326   9.182  27.099   2.783
   66W        W59327  21.053  22.691  10.990
   67W        W59328  19.700  33.391  12.851
   68W        W59329  40.389   3.215   0.920
   69W        W59330  35.414  26.570   3.721
   70W        W59331  21.183  15.761  11.395
   71W        W59332  44.928  19.646   2.282
   72W        W59333   4.740  33.539  12.488
   73W        W59334  21.594  36.060  13.510
   74W        W59335   9.381  18.123  11.966
   75W        W59336  31.039  28.663   3.159
   76W        W59337   9.364  15.631  11.381
   77W        W59338  26.156  12.203  13.483
   78W        W59339   8.742  31.929  13.353
   79W        W59340   9.883  19.749  14.410
   80W        W59341   3.894  35.876  12.039
   81W        W59342  14.161  14.190  14.493
   82W        W59343   8.232  26.654   0.827
   83W        W59344  17.752  24.694   1.390
   84W        W59345  40.984  13.175  13.034
   85W        W59346  21.518   7.866   0.246
   86W        W59347   8.887   1.933   0.254
   87W        W59348  28.549  33.131   4.216
   88W        W59349  34.010  13.266   4.677
   89W        W59350  40.814  23.107   4.743
   90W        W59351   9.368   6.418   3.809
   91W        W59352  33.879  19.176   3.384
   92W        W59353  41.924  25.604   0.883
   93W        W59354  12.253   9.828  13.966
   94W        W59355  39.921   4.759   4.353
   95W        W59356  15.770  12.141   5.140
   96W        W59357  26.060  37.941  11.961
   97W        W59358  11.753  30.470  11.496
   98W        W59359  37.476  32.469  12.855
   99W        W59360  43.317  12.773   1.849
  100W        W59361  22.618  18.221  11.995
  101W        W59362  39.883   5.399  13.809
  102W        W59363  28.089   3.759  10.599
  103W        W59364  20.719  32.901   1.891
  104W        W59365  21.709  33.421  12.012
  105W        W59366   5.214  37.474  12.976
  106W        W59367  13.257  40.917   0.286
  107W        W59368  17.672  17.618   0.276
  108W        W59369  38.946   4.700  14.407
  109W        W59370  31.139   5.278   1.815
  110W        W59371  42.376  34.972  12.355
  111W        W59372  39.930  24.552   4.743
  112W        W59373  35.398  22.688  13.429
  113W        W59374  16.788  35.924  12.485
  114W        W59375  19.619  20.137   2.737
  115W        W59376  13.318  11.230  11.547
  116W        W59377  22.084  12.697  11.508
  117W        W59378  43.399  36.586   3.216
  118W        W59379   3.913  33.532   9.989
  119W        W59380  11.224  29.624  11.522
  120W        W59381  41.859  27.683   4.744
  121W        W59382  34.061   0.896  13.441
  122W        W59383  42.868  11.276  13.988
  123W        W59384  13.703  11.749  13.851
  124W        W59385  20.107  19.281  14.477
  125W        W59386   1.751  30.130  11.490
  126W        W59387  19.149  33.381  10.972
  127W        W59388  33.040  10.797  10.421
  128W        W59389  43.471  12.835   1.403
  129W        W59390  44.460  28.131   4.218
  130W        W59391  31.043  42.927   0.295
  131W        W59392  27.072  12.620  12.343
  132W        W59393  27.991   4.738  14.314
  133W        W59394  36.912   9.246   4.254
  134W        W59395  26.626   2.785  10.429
  135W        W59396   7.744  38.477   0.303
  136W        W59397  16.293  43.409  13.844
  137W        W59398  22.065  35.078   3.185
  138W        W59399  18.748  36.569   1.298
  139W        W59400  17.063  25.683   4.270
  140W        W59401  32.056  33.441  14.310
  141W        W59402  26.986  23.996  12.954
  142W        W59403  34.582  27.478   0.781
  143W        W59404  24.493   7.256   4.191
  144W        W59405  34.982  16.627   0.901
  145W        W59406   4.215  17.072  14.967
  146W        W59407  14.217  22.062  11.412
  147W        W59408  39.451  37.852  10.993
  148W        W59409   7.730  36.506   2.240
  149W        W59410  17.271  14.711   3.680
  150W        W59411  33.100  13.126  13.357
  151W        W59412  18.723   5.439  13.311
  152W        W59413  19.051  30.418   4.123
  153W        W59414  32.614  40.431  13.370
  154W        W59415  43.444   4.855   2.880
  155W        W59416   6.361  26.644  12.929
  156W        W59417  33.598  41.407  14.998
  157W        W59418  30.581   6.379   4.794
  158W        W59419  19.041  26.136  13.842
  159W        W59420   1.313  29.525  10.640
  160W        W59421   7.792  10.875  13.839
  161W        W59422  43.953   6.252  12.514
  162W        W59423   7.793  28.049  12.541
  163W        W59424  44.278  13.178   3.310
  164W        W59425  24.706   2.726  12.514
  165W        W59426   5.792  26.167  14.982
  166W        W59427  33.412  40.543  11.083
  167W        W59428  33.019  20.614  13.003
  168W        W59429  17.118  13.740  11.906
  169W        W59430  36.524  16.226  14.803
  170W        W59431  12.714  17.066   4.693
  171W        W59432  18.686  12.649   4.764
  172W        W59433  32.510  12.668  13.853
  173W        W59434  24.115  33.024   3.864
  174W        W59435  10.140   5.423   0.857
  175W        W59436   9.757  27.118  14.861
  176W        W59437  13.747  28.623  12.833
  177W        W59438  41.332   7.678  12.862
  178W        W59439  39.321   9.219  12.034
  179W        W59440  33.437   5.207  14.790
  180W        W59441  21.524  16.111  13.452
  181W        W59442  16.761  30.483   3.767
  182W        W59443  21.080  20.748   5.572
  183W        W59444   6.793  13.689  12.480
  184W        W59445  21.544   4.240  14.320
  185W        W59446  36.086   6.813  13.413
  186W        W59447  28.580  43.486   0.821
  187W        W59448   8.263  37.842   4.682
  188W        W59449  13.750  41.886  13.850
  189W        W59450  32.444  40.811   1.241
  190W        W59451  41.814  13.832  13.939
  191W        W59452  16.707  35.852  12.956
  192W        W59453  40.017  41.842  10.969
  193W        W59454  13.301   7.204   3.866
  194W        W59455   1.271   3.442   1.292
  195W        W59456  21.121  19.247  13.427
  196W        W59457  12.116  15.649  14.408
  197W        W59458  16.138  17.704  14.866
  198W        W59459  15.577  25.035   2.686
  199W        W59460  30.649  15.197   1.233
  200W        W59461  43.805  22.027  11.467
  201W        W59462  33.580  41.028   2.793
  202W        W59463  41.924  36.391   4.645
  203W        W59464  36.878   3.716  12.473
  204W        W59465  33.987   7.194  13.044
  205W        W59466  21.637   1.247   3.781
  206W        W59467  15.154  28.930   0.267
  207W        W59468   1.477   3.838   4.744
  208W        W59469  26.021  22.200   3.150
  209W        W59470  32.637  24.518   1.918
  210W        W59471  12.616  18.207   2.846
  211W        W59472  38.491  41.426   4.769
  212W        W59473  41.858   4.933   3.356
  213W        W59474   6.857  23.675  14.294
  214W        W59475  21.126  41.361  12.384
  215W        W59476  16.098  40.932  14.426
  216W        W59477  40.506  25.209   1.301
  217W        W59478   9.648  19.649   2.187
  218W        W59479  24.557  38.450   2.724
  219W        W59480  36.352  17.232  11.403
  220W        W59481  10.381  27.516  10.577
  221W        W59482  13.759  42.977  10.907
  222W        W59483  17.305  11.669  11.578
  223W        W59484  25.683   0.935   1.383
  224W        W59485   2.799   9.816   4.630
  225W        W59486  18.636  37.508   2.300
  226W        W59487  18.598   6.855   0.853
  227W        W59488  32.631  32.419   3.801
  228W        W59489   4.308   3.391   1.780
  229W        W59490  10.360  20.267   1.414
  230W        W59491  26.654   6.233  13.429
  231W        W59492   6.260  28.623   0.273
  232W        W59493  28.465  15.119  10.980
  233W        W59494  14.267  24.546   0.734
  234W        W59495  24.006  12.728   1.776
  235W        W59496  34.519   9.700   3.828
  236W        W59497  31.540  35.008  14.957
  237W        W59498  16.230  40.874  12.039
  238W        W59499  41.387   4.699  10.984
  239W        W59500   2.357  26.494  14.325
  240W        W59501  24.024  37.901  13.054
  241W        W59502  21.580  43.283  11.056
  242W        W59503  15.692  16.678  14.993
  243W        W59504  19.102  17.216   0.447
  244W        W59505  43.379  16.215   3.737
  245W        W59506  38.325  38.897   0.870
  246W        W59507  34.864   6.357  14.380
  247W        W59508  15.249  23.541   4.328
  248W        W59509  44.428  13.318  10.983
  249W        W59510  31.631  39.948   2.392
  250W        W59511  43.778  39.873   0.253
  251W        W59512   9.358  11.288   4.686
  252W        W59513  18.162   9.665   3.711
  253W        W59514  28.955   1.766  13.377
  254W        W59515   7.687  37.424   0.477
  255W        W59516   4.845   3.851  10.611
  256W        W59517  12.825   0.808  12.968
  257W        W59518  39.015  34.403   4.613
  258W        W59519  30.107  42.431  13.465
  259W        W59520  14.105  38.978  11.017
  260W        W59521  24.575  11.370  12.493
  261W        W59522   6.693  11.245  14.304
  262W        W59523   0.365  10.296  12.084
  263W        W59524  32.039  27.472  10.054
  264W        W59525  39.915  30.456   2.796
  265W        W59526   4.913  27.475  13.340
  266W        W59527   6.356  22.607   1.796
  267W        W59528  11.805  21.623  10.425
  268W        W59529  20.214  39.416   3.331
  269W        W59530  39.321  29.424  14.330
  270W        W59531  32.027  31.466  13.940
  271W        W59532   6.788  44.480   3.363
  272W        W59533  21.172  31.093  12.054
  273W        W59534  27.089  17.738  13.937
  274W        W59535  16.693  10.752   0.305
  275W        W59536  17.097   7.869   2.358
  276W        W59537  30.585  43.798   0.320
  277W        W59538  27.116   7.322  11.975
  278W        W59539  13.688  20.224   4.724
  279W        W59540  15.701   3.415  14.488
  280W        W59541  44.377  41.333   2.254
  281W        W59542  38.985  31.023   0.420
  282W        W59543  32.920  44.821   2.759
  283W        W59544  23.240  37.886  11.523
  284W        W59545  19.670  42.900   3.644
  285W        W59546  22.661  28.045  11.903
  286W        W59547  42.967  34.869   1.427
  287W        W59548  37.061  17.245  12.375
  288W        W59549  33.008   3.928  11.424
  289W        W59550  27.003  11.658  13.506
  290W        W59551  41.525  44.913  13.064
  291W        W59552  42.954  16.717   3.686
  292W        W59553  40.435  39.460  14.788
  293W        W59554  28.108  14.740  11.968
  294W        W59555  25.973  19.144   3.688
  295W        W59556  14.675  23.985   2.243
  296W        W59557  44.938  43.766  13.876
  297W        W59558   6.274  13.195   4.603
  298W        W59559   8.796  28.575   1.402
  299W        W59560   4.363   7.894  14.379
  300W        W59561  32.043  35.084  13.391
  301W        W59562  35.510  37.977   1.811
  302W        W59563  33.955  17.615   1.853
  303W        W59564  27.690  11.687  14.796
  304W        W59565  29.986  19.046  13.799
  305W        W59566  23.218   3.785  10.971
  306W        W59567  37.861  20.556   4.801
  307W        W59568  24.604  16.771  10.935
  308W        W59569   2.316  34.052  12.441
  309W        W59570  26.998   2.435  11.526
  310W        W59571  15.606   4.756  13.514
  311W        W59572  34.525   6.344  13.014
  312W        W59573  32.956  13.201   1.866
  313W        W59574  37.839  20.640  12.055
  314W        W59575   0.772  30.558   2.305
  315W        W59576  19.740  31.998   4.821
  316W        W59577  19.283  37.845  11.609
  317W        W59578  14.133   1.812  11.592
  318W        W59579  29.668   4.801  13.458
  319W        W59580  22.118  32.565   1.926
  320W        W59581  14.138  33.595  12.454
  321W        W59582  16.707  16.188   2.748
  322W        W59583  30.101  13.694  11.480
  323W        W59584   1.929  17.162  14.949
  324W        W59585  29.152   2.438  12.537
  325W        W59586  35.074   1.830  14.432
  326W        W59587  35.474  25.969  10.561
  327W        W59588  43.942  41.471  11.966
  328W        W59589  40.430   9.182  13.949
  329W        W59590  24.041  29.069  10.585
  330W        W59591  24.684  32.573  10.513
  331W        W59592  44.761  40.344  13.898
  332W        W59593  11.131  18.167  13.815
  333W        W59594   6.334  32.010   3.183
  334W        W59595  26.968  19.114   4.755
  335W        W59596  39.869  39.450   3.677
  336W        W59597  10.724  17.287  11.068
  337W        W59598  37.576  30.523  10.516
  338W        W59599  22.107  39.904   4.625
  339W        W59600  19.563   3.245  12.414
  340W        W59601  29.548  34.085  12.953
  341W        W59602  21.113  17.569  13.895
  342W        W59603  25.091   8.855  13.985
  343W        W59604   8.343  11.233  14.970
  344W        W59605  42.320   2.828   1.308
  345W        W59606  25.063   0.964   3.652
  346W        W59607  33.053  16.086  12.968
  347W        W59608  21.166  12.618  14.336
  348W        W59609  38.441  38.463   2.833
  349W        W59610  10.293  33.607  12.038
  350W        W59611  17.683   2.275   2.310
  351W        W59612  27.980  33.509   3.370
  352W        W59613  33.042  39.447  11.051
  353W        W59614  33.889  30.960  14.482
  354W        W59615  44.266  36.455  11.382
  355W        W59616  25.623   6.749  13.514
  356W        W59617   0.417  29.977  10.403
  357W        W59618  19.750  36.025   3.790
  358W        W59619   4.209  39.439  14.922
  359W        W59620  19.676   4.712  14.404
  360W        W59621  41.801  20.649   1.335
  361W        W59622  24.062  16.808  12.398
  362W        W59623   2.270  33.989  10.909
  363W        W59624  23.612   3.372   0.430
  364W        W59625   2.906  22.709  12.341
  365W        W59626   9.879  39.329   2.665
  366W        W59627  18.746  27.052  12.569
  367W        W59628  37.860  10.775  12.008
  368W        W59629  41.825   4.421  13.876
  369W        W59630   6.398  16.140  13.846
  370W        W59631   2.940  12.828  13.344
  371W        W59632   1.275  31.121   2.877
  372W        W59633  28.499   5.903  14.488
  373W        W59634  40.403   0.276  13.832
  374W        W59635  33.585  10.325  14.908
  375W        W59636  38.962  38.930   2.874
  376W        W59637  17.789  30.951  13.380
  377W        W59638  33.594  24.522  14.325
  378W        W59639  43.355  18.070   2.671
  379W        W59640  33.943  37.848  11.447
  380W        W59641  26.572  13.126   3.734
  381W        W59642  21.724  25.600  10.143
  382W        W59643  37.976   7.189   4.212
  383W        W59644  43.895  25.635   2.335
  384W        W59645  20.133  24.076   1.896
  385W        W59646  16.673  34.435  13.031
  386W        W59647   1.339  41.982  14.412
  387W        W59648  13.845  30.079   5.182
  388W        W59649   2.762   2.397   3.287
  389W        W59650  12.716   1.948   4.191
  390W        W59651  17.793  39.556   1.375
  391W        W59652   4.332  35.881  12.864
  392W        W59653   7.901   0.915  13.362
  393W        W59654   2.802   9.309   0.811
  394W        W59655  35.042  16.667   1.367
  395W        W59656  15.163   0.279  10.574
  396W        W59657   8.381   6.192  12.909
  397W        W59658  33.972   8.869   0.433
  398W        W59659  23.109  32.946  10.580
  399W        W59660  22.140  13.738   3.866
  400W        W59661  12.720   0.881  12.576
  401W        W59662   3.712  20.700   3.279
  402W        W59663  10.192  16.157   1.931
  403W        W59664   7.843  28.519  10.467
  404W        W59665  23.986  38.882   1.247
  405W        W59666  12.277  33.045  12.531
  406W        W59667  40.533  20.267   3.765
  407W        W59668  41.974  41.368   1.795
  408W        W59669  41.831  42.990   1.733
  409W        W59670  16.311  37.519  11.428
  410W        W59671  12.332  34.988  13.849
  411W        W59672  20.246   5.765  12.465
  412W        W59673  19.675  39.519   3.645
  413W        W59674   3.259  18.610  12.839
  414W        W59675  22.506  21.087  12.433
  415W        W59676  36.520  43.887  10.499
  416W        W59677  19.663  33.017   2.696
  417W        W59678  37.420   0.963  10.527
  418W        W59679  32.007  26.602  12.357
  419W        W59680  13.786  24.484   3.148
  420W        W59681   8.214  16.649  12.977
  421W        W59682  13.643  19.240   1.738
  422W        W59683  26.507  11.164  14.808
  423W        W59684  17.285  38.957   5.102
  424W        W59685  10.297  27.620  13.830
  425W        W59686  17.665  30.967   4.712
  426W        W59687  32.139  13.304  14.974
  427W        W59688  44.399  24.034  14.350
  428W        W59689   5.862  40.416  14.814
  429W        W59690  10.839  14.252  11.910
  430W        W59691  21.155   2.856   1.808
  431W        W59692  33.609   9.761  10.438
  432W        W59693  29.992  17.141   2.257
  433W        W59694  12.635  41.934  10.439
  434W        W59695  11.203   9.854   3.387
  435W        W59696  35.901  36.860   4.162
  436W        W59697  40.847   6.869  11.915
  437W        W59698   6.833  17.150  10.957
  438W        W59699   3.435  23.662   1.262
  439W        W59700  28.479  27.990   1.716
  440W        W59701  36.543   8.713  12.364
  441W        W59702  33.602   1.828   5.196
  442W        W59703  39.318  24.651  10.613
  443W        W59704   7.283  26.980   2.312
  444W        W59705  41.002  29.978   1.336
  445W        W59706  41.798  38.463   3.767
  446W        W59707  35.594  18.546  12.495
  447W        W59708  17.736   2.915   2.795
  448W        W59709  26.145  12.209  11.427
  449W        W59710  22.671  22.732  13.348
  450W        W59711  17.636  24.149  11.960
  451W        W59712  15.726  14.702  14.965
  452W        W59713  39.426  10.726   3.230
  453W        W59714  18.277  11.810  12.348
  454W        W59715  38.957  19.562  13.434
  455W        W59716   7.803  36.919  10.406
  456W        W59717  18.685   4.851  10.588
  457W        W59718  16.588  40.404  11.484
  458W        W59719  21.216   8.345  11.073
  459W        W59720  16.790  36.981  10.489
  460W        W59721  38.859   1.733   3.794
  461W        W59722  14.274  21.234   0.294
  462W        W59723  25.176  17.217  13.796
  463W        W59724  30.921   8.218   4.779
  464W        W59725  11.334   9.165   3.218
  465W        W59726  18.051  41.494   4.742
  466W        W59727  22.047  11.755   3.236
  467W        W59728   8.698  37.931  10.906
  468W        W59729   0.260  33.056   1.896
  469W        W59730  38.893  24.197   3.839
  470W        W59731   4.405  36.372   2.899
  471W        W59732  30.943   2.803  12.524
  472W        W59733  27.149  42.517  14.932
  473W        W59734  38.946  27.489  12.352
  474W        W59735  18.191   9.852  14.875
  475W        W59736  39.491  39.059   5.759
  476W        W59737  27.664   4.863   3.799
  477W        W59738   9.255  22.617  14.495
  478W        W59739  27.022  27.617  12.838
  479W        W59740  39.443  10.688   2.735
  480W        W59741  43.322  44.880  13.519
  481W        W59742   5.892  26.026  10.573
  482W        W59743   2.772   6.788   0.831
  483W        W59744  10.336  28.949  14.450
  484W        W59745  39.331   0.356   3.704
  485W        W59746  14.826   8.307   2.780
  486W        W59747  10.804  37.422  14.813
  487W        W59748  40.440   1.799   3.798
  488W        W59749  27.082  40.985   4.187
  489W        W59750  11.195   0.296  12.992
  490W        W59751  44.866  12.707   0.292
  491W        W59752  32.508  35.955   4.693
  492W        W59753  29.092  15.249  11.527
  493W        W59754   5.830  34.113  12.986
  494W        W59755  30.018  35.558   1.859
  495W        W59756   4.897  31.563   1.419
  496W        W59757   8.859   3.784  13.970
  497W        W59758   7.766   5.313   4.242
  498W        W59759   8.676  28.578  13.063
  499W        W59760  22.163  29.609   0.397
  500W        W59761  42.812  10.858  12.499
  501W        W59762   2.311   3.934  12.380
  502W        W59763   2.948  17.158  14.396
  503W        W59764   3.265  42.467  14.964
  504W        W59765  36.427   8.173   0.471
  505W        W59766  31.096  32.614  11.912
  506W        W59767  30.546  43.334  11.001
  507W        W59768  41.912  41.365   4.124
  508W        W59769   7.691   8.370  12.079
  509W        W59770  40.451  22.689  13.452
  510W        W59771  20.557  36.570   4.176
  511W        W59772  26.678   9.770   3.158
  512W        W59773  27.954   6.329   4.219
  513W        W59774  41.413  28.169   3.360
  514W        W59775  36.546  17.580   4.280
  515W        W59776  34.413   2.830  13.380
  516W        W59777  42.509  29.646  13.508
  517W        W59778  15.088  32.907  12.854
  518W        W59779   7.255  34.468  14.434
  519W        W59780  44.299   4.707   3.340
  520W        W59781  17.568  40.481  10.892
  521W        W59782  25.540   5.301   3.653
  522W        W59783   6.786  23.655  12.503
  523W        W59784  34.405  43.927  13.792
  524W        W59785  35.475  22.740   0.351
  525W        W59786  37.984  34.056  13.006
  526W        W59787   8.742   8.282   1.851
  527W        W59788  28.665  26.699   3.699
  528W        W59789  11.315   2.380  11.015
  529W        W59790  12.356  13.311   2.184
  530W        W59791  18.151  30.017  14.390
  531W        W59792  25.611   4.944  14.872
  532W        W59793  10.791  36.081   1.414
  533W        W59794   6.417   5.382  12.949
  534W        W59795  30.002  39.366  13.846
  535W        W59796  35.489   0.327   4.644
  536W        W59797  13.719  32.587  13.529
  537W        W59798  34.457  11.788   3.652
  538W        W59799  25.023   7.728   1.876
  539W        W59800  29.459  40.018  14.423
  540W        W59801  24.591  33.566   0.857
  541W        W59802   6.220  36.944   4.790
  542W        W59803   8.864  36.001  13.040
  543W        W59804  11.254  36.979   1.215
  544W        W59805  34.051   0.469   3.192
  545W        W59806   1.411  24.546   2.310
  546W        W59807  35.026   5.284  11.566
  547W        W59808  31.476  28.674  10.585
  548W        W59809  25.005  41.335  11.376
  549W        W59810  42.923  19.278  11.501
  550W        W59811   5.329  11.371  11.548
  551W        W59812  22.624   5.248  12.831
  552W        W59813   8.192  25.619   3.240
  553W        W59814   5.300   1.925   2.837
  554W        W59815  25.184  22.187  11.501
  555W        W59816  21.086   7.826  14.915
  556W        W59817  31.998  30.418  11.451
  557W        W59818  11.317  33.075  14.304
  558W        W59819  33.464  22.142  13.037
  559W        W59820  22.619   0.317   1.906
  560W        W59821  10.662  35.105  10.970
  561W        W59822   0.895   5.736  10.558
  562W        W59823  37.082  28.943  12.522
  563W        W59824  42.026  22.152   3.704
  564W        W59825  40.359  36.483  12.446
  565W        W59826  40.932  35.895  11.602
  566W        W59827   9.861  25.219   0.327
  567W        W59828  34.879  12.639   1.917
  568W        W59829  40.858  20.608  10.645
  569W        W59830  24.050  28.120   3.724
  570W        W59831  16.608   3.776  11.594
  571W        W59832  23.519   8.793  13.058
  572W        W59833   3.804  12.639  11.094
  573W        W59834  24.199  30.637   4.256
  574W        W59835  41.402  24.050   4.635
  575W        W59836  31.408  26.470   0.847
  576W        W59837  17.102  23.717  14.807
  577W        W59838  17.700  24.605  10.428
  578W        W59839   1.239  34.057  14.424
  579W        W59840  33.921  10.685   2.366
  580W        W59841  38.978   5.909  14.377
  581W        W59842   1.425  21.254   0.959
  582W        W59843  17.105  14.273   4.343
  583W        W59844  14.131  15.649   3.667
  584W        W59845  22.732  25.576  11.374
  585W        W59846  18.255   2.257   0.248
  586W        W59847  20.255  14.809   4.282
  587W        W59848  38.549  24.676  11.874
  588W        W59849  21.194   2.234   4.706
  589W        W59850  21.038  13.207  13.384
  590W        W59851  10.179  34.562   3.746
  591W        W59852   8.391  33.500  12.461
  592W        W59853   9.251  27.176  11.446
  593W        W59854   7.193  20.554  13.808
  594W        W59855  13.806   1.269  12.406
  595W        W59856  40.432  30.013  12.980
  596W        W59857  18.091   0.811  13.967
  597W        W59858  13.630  25.563   1.817
  598W        W59859   7.801  16.733  12.926
  599W        W59860   7.867   6.193  13.825
  600W        W59861  17.648  38.014  13.828
  601W        W59862  23.170  31.982  10.135
  602W        W59863  36.465  26.104  11.035
  603W        W59864  11.714   9.666  14.480
  604W        W59865  40.306  33.458  13.867
  605W        W59866   5.849  13.292  12.961
  606W        W59867  35.934  40.399   3.806
  607W        W59868   0.816  20.616  12.430
  608W        W59869  18.667  31.086   0.858
  609W        W59870  31.056  30.521  13.975
  610W        W59871  25.018  28.125   1.888
  611W        W59872   9.281   8.273   0.814
  612W        W59873  30.119   2.733   0.891
  613W        W59874  29.142  44.474  13.355
  614W        W59875   9.161  33.515  11.379
  615W        W59876   5.373  35.507  14.516
  616W        W59877  27.971  12.706  13.877
  617W        W59878  16.097  17.786   1.772
  618W        W59879   8.695  39.889  11.897
  619W        W59880  29.601  12.309   2.276
  620W        W59881   4.779  42.975   1.862
  621W        W59882  11.714  18.194   2.226
  622W        W59883   2.874  18.561   3.291
  623W        W59884  33.131  39.425  13.404
  624W        W59885  42.796  33.081  12.962
  625W        W59886   6.791  14.767  14.858
  626W        W59887  30.123  10.307  14.895
  627W        W59888  21.757  18.066  10.454
  628W        W59889  10.763  10.315   1.266
  629W        W59890   6.426  27.667   1.839
  630W        W59891  41.030  40.349   3.725
  631W        W59892   3.829  19.191  11.562
  632W        W59893  28.666  11.366   0.274
  633W        W59894   8.863  14.236   4.655
  634W        W59895   7.359   2.795   3.182
  635W        W59896  22.647  21.137   5.136
  636W        W59897  30.649  31.073   0.249
  637W        W59898  16.736  11.211   1.448
  638W        W59899  41.345  15.724  12.529
  639W        W59900  43.278  44.969   1.449
  640W        W59901  34.395   0.289   2.305
  641W        W59902  40.422  15.319   2.738
  642W        W59903  39.946  20.692   2.722
  643W        W59904  12.818   6.287   9.605
  644W        W59905  27.965  38.402   4.785
  645W        W59906  12.661  35.561  12.434
  646W        W59907  44.986  43.796   1.733
  647W        W59908  42.995   0.344   3.197
  648W        W59909  37.559  18.781  13.364
  649W        W59910  29.139  26.087   0.807
  650W        W59911  43.269  16.164  14.439
  651W        W59912   7.250  33.578  13.015
  652W        W59913   3.712  15.816   4.166
  653W        W59914  22.131  36.375  13.827
  654W        W59915  37.889  42.811   2.250
  655W        W59916   2.770  19.260   4.781
  656W        W59917   1.884  20.657  11.858
  657W        W59918   2.910  26.685  10.508
  658W        W59919  26.580  17.251  11.537
  659W        W59920  16.212  25.029   9.970
  660W        W59921   7.191  36.504  10.448
  661W        W59922  32.599  33.576   3.160
  662W        W59923  22.608  14.177  12.401
  663W        W59924  22.067  42.339   4.817
  664W        W59925  23.632  10.790  13.003
  665W        W59926  38.066   0.333   2.260
  666W        W59927   1.245  30.457  14.962
  667W        W59928  33.438   1.313   5.245
  668W        W59929   1.867   6.688   0.771
  669W        W59930   5.381  41.807   1.834
  670W        W59931   1.344  23.112   0.333
  671W        W59932  35.884  14.166   4.319
  672W        W59933   4.235   0.969   1.379
  673W        W59934  38.067   5.855   1.338
  674W        W59935  43.860   5.253  11.883
  675W        W59936  21.229  13.305  14.317
  676W        W59937  42.998   4.847  10.923
  677W        W59938  19.675  43.326   0.287
  678W        W59939  24.012  20.718   2.727
  679W        W59940  40.868   2.309  11.573
  680W        W59941   9.299  26.177  13.062
  681W        W59942   9.211  43.807  13.825
  682W        W59943   0.752  32.081   3.189
  683W        W59944  38.567  15.682  12.094
  684W        W59945  14.799  20.044   4.220
  685W        W59946  28.559  20.594  12.875
  686W        W59947  26.562  41.833   5.174
  687W        W59948   3.353  40.020   1.365
  688W        W59949   4.351  16.739   1.214
  689W        W59950  31.490  15.194   4.695
  690W        W59951  41.514  19.257   4.705
  691W        W59952  44.756  14.118   0.427
  692W        W59953  43.504   4.884  13.468
  693W        W59954  10.150  43.838   4.343
  694W        W59955   7.367   3.449  13.009
  695W        W59956  35.510   2.947   4.341
  696W        W59957  14.193  27.075   3.283
  697W        W59958  23.648  31.061   4.650
  698W        W59959  31.543  38.554  12.008
  699W        W59960   2.467  39.829  11.030
  700W        W59961  25.489  19.265  11.496
  701W        W59962   9.156  22.665  11.991
  702W        W59963  17.102  42.502  10.938
  703W        W59964  43.505  32.413  14.350
  704W        W59965  18.718   4.704   0.448
  705W        W59966  31.932  12.258  12.443
  706W        W59967  30.057  19.566  13.795
  707W        W59968  35.951  16.627  11.890
  708W        W59969  20.173  24.995   1.904
  709W        W59970  13.200  42.507  14.761
  710W        W59971  35.078  10.281   4.239
  711W        W59972   0.881  22.165  12.075
  712W        W59973  12.745  42.830   4.230
  713W        W59974  18.626  27.460  12.421
  714W        W59975   1.328  41.373   2.701
  715W        W59976  13.618  23.651   1.211
  716W        W59977  12.829  20.677  12.924
  717W        W59978   9.809   2.810   4.167
  718W        W59979  39.047  33.544   3.664
  719W        W59980   3.259  10.673  14.785
  720W        W59981  24.025  13.782   4.286
  721W        W59982  24.192  29.433   5.282
  722W        W59983  31.081  30.087   4.603
  723W        W59984  35.984   3.803  11.878
  724W        W59985  17.129  10.807  11.126
  725W        W59986  11.189  27.035   4.738
  726W        W59987  16.191  36.040  10.506
  727W        W59988  35.969   4.367   4.621
  728W        W59989  17.239  43.862  13.408
  729W        W59990   1.748   0.367   1.320
  730W        W59991  34.451  19.769  14.996
  731W        W59992  31.971  13.742   1.303
  732W        W59993  38.431  33.556  12.945
  733W        W59994  15.224   8.278   2.340
  734W        W59995  37.968  19.720   0.411
  735W        W59996  19.586  27.193   4.795
  736W        W59997  13.199  24.175   3.311
  737W        W59998  43.361  26.970   4.175
  738W        W59999  34.499   0.323  13.979
  739W        W60000  24.183  21.512  14.373
  740W        W60001  43.449  23.695   2.790
  741W        W60002  29.125  29.535  12.516
  742W        W60003  11.804  40.494   2.734
  743W        W60004  19.752  28.550   1.304
  744W        W60005   5.736   6.768   2.293
  745W        W60006  26.185  23.602  11.544
  746W        W60007  21.745  17.683  11.071
  747W        W60008  31.568  33.516   1.729
  748W        W60009  18.791   7.301   2.235
  749W        W60010  38.036  33.391  14.455
  750W        W60011   9.709  34.437   1.441
  751W        W60012   9.278   9.753  12.084
  752W        W60013  43.347  27.018  14.364
  753W        W60014  19.227  20.169  14.967
  754W        W60015  42.863   6.911  11.865
  755W        W60016  32.964  15.140   1.849
  756W        W60017   7.413  13.609   2.745
  757W        W60018  41.992  13.191  14.321
  758W        W60019  39.030  15.748   1.732
  759W        W60020   9.181  27.118   4.256
  760W        W60021  42.976  32.489  11.437
  761W        W60022   7.261  22.998   2.345
  762W        W60023  25.536  22.031   0.785
  763W        W60024  14.188  44.806  14.770
  764W        W60025   4.385  29.946  11.859
  765W        W60026   8.239  12.295  11.578
  766W        W60027  43.000  44.301   0.426
  767W        W60028  28.113   1.815  14.003
  768W        W60029   4.237  26.654  12.967
  769W        W60030  10.655  41.390   5.130
  770W        W60031  10.710  38.443   0.963
  771W        W60032  43.485  34.971  14.491
  772W        W60033  20.081  37.862   0.331
  773W        W60034  23.652   9.215   4.269
  774W        W60035  43.911  20.750   1.403
  775W        W60036  26.007  25.541  12.349
  776W        W60037  24.184  15.747   3.705
  777W        W60038   9.336  39.859   3.199
  778W        W60039   4.702  21.563  13.977
  779W        W60040  15.180  38.064  12.509
  780W        W60041  32.118  11.196  11.372
  781W        W60042  22.118   7.724   4.727
  782W        W60043  33.555  34.588   4.789
  783W        W60044  32.631  31.943  12.548
  784W        W60045   4.918  20.574  13.822
  785W        W60046  10.327  35.034   1.317
  786W        W60047   1.880  35.028   3.779
  787W        W60048   3.434   1.385   2.314
  788W        W60049  30.572  25.643   3.845
  789W        W60050  37.065  36.573  11.863
  790W        W60051  23.984  20.077  11.118
  791W        W60052  13.307  33.073   3.801
  792W        W60053  23.671  28.029   2.260
  793W        W60054  37.570  36.440   2.698
  794W        W60055  11.809  44.983  12.571
  795W        W60056  12.305  19.545  11.389
  796W        W60057  33.080  10.647   2.853
  797W        W60058  10.306  32.531   3.814
  798W        W60059  17.783  44.400  14.018
  799W        W60060  34.037  30.572   2.289
  800W        W60061  34.438  35.443  14.400
  801W        W60062  13.685   0.343   1.770
  802W        W60063  23.190  38.378  11.960
  803W        W60064  18.188  34.930  11.375
  804W        W60065  38.524  35.512  13.892
  805W        W60066  39.868  37.023   2.864
  806W        W60067  30.940  17.723  12.976
  807W        W60068  14.765  40.406  11.923
  808W        W60069   2.852  33.389   2.755
  809W        W60070  17.251  10.640  12.057
  810W        W60071  43.307  35.561   1.790
  811W        W60072  39.060  28.665   0.866
  812W        W60073   3.869  33.891  11.016
  813W        W60074   2.950  36.015   3.231
  814W        W60075  22.542  23.180  11.521
  815W        W60076  37.536  38.507   4.292
  816W        W60077   0.930  22.103   4.603
  817W        W60078  12.355  35.410   1.267
  818W        W60079   5.388  38.936   2.200
  819W        W60080   9.837  40.941  12.955
  820W        W60081   4.321  14.329   4.728
  821W        W60082  21.088  12.215  12.092
  822W        W60083  13.742   5.824   0.363
  823W        W60084  18.287  40.010  12.445
  824W        W60085  30.620  36.885   2.225
  825W        W60086   1.385   2.927   2.719
  826W        W60087   7.802  17.557  14.985
  827W        W60088  33.886  19.663  14.856
  828W        W60089  22.648  37.379  10.477
  829W        W60090  17.691  32.598  11.960
  830W        W60091  37.513  26.620  12.921
  831W        W60092   0.745  13.748   0.454
  832W        W60093  34.395  43.454  11.902
  833W        W60094  15.665  10.853   4.789
  834W        W60095  31.591  31.998  13.375
  835W        W60096  36.346  12.276  12.415
  836W        W60097  18.230  40.843   2.876
  837W        W60098  17.622  31.570   3.694
  838W        W60099  25.642   9.394  10.611
  839W        W60100   6.732  33.394   4.223
  840W        W60101   2.963   2.409   1.248
  841W        W60102   6.367  39.412  13.925
  842W        W60103  17.288  17.191  10.143
  843W        W60104  11.629  29.642   1.381
  844W        W60105  21.725  21.592  11.933
  845W        W60106   9.346   4.889  13.005
  846W        W60107  36.096   7.776  14.825
  847W        W60108  20.688  44.875   0.432
  848W        W60109  18.583   4.238   2.778
  849W        W60110   3.301  21.146  10.977
  850W        W60111   4.729  43.969  12.527
  851W        W60112  31.533  18.292   2.893
  852W        W60113   9.309  27.155   1.268
  853W        W60114  24.592  11.707  13.893
  854W        W60115  19.536  14.289   0.944
  855W        W60116  22.091  15.153  13.982
  856W        W60117  28.613   2.820  14.277
  857W        W60118   3.778  33.098   1.819
  858W        W60119  19.116   4.438  10.631
  859W        W60120  15.658  21.244   3.724
  860W        W60121  31.556  28.091  12.846
  861W        W60122  39.352  39.516   5.662
  862W        W60123   9.168  39.057   0.464
  863W        W60124  20.751  27.591   4.814
  864W        W60125   4.910   4.942  13.466
  865W        W60126  35.925  16.710   0.896
  866W        W60127  38.382   4.709  11.054
  867W        W60128  10.214  26.474   0.905
  868W        W60129  43.481  25.477  14.456
  869W        W60130  19.574   4.252  12.890
  870W        W60131  35.459  37.423   4.115
  871W        W60132   3.792  18.061  13.829
  872W        W60133  37.379   1.880  10.461
  873W        W60134  11.218  33.904  13.434
  874W        W60135  11.635  33.520   0.962
  875W        W60136   2.279   6.885   1.382
  876W        W60137  17.730  15.086   2.306
  877W        W60138  41.377  16.269  12.082
  878W        W60139  34.405  37.866   2.201
  879W        W60140  23.170  41.985  14.835
  880W        W60141  13.295  27.066   1.408
  881W        W60142  43.965   7.267  11.868
  882W        W60143  29.656  29.151  14.302
  883W        W60144  32.397   1.273  13.423
  884W        W60145  29.535  35.104  14.328
  885W        W60146  12.343   0.924   1.867
  886W        W60147  12.645  12.344   1.807
  887W        W60148  41.402   4.444   2.835
  888W        W60149  14.747  37.951  14.885
  889W        W60150   0.917  20.154   4.248
  890W        W60151   9.164   8.666   1.225
  891W        W60152   2.885  43.309   3.331
  892W        W60153   7.283  44.483  11.509
  893W        W60154   8.208   2.400   2.775
  894W        W60155  13.613   1.895  14.443
  895W        W60156  32.594  25.595   1.381
  896W        W60157  29.946  32.513   0.754
  897W        W60158   1.285   9.234   1.769
  898W        W60159  32.920  10.259  10.978
  899W        W60160  29.440  42.826  12.972
  900W        W60161   8.292  39.432  11.583
  901W        W60162  14.770  42.972  12.980
  902W        W60163  12.731  35.405  14.305
  903W        W60164  11.238   5.272  13.046
  904W        W60165  39.032  23.603   1.707
  905W        W60166  10.358  16.762  13.500
  906W        W60167  40.840  36.031   0.414
  907W        W60168  26.544  15.773  13.800
  908W        W60169  10.704  26.062   1.307
  909W        W60170  37.399  41.403   2.899
  910W        W60171  37.921  10.335   1.257
  911W        W60172  21.038   6.815   4.186
  912W        W60173  38.439  24.146  14.838
  913W        W60174  37.840  36.565  13.927
  914W        W60175  24.594  41.470  13.398
  915W        W60176   1.288  34.463   0.897
  916W        W60177  16.619  28.181   4.760
  917W        W60178  19.739  20.756   1.695
  918W        W60179   4.846  34.550   9.965
  919W        W60180  19.167   1.244  14.894
  920W        W60181  31.014  25.602   2.286
  921W        W60182  36.971  18.727  12.412
  922W        W60183  16.672   8.818  12.050
  923W        W60184   6.268   2.308   3.859
  924W        W60185   6.210  35.375  10.422
  925W        W60186  29.052  43.809   4.708
  926W        W60187   6.707  18.700   1.850
  927W        W60188   7.314  36.395  13.919
  928W        W60189  19.671  10.301   3.820
  929W        W60190  43.889  25.129   2.369
  930W        W60191  20.591  31.905  14.832
  931W        W60192  39.414  32.432   3.845
  932W        W60193  27.616  42.335   4.774
  933W        W60194  34.524  19.695  13.968
  934W        W60195  32.057  27.080   1.917
  935W        W60196  17.743  10.226  12.063
  936W        W60197  16.595  41.478  14.820
  937W        W60198  18.570  36.883   2.231
  938W        W60199  24.700  10.168  13.520
  939W        W60200  35.927  21.040  13.519
  940W        W60201  26.094  30.522  12.442
  941W        W60202  41.500  32.974  12.466
  942W        W60203  13.198   0.811  13.342
  943W        W60204  17.783   8.655  12.365
  944W        W60205  15.603  38.018   1.267
  945W        W60206  26.574   9.294   4.267
  946W        W60207  41.399  32.966  13.545
  947W        W60208  14.622  30.632  10.909
  948W        W60209  37.559  27.613   4.320
  949W        W60210  26.656  17.239   3.656
  950W        W60211  32.413  37.478   0.834
  951W        W60212   5.393   8.273   2.672
  952W        W60213  41.876  44.805  12.394
  953W        W60214  20.663  25.997  11.871
  954W        W60215  21.627  38.838  12.930
  955W        W60216  25.111  39.878   0.476
  956W        W60217  41.427  34.939  10.640
  957W        W60218  36.461  25.183  10.003
  958W        W60219   6.279  27.546   3.275
  959W        W60220   8.876  24.147   2.403
  960W        W60221  29.585  27.589   0.281
  961W        W60222  27.684  22.197  12.368
  962W        W60223   5.334  16.578  13.966
  963W        W60224  25.210   1.793   2.220
  964W        W60225   2.291  30.961   4.241
  965W        W60226  29.043  17.256  11.901
  966W        W60227  40.854   5.880  12.058
  967W        W60228   6.892   1.932   1.275
  968W        W60229  37.939  43.409  12.386
  969W        W60230  35.938  33.927  11.535
  970W        W60231   9.189  23.532  13.867
  971W        W60232   4.283  19.060  12.863
  972W        W60233  22.093  41.514   2.841
  973W        W60234  27.000  28.950   0.409
  974W        W60235  29.151  24.556  11.459
  975W        W60236  20.740  24.579   1.399
  976W        W60237  32.506   7.369   5.291
  977W        W60238  28.554  14.161  12.550
  978W        W60239  36.563  38.840   5.098
  979W        W60240  40.537  11.831   1.241
  980W        W60241   2.853   4.264   3.298
  981W        W60242  27.026  23.506  11.411
  982W        W60243  12.252  27.460  13.935
  983W        W60244  37.449  23.506   1.758
  984W        W60245  12.679  38.976  14.507
  985W        W60246   1.869  37.570   3.656
  986W        W60247  17.703   3.396   1.783
  987W        W60248   0.264  28.616  12.995
  988W        W60249  16.636   1.374   2.695
  989W        W60250  15.179  14.142   2.235
  990W        W60251  34.406  42.011   1.924
  991W        W60252  10.835  11.311  14.765
  992W        W60253   7.371  30.456  12.051
  993W        W60254  21.696  15.659  14.400
  994W        W60255  32.600  36.915  12.440
  995W        W60256  10.843   5.893   2.798
  996W        W60257  13.828  24.169  14.805
  997W        W60258  41.844  34.090  12.901
  998W        W60259  41.827   6.232  12.094
  999W        W60260  31.468  26.195   0.844
 1000W        W60261   2.297  34.980  13.823
 1001W        W60262  13.108  15.715  14.328
 1002W        W60263  22.030  15.301   3.826
 1003W        W60264  33.990  30.924   0.259
 1004W        W60265  41.530   8.330  10.590
 1005W        W60266  23.686   1.774  14.970
 1006W        W60267  15.669  24.717   0.483
 1007W        W60268  27.570  18.649  14.008
 1008W        W60269   8.808  31.555   3.309
 1009W        W60270  29.584   6.199   3.736
 1010W        W60271  12.241  26.488  12.925
 1011W        W60272  40.448  21.064   0.438
 1012W        W60273  29.484  16.781   0.896
 1013W        W60274  16.229  16.177   1.830
 1014W        W60275  26.624  32.919   4.122
 1015W        W60276  38.517  42.386   3.302
 1016W        W60277  31.582   6.690  12.380
 1017W        W60278   2.289  41.956  12.373
 1018W        W60279  44.424  11.310   4.638
 1019W        W60280   3.714   9.729  12.453
 1020W        W60281  20.546  37.495   1.418
 1021W        W60282  39.364  30.145  12.541
 1022W        W60283   0.822   1.945   1.311
 1023W        W60284  32.462  23.077   0.295
 1024W        W60285  28.940  14.123   1.926
 1025W        W60286   2.966  26.522   2.224
 1026W        W60287  21.726  35.474  11.048
 1027W        W60288  16.271  42.520   4.772
 1028W        W60289  19.570  17.136  11.513
 1029W        W60290  22.548  15.638  14.867
 1030W        W60291  44.824  13.714   2.662
 1031W        W60292  16.117  15.122  13.981
 1032W        W60293  22.514  33.918   0.884
 1033W        W60294  18.648  36.017  13.998
 1034W        W60295  16.302  21.750  11.945
 1035W        W60296  20.158   8.197  13.403
 1036W        W60297  33.947   7.376   3.643
 1037W        W60298   5.314  44.265   1.821
 1038W        W60299  39.363  29.525  10.071
 1039W        W60300  36.398  35.001   2.358
 1040W        W60301  29.477  13.113   2.336
 1041W        W60302   3.373  44.403   4.662
 1042W        W60303  12.750  31.468   3.372
 1043W        W60304  35.473  19.245   0.344
 1044W        W60305  23.660  32.923  13.919
 1045W        W60306  42.432  13.765  14.372
 1046W        W60307  15.203  36.893  12.852
 1047W        W60308  15.669   0.932  13.032
 1048W        W60309  30.952  42.430  12.415
 1049W        W60310  23.564  25.540  14.288
 1050W        W60311  31.545  23.118   0.955
 1051W        W60312  21.638  21.713  10.970
 1052W        W60313  27.076  26.536  11.992
 1053W        W60314  39.461  43.516   1.735
 1054W        W60315   3.945  17.245  13.954
 1055W        W60316  36.082   9.292   4.293
 1056W        W60317  11.271  44.815  10.916
 1057W        W60318  44.946   8.208  14.766
 1058W        W60319  32.631  22.055   2.762
 1059W        W60320  27.971  17.592   2.849
 1060W        W60321  15.240   2.792  13.381
 1061W        W60322  25.979  43.358  10.442
 1062W        W60323  11.831  16.740   2.301
 1063W        W60324   9.394  13.252  10.550
 1064W        W60325  23.060  31.109   2.375
 1065W        W60326   2.937  36.545  11.071
 1066W        W60327  17.665  33.482   3.779
 1067W        W60328  44.981  36.950  12.495
 1068W        W60329  22.012  28.610   0.282
 1069W        W60330   1.469  24.148  12.421
 1070W        W60331  39.896  23.544   2.229
 1071W        W60332  15.280  10.272  11.969
 1072W        W60333  36.545  10.305  14.300
 1073W        W60334  44.387  10.739  13.472
 1074W        W60335   9.726  43.335   3.277
 1075W        W60336  19.598   6.749   0.283
 1076W        W60337  24.041  20.226   2.179
 1077W        W60338   4.857  12.805   1.831
 1078W        W60339  27.036   2.428  13.323
 1079W        W60340   9.699  42.862   1.713
 1080W        W60341  44.948  22.524   2.261
 1081W        W60342  36.418  43.790  12.868
 1082W        W60343  19.703  36.053  11.884
 1083W        W60344   4.712   4.289  12.919
 1084W        W60345   3.340   4.369   3.687
 1085W        W60346  29.006  39.413   3.709
 1086W        W60347  35.943   5.216   1.748
 1087W        W60348   8.311  26.960   2.779
 1088W        W60349  28.166  17.764  13.384
 1089W        W60350  10.837  36.973   0.930
 1090W        W60351  16.703  30.416   3.325
 1091W        W60352  38.369  25.169  13.000
 1092W        W60353  18.239  17.181   4.347
 1093W        W60354   6.427  28.678  13.418
 1094W        W60355  19.592  41.840   4.148
 1095W        W60356  39.825  27.097  13.538
 1096W        W60357  23.696  18.738   2.382
 1097W        W60358  28.116  31.149   2.322
 1098W        W60359  10.824  31.538  11.964
 1099W        W60360  15.667  13.663  10.644
 1100W        W60361   3.715  18.650  10.498
 1101W        W60362  28.449  37.555  14.765
 1102W        W60363  31.601  16.733   4.650
 1103W        W60364  29.482   6.869  13.377
 1104W        W60365   5.833  42.958  10.095
 1105W        W60366  14.195  12.610  13.995
 1106W        W60367   6.381  23.722  11.037
 1107W        W60368   1.887  22.684  11.420
 1108W        W60369  16.317   4.758   2.801
 1109W        W60370  42.487  10.640  12.089
 1110W        W60371  35.078  29.047   3.188
 1111W        W60372  21.563  40.401  13.959
 1112W        W60373  14.175  41.368   2.419
 1113W        W60374  30.071   3.798  11.872
 1114W        W60375  11.143  22.008  13.009
 1115W        W60376  39.907  27.045  13.795
 1116W        W60377  26.501  24.597  14.017
 1117W        W60378  22.504  19.119  14.472
 1118W        W60379   3.412  15.209  14.383
 1119W        W60380  11.709  41.795  14.787
 1120W        W60381   1.976  17.090   2.392
 1121W        W60382  17.618  24.597  14.946
 1122W        W60383  33.553  11.709  13.908
 1123W        W60384  41.916  23.518  14.874
 1124W        W60385  25.154  21.603   3.194
 1125W        W60386   2.915  23.676  11.934
 1126W        W60387  18.155   1.862   1.276
 1127W        W60388  12.198  14.634   0.827
 1128W        W60389  43.317  22.173   4.824
 1129W        W60390  18.633  24.594   1.718
 1130W        W60391  18.557  14.251  13.820
 1131W        W60392  19.614  15.802  14.010
 1132W        W60393  35.006  31.942   4.248
 1133W        W60394  37.343  12.699  14.778
 1134W        W60395  19.081  28.100   2.252
 1135W        W60396  37.387   4.348   0.392
 1136W        W60397  25.983   6.801   4.342
 1137W        W60398  30.081  40.528  13.845
 1138W        W60399  24.723  35.030   0.885
 1139W        W60400  39.872  25.155  11.873
 1140W        W60401  32.036  42.867  13.938
 1141W        W60402  21.625  16.626   1.307
 1142W        W60403  33.389   3.244   0.310
 1143W        W60404  35.941  29.516  11.377
 1144W        W60405  42.854  11.141  12.077
 1145W        W60406  23.505   9.290   0.785
 1146W        W60407  27.963  35.893   3.747
 1147W        W60408  43.946   7.173  11.067
 1148W        W60409  14.668   2.888   2.236
 1149W        W60410  37.408   2.947   1.231
 1150W        W60411   4.371   5.345  14.882
 1151W        W60412  20.628  22.023  11.002
 1152W        W60413  43.889   0.802  13.359
 1153W        W60414   0.745   7.313   2.711
 1154W        W60415  19.207  32.393  13.838
 1155W        W60416  35.049  41.971  10.411
 1156W        W60417  33.923  33.019   3.640
 1157W        W60418  27.000  25.216  11.019
 1158W        W60419  16.640  33.410  12.008
 1159W        W60420  34.519  17.186  13.322
 1160W        W60421  31.495  38.458  10.617
 1161W        W60422  38.333  40.012  14.862
 1162W        W60423  27.539  35.041   0.846
 1163W        W60424  12.841   3.413  13.028
 1164W        W60425  37.974   5.244   2.727
 1165W        W60426  30.148  21.039   3.146
 1166W        W60427  28.660  32.569   4.158
 1167W        W60428  39.919  33.091   3.641
 1168W        W60429  10.249  23.501   0.831
 1169W        W60430  44.884  13.149  14.924
 1170W        W60431  25.126  44.841   3.211
 1171W        W60432  21.757   6.257  14.491
 1172W        W60433  17.182  37.962  14.906
 1173W        W60434   5.910   4.423  12.937
 1174W        W60435  28.009  26.203   3.666
 1175W        W60436  40.543   5.899   0.426
 1176W        W60437  24.196  39.474   4.739
 1177W        W60438  15.778  17.660   0.855
 1178W        W60439  13.681  10.219   1.214
 1179W        W60440  30.956   8.316  11.858
 1180W        W60441  14.777  13.649  10.635
 1181W        W60442  21.513  29.933  11.974
 1182W        W60443  40.806  11.831  12.975
 1183W        W60444  36.994  36.508  10.490
 1184W        W60445  28.510  15.781  11.413
 1185W        W60446  17.737  15.639   1.795
 1186W        W60447  10.174  11.724   1.782
 1187W        W60448  30.006  35.568  13.449
 1188W        W60449  36.847  31.622   2.755
 1189W        W60450   7.675   7.756  13.918
 1190W        W60451  18.195  23.680  14.407
 1191W        W60452  36.353  34.468   1.341
 1192W        W60453  40.944  15.177   1.772
 1193W        W60454   6.284  42.000   3.643
 1194W        W60455   2.864   5.786   2.718
 1195W        W60456  28.621   6.297  14.292
 1196W        W60457  43.913  41.992   4.198
 1197W        W60458  20.626  12.800   2.741
 1198W        W60459  17.156  40.919  13.528
 1199W        W60460  18.562  20.690  14.486
 1200W        W60461  35.398  41.041  13.987
 1201W        W60462   2.328   9.850   1.723
 1202W        W60463   3.897  13.734   2.812
 1203W        W60464   4.903  38.909  14.804
 1204W        W60465  17.192  21.617   0.734
 1205W        W60466   1.923  14.184  14.926
 1206W        W60467  13.747  44.352  14.430
 1207W        W60468  19.250  10.800  14.953
 1208W        W60469  44.461  41.974  11.053
 1209W        W60470  11.781  39.378  12.546
 1210W        W60471  40.903   7.710   3.224
 1211W        W60472   9.794  10.797   2.827
 1212W        W60473  12.163  43.801   4.803
 1213W        W60474   7.778  35.074   1.393
 1214W        W60475  36.956  18.220  12.406
 1215W        W60476  38.957  17.679   4.722
 1216W        W60477  27.133  11.197  13.893
 1217W        W60478  39.010  25.582   5.320
 1218W        W60479  38.467  25.524   4.308
 1219W        W60480   3.924   4.390   4.248
 1220W        W60481  38.421  44.497   1.911
 1221W        W60482  42.810  28.156   0.277
 1222W        W60483   8.797  39.523   1.788
 1223W        W60484  36.484  32.545  10.431
 1224W        W60485  37.855   6.863  13.863
 1225W        W60486   2.284  31.999   5.189
 1226W        W60487   7.776   0.384   0.343
 1227W        W60488  20.764  32.077   4.341
 1228W        W60489  38.909   9.296  13.958
 1229W        W60490  10.874  33.032   3.278
 1230W        W60491  27.567  13.153  10.999
 1231W        W60492   5.312   9.733   2.816
 1232W        W60493  37.577  27.580   0.250
 1233W        W60494  18.634  27.036  11.500
 1234W        W60495  40.427  40.954   4.635
 1235W        W60496  39.526  32.080   0.788
 1236W        W60497  10.334  12.766  12.504
 1237W        W60498  25.173  35.571   2.871
 1238W        W60499  13.174  23.165   4.714
 1239W        W60500  10.160  29.517   5.212
 1240W        W60501  16.312  17.070  10.551
 1241W        W60502   7.693  19.593  14.913
 1242W        W60503  34.513  13.798   1.857
 1243W        W60504  11.865   5.405  11.424
 1244W        W60505  18.771  15.270   1.280
 1245W        W60506  30.002  10.262   4.336
 1246W        W60507  10.808  31.923  11.075
 1247W        W60508   5.262  37.876  13.845
 1248W        W60509  14.610  20.671  13.818
 1249W        W60510  39.845  35.589  13.486
 1250W        W60511  42.850  13.267   3.242
 1251W        W60512  42.864  12.353   0.470
 1252W        W60513  11.236  36.574   0.863
 1253W        W60514  16.647  26.611   2.273
 1254W        W60515  20.630  17.800  10.923
 1255W        W60516  14.747   4.916  12.080
 1256W        W60517   7.405  23.069   2.677
 1257W        W60518  20.164   5.383  14.285
 1258W        W60519  31.447  39.004   1.889
 1259W        W60520  24.979  24.652  13.016
 1260W        W60521  35.960  30.977  11.024
 1261W        W60522  26.083  25.684   1.914
 1262W        W60523   4.450  41.421   3.195
 1263W        W60524  26.964  24.657   4.119
 1264W        W60525  39.430  11.859  13.875
 1265W        W60526  16.628   7.869   2.249
 1266W        W60527  43.875  40.826   4.713
 1267W        W60528  16.755  23.215  10.101
 1268W        W60529  39.444   6.772   2.739
 1269W        W60530  41.471   2.233  11.540
 1270W        W60531  17.235  26.491   4.789
 1271W        W60532  43.823   5.785   4.834
 1272W        W60533   5.841  41.370  14.472
 1273W        W60534   7.175  34.080  11.037
 1274W        W60535   1.260  33.614  11.012
 1275W        W60536   2.936  43.835   0.824
 1276W        W60537  12.206  28.613  14.487
 1277W        W60538  40.839  39.030   2.241
 1278W        W60539  40.303  17.579   4.712
 1279W        W60540  42.890  38.339   2.757
 1280W        W60541   0.299   9.748  11.950
 1281W        W60542  43.327   2.431   2.748
 1282W        W60543  14.619  43.781   2.332
 1283W        W60544  13.724  31.112   1.347
 1284W        W60545  28.586  33.077   1.224
 1285W        W60546   0.397  40.897  11.092
 1286W        W60547  19.171  27.658  12.415
 1287W        W60548  16.714  33.995   2.732
 1288W        W60549  38.913  31.107   0.917
 1289W        W60550  32.106  12.293  14.958
 1290W        W60551  19.615  31.581   4.825
 1291W        W60552  35.937  16.084  12.091
 1292W        W60553  37.536  38.950   0.884
 1293W        W60554  10.202   3.822   5.605
 1294W        W60555  11.365  44.400  14.780
 1295W        W60556   5.316  30.124  11.376
 1296W        W60557   6.678  17.293  10.549
 1297W        W60558   1.751   2.285  12.041
 1298W        W60559  28.946  35.487  14.412
 1299W        W60560  40.526  16.709  14.008
 1300W        W60561  25.570  31.032  14.759
 1301W        W60562  43.418   2.316   4.655
 1302W        W60563  22.631   7.285   2.874
 1303W        W60564  41.309  26.680   4.118
 1304W        W60565  18.577  43.946  13.446
 1305W        W60566   0.919   8.806   4.638
 1306W        W60567  32.950  13.761  14.279
 1307W        W60568  25.975  40.463  10.467
 1308W        W60569  39.921  17.215  14.958
 1309W        W60570   7.271  14.124  13.918
 1310W        W60571  14.622  17.242  14.401
 1311W        W60572   3.280  10.164  14.994
 1312W        W60573  31.020  21.128  10.470
 1313W        W60574  38.983   5.827   2.304
 1314W        W60575  12.207  27.551  10.452
 1315W        W60576   1.401  28.590   2.757
 1316W        W60577  40.414  13.831   0.382
 1317W        W60578  14.826   7.314   2.702
 1318W        W60579  24.522  28.617  10.501
 1319W        W60580  28.938   8.897   4.807
 1320W        W60581  32.984  26.636  14.318
 1321W        W60582  32.529   4.235  12.369
 1322W        W60583  26.695   5.388  14.377
 1323W        W60584   8.395  34.555   1.224
 1324W        W60585  13.611  37.955   2.391
 1325W        W60586  13.707   3.951   3.242
 1326W        W60587  37.503  39.839  10.454
 1327W        W60588  29.934  38.464   2.314
 1328W        W60589  20.522  37.550   0.466
 1329W        W60590  20.616   4.420  12.354
 1330W        W60591  10.803  21.135   4.608
 1331W        W60592   6.888  32.595  13.033
 1332W        W60593  39.406  19.553  14.011
 1333W        W60594  30.502  38.949  13.354
 1334W        W60595  37.540  29.588   1.397
 1335W        W60596   8.696  13.125   3.338
 1336W        W60597  27.525   4.436  13.362
 1337W        W60598  30.630  15.711   1.317
 1338W        W60599  34.480   8.734  11.883
 1339W        W60600  22.195  25.154  12.428
 1340W        W60601  13.654  34.500  14.426
 1341W        W60602   4.315   4.805   1.899
 1342W        W60603  23.721  27.996   1.364
 1343W        W60604  43.509  11.206  12.434
 1344W        W60605   8.851  24.219  10.608
 1345W        W60606  28.025   7.911   3.177
 1346W        W60607   9.187  36.043   1.764
 1347W        W60608  41.343  24.203  14.955
 1348W        W60609  33.436  36.583   2.193
 1349W        W60610  37.984  43.767  14.476
 1350W        W60611  15.813  36.445   4.791
 1351W        W60612  19.675  40.440   4.690
 1352W        W60613   2.245  28.620   3.282
 1353W        W60614  11.769  18.062  12.961
 1354W        W60615  42.347  16.658   1.352
 1355W        W60616  12.182  35.476  10.445
 1356W        W60617   6.336  27.625   2.265
 1357W        W60618  29.928  26.523  10.535
 1358W        W60619  14.216  34.615   4.765
 1359W        W60620  39.041   4.390  14.836
 1360W        W60621  18.189  33.935   1.882
 1361W        W60622  27.661   6.270   0.817
 1362W        W60623  42.975  36.469   0.791
 1363W        W60624  12.704   6.355   3.275
 1364W        W60625  20.230  15.267   1.385
 1365W        W60626  14.650  20.756   3.323
 1366W        W60627   0.938  17.304   2.811
 1367W        W60628  41.794  40.983   2.704
 1368W        W60629  27.035  14.721  11.390
 1369W        W60630  23.097   3.735   1.249
 1370W        W60631  12.748  33.977  14.807
 1371W        W60632  23.722  40.920   3.714
 1372W        W60633  35.463  11.805   0.313
 1373W        W60634   1.413  10.860  12.908
 1374W        W60635  23.125  17.798   0.869
 1375W        W60636   9.324  39.413  14.817
 1376W        W60637  32.442  33.543  14.423
 1377W        W60638  23.670   5.434   2.882
 1378W        W60639  10.783  24.083  10.998
 1379W        W60640  33.012  44.881  10.415
 1380W        W60641  30.947  44.939   3.803
 1381W        W60642  41.892  27.098   1.228
 1382W        W60643   8.177  44.840  12.940
 1383W        W60644   9.783  23.567  13.008
 1384W        W60645   7.773  17.105   3.862
 1385W        W60646  23.220  33.097   0.366
 1386W        W60647  30.480  21.206  14.013
 1387W        W60648  40.053  33.922  14.793
 1388W        W60649  43.886   0.927   4.277
 1389W        W60650   2.798   4.325   2.402
 1390W        W60651  37.866   4.283  14.966
 1391W        W60652  28.153   2.451  11.473
 1392W        W60653  10.878   9.858  13.824
 1393W        W60654  28.053  32.499   3.732
 1394W        W60655   6.315   8.313   0.438
 1395W        W60656   2.831  35.009   3.329
 1396W        W60657  16.700  41.956  12.381
 1397W        W60658  20.055  43.917   2.248
 1398W        W60659  10.211  27.943  11.529
 1399W        W60660  28.104   6.190   5.286
 1400W        W60661  19.182  36.960   3.642
 1401W        W60662  23.546  34.043  13.831
 1402W        W60663   0.910  19.184   3.181
 1403W        W60664  16.687  22.094  14.330
 1404W        W60665  29.057   2.965   1.228
 1405W        W60666   0.493  35.077   0.395
 1406W        W60667  36.545  19.285  10.993
 1407W        W60668  38.387  30.618  11.442
 1408W        W60669  18.162  24.535   9.964
 1409W        W60670  37.466  44.505   3.332
 1410W        W60671  20.660  12.642  12.541
 1411W        W60672   7.203   7.180   0.735
 1412W        W60673  38.864  21.537  13.476
 1413W        W60674  29.509   8.668  10.499
 1414W        W60675   9.680  34.484   4.715
 1415W        W60676  36.373  38.049   1.310
 1416W        W60677  43.863   9.337  14.293
 1417W        W60678  17.802   3.266   3.864
 1418W        W60679  16.738  14.689   1.434
 1419W        W60680   9.374   8.406  10.435
 1420W        W60681   7.389  14.764  12.852
 1421W        W60682  42.437  44.447  11.424
 1422W        W60683  36.388   0.449  12.917
 1423W        W60684  13.603   4.752   0.345
 1424W        W60685  10.325  22.595   0.466
 1425W        W60686  37.963  28.170   3.787
 1426W        W60687  13.817   1.285   2.892
 1427W        W60688  31.599  34.891  10.921
 1428W        W60689  14.113  14.269  12.497
 1429W        W60690  31.420  10.832  14.510
 1430W        W60691  30.979   9.727   0.357
 1431W        W60692  12.363  32.996   1.891
 1432W        W60693  22.053  34.058  14.294
 1433W        W60694  23.501  26.027   1.329
 1434W        W60695  44.818  40.991  13.026
 1435W        W60696  32.401  15.304  13.959
 1436W        W60697  20.061  21.221   2.868
 1437W        W60698   3.766  18.711  13.401
 1438W        W60699  34.369  40.437  14.907
 1439W        W60700  42.288  20.055   2.842
 1440W        W60701  24.556   5.756  11.599
 1441W        W60702  14.650  24.189  11.543
 1442W        W60703  38.836  43.391   2.887
 1443W        W60704  16.582  37.345   1.275
 1444W        W60705   6.762  43.961  11.497
 1445W        W60706  34.001  30.454  11.887
 1446W        W60707   7.313  41.869  11.926
 1447W        W60708  41.323  17.744   2.744
 1448W        W60709  15.581   4.899   1.216
 1449W        W60710  22.185  11.740   3.832
 1450W        W60711   1.949  12.657  10.643
 1451W        W60712  12.164   6.700   2.397
 1452W        W60713  23.229  15.718  12.852
 1453W        W60714  30.064  35.440  11.969
 1454W        W60715  25.573  31.113   3.275
 1455W        W60716  17.730  41.448   2.250
 1456W        W60717  30.109  17.064  12.356
 1457W        W60718  17.291   4.312  10.925
 1458W        W60719   8.765  10.790   1.839
 1459W        W60720  19.649  30.939   0.933
 1460W        W60721  40.404   7.794  12.012
 1461W        W60722  16.795  43.979   3.749
 1462W        W60723   7.200  26.625  13.054
 1463W        W60724   4.882  13.845   3.148
 1464W        W60725  35.535   7.793  14.366
 1465W        W60726  31.109  26.471  12.466
 1466W        W60727  10.694  27.945   1.761
 1467W        W60728   9.775   7.221   3.709
 1468W        W60729  22.999  22.714   4.659
 1469W        W60730  35.018  17.619   4.663
 1470W        W60731  31.925  21.564   3.201
 1471W        W60732  11.785  28.156  14.844
 1472W        W60733  41.371  21.190   2.337
 1473W        W60734  22.221  19.719   3.809
 1474W        W60735  44.491  22.034  13.524
 1475W        W60736  29.984  32.019  13.397
 1476W        W60737  21.185  36.569   3.786
 1477W        W60738  24.145  18.088   3.353
 1478W        W60739  38.488  29.642   2.360
 1479W        W60740  17.223  33.905  14.940
 1480W        W60741   2.751  29.463   0.914
 1481W        W60742  15.651  19.643   3.797
 1482W        W60743  11.286  13.688   2.401
 1483W        W60744  28.618  16.695   2.792
 1484W        W60745  30.450  31.623  11.957
 1485W        W60746  34.530  30.579   2.679
 1486W        W60747  31.601   5.852  12.388
 1487W        W60748  17.128  17.629   0.955
 1488W        W60749  28.645  30.991   2.258
 1489W        W60750   5.733  30.989   0.948
 1490W        W60751  14.265  40.480  13.369
 1491W        W60752   0.254  33.924  12.920
 1492W        W60753  21.602  30.076   3.286
 1493W        W60754  18.247   7.896   1.817
 1494W        W60755  42.920  17.253  13.412
 1495W        W60756  31.559  14.617   0.902
 1496W        W60757  37.373  17.686   4.341
 1497W        W60758  31.112  35.383  13.985
 1498W        W60759  41.311  24.168   4.279
 1499W        W60760   8.800  26.692  10.536
 1500W        W60761  43.780  35.569  10.900
 1501W        W60762   0.475  18.733  10.597
 1502W        W60763   9.783  15.578  14.823
 1503W        W60764  44.329  14.250   2.360
 1504W        W60765  40.510   6.916   3.743
 1505W        W60766   0.874   2.934   2.349
 1506W        W60767  13.787  39.359  11.399
 1507W        W60768   1.934  10.859  10.929
 1508W        W60769  40.919  25.500   2.670
 1509W        W60770  14.820   6.713   0.379
 1510W        W60771  36.846  42.916   3.321
 1511W        W60772  41.861   3.743   1.796
 1512W        W60773  16.250   6.756   3.687
 1513W        W60774  31.066  32.446   2.772
 1514W        W60775  25.066  13.636  12.532
 1515W        W60776  17.131  16.100   3.690
 1516W        W60777  18.714  22.658   1.439
 1517W        W60778  41.311  28.969  13.889
 1518W        W60779   0.859  10.273   0.819
 1519W        W60780  25.711  15.654   2.715
 1520W        W60781  37.942   5.232  12.487
 1521W        W60782  11.364  43.356   0.411
 1522W        W60783  21.202  29.128  14.371
 1523W        W60784  39.861   4.415   1.758
 1524W        W60785  14.285   6.903  11.962
 1525W        W60786  36.359  37.578   0.825
 1526W        W60787  35.367  19.686  14.845
 1527W        W60788  34.055  41.998   4.677
 1528W        W60789  25.703   1.271  12.059
 1529W        W60790  41.970  10.800  14.889
 1530W        W60791  32.007  34.995  12.470
 1531W        W60792  24.229  10.645   3.741
 1532W        W60793  14.204  38.999   4.131
 1533W        W60794  18.279  23.128   3.244
 1534W        W60795  33.408  32.032   1.253
 1535W        W60796  14.643  16.747   3.709
 1536W        W60797  17.130  13.118   5.216
 1537W        W60798  42.969  15.676   1.307
 1538W        W60799  23.073  19.197  11.995
 1539W        W60800  26.586  12.234  14.325
 1540W        W60801  37.852  43.977  10.106
 1541W        W60802   7.370  26.474   0.917
 1542W        W60803  27.501  23.625  12.095
 1543W        W60804  10.356  34.009  14.450
 1544W        W60805  32.415  20.079   3.239
 1545W        W60806  22.041  35.442  12.368
 1546W        W60807   7.414  25.690  10.555
 1547W        W60808  43.377   7.269  10.137
 1548W        W60809  32.608  20.548   0.935
 1549W        W60810  36.024  18.069  11.444
 1550W        W60811  32.082  14.143  14.777
 1551W        W60812   6.308  23.130  14.424
 1552W        W60813   2.417   2.886   1.755
 1553W        W60814  44.798  37.888   1.343
 1554W        W60815   2.418  43.344   1.801
 1555W        W60816   5.332  40.309   2.850
 1556W        W60817   7.314   4.319   2.355
 1557W        W60818   3.761  28.560  14.857
 1558W        W60819  38.451  32.469  10.620
 1559W        W60820  14.722  40.418  12.360
 1560W        W60821  25.611  23.492  12.432
 1561W        W60822  30.657  39.392  11.981
 1562W        W60823  22.246  29.492   3.225
 1563W        W60824  15.092  40.461  11.856
 1564W        W60825  10.274  42.879  14.339
 1565W        W60826   9.878  24.586   2.309
 1566W        W60827  33.890  20.684   1.431
 1567W        W60828   6.234  11.341   0.289
 1568W        W60829  24.602  25.659  10.615
 1569W        W60830  18.172  23.993  13.884
 1570W        W60831   0.885  16.238  12.003
 1571W        W60832  21.163  21.136   2.200
 1572W        W60833  26.618  20.720   0.341
 1573W        W60834  41.822  21.571  11.018
 1574W        W60835  15.290   3.396   0.773
 1575W        W60836  18.643  38.853   5.311
 1576W        W60837  16.760   7.356  14.006
 1577W        W60838  38.430   9.761  12.564
 1578W        W60839  32.989  32.401  10.527
 1579W        W60840  10.837  38.473   3.260
 1580W        W60841  26.112  31.980   4.313
 1581W        W60842  19.170  16.706   5.149
 1582W        W60843  16.175   7.388  13.362
 1583W        W60844  43.813  28.999  13.893
 1584W        W60845  17.278   4.731   1.426
 1585W        W60846  17.219  10.317   0.419
 1586W        W60847  38.340  30.603   1.763
 1587W        W60848  28.125  15.220  11.860
 1588W        W60849  13.216  34.509   0.814
 1589W        W60850  24.592  35.947  12.492
 1590W        W60851  36.977  31.967   1.263
 1591W        W60852  11.255  25.015  14.318
 1592W        W60853  12.751  43.869  11.958
 1593W        W60854  38.528  33.504  14.481
 1594W        W60855   7.717  20.248   2.879
 1595W        W60856  15.774  11.856   3.288
 1596W        W60857  33.072  12.205  13.832
 1597W        W60858  19.157  19.686  13.901
 1598W        W60859  18.062   1.855  10.998
 1599W        W60860   7.206  37.888  13.810
 1600W        W60861  39.550  37.407   1.437
 1601W        W60862   8.200  17.305   4.262
 1602W        W60863  28.468  14.241   2.285
 1603W        W60864  14.690  18.100   0.441
 1604W        W60865  37.439  29.061  13.955
 1605W        W60866  24.532   5.324   4.197
 1606W        W60867  39.021   8.717   0.894
 1607W        W60868   1.792  30.417   4.293
 1608W        W60869   4.240  41.511   4.706
 1609W        W60870  40.042   8.390   2.880
 1610W        W60871  41.476  40.511   1.374
 1611W        W60872  35.106  22.527   1.334
 1612W        W60873  33.987  22.570   0.306
 1613W        W60874  14.792  41.347  12.068
 1614W        W60875  37.349   2.741   3.207
 1615W        W60876   5.212  24.485  12.866
 1616W        W60877   6.362  24.979   2.802
 1617W        W60878   6.402  36.998  12.577
 1618W        W60879  30.086   5.279  10.617
 1619W        W60880  17.261  34.950  14.469
 1620W        W60881  26.654  36.908   0.347
 1621W        W60882  10.253  15.197   3.148
 1622W        W60883  37.459  21.638   4.616
 1623W        W60884   2.907  29.957  12.556
 1624W        W60885  26.601  19.778  10.131
 1625W        W60886   8.179  19.255  11.440
 1626W        W60887   5.716  34.959  13.464
 1627W        W60888  13.252  18.280  10.477
 1628W        W60889  20.759  10.279   4.340
 1629W        W60890  17.132  25.000   5.164
 1630W        W60891  42.455  30.911  14.766
 1631W        W60892  20.043  40.465  14.010
 1632W        W60893  32.512  21.742  12.458
 1633W        W60894  21.536   0.447   1.844
 1634W        W60895  23.592  12.652  12.365
 1635W        W60896  31.587  25.695   4.658
 1636W        W60897  43.866  23.054   0.419
 1637W        W60898  21.154   6.385   3.191
 1638W        W60899  15.587  29.648  14.844
 1639W        W60900  35.479  36.955   2.768
 1640W        W60901   7.890  31.524  11.118
 1641W        W60902   7.398  32.976   2.191
 1642W        W60903   6.707  33.995   1.413
 1643W        W60904   4.251  34.091   3.234
 1644W        W60905  13.825  18.545  13.966
 1645W        W60906  18.259  21.057  13.972
 1646W        W60907  14.308  26.472   3.182
 1647W        W60908  35.363  36.454   4.216
 1648W        W60909   4.941  37.505  14.013
 1649W        W60910   2.886  23.115   2.312
 1650W        W60911  37.061  20.639   1.290
 1651W        W60912  42.943   0.367  13.875
 1652W        W60913  10.723  24.201  14.029
 1653W        W60914  11.685  10.247   1.384
 1654W        W60915  32.415  10.879  13.026
 1655W        W60916   0.258   6.385  10.464
 1656W        W60917  19.687  29.618  10.971
 1657W        W60918  12.202  17.223   4.820
 1658W        W60919   5.731   1.408   2.678
 1659W        W60920  41.966  27.507   0.773
 1660W        W60921  12.260  21.028  14.283
 1661W        W60922  27.557  30.512   0.940
 1662W        W60923  39.866  20.265   4.148
 1663W        W60924  14.186   4.942   2.265
 1664W        W60925  28.653  13.239  12.923
 1665W        W60926  33.484  40.488   1.845
 1666W        W60927  29.964  25.503  11.473
 1667W        W60928  30.908   0.450  14.331
 1668W        W60929  32.058  21.553  10.961
 1669W        W60930  21.521  11.751  12.507
 1670W        W60931  36.517  33.471   2.901
 1671W        W60932   1.270  26.461  14.332
 1672W        W60933  38.552  33.091  14.890
 1673W        W60934  21.202   3.843   1.910
 1674W        W60935  43.919  19.708   1.818
 1675W        W60936  39.520   1.968  11.499
 1676W        W60937   6.198  19.695  12.357
 1677W        W60938   7.822  31.506   0.348
 1678W        W60939  38.024  13.252  11.876
 1679W        W60940  26.052  19.168   0.357
 1680W        W60941  21.100  14.690   3.282
 1681W        W60942   5.341  20.657   1.918
 1682W        W60943  20.579  20.601  10.090
 1683W        W60944  21.584  19.059   2.867
 1684W        W60945  42.397  11.331   3.662
 1685W        W60946  28.080  29.919  13.865
 1686W        W60947  26.660  35.897   9.940
 1687W        W60948  37.406   6.203  12.397
 1688W        W60949   8.297  34.010  14.382
 1689W        W60950  16.696   9.366   0.269
 1690W        W60951  20.028   3.412   4.714
 1691W        W60952  20.193  37.427  14.828
 1692W        W60953  16.785  37.918   3.267
 1693W        W60954  16.651  13.843   4.332
 1694W        W60955  15.582  24.107  11.093
 1695W        W60956  11.703  24.685  10.992
 1696W        W60957   5.281  25.495  11.936
 1697W        W60958  24.512  44.975   3.289
 1698W        W60959   0.387  22.060   3.822
 1699W        W60960  39.844   7.727   1.263
 1700W        W60961  31.048  28.639   2.691
 1701W        W60962   2.423  21.715  11.553
 1702W        W60963  17.099  11.233  11.557
 1703W        W60964  12.610  24.151   4.780
 1704W        W60965  11.272   4.240   9.987
 1705W        W60966  19.179  43.335   3.739
 1706W        W60967  32.626  34.458  14.390
 1707W        W60968  10.851  27.982   2.237
 1708W        W60969  30.001  28.185   3.235
 1709W        W60970  23.514  34.538   0.366
 1710W        W60971  32.524  28.929   1.333
 1711W        W60972  28.088   6.800   0.952
 1712W        W60973   4.213  31.127  12.931
 1713W        W60974  44.488  10.718   1.897
 1714W        W60975  32.916  19.599   4.652
 1715W        W60976  22.723  18.079   2.674
 1716W        W60977  40.508  17.104  13.051
 1717W        W60978  11.229   8.862   4.695
 1718W        W60979  40.802  24.193  14.947
 1719W        W60980  14.236   3.794   3.174
 1720W        W60981  25.991   4.850   3.314
 1721W        W60982  34.955  38.418   0.414
 1722W        W60983  38.409  34.606   3.176
 1723W        W60984  36.096   8.738  10.457
 1724W        W60985  13.268  27.178  11.977
 1725W        W60986  43.484  28.569  10.622
 1726W        W60987  24.066  43.372   2.775
 1727W        W60988  10.739  39.471  11.892
 1728W        W60989   6.243  40.547   0.351
 1729W        W60990   0.296  38.051  14.886
 1730W        W60991  23.525  13.745  10.888
 1731W        W60992  28.050  22.675  14.472
 1732W        W60993   1.961  12.166  13.318
 1733W        W60994  22.615  31.902   3.676
 1734W        W60995  34.017  29.995  11.401
 1735W        W60996   4.343  17.710   0.380
 1736W        W60997  19.659  14.781  14.867
 1737W        W60998  37.463   6.407   2.348
 1738W        W60999  14.628  27.587   4.251
 1739W        W61000  12.260   9.734   0.865
 1740W        W61001  33.986  15.236   3.655
 1741W        W61002   1.385  19.050   3.298
 1742W        W61003  24.049   0.792   1.277
 1743W        W61004  28.145   0.814  12.849
 1744W        W61005  15.693  42.354  12.953
 1745W        W61006  25.706   6.713   2.332
 1746W        W61007   7.225   5.413   1.227
 1747W        W61008   7.279  18.283  13.433
 1748W        W61009  32.023   8.248   2.778
 1749W        W61010  36.564  35.951   4.728
 1750W        W61011  14.143  30.159  10.533
 1751W        W61012  36.062  11.655  14.783
 1752W        W61013  37.995  38.444  14.870
 1753W        W61014  19.636  32.456   1.224
 1754W        W61015   6.751  10.757   0.258
 1755W        W61016  14.815  17.616   1.738
 1756W        W61017  10.367   8.327  11.931
 1757W        W61018  42.032  38.041  10.497
 1758W        W61019  22.014   6.200  14.781
 1759W        W61020  32.446  39.860  13.348
 1760W        W61021  42.499  31.464  13.515
 1761W        W61022   3.259  26.147  14.999
 1762W        W61023  42.421   6.826   1.934
 1763W        W61024  14.815  44.798   4.633
 1764W        W61025  15.088  17.149   1.721
 1765W        W61026  33.542  18.629   0.274
 1766W        W61027  31.435   1.832  11.061
 1767W        W61028  42.994  26.691  14.031
 1768W        W61029  22.542  42.991   4.623
 1769W        W61030  20.195  14.741   3.276
 1770W        W61031   5.770   9.834   3.228
 1771W        W61032  34.464  41.038   0.916
 1772W        W61033   2.744  14.722   1.402
 1773W        W61034  16.714  23.654   2.406
 1774W        W61035  25.008   1.369   4.720
 1775W        W61036  35.506  30.583  11.527
 1776W        W61037  40.339  22.581   2.722
 1777W        W61038  23.205  23.227   4.262
 1778W        W61039  10.795  38.833  13.356
 1779W        W61040  14.614  16.736   3.323
 1780W        W61041  12.215   0.352   5.174
 1781W        W61042   5.727  41.040  10.640
 1782W        W61043   8.293  11.329   4.797
 1783W        W61044  26.158  36.885   3.277
 1784W        W61045   4.211  25.675   4.231
 1785W        W61046  16.215  18.139  10.420
 1786W        W61047  20.709   7.303   4.312
 1787W        W61048  17.725  37.871   1.843
 1788W        W61049  25.694  11.210   3.291
 1789W        W61050  19.061  32.906  13.347
 1790W        W61051  16.112  19.089   0.427
 1791W        W61052  39.405  12.634   3.255
 1792W        W61053  36.958  34.986  13.410
 1793W        W61054  16.784   0.954  13.965
 1794W        W61055   6.741  10.830   2.258
 1795W        W61056  22.037  39.065  10.901
 1796W        W61057   8.363  41.811  12.968
 1797W        W61058  22.045  43.818  14.332
 1798W        W61059   3.827   4.245  12.859
 1799W        W61060   5.882  25.531  10.540
 1800W        W61061  36.930  13.671  12.077
 1801W        W61062  10.307  10.737  12.420
 1802W        W61063  44.976  40.830  11.374
 1803W        W61064  24.084   6.893  12.922
 1804W        W61065  33.952  11.306   5.262
 1805W        W61066  32.534   3.383   0.819
 1806W        W61067  12.222  21.099   1.796
 1807W        W61068  43.474   9.373  12.938
 1808W        W61069  10.647  38.522  13.370
 1809W        W61070   0.981   5.309  13.343
 1810W        W61071  27.632  29.097   2.855
 1811W        W61072   5.697   3.759   0.477
 1812W        W61073  18.603   1.471   1.399
 1813W        W61074  42.958  37.419  12.566
 1814W        W61075  12.718  15.729   1.860
 1815W        W61076  22.696  38.030  14.986
 1816W        W61077  16.729  23.141   1.258
 1817W        W61078  13.265  39.973   3.245
 1818W        W61079  20.173  31.943   0.770
 1819W        W61080  12.118  43.469   1.313
 1820W        W61081  21.629   1.369  13.351
 1821W        W61082  38.540  25.090   1.818
 1822W        W61083   9.767  18.593   2.227
 1823W        W61084  23.549   3.461   4.199
 1824W        W61085  23.498  20.628   2.329
 1825W        W61086  42.807  24.219  11.400
 1826W        W61087  18.601  17.768  14.427
 1827W        W61088  15.699  41.833   3.209
 1828W        W61089  10.275   3.223  13.829
 1829W        W61090  12.659   3.258   4.315
 1830W        W61091  33.069   5.913  13.033
 1831W        W61092  36.391  13.228   2.872
 1832W        W61093   6.214  14.795   0.888
 1833W        W61094  10.702  30.530  13.978
 1834W        W61095   5.321   6.381   2.800
 1835W        W61096   4.707  37.039   1.735
 1836W        W61097   6.366  38.865   4.623
 1837W        W61098  30.099  28.959   3.861
 1838W        W61099  17.301  38.984  13.430
 1839W        W61100   6.421  29.641   1.286
 1840W        W61101  30.911  22.506   4.137
 1841W        W61102   3.948  31.922   3.228
 1842W        W61103  35.447  43.437   4.173
 1843W        W61104   5.278  38.974  14.788
 1844W        W61105   9.345  40.441   0.834
 1845W        W61106   5.735  24.723   2.824
 1846W        W61107  42.783  24.662  13.316
 1847W        W61108  42.425  41.500   2.324
 1848W        W61109  44.891  22.128  14.986
 1849W        W61110  14.609   4.277  10.094
 1850W        W61111  33.950  33.005  11.880
 1851W        W61112  44.300  41.503  13.939
 1852W        W61113  16.169  13.304  11.071
 1853W        W61114  36.044  25.608   2.673
 1854W        W61115  18.167  36.408  12.528
 1855W        W61116   2.401  40.385   4.205
 1856W        W61117  32.572  25.007  13.485
 1857W        W61118  27.602  12.816   0.472
 1858W        W61119  35.095  43.468  12.918
 1859W        W61120  32.582   5.237   2.314
 1860W        W61121   2.853  33.089  10.496
 1861W        W61122  12.298  21.709   3.724
 1862W        W61123  13.280  19.105   3.313
 1863W        W61124  14.213  23.177   1.852
 1864W        W61125  17.646  44.880  10.629
 1865W        W61126   4.872  11.802  10.445
 1866W        W61127   6.345  25.512  10.428
 1867W        W61128   2.945  13.640  10.487
 1868W        W61129   1.839  39.821   3.364
 1869W        W61130  18.141   7.772  12.853
 1870W        W61131  38.339  38.459   3.751
 1871W        W61132  42.875  28.072   2.721
 1872W        W61133   6.723   8.831   3.778
 1873W        W61134  15.149  13.270  10.511
 1874W        W61135   3.280  24.006  11.871
 1875W        W61136   3.246  29.545  11.003
 1876W        W61137  26.077  34.466   4.817
 1877W        W61138   7.848  16.147   3.310
 1878W        W61139  20.253  35.055  14.849
 1879W        W61140   4.864   3.417  13.437
 1880W        W61141  16.201  26.617  14.817
 1881W        W61142  20.167  19.072  13.935
 1882W        W61143  24.197  33.411  11.927
 1883W        W61144  24.080  10.869  13.988
 1884W        W61145  44.879  32.635   0.806
 1885W        W61146  24.128  35.541   4.150
 1886W        W61147  17.572  13.762  14.401
 1887W        W61148  20.051  32.406  10.447
 1888W        W61149  38.502  28.498  10.643
 1889W        W61150  21.645  23.185   2.831
 1890W        W61151  31.572  31.602   0.961
 1891W        W61152  27.579   0.977  11.556
 1892W        W61153  40.344  27.195  12.920
 1893W        W61154  41.977  41.840  11.975
 1894W        W61155  25.198  38.407   3.371
 1895W        W61156  42.841  26.106   0.861
 1896W        W61157  36.015   5.327   4.837
 1897W        W61158  25.634   0.395   2.236
 1898W        W61159  44.817  19.076   4.716
 1899W        W61160  37.396  14.816   1.760
 1900W        W61161  24.523  22.618   4.681
 1901W        W61162  44.406  13.216   0.836
 1902W        W61163  10.825   9.196  11.434
 1903W        W61164  42.299  10.246   0.835
 1904W        W61165  32.423  33.886  11.384
 1905W        W61166  24.105  21.155   0.308
 1906W        W61167   8.265  12.703  11.599
 1907W        W61168   4.345  23.038   0.901
 1908W        W61169  25.110  12.743   1.268
 1909W        W61170   1.925  44.758   3.805
 1910W        W61171  38.002  34.086  14.929
 1911W        W61172  43.414  40.303  14.375
 1912W        W61173   1.251  36.856   4.317
 1913W        W61174  42.379  44.396  13.448
 1914W        W61175  21.602  20.051   3.359
 1915W        W61176   2.781  21.044   3.822
 1916W        W61177  22.650  27.120  13.428
 1917W        W61178  13.309   7.665  13.489
 1918W        W61179  38.433  12.181   4.278
 1919W        W61180  35.019  39.447   2.297
 1920W        W61181   8.818  40.027   1.771
 1921W        W61182  20.123  27.645  11.431
 1922W        W61183  26.013   5.826  11.079
 1923W        W61184  35.366  40.953   0.799
 1924W        W61185  20.689   5.757  11.054
 1925W        W61186   4.869  24.129   5.277
 1926W        W61187  13.783  34.412  11.968
 1927W        W61188  43.381  25.193   4.827
 1928W        W61189  36.429   3.438   5.228
 1929W        W61190  34.449   8.802   2.218
 1930W        W61191   1.754  23.012  10.493
 1931W        W61192   6.379  23.021   1.358
 1932W        W61193  30.929   3.421  13.334
 1933W        W61194   1.884  17.706  13.486
 1934W        W61195  17.296   8.171  14.389
 1935W        W61196   3.810  35.396  12.048
 1936W        W61197  39.526   4.216  13.339
 1937W        W61198  32.537  29.933  14.336
 1938W        W61199  10.237  22.102   1.237
 1939W        W61200  15.172  17.204  13.423
 1940W        W61201   1.898  26.108   1.855
 1941W        W61202  43.772  18.056  13.849
 1942W        W61203  19.105  30.917  13.544
 1943W        W61204  27.050  26.106  11.466
 1944W        W61205  32.600  22.747   3.187
 1945W        W61206   9.153  16.254  10.978
 1946W        W61207  42.971  20.165   4.815
 1947W        W61208   6.840  19.731   4.828
 1948W        W61209  42.865  42.950  12.096
 1949W        W61210  13.212  29.087   1.214
 1950W        W61211  16.191  15.168  11.389
 1951W        W61212  11.303  39.891  13.382
 1952W        W61213  34.376   8.891  12.511
 1953W        W61214   8.900  38.441  12.954
 1954W        W61215  24.554  38.462   3.354
 1955W        W61216   7.406  16.277   2.834
 1956W        W61217  14.235  29.017  14.811
 1957W        W61218  11.634   0.927  14.489
 1958W        W61219  23.558  44.939  12.953
 1959W        W61220  11.334  43.976  10.903
 1960W        W61221   7.266   9.840  14.021
 1961W        W61222  26.477   1.382  13.979
 1962W        W61223  27.516  19.180   4.602
 1963W        W61224  41.528  44.261   2.824
 1964W        W61225  35.927  13.109  10.026
 1965W        W61226  10.719  15.624  13.060
 1966W        W61227  17.122  32.491  12.490
 1967W        W61228  28.625  43.956  11.599
 1968W        W61229  14.789  38.877   0.902
 1969W        W61230  44.889  16.740   0.253
 1970W        W61231  35.032  16.204   3.230
 1971W        W61232   3.932  10.364   0.253
 1972W        W61233  21.259  37.907  10.524
 1973W        W61234  14.196  18.757  13.894
 1974W        W61235  19.093  12.813  11.124
 1975W        W61236  41.535  19.076   4.267
 1976W        W61237  21.081  12.617  10.504
 1977W        W61238  43.388  24.553  11.398
 1978W        W61239  31.094   9.861   1.771
 1979W        W61240  30.160  30.652   2.188
 1980W        W61241  13.840  41.874  13.439
 1981W        W61242   8.817  26.670  13.827
 1982W        W61243  18.778  22.717   0.863
 1983W        W61244  28.614  36.449   4.688
 1984W        W61245  42.348   5.322   4.258
 1985W        W61246   6.894  16.776  12.350
 1986W        W61247  36.423   5.373   2.691
 1987W        W61248  42.471  25.136   2.335
 1988W        W61249   2.397  21.104  10.539
 1989W        W61250  20.531  27.190  13.832
 1990W        W61251  19.230  31.025  12.347
 1991W        W61252  11.297  24.557   0.391
 1992W        W61253  13.658  33.460   4.347
 1993W        W61254  19.694  34.457  13.395
 1994W        W61255   0.493  34.580   3.712
 1995W        W61256  40.461   6.725  11.904
 1996W        W61257  21.561  43.858  13.791
 1997W        W61258   4.770   1.439  14.820
 1998W        W61259  22.188   5.781   1.714
 1999W        W61260  15.204  18.564   0.793
 2000W        W61261  40.457   9.273  11.083
 2001W        W61262   2.925  33.999  11.911
 2002W        W61263  28.107  24.522   4.237
 2003W        W61264  40.878   3.296   1.224
 2004W        W61265   9.176  30.510   4.230
 2005W        W61266   9.387  21.255  14.307
 2006W        W61267  24.993  30.063  14.798
 2007W        W61268  20.136  33.973  12.983
 2008W        W61269  12.630  17.132   2.747
 2009W        W61270  24.160  23.061   2.832
 2010W        W61271  25.137   7.256  10.486
 2011W        W61272  22.199  12.826   0.855
 2012W        W61273  17.147  38.413  13.437
 2013W        W61274  16.700   7.237  11.590
 2014W        W61275   0.291  37.892   1.731
 2015W        W61276  20.112   5.899   0.332
 2016W        W61277  14.157  25.608   4.795
 2017W        W61278   3.879   7.674   0.847
 2018W        W61279  42.874  29.431   3.687
 2019W        W61280  25.670  38.829   5.085
 2020W        W61281  17.274  33.475   2.882
 2021W        W61282  34.480  36.888  14.348
 2022W        W61283   4.853   6.682   4.634
 2023W        W61284  36.505  25.579   0.372
 2024W        W61285  21.226   8.249   2.193
 2025W        W61286  21.742  12.312  11.515
 2026W        W61287  33.121  17.699  13.063
 2027W        W61288  33.556  24.191   2.254
 2028W        W61289   3.721  20.150   2.826
 2029W        W61290  29.998  25.108   4.664
 2030W        W61291   2.372  44.857  10.630
 2031W        W61292  35.078   5.696   4.311
 2032W        W61293  16.575  28.035   4.167
 2033W        W61294  11.739  42.007   0.280
 2034W        W61295  34.901   7.876  11.606
 2035W        W61296  13.657   5.366   3.781
 2036W        W61297   3.827   4.278   3.703
 2037W        W61298  42.373  27.941   2.342
 2038W        W61299  38.382  33.051   4.811
 2039W        W61300  32.603  14.686  12.456
 2040W        W61301   6.838  32.475  10.552
 2041W        W61302  42.293  33.895   0.768
 2042W        W61303  27.959  38.338   2.869
 2043W        W61304  15.600  23.699  11.092
 2044W        W61305  17.294  30.416  11.559
 2045W        W61306  32.999  32.944  12.085
 2046W        W61307  35.015   4.288  10.429
 2047W        W61308  10.875  23.205  10.468
 2048W        W61309   8.877  21.630   3.777
 2049W        W61310  18.738  40.345  10.971
 2050W        W61311  14.322  12.725  14.898
 2051W        W61312  16.096  14.692  12.445
 2052W        W61313   0.913  28.584  13.914
 2053W        W61314   8.181  12.153   4.229
 2054W        W61315  26.606  42.860  11.456
 2055W        W61316  33.900   9.179  12.884
 2056W        W61317  41.992  14.656  10.895
 2057W        W61318  26.617   2.723  13.391
 2058W        W61319  19.281  31.612   4.660
 2059W        W61320  40.478   9.736  11.123
 2060W        W61321  14.116   3.380  13.318
 2061W        W61322  35.871  23.619   2.306
 2062W        W61323   8.698  34.485   0.814
 2063W        W61324   0.475  21.675   0.428
 2064W        W61325  11.669   6.677  10.918
 2065W        W61326  17.272  34.591  14.286
 2066W        W61327  10.860  23.068   1.389
 2067W        W61328  10.763   7.799  12.438
 2068W        W61329   1.781  12.747  12.348
 2069W        W61330  17.695  22.142  11.040
 2070W        W61331  23.709   3.782  14.450
 2071W        W61332  24.640  44.979   4.223
 2072W        W61333  30.531  39.413   1.858
 2073W        W61334  21.579  14.210   3.375
 2074W        W61335  33.399  28.938  13.395
 2075W        W61336  14.699  20.556   1.439
 2076W        W61337   1.326  40.411   0.893
 2077W        W61338  43.345   5.281  13.800
 2078W        W61339  35.062  44.764  10.979
 2079W        W61340  18.580   3.760   2.190
 2080W        W61341  18.612  19.746   4.349
 2081W        W61342  23.141  30.107  11.488
 2082W        W61343  32.443  13.649   1.433
 2083W        W61344  30.102  21.685   2.251
 2084W        W61345  23.089  22.046  12.530
 2085W        W61346  36.547  15.175   4.128
 2086W        W61347  43.961  32.035   4.662
 2087W        W61348  38.439  33.426   9.604
 2088W        W61349  38.015  33.894   0.430
 2089W        W61350   1.400  17.779   2.392
 2090W        W61351   5.714  16.093  13.374
 2091W        W61352   5.797  30.065   4.631
 2092W        W61353  14.250   1.263   0.883
 2093W        W61354  34.525   3.214   3.346
 2094W        W61355  41.849  17.619  12.540
 2095W        W61356   6.706   7.249   0.947
 2096W        W61357  39.335   3.899  14.776
 2097W        W61358  13.838   2.402  10.125
 2098W        W61359  29.942  40.307  13.459
 2099W        W61360  17.135  31.964  12.031
 2100W        W61361  32.581  31.908   3.695
 2101W        W61362  40.498  26.466  14.973
 2102W        W61363  27.099  18.262   2.365
 2103W        W61364  33.568  25.699   1.354
 2104W        W61365  26.633  34.989  14.001
 2105W        W61366  34.989  35.073  11.855
 2106W        W61367   9.829   2.443  11.060
 2107W        W61368  36.887  20.082  14.837
 2108W        W61369  13.280  17.183   1.798
 2109W        W61370  31.565  37.839  12.982
 2110W        W61371  32.514  29.569   0.832
 2111W        W61372  35.062  16.733  10.972
 2112W        W61373  38.020   8.789   2.215
 2113W        W61374   0.374  12.847  14.282
 2114W        W61375   3.296  40.540   1.889
 2115W        W61376  28.951  21.625   3.180
 2116W        W61377   7.223  42.430   4.161
 2117W        W61378   9.320  13.841  10.473
 2118W        W61379  34.876   5.259  12.503
 2119W        W61380  19.621   5.919  13.838
 2120W        W61381  42.428  21.649  10.426
 2121W        W61382  28.608   9.813   4.763
 2122W        W61383  35.862  30.966  13.932
 2123W        W61384  37.375   0.959  11.548
 2124W        W61385  38.429   5.241  14.282
 2125W        W61386  34.419  44.992  12.091
 2126W        W61387  35.590  28.483   3.382
 2127W        W61388  41.437  31.139  10.536
 2128W        W61389  38.985  42.791  10.548
 2129W        W61390  17.581  25.196  13.009
 2130W        W61391  19.040  39.349  12.397
 2131W        W61392  44.398  21.244   2.390
 2132W        W61393  24.582  14.170  14.376
 2133W        W61394  19.209   4.841   4.307
 2134W        W61395   6.407  25.552  14.441
 2135W        W61396  17.265  35.862   4.183
 2136W        W61397  33.922  34.061  12.997
 2137W        W61398   1.366   3.890  13.048
 2138W        W61399  14.754  28.552   1.781
 2139W        W61400  13.643  33.887  13.330
 2140W        W61401  27.090  36.529   0.343
 2141W        W61402  41.795  20.213   3.344
 2142W        W61403  35.060  28.952  10.425
 2143W        W61404   2.386  26.639  13.875
 2144W        W61405  22.156   1.868   3.201
 2145W        W61406  17.218   7.333   4.699
 2146W        W61407   9.787   5.383  12.054
 2147W        W61408  17.650  16.793   0.245
 2148W        W61409   0.892  34.573   2.841
 2149W        W61410  18.127  20.624  11.893
 2150W        W61411  25.607  34.073  14.785
 2151W        W61412  30.161  23.193  14.278
 2152W        W61413  26.700  43.848   0.360
 2153W        W61414  26.110  17.723  10.910
 2154W        W61415  21.023  37.011   3.855
 2155W        W61416  41.905   7.670  12.474
 2156W        W61417   9.281  16.173   3.845
 2157W        W61418   4.364  24.001   1.880
 2158W        W61419  14.602  12.310  14.287
 2159W        W61420   3.217  11.210  10.558
 2160W        W61421   3.800  40.004  13.926
 2161W        W61422  42.471  14.286   3.336
 2162W        W61423  35.903  17.585  13.476
 2163W        W61424   3.945  27.660  13.982
 2164W        W61425  34.889  15.611  12.491
 2165W        W61426  25.696  44.356  14.867
 2166W        W61427   6.223  32.905   4.192
 2167W        W61428  19.060  41.411  12.883
 2168W        W61429  19.563  34.897  13.983
 2169W        W61430  44.494  20.590   1.318
 2170W        W61431   5.835  43.502   1.883
 2171W        W61432  21.605   5.218   4.126
 2172W        W61433  34.530  44.753  13.542
 2173W        W61434  10.872   5.409  14.797
 2174W        W61435  44.953  12.676  14.415
 2175W        W61436   9.309  12.657  10.887
 2176W        W61437  10.190   5.396  14.759
 2177W        W61438   7.865  31.512  14.346
 2178W        W61439  19.254  28.521   4.797
 2179W        W61440  16.598  25.651  11.082
 2180W        W61441  11.241   9.654  13.397
 2181W        W61442  23.686  29.552   1.448
 2182W        W61443  43.874  10.379  11.924
 2183W        W61444   6.905   6.917  14.386
 2184W        W61445  25.175  32.509   4.319
 2185W        W61446   8.661  16.249  11.408
 2186W        W61447  26.638  11.785  10.433
 2187W        W61448   2.942  19.204   1.781
 2188W        W61449  13.656  42.453   4.293
 2189W        W61450   4.719  34.930  11.444
 2190W        W61451  14.317  13.235  11.127
 2191W        W61452  21.744  26.636   1.866
 2192W        W61453  19.253  31.410   1.928
 2193W        W61454  35.932  17.239   4.311
 2194W        W61455  43.367  36.907   1.694
 2195W        W61456  10.292  43.930   1.391
 2196W        W61457  25.175  24.122   5.170
 2197W        W61458  26.565   6.760   4.182
 2198W        W61459  31.104   7.741  13.356
 2199W        W61460  29.144  22.657  12.401
 2200W        W61461  18.755   1.269  11.578
 2201W        W61462   1.359  12.316   1.816
 2202W        W61463  24.587  40.886   3.168
 2203W        W61464   9.210  20.634  11.875
 2204W        W61465  15.591   4.285   0.727
 2205W        W61466  31.638  36.951   5.104
 2206W        W61467  14.319  22.557  11.074
 2207W        W61468  43.001   3.884   4.814
 2208W        W61469   7.348   6.920   0.281
 2209W        W61470  20.710  24.549   0.746
 2210W        W61471   8.866   2.792   2.244
 2211W        W61472   5.896  15.581  10.896
 2212W        W61473  29.492  29.099  12.487
 2213W        W61474   1.926  16.308   0.880
 2214W        W61475  12.690  32.027  13.328
 2215W        W61476  37.903  24.680  11.567
 2216W        W61477  41.418  30.048  11.427
 2217W        W61478  15.641  28.601   0.367
 2218W        W61479  34.904  34.481   5.087
 2219W        W61480  43.355  13.732   2.220
 2220W        W61481  30.113  20.184   1.925
 2221W        W61482  39.840  22.727  10.525
 2222W        W61483  18.081  24.203   9.960
 2223W        W61484  22.039  33.609   0.796
 2224W        W61485  23.177  35.364   4.734
 2225W        W61486   5.738   6.858   3.762
 2226W        W61487  23.573   5.236  10.470
 2227W        W61488  28.465   0.482  12.517
 2228W        W61489  31.412   7.233  14.927
 2229W        W61490   7.204  26.633   3.849
 2230W        W61491  24.190  26.005   3.363
 2231W        W61492  28.497  11.751  10.157
 2232W        W61493  41.817  32.579  11.036
 2233W        W61494  17.799  37.538   1.375
 2234W        W61495  19.057  32.542  11.373
 2235W        W61496  34.421  20.248  11.484
 2236W        W61497  27.089  20.589   2.414
 2237W        W61498  13.636   8.199   0.259
 2238W        W61499  17.627  35.883  11.600
 2239W        W61500  33.518  29.593  12.481
 2240W        W61501  21.612  20.702   5.656
 2241W        W61502  10.348  41.362   3.156
 2242W        W61503  17.227   1.434   0.468
 2243W        W61504  21.038  12.134  11.027
 2244W        W61505  39.432  17.164  11.939
 2245W        W61506  19.645  17.687   4.200
 2246W        W61507  28.024  20.038  12.875
 2247W        W61508  23.080   5.931   0.307
 2248W        W61509   8.742  32.139  10.561
 2249W        W61510  26.045  29.539   4.766
 2250W        W61511  39.835   0.783   4.708
 2251W        W61512  18.184  30.514   0.358
 2252W        W61513  23.169  42.992   0.955
 2253W        W61514   7.204  25.195   3.710
 2254W        W61515   9.809  32.097   0.758
 2255W        W61516  41.973   6.329   0.268
 2256W        W61517  39.049  30.003  10.991
 2257W        W61518  13.287  25.586  12.898
 2258W        W61519   1.928  23.020   3.347
 2259W        W61520   6.920  42.853  12.070
 2260W        W61521  34.001  25.046  11.509
 2261W        W61522  22.678  15.159  14.948
 2262W        W61523  35.047  13.737   4.301
 2263W        W61524  13.125  37.045   3.280
 2264W        W61525   4.922  40.991   0.936
 2265W        W61526  28.136  12.190  12.861
 2266W        W61527  40.858  23.015  13.497
 2267W        W61528  35.495   9.797   2.674
 2268W        W61529  41.786  22.044  14.970
 2269W        W61530   5.782  10.254  11.458
 2270W        W61531  36.453   6.895  12.887
 2271W        W61532  36.052  40.894   5.250
 2272W        W61533  12.132  24.526   2.356
 2273W        W61534  37.976  41.426  10.912
 2274W        W61535  43.780  25.638   1.844
 2275W        W61536  21.660  18.265  11.952
 2276W        W61537  15.302  13.802  11.591
 2277W        W61538  44.765  32.029  10.451
 2278W        W61539  16.588  41.389   0.935
 2279W        W61540  12.793  16.634  13.978
 2280W        W61541  22.655   4.772   2.238
 2281W        W61542  30.092  10.647   1.382
 2282W        W61543   7.362  33.991   2.372
 2283W        W61544   8.822  26.154  13.544
 2284W        W61545   3.915  27.617   3.706
 2285W        W61546  13.769  25.637   3.773
 2286W        W61547  10.750   8.206  14.349
 2287W        W61548  27.035   9.388  10.897
 2288W        W61549  11.845  29.169   4.627
 2289W        W61550  22.699  27.069  12.384
 2290W        W61551  41.510  37.833   5.113
 2291W        W61552  34.523  33.004   1.714
 2292W        W61553  31.110  26.522  10.004
 2293W        W61554  42.333   3.933   0.789
 2294W        W61555   2.720   1.260   2.891
 2295W        W61556  43.348  39.898  13.849
 2296W        W61557   6.356  24.060   4.790
 2297W        W61558  23.568  15.591   3.700
 2298W        W61559  11.682  25.643   0.268
 2299W        W61560   9.322  44.822   0.376
 2300W        W61561   2.256   8.786  12.464
 2301W        W61562  28.503  18.672   1.343
 2302W        W61563  14.119  29.509   4.316
 2303W        W61564  19.652  32.410   2.773
 2304W        W61565   5.329   5.202   2.762
 2305W        W61566  36.469  23.641   4.332
 2306W        W61567  20.169  25.063   0.444
 2307W        W61568  43.512  10.308  13.968
 2308W        W61569  32.589  19.251  12.868
 2309W        W61570  25.467  14.643   2.178
 2310W        W61571   1.959  17.065  13.859
 2311W        W61572  20.669  12.155  10.485
 2312W        W61573  37.969  15.581   4.257
 2313W        W61574  19.734  14.788  13.871
 2314W        W61575  16.706  39.917  10.472
 2315W        W61576  11.169  39.818  13.029
 2316W        W61577  37.032  30.498   1.253
 2317W        W61578  23.102  38.001  11.925
 2318W        W61579  30.953  24.994  11.981
 2319W        W61580  13.653  21.569  11.897
 2320W        W61581   7.174  12.247   1.238
 2321W        W61582  18.261   1.947   3.773
 2322W        W61583  26.975  29.432   2.189
 2323W        W61584  23.215   6.405   2.860
 2324W        W61585  38.360  36.018  12.444
 2325W        W61586  30.463   6.782  13.522
 2326W        W61587  35.380   0.890   0.745
 2327W        W61588  23.081   0.964  13.425
 2328W        W61589  44.386  27.960  14.291
 2329W        W61590   0.754  36.904  13.857
 2330W        W61591  26.963  22.120  14.031
 2331W        W61592  43.483  17.098  10.147
 2332W        W61593   6.801   4.801  12.376
 2333W        W61594  17.639  32.451   9.621
 2334W        W61595  18.223  31.527   1.825
 2335W        W61596  23.519  26.510  14.297
 2336W        W61597  25.143  43.283   2.391
 2337W        W61598  10.273  12.769  11.413
 2338W        W61599  37.974  13.761   3.645
 2339W        W61600  13.610   9.732   1.353
 2340W        W61601   4.373  44.949   1.272
 2341W        W61602  36.364  29.458   2.880
 2342W        W61603  11.745  32.455  12.481
 2343W        W61604  10.774  44.922  10.912
 2344W        W61605   1.810  14.749  11.598
 2345W        W61606  14.662  10.739   4.626
 2346W        W61607   7.217   7.734  11.452
 2347W        W61608  13.295  14.238  14.515
 2348W        W61609  11.743   9.766  12.386
 2349W        W61610  21.700  34.425   4.168
 2350W        W61611  19.617  39.899   0.277
 2351W        W61612  29.477   4.731   1.738
 2352W        W61613   8.353  30.464  11.072
 2353W        W61614  27.682  15.127  14.418
 2354W        W61615   1.927   3.440  13.800
 2355W        W61616  28.053  32.970   2.734
 2356W        W61617  25.994  10.167   1.240
 2357W        W61618   0.778  27.134   2.891
 2358W        W61619  26.172   7.417  11.924
 2359W        W61620   9.704  34.011  14.968
 2360W        W61621  30.557   3.417  12.484
 2361W        W61622   0.834  31.639  11.012
 2362W        W61623  22.585  40.988  13.397
 2363W        W61624  26.460  39.510  12.070
 2364W        W61625  26.658  18.759   4.315
 2365W        W61626  32.053   8.802  10.411
 2366W        W61627   8.189  44.482  14.827
 2367W        W61628   9.234  34.120  12.352
 2368W        W61629  15.763  36.083  12.557
 2369W        W61630  36.077   7.770   2.736
 2370W        W61631  22.589  25.685  13.055
 2371W        W61632  37.346  29.010  13.033
 2372W        W61633  34.883  14.601  10.501
 2373W        W61634   6.230  15.160  11.029
 2374W        W61635  44.417  30.433  12.391
 2375W        W61636  27.989  14.141  14.419
 2376W        W61637  29.999  12.187  13.961
 2377W        W61638  12.678  23.712   3.774
 2378W        W61639  23.647   8.297   2.737
 2379W        W61640   3.840  38.831  14.461
 2380W        W61641  36.419  41.817   0.255
 2381W        W61642  40.536  14.126   4.700
 2382W        W61643  35.079  15.715   9.936
 2383W        W61644  22.726  26.167   3.227
 2384W        W61645   8.259  36.919  14.330
 2385W        W61646  13.271   2.855   0.460
 2386W        W61647  11.759  25.085   0.412
 2387W        W61648  31.095  32.013  14.847
 2388W        W61649   9.785   3.750   5.778
 2389W        W61650  15.095  23.191  14.987
 2390W        W61651  19.633   4.896  12.946
 2391W        W61652   6.314  36.544   3.276
 2392W        W61653  28.948  43.993  12.549
 2393W        W61654  32.067  10.220  14.364
 2394W        W61655   6.194  14.296  10.074
 2395W        W61656  12.287  30.494   4.249
 2396W        W61657  20.034  26.598  14.005
 2397W        W61658  15.669  26.187  13.405
 2398W        W61659  34.920   8.199   2.848
 2399W        W61660   5.726   2.941  14.503
 2400W        W61661  42.283  28.047  10.471
 2401W        W61662  22.049  15.182   1.724
 2402W        W61663  30.657  14.294  14.406
 2403W        W61664  14.180  25.619   3.633
 2404W        W61665  22.230  35.909  12.565
 2405W        W61666  14.303  11.802  10.900
 2406W        W61667  21.199  37.425  14.320
 2407W        W61668  39.495  16.600   4.345
 2408W        W61669   2.838  41.483  14.348
 2409W        W61670  19.689  34.476   3.692
 2410W        W61671  17.149  44.776  14.412
 2411W        W61672   0.471  13.717  10.630
 2412W        W61673   5.692   1.819   1.273
 2413W        W61674  10.766  28.136  14.292
 2414W        W61675  41.985  15.146  13.847
 2415W        W61676  29.427  22.694  14.499
 2416W        W61677  27.613  41.824   4.792
 2417W        W61678  32.630  35.857  12.524
 2418W        W61679  16.239  36.484  12.997
 2419W        W61680  37.538  40.895   3.147
 2420W        W61681  26.965  31.544   4.306
 2421W        W61682  15.672  29.139   1.360
 2422W        W61683  37.918  25.197   0.904
 2423W        W61684  36.374  24.566   0.366
 2424W        W61685   1.260  35.550   3.174
 2425W        W61686  31.107   1.477   4.257
 2426W        W61687  28.605  43.978   1.217
 2427W        W61688  15.290  26.586  14.972
 2428W        W61689  42.955  19.664  13.856
 2429W        W61690  36.025   8.660  14.423
 2430W        W61691  24.101  23.048   0.339
 2431W        W61692  11.179  34.582  13.525
 2432W        W61693  38.415  24.495   1.290
 2433W        W61694  12.173  26.156   3.248
 2434W        W61695  33.589  17.166  10.018
 2435W        W61696   5.702  21.726   0.817
 2436W        W61697  15.745   9.814   2.384
 2437W        W61698  19.168  15.193   0.922
 2438W        W61699  34.547  36.536   2.333
 2439W        W61700   7.753  20.111  12.902
 2440W        W61701  19.546  35.572   4.115
 2441W        W61702  44.288  18.211   4.174
 2442W        W61703   8.683  18.200   1.823
 2443W        W61704   5.756  28.587   3.243
 2444W        W61705  28.071   9.205  13.050
 2445W        W61706  32.415  18.726   2.851
 2446W        W61707   4.823   6.387  11.013
 2447W        W61708  32.413  35.433   0.451
 2448W        W61709   8.717  24.981  10.935
 2449W        W61710  10.321  21.255  10.960
 2450W        W61711  10.286  24.206   4.285
 2451W        W61712  19.709  31.987   0.468
 2452W        W61713  17.788  27.630  11.894
 2453W        W61714  32.431  28.649  12.916
 2454W        W61715   9.836  39.466  12.935
 2455W        W61716  19.750  19.669   0.897
 2456W        W61717  24.201  40.533   3.853
 2457W        W61718  36.880  44.291  14.890
 2458W        W61719  21.590  17.607   0.760
 2459W        W61720  16.808  42.026  14.510
 2460W        W61721  20.241  36.935  12.421
 2461W        W61722  10.146  14.277  14.289
 2462W        W61723  29.168   2.861  14.787
 2463W        W61724  29.603  41.433  10.967
 2464W        W61725  37.484   9.744  11.905
 2465W        W61726  21.721  33.583  14.777
 2466W        W61727  24.140  38.955  12.498
 2467W        W61728  43.375   9.287   1.319
 2468W        W61729  25.495  41.964   0.401
 2469W        W61730  21.059  10.180   0.455
 2470W        W61731  32.566   1.809  11.078
 2471W        W61732   0.842  36.512  13.389
 2472W        W61733  41.895  19.771   5.134
 2473W        W61734  15.714   0.447   2.687
 2474W        W61735  20.187  39.888  11.435
 2475W        W61736  10.171  25.123  14.303
 2476W        W61737   7.855  44.279   9.922
 2477W        W61738  41.533  24.633   3.365
 2478W        W61739  29.938  16.749  14.449
 2479W        W61740  24.547   3.799   3.694
 2480W        W61741  27.658  20.654  13.327
 2481W        W61742   4.752  27.108  12.026
 2482W        W61743  22.601  10.813   1.740
 2483W        W61744  33.453  35.085  11.394
 2484W        W61745  17.289   4.207   1.222
 2485W        W61746   0.316  25.156   4.648
 2486W        W61747  32.903  43.009  14.358
 2487W        W61748  16.700  37.931   1.875
 2488W        W61749   6.728  39.549   3.781
 2489W        W61750   2.913  29.443  14.810
 2490W        W61751  12.306  21.115  12.511
 2491W        W61752   6.332  31.591  14.484
 2492W        W61753  38.459  28.143   3.380
 2493W        W61754  27.124  13.240  14.805
 2494W        W61755   2.233  43.440  11.514
 2495W        W61756   2.885  25.990  13.338
 2496W        W61757  29.661   1.846   4.313
 2497W        W61758  30.515  30.554  14.780
 2498W        W61759  23.699  20.526  10.407
 2499W        W61760  23.162  20.762  11.118
 2500W        W61761  18.129  26.112   2.821
 2501W        W61762   1.461  21.593   4.622
 2502W        W61763  42.023  31.452   2.802
 2503W        W61764  34.898   0.365   1.319
 2504W        W61765  13.343   8.756  14.886
 2505W        W61766  43.930  11.672   0.319
 2506W        W61767  18.677  19.160   9.608
 2507W        W61768  38.502  11.196   0.316
 2508W        W61769  41.308  26.703  13.914
 2509W        W61770  12.699  32.958   4.715
 2510W        W61771  33.448  41.882  11.565
 2511W        W61772  18.237  16.081  14.470
 2512W        W61773  24.536   1.290  14.815
 2513W        W61774  24.109  17.626   3.722
 2514W        W61775  14.302  22.140  13.866
 2515W        W61776  42.447  28.034  13.525
 2516W        W61777  22.051   9.710   0.440
 2517W        W61778   7.204   9.827  12.548
 2518W        W61779  35.579  25.516  13.924
 2519W        W61780  11.674   8.240  11.524
 2520W        W61781   6.230  11.295  13.344
 2521W        W61782  30.613  10.328  13.040
 2522W        W61783  41.842  12.133   0.345
 2523W        W61784  14.698  33.923  14.939
 2524W        W61785  43.413  21.254   4.115
 2525W        W61786  34.421   6.394  14.002
 2526W        W61787   3.216   0.844  12.939
 2527W        W61788  40.931  38.905  11.904
 2528W        W61789  42.839  37.475  14.936
 2529W        W61790  40.356  23.060  11.029
 2530W        W61791  18.293  22.218   2.786
 2531W        W61792  20.647  22.682   3.156
 2532W        W61793   5.345  19.216  10.410
 2533W        W61794  16.656  25.666   1.811
 2534W        W61795  21.641  26.984  12.091
 2535W        W61796  25.081   4.928   1.716
 2536W        W61797  15.149  19.217  14.966
 2537W        W61798  36.031  35.920   4.139
 2538W        W61799  30.940  35.407   4.822
 2539W        W61800   2.931  18.124   2.708
 2540W        W61801  23.115  11.333  14.862
 2541W        W61802  25.140  27.041   3.296
 2542W        W61803  25.983  26.119   4.231
 2543W        W61804  39.370  26.020  14.973
 2544W        W61805   9.267   0.458   1.273
 2545W        W61806   5.811  10.276   5.258
 2546W        W61807  11.791  38.955  14.930
 2547W        W61808  44.265  22.522  11.074
 2548W        W61809  18.579  30.110  14.869
 2549W        W61810   9.797  22.037  14.783
 2550W        W61811   2.925  12.702  12.455
 2551W        W61812  16.157   8.693  14.806
 2552W        W61813  13.789  21.626  13.333
 2553W        W61814  12.227  41.999   3.686
 2554W        W61815  11.643  36.405  14.809
 2555W        W61816  24.650  29.445   1.279
 2556W        W61817  32.413  35.990  12.895
 2557W        W61818   8.256   0.317   4.769
 2558W        W61819  37.370  27.446   2.793
 2559W        W61820  33.038  26.035  10.892
 2560W        W61821  24.159  37.936  13.998
 2561W        W61822  35.537   2.782   1.921
 2562W        W61823  11.200  21.583   4.756
 2563W        W61824  29.499  20.090   2.677
 2564W        W61825  20.129  33.457  12.383
 2565W        W61826  39.932  10.200  14.839
 2566W        W61827  10.147  12.786   4.218
 2567W        W61828  36.431  23.029  14.361
 2568W        W61829  37.512  18.765  11.976
 2569W        W61830  44.373  25.003   3.769
 2570W        W61831  31.620   0.844   1.806
 2571W        W61832  23.698  24.144  11.935
 2572W        W61833  42.923  10.246  10.918
 2573W        W61834  43.018  21.150   1.808
 2574W        W61835  38.983  41.935   0.908
 2575W        W61836   0.367  37.919  11.492
 2576W        W61837  26.637   7.701   3.657
 2577W        W61838   7.841   1.356   1.787
 2578W        W61839  18.080  44.444   3.372
 2579W        W61840  37.068  23.622  14.940
 2580W        W61841  25.508  33.105  14.313
 2581W        W61842  16.682  20.205  11.901
 2582W        W61843  22.214  36.361  11.004
 2583W        W61844  15.668  30.462   1.759
 2584W        W61845  15.276  26.497   3.695
 2585W        W61846  15.584  14.736  14.363
 2586W        W61847  20.072  14.281  13.419
 2587W        W61848   1.483  33.019  11.904
 2588W        W61849  18.565  14.181  14.368
 2589W        W61850   9.216   7.697   1.759
 2590W        W61851  31.559  10.667  10.161
 2591W        W61852  39.424  33.121  12.968
 2592W        W61853   3.395   0.339  14.365
 2593W        W61854  21.638  10.871   4.194
 2594W        W61855  11.338  36.043   1.314
 2595W        W61856   0.337  32.510   3.860
 2596W        W61857  43.313  12.134   4.265
 2597W        W61858  37.367  10.866  13.823
 2598W        W61859  19.125   3.320  13.327
 2599W        W61860  16.156  17.277   3.245
 2600W        W61861  22.238  18.167   2.764
 2601W        W61862  17.706  37.987   2.179
 2602W        W61863  26.504  19.193  11.595
 2603W        W61864   5.821  13.280   1.353
 2604W        W61865  28.951  20.218   3.375
 2605W        W61866  16.198   3.449  10.474
 2606W        W61867  18.771   4.298  14.885
 2607W        W61868  37.966  20.098   0.248
 2608W        W61869   8.388   1.424  14.459
 2609W        W61870  42.503  33.577  14.919
 2610W        W61871  31.579   2.271  13.920
 2611W        W61872  32.985  32.526   4.125
 2612W        W61873  43.918  14.110  12.567
 2613W        W61874  30.039  31.498   1.261
 2614W        W61875  33.077  12.840  13.995
 2615W        W61876   6.295   5.879   5.124
 2616W        W61877  21.600  26.588   1.256
 2617W        W61878  10.779  12.665   9.564
 2618W        W61879  15.735  30.438   4.167
 2619W        W61880  23.134  17.231   2.214
 2620W        W61881  29.999  37.938   1.259
 2621W        W61882   4.424  30.529  14.762
 2622W        W61883   3.812  24.507  10.496
 2623W        W61884   2.937  23.129   0.934
 2624W        W61885  16.264  30.503  11.870
 2625W        W61886  22.208  27.541  13.870
 2626W        W61887  41.523  17.701  13.901
 2627W        W61888  32.470   2.878   4.193
 2628W        W61889  19.143  33.497   1.842
 2629W        W61890   9.362  39.436   4.262
 2630W        W61891   1.292   8.160  12.565
 2631W        W61892  12.175  17.703   0.481
 2632W        W61893  43.507  11.348  13.992
 2633W        W61894   9.758  38.897   3.291
 2634W        W61895   3.782  23.719  12.547
 2635W        W61896  16.303  26.645   9.547
 2636W        W61897  32.397  33.563   0.390
 2637W        W61898  36.864  18.260  14.793
 2638W        W61899  10.364  18.781  11.085
 2639W        W61900  26.468  16.778  14.833
 2640W        W61901  43.904  25.544  11.050
 2641W        W61902  42.403   7.280   2.217
 2642W        W61903  30.999  14.684   2.678
 2643W        W61904   7.826   2.396   1.315
 2644W        W61905  33.528   9.178   2.191
 2645W        W61906  39.532  26.197  13.438
 2646W        W61907  36.496   2.946  12.072
 2647W        W61908  16.649  14.164  10.635
 2648W        W61909   6.306  21.690  11.950
 2649W        W61910  35.009  42.355  14.927
 2650W        W61911  17.709  18.155  13.961
 2651W        W61912   4.743  26.965   1.874
 2652W        W61913  15.650  35.083  11.453
 2653W        W61914  13.127  16.690   3.692
 2654W        W61915   6.421  38.850  11.954
 2655W        W61916  10.633  12.245  10.995
 2656W        W61917  14.760   2.315   1.747
 2657W        W61918  30.066  13.344  12.468
 2658W        W61919  21.590  21.017   2.273
 2659W        W61920  25.472   3.326  12.367
 2660W        W61921  32.604  10.817   0.320
 2661W        W61922  18.090  36.574  10.607
 2662W        W61923  36.881  41.990  13.506
 2663W        W61924  11.286  19.616   0.433
 2664W        W61925  32.116   4.743  13.548
 2665W        W61926   8.750  12.203   4.799
 2666W        W61927  19.755  25.509   1.712
 2667W        W61928  19.755  42.472  10.531
 2668W        W61929  25.689  15.113  13.047
 2669W        W61930  31.026  14.769  12.552
 2670W        W61931  37.859   7.201   3.754
 2671W        W61932  20.727  17.142  12.877
 2672W        W61933  31.642  14.610  12.834
 2673W        W61934   8.368  10.328   3.368
 2674W        W61935   2.265  26.540   3.148
 2675W        W61936  44.426  26.977  13.406
 2676W        W61937  36.491  37.019  14.832
 2677W        W61938  13.757  36.403   4.795
 2678W        W61939   1.447  36.923   0.329
 2679W        W61940   0.894  37.044  12.444
 2680W        W61941  17.669  34.964   1.252
 2681W        W61942   6.686  34.050  13.866
 2682W        W61943  34.473   8.880   1.722
 2683W        W61944  18.630  10.341  10.536
 2684W        W61945  41.898  14.333  10.568
 2685W        W61946  35.457  16.078  13.975
 2686W        W61947  11.624   7.236   0.820
 2687W        W61948  36.912  40.513   1.867
 2688W        W61949  21.100  32.020  10.949
 2689W        W61950  29.931  32.411   4.322
 2690W        W61951  44.472   2.323   4.720
 2691W        W61952  39.843  12.270   2.322
 2692W        W61953  16.292  24.710  12.530
 2693W        W61954  39.917  43.440  13.362
 2694W        W61955  35.436  24.166  12.050
 2695W        W61956  14.302  40.003   2.790
 2696W        W61957  24.517  22.584  13.536
 2697W        W61958  41.468  24.634   3.678
 2698W        W61959  41.453  24.145   3.786
 2699W        W61960  39.368  40.995  14.971
 2700W        W61961   0.989  25.470  13.883
 2701W        W61962  40.991  33.096   3.685
 2702W        W61963  42.855  31.595   1.871
 2703W        W61964  31.538  22.217   1.727
 2704W        W61965  20.101  21.052   1.299
 2705W        W61966  31.487  44.969  13.451
 2706W        W61967  20.266  42.832  11.900
 2707W        W61968   1.960  11.353  10.527
 2708W        W61969  25.145  36.577  12.356
 2709W        W61970  15.143  41.408  14.768
 2710W        W61971  37.374  19.700  11.940
 2711W        W61972  38.448  28.007   4.163
 2712W        W61973  11.138  16.261   3.260
 2713W        W61974  37.954  27.616  11.956
 2714W        W61975  13.211  12.634  12.011
 2715W        W61976  33.484  26.509   3.858
 2716W        W61977   4.310   5.234   2.723
 2717W        W61978  16.231  16.198  10.579
 2718W        W61979  35.007  21.034   5.142
 2719W        W61980   5.427   9.192  11.588
 2720W        W61981  13.668   2.470   0.256
 2721W        W61982  31.463  20.256   0.398
 2722W        W61983  36.454  11.798  10.944
 2723W        W61984  11.253  10.771  12.499
 2724W        W61985  14.320  34.436   0.752
 2725W        W61986  24.004  44.415   4.251
 2726W        W61987  27.642  23.736  15.000
 2727W        W61988  21.579   5.859   0.861
 2728W        W61989  26.049  35.075   2.724
 2729W        W61990  32.636  22.177   4.769
 2730W        W61991   9.237  15.287   2.311
 2731W        W61992  11.310  38.920   4.208
 2732W        W61993   8.393  34.006  12.571
 2733W        W61994  44.814  24.171  10.967
 2734W        W61995   9.372  26.628   1.318
 2735W        W61996  12.817   7.276   1.382
 2736W        W61997   0.467  15.743   5.105
 2737W        W61998  12.818  14.124  10.038
 2738W        W61999  14.184  23.585  11.504
 2739W        W62000   6.382  23.555   0.955
 2740W        W62001  19.613   4.926  13.891
 2741W        W62002  13.114  43.331   2.419
 2742W        W62003  25.090   2.342   4.280
 2743W        W62004  13.700  11.658   4.327
 2744W        W62005  14.300  22.611   2.806
 2745W        W62006   8.894  43.859  10.598
 2746W        W62007  16.157  23.532  12.881
 2747W        W62008  24.000  23.128  13.337
 2748W        W62009   0.855  10.337   4.275
 2749W        W62010  28.464  32.033   4.124
 2750W        W62011  37.520  21.711  14.381
 2751W        W62012  22.602   2.925   3.684
 2752W        W62013  11.794  35.537  12.054
 2753W        W62014  23.130  27.592  11.429
 2754W        W62015  25.101   5.389  11.590
 2755W        W62016  43.948   2.311   0.820
 2756W        W62017  20.669  35.906  10.439
 2757W        W62018   4.316  22.690   4.300
 2758W        W62019  42.397   4.331   0.449
 2759W        W62020  24.642  32.469  12.539
 2760W        W62021  18.164  27.492   1.358
 2761W        W62022  41.027  22.023  12.488
 2762W        W62023   3.881  37.905   4.350
 2763W        W62024  22.120  28.056   4.234
 2764W        W62025   4.278  32.542   0.333
 2765W        W62026  11.315  40.402  12.460
 2766W        W62027  28.579  40.385  13.335
 2767W        W62028  19.161   1.916   4.810
 2768W        W62029  44.306  43.810   3.642
 2769W        W62030  32.977  10.310   3.676
 2770W        W62031  15.325  30.950  14.910
 2771W        W62032  32.631  11.344   2.211
 2772W        W62033  32.887  38.355  13.935
 2773W        W62034  30.029  40.518   3.725
 2774W        W62035  19.535  28.536  14.841
 2775W        W62036  39.003  41.393  13.889
 2776W        W62037   8.229  35.995  13.526
 2777W        W62038  37.060  40.808   0.968
 2778W        W62039  35.865  38.034  12.417
 2779W        W62040  26.502  31.906  11.552
 2780W        W62041   7.303  21.253  12.893
 2781W        W62042   8.799  16.637   1.903
 2782W        W62043  32.595  12.821   5.596
 2783W        W62044  36.841  32.588   2.212
 2784W        W62045  28.931  24.001   2.417
 2785W        W62046  38.352  39.017   3.310
 2786W        W62047   9.683   1.740   4.173
 2787W        W62048  43.475   2.337   3.765
 2788W        W62049  28.458   5.259  11.090
 2789W        W62050  34.886  12.652  10.542
 2790W        W62051  38.485  36.359   0.935
 2791W        W62052  42.776  24.549   2.786
 2792W        W62053  21.582  39.445  14.967
 2793W        W62054  21.260  31.422   0.245
 2794W        W62055  29.449  17.219  14.456
 2795W        W62056  16.277  40.389   0.328
 2796W        W62057  31.402  24.495  10.482
 2797W        W62058  30.089  42.854   2.900
 2798W        W62059   8.291  16.312  10.516
 2799W        W62060  41.350   7.885   0.395
 2800W        W62061  29.499  36.365  11.415
 2801W        W62062   0.358  44.488   3.298
 2802W        W62063  41.950  35.889  11.482
 2803W        W62064  14.303   9.752  13.954
 2804W        W62065   4.247   2.931  11.057
 2805W        W62066  38.560  34.984  14.514
 2806W        W62067  34.928   4.442  10.975
 2807W        W62068  39.026  39.025   1.746
 2808W        W62069   1.805  42.409   2.707
 2809W        W62070  29.961   3.839  12.342
 2810W        W62071  22.018  21.590   4.115
 2811W        W62072  36.965   8.802   4.353
 2812W        W62073   8.343  28.955  14.017
 2813W        W62074  28.042  32.514  10.979
 2814W        W62075  10.142  28.052  12.910
 2815W        W62076  42.465  34.865   4.225
 2816W        W62077  37.347  31.964   3.310
 2817W        W62078  10.271  35.104   4.634
 2818W        W62079  33.929  41.789   3.782
 2819W        W62080  12.820   2.260  10.941
 2820W        W62081  27.653  10.789  13.890
 2821W        W62082  40.026  41.930   3.276
 2822W        W62083  25.614   2.866  13.844
 2823W        W62084  22.053   6.702  11.913
 2824W        W62085  38.976  14.649  13.808
 2825W        W62086  25.964  35.553   0.443
 2826W        W62087   4.812  18.790  12.429
 2827W        W62088  17.557  40.349   3.691
 2828W        W62089  39.484  38.405  10.629
 2829W        W62090  29.131   6.334  13.828
 2830W        W62091  39.883  23.122   4.170
 2831W        W62092  23.647  31.427  12.510
 2832W        W62093   2.757   7.841  10.045
 2833W        W62094  21.598  10.691   3.212
 2834W        W62095   7.362  43.889   4.258
 2835W        W62096  33.047  12.728  11.953
 2836W        W62097  38.820  41.866   3.861
 2837W        W62098   9.337  16.272  10.426
 2838W        W62099  25.542  35.047   1.408
 2839W        W62100  14.814  10.278   0.386
 2840W        W62101   9.300  42.302   1.275
 2841W        W62102  30.445  12.628  13.956
 2842W        W62103  32.122  16.188   9.926
 2843W        W62104  12.344  27.486   1.816
 2844W        W62105  32.030  16.670  12.407
 2845W        W62106  26.986  24.037  11.088
 2846W        W62107   1.381   8.710   4.329
 2847W        W62108   7.895  27.664  13.493
 2848W        W62109  44.782  26.616   4.759
 2849W        W62110  13.765  27.672  10.462
 2850W        W62111  29.067   2.257  14.974
 2851W        W62112  29.172  40.415  10.524
 2852W        W62113  42.326  44.473   3.733
 2853W        W62114  23.713  44.423  12.066
 2854W        W62115  22.666  15.259   3.330
 2855W        W62116  26.623  31.485   3.649
 2856W        W62117   0.303  14.337  11.423
 2857W        W62118   4.780  19.198  11.053
 2858W        W62119   0.262  22.079  14.323
 2859W        W62120  19.589   9.153  12.054
 2860W        W62121  10.668  35.440  14.359
 2861W        W62122  41.332  15.280   0.794
 2862W        W62123  17.302   2.230  13.966
 2863W        W62124   2.915  44.806  13.373
 2864W        W62125   0.398  13.813   4.189
 2865W        W62126  29.561  36.549  11.966
 2866W        W62127  23.991  24.087  13.410
 2867W        W62128  29.031   1.250  14.413
 2868W        W62129  20.610  13.262  12.420
 2869W        W62130  44.503   3.427  12.569
 2870W        W62131  36.566  33.961  11.992
 2871W        W62132   6.753  36.004   1.796
 2872W        W62133  40.481  15.293   1.925
 2873W        W62134   5.696  24.181  12.989
 2874W        W62135  24.204   3.294  14.993
 2875W        W62136   1.814  39.468   1.390
 2876W        W62137  38.436  22.563   3.373
 2877W        W62138   7.322  28.010   3.736
 2878W        W62139  11.286  43.493  14.026
 2879W        W62140  10.865  34.006   4.692
 2880W        W62141  30.947  34.093   1.311
 2881W        W62142  25.694  15.257  14.931
 2882W        W62143  22.199  33.115  13.977
 2883W        W62144  40.029   0.360   0.875
 2884W        W62145   8.877  44.952  12.474
 2885W        W62146   0.883  23.221  12.079
 2886W        W62147  41.853   8.720  11.885
 2887W        W62148  16.093  26.470   4.599
 2888W        W62149  26.081  15.133   3.676
 2889W        W62150  25.038  34.000   3.162
 2890W        W62151  11.622   0.773  11.468
 2891W        W62152  32.889   1.341  14.794
 2892W        W62153  43.974   0.397   3.186
 2893W        W62154  43.392  27.540   3.632
 2894W        W62155  34.449  27.980  14.990
 2895W        W62156   5.796  38.861  11.405
 2896W        W62157   8.324   9.773   4.215
 2897W        W62158   4.328  41.504  13.833
 2898W        W62159   2.849   5.204   1.774
 2899W        W62160   5.858  39.485  11.123
 2900W        W62161  36.568  32.495   5.278
 2901W        W62162  22.585  15.601  12.827
 2902W        W62163   3.759  41.789   2.202
 2903W        W62164   9.763   5.199  14.421
 2904W        W62165   2.890   4.361  14.334
 2905W        W62166   1.739  15.213  13.945
 2906W        W62167  30.521  15.131  10.944
 2907W        W62168  39.513  21.521   0.839
 2908W        W62169  28.510  25.048  12.428
 2909W        W62170   2.889  30.136  12.979
 2910W        W62171  28.533  33.536   5.173
 2911W        W62172  34.902   5.750   3.693
 2912W        W62173  31.628  14.609   2.189
 2913W        W62174  41.473  14.826  12.830
 2914W        W62175  32.571  43.483  13.431
 2915W        W62176  34.521   7.708   3.773
 2916W        W62177  22.137  14.297   0.816
 2917W        W62178   2.933  22.732  10.624
 2918W        W62179  25.128   0.270   3.340
 2919W        W62180  30.593  12.683  11.862
 2920W        W62181  19.541   1.477   4.684
 2921W        W62182  23.056  26.986  11.080
 2922W        W62183  22.106  43.974  14.809
 2923W        W62184  30.561   3.933  10.406
 2924W        W62185   4.427  41.897   2.317
 2925W        W62186  16.191   5.377  12.380
 2926W        W62187   7.366  13.232   3.331
 2927W        W62188  43.788  12.189  13.385
 2928W        W62189  18.215  34.095  11.579
 2929W        W62190  22.671  38.430  13.911
 2930W        W62191  34.878   7.712  12.005
 2931W        W62192  32.910  22.144   1.406
 2932W        W62193  35.971  35.368   0.407
 2933W        W62194   2.283   7.347   4.661
 2934W        W62195   6.842  36.888  13.059
 2935W        W62196  39.383  30.153   3.661
 2936W        W62197   3.922  34.590  14.826
 2937W        W62198  30.559  16.191  13.056
 2938W        W62199  37.965   6.349  10.906
 2939W        W62200  18.552  44.282  12.390
 2940W        W62201  42.785   2.362  13.391
 2941W        W62202  10.811  44.502   1.350
 2942W        W62203  40.943  12.740   2.178
 2943W        W62204  33.620   6.708   3.273
 2944W        W62205  26.106  28.455  14.307
 2945W        W62206   8.730  30.068   0.821
 2946W        W62207  28.180   5.395   1.256
 2947W        W62208   3.954  18.580   9.964
 2948W        W62209  38.835  23.721   0.296
 2949W        W62210  42.779  24.137  14.307
 2950W        W62211  19.760  36.937   2.234
 2951W        W62212  26.968  11.258   0.415
 2952W        W62213  18.167   8.666  14.275
 2953W        W62214  40.898  12.187  10.450
 2954W        W62215  12.162  37.539   2.703
 2955W        W62216  32.510  42.433  13.976
 2956W        W62217  12.727  35.053   1.890
 2957W        W62218  10.722  29.622  13.062
 2958W        W62219  38.071  40.983   9.668
 2959W        W62220  27.624  14.162   3.314
 2960W        W62221   0.940  36.977   3.379
 2961W        W62222   0.421  39.814  13.402
 2962W        W62223  20.700  38.972   0.258
 2963W        W62224  11.262   3.898   3.372
 2964W        W62225   3.374  36.383   2.278
 2965W        W62226  31.548  38.983   3.644
 2966W        W62227  33.506  21.139   2.197
 2967W        W62228  33.069  33.083  12.866
 2968W        W62229  20.594  38.479  12.463
 2969W        W62230  44.825  13.314   2.664
 2970W        W62231  34.493  38.481  11.920
 2971W        W62232  25.184  33.520   3.735
 2972W        W62233  14.122  18.294  13.854
 2973W        W62234   0.406  21.612   3.689
 2974W        W62235  13.266  36.516  12.017
 2975W        W62236  13.648  25.194  13.384
 2976W        W62237   0.459   1.933  13.356
 2977W        W62238  19.746  21.739   1.358
 2978W        W62239  21.036  30.065   4.244
 2979W        W62240  39.317  37.487   1.841
 2980W        W62241   4.360  15.823  14.024
 2981W        W62242  34.080  33.880   0.314
 2982W        W62243   2.882   1.817  14.943
 2983W        W62244   1.481  20.085  14.445
 2984W        W62245   3.460  12.117  11.490
 2985W        W62246  34.037  38.025   3.869
 2986W        W62247   3.367  32.457  14.776
 2987W        W62248  22.084  39.039   1.320
 2988W        W62249  31.643  26.177  13.528
 2989W        W62250  21.226  29.461   4.833
 2990W        W62251  13.154  27.476  14.416
 2991W        W62252  44.498   4.856   0.384
 2992W        W62253   1.851  29.480  13.913
 2993W        W62254  25.552  32.565   3.192
 2994W        W62255   1.275  11.259  12.419
 2995W        W62256  21.713  37.337   1.923
 2996W        W62257   9.683   7.299  14.504
 2997W        W62258  33.911  27.135   1.276
 2998W        W62259   8.724  35.542  10.479
 2999W        W62260  35.960   0.819   0.878
 3000W        W62261  22.628   8.864   4.747
 3001W        W62262  19.603  14.153   1.890
 3002W        W62263  18.579  31.619   0.352
 3003W        W62264  38.481   4.855  13.990
 3004W        W62265  31.534  35.530  11.426
 3005W        W62266  14.631  19.086   0.381
 3006W        W62267   4.941  21.667  12.033
 3007W        W62268  36.025   9.342  14.350
 3008W        W62269  30.621  10.269   2.293
 3009W        W62270   1.345   3.791  10.525
 3010W        W62271  31.422   1.349  11.543
 3011W        W62272  25.531  12.336  11.868
 3012W        W62273  16.104  19.730   4.700
 3013W        W62274  27.029  32.984   4.165
 3014W        W62275  19.216  37.562  14.395
 3015W        W62276  38.828  44.465   3.674
 3016W        W62277  16.652   0.360  14.840
 3017W        W62278  18.747  18.115  12.874
 3018W        W62279   1.920  41.382   1.803
 3019W        W62280  28.069  43.872  14.776
 3020W        W62281  29.601  30.979   2.712
 3021W        W62282  29.547  23.518  12.984
 3022W        W62283  18.155  18.184   3.828
 3023W        W62284  33.892  42.375  10.643
 3024W        W62285   2.387  33.411   0.745
 3025W        W62286   0.979  30.096   0.392
 3026W        W62287  36.018   1.374  10.579
 3027W        W62288   3.725  38.429  11.543
 3028W        W62289   0.304   0.808   0.917
 3029W        W62290  17.101  37.035   3.819
 3030W        W62291  27.510  16.629  12.075
 3031W        W62292  33.067  18.259  12.082
 3032W        W62293  39.042  29.652  12.086
 3033W        W62294  27.045   3.256   3.367
 3034W        W62295  29.524  20.211   3.320
 3035W        W62296   6.387   3.345   4.254
 3036W        W62297  16.751  41.955   1.430
 3037W        W62298  26.972  19.100  12.446
 3038W        W62299  31.104  10.238  12.078
 3039W        W62300  32.919   4.912  12.830
 3040W        W62301  44.851   2.938   1.842
 3041W        W62302   6.843  17.686  13.935
 3042W        W62303   1.438  14.677   2.353
 3043W        W62304   5.354  42.894  12.480
 3044W        W62305  15.276  33.503  14.413
 3045W        W62306   3.842  24.993   3.689
 3046W        W62307  38.434   0.875   3.258
 3047W        W62308  40.994  31.500  14.364
 3048W        W62309  44.373  25.137  12.033
 3049W        W62310  34.954  33.049  14.821
 3050W        W62311  18.207  24.701  14.883
 3051W        W62312   9.252  44.905  11.499
 3052W        W62313  43.913  25.504   0.742
 3053W        W62314  17.734  24.503  11.537
 3054W        W62315  38.873  14.137  12.907
 3055W        W62316   1.474  15.150  14.407
 3056W        W62317   4.799  19.707   4.309
 3057W        W62318   4.345   5.275  12.984
 3058W        W62319  24.610   2.871   4.332
 3059W        W62320  30.011  41.385  13.997
 3060W        W62321  23.114   6.882  12.991
 3061W        W62322  38.828  12.155   3.325
 3062W        W62323  19.776  34.078  13.435
 3063W        W62324  41.442   7.851   4.817
 3064W        W62325  23.086   3.317  11.532
 3065W        W62326  29.060  22.529   4.140
 3066W        W62327  18.769  36.065  13.443
 3067W        W62328  12.239  32.438  12.552
 3068W        W62329  25.081  11.162   2.881
 3069W        W62330  34.463  37.502  14.417
 3070W        W62331   3.808   9.770  11.883
 3071W        W62332  43.372  29.032   0.965
 3072W        W62333  11.684   4.368  12.427
 3073W        W62334  34.540  44.782   0.321
 3074W        W62335  11.720   1.905  10.549
 3075W        W62336  23.177  27.981  14.370
 3076W        W62337   0.271  32.951  12.473
 3077W        W62338  38.521   2.772   0.823
 3078W        W62339   4.874  44.349   4.345
 3079W        W62340  12.238  34.423   1.367
 3080W        W62341   8.229  28.132   1.772
 3081W        W62342  39.837   9.180  10.578
 3082W        W62343  11.727  24.609   4.769
 3083W        W62344  44.781  28.082   4.315
 3084W        W62345  22.138  44.900  13.050
 3085W        W62346  11.349   4.319  11.857
 3086W        W62347  41.489   7.731   2.899
 3087W        W62348  40.818  42.356   1.896
 3088W        W62349  11.846   4.863   3.349
 3089W        W62350   0.358  44.349  11.478
 3090W        W62351  35.865   9.340   3.150
 3091W        W62352  43.282  26.526  14.864
 3092W        W62353  32.572  41.838   1.433
 3093W        W62354  30.516  15.720  14.869
 3094W        W62355  34.045  33.494   0.481
 3095W        W62356  26.605  38.965   1.835
 3096W        W62357   9.664  18.658   3.786
 3097W        W62358  20.654   1.920   3.740
 3098W        W62359   6.288  34.962   2.351
 3099W        W62360  31.919  24.179  10.530
 3100W        W62361  28.612  13.280  11.865
 3101W        W62362   7.309  26.087  11.399
 3102W        W62363   5.312  19.254   0.748
 3103W        W62364  33.484  33.078  12.917
 3104W        W62365  22.540   4.384   0.351
 3105W        W62366  26.058   3.358   0.939
 3106W        W62367   6.879   4.229  13.918
 3107W        W62368  39.933  29.941   4.712
 3108W        W62369  32.915  31.460  11.952
 3109W        W62370  39.530  13.187   3.772
 3110W        W62371  17.251  11.220   4.146
 3111W        W62372   1.853  12.318  12.411
 3112W        W62373  32.998  10.384   2.898
 3113W        W62374  13.189  44.387   2.705
 3114W        W62375   6.741  43.332   1.448
 3115W        W62376  37.063  33.442   2.360
 3116W        W62377  31.932  14.309   0.886
 3117W        W62378  16.692  10.654   1.831
 3118W        W62379   8.241   7.715   2.349
 3119W        W62380  13.340  35.384   3.168
 3120W        W62381  44.382   9.822  12.902
 3121W        W62382  36.076  34.497   5.640
 3122W        W62383  24.662  32.605  14.405
 3123W        W62384  14.221  24.600  13.412
 3124W        W62385  29.033  38.009  11.921
 3125W        W62386  23.506  21.189   0.773
 3126W        W62387  12.305  44.882  12.836
 3127W        W62388  17.219  35.982  12.094
 3128W        W62389   7.885  35.411  14.494
 3129W        W62390   7.219  30.925  12.423
 3130W        W62391   4.721   4.881   5.176
 3131W        W62392  24.524  38.445  13.013
 3132W        W62393  43.990  29.958  12.349
 3133W        W62394  41.988  17.616  13.055
 3134W        W62395  22.178  23.661   2.328
 3135W        W62396  28.037  27.584  12.549
 3136W        W62397  25.600  30.032   1.855
 3137W        W62398  40.944  35.548   5.721
 3138W        W62399  33.382  13.610   1.879
 3139W        W62400  30.049  32.113  10.919
 3140W        W62401  20.096  10.306   3.289
 3141W        W62402  20.550  26.080  14.373
 3142W        W62403  28.538  28.986  13.460
 3143W        W62404  25.702  43.993   4.601
 3144W        W62405  19.662   9.888   1.402
 3145W        W62406   1.333   0.250   3.314
 3146W        W62407  21.128   9.676  12.924
 3147W        W62408  26.952  23.625   1.871
 3148W        W62409   9.239  33.093  13.935
 3149W        W62410   3.417  25.618  12.409
 3150W        W62411  42.854  30.649  13.314
 3151W        W62412  28.022  31.468  13.818
 3152W        W62413  11.133  30.533   2.686
 3153W        W62414   6.340  17.224   1.750
 3154W        W62415  42.903  35.560  14.783
 3155W        W62416   2.314  29.486  12.381
 3156W        W62417  20.191   6.908   1.790
 3157W        W62418   6.187  14.635  11.391
 3158W        W62419  23.171  28.042  11.470
 3159W        W62420  32.119   4.262  12.521
 3160W        W62421  40.486  32.409   0.860
 3161W        W62422  37.002   8.662   2.674
 3162W        W62423  23.113  25.700  12.032
 3163W        W62424  27.042  16.178  13.028
 3164W        W62425  42.873   8.235  11.906
 3165W        W62426  39.342  16.131  14.927
 3166W        W62427  19.551  39.513   3.253
 3167W        W62428  21.086  32.517  12.570
 3168W        W62429  15.807  28.679   3.284
 3169W        W62430  24.060   7.842   3.846
 3170W        W62431  29.071  33.077   3.796
 3171W        W62432  32.495  43.300  13.822
 3172W        W62433  12.689   9.748   3.727
 3173W        W62434  31.023  18.619   1.925
 3174W        W62435  16.605  13.726   1.324
 3175W        W62436  29.539   6.903  10.579
 3176W        W62437  24.680  41.364   3.685
 3177W        W62438  42.379  35.011  11.040
 3178W        W62439   5.231  16.588  14.308
 3179W        W62440  24.183  29.446   0.732
 3180W        W62441  26.167  42.438   0.939
 3181W        W62442  10.310   8.343  13.391
 3182W        W62443  15.302  10.766   3.648
 3183W        W62444  30.122  29.569   2.259
 3184W        W62445   6.251  41.904  11.125
 3185W        W62446  20.126  17.223  11.968
 3186W        W62447   5.376   8.669   2.879
 3187W        W62448  44.267  26.992   3.747
 3188W        W62449  37.894  10.796   4.140
 3189W        W62450  12.293  24.626  13.934
 3190W        W62451   5.783  30.947   4.647
 3191W        W62452  14.726  14.213   5.167
 3192W        W62453  29.062  29.095   0.456
 3193W        W62454  16.109  22.190   4.315
 3194W        W62455  39.966  31.072  13.879
 3195W        W62456   9.378  10.242   4.611
 3196W        W62457  24.703   0.766  14.499
 3197W        W62458  32.978  25.191   1.303
 3198W        W62459   0.956  41.843   4.153
 3199W        W62460   8.764  14.116  11.536
 3200W        W62461  33.577  39.814   2.742
 3201W        W62462  37.543  44.959  10.956
 3202W        W62463  30.653  13.321  11.533
 3203W        W62464  14.761  27.070  12.488
 3204W        W62465   7.868  44.862   1.819
 3205W        W62466  11.739  39.556   3.840
 3206W        W62467  21.180  22.107  12.498
 3207W        W62468  11.293   6.413  11.549
 3208W        W62469  24.657  31.510   3.716
 3209W        W62470  44.275   4.784   1.430
 3210W        W62471  43.911  36.461  11.112
 3211W        W62472  34.033  16.633   0.752
 3212W        W62473  14.119  30.558   2.226
 3213W        W62474  42.345  20.131   3.242
 3214W        W62475  30.909  39.354   2.727
 3215W        W62476  19.698  16.709   4.738
 3216W        W62477  22.999  41.485  10.540
 3217W        W62478  12.741  41.364   4.815
 3218W        W62479  21.062   5.361  11.047
 3219W        W62480  30.003  23.640   4.298
 3220W        W62481   9.382  29.566   3.857
 3221W        W62482  18.268  23.597   1.407
 3222W        W62483  30.588  12.853   3.780
 3223W        W62484  19.104   0.477   4.264
 3224W        W62485  32.636  26.528   3.641
 3225W        W62486  42.005  18.620   3.862
 3226W        W62487  37.964  30.415  12.930
 3227W        W62488   3.380  21.180   3.678
 3228W        W62489  14.621  29.566  14.005
 3229W        W62490  25.709   9.788   1.307
 3230W        W62491  35.365  32.523  10.548
 3231W        W62492  18.115  25.191   4.123
 3232W        W62493  31.062  20.056   3.195
 3233W        W62494  12.197   6.253   3.741
 3234W        W62495  31.148  11.237   2.332
 3235W        W62496   8.875  11.739  10.568
 3236W        W62497  29.109  44.260   2.869
 3237W        W62498   1.436  40.909   0.338
 3238W        W62499  18.258   3.371  13.388
 3239W        W62500   3.372  25.075  13.514
 3240W        W62501  14.230  23.503  11.041
 3241W        W62502  17.767  28.118  13.852
 3242W        W62503  27.565   7.292  12.471
 3243W        W62504  21.131  23.008  13.500
 3244W        W62505  10.228  15.680  11.606
 3245W        W62506  23.696  39.403   4.822
 3246W        W62507  19.605   4.703  12.048
 3247W        W62508   9.251  43.807   0.911
 3248W        W62509  36.912  11.836   3.178
 3249W        W62510  42.456  24.718   0.823
 3250W        W62511   5.262  19.606   4.302
 3251W        W62512   1.477  43.864  13.900
 3252W        W62513  32.123  26.529  14.809
 3253W        W62514  25.077  12.117  13.339
 3254W        W62515  26.580  41.449   3.853
 3255W        W62516  34.934  44.420   4.826
 3256W        W62517  14.745  29.997  11.396
 3257W        W62518  24.221  15.295   4.313
 3258W        W62519  14.779   9.329  13.374
 3259W        W62520  43.502  33.617  11.877
 3260W        W62521  38.954  34.542   2.316
 3261W        W62522  30.069  44.468  14.510
 3262W        W62523  40.921  36.074  11.888
 3263W        W62524  24.106  30.920   0.243
 3264W        W62525  35.042  44.317   5.266
 3265W        W62526  32.455  43.288   0.444
 3266W        W62527  19.221  25.142  12.957
 3267W        W62528  27.142  40.981   3.313
 3268W        W62529   8.828  18.088  14.401
 3269W        W62530  31.114  14.125   2.217
 3270W        W62531  17.801  27.060  13.334
 3271W        W62532  42.828   1.295  10.405
 3272W        W62533  28.062  19.047  11.454
 3273W        W62534  26.662  41.786   1.916
 3274W        W62535  27.029  33.571  11.129
 3275W        W62536  39.053  28.584   1.435
 3276W        W62537  43.407  40.483   2.302
 3277W        W62538  33.384  40.406  13.844
 3278W        W62539  35.956  42.321  10.021
 3279W        W62540  40.973  15.719   4.618
 3280W        W62541  22.219   1.796   2.746
 3281W        W62542  42.914  36.075  11.978
 3282W        W62543  31.441   9.160   9.931
 3283W        W62544   6.750   7.910   3.180
 3284W        W62545   8.808  34.030  14.813
 3285W        W62546  17.577  17.243   4.138
 3286W        W62547  24.677  34.117   4.650
 3287W        W62548  35.022  40.923   3.310
 3288W        W62549  24.504  11.803  13.434
 3289W        W62550  44.334   7.189   5.321
 3290W        W62551   2.897  26.131   4.632
 3291W        W62552   6.743  33.001  10.515
 3292W        W62553  14.250   6.888   4.226
 3293W        W62554  25.697  15.591  11.125
 3294W        W62555  23.088  16.245  13.983
 3295W        W62556  10.710  31.521   2.212
 3296W        W62557  34.449  19.140  14.492
 3297W        W62558  28.498  16.246   4.186
 3298W        W62559  33.105  14.333   4.281
 3299W        W62560   8.837  27.450   3.338
 3300W        W62561  16.710  42.945   0.956
 3301W        W62562  10.375  29.126  11.955
 3302W        W62563  22.066  30.646   1.731
 3303W        W62564   5.708  20.631  12.847
 3304W        W62565  33.443  42.027   1.855
 3305W        W62566  22.124   8.882   2.753
 3306W        W62567  37.353  21.173   2.861
 3307W        W62568  21.561  43.329  11.399
 3308W        W62569   7.783  11.246  10.889
 3309W        W62570  11.137   9.355  12.035
 3310W        W62571  31.906  38.343  10.457
 3311W        W62572   4.834  11.763   3.744
 3312W        W62573   5.362   5.790   1.440
 3313W        W62574  29.938  26.126  13.863
 3314W        W62575  44.955  31.495  10.899
 3315W        W62576   3.270  25.567   3.770
 3316W        W62577  39.430  38.978   1.231
 3317W        W62578  20.086  26.689  10.587
 3318W        W62579  36.071  34.583   0.436
 3319W        W62580  22.702   1.367   4.319
 3320W        W62581  29.525   9.871  11.005
 3321W        W62582  17.085  25.712   2.205
 3322W        W62583   3.829  19.201   0.869
 3323W        W62584  42.921  12.129   4.663
 3324W        W62585   4.331  21.745  13.490
 3325W        W62586  38.008   9.275  13.332
 3326W        W62587  11.187  16.591  12.496
 3327W        W62588  22.585   3.355   4.175
 3328W        W62589  32.495  28.144   3.383
 3329W        W62590  44.788  23.137   1.344
 3330W        W62591  13.137  30.133   2.212
 3331W        W62592  42.366  43.966  11.068
 3332W        W62593   8.254  17.584  13.508
 3333W        W62594  34.951  15.234   1.246
 3334W        W62595  23.184  11.692   2.865
 3335W        W62596  11.151  14.107   1.790
 3336W        W62597  29.506  27.089  13.419
 3337W        W62598  11.775  17.236   3.741
 3338W        W62599  35.860   7.884   2.217
 3339W        W62600  39.005   1.321   4.333
 3340W        W62601   4.378  34.600  11.100
 3341W        W62602   0.789  43.464   3.317
 3342W        W62603   0.786  18.172   0.449
 3343W        W62604  39.065   1.428   0.368
 3344W        W62605  37.381  30.631  14.377
 3345W        W62606  19.060  41.999   0.790
 3346W        W62607  19.759  28.959   4.812
 3347W        W62608  24.650  21.084   0.735
 3348W        W62609  42.317  36.000  10.042
 3349W        W62610  16.270  16.319   4.293
 3350W        W62611  17.275  14.211   3.312
 3351W        W62612  41.304  27.542  13.444
 3352W        W62613  41.932  32.010  11.111
 3353W        W62614  19.546  37.509  13.540
 3354W        W62615   3.316  31.095   1.864
 3355W        W62616  33.126  23.108   0.838
 3356W        W62617   4.799  25.654   1.344
 3357W        W62618  23.700  25.045   1.830
 3358W        W62619  16.104  44.864  14.469
 3359W        W62620  27.120  34.063  12.548
 3360W        W62621  24.632  39.322   4.222
 3361W        W62622  12.128  35.107  10.514
 3362W        W62623  39.365  12.317  14.885
 3363W        W62624  11.812  26.088   1.332
 3364W        W62625  23.688   1.801  13.516
 3365W        W62626  12.652  30.952   1.874
 3366W        W62627  15.237   6.198   0.423
 3367W        W62628  19.711  42.980  13.831
 3368W        W62629   2.280  31.137   1.872
 3369W        W62630  38.911  27.167   2.808
 3370W        W62631  26.153  38.048  11.497
 3371W        W62632  33.061  14.677   1.789
 3372W        W62633  23.618  37.017  13.884
 3373W        W62634  43.401  17.705  11.408
 3374W        W62635  31.621  38.007   5.182
 3375W        W62636  30.492  25.004  11.982
 3376W        W62637  17.760  12.711   4.340
 3377W        W62638  27.179  35.855  13.046
 3378W        W62639  29.456  12.827  12.943
 3379W        W62640   1.807   3.816   1.788
 3380W        W62641   5.847  18.270  14.412
 3381W        W62642  29.569  15.614  11.374
 3382W        W62643  39.370  15.298   2.842
 3383W        W62644  23.984  28.164   4.263
 3384W        W62645   4.345  18.699  11.120
 3385W        W62646   4.373  39.494   0.335
 3386W        W62647   5.899  35.928  12.057
 3387W        W62648  28.508  14.160   4.659
 3388W        W62649  40.025   9.253  14.298
 3389W        W62650  19.104   6.680   1.898
 3390W        W62651   1.411  13.636   2.886
 3391W        W62652  24.674  18.115  14.460
 3392W        W62653  11.678  29.174   0.922
 3393W        W62654  11.222  38.531   2.710
 3394W        W62655  33.510  15.132  14.793
 3395W        W62656  32.480   0.291  10.404
 3396W        W62657  41.348  40.959   3.724
 3397W        W62658   0.260   8.323  12.062
 3398W        W62659  37.984  25.580  13.969
 3399W        W62660   8.245  43.807  12.890
 3400W        W62661   7.710  32.989   2.330
 3401W        W62662  30.598  24.975  14.494
 3402W        W62663  43.802   1.271   1.341
 3403W        W62664   3.441   1.403  11.563
 3404W        W62665   7.679  13.220   4.741
 3405W        W62666  22.178  37.838  12.499
 3406W        W62667  16.159  13.749   4.320
 3407W        W62668  26.684  36.065   1.935
 3408W        W62669  17.782   7.874  10.989
 3409W        W62670  39.554  36.875  10.153
 3410W        W62671  36.041  25.095  13.881
 3411W        W62672  15.154  42.390  12.903
 3412W        W62673  34.411  26.129  14.940
 3413W        W62674  26.119   1.884   1.270
 3414W        W62675   5.326  36.902   1.857
 3415W        W62676   5.820   6.808   9.486
 3416W        W62677  21.065  43.912   1.878
 3417W        W62678  20.575  38.843   3.207
 3418W        W62679  43.465  25.471   3.159
 3419W        W62680   3.251   9.867   3.186
 3420W        W62681  28.447  34.557   2.844
 3421W        W62682  44.823  12.632  12.563
 3422W        W62683  29.583  41.896  12.411
 3423W        W62684  21.229  15.229  11.972
 3424W        W62685  41.843  12.358  14.287
 3425W        W62686   9.652  18.217   2.822
 3426W        W62687   1.331  26.187  12.419
 3427W        W62688   0.304  37.349  12.975
 3428W        W62689  31.009   6.190   4.752
 3429W        W62690  22.732  30.646  14.403
 3430W        W62691  32.989  39.983   4.775
 3431W        W62692  28.560  35.415  12.426
 3432W        W62693   3.865  31.934  12.036
 3433W        W62694   7.802  36.038  10.635
 3434W        W62695  33.063  18.077   3.840
 3435W        W62696  19.698  23.171  10.124
 3436W        W62697  15.740   4.257   5.200
 3437W        W62698  17.078  25.177  14.878
 3438W        W62699  32.454  29.540   2.877
 3439W        W62700  24.720  23.224   4.703
 3440W        W62701   2.760  32.936   3.181
 3441W        W62702  13.746  31.482  14.463
 3442W        W62703  35.052  38.349  13.885
 3443W        W62704  30.561   7.888  14.886
 3444W        W62705  26.481  28.964  14.869
 3445W        W62706  40.524  38.873   9.935
 3446W        W62707   6.830  43.793  10.996
 3447W        W62708   6.371  24.976  11.880
 3448W        W62709   1.267  10.714  14.423
 3449W        W62710  37.356   3.950  14.885
 3450W        W62711  15.739  10.361   5.226
 3451W        W62712  12.727  10.685   9.580
 3452W        W62713  44.407  35.062  14.960
 3453W        W62714  42.015  27.619   0.469
 3454W        W62715  34.433  23.205   4.809
 3455W        W62716  25.690  24.703   9.651
 3456W        W62717  43.998  43.456  10.618
 3457W        W62718  41.990  14.764   0.938
 3458W        W62719   2.747  17.754  14.343
 3459W        W62720  10.283  20.733   3.246
 3460W        W62721  38.552  22.730   4.722
 3461W        W62722  37.016  31.421  13.795
 3462W        W62723   5.932  42.485   2.221
 3463W        W62724  40.488   9.174   3.248
 3464W        W62725  12.676  36.973  12.041
 3465W        W62726  35.393  43.770   0.865
 3466W        W62727  23.050  39.392  13.312
 3467W        W62728   3.808  10.281   2.845
 3468W        W62729  25.968  42.926  12.534
 3469W        W62730  26.088  24.635  13.480
 3470W        W62731  13.812  21.534   4.737
 3471W        W62732  19.543  34.097   4.348
 3472W        W62733  29.541   0.845  10.945
 3473W        W62734  40.885   4.438   2.713
 3474W        W62735   3.944  44.834   3.833
 3475W        W62736  29.014  38.826   2.691
 3476W        W62737  28.954  26.033  12.480
 3477W        W62738  34.048  10.157   2.758
 3478W        W62739  14.809  33.125  12.423
 3479W        W62740   3.763  26.997  14.976
 3480W        W62741  14.643  34.456  10.940
 3481W        W62742   0.963  19.256  12.388
 3482W        W62743  12.800  16.314  12.864
 3483W        W62744  31.648   7.689   4.822
 3484W        W62745  33.461  38.859  14.011
 3485W        W62746  27.681  35.567  10.940
 3486W        W62747  10.222  37.938  10.475
 3487W        W62748  41.313  28.477   3.366
 3488W        W62749  42.811  25.216  13.018
 3489W        W62750  27.587   0.889   4.236
 3490W        W62751  20.604  10.753  12.924
 3491W        W62752  21.037  21.226  14.301
 3492W        W62753  33.044  32.537  13.346
 3493W        W62754  12.687  29.433  14.511
 3494W        W62755  11.364  13.299   0.481
 3495W        W62756   6.220   4.281  13.413
 3496W        W62757   6.368   3.737   3.651
 3497W        W62758  27.479  43.794   1.359
 3498W        W62759  20.069   4.309   4.771
 3499W        W62760   6.335  22.126  12.947
 3500W        W62761  13.224  43.271   4.602
 3501W        W62762  12.157  35.005   4.117
 3502W        W62763   7.256  19.542  10.912
 3503W        W62764  11.201  22.086  10.412
 3504W        W62765   6.731   3.909  13.361
 3505W        W62766  32.993   4.374  13.822
 3506W        W62767  13.682  14.673  12.441
 3507W        W62768  23.210  10.819   0.948
 3508W        W62769  32.424  34.967  12.854
 3509W        W62770  34.903  41.895  12.444
 3510W        W62771  18.245  30.595   3.733
 3511W        W62772  19.160  44.755   3.323
 3512W        W62773  15.718  41.356  10.911
 3513W        W62774  44.423  31.946  12.399
 3514W        W62775   6.183  16.797   1.402
 3515W        W62776   8.199  34.900  11.028
 3516W        W62777  25.503   3.420  14.907
 3517W        W62778  42.461  44.970  12.400
 3518W        W62779  19.187  13.168   3.697
 3519W        W62780  15.813  18.697  14.398
 3520W        W62781   1.417  18.164  11.978
 3521W        W62782   8.247  40.911   1.393
 3522W        W62783  28.105   5.286   1.745
 3523W        W62784   4.917  28.653   3.197
 3524W        W62785  25.500  16.301  12.908
 3525W        W62786  29.147  18.248  11.858
 3526W        W62787   1.896  43.870  13.033
 3527W        W62788  20.274  25.494  12.392
 3528W        W62789  26.459  38.065   0.749
 3529W        W62790   1.262  33.514  13.495
 3530W        W62791  29.562  23.170  12.936
 3531W        W62792  13.749   6.837  12.511
 3532W        W62793  33.585  11.300   3.276
 3533W        W62794  41.820  16.663   2.319
 3534W        W62795  18.789  33.985  10.540
 3535W        W62796   9.276  30.967   4.298
 3536W        W62797   2.875  44.891   0.371
 3537W        W62798  34.472  41.845  12.428
 3538W        W62799   2.721  12.715  14.002
 3539W        W62800  37.867   8.820   0.887
 3540W        W62801  28.937  22.243  12.932
 3541W        W62802  27.169  26.649   5.166
 3542W        W62803  28.511  30.030  10.432
 3543W        W62804  41.921  44.983  13.402
 3544W        W62805  25.475  43.400   0.373
 3545W        W62806   8.221  32.093   5.184
 3546W        W62807  22.247   7.226  13.046
 3547W        W62808  36.861   2.727   4.317
 3548W        W62809  20.185  23.024   1.866
 3549W        W62810  43.988  20.250   3.254
 3550W        W62811  27.103  28.632  14.495
 3551W        W62812  35.441  27.481  10.455
 3552W        W62813   3.232  11.179   1.423
 3553W        W62814  11.861   4.322   5.092
 3554W        W62815  12.261   0.935  11.959
 3555W        W62816  31.452  27.168   0.408
 3556W        W62817  24.102  15.206   3.813
 3557W        W62818  27.484  36.052  11.022
 3558W        W62819  43.496  36.018   4.765
 3559W        W62820  33.012  35.863  12.368
 3560W        W62821  41.364  40.917   0.792
 3561W        W62822  27.957  32.531  13.816
 3562W        W62823  22.681   6.693  14.304
 3563W        W62824   7.872  43.837   0.864
 3564W        W62825  31.594  40.435  13.352
 3565W        W62826   4.432  43.824  13.993
 3566W        W62827  13.201  29.124   2.840
 3567W        W62828  36.435  30.474  11.070
 3568W        W62829  26.980   0.482  10.891
 3569W        W62830  33.431  22.998   0.794
 3570W        W62831  41.860  13.814   0.938
 3571W        W62832  12.228  20.176  13.850
 3572W        W62833  20.233  24.016  10.569
 3573W        W62834  19.251  43.784  14.460
 3574W        W62835   1.394  12.155   0.283
 3575W        W62836   9.810   8.163   1.762
 3576W        W62837  21.176  29.641   0.896
 3577W        W62838   7.716  34.095   3.358
 3578W        W62839   7.276  26.500   2.225
 3579W        W62840  18.756  33.454  12.420
 3580W        W62841  27.957  30.529  12.047
 3581W        W62842  41.963   8.163   2.802
 3582W        W62843  16.675  29.448  13.846
 3583W        W62844  35.003  29.499  11.390
 3584W        W62845   5.195  16.179   0.433
 3585W        W62846  34.479  44.332  13.459
 3586W        W62847  12.703  42.846   1.252
 3587W        W62848  24.479  42.781   0.831
 3588W        W62849   0.328  11.680   3.268
 3589W        W62850  38.848  35.441   0.827
 3590W        W62851  32.033   9.289  13.458
 3591W        W62852  30.548  36.049  11.089
 3592W        W62853  20.586   5.688  12.431
 3593W        W62854  22.564  26.121   0.448
 3594W        W62855  35.586  20.259   4.736
 3595W        W62856  28.074  12.777   0.887
 3596W        W62857  10.752   6.425   4.346
 3597W        W62858  24.630   2.837  12.957
 3598W        W62859  15.088  24.003  14.454
 3599W        W62860  13.778  28.151  12.434
 3600W        W62861   0.431   3.315  11.902
 3601W        W62862  35.374  15.753  12.882
 3602W        W62863  27.545   2.331   1.270
 3603W        W62864  39.346  42.857   0.387
 3604W        W62865  44.820  12.227  11.104
 3605W        W62866  18.125  40.395   2.194
 3606W        W62867  11.710  36.942  14.871
 3607W        W62868  38.838   8.216   0.755
 3608W        W62869  12.160  42.347  11.589
 3609W        W62870  44.370  27.045  12.972
 3610W        W62871   4.906  36.473  11.985
 3611W        W62872  23.086  44.314  11.596
 3612W        W62873  16.271   1.755  12.080
 3613W        W62874  34.868  33.517  14.874
 3614W        W62875  42.310  37.525  12.349
 3615W        W62876  35.009  27.594  13.038
 3616W        W62877  19.681  27.674   3.307
 3617W        W62878  30.464   4.383   3.783
 3618W        W62879  42.333  10.765  12.996
 3619W        W62880  42.862   2.230  11.435
 3620W        W62881  15.301   5.222  14.309
 3621W        W62882  44.970  22.523   0.286
 3622W        W62883  11.246  10.267  12.843
 3623W        W62884   3.827  22.511  12.472
 3624W        W62885   6.785  10.263   0.477
 3625W        W62886  31.430  11.683  11.971
 3626W        W62887  34.963  38.325   9.937
 3627W        W62888   8.212  38.452  11.431
 3628W        W62889   9.668  34.032   1.757
 3629W        W62890  11.268   8.770  14.911
 3630W        W62891   5.852  19.255  11.422
 3631W        W62892  37.563  15.809  10.557
 3632W        W62893  37.082   5.215   3.149
 3633W        W62894  18.781  34.906   3.361
 3634W        W62895  43.798  30.091   2.704
 3635W        W62896  31.952   2.428   3.232
 3636W        W62897  34.567  22.171   0.965
 3637W        W62898  40.872  40.492   1.698
 3638W        W62899  27.067  41.501   4.631
 3639W        W62900   5.315  31.611   4.198
 3640W        W62901  12.676  30.657   1.911
 3641W        W62902  10.871   5.272  12.559
 3642W        W62903   2.856  39.546   0.269
 3643W        W62904   9.367   3.752   2.887
 3644W        W62905   4.283  34.568   2.770
 3645W        W62906  22.072  43.447  12.466
 3646W        W62907   5.707   8.220  11.380
 3647W        W62908  17.565  42.491   4.245
 3648W        W62909  17.144  13.238   0.857
 3649W        W62910  14.757  36.095   0.781
 3650W        W62911  30.442  11.853   2.872
 3651W        W62912  16.255  31.434   3.807
 3652W        W62913   1.791  26.204  10.467
 3653W        W62914  19.606  10.838   1.353
 3654W        W62915  22.528  43.812  13.008
 3655W        W62916  27.122  44.807   4.325
 3656W        W62917  31.453  18.675  11.866
 3657W        W62918  29.976   0.424   3.675
 3658W        W62919  18.173  17.668  10.571
 3659W        W62920  30.060  19.778   3.240
 3660W        W62921  36.438  26.148  13.521
 3661W        W62922  43.957  36.047  12.420
 3662W        W62923  35.993  31.582  11.913
 3663W        W62924  23.552  42.011   2.739
 3664W        W62925  43.353  11.218   0.944
 3665W        W62926  26.166  12.292  10.417
 3666W        W62927  17.192   2.936   0.378
 3667W        W62928  27.196  17.715  11.472
 3668W        W62929  42.430  41.928  12.846
 3669W        W62930  30.134   7.273  13.446
 3670W        W62931  40.825  13.159  14.861
 3671W        W62932  16.226  33.980  12.506
 3672W        W62933  21.074  29.950  10.559
 3673W        W62934   1.338  30.431  14.398
 3674W        W62935  34.902  37.396   3.674
 3675W        W62936  21.236  34.927  12.992
 3676W        W62937  30.461  31.999   4.131
 3677W        W62938  35.491  44.360   0.884
 3678W        W62939  29.061  35.857   3.740
 3679W        W62940  13.132   1.363  14.491
 3680W        W62941   6.719  31.999  10.517
 3681W        W62942  38.945   0.399  12.888
 3682W        W62943   0.803  15.622  12.074
 3683W        W62944  31.087  19.734  11.995
 3684W        W62945  40.010  32.016   0.742
 3685W        W62946  39.047  27.960   0.450
 3686W        W62947  12.344  10.846  13.468
 3687W        W62948  43.958   9.776  14.919
 3688W        W62949  39.054  31.011   2.356
 3689W        W62950  18.789   0.407  13.011
 3690W        W62951  15.646  40.040   0.262
 3691W        W62952  23.589  40.935   2.767
 3692W        W62953  44.849  28.098   1.833
 3693W        W62954  29.100  14.278   0.414
 3694W        W62955   0.307  42.934   4.774
 3695W        W62956   9.232   0.968   4.195
 3696W        W62957  26.051   2.788  10.934
 3697W        W62958  19.123  35.088  12.023
 3698W        W62959  37.852  14.322  13.872
 3699W        W62960  22.681  24.526  13.043
 3700W        W62961  24.525   2.281  10.424
 3701W        W62962  20.530  17.265   4.239
 3702W        W62963  38.828  34.606  11.943
 3703W        W62964  14.758  12.282   1.434
 3704W        W62965  42.360  13.797  12.457
 3705W        W62966   9.759  16.257   3.149
 3706W        W62967  25.200  34.602  10.505
 3707W        W62968  41.892   6.702   4.794
 3708W        W62969   2.410  21.539  12.458
 3709W        W62970   5.217   0.358   4.762
 3710W        W62971  25.166  40.491   5.212
 3711W        W62972   5.264  28.567   3.342
 3712W        W62973  27.451  20.626   0.936
 3713W        W62974  22.625  24.104   0.459
 3714W        W62975  29.584  20.741   3.769
 3715W        W62976  39.538  29.029   3.287
 3716W        W62977  27.657  36.499   1.319
 3717W        W62978  38.991  38.024  11.433
 3718W        W62979  13.696  19.145   3.305
 3719W        W62980  36.348  22.178  11.945
 3720W        W62981  23.725  34.460  10.920
 3721W        W62982  35.039   6.286  13.546
 3722W        W62983  18.117  39.014   4.214
 3723W        W62984  10.645   7.359   0.956
 3724W        W62985  23.522  10.719  10.589
 3725W        W62986  25.043  23.664  13.032
 3726W        W62987  28.047  30.916  11.555
 3727W        W62988  39.026  36.548  11.025
 3728W        W62989  32.468  44.800   0.930
 3729W        W62990  31.983  36.911  11.902
 3730W        W62991  29.104   3.373  10.504
 3731W        W62992  42.010  23.041   1.754
 3732W        W62993  26.083   6.815   4.828
 3733W        W62994  26.623  35.601   2.206
 3734W        W62995  29.639  16.753   4.810
 3735W        W62996  26.090   6.330  10.640
 3736W        W62997   5.416  36.515  14.012
 3737W        W62998  24.085  11.719   1.238
 3738W        W62999  42.982  31.030  14.031
 3739W        W63000  43.419  22.609  10.498
 3740W        W63001   8.724  22.191   3.366
 3741W        W63002  25.144  23.024  12.484
 3742W        W63003  19.083  35.969   3.176
 3743W        W63004  23.029  26.628  14.327
 3744W        W63005  14.130  17.243   3.268
 3745W        W63006  37.520  15.101   0.788
 3746W        W63007   2.830   0.951  11.114
 3747W        W63008  27.629  27.181  14.878
 3748W        W63009   1.894   6.327  14.316
 3749W        W63010   6.203  44.825   4.777
 3750W        W63011  42.992  42.941  12.354
 3751W        W63012  34.921   3.883   0.245
 3752W        W63013  38.529  10.637   0.833
 3753W        W63014   8.890  22.584  11.482
 3754W        W63015  31.940  36.459   3.256
 3755W        W63016  10.871  38.864   3.150
 3756W        W63017  26.466  33.026   1.915
 3757W        W63018  10.816  22.531   0.856
 3758W        W63019   9.186  20.111   3.174
 3759W        W63020   6.227   0.478  13.861
 3760W        W63021  12.340   7.816  12.493
 3761W        W63022   7.369   3.235  10.910
 3762W        W63023  43.398  19.618   1.283
 3763W        W63024  24.186  25.022  11.028
 3764W        W63025  16.221   3.916   4.772
 3765W        W63026   3.710  11.239   2.282
 3766W        W63027  13.260  28.158   4.252
 3767W        W63028  28.666  36.565  10.475
 3768W        W63029  26.461  37.380   5.082
 3769W        W63030  33.917  33.594   9.659
 3770W        W63031  28.142  31.146   1.396
 3771W        W63032   3.327  22.176  12.904
 3772W        W63033  27.555   3.790   3.256
 3773W        W63034   1.389  14.782  12.560
 3774W        W63035  41.907   8.271  13.448
 3775W        W63036  39.449  42.892  11.948
 3776W        W63037  12.615   0.768  12.006
 3777W        W63038   3.373  19.106  11.494
 3778W        W63039  40.510  10.242  11.085
 3779W        W63040  39.388  40.867  11.038
 3780W        W63041  24.077  10.348  11.127
 3781W        W63042  14.593  10.318  12.539
 3782W        W63043  38.930   6.423   0.954
 3783W        W63044   6.920  32.018  14.789
 3784W        W63045  33.102   0.748  13.819
 3785W        W63046  39.968  28.603  12.052
 3786W        W63047  38.867  20.043  14.779
 3787W        W63048  10.721  17.759   2.761
 3788W        W63049   8.720  18.104   0.938
 3789W        W63050   4.329   5.296   3.775
 3790W        W63051   3.348  31.628  10.562
 3791W        W63052  32.104  29.439   0.929
 3792W        W63053  19.195  44.353  11.428
 3793W        W63054  10.695  24.055  11.495
 3794W        W63055   2.891  24.697   1.353
 3795W        W63056   0.745  33.010  12.518
 3796W        W63057  24.229  31.957  14.876
 3797W        W63058  32.089  40.948  14.413
 3798W        W63059  19.773  43.376   4.677
 3799W        W63060   8.405  41.801  11.911
 3800W        W63061  16.133  34.039   0.277
 3801W        W63062  42.458  17.133   3.634
 3802W        W63063  18.548  24.199  13.009
 3803W        W63064  10.267  35.098   4.339
 3804W        W63065  26.627  28.658   3.269
 3805W        W63066  35.006  21.147  14.763
 3806W        W63067  25.975   1.787   0.261
 3807W        W63068  10.808   0.876   2.191
 3808W        W63069   1.414   7.321  10.576
 3809W        W63070  23.151  40.855  14.964
 3810W        W63071  28.623  11.653   2.392
 3811W        W63072   8.885   6.876  14.854
 3812W        W63073   0.804   6.411   4.302
 3813W        W63074  12.210  43.890   0.264
 3814W        W63075  28.467  10.761   2.765
 3815W        W63076  17.090  20.271  13.912
 3816W        W63077  13.750  42.822  11.419
 3817W        W63078  14.628   0.463  10.940
 3818W        W63079  16.749  25.166   2.382
 3819W        W63080  35.857   2.333  10.911
 3820W        W63081  40.494  34.085  12.035
 3821W        W63082   2.764  42.372  14.925
 3822W        W63083  24.636   2.360   2.188
 3823W        W63084  35.592  26.672  12.536
 3824W        W63085  13.804  17.132  14.492
 3825W        W63086  38.333  27.104   1.277
 3826W        W63087  26.074  40.892   1.281
 3827W        W63088  23.534  26.019  12.539
 3828W        W63089   2.861   0.776  10.569
 3829W        W63090  43.943   4.851   4.315
 3830W        W63091  36.998  11.323  12.574
 3831W        W63092  28.126  27.673  13.011
 3832W        W63093  13.131  25.136   0.249
 3833W        W63094   3.853  29.563  10.910
 3834W        W63095  14.706  11.258   0.889
 3835W        W63096   0.423  25.605  13.515
 3836W        W63097   0.361   3.733  10.539
 3837W        W63098  11.302  11.705  12.413
 3838W        W63099  28.027   7.297   2.361
 3839W        W63100  25.688  14.698   0.772
 3840W        W63101  41.841  32.113  14.382
 3841W        W63102  37.905   1.331   3.162
 3842W        W63103  13.128  21.639   1.282
 3843W        W63104  24.191  29.554  10.517
 3844W        W63105  27.505  12.678   1.881
 3845W        W63106  22.722   5.305   4.187
 3846W        W63107  20.230  11.755  10.540
 3847W        W63108   9.890  17.080  14.413
 3848W        W63109  43.884   2.274  14.863
 3849W        W63110  11.759  21.667   1.772
 3850W        W63111  40.827  25.166  11.961
 3851W        W63112  31.000  11.726  14.423
 3852W        W63113  40.347  39.527   2.262
 3853W        W63114  32.507   3.254   0.455
 3854W        W63115  13.105  31.990   0.451
 3855W        W63116  44.873  31.065  11.590
 3856W        W63117  26.076   6.360  13.346
 3857W        W63118   1.471  40.396  13.405
 3858W        W63119   9.160  27.446  14.361
 3859W        W63120  37.834   2.966  12.391
 3860W        W63121  23.675  37.513   2.256
 3861W        W63122  38.971  43.010   1.441
 3862W        W63123   2.741   0.851   1.397
 3863W        W63124  14.156  13.708  14.799
 3864W        W63125  16.796  11.198  14.878
 3865W        W63126  22.625  16.702   4.172
 3866W        W63127   9.766   4.288   2.903
 3867W        W63128   2.820  36.849  12.886
 3868W        W63129  37.076  18.238  14.027
 3869W        W63130  23.137   5.209  13.866
 3870W        W63131  32.629  17.093   4.225
 3871W        W63132  10.249  15.686   1.275
 3872W        W63133  27.655  37.868   2.780
 3873W        W63134  32.403  28.164   0.781
 3874W        W63135  18.786  43.317   4.163
 3875W        W63136  14.811  31.123   3.243
 3876W        W63137  33.450   6.785   3.816
 3877W        W63138  38.068  13.717   0.360
 3878W        W63139  42.028  32.933   3.643
 3879W        W63140  39.466  13.176   4.141
 3880W        W63141  12.255  12.305   9.565
 3881W        W63142  44.297   8.356   0.854
 3882W        W63143   1.868  10.856   4.247
 3883W        W63144   0.323  43.917  13.033
 3884W        W63145  19.724  40.050   0.905
 3885W        W63146  38.879  25.000  12.944
 3886W        W63147   4.393  32.955   4.761
 3887W        W63148  36.070  14.203   0.310
 3888W        W63149   4.869  29.923  10.513
 3889W        W63150   8.686  20.172   2.667
 3890W        W63151  43.843  14.834   4.298
 3891W        W63152  13.213  29.925  10.025
 3892W        W63153  11.356  17.111   0.255
 3893W        W63154  30.972  31.951  12.438
 3894W        W63155  18.271  26.161   1.418
 3895W        W63156  18.195  44.358  11.914
 3896W        W63157  33.029  15.728  13.477
 3897W        W63158  43.778  26.517  14.989
 3898W        W63159  25.124  16.669  12.366
 3899W        W63160  12.170  35.358   4.332
 3900W        W63161  35.102  35.357  12.467
 3901W        W63162  19.135  43.296   1.710
 3902W        W63163   7.234  40.438  14.989
 3903W        W63164   5.337  39.886   4.817
 3904W        W63165  15.716  21.160  13.406
 3905W        W63166  39.876   3.373  12.399
 3906W        W63167  16.275  26.082   3.868
 3907W        W63168  32.051  10.217  10.602
 3908W        W63169  10.717  21.098   1.794
 3909W        W63170  44.900   4.242  12.477
 3910W        W63171  28.988  25.082  13.865
 3911W        W63172  20.156  32.398  11.515
 3912W        W63173  37.521   5.425  10.890
 3913W        W63174   6.824  39.894  11.060
 3914W        W63175  29.469   3.834   4.280
 3915W        W63176   8.346  22.604   0.461
 3916W        W63177  23.722  29.567  14.846
 3917W        W63178  32.490  16.224  10.130
 3918W        W63179  40.538  10.784  11.501
 3919W        W63180   8.406  38.364  12.920
 3920W        W63181  28.154  10.756   0.287
 3921W        W63182  38.050  30.071   0.376
 3922W        W63183  37.393  44.303   2.828
 3923W        W63184   4.281   6.864  13.483
 3924W        W63185  24.982  34.902   2.400
 3925W        W63186  27.041  15.708   3.851
 3926W        W63187  19.059  18.106   4.293
 3927W        W63188   3.792  17.766  14.971
 3928W        W63189  18.788   8.766  14.493
 3929W        W63190  36.951  43.415  14.966
 3930W        W63191  30.545  10.342   1.334
 3931W        W63192   5.819  40.888   4.657
 3932W        W63193  36.411  18.759  12.576
 3933W        W63194  44.475  28.156   1.709
 3934W        W63195  39.400  14.781   4.255
 3935W        W63196  44.470  31.626  12.514
 3936W        W63197  10.347   3.404  13.389
 3937W        W63198   5.865  35.497  11.557
 3938W        W63199   5.787   9.235  12.504
 3939W        W63200   2.272  29.958   4.277
 3940W        W63201   6.719   6.416  14.765
 3941W        W63202  43.389  33.101   3.731
 3942W        W63203  21.027  19.716  10.964
 3943W        W63204  17.558  11.186   3.160
 3944W        W63205  16.193   4.399   4.623
 3945W        W63206  28.180  24.167  10.638
 3946W        W63207  37.411  24.991   2.662
 3947W        W63208  37.855  42.477   4.607
 3948W        W63209   1.245  22.535  12.482
 3949W        W63210  15.648  29.972  13.371
 3950W        W63211  25.153   7.748  14.934
 3951W        W63212  12.162  30.013  14.901
 3952W        W63213   0.918  19.609  10.104
 3953W        W63214  23.088   6.262   0.943
 3954W        W63215   2.881  25.150  14.468
 3955W        W63216  26.159  35.907  10.632
 3956W        W63217   4.251   3.859   1.375
 3957W        W63218  36.041  42.951   4.284
 3958W        W63219  26.557  31.459   3.260
 3959W        W63220  25.538  23.696   1.229
 3960W        W63221  31.618  14.646   1.354
 3961W        W63222  10.722  17.557  13.949
 3962W        W63223  29.540   7.832   4.326
 3963W        W63224  13.131  44.396  10.909
 3964W        W63225   1.919   7.200   1.849
 3965W        W63226  38.983  28.169   1.215
 3966W        W63227  37.029  11.679   4.676
 3967W        W63228  19.663  20.118  12.427
 3968W        W63229  16.675  12.238   4.335
 3969W        W63230  12.149  14.118   4.336
 3970W        W63231   3.327  17.618  13.940
 3971W        W63232   2.348  11.346  12.941
 3972W        W63233  24.617  42.357   0.767
 3973W        W63234   1.353  14.730   4.179
 3974W        W63235  26.668  14.677  13.432
 3975W        W63236  31.583  11.206  13.918
 3976W        W63237  15.661   3.224  14.824
 3977W        W63238  35.898   2.417  11.972
 3978W        W63239  33.527  22.542  11.398
 3979W        W63240  20.546  21.060  12.488
 3980W        W63241  24.127  23.070   5.238
 3981W        W63242  38.865  36.467   5.250
 3982W        W63243   9.823   6.712  10.551
 3983W        W63244  29.517  19.716   1.796
 3984W        W63245  16.652  12.669  14.443
 3985W        W63246   5.206  14.736   2.746
 3986W        W63247  36.934  17.760  14.845
 3987W        W63248  18.643  24.571  10.982
 3988W        W63249  24.016   4.222   4.122
 3989W        W63250  11.855   6.231  13.445
 3990W        W63251  13.109  20.608   1.817
 3991W        W63252  19.740  24.984  12.966
 3992W        W63253   2.955  40.023   1.773
 3993W        W63254  38.540   1.474  10.441
 3994W        W63255  30.575  39.991   0.333
 3995W        W63256  10.790   9.284   2.803
 3996W        W63257  30.659  13.643   1.228
 3997W        W63258  16.582  33.110  12.869
 3998W        W63259  27.451  24.060  14.805
 3999W        W63260  28.033   1.851   4.772
 4000W        W63261   6.867  19.065  11.462
 4001W        W63262  30.124   1.824  11.124
 4002W        W63263  34.896  31.114  14.317
 4003W        W63264  24.175  42.033   2.360
 4004W        W63265  44.790   5.741  13.889
 4005W        W63266  41.931  10.754   3.837
 4006W        W63267   8.817  28.113   3.789
 4007W        W63268  22.069  30.578  14.996
 4008W        W63269  28.966  33.971   0.303
 4009W        W63270  10.818  24.014  14.758
 4010W        W63271  29.003  13.293   3.806
 4011W        W63272  30.037  22.130  13.515
 4012W        W63273  31.029  30.507  11.490
 4013W        W63274  35.452   8.882  11.103
 4014W        W63275   5.323  21.194   4.693
 4015W        W63276  11.690  35.903   3.642
 4016W        W63277  35.587  14.136   3.163
 4017W        W63278  43.828  30.418  14.501
 4018W        W63279  19.246   1.242   1.894
 4019W        W63280  32.457  32.087   3.292
 4020W        W63281  13.721  10.817   0.949
 4021W        W63282  26.545  23.099  13.933
 4022W        W63283  33.511  19.759  13.532
 4023W        W63284  41.456  11.824   4.764
 4024W        W63285  24.556  10.306   2.769
 4025W        W63286  40.354  42.364  14.430
 4026W        W63287  19.111   1.782   3.204
 4027W        W63288  28.552  32.545   0.379
 4028W        W63289  16.170  33.907  14.805
 4029W        W63290  21.147  24.670  14.778
 4030W        W63291  39.542  16.255   4.294
 4031W        W63292  31.511  39.951  14.941
 4032W        W63293  36.871  24.510  10.601
 4033W        W63294  40.384   4.802   3.151
 4034W        W63295  32.976  31.071   3.818
 4035W        W63296  28.977  36.016  12.368
 4036W        W63297  16.757  44.842   1.700
 4037W        W63298  38.375  20.247   3.686
 4038W        W63299  33.880   3.938  13.323
 4039W        W63300  25.569   8.849   1.706
 4040W        W63301   2.828  24.032   3.802
 4041W        W63302   1.380   9.316  14.008
 4042W        W63303  41.307  39.958   3.225
 4043W        W63304  34.386  34.541  14.499
 4044W        W63305  42.291  29.000  14.416
 4045W        W63306   8.681  33.114  13.335
 4046W        W63307  23.066  15.785  14.946
 4047W        W63308  23.703  11.823  13.876
 4048W        W63309  36.950  11.154  10.424
 4049W        W63310  42.783  26.664   1.299
 4050W        W63311  11.633  10.831   1.927
 4051W        W63312   2.462  44.880  14.336
 4052W        W63313  27.554   7.408   0.764
 4053W        W63314  43.433   8.293  13.064
 4054W        W63315  11.657   8.222   4.171
 4055W        W63316  36.940   5.726   4.693
 4056W        W63317  24.195  17.556  10.601
 4057W        W63318  29.024  19.675   4.182
 4058W        W63319  36.441   2.903  12.873
 4059W        W63320  28.566   4.881  14.804
 4060W        W63321  15.753  30.607  12.840
 4061W        W63322  41.031  18.702   3.710
 4062W        W63323  25.630  33.421  11.511
 4063W        W63324   0.848  44.996   1.798
 4064W        W63325  16.665  22.615   0.307
 4065W        W63326  37.488  28.019  14.437
 4066W        W63327  26.983   4.392   4.756
 4067W        W63328   1.819  42.355   1.226
 4068W        W63329  41.302  30.989  14.799
 4069W        W63330  40.995   3.942  12.486
 4070W        W63331  23.014  12.342  11.559
 4071W        W63332  21.627  20.166  14.402
 4072W        W63333  11.633  27.131  10.456
 4073W        W63334  22.706  42.917  11.998
 4074W        W63335  43.875   9.178  11.387
 4075W        W63336   9.150   8.273   4.350
 4076W        W63337  44.484   2.466  12.368
 4077W        W63338  44.839  29.096  13.966
 4078W        W63339   7.307   3.306   0.268
 4079W        W63340  26.057  22.681   4.720
 4080W        W63341  19.718   3.356   4.770
 4081W        W63342  31.098  29.428  13.322
 4082W        W63343   0.391   7.187  13.531
 4083W        W63344  24.001  38.926   0.293
 4084W        W63345  11.678   9.885  14.965
 4085W        W63346  23.104   3.789  12.929
 4086W        W63347  25.087  36.850  14.508
 4087W        W63348  26.054  43.340  14.911
 4088W        W63349  31.147   9.362  14.495
 4089W        W63350  32.016  28.991   1.268
 4090W        W63351  24.617  16.636   4.273
 4091W        W63352  33.094   1.288  12.481
 4092W        W63353  11.250  36.841   4.765
 4093W        W63354  24.008  41.498  14.775
 4094W        W63355  39.878  40.054  11.048
 4095W        W63356  35.561  11.672   0.884
 4096W        W63357  40.409  22.636   2.251
 4097W        W63358   6.693  22.737   2.780
 4098W        W63359  28.070  30.159  13.547
 4099W        W63360  20.126  38.463   0.801
 4100W        W63361   9.220   7.246  11.526
 4101W        W63362  43.989  44.006  10.897
 4102W        W63363  37.874   4.323  12.832
 4103W        W63364  34.087  17.795  13.956
 4104W        W63365  33.127  26.130   0.936
 4105W        W63366  22.242   3.866   4.329
 4106W        W63367  27.942   1.391  12.950
 4107W        W63368  35.539  28.153  12.083
 4108W        W63369  44.002  12.239   1.261
 4109W        W63370   5.324  41.939   2.329
 4110W        W63371  24.111  33.067   2.197
 4111W        W63372   4.740  12.138   0.347
 4112W        W63373  24.994  22.043  13.811
 4113W        W63374  27.057  17.568   2.279
 4114W        W63375  25.489   1.863   2.678
 4115W        W63376  18.191  34.488  11.517
 4116W        W63377  11.860   0.449  11.128
 4117W        W63378  16.795   6.228   4.685
 4118W        W63379  14.331  28.623  14.013
 4119W        W63380   7.414   4.798  12.043
 4120W        W63381  23.026  31.506  12.887
 4121W        W63382  37.418   7.192  10.086
 4122W        W63383  19.563  29.465  10.607
 4123W        W63384   1.249  16.318  12.550
 4124W        W63385   3.778   6.234   3.641
 4125W        W63386   5.267  29.441   4.351
 4126W        W63387  20.566   9.302   3.833
 4127W        W63388  37.394  35.550   1.837
 4128W        W63389  25.177   7.237  13.038
 4129W        W63390  11.636   8.881  14.481
 4130W        W63391  27.473   3.315  13.540
 4131W        W63392  34.518  17.290  12.460
 4132W        W63393  34.388   6.259   3.788
 4133W        W63394   7.851  18.104   0.442
 4134W        W63395  10.374  32.042   0.407
 4135W        W63396   1.731  41.981  10.955
 4136W        W63397   0.436  32.998  13.051
 4137W        W63398  35.040  23.006   2.859
 4138W        W63399  12.340   9.811   2.350
 4139W        W63400  15.754  26.084   9.970
 4140W        W63401  43.412   2.739  12.392
 4141W        W63402  35.862  32.489  10.568
 4142W        W63403  22.225  39.445  13.331
 4143W        W63404   5.223  24.691   0.312
 4144W        W63405  42.855  43.485   0.780
 4145W        W63406   3.428  30.522   0.272
 4146W        W63407  20.725  34.446  12.541
 4147W        W63408  34.602  38.349  10.012
 4148W        W63409  27.099  42.013   2.226
 4149W        W63410  23.234  12.781  13.528
 4150W        W63411  24.091   2.457   0.439
 4151W        W63412  14.328  33.481   1.893
 4152W        W63413   8.377  27.460   0.964
 4153W        W63414  28.644  23.170   2.275
 4154W        W63415  37.940   0.767  13.380
 4155W        W63416  38.037  28.560  13.794
 4156W        W63417  36.524  41.395  13.927
 4157W        W63418  16.160  43.847   2.354
 4158W        W63419  22.120   8.899  12.871
 4159W        W63420  28.077  33.881   4.202
 4160W        W63421  34.972  16.203  13.926
 4161W        W63422  36.556   1.387   3.288
 4162W        W63423  43.007   0.326  10.620
 4163W        W63424  44.820  27.062  14.466
 4164W        W63425  16.204   3.712  11.425
 4165W        W63426  38.869  25.661   0.812
 4166W        W63427  20.231   9.762   2.790
 4167W        W63428  44.456  36.519   4.242
 4168W        W63429   9.867   4.437   1.724
 4169W        W63430   2.738  41.024  14.322
 4170W        W63431  19.045  30.458  14.784
 4171W        W63432  36.444  23.555   4.778
 4172W        W63433  26.111  28.478   2.875
 4173W        W63434  12.845  15.820   4.204
 4174W        W63435  28.492  16.601   1.877
 4175W        W63436  31.412   5.876   1.808
 4176W        W63437  26.050  18.214   4.297
 4177W        W63438  13.842   5.340  13.548
 4178W        W63439  11.314  17.636  13.825
 4179W        W63440  29.124  22.125   2.328
 4180W        W63441  23.600  31.419   2.875
 4181W        W63442  22.743  32.634   0.271
 4182W        W63443  16.749   6.850  12.515
 4183W        W63444  18.225  32.416   3.759
 4184W        W63445  39.830  24.613  11.612
 4185W        W63446  30.627   4.801   4.159
 4186W        W63447  13.141  13.335   0.419
 4187W        W63448  40.525  17.099  12.085
 4188W        W63449  20.650   0.474  11.436
 4189W        W63450  19.588  27.100   3.178
 4190W        W63451  30.426   5.788   0.329
 4191W        W63452  35.386  21.594   1.798
 4192W        W63453  36.544  40.381  11.998
 4193W        W63454  26.649  24.606   2.222
 4194W        W63455  23.119  21.181   3.387
 4195W        W63456  31.951  33.073   0.931
 4196W        W63457   7.903  30.618  13.010
 4197W        W63458   1.433  39.457   3.730
 4198W        W63459  15.118  18.266  10.625
 4199W        W63460  41.363  44.502   4.161
 4200W        W63461  33.975  32.607  13.509
 4201W        W63462  31.145  19.174   1.885
 4202W        W63463  24.507  19.657  11.505
 4203W        W63464  25.613  32.562  11.495
 4204W        W63465  33.478   2.838   4.809
 4205W        W63466  14.190  39.391   0.345
 4206W        W63467  27.505  11.717  11.469
 4207W        W63468   2.933  10.677  12.061
 4208W        W63469   7.185  15.672   1.331
 4209W        W63470  38.333   2.348   3.224
 4210W        W63471  41.822  29.938   2.264
 4211W        W63472  20.044  34.983   4.730
 4212W        W63473  41.792   0.390  14.301
 4213W        W63474   4.739  12.129   4.644
 4214W        W63475  24.591  15.124   0.462
 4215W        W63476  30.601  40.825  10.987
 4216W        W63477  39.023  41.972  14.430
 4217W        W63478   9.648  42.891  12.892
 4218W        W63479  41.443   0.956  11.378
 4219W        W63480  24.992  30.024   0.315
 4220W        W63481   7.797   7.671  13.393
 4221W        W63482   1.339   5.224  12.498
 4222W        W63483   3.823   5.358  12.894
 4223W        W63484   4.331   2.308   1.387
 4224W        W63485  19.596  16.796   1.386
 4225W        W63486   0.470  35.870  13.326
 4226W        W63487   2.437  20.175   1.813
 4227W        W63488  33.955  10.247   3.705
 4228W        W63489  16.638  11.743   2.845
 4229W        W63490   1.340  14.761  10.998
 4230W        W63491  27.677  44.357   4.274
 4231W        W63492   4.306  34.609   4.639
 4232W        W63493  27.109  39.396   0.766
 4233W        W63494  34.604  43.425   1.421
 4234W        W63495  16.130  13.727  13.924
 4235W        W63496   8.218   5.383   3.812
 4236W        W63497   6.309  38.479  12.887
 4237W        W63498  42.369   3.856  14.934
 4238W        W63499  44.942  29.101   4.791
 4239W        W63500  26.687  16.198   3.286
 4240W        W63501  43.845  29.658   0.292
 4241W        W63502  37.025  30.036   2.737
 4242W        W63503  20.712  31.049  10.892
 4243W        W63504   6.895  39.957  12.974
 4244W        W63505  27.457   6.895  12.510
 4245W        W63506   0.780   5.408  10.510
 4246W        W63507  21.658  33.466  10.998
 4247W        W63508  29.111  15.279  14.470
 4248W        W63509  36.964   8.826  13.442
 4249W        W63510  42.841  34.602  12.376
 4250W        W63511  21.056  29.068  10.109
 4251W        W63512  35.079  25.518  13.872
 4252W        W63513   9.805   7.838  13.361
 4253W        W63514  18.671  21.262  11.530
 4254W        W63515  35.536  22.701  14.786
 4255W        W63516  12.273  33.056   4.285
 4256W        W63517  42.921  34.120  11.528
 4257W        W63518   8.313  35.451  11.393
 4258W        W63519  15.327  26.621   0.945
 4259W        W63520   8.731   9.187   0.949
 4260W        W63521  36.528  23.657   0.352
 4261W        W63522  36.472  22.628   9.967
 4262W        W63523  14.184  19.573  11.042
 4263W        W63524   3.946  33.533  13.976
 4264W        W63525  31.972   7.779   1.702
 4265W        W63526  44.942  27.462  14.473
 4266W        W63527   6.357  22.542   3.698
 4267W        W63528   9.713  17.628  13.307
 4268W        W63529   4.250  28.151   1.434
 4269W        W63530   5.868  15.641   4.266
 4270W        W63531  22.510  30.097  14.473
 4271W        W63532  11.162  39.057  14.982
 4272W        W63533  24.145  15.219   2.821
 4273W        W63534  20.639  14.154   2.884
 4274W        W63535   9.352  28.641  11.548
 4275W        W63536  28.642  40.994   0.420
 4276W        W63537  17.714  34.882   2.417
 4277W        W63538  41.341  40.848   0.343
 4278W        W63539  43.909  20.698   4.701
 4279W        W63540  37.340  36.539   4.336
 4280W        W63541  14.635   1.797   0.874
 4281W        W63542  22.579  30.025  12.041
 4282W        W63543   5.223  29.668  14.494
 4283W        W63544  36.047  34.994   1.920
 4284W        W63545   8.739  38.819  13.492
 4285W        W63546  36.898  15.287   4.764
 4286W        W63547   5.292  34.004   3.216
 4287W        W63548   9.833  27.458  12.479
 4288W        W63549  23.597  44.862  11.901
 4289W        W63550  32.936   6.741  12.446
 4290W        W63551  33.959  23.527   2.839
 4291W        W63552   9.246   1.928  11.587
 4292W        W63553  13.717  24.209  10.639
 4293W        W63554   1.413   0.318  14.917
 4294W        W63555  16.165  40.361   2.301
 4295W        W63556  19.773  44.944  12.494
 4296W        W63557  25.035  28.014   1.211
 4297W        W63558  14.282  33.919  12.016
 4298W        W63559  34.935  40.532  11.018
 4299W        W63560   0.422  41.513  13.928
 4300W        W63561  23.237  16.729  12.470
 4301W        W63562   2.766   3.858  14.895
 4302W        W63563  13.326  38.053   4.641
 4303W        W63564  26.510  12.817  11.129
 4304W        W63565  44.495  14.665  11.859
 4305W        W63566  32.538  13.163  12.388
 4306W        W63567  42.959   9.743   3.213
 4307W        W63568  25.138   6.712  13.856
 4308W        W63569  17.760  25.564   1.332
 4309W        W63570  18.672  10.879   3.742
 4310W        W63571  29.144  29.992  12.028
 4311W        W63572  16.714  32.076  11.930
 4312W        W63573  13.609  30.963   2.889
 4313W        W63574  33.903  42.508   2.767
 4314W        W63575  35.010  20.224  10.934
 4315W        W63576  19.709  25.653   4.134
 4316W        W63577  14.804  37.530   0.779
 4317W        W63578  37.479  41.856  11.567
 4318W        W63579  12.331   7.693   0.893
 4319W        W63580   8.289   4.402  14.923
 4320W        W63581  27.465  36.074  14.335
 4321W        W63582   9.668   5.202  11.375
 4322W        W63583  36.441  31.575   3.329
 4323W        W63584   9.162  31.497  11.017
 4324W        W63585  31.458  40.420   0.944
 4325W        W63586  30.463   9.192  13.907
 4326W        W63587  22.216   7.221   2.344
 4327W        W63588  33.455  23.715   3.777
 4328W        W63589  11.774   3.832   3.778
 4329W        W63590  37.428  39.899   4.142
 4330W        W63591  28.982  33.388   3.284
 4331W        W63592  20.525  23.534   4.148
 4332W        W63593  20.723   4.371  11.101
 4333W        W63594  31.096  21.732  11.497
 4334W        W63595  28.544  11.714  10.989
 4335W        W63596  23.636  11.746   0.887
 4336W        W63597  12.187  42.415   1.239
 4337W        W63598  34.053  13.623  13.510
 4338W        W63599  34.104  31.516  10.571
 4339W        W63600  30.995  24.085  11.384
 4340W        W63601  39.387  33.605  10.547
 4341W        W63602  21.061   4.220  11.004
 4342W        W63603  11.289  15.667  13.880
 4343W        W63604   7.324  40.536   0.862
 4344W        W63605  41.325   6.182   4.287
 4345W        W63606  25.533  12.333   3.809
 4346W        W63607  44.973  14.271  10.621
 4347W        W63608  29.081  32.410   3.356
 4348W        W63609  38.913  16.788  14.353
 4349W        W63610  27.033  39.063  14.899
 4350W        W63611  31.930  13.113   4.125
 4351W        W63612  43.945  29.483   3.753
 4352W        W63613  21.110  24.097  13.321
 4353W        W63614  38.822  37.940   1.387
 4354W        W63615  43.450   5.697   1.282
 4355W        W63616   7.805  36.482  14.423
 4356W        W63617  29.555  36.048  12.358
 4357W        W63618   9.752  21.601   0.844
 4358W        W63619  43.292  29.491   2.698
 4359W        W63620   9.281  37.976   0.335
 4360W        W63621   4.260  38.333   0.730
 4361W        W63622  40.991  22.137   1.842
 4362W        W63623   0.300  25.687   0.919
 4363W        W63624   2.293   1.452  10.639
 4364W        W63625  28.182  29.070  14.412
 4365W        W63626  28.470  15.740  12.082
 4366W        W63627  42.361  38.338   0.774
 4367W        W63628  10.240  44.457   5.283
 4368W        W63629  36.361  27.555   1.924
 4369W        W63630  33.554   5.869  14.815
 4370W        W63631  44.869  11.661   0.396
 4371W        W63632  27.594  32.070   2.202
 4372W        W63633  14.303  19.681  14.341
 4373W        W63634  15.324   2.407  11.886
 4374W        W63635  42.382  36.083  13.812
 4375W        W63636  13.107  44.779   2.281
 4376W        W63637  23.602   2.376   3.292
 4377W        W63638  37.935  38.022   2.364
 4378W        W63639  23.238  38.421  11.530
 4379W        W63640  17.076  18.604  12.577
 4380W        W63641   2.785  31.988   0.335
 4381W        W63642  17.590  21.039   0.768
 4382W        W63643  12.808  40.969   0.921
 4383W        W63644  20.182  31.476   3.672
 4384W        W63645   4.870  25.200   4.780
 4385W        W63646   8.347  32.455  11.585
 4386W        W63647  10.153  37.546  12.013
 4387W        W63648  31.647   5.872   4.237
 4388W        W63649  23.068  12.267  13.831
 4389W        W63650  41.442  24.695   1.273
 4390W        W63651   8.888  14.761   3.681
 4391W        W63652  30.501   0.494   4.617
 4392W        W63653  21.018  13.690   3.852
 4393W        W63654   6.318  24.192   1.909
 4394W        W63655  34.103  42.439  14.450
 4395W        W63656  27.176  39.347   4.695
 4396W        W63657  32.601  26.535  12.936
 4397W        W63658  21.698  25.492   0.764
 4398W        W63659  35.556  15.154   4.337
 4399W        W63660  38.022  23.046  11.858
 4400W        W63661  32.986   6.759   3.279
 4401W        W63662  43.365  42.827   0.854
 4402W        W63663  12.687  20.646   3.241
 4403W        W63664  10.805  21.250  11.559
 4404W        W63665  44.397  34.980   3.284
 4405W        W63666  38.017   5.361  11.882
 4406W        W63667  41.040   4.341   4.641
 4407W        W63668  26.545   3.244  13.382
 4408W        W63669  16.275  29.136  12.048
 4409W        W63670  39.418  25.601   2.809
 4410W        W63671  15.095  38.050   1.697
 4411W        W63672  13.328  25.058   3.340
 4412W        W63673  42.941  39.491  14.871
 4413W        W63674  34.407   4.865  12.891
 4414W        W63675   4.377  29.501  14.391
 4415W        W63676  42.397  44.754   3.290
 4416W        W63677  22.669  39.985   0.365
 4417W        W63678  33.939  35.108  13.061
 4418W        W63679  37.878  40.821   0.960
 4419W        W63680   8.850  44.988   4.351
 4420W        W63681  40.825   9.358  11.037
 4421W        W63682   2.762   8.810   3.221
 4422W        W63683  30.064  11.279  14.937
 4423W        W63684   9.322   0.822   0.776
 4424W        W63685  12.683  10.637  14.882
 4425W        W63686  10.238  14.660   3.811
 4426W        W63687   0.247  40.983  10.453
 4427W        W63688  30.612  24.230   2.183
 4428W        W63689  27.448   0.445  14.963
 4429W        W63690  31.607   0.810  12.416
 4430W        W63691  14.161  30.987   2.665
 4431W        W63692   9.203  12.657  13.912
 4432W        W63693  20.233  13.775  10.483
 4433W        W63694  14.720  19.253   2.670
 4434W        W63695  44.489  37.037  14.282
 4435W        W63696  20.194  35.032  12.088
 4436W        W63697  36.559  22.585   4.803
 4437W        W63698  34.937  43.814  10.502
 4438W        W63699  26.087   9.819   1.227
 4439W        W63700  41.916  42.409  12.888
 4440W        W63701  26.529  13.241   2.887
 4441W        W63702  43.448  10.757   2.776
 4442W        W63703  42.838  31.604  12.502
 4443W        W63704   3.431  42.935   1.901
 4444W        W63705   1.837  39.048   3.234
 4445W        W63706  42.351  35.003  11.373
 4446W        W63707  43.450   7.264  10.442
 4447W        W63708   5.714   1.312  10.639
 4448W        W63709   9.881  25.544  11.886
 4449W        W63710  37.400   1.881  13.369
 4450W        W63711  22.180  17.746   0.865
 4451W        W63712  41.529  25.692  10.511
 4452W        W63713  13.259  33.609  12.039
 4453W        W63714  16.269  10.735  12.453
 4454W        W63715  41.325  44.430  11.061
 4455W        W63716   1.477  17.680  14.304
 4456W        W63717  41.940  30.591  14.857
 4457W        W63718  19.728  22.151   9.561
 4458W        W63719  13.806  30.149  12.864
 4459W        W63720   3.337  36.090  13.535
 4460W        W63721  33.570  30.010   3.294
 4461W        W63722   8.207   9.157   2.686
 4462W        W63723  40.383  18.153   3.186
 4463W        W63724  20.566   6.216  12.570
 4464W        W63725  34.476  10.355   0.380
 4465W        W63726  24.640  10.362  12.093
 4466W        W63727  33.405  35.358   1.232
 4467W        W63728  22.091  29.046   2.892
 4468W        W63729  33.955  29.566  13.859
 4469W        W63730  16.165   7.699  12.941
 4470W        W63731  44.866   9.240   3.647
 4471W        W63732  25.469  31.468  13.853
 4472W        W63733  37.363  41.855  14.887
 4473W        W63734  19.702  40.323  12.042
 4474W        W63735  10.828   2.929  11.402
 4475W        W63736  19.071  38.373  13.956
 4476W        W63737  23.028  11.286  12.030
 4477W        W63738  43.873  15.274   2.227
 4478W        W63739  35.595  20.102   1.234
 4479W        W63740  18.601  11.362   1.790
 4480W        W63741  22.541  31.560   4.255
 4481W        W63742  18.710  14.238   3.203
 4482W        W63743  41.321  36.391  12.496
 4483W        W63744  32.108  28.447   1.897
 4484W        W63745  14.184   9.377  13.336
 4485W        W63746  41.321   0.764   3.162
 4486W        W63747  18.557  24.486  14.511
 4487W        W63748   2.338  14.108   5.085
 4488W        W63749  31.460   6.398  12.342
 4489W        W63750  14.114  11.868   3.300
 4490W        W63751  35.873  25.476   4.734
 4491W        W63752  24.974   9.314   2.690
 4492W        W63753  42.821  18.282   4.332
 4493W        W63754   0.474  19.044  12.048
 4494W        W63755   5.308  12.794  13.876
 4495W        W63756  42.397  39.029  10.554
 4496W        W63757  21.564  24.565   2.262
 4497W        W63758  23.055   2.319   1.442
 4498W        W63759  16.143  30.109   2.239
 4499W        W63760  23.514  41.389   0.438
 4500W        W63761   6.919  40.047  13.498
 4501W        W63762  21.184  27.141   2.786
 4502W        W63763  30.446  12.210  12.994
 4503W        W63764  31.420  24.581   1.742
 4504W        W63765  43.852  40.467   2.305
 4505W        W63766  25.470  19.552   2.694
 4506W        W63767  24.049  38.913   1.928
 4507W        W63768  22.565  31.040  10.479
 4508W        W63769  10.356  10.143   3.846
 4509W        W63770  25.655  12.127   0.306
 4510W        W63771  43.877  21.172   1.357
 4511W        W63772  10.274  17.278  10.975
 4512W        W63773   1.453  14.730   2.708
 4513W        W63774  30.635  36.454  10.445
 4514W        W63775  35.392  33.550   9.652
 4515W        W63776  13.625  21.032   3.301
 4516W        W63777   8.239   2.763   3.691
 4517W        W63778   0.400  14.755  13.985
 4518W        W63779  32.520   3.319  11.924
 4519W        W63780  27.636   5.701   0.847
 4520W        W63781  44.329  38.957   3.829
 4521W        W63782  14.201  12.323  10.625
 4522W        W63783   4.237  21.517  14.421
 4523W        W63784   1.418   8.885  13.383
 4524W        W63785  32.434   7.878   2.244
 4525W        W63786  12.784   3.827  14.883
 4526W        W63787  40.049   6.248   1.903
 4527W        W63788  43.785  22.121   2.820
 4528W        W63789   6.875  21.665  13.918
 4529W        W63790  14.599  12.794  14.894
 4530W        W63791  11.745  23.037  10.631
 4531W        W63792  21.242   5.809   4.639
 4532W        W63793   9.698  30.144  13.447
 4533W        W63794  31.965  15.145   0.333
 4534W        W63795  30.656  26.513   2.412
 4535W        W63796  31.535   7.910  13.016
 4536W        W63797  24.574  43.292  12.015
 4537W        W63798  41.977  23.001  11.965
 4538W        W63799   9.259  17.211  10.551
 4539W        W63800  36.544  25.178   0.263
 4540W        W63801  39.934  32.590   0.761
 4541W        W63802  24.978  24.109  12.422
 4542W        W63803  39.836   5.819   4.632
 4543W        W63804  20.551   1.251   4.165
 4544W        W63805  38.500  17.631  13.881
 4545W        W63806  39.874   9.664   4.289
 4546W        W63807  33.512  42.462   1.446
 4547W        W63808  42.294  20.553   3.659
 4548W        W63809  41.008   7.210   3.257
 4549W        W63810  27.569   0.346  13.473
 4550W        W63811  17.211  28.439   2.240
 4551W        W63812  28.501  34.575   2.284
 4552W        W63813  34.918   3.758   0.795
 4553W        W63814   7.679  24.571  14.299
 4554W        W63815   2.786   5.196   0.775
 4555W        W63816  12.783  25.527   4.687
 4556W        W63817   3.264  44.898  11.973
 4557W        W63818  31.100   3.929  13.014
 4558W        W63819  37.961  26.967  14.442
 4559W        W63820   0.364  16.720   2.199
 4560W        W63821  28.961  26.613  12.513
 4561W        W63822   1.871  37.446   1.818
 4562W        W63823   0.403   5.347   3.817
 4563W        W63824   1.916  32.580   2.268
 4564W        W63825   0.918  33.494   2.206
 4565W        W63826  29.960  20.694  12.083
 4566W        W63827   2.934   9.861  10.102
 4567W        W63828   4.723  40.000  14.023
 4568W        W63829  16.125  34.567  14.938
 4569W        W63830   2.242  22.536  13.903
 4570W        W63831  10.235  31.935  14.366
 4571W        W63832  20.646   4.402  11.404
 4572W        W63833  12.330  29.947   1.881
 4573W        W63834  42.308  17.216  12.962
 4574W        W63835   1.402  23.180  14.950
 4575W        W63836  20.535  15.738  13.807
 4576W        W63837  27.623  30.975   2.272
 4577W        W63838  36.931  19.109  14.937
 4578W        W63839  32.602  36.536   0.878
 4579W        W63840  36.962  40.434  10.577
 4580W        W63841  33.416  30.643  10.581
 4581W        W63842  41.385  19.172  14.813
 4582W        W63843  35.531  38.916   1.716
 4583W        W63844   9.739   7.820   3.775
 4584W        W63845  44.268  39.885   0.927
 4585W        W63846  40.462  44.835   4.826
 4586W        W63847  35.556  28.048   2.735
 4587W        W63848   1.464  32.509  12.857
 4588W        W63849   9.168  34.371  13.486
 4589W        W63850  13.297  43.316   3.860
 4590W        W63851  20.715  34.996  10.606
 4591W        W63852  23.537  24.627   0.778
 4592W        W63853  17.271  23.637   0.470
 4593W        W63854  28.483   8.784  13.319
 4594W        W63855  40.832  14.199   1.824
 4595W        W63856  39.499  25.628   1.375
 4596W        W63857  42.483  21.099  14.977
 4597W        W63858  33.986  20.724   4.753
 4598W        W63859  37.557   7.328  14.301
 4599W        W63860  28.153  30.466  13.531
 4600W        W63861   4.778  26.619   2.704
 4601W        W63862   0.966  33.421  14.006
 4602W        W63863  11.797  25.133   3.642
 4603W        W63864  16.073  19.158  12.945
 4604W        W63865  24.501  25.146   1.762
 4605W        W63866  27.098  23.552  13.899
 4606W        W63867   6.259  28.643   0.864
 4607W        W63868   7.179   6.304   4.221
 4608W        W63869  26.206  18.244   1.267
 4609W        W63870  31.589  44.274   4.265
 4610W        W63871  25.202  24.027   0.726
 4611W        W63872  42.466  12.627   1.884
 4612W        W63873  37.458  15.099   1.810
 4613W        W63874  13.282  24.580   1.289
 4614W        W63875  17.302   3.278  14.011
 4615W        W63876  32.439  16.567   1.315
 4616W        W63877   8.330   2.327  14.001
 4617W        W63878  37.938  11.678   1.799
 4618W        W63879  37.351   3.333   2.193
 4619W        W63880  22.149   7.816   4.162
 4620W        W63881  14.744   6.312   2.210
 4621W        W63882  38.341  30.545  13.530
 4622W        W63883   1.364  20.138  11.556
 4623W        W63884  15.325  42.449   0.873
 4624W        W63885  30.102  43.487  10.936
 4625W        W63886  21.725  31.584   4.225
 4626W        W63887  34.881  36.527  11.129
 4627W        W63888   6.868  33.520  12.932
 4628W        W63889   3.928   5.863   0.319
 4629W        W63890  14.732  25.195   0.314
 4630W        W63891  41.017  16.610   0.336
 4631W        W63892   9.298   0.375   4.280
 4632W        W63893  39.487   7.789   3.339
 4633W        W63894  21.104  44.983   2.677
 4634W        W63895  21.596  11.233  11.857
 4635W        W63896  25.669  21.730  14.421
 4636W        W63897   7.881  24.615  11.040
 4637W        W63898   4.767  25.520  14.317
 4638W        W63899  16.074  25.101   3.683
 4639W        W63900  33.518  10.343   2.814
 4640W        W63901  34.412  41.350  11.930
 4641W        W63902  16.612  33.613  13.481
 4642W        W63903   0.864  30.089   2.182
 4643W        W63904  39.457  31.506  13.341
 4644W        W63905  28.529  38.912   4.809
 4645W        W63906  43.856  19.748  13.531
 4646W        W63907  12.300   0.365   0.321
 4647W        W63908   2.256  27.120  13.378
 4648W        W63909  40.802  33.905  12.884
 4649W        W63910  30.009   8.829  11.995
 4650W        W63911  13.177  39.903   0.411
 4651W        W63912   1.878  44.913   0.350
 4652W        W63913  22.195  21.553   3.682
 4653W        W63914  37.393  11.353   0.802
 4654W        W63915   5.768  15.589   3.774
 4655W        W63916  13.253  35.932  12.890
 4656W        W63917   2.388  23.002   4.782
 4657W        W63918   0.291  39.825  10.931
 4658W        W63919  37.946  33.477   4.150
 4659W        W63920  11.838   7.753  11.899
 4660W        W63921   5.821  31.640  10.532
 4661W        W63922   9.152   7.405  11.881
 4662W        W63923  29.075   3.956  14.847
 4663W        W63924  28.131   1.263   4.308
 4664W        W63925   4.337  28.434  12.408
 4665W        W63926   2.775  16.793   4.338
 4666W        W63927   9.819  11.238  10.449
 4667W        W63928  10.314  40.854   4.616
 4668W        W63929  28.586  37.075  11.391
 4669W        W63930  26.700  29.633  14.002
 4670W        W63931  16.075  41.461   4.641
 4671W        W63932  25.096  12.136   1.699
 4672W        W63933   1.243  10.155   4.214
 4673W        W63934  41.396  30.440  14.370
 4674W        W63935  44.365  37.538   3.744
 4675W        W63936  20.694  37.512  13.036
 4676W        W63937  38.348  16.695   1.212
 4677W        W63938  25.100   6.417  12.898
 4678W        W63939  23.144   1.770   0.965
 4679W        W63940   8.801   9.344  13.429
 4680W        W63941  25.099   8.829  13.539
 4681W        W63942  37.866  39.431   4.154
 4682W        W63943  37.057  15.126  12.389
 4683W        W63944  16.653  35.505   2.340
 4684W        W63945  31.461  41.322   4.815
 4685W        W63946  28.656  24.672   2.687
 4686W        W63947  25.091  22.669  14.960
 4687W        W63948  28.127  15.271  13.039
 4688W        W63949  40.392  13.819   2.716
 4689W        W63950  39.850  28.443  10.580
 4690W        W63951   9.325   9.886   1.809
 4691W        W63952  14.251  28.664   3.714
 4692W        W63953  14.628  33.414   1.303
 4693W        W63954  24.998  14.280   2.395
 4694W        W63955  25.096  43.019  10.630
 4695W        W63956   5.375  21.698   1.364
 4696W        W63957   8.293  24.717   4.182
 4697W        W63958  19.098  14.638  14.950
 4698W        W63959  28.049  28.666   1.260
 4699W        W63960  24.090  14.334   0.769
 4700W        W63961  20.650  21.574   1.415
 4701W        W63962  15.294   8.775   1.250
 4702W        W63963  15.663  34.566  12.382
 4703W        W63964  36.051  19.720  13.861
 4704W        W63965  27.503  16.657  12.916
 4705W        W63966  24.506  17.225  11.044
 4706W        W63967  29.054   0.895   3.861
 4707W        W63968  11.705  25.054  11.379
 4708W        W63969  17.688  25.544  11.530
 4709W        W63970  41.923  36.372  11.940
 4710W        W63971  15.787  23.697   2.826
 4711W        W63972  10.705   4.291   4.623
 4712W        W63973  44.350  32.944  10.029
 4713W        W63974  36.034  35.916  13.433
 4714W        W63975   1.833  25.478   0.295
 4715W        W63976  21.094  32.564  14.964
 4716W        W63977  20.612   9.799  11.566
 4717W        W63978  17.191  34.377  11.897
 4718W        W63979  42.895  40.016  11.554
 4719W        W63980  13.674  36.401  14.342
 4720W        W63981  20.592   5.738   2.846
 4721W        W63982  16.274  36.945   0.791
 4722W        W63983   1.304  35.544   4.319
 4723W        W63984  13.622   1.977   4.220
 4724W        W63985  28.074  23.548   0.427
 4725W        W63986  32.565   4.908   4.171
 4726W        W63987   8.865  19.652   0.811
 4727W        W63988   9.387   8.690   3.261
 4728W        W63989  33.003   2.821  13.320
 4729W        W63990   7.324  20.212   0.367
 4730W        W63991  19.601   6.350  14.918
 4731W        W63992  28.936  12.834   1.816
 4732W        W63993  31.487  14.309  11.454
 4733W        W63994  29.107  37.433  14.324
 4734W        W63995  39.903  44.990   4.790
 4735W        W63996  16.633  38.962   3.365
 4736W        W63997  41.994   2.878  13.863
 4737W        W63998  12.717  32.898  12.454
 4738W        W63999  43.801  41.495  13.020
 4739W        W64000   8.724   9.848  11.874
 4740W        W64001  41.404  24.054  10.911
 4741W        W64002  24.149  20.642   0.928
 4742W        W64003  23.232  40.995  12.973
 4743W        W64004  42.430  32.121   1.881
 4744W        W64005   1.373   8.705  14.957
 4745W        W64006  40.862  44.930   3.641
 4746W        W64007  21.240  31.146   1.278
 4747W        W64008  42.816  36.578   2.742
 4748W        W64009  21.728   0.292   4.188
 4749W        W64010  36.858  31.044   2.695
 4750W        W64011  33.014  29.952   0.440
 4751W        W64012  10.724  37.399  13.003
 4752W        W64013  12.803   7.836   2.858
 4753W        W64014   8.293  35.946   1.909
 4754W        W64015  25.059   2.413  12.558
 4755W        W64016  18.783  22.700  14.960
 4756W        W64017  41.451  34.484   1.293
 4757W        W64018  36.996   7.375  14.459
 4758W        W64019  15.137  32.601   4.713
 4759W        W64020  25.108  15.611   4.240
 4760W        W64021  27.065   0.854  14.006
 4761W        W64022   4.808  10.835  12.405
 4762W        W64023  36.581   3.232  13.887
 4763W        W64024  33.100  28.148  13.868
 4764W        W64025  12.345  27.998   2.700
 4765W        W64026   2.944  43.901   3.744
 4766W        W64027  40.511   8.901  14.912
 4767W        W64028  10.734   7.798   2.865
 4768W        W64029   2.895  16.158  14.489
 4769W        W64030  36.975  28.576   2.243
 4770W        W64031  20.758  32.132   2.892
 4771W        W64032  32.003  18.615  10.549
 4772W        W64033   0.252  28.939   3.252
 4773W        W64034  21.235  35.586   3.635
 4774W        W64035  39.904  32.471   1.237
 4775W        W64036  21.116   6.815   4.754
 4776W        W64037   8.833  37.062  12.415
 4777W        W64038  21.058   6.344   1.420
 4778W        W64039  35.106  35.522  14.377
 4779W        W64040   1.754  43.927  11.540
 4780W        W64041  37.030  23.614   1.700
 4781W        W64042  16.114  35.375  13.314
 4782W        W64043  19.284  17.738  13.023
 4783W        W64044  22.636  31.580  10.629
 4784W        W64045  36.360   1.959  14.507
 4785W        W64046  39.485  16.310  11.860
 4786W        W64047  19.734  11.849  11.500
 4787W        W64048  40.440  29.627  12.342
 4788W        W64049  35.497  26.999  13.411
 4789W        W64050  17.210  18.182  11.576
 4790W        W64051  31.115  24.601  10.602
 4791W        W64052  36.477  14.183   1.714
 4792W        W64053  42.019  35.899  14.862
 4793W        W64054  27.497  17.127  11.531
 4794W        W64055  38.857  36.546   1.800
 4795W        W64056  23.093   4.785   4.240
 4796W        W64057  41.824   2.230  14.776
 4797W        W64058  17.138  22.657   2.759
 4798W        W64059   9.388  38.846   2.273
 4799W        W64060  32.115  19.702  13.937
 4800W        W64061  35.387  36.497  10.116
 4801W        W64062  33.408  34.983  14.782
 4802W        W64063   8.796   3.733  12.423
 4803W        W64064   6.249   2.763   4.200
 4804W        W64065   4.769  22.138  14.954
 4805W        W64066  40.053   6.794  11.426
 4806W        W64067  41.898  23.227   0.847
 4807W        W64068  18.095  38.547   2.674
 4808W        W64069  39.989  15.670  10.905
 4809W        W64070  40.479  35.587  13.538
 4810W        W64071   1.352  22.233  13.792
 4811W        W64072  11.296  34.506   0.373
 4812W        W64073  23.087  21.629   1.379
 4813W        W64074  12.191  25.513  13.001
 4814W        W64075   4.812   6.405   2.267
 4815W        W64076   6.310  13.799   0.891
 4816W        W64077   5.853   9.647   4.762
 4817W        W64078  38.469  32.627  14.980
 4818W        W64079   9.756  12.145   4.609
 4819W        W64080   6.205   1.817  14.920
 4820W        W64081  31.986  32.580  14.389
 4821W        W64082  37.868  22.212   3.679
 4822W        W64083  14.746  28.629   3.358
 4823W        W64084  20.235  40.497  13.542
 4824W        W64085  24.540  40.877  11.940
 4825W        W64086  12.726  18.204  14.459
 4826W        W64087  22.086  38.394   3.214
 4827W        W64088  15.192  43.862  12.499
 4828W        W64089  42.348  34.606  11.944
 4829W        W64090   0.971   6.749  14.311
 4830W        W64091  18.723  37.837   3.234
 4831W        W64092  21.185  39.440  12.460
 4832W        W64093  19.215  42.871   3.249
 4833W        W64094  12.673  20.547   1.907
 4834W        W64095   3.289  32.929   0.886
 4835W        W64096  34.888  23.204  11.948
 4836W        W64097  11.717   9.346   0.836
 4837W        W64098  21.718  13.805   1.225
 4838W        W64099  38.467  28.636  10.963
 4839W        W64100   7.315  43.366   0.794
 4840W        W64101  22.220  11.651   1.377
 4841W        W64102   9.164  40.409  14.296
 4842W        W64103  27.085   5.816  11.080
 4843W        W64104  13.675  38.501   3.251
 4844W        W64105  23.167   0.331   1.882
 4845W        W64106  30.016  34.385   1.704
 4846W        W64107  16.702  11.783  13.333
 4847W        W64108  26.103  30.535   2.836
 4848W        W64109  13.290  32.559  14.330
 4849W        W64110  15.298  26.121  10.452
 4850W        W64111   8.404  20.264  12.909
 4851W        W64112  42.925   1.889  12.953
 4852W        W64113   7.682  11.699   4.818
 4853W        W64114   0.803  16.298  10.950
 4854W        W64115  22.231   0.428  13.826
 4855W        W64116   8.895  23.102  13.464
 4856W        W64117  16.309  21.740  12.357
 4857W        W64118   8.385   2.398   4.822
 4858W        W64119  11.790   4.855  10.150
 4859W        W64120  15.599  37.377  11.044
 4860W        W64121   9.771  13.319   3.380
 4861W        W64122  27.164  14.205  12.049
 4862W        W64123   7.378   3.852  13.534
 4863W        W64124  35.102  24.548   1.725
 4864W        W64125  36.586  15.702   4.760
 4865W        W64126  20.689  21.249  11.101
 4866W        W64127  35.868  27.111  11.606
 4867W        W64128  33.021   6.757  13.401
 4868W        W64129  18.678   1.766  11.382
 4869W        W64130  28.052  37.493  10.507
 4870W        W64131   5.845  23.060  13.389
 4871W        W64132  15.795   5.235  10.477
 4872W        W64133  10.169   3.237   4.707
 4873W        W64134  42.984  38.883  12.966
 4874W        W64135  29.449  15.143  12.086
 4875W        W64136  41.385  13.143  12.450
 4876W        W64137  37.345  42.843   5.103
 4877W        W64138  25.977  25.649  14.355
 4878W        W64139  41.351  44.497   2.355
 4879W        W64140  10.863  21.673  13.030
 4880W        W64141  25.663   3.716  14.307
 4881W        W64142  33.489   0.354  12.364
 4882W        W64143  34.391   0.269   3.234
 4883W        W64144   7.325  22.246  13.503
 4884W        W64145  22.176  42.310   0.933
 4885W        W64146  34.038  43.398   2.847
 4886W        W64147   5.850  19.655   0.841
 4887W        W64148  37.552  26.966   4.642
 4888W        W64149  14.267  29.487   0.275
 4889W        W64150  30.659  16.713  12.360
 4890W        W64151  28.475  16.571   3.632
 4891W        W64152  34.987  13.227   4.781
 4892W        W64153   0.790   2.321   4.769
 4893W        W64154  23.065  40.831   2.733
 4894W        W64155  21.155  42.797  12.428
 4895W        W64156  26.195  28.589  10.053
 4896W        W64157   0.843  38.884  11.092
 4897W        W64158  11.266   2.840   2.270
 4898W        W64159   4.418  35.097  13.446
 4899W        W64160  14.675  34.873   3.849
 4900W        W64161  35.994  19.241  12.535
 4901W        W64162  27.616  26.149  14.846
 4902W        W64163  41.298  27.136   1.270
 4903W        W64164  20.717  12.358   0.766
 4904W        W64165  26.131  14.325   0.863
 4905W        W64166  39.457  13.679  14.786
 4906W        W64167  17.243  21.121  10.088
 4907W        W64168   7.670  24.525  13.320
 4908W        W64169  40.932  38.874   3.816
 4909W        W64170  19.271  32.500   2.837
 4910W        W64171   5.753   2.358   0.290
 4911W        W64172  26.679  43.383   1.918
 4912W        W64173   4.355  19.138  10.512
 4913W        W64174  18.293  40.503   1.303
 4914W        W64175  34.000  30.156   0.965
 4915W        W64176  24.063  30.631  11.584
 4916W        W64177  16.197  24.575   3.339
 4917W        W64178  38.893  32.086  14.482
 4918W        W64179  25.026  40.429  11.033
 4919W        W64180  21.244  28.970   3.321
 4920W        W64181  40.985  14.652  13.976
 4921W        W64182  32.466  31.996   0.930
 4922W        W64183   1.401  16.660   3.818
 4923W        W64184   3.875   7.384   1.736
 4924W        W64185  32.436   7.872   2.846
 4925W        W64186  31.549  17.194  14.965
 4926W        W64187  36.582  36.932   0.922
 4927W        W64188  10.220   0.976   2.371
 4928W        W64189  31.617  38.000  13.859
 4929W        W64190  10.791  18.156   0.809
 4930W        W64191  21.232  43.494   1.217
 4931W        W64192  13.806  38.525   1.393
 4932W        W64193  35.538  20.065  12.431
 4933W        W64194   3.862   5.217  10.426
 4934W        W64195  31.520  38.881   0.953
 4935W        W64196  16.259   8.718   3.863
 4936W        W64197  30.969  21.144   4.672
 4937W        W64198  36.991  14.622  14.395
 4938W        W64199   9.193  13.220  11.928
 4939W        W64200  44.757  22.588   1.300
 4940W        W64201  30.071  44.493  10.515
 4941W        W64202  12.245  10.236  11.981
 4942W        W64203  11.270  27.553   3.703
 4943W        W64204   8.751  31.591   4.137
 4944W        W64205  32.575  20.572   2.309
 4945W        W64206  17.090  29.507   0.478
 4946W        W64207  35.023   4.395  14.372
 4947W        W64208  31.497  33.088  12.978
 4948W        W64209   1.891  37.066   3.685
 4949W        W64210  40.956  31.116   1.702
 4950W        W64211  24.647   0.442  10.465
 4951W        W64212  22.653   3.801  12.044
 4952W        W64213  23.585  10.731  11.539
 4953W        W64214  38.924  14.300  13.933
 4954W        W64215   1.827  10.327  14.786
 4955W        W64216  36.022  11.813   0.287
 4956W        W64217  13.841   9.364   4.337
 4957W        W64218  28.495  11.723  14.854
 4958W        W64219  14.658  35.053   4.743
 4959W        W64220  43.307   5.851  13.523
 4960W        W64221  40.394  38.534   1.410
 4961W        W64222  15.699  39.318   5.191
 4962W        W64223  25.181   3.425   1.802
 4963W        W64224  44.294  12.209   3.674
 4964W        W64225  26.584  30.434   4.259
 4965W        W64226  16.698  21.024   1.696
 4966W        W64227  30.008  23.088   2.276
 4967W        W64228   3.226  21.659  11.083
 4968W        W64229  28.501   7.233  13.899
 4969W        W64230  34.482  15.278  11.563
 4970W        W64231  30.057  23.034   3.194
 4971W        W64232  31.441  38.035   1.408
 4972W        W64233  24.514  26.548   3.300
 4973W        W64234  24.008  23.704  10.023
 4974W        W64235  17.289  15.087   1.425
 4975W        W64236   3.336  43.917  14.344
 4976W        W64237  44.925  37.950   0.917
 4977W        W64238  40.904  20.030  13.404
 4978W        W64239  22.564  14.154   3.856
 4979W        W64240  10.854  32.110   0.244
 4980W        W64241  40.490  18.183   4.727
 4981W        W64242  15.756  42.872  11.404
 4982W        W64243   5.212   2.881   3.681
 4983W        W64244  34.012  24.013  12.489
 4984W        W64245  42.328   7.777   4.238
 4985W        W64246  23.544  38.919   0.317
 4986W        W64247  14.189  44.939  11.433
 4987W        W64248   6.291  42.793   4.608
 4988W        W64249   4.393  21.144   4.158
 4989W        W64250  26.597   7.874   2.251
 4990W        W64251  21.514  19.717   0.344
 4991W        W64252  37.940  39.462   0.869
 4992W        W64253   7.345  27.556   3.850
 4993W        W64254   4.429  38.566  14.834
 4994W        W64255  13.797  44.946  11.444
 4995W        W64256  21.165   2.894   0.770
 4996W        W64257  32.957   5.310  14.328
 4997W        W64258  36.026   4.434  11.579
 4998W        W64259  34.483   5.349   1.842
 4999W        W64260   8.316  31.489  10.406
 5000W        W64261  33.624  43.810  11.037
 5001W        W64262  35.995  26.675  10.925
 5002W        W64263  31.621  43.498  12.423
 5003W        W64264   0.408  24.665  10.972
 5004W        W64265   0.980   5.317  11.394
 5005W        W64266  30.096   2.898  13.969
 5006W        W64267  43.899  35.473   3.302
 5007W        W64268   1.416  13.156  10.471
 5008W        W64269   2.849  24.692  14.372
 5009W        W64270   4.736   2.452   1.842
 5010W        W64271  17.156  10.847   4.298
 5011W        W64272  10.156  35.047   0.468
 5012W        W64273  41.987  44.483   5.157
 5013W        W64274   0.978  33.945  11.070
 5014W        W64275  20.132  15.201  10.590
 5015W        W64276  20.633  12.659  14.979
 5016W        W64277  16.270  44.387  14.895
 5017W        W64278  27.104   8.878  13.988
 5018W        W64279  37.882  34.912  13.360
 5019W        W64280  44.826   0.448  14.819
 5020W        W64281  33.129  21.255  10.936
 5021W        W64282  10.197  24.983   2.879
 5022W        W64283   8.370  12.310  13.922
 5023W        W64284   2.864  21.060  13.414
 5024W        W64285  21.634  40.914  13.334
 5025W        W64286  44.286  27.672   4.676
 5026W        W64287  38.541  15.645  11.044
 5027W        W64288  26.693  10.204   5.300
 5028W        W64289   3.290  41.863  12.899
 5029W        W64290  21.756  37.881  14.896
 5030W        W64291  32.925  28.178   1.719
 5031W        W64292  38.355   5.431  12.060
 5032W        W64293  38.496  24.491  11.083
 5033W        W64294  13.723  33.072   1.316
 5034W        W64295  41.516  23.028   4.809
 5035W        W64296  34.997  14.766  14.856
 5036W        W64297   9.212  16.192   9.673
 5037W        W64298  22.100  35.542   4.815
 5038W        W64299   6.386   3.940   2.884
 5039W        W64300  26.549  42.980   1.824
 5040W        W64301  39.871   1.908   1.450
 5041W        W64302  33.456  31.900  13.872
 5042W        W64303  30.907   2.331   2.245
 5043W        W64304  21.726  17.175  10.605
 5044W        W64305  18.265   5.899   3.185
 5045W        W64306  42.319  16.737  10.614
 5046W        W64307  36.573   7.219   4.344
 5047W        W64308   2.395   2.414  10.918
 5048W        W64309  38.056  15.307   1.719
 5049W        W64310   1.906  30.110   3.274
 5050W        W64311   3.769  41.947   1.256
 5051W        W64312  10.195   7.307  10.473
 5052W        W64313   8.672  12.152   1.300
 5053W        W64314   3.257  19.604  12.511
 5054W        W64315  19.715  26.155  14.782
 5055W        W64316  38.003   7.178   2.688
 5056W        W64317  28.635  39.888  13.051
 5057W        W64318  27.485  16.607   0.397
 5058W        W64319  17.563  28.605   0.965
 5059W        W64320  44.007  43.447  13.011
 5060W        W64321  26.605  19.780  11.988
 5061W        W64322  43.452  11.848  13.440
 5062W        W64323   5.435   4.266  11.038
 5063W        W64324  36.097  37.863   9.515
 5064W        W64325  33.921  20.106  12.930
 5065W        W64326  13.283  31.597  13.434
 5066W        W64327  37.883  19.663  14.461
 5067W        W64328  34.477  20.703   3.704
 5068W        W64329   6.865  42.491  11.412
 5069W        W64330  38.911  15.173   2.735
 5070W        W64331  40.522  36.947  13.877
 5071W        W64332  38.413  17.754   3.636
 5072W        W64333  24.648  21.564  11.999
 5073W        W64334  27.461  34.882   2.263
 5074W        W64335  32.492  42.450  12.469
 5075W        W64336   8.209  41.467  14.883
 5076W        W64337   5.323   2.908  13.059
 5077W        W64338  32.961  22.118   4.689
 5078W        W64339  13.798  13.350   1.824
 5079W        W64340  23.516  32.030  13.899
 5080W        W64341  27.039  23.551  13.542
 5081W        W64342   4.730  30.086   2.401
 5082W        W64343   3.716  25.142  14.922
 5083W        W64344  38.562  14.803  13.469
 5084W        W64345   1.803   9.698   1.386
 5085W        W64346  34.505  33.007  11.549
 5086W        W64347   1.458  29.563  13.991
 5087W        W64348  21.185  25.636   0.807
 5088W        W64349  37.429  23.060   4.117
 5089W        W64350  27.968  10.326  13.319
 5090W        W64351  10.701  43.446  10.541
 5091W        W64352   4.858  42.019   1.927
 5092W        W64353  42.427  27.964   1.322
 5093W        W64354   3.857  17.565  10.457
 5094W        W64355   8.657  38.973   4.198
 5095W        W64356  12.191  41.915   2.871
 5096W        W64357  23.654  23.565   2.668
 5097W        W64358  40.539  14.708  14.496
 5098W        W64359  13.846  23.030   0.946
 5099W        W64360  19.770   5.738   1.906
 5100W        W64361   0.340  36.883  11.003
 5101W        W64362  34.556  39.993   0.353
 5102W        W64363  12.204  41.843  14.824
 5103W        W64364  26.638  29.582   3.263
 5104W        W64365  37.462  23.106  11.509
 5105W        W64366  23.038   6.420   1.381
 5106W        W64367  14.700  24.144  10.509
 5107W        W64368  17.720  12.344   0.416
 5108W        W64369  31.920   8.750   3.645
 5109W        W64370   3.224  37.540   1.927
 5110W        W64371   7.910  27.084   2.317
 5111W        W64372  18.213  27.985  12.035
 5112W        W64373  43.949  38.367  14.888
 5113W        W64374  22.245  41.965  12.372
 5114W        W64375   0.753   9.834  14.353
 5115W        W64376  37.367  35.866  13.496
 5116W        W64377   8.235  20.607   0.254
 5117W        W64378   9.361  23.193  14.873
 5118W        W64379  42.449   7.337  13.385
 5119W        W64380  12.283  18.652  12.898
 5120W        W64381  23.594  11.632   2.314
 5121W        W64382  14.696   8.660   2.758
 5122W        W64383  38.427  42.438  12.943
 5123W        W64384  13.115  21.048   0.848
 5124W        W64385  21.105  29.609   3.146
 5125W        W64386   2.912  19.597   2.744
 5126W        W64387  34.509  35.982  12.958
 5127W        W64388   1.849  38.497   1.916
 5128W        W64389  43.442  28.516  14.000
 5129W        W64390  11.322   7.297   2.890
 5130W        W64391  37.429  22.525   3.198
 5131W        W64392  37.056  35.001   1.879
 5132W        W64393  39.816  15.236   0.267
 5133W        W64394   3.823   0.882   3.647
 5134W        W64395  37.552  38.073  10.965
 5135W        W64396  27.020  18.120   1.811
 5136W        W64397  29.956  37.512  13.485
 5137W        W64398  38.544   7.681   1.359
 5138W        W64399  42.431  15.687  11.475
 5139W        W64400  24.078  17.788   0.945
 5140W        W64401  10.655  29.152  14.808
 5141W        W64402  10.214  25.025  13.043
 5142W        W64403   8.829  32.995   0.740
 5143W        W64404  44.955  20.205  14.304
 5144W        W64405  18.755  40.966  14.984
 5145W        W64406  26.689  43.884  10.960
 5146W        W64407   3.764  26.513   4.198
 5147W        W64408  11.698   0.970   3.229
 5148W        W64409  33.942  41.330   3.384
 5149W        W64410  40.418   7.332  14.939
 5150W        W64411  12.840  18.124  10.577
 5151W        W64412   0.942   6.219  12.937
 5152W        W64413  40.428  13.645   4.689
 5153W        W64414  40.864   3.900   1.830
 5154W        W64415  26.588  34.431  11.891
 5155W        W64416  14.282  43.874  10.989
 5156W        W64417   5.772  38.874   1.835
 5157W        W64418  30.973  33.018   3.261
 5158W        W64419  30.056  19.764  12.431
 5159W        W64420   9.706  37.426   4.692
 5160W        W64421   6.214   0.398   9.957
 5161W        W64422  27.507  17.717  12.421
 5162W        W64423  37.548  10.359  10.894
 5163W        W64424  28.604  30.579  13.048
 5164W        W64425  40.904  20.040   0.959
 5165W        W64426   6.782  13.666  11.913
 5166W        W64427  14.751  15.304  13.387
 5167W        W64428  39.481  10.821   0.842
 5168W        W64429   7.179  17.176  11.081
 5169W        W64430  38.902  29.454  10.582
 5170W        W64431  43.873  27.453   0.857
 5171W        W64432  40.310  16.576  12.872
 5172W        W64433  24.036  36.396   0.796
 5173W        W64434   1.796   2.847   0.245
 5174W        W64435   2.362  30.025   4.651
 5175W        W64436  10.820  29.081  11.101
 5176W        W64437   0.374  29.468  12.833
 5177W        W64438  43.017  13.211   5.137
 5178W        W64439  42.859  41.483   1.422
 5179W        W64440  34.939   2.791  11.029
 5180W        W64441   4.268  38.973  10.889
 5181W        W64442   1.264   6.215  10.577
 5182W        W64443  35.059  11.190   9.926
 5183W        W64444   5.278  23.653   2.709
 5184W        W64445  30.520  11.308  10.155
 5185W        W64446  39.890   8.203  13.861
 5186W        W64447  29.934  12.234   1.706
 5187W        W64448  12.208  26.637   3.225
 5188W        W64449  29.049  11.827  10.954
 5189W        W64450   4.344  23.200  10.531
 5190W        W64451  21.055  20.218  13.920
 5191W        W64452   2.433  17.270  10.423
 5192W        W64453  38.364  13.725   2.678
 5193W        W64454  28.956   2.243  10.628
 5194W        W64455  43.514  16.755  11.107
 5195W        W64456  44.346  33.405   0.272
 5196W        W64457  31.026  31.004   3.315
 5197W        W64458   4.422  20.551   3.345
 5198W        W64459   5.198  43.344  13.423
 5199W        W64460   0.281  32.494  12.546
 5200W        W64461  26.541  43.474  12.095
 5201W        W64462  20.570  22.731  13.546
 5202W        W64463  35.923  32.403   4.245
 5203W        W64464  43.898  41.977  14.410
 5204W        W64465  30.991  40.402   4.675
 5205W        W64466  39.019   0.874   0.335
 5206W        W64467  12.839  37.047  12.415
 5207W        W64468  21.549  30.471   1.307
 5208W        W64469  18.166   1.364  13.999
 5209W        W64470  19.257  16.204   2.776
 5210W        W64471   4.860  17.761   2.890
 5211W        W64472   9.181   5.693  14.387
 5212W        W64473  25.666  11.790  14.790
 5213W        W64474  11.687   8.359  14.821
 5214W        W64475   1.742  39.559   1.901
 5215W        W64476  16.307  25.694   3.310
 5216W        W64477  10.711  17.266   3.813
 5217W        W64478  11.141  31.612  12.091
 5218W        W64479  32.420   5.354  13.527
 5219W        W64480  25.581  19.676  10.479
 5220W        W64481  11.623  21.204   5.298
 5221W        W64482  36.927  12.846  13.499
 5222W        W64483   5.277  35.907  10.465
 5223W        W64484  31.424   1.739   0.266
 5224W        W64485  29.520   7.877   2.743
 5225W        W64486  34.012  22.048  12.834
 5226W        W64487  16.595  44.002   0.405
 5227W        W64488  34.541  35.994   4.673
 5228W        W64489  26.134  24.628   9.509
 5229W        W64490   5.242  42.810  10.493
 5230W        W64491  33.069  43.854  13.918
 5231W        W64492   6.702   9.712  12.010
 5232W        W64493  28.131  11.284   2.418
 5233W        W64494  36.852  29.128   2.762
 5234W        W64495   4.945  29.044  10.604
 5235W        W64496  11.227  15.751  10.965
 5236W        W64497  28.579  14.778  12.898
 5237W        W64498   3.860  37.064   0.850
 5238W        W64499  29.039  42.983   0.371
 5239W        W64500   3.376  40.963   1.766
 5240W        W64501  32.398   1.925  14.962
 5241W        W64502  43.873  42.447  14.760
 5242W        W64503  17.066  25.046  13.445
 5243W        W64504  37.579  28.654  14.509
 5244W        W64505  11.806   1.851  11.576
 5245W        W64506   8.872  27.515   0.318
 5246W        W64507  35.963   1.299   2.222
 5247W        W64508  11.151  14.800   0.300
 5248W        W64509   8.236  42.384  14.359
 5249W        W64510  12.242  13.220   3.361
 5250W        W64511  36.391  24.598  13.328
 5251W        W64512  31.063  32.410   5.210
 5252W        W64513  11.685  22.632   5.137
 5253W        W64514  42.442  40.890   2.666
 5254W        W64515  17.647  37.046   1.827
 5255W        W64516  43.862   7.264  13.972
 5256W        W64517  32.496   3.934  12.865
 5257W        W64518  43.016  34.543   1.283
 5258W        W64519  35.954  22.095  11.419
 5259W        W64520  35.015  25.072   1.769
 5260W        W64521   9.670  44.933  11.001
 5261W        W64522   1.738  40.899   4.743
 5262W        W64523  39.927  41.844   2.819
 5263W        W64524  38.548  43.284   4.697
 5264W        W64525   6.846  22.666   4.836
 5265W        W64526  40.524  19.074   0.320
 5266W        W64527  41.297   7.838  11.424
 5267W        W64528  26.633  24.529  11.040
 5268W        W64529  20.244   1.916  11.543
 5269W        W64530  43.878  33.528   1.291
 5270W        W64531  10.217  11.756   1.447
 5271W        W64532  31.473  20.633   3.665
 5272W        W64533  20.720  40.947  12.392
 5273W        W64534  42.819   3.377  10.566
 5274W        W64535  44.987  15.642  10.542
 5275W        W64536  10.679  20.612  11.414
 5276W        W64537  14.099  11.301   2.220
 5277W        W64538  27.606  16.238  11.067
 5278W        W64539  23.569  39.516   0.412
 5279W        W64540   8.890  36.475  10.460
 5280W        W64541  24.645  30.638  10.607
 5281W        W64542  42.300  28.671  12.345
 5282W        W64543   2.287  11.774   4.662
 5283W        W64544  31.509   1.405  13.514
 5284W        W64545  26.512  34.581  13.945
 5285W        W64546   6.728  31.538   0.347
 5286W        W64547   8.719   9.873  13.395
 5287W        W64548  22.564   2.866  12.393
 5288W        W64549  42.475  28.623   0.819
 5289W        W64550  34.555  31.402   2.747
 5290W        W64551   6.748  33.024   0.420
 5291W        W64552  16.792  27.180   1.228
 5292W        W64553   1.311  37.506   0.258
 5293W        W64554  44.923  27.499   0.926
 5294W        W64555  38.830  43.427   4.777
 5295W        W64556   5.771  39.542  13.404
 5296W        W64557  15.791  36.975  13.982
 5297W        W64558  10.379  10.656  10.911
 5298W        W64559   5.193   1.845  12.458
 5299W        W64560   0.969   8.378  14.307
 5300W        W64561  15.191  36.081  12.823
 5301W        W64562  32.052  35.565   1.315
 5302W        W64563  14.635  34.532  12.963
 5303W        W64564  29.052  18.202  13.546
 5304W        W64565  15.288  26.506   1.275
 5305W        W64566   4.937  43.439  10.896
 5306W        W64567  18.777   7.719  11.022
 5307W        W64568  31.416   7.190   3.238
 5308W        W64569  26.115  17.184   2.273
 5309W        W64570  36.964   0.368   1.262
 5310W        W64571  22.096   7.692  10.505
 5311W        W64572  39.888  21.253  12.071
 5312W        W64573  36.542  37.426   1.388
 5313W        W64574  15.608  43.342  13.325
 5314W        W64575  26.158  23.714  13.421
 5315W        W64576  13.689  25.159  14.311
 5316W        W64577  20.638  23.997  14.911
 5317W        W64578  18.632  27.653   1.387
 5318W        W64579  18.632   9.206  12.065
 5319W        W64580   1.410  17.740   4.734
 5320W        W64581  26.472  17.135  10.963
 5321W        W64582   5.734  24.681   0.963
 5322W        W64583   2.884  43.952   3.220
 5323W        W64584  43.444  27.681  11.531
 5324W        W64585  37.528  11.824   5.147
 5325W        W64586  36.562   4.797  13.064
 5326W        W64587  18.213  24.709   2.413
 5327W        W64588  42.321  36.348  12.491
 5328W        W64589   2.427   7.402  14.456
 5329W        W64590  34.554  13.128   1.888
 5330W        W64591  22.521  18.067  12.503
 5331W        W64592  28.126  21.045   1.727
 5332W        W64593  36.462  13.181  14.828
 5333W        W64594   6.912   1.257  14.430
 5334W        W64595  25.547  15.601   1.748
 5335W        W64596  18.110  26.976   4.113
 5336W        W64597  43.432  14.711   1.294
 5337W        W64598  37.038  33.939  10.555
 5338W        W64599  27.575  36.501  13.389
 5339W        W64600  28.453  27.154   4.175
 5340W        W64601  32.462  36.588   2.677
 5341W        W64602  26.049   1.877  14.971
 5342W        W64603  34.522  32.463   4.695
 5343W        W64604  33.486  27.996  13.354
 5344W        W64605  22.160   7.806   2.675
 5345W        W64606  23.177  26.697  13.521
 5346W        W64607   0.765   7.205   3.229
 5347W        W64608  25.053  39.993  12.472
 5348W        W64609  21.078  18.218   1.416
 5349W        W64610  18.751  41.394  13.458
 5350W        W64611  26.464  42.804   4.136
 5351W        W64612  35.561   3.838  14.993
 5352W        W64613   8.168  16.163  14.946
 5353W        W64614  38.911  13.336   5.292
 5354W        W64615  31.086  27.015  11.990
 5355W        W64616  20.063  34.435  11.954
 5356W        W64617   2.430  35.596  14.313
 5357W        W64618  19.659   9.327  14.362
 5358W        W64619  27.630  37.020   2.386
 5359W        W64620  21.245  25.468  11.470
 5360W        W64621   3.768  35.060   2.279
 5361W        W64622  17.138  38.362   4.692
 5362W        W64623   0.479  31.620   2.872
 5363W        W64624  19.227  25.705   3.681
 5364W        W64625  28.168  24.001   1.766
 5365W        W64626  17.100  10.175  12.503
 5366W        W64627  42.888  26.511   2.867
 5367W        W64628  13.831  43.359   3.222
 5368W        W64629  39.005  42.414   2.792
 5369W        W64630  32.469  39.946  11.458
 5370W        W64631  39.925  41.350   4.306
 5371W        W64632  43.387  33.896  14.429
 5372W        W64633  18.265  34.031  14.935
 5373W        W64634  12.214  28.534   3.162
 5374W        W64635  18.553  40.503   5.130
 5375W        W64636  38.497  37.445  13.536
 5376W        W64637  21.538   5.276  11.532
 5377W        W64638  26.992  18.233   1.383
 5378W        W64639  16.605   3.353  13.873
 5379W        W64640   8.264   5.833  13.918
 5380W        W64641  42.525   1.743  13.880
 5381W        W64642  10.261  16.177   3.649
 5382W        W64643  22.617  32.520  12.936
 5383W        W64644   1.883  11.778   4.341
 5384W        W64645  20.615  35.913  14.877
 5385W        W64646   9.659   7.778   2.383
 5386W        W64647  27.056  43.936  14.775
 5387W        W64648  18.217  21.211  13.523
 5388W        W64649   3.252  41.969   4.775
 5389W        W64650  18.552  25.657   2.398
 5390W        W64651  32.501  13.319  11.083
 5391W        W64652  31.095   6.365  10.956
 5392W        W64653  21.060  14.825   4.774
 5393W        W64654   0.474  24.481  11.414
 5394W        W64655  15.649  16.750  12.021
 5395W        W64656  11.728  24.609  13.814
 5396W        W64657  18.285   3.892   3.642
 5397W        W64658  18.760  39.969   2.756
 5398W        W64659   6.246  21.606  12.967
 5399W        W64660  16.087  42.320  11.480
 5400W        W64661  19.131  25.687   1.805
 5401W        W64662  35.455  29.924  10.915
 5402W        W64663  19.546   7.719  11.984
 5403W        W64664  19.593   0.425   4.779
 5404W        W64665  24.072  24.684   3.676
 5405W        W64666   1.780   0.336   3.180
 5406W        W64667  17.581  43.339  14.350
 5407W        W64668  21.028  17.138   0.956
 5408W        W64669  18.238  13.613   4.185
 5409W        W64670  10.319  33.542  14.346
 5410W        W64671  28.528  19.671  12.844
 5411W        W64672  38.415  26.064   1.866
 5412W        W64673   3.889  33.915  14.459
 5413W        W64674  21.074  36.862   1.925
 5414W        W64675   9.873   9.318  14.806
 5415W        W64676   9.166  11.738   1.799
 5416W        W64677  20.228  32.406  13.923
 5417W        W64678  21.112  37.525   4.194
 5418W        W64679  26.688   9.372  14.946
 5419W        W64680  37.428  42.984   9.622
 5420W        W64681  41.463  29.921  14.833
 5421W        W64682  24.209   4.733   2.384
 5422W        W64683  28.175  32.408  11.452
 5423W        W64684  36.073   9.305  12.463
 5424W        W64685  25.001  31.616  12.570
 5425W        W64686  27.519  21.623  10.560
 5426W        W64687  20.226  44.364   1.897
 5427W        W64688  29.970   4.273  11.976
 5428W        W64689  31.059   5.208  11.542
 5429W        W64690  17.135  29.473  13.531
 5430W        W64691  17.753  20.063  14.509
 5431W        W64692  33.020  39.502  12.416
 5432W        W64693   0.480   7.251   4.267
 5433W        W64694  10.215  39.485   2.349
 5434W        W64695  40.870  15.809  14.901
 5435W        W64696  40.436  12.319   1.402
 5436W        W64697   5.822  21.664   1.421
 5437W        W64698  34.934  24.693   0.895
 5438W        W64699   8.783  18.606  11.433
 5439W        W64700  16.290  11.195   4.726
 5440W        W64701   8.200  41.932  14.858
 5441W        W64702  16.776  33.620   1.895
 5442W        W64703   6.405  17.694  13.906
 5443W        W64704  10.812   6.327  11.417
 5444W        W64705  37.379  12.140  14.936
 5445W        W64706  36.510  10.179  10.496
 5446W        W64707  38.569  43.404   3.661
 5447W        W64708  30.038  23.699   0.821
 5448W        W64709  43.413  20.116  13.515
 5449W        W64710   9.386  19.732  14.929
 5450W        W64711  34.476  30.656  14.455
 5451W        W64712  17.255  11.711   4.348
 5452W        W64713   3.911  29.093  14.358
 5453W        W64714  12.621  33.484  13.428
 5454W        W64715  27.679  41.535   1.402
 5455W        W64716   3.944  20.731  13.393
 5456W        W64717   8.161  28.110   0.870
 5457W        W64718  39.926  34.948  12.559
 5458W        W64719  25.030   0.865  14.311
 5459W        W64720  19.568  43.904   2.393
 5460W        W64721  31.571  44.770   4.821
 5461W        W64722  27.448  24.698  12.356
 5462W        W64723   6.293  23.688  14.808
 5463W        W64724   2.731  39.350  10.507
 5464W        W64725   8.855  24.610   1.313
 5465W        W64726  42.849  14.253   3.340
 5466W        W64727  41.831  33.433   2.809
 5467W        W64728  22.236  43.492   2.249
 5468W        W64729   0.303   4.283  11.875
 5469W        W64730  11.637  40.045  12.839
 5470W        W64731  19.184  25.587   0.794
 5471W        W64732  38.532  40.943   2.383
 5472W        W64733  36.444  12.631  13.327
 5473W        W64734  26.149   7.898  14.275
 5474W        W64735  16.223  26.095   1.731
 5475W        W64736  38.557  41.014  10.476
 5476W        W64737  25.590  15.208  12.069
 5477W        W64738   3.776   4.890  12.986
 5478W        W64739  14.825  29.067  12.455
 5479W        W64740  15.088  38.024   0.454
 5480W        W64741  35.387  33.564   1.272
 5481W        W64742   3.770  16.217  10.915
 5482W        W64743  40.507  16.266  14.909
 5483W        W64744   3.248  28.947  10.445
 5484W        W64745  21.171  36.078  12.491
 5485W        W64746  11.679  33.108  14.474
 5486W        W64747  31.460  11.252  11.907
 5487W        W64748  29.096   3.255   0.379
 5488W        W64749  31.478  39.926   4.636
 5489W        W64750  33.515  24.222  14.354
 5490W        W64751   4.917  24.008  13.404
 5491W        W64752  10.252  21.198   0.359
 5492W        W64753  13.619  38.839   0.278
 5493W        W64754  15.212  35.384   0.736
 5494W        W64755  32.942  42.896   0.931
 5495W        W64756  42.483  27.654   0.411
 5496W        W64757  35.045  20.731   2.380
 5497W        W64758  17.177  44.267   3.788
 5498W        W64759   3.365  25.676  14.299
 5499W        W64760  38.551  26.042  10.433
 5500W        W64761  44.344   9.394   0.413
 5501W        W64762  22.674   2.255  14.982
 5502W        W64763  25.693  24.185  13.990
 5503W        W64764  11.299  22.624  14.407
 5504W        W64765  33.988  29.538  11.862
 5505W        W64766  41.997  23.034  11.094
 5506W        W64767  24.046  21.529  12.947
 5507W        W64768  11.842  29.464   3.151
 5508W        W64769   1.281  12.787   0.948
 5509W        W64770  32.001  21.659  13.821
 5510W        W64771  39.426   3.790  12.524
 5511W        W64772   3.280   7.754   4.683
 5512W        W64773  11.665  11.828  10.436
 5513W        W64774  30.139  26.982  13.849
 5514W        W64775  21.083  19.171  12.828
 5515W        W64776  30.966  38.955   0.290
 5516W        W64777   5.203   4.378  11.561
 5517W        W64778  44.462  26.481   0.440
 5518W        W64779  23.160   3.385   0.445
 5519W        W64780  43.277  21.680   3.764
 5520W        W64781  43.828  24.069  11.916
 5521W        W64782  31.572   8.744  10.064
 5522W        W64783  29.166  32.413  13.322
 5523W        W64784  12.302  14.118  14.768
 5524W        W64785  19.707  19.142  12.929
 5525W        W64786  14.772  35.956   1.905
 5526W        W64787  43.953  25.497  10.644
 5527W        W64788  13.128  10.339  10.972
 5528W        W64789  34.116   0.761   3.855
 5529W        W64790   3.767   2.946   0.806
 5530W        W64791   8.344  15.650   1.700
 5531W        W64792   9.756  41.318  14.289
 5532W        W64793   5.905   2.966   0.428
 5533W        W64794  36.889  11.320   2.357
 5534W        W64795  30.932  13.776  14.798
 5535W        W64796  13.154  40.446  11.378
 5536W        W64797  43.887  43.936   1.700
 5537W        W64798  29.522   4.242   3.766
 5538W        W64799  28.104  25.604   0.278
 5539W        W64800  31.577   8.253   3.159
 5540W        W64801  23.541   9.747  11.005
 5541W        W64802  15.720   7.687   0.362
 5542W        W64803   5.894  13.798  13.877
 5543W        W64804  28.986  39.499   0.951
 5544W        W64805  29.433   9.785   3.656
 5545W        W64806  33.460  31.570   2.706
 5546W        W64807  33.968  20.703   4.354
 5547W        W64808  12.335  13.769  10.935
 5548W        W64809   4.283  44.466  12.922
 5549W        W64810  18.067  34.404  13.410
 5550W        W64811   1.308  22.008  12.999
 5551W        W64812  33.466  29.441   0.951
 5552W        W64813   0.983   1.741  11.903
 5553W        W64814  29.425  18.748   3.739
 5554W        W64815  18.677  32.556  11.112
 5555W        W64816  40.425  35.983   5.172
 5556W        W64817  38.822   0.873   2.312
 5557W        W64818   4.782  26.520  10.434
 5558W        W64819  17.782  34.904   2.900
 5559W        W64820  43.819  14.594  13.947
 5560W        W64821  28.040  38.347   0.937
 5561W        W64822  16.571   4.375   0.317
 5562W        W64823   3.306  26.022   4.151
 5563W        W64824  25.551   4.861   1.226
 5564W        W64825  39.360   4.880   3.333
 5565W        W64826  44.351  12.278  11.987
 5566W        W64827  24.500  38.865   4.278
 5567W        W64828  27.980  15.310   1.762
 5568W        W64829  43.416  13.605   3.694
 5569W        W64830  28.657  19.202   2.384
 5570W        W64831   9.204  21.746  10.414
 5571W        W64832   7.409   3.734  13.910
 5572W        W64833   8.763  13.720   4.280
 5573W        W64834  43.939  23.038   2.790
 5574W        W64835  23.137  33.083   1.425
 5575W        W64836  44.865  19.585   5.262
 5576W        W64837   7.815  44.411  12.346
 5577W        W64838   7.399  43.906  11.920
 5578W        W64839  25.195   7.323   0.266
 5579W        W64840   5.931   9.811   2.772
 5580W        W64841  28.530  27.514  11.070
 5581W        W64842  28.965  20.135  13.455
 5582W        W64843  40.368  29.033   0.330
 5583W        W64844  35.879   8.690  13.839
 5584W        W64845   4.308  20.566   1.719
 5585W        W64846   7.800   4.271   4.262
 5586W        W64847   7.775  44.837   2.224
 5587W        W64848  25.509  12.785   4.670
 5588W        W64849  32.554  37.848   0.943
 5589W        W64850   8.676   1.858  14.857
 5590W        W64851   0.472  24.496   2.711
 5591W        W64852  43.464  19.064   4.688
 5592W        W64853   7.260  44.784  10.451
 5593W        W64854   9.159   5.204  10.499
 5594W        W64855  26.185  18.284  14.874
 5595W        W64856  27.010   5.817  13.971
 5596W        W64857   5.926  18.107  11.103
 5597W        W64858   0.412  14.339   0.262
 5598W        W64859  30.426  44.999  12.951
 5599W        W64860  24.058  13.661   0.249
 5600W        W64861  16.182  36.910   1.794
 5601W        W64862  40.493  12.778   2.819
 5602W        W64863  39.044  42.456   2.276
 5603W        W64864  41.034  19.663   2.822
 5604W        W64865   4.849  29.101  12.975
 5605W        W64866  44.817   5.810   3.149
 5606W        W64867  16.090   7.900  13.352
 5607W        W64868  35.937  33.066   3.332
 5608W        W64869  13.767  29.076  12.013
 5609W        W64870  44.389  35.429   2.186
 5610W        W64871  40.352   4.221  14.470
 5611W        W64872  28.062  35.955  14.958
 5612W        W64873  44.412   3.267  14.448
 5613W        W64874  40.441  29.536  13.375
 5614W        W64875  18.706  25.084  10.132
 5615W        W64876  38.343  33.583   2.232
 5616W        W64877   9.346  29.439   1.709
 5617W        W64878  29.924  23.151  12.009
 5618W        W64879  18.053  24.533   0.877
 5619W        W64880  15.677  10.182  13.386
 5620W        W64881   0.483  33.545  12.413
 5621W        W64882  35.557   5.316   2.276
 5622W        W64883  42.335   9.332   0.337
 5623W        W64884  25.478  31.423   2.293
 5624W        W64885  37.952   2.807   4.714
 5625W        W64886  42.838  19.193  12.551
 5626W        W64887  37.882  44.492   2.415
 5627W        W64888  29.425  13.745  13.540
 5628W        W64889  34.439   1.932   2.772
 5629W        W64890  33.470   2.864  14.901
 5630W        W64891   0.792  23.613   4.150
 5631W        W64892  17.069   2.413  11.946
 5632W        W64893   8.170  13.665  14.293
 5633W        W64894   1.377  20.689  10.899
 5634W        W64895  33.434  18.094  13.520
 5635W        W64896   7.686  23.710   1.745
 5636W        W64897  22.520  15.293  13.517
 5637W        W64898  29.546   7.322   9.993
 5638W        W64899  33.118   6.287   4.737
 5639W        W64900  11.854  22.015  11.966
 5640W        W64901   0.323  38.437  13.366
 5641W        W64902  16.291  24.084  12.343
 5642W        W64903  21.162   9.815  11.901
 5643W        W64904  22.513  40.339   1.307
 5644W        W64905  12.723  44.404  10.454
 5645W        W64906   3.400   8.675  12.573
 5646W        W64907  39.449  39.849  10.460
 5647W        W64908  11.715   4.770   4.615
 5648W        W64909   9.389  31.048   3.789
 5649W        W64910  12.121  18.716   4.132
 5650W        W64911  13.776  10.157  10.910
 5651W        W64912  18.611  12.725   2.291
 5652W        W64913  38.364  37.441  12.449
 5653W        W64914   4.729  37.490   3.842
 5654W        W64915  41.970  14.294   5.315
 5655W        W64916  27.129  35.378  13.405
 5656W        W64917  26.680   8.265   1.340
 5657W        W64918   1.374  39.062   1.795
 5658W        W64919  36.087  30.928   3.743
 5659W        W64920  35.939  16.311  13.536
 5660W        W64921  28.122   7.738  11.002
 5661W        W64922   6.795  39.473  13.402
 5662W        W64923  13.728  38.506   1.759
 5663W        W64924  30.040  32.916   4.617
 5664W        W64925   0.982  13.157   4.157
 5665W        W64926  12.222  30.518  13.452
 5666W        W64927  33.897  11.634   2.265
 5667W        W64928  32.469  31.451  12.849
 5668W        W64929  32.042  38.557   2.666
 5669W        W64930   2.250  32.475  10.477
 5670W        W64931  44.978  39.389  14.485
 5671W        W64932   5.359   5.241  12.498
 5672W        W64933   2.914  22.545   4.194
 5673W        W64934  26.688  37.365  10.597
 5674W        W64935  16.777  35.021   0.964
 5675W        W64936  16.078  23.713  13.386
 5676W        W64937   2.321  38.876   5.154
 5677W        W64938  34.081  30.466   3.300
 5678W        W64939  41.350  27.062  14.939
 5679W        W64940  35.517  42.504   9.526
 5680W        W64941  33.006   7.415  13.314
 5681W        W64942  21.698  22.635   0.305
 5682W        W64943  16.727  32.606   0.918
 5683W        W64944  38.899  14.281   2.830
 5684W        W64945  36.411   4.385  10.957
 5685W        W64946  41.900   8.861   1.882
 5686W        W64947  21.646  30.908  12.450
 5687W        W64948  38.997  15.784  10.512
 5688W        W64949  38.386  20.739   2.801
 5689W        W64950  41.998  35.437  14.350
 5690W        W64951  20.119  11.131  12.420
 5691W        W64952  32.478   5.799   4.171
 5692W        W64953   5.286  24.195   4.601
 5693W        W64954  31.407  41.358  10.013
 5694W        W64955  38.023  16.078  13.416
 5695W        W64956  11.302  32.511   0.838
 5696W        W64957   7.694  31.931   3.869
 5697W        W64958  29.572  10.163   1.770
 5698W        W64959  11.191  41.483  12.465
 5699W        W64960  37.981  41.896  14.870
 5700W        W64961   5.381   6.349  12.388
 5701W        W64962  11.742  26.124  10.632
 5702W        W64963  27.675  35.459   2.802
 5703W        W64964  39.841   0.858   1.929
 5704W        W64965  37.491   3.227  10.904
 5705W        W64966   5.751  33.452  13.056
 5706W        W64967  28.127  36.417   2.319
 5707W        W64968  18.678  17.247   2.792
 5708W        W64969   9.671   9.778   2.385
 5709W        W64970   1.408  41.038   2.250
 5710W        W64971  40.039  43.312   3.282
 5711W        W64972  23.597  13.696   1.385
 5712W        W64973  39.907   1.885  11.555
 5713W        W64974  21.087   6.297  11.080
 5714W        W64975  15.325   7.908  12.350
 5715W        W64976  27.049  14.105  13.511
 5716W        W64977  40.333  19.579   3.822
 5717W        W64978  25.660   1.964   3.353
 5718W        W64979   1.279  25.645  13.528
 5719W        W64980  42.436  26.687  14.959
 5720W        W64981  15.218  25.702  14.510
 5721W        W64982  14.734  22.553   4.135
 5722W        W64983  22.238   8.824   0.348
 5723W        W64984  28.152  34.069   2.698
 5724W        W64985  14.728   2.418  14.998
 5725W        W64986  16.641  25.708   0.406
 5726W        W64987  41.026   9.787   1.390
 5727W        W64988  25.629  36.039  11.541
 5728W        W64989  43.955  33.065  13.988
 5729W        W64990  43.355  15.653  13.918
 5730W        W64991  26.636  38.496   4.317
 5731W        W64992  28.592  13.604   3.665
 5732W        W64993  13.667   4.849  14.336
 5733W        W64994  37.857   9.793   3.699
 5734W        W64995   7.245  33.966  13.042
 5735W        W64996  29.517  35.520   2.809
 5736W        W64997  35.909   1.455   0.294
 5737W        W64998  38.896   7.898  11.571
 5738W        W64999  35.967   0.956  11.127
 5739W        W65000  42.914   0.434   0.325
 5740W        W65001  14.758  31.078   3.835
 5741W        W65002   4.338  13.673  12.828
 5742W        W65003  40.442   9.677   4.734
 5743W        W65004  34.379  26.658  12.489
 5744W        W65005  33.092  39.886  12.919
 5745W        W65006  27.104  26.549   0.304
 5746W        W65007  39.867  19.723   2.384
 5747W        W65008  21.118  29.984   0.798
 5748W        W65009  44.364  36.841  14.978
 5749W        W65010  15.644  26.540   4.159
 5750W        W65011  27.547  13.321   4.152
 5751W        W65012   7.745   4.349   0.257
 5752W        W65013  33.540   0.310   3.174
 5753W        W65014  19.223  13.192   2.804
 5754W        W65015   9.273  32.097   0.450
 5755W        W65016   2.751  34.002   4.314
 5756W        W65017   1.382  24.604   2.700
 5757W        W65018  17.164  14.297   0.412
 5758W        W65019  21.748  17.610  13.474
 5759W        W65020  36.352  35.999  10.447
 5760W        W65021   7.841  17.727   4.313
 5761W        W65022  35.905  19.225   3.720
 5762W        W65023  29.469  26.146   3.780
 5763W        W65024   0.825  44.397  13.992
 5764W        W65025  25.066  37.874   2.316
 5765W        W65026   0.788  34.058  12.859
 5766W        W65027   2.893  15.706   9.952
 5767W        W65028  40.829  24.705   0.890
 5768W        W65029  28.140  24.569   1.273
 5769W        W65030  13.809   6.805  11.952
 5770W        W65031  26.518   8.796   9.952
 5771W        W65032  39.556  39.528  11.006
 5772W        W65033  32.620   7.779   0.965
 5773W        W65034  10.873  31.047   1.346
 5774W        W65035  12.641  44.305   2.675
 5775W        W65036  10.835  40.983  10.993
 5776W        W65037  15.299  42.282  14.788
 5777W        W65038  32.954  37.031   3.309
 5778W        W65039  21.532  43.967   4.610
 5779W        W65040  25.501  24.009  10.428
 5780W        W65041  38.432   1.819   1.803
 5781W        W65042  17.233  43.891  13.010
 5782W        W65043  34.373  18.656  11.079
 5783W        W65044  34.879  28.443   4.211
 5784W        W65045  22.243  31.921   1.773
 5785W        W65046  22.696  19.284   5.321
 5786W        W65047   0.350   9.715   0.264
 5787W        W65048  13.696  28.611   1.842
 5788W        W65049  37.927  43.959  13.464
 5789W        W65050  26.688  16.210  12.412
 5790W        W65051  40.803  17.579   1.932
 5791W        W65052   3.397   5.430   3.780
 5792W        W65053  18.260  15.290  12.420
 5793W        W65054  29.981   5.897   4.160
 5794W        W65055  38.977  20.166   0.385
 5795W        W65056  18.171  34.414   3.218
 5796W        W65057  38.929  31.899   0.450
 5797W        W65058  44.920  14.680  14.809
 5798W        W65059  10.220   4.309   0.794
 5799W        W65060  17.085  22.543   3.272
 5800W        W65061  20.109  22.157   0.471
 5801W        W65062   1.748  17.796   4.717
 5802W        W65063  23.711  17.072  11.442
 5803W        W65064  30.413   0.437  13.923
 5804W        W65065  31.147  31.939   3.257
 5805W        W65066  30.998   1.809   5.212
 5806W        W65067  11.822   1.452   1.320
 5807W        W65068  39.350  11.664   1.371
 5808W        W65069  42.505   5.284  14.362
 5809W        W65070   7.391  43.348   1.264
 5810W        W65071  21.523  19.208   3.789
 5811W        W65072  15.731  33.090   4.287
 5812W        W65073  23.569  40.845   0.478
 5813W        W65074   2.747  33.026   1.923
 5814W        W65075   4.427  12.230  10.499
 5815W        W65076  32.063   0.430   3.332
 5816W        W65077  27.467  21.174  14.511
 5817W        W65078  25.147   0.299  11.060
 5818W        W65079  22.179  14.334  10.619
 5819W        W65080  31.953  34.517   0.926
 5820W        W65081  42.988  17.711   4.679
 5821W        W65082  32.929  14.739  11.867
 5822W        W65083  35.859  28.098  13.998
 5823W        W65084  12.801  22.237  10.604
 5824W        W65085  18.632  17.265  12.360
 5825W        W65086  29.939  10.305  10.937
 5826W        W65087  15.791   0.812  11.899
 5827W        W65088   6.272  23.590   0.450
 5828W        W65089  15.277   3.716   2.786
 5829W        W65090  31.923  43.374   4.609
 5830W        W65091   5.426   9.737   4.218
 5831W        W65092  32.059  43.449   4.148
 5832W        W65093   6.910  41.490   4.705
 5833W        W65094  23.170  19.128  14.347
 5834W        W65095  15.259  41.407   2.410
 5835W        W65096  28.485  24.621   3.724
 5836W        W65097  12.197  39.471   4.168
 5837W        W65098  10.669  41.459  14.002
 5838W        W65099   6.249   8.233  11.994
 5839W        W65100  13.257  17.578   0.318
 5840W        W65101  41.439   4.785   2.315
 5841W        W65102  23.708  18.576   1.381
 5842W        W65103  31.547  27.051  11.420
 5843W        W65104  36.986  20.596  11.956
 5844W        W65105  41.375   0.248  12.888
 5845W        W65106  20.598   6.784   3.690
 5846W        W65107  35.524   4.848  11.589
 5847W        W65108  22.617  33.387   2.226
 5848W        W65109  43.461  29.157  10.991
 5849W        W65110   5.419  24.545   3.824
 5850W        W65111  44.815  22.203  12.535
 5851W        W65112  37.433  39.045   2.355
 5852W        W65113   5.295  13.773  13.869
 5853W        W65114  26.158  28.487  11.944
 5854W        W65115   1.460  35.525   1.833
 5855W        W65116  39.027  39.511   0.749
 5856W        W65117  23.220   6.715   1.922
 5857W        W65118   8.816  25.591  14.825
 5858W        W65119  36.899  24.643   4.321
 5859W        W65120  37.080   6.809   2.861
 5860W        W65121  33.982  41.440   0.798
 5861W        W65122  40.937  15.799   0.755
 5862W        W65123  24.075   6.738  11.030
 5863W        W65124  42.946   8.179  10.946
 5864W        W65125  44.927  19.588   2.699
 5865W        W65126  32.902  18.068   2.782
 5866W        W65127   4.443  23.101   0.380
 5867W        W65128  33.518   1.822  11.378
 5868W        W65129  31.004  14.142   1.724
 5869W        W65130   6.342  30.440  11.024
 5870W        W65131  39.849  42.847   1.911
 5871W        W65132  12.793   5.930   3.208
 5872W        W65133  39.038  19.175  14.767
 5873W        W65134  16.133   0.410  12.931
 5874W        W65135  31.146  15.670   2.787
 5875W        W65136  41.868  31.578  11.590
 5876W        W65137  27.955  26.695   3.680
 5877W        W65138  27.981  29.070   3.779
 5878W        W65139  38.385  26.169  13.543
 5879W        W65140  34.509  20.185   2.823
 5880W        W65141  42.800  13.113   4.258
 5881W        W65142   7.338  31.081  13.502
 5882W        W65143  15.647   7.394   5.129
 5883W        W65144  24.489  42.848  10.932
 5884W        W65145  17.722  18.554  13.938
 5885W        W65146  38.841  28.966   2.325
 5886W        W65147  33.463  35.954  13.332
 5887W        W65148  41.435  16.810  10.439
 5888W        W65149  30.431   0.987  11.564
 5889W        W65150   6.741  11.759   4.214
 5890W        W65151  21.168  41.346   1.360
 5891W        W65152  33.056  32.010  14.362
 5892W        W65153  19.742  21.557   1.841
 5893W        W65154  29.661  24.623  12.478
 5894W        W65155  42.890  41.981  13.399
 5895W        W65156  35.057  21.691   2.821
 5896W        W65157  23.624  37.531  13.407
 5897W        W65158  42.789  42.448   4.354
 5898W        W65159  27.093   7.413  10.547
 5899W        W65160  36.539  42.394  10.432
 5900W        W65161  35.583  27.165   1.931
 5901W        W65162  29.506  24.514  13.467
 5902W        W65163  28.557  29.424   0.898
 5903W        W65164   3.900  44.809   4.831
 5904W        W65165  36.443   9.327  12.469
 5905W        W65166  19.590   2.942  12.354
 5906W        W65167  14.205  17.753   0.379
 5907W        W65168  42.998  27.606  14.387
 5908W        W65169  43.948  31.505  12.944
 5909W        W65170  22.711  36.962  13.029
 5910W        W65171  15.270  39.324  14.947
 5911W        W65172  17.591  31.994  13.457
 5912W        W65173  28.081  24.051  13.025
 5913W        W65174   9.676  36.523   2.312
 5914W        W65175  30.635  18.237   0.306
 5915W        W65176  39.882  31.942  12.828
 5916W        W65177  28.014  21.222  11.888
 5917W        W65178  17.592  11.269   3.795
 5918W        W65179  16.731  22.622  11.414
 5919W        W65180  33.120  10.164   1.254
 5920W        W65181  29.667  29.533  11.997
 5921W        W65182   5.703  17.672  12.396
 5922W        W65183   5.727   6.773   1.764
 5923W        W65184  44.364  16.789  13.486
 5924W        W65185  44.000  25.052   4.306
 5925W        W65186  35.083   5.290   0.896
 5926W        W65187  15.677  27.062   5.692
 5927W        W65188  12.295  11.757  13.548
 5928W        W65189  13.349  19.658  10.974
 5929W        W65190  31.548  32.952  14.323
 5930W        W65191  19.715  29.984  14.512
 5931W        W65192   2.790  34.546   1.325
 5932W        W65193  33.923  21.551  11.471
 5933W        W65194  15.810   5.739   4.348
 5934W        W65195   5.867  14.621   1.386
 5935W        W65196  21.532  11.665   1.338
 5936W        W65197  18.154  34.116   3.286
 5937W        W65198  24.073  31.571   4.613
 5938W        W65199   1.237  32.452  12.500
 5939W        W65200   8.726   7.304   3.733
 5940W        W65201  38.524  16.745  13.831
 5941W        W65202  38.914  43.474   3.356
 5942W        W65203  17.778  31.628   5.640
 5943W        W65204  41.040  16.773   0.945
 5944W        W65205  13.346   2.393   4.655
 5945W        W65206  15.125   5.281   4.637
 5946W        W65207  16.138  24.025   0.916
 5947W        W65208  16.675  26.623  10.919
 5948W        W65209  33.508  41.918   2.209
 5949W        W65210  44.293   0.940  11.946
 5950W        W65211  30.953  11.865  11.950
 5951W        W65212  38.513  37.922  13.459
 5952W        W65213  39.379  19.181  13.353
 5953W        W65214  13.309   5.237   5.764
 5954W        W65215  16.310  44.371   3.737
 5955W        W65216  16.154  23.029   1.841
 5956W        W65217  35.019  16.249  12.858
 5957W        W65218  43.787  28.515  15.000
 5958W        W65219   0.415  43.439   0.770
 5959W        W65220  25.990  44.495   3.182
 5960W        W65221  23.621  22.127   4.191
 5961W        W65222   7.291  22.012  14.466
 5962W        W65223  32.596  34.554  12.824
 5963W        W65224  15.633  21.158   1.782
 5964W        W65225   6.730  40.983  14.302
 5965W        W65226  20.232  12.765   1.416
 5966W        W65227  24.133  41.435   1.726
 5967W        W65228  25.499   6.727  10.945
 5968W        W65229  26.010  24.145   4.602
 5969W        W65230  40.307   0.289   1.712
 5970W        W65231  37.984  31.915   0.805
 5971W        W65232  33.417  13.229  14.349
 5972W        W65233  28.441  39.550   1.251
 5973W        W65234   4.900  15.179   3.149
 5974W        W65235  44.455  16.253  11.409
 5975W        W65236  37.413  38.451  14.009
 5976W        W65237  27.999  22.543   3.294
 5977W        W65238  25.058  31.931  11.410
 5978W        W65239   8.893   7.339   4.833
 5979W        W65240   0.778  26.495   0.870
 5980W        W65241  12.336  41.429  11.456
 5981W        W65242  13.235   5.418  11.387
 5982W        W65243  39.473  30.533   1.874
 5983W        W65244  11.298  29.467  14.967
 5984W        W65245  29.658  36.965  13.004
 5985W        W65246  13.284  44.925   4.118
 5986W        W65247  15.657   2.286   3.636
 5987W        W65248  10.306  18.190   0.243
 5988W        W65249  29.631  40.367   1.921
 5989W        W65250  26.528  34.495   3.832
 5990W        W65251   4.735  39.498   2.418
 5991W        W65252  40.330  20.236  11.411
 5992W        W65253   9.329   9.245  12.051
 5993W        W65254  29.562  33.589  11.509
 5994W        W65255  23.630   4.354   3.744
 5995W        W65256  25.016  19.162   2.388
 5996W        W65257  11.213  14.653   0.811
 5997W        W65258  29.016   9.225   1.247
 5998W        W65259  11.779  31.116   2.341
 5999W        W65260  40.433  19.092  13.000
 6000W        W65261   7.310   6.278  11.606
 6001W        W65262  14.783  41.984   1.380
 6002W        W65263  17.742  36.514  14.454
 6003W        W65264   8.277  17.784   0.766
 6004W        W65265   2.300  23.590   1.835
 6005W        W65266   6.237  12.802  10.947
 6006W        W65267   8.821  12.116   3.292
 6007W        W65268  18.680  30.557  14.986
 6008W        W65269  25.600  40.416   3.153
 6009W        W65270  38.981   5.722  10.978
 6010W        W65271   1.971  11.280   0.335
 6011W        W65272  41.487  20.091  11.873
 6012W        W65273  25.631  39.443   3.643
 6013W        W65274  16.589  14.271   2.690
 6014W        W65275  38.873  30.069   4.216
 6015W        W65276  42.482  37.078  11.419
 6016W        W65277  38.390   5.354   2.843
 6017W        W65278  17.114  41.808   0.843
 6018W        W65279  19.556  23.069  14.366
 6019W        W65280  22.745  20.172   2.361
 6020W        W65281  17.616   3.885  14.009
 6021W        W65282  23.530  38.864  14.400
 6022W        W65283  18.664  27.195  13.825
 6023W        W65284  12.308  20.165   1.899
 6024W        W65285  35.879   9.705   0.480
 6025W        W65286  10.742   7.214   3.836
 6026W        W65287  23.187   4.274   2.282
 6027W        W65288  38.539  25.526  11.004
 6028W        W65289  41.398   6.753   3.345
 6029W        W65290  43.309  42.451  10.534
 6030W        W65291  43.507  17.290   0.783
 6031W        W65292   4.317  33.116  11.384
 6032W        W65293  23.184  36.037  14.849
 6033W        W65294   2.813   9.718  13.968
 6034W        W65295   0.482  28.113   2.898
 6035W        W65296   0.311   5.710   0.898
 6036W        W65297  17.195  39.349   0.932
 6037W        W65298  23.223   4.262  11.610
 6038W        W65299  24.004  17.693  13.471
 6039W        W65300  28.619  42.849  11.469
 6040W        W65301   9.324  21.125  10.528
 6041W        W65302   0.361   2.826  14.311
 6042W        W65303  15.704   3.787  14.878
 6043W        W65304  19.735  21.243   1.695
 6044W        W65305  13.218  19.638  13.445
 6045W        W65306  20.150   5.419   2.677
 6046W        W65307  24.712   3.888  10.590
 6047W        W65308  10.197  34.936  12.080
 6048W        W65309  31.065   4.798   1.726
 6049W        W65310  19.130  22.685   4.316
 6050W        W65311   7.795  14.825  14.373
 6051W        W65312  40.928  33.114  12.417
 6052W        W65313  16.122  35.383  13.797
 6053W        W65314   8.169  42.830  12.907
 6054W        W65315  16.154  11.189  12.465
 6055W        W65316  34.401   4.337  14.289
 6056W        W65317   3.290  19.183   0.385
 6057W        W65318   5.294  35.549   2.895
 6058W        W65319  38.961   1.802  10.151
 6059W        W65320  15.652  35.101   4.161
 6060W        W65321  35.871  44.280  11.594
 6061W        W65322  13.172  25.536   1.264
 6062W        W65323  28.945  17.723  14.859
 6063W        W65324  35.862  25.514  14.960
 6064W        W65325  27.145   2.873   0.751
 6065W        W65326  10.650  35.955   3.836
 6066W        W65327  10.667  35.469  10.565
 6067W        W65328  13.197  34.504  14.369
 6068W        W65329  24.652   9.650   2.716
 6069W        W65330  30.017  13.333  10.944
 6070W        W65331  39.848  11.228  12.366
 6071W        W65332  31.903  17.191  13.022
 6072W        W65333   6.356  28.019  13.873
 6073W        W65334  31.423  37.487   1.372
 6074W        W65335  38.402  11.751   3.354
 6075W        W65336  16.200   6.353  12.971
 6076W        W65337  38.040  11.368   0.259
 6077W        W65338  22.615  12.116  14.910
 6078W        W65339  14.814  11.638  11.469
 6079W        W65340  15.233  33.938   4.280
 6080W        W65341  10.750  31.944   9.976
 6081W        W65342  42.908  44.467   0.936
 6082W        W65343  19.774  30.622   1.416
 6083W        W65344   4.287  29.953   2.374
 6084W        W65345  25.120  44.274  13.032
 6085W        W65346  29.520  42.381   4.615
 6086W        W65347  19.114   6.905  10.540
 6087W        W65348  29.116  10.742   1.427
 6088W        W65349  29.443  21.123  14.978
 6089W        W65350  13.215  16.248   4.687
 6090W        W65351   7.674  37.021  12.464
 6091W        W65352  21.052  25.706  14.319
 6092W        W65353  10.689  36.517  13.034
 6093W        W65354  22.722  19.130   1.432
 6094W        W65355  22.073  40.989   4.834
 6095W        W65356   3.887   5.210   3.742
 6096W        W65357  12.657  33.414   0.964
 6097W        W65358  38.472  17.080   3.753
 6098W        W65359   7.396  36.007  12.096
 6099W        W65360  42.312   9.821   3.663
 6100W        W65361  29.601  22.062  11.990
 6101W        W65362  31.487  34.956  10.063
 6102W        W65363  19.067  27.990  14.030
 6103W        W65364  39.050   7.868  14.974
 6104W        W65365   9.827  41.038   3.201
 6105W        W65366  23.552  44.478   3.162
 6106W        W65367  17.663  23.684  14.453
 6107W        W65368  36.079  10.806   1.228
 6108W        W65369  12.324   1.310   3.244
 6109W        W65370   2.738  12.682   3.637
 6110W        W65371  22.652  15.321  11.483
 6111W        W65372  29.603  33.612  12.045
 6112W        W65373  13.307   9.721   3.204
 6113W        W65374  16.077   4.811  10.642
 6114W        W65375  29.464  21.207   0.378
 6115W        W65376  14.712  35.471  11.888
 6116W        W65377  34.574  35.496   3.188
 6117W        W65378  23.546  23.063   4.286
 6118W        W65379   9.256  35.586   4.706
 6119W        W65380   8.295  40.452  10.945
 6120W        W65381  39.040   7.332   1.775
 6121W        W65382  35.377   6.841  14.949
 6122W        W65383   1.400  25.030   1.768
 6123W        W65384  12.694  12.734   0.400
 6124W        W65385  35.581  39.452   0.755
 6125W        W65386  17.700  26.121   4.744
 6126W        W65387  27.947  31.581  11.537
 6127W        W65388  30.570   6.696   4.637
 6128W        W65389   9.700  17.141  12.065
 6129W        W65390  41.344  44.328   1.324
 6130W        W65391  32.416  22.096   4.252
 6131W        W65392  37.985   6.218  11.908
 6132W        W65393  37.351  22.219   1.877
 6133W        W65394  32.077  26.181  10.601
 6134W        W65395   5.242  15.637  12.875
 6135W        W65396  12.123   9.287  12.579
 6136W        W65397  27.655  36.085  12.512
 6137W        W65398  15.197  24.563   0.269
 6138W        W65399  36.491  29.049  10.632
 6139W        W65400   0.425  18.608   4.264
 6140W        W65401  21.608  26.135  11.020
 6141W        W65402  41.038  25.005  11.600
 6142W        W65403  38.871  12.745  12.929
 6143W        W65404  18.560  29.579  12.579
 6144W        W65405   4.856  39.921  10.924
 6145W        W65406  35.885   5.199  11.881
 6146W        W65407   1.439   9.229   1.269
 6147W        W65408   3.240   5.811   3.783
 6148W        W65409  44.423  24.068  10.517
 6149W        W65410  43.904  16.578   4.702
 6150W        W65411  27.990   0.478  11.096
 6151W        W65412  30.611  17.144  11.579
 6152W        W65413   4.925  12.763   5.177
 6153W        W65414  44.351   1.313  12.960
 6154W        W65415  32.633   5.845   0.902
 6155W        W65416  19.198   0.958   1.760
 6156W        W65417  32.907  16.271  10.120
 6157W        W65418  20.662   6.422   1.379
 6158W        W65419  35.599   5.290   1.897
 6159W        W65420  28.047  12.840  13.319
 6160W        W65421  12.253  26.176  14.498
 6161W        W65422  40.364   6.245  10.047
 6162W        W65423   2.846  43.006   1.335
 6163W        W65424  29.943   3.713   2.731
 6164W        W65425  44.937  32.430  11.102
 6165W        W65426  10.752  32.402   3.861
 6166W        W65427  17.681  36.923   0.399
 6167W        W65428  26.541  16.216   1.906
 6168W        W65429   8.884  28.003   1.274
 6169W        W65430  33.397  18.174   5.232
 6170W        W65431  27.514  16.602   4.805
 6171W        W65432  16.165   5.714   3.211
 6172W        W65433  15.735   1.249   0.772
 6173W        W65434  42.947  19.141   4.794
 6174W        W65435  33.506   3.338  13.889
 6175W        W65436  13.818  35.392   1.225
 6176W        W65437   6.364  17.241   4.294
 6177W        W65438  16.613  28.094  12.984
 6178W        W65439  34.944  11.341   1.274
 6179W        W65440  30.515  22.620   0.476
 6180W        W65441  15.277   4.263   2.710
 6181W        W65442   7.222  38.550   0.943
 6182W        W65443  10.289   8.245   1.930
 6183W        W65444  43.929  40.323  11.400
 6184W        W65445  43.462   8.373   4.813
 6185W        W65446  43.768  33.431  14.031
 6186W        W65447  28.048  24.043  13.393
 6187W        W65448  19.135  32.605  10.947
 6188W        W65449  42.843  39.935  12.521
 6189W        W65450  29.108  19.732  12.041
 6190W        W65451  17.232  31.487  10.938
 6191W        W65452  31.616  38.531   0.950
 6192W        W65453  27.557  38.387   1.775
 6193W        W65454  13.295  35.102  11.087
 6194W        W65455  25.169  39.375   1.792
 6195W        W65456  18.582  43.992  10.917
 6196W        W65457  28.438   8.843   4.775
 6197W        W65458  34.548  14.782   2.184
 6198W        W65459  33.451  22.139  14.375
 6199W        W65460   5.349   9.164   2.410
 6200W        W65461  10.264  19.276  13.800
 6201W        W65462  13.744  17.090  10.994
 6202W        W65463  39.848   4.922   0.451
 6203W        W65464  36.424  37.930   3.347
 6204W        W65465   4.734   8.764   0.746
 6205W        W65466  37.417   3.740   2.269
 6206W        W65467  44.949   6.877  13.028
 6207W        W65468  36.013  12.685  10.412
 6208W        W65469   5.704   5.239  11.047
 6209W        W65470  38.960  32.511  10.985
 6210W        W65471  41.023  27.068   4.305
 6211W        W65472  23.985  33.904   2.670
 6212W        W65473  36.008  25.595   3.271
 6213W        W65474  16.130  38.045  13.386
 6214W        W65475  33.989   0.324   2.360
 6215W        W65476  34.489  14.641  12.562
 6216W        W65477   9.644   6.921  11.883
 6217W        W65478  37.341  33.882  13.455
 6218W        W65479  24.691  26.655   2.338
 6219W        W65480  41.312  28.171  11.012
 6220W        W65481  10.652  10.638   0.360
 6221W        W65482  14.276  17.065   5.088
 6222W        W65483  43.461  24.106  13.465
 6223W        W65484  31.522  21.627  12.488
 6224W        W65485   7.675   3.354  11.945
 6225W        W65486  37.877  34.018   1.766
 6226W        W65487  35.362  21.651   4.825
 6227W        W65488  20.753   0.933   2.365
 6228W        W65489  44.984  26.502   4.339
 6229W        W65490  41.415  30.991  12.414
 6230W        W65491  19.039  37.934   4.811
 6231W        W65492  25.213  16.294  10.443
 6232W        W65493   9.344   7.847   9.673
 6233W        W65494  35.425  30.447  13.492
 6234W        W65495   0.981  23.138  11.033
 6235W        W65496  40.460  16.159  12.885
 6236W        W65497  25.191   5.813   1.853
 6237W        W65498  35.901  30.149   1.920
 6238W        W65499  18.242  35.525  12.348
 6239W        W65500  19.556  19.246   1.250
 6240W        W65501   2.443   8.202  12.350
 6241W        W65502  19.687   6.779   4.751
 6242W        W65503  34.070   6.693  12.834
 6243W        W65504  38.387  14.651   3.296
 6244W        W65505  35.380  22.996   2.843
 6245W        W65506  11.754   0.754  12.384
 6246W        W65507  42.366  26.070   1.370
 6247W        W65508   3.774  13.172   2.777
 6248W        W65509  38.055  21.039   3.736
 6249W        W65510   9.363  15.182  12.893
 6250W        W65511  26.615  38.010   3.699
 6251W        W65512  17.785  17.193   9.946
 6252W        W65513   1.259   7.347   4.766
 6253W        W65514  27.055  25.103  14.397
 6254W        W65515   3.796  20.195   2.267
 6255W        W65516   5.369  18.552   2.306
 6256W        W65517   6.830  13.836   1.212
 6257W        W65518  10.755  22.709  11.047
 6258W        W65519  38.345  28.447   1.447
 6259W        W65520  31.097  29.026  13.815
 6260W        W65521  15.659  20.120  12.343
 6261W        W65522   9.764  16.681  11.483
 6262W        W65523  21.131   0.851   1.315
 6263W        W65524  20.673  26.129   3.666
 6264W        W65525  12.346   1.922  12.070
 6265W        W65526  23.158  25.992  13.796
 6266W        W65527  26.683   6.762  12.823
 6267W        W65528  30.654  16.609  11.548
 6268W        W65529  43.290   7.200  10.980
 6269W        W65530   5.276  23.205  13.378
 6270W        W65531  31.927  37.468   0.304
 6271W        W65532  28.477  31.641  11.060
 6272W        W65533  20.144  24.531  13.486
 6273W        W65534  23.079  18.226  10.911
 6274W        W65535   6.861  36.043   0.285
 6275W        W65536  23.138  21.060  10.995
 6276W        W65537  26.521  44.861  12.404
 6277W        W65538   3.760  22.738   1.879
 6278W        W65539   0.759  12.687  11.428
 6279W        W65540   5.340  38.356  13.913
 6280W        W65541  40.800  41.908  13.866
 6281W        W65542   8.165  25.531   1.289
 6282W        W65543  23.548  43.884  10.464
 6283W        W65544  22.699  15.758  12.399
 6284W        W65545   7.805   9.793   0.876
 6285W        W65546  27.038  30.951   4.808
 6286W        W65547   8.831  13.766  13.038
 6287W        W65548  43.876  38.461   4.157
 6288W        W65549  11.718   0.901   2.676
 6289W        W65550  38.526   7.764  12.992
 6290W        W65551  43.431  22.604   4.746
 6291W        W65552  28.987  24.529   4.760
 6292W        W65553   4.915   1.886   4.720
 6293W        W65554  38.040  23.091   0.436
 6294W        W65555  10.165  22.514   2.354
 6295W        W65556  41.889   5.840   2.345
 6296W        W65557  30.471  10.217   0.444
 6297W        W65558  31.090  30.059  13.057
 6298W        W65559  27.520  26.630  14.287
 6299W        W65560  15.243  38.913   3.721
 6300W        W65561  17.270  10.857   4.646
 6301W        W65562  15.191   3.797   3.161
 6302W        W65563  10.249  19.719  12.355
 6303W        W65564  37.510  28.097   0.306
 6304W        W65565  13.605  10.842  12.364
 6305W        W65566  39.861  30.589   2.370
 6306W        W65567  23.241  20.095  12.989
 6307W        W65568  37.972  10.197   3.727
 6308W        W65569  18.598  15.085  14.855
 6309W        W65570  38.842  12.308  13.421
 6310W        W65571   0.790  39.540  10.048
 6311W        W65572  39.884  27.178  12.039
 6312W        W65573  33.880   3.297  10.950
 6313W        W65574  34.412   9.256  10.454
 6314W        W65575  36.853  39.910  12.927
 6315W        W65576   3.227  36.568   3.228
 6316W        W65577   0.318  43.978   3.722
 6317W        W65578  36.395  42.523  13.058
 6318W        W65579   6.198  33.532  12.995
 6319W        W65580  22.509  17.262   2.268
 6320W        W65581  34.586  35.056   3.192
 6321W        W65582  44.796  32.557  10.641
 6322W        W65583   2.852  27.455   2.406
 6323W        W65584  25.538   5.216  11.411
 6324W        W65585   6.739  27.943   2.693
 6325W        W65586  38.507   4.719   4.674
 6326W        W65587  39.477  17.641  12.044
 6327W        W65588  22.710  33.505   4.300
 6328W        W65589  32.962  31.115  11.943
 6329W        W65590  41.024  14.694   1.282
 6330W        W65591  41.341  13.645  13.411
 6331W        W65592  24.108  20.232  14.479
 6332W        W65593  40.431   2.270   1.440
 6333W        W65594  18.168  29.017   3.336
 6334W        W65595   2.766  24.188   0.809
 6335W        W65596  41.792  39.557   1.294
 6336W        W65597  24.015  33.086   2.716
 6337W        W65598   7.375  17.172  12.526
 6338W        W65599  42.416  26.076  13.435
 6339W        W65600   4.727  38.975   3.344
 6340W        W65601  19.605  12.684  12.935
 6341W        W65602  15.822   3.287   5.188
 6342W        W65603  24.581  33.006  13.965
 6343W        W65604  19.165  30.921   5.195
 6344W        W65605  21.062  12.723  12.410
 6345W        W65606  23.642   1.355   3.245
 6346W        W65607   5.193  40.405   4.348
 6347W        W65608  10.291   8.732   1.888
 6348W        W65609  38.892  44.431   1.275
 6349W        W65610  10.733  24.073  13.368
 6350W        W65611  22.684  15.168   3.780
 6351W        W65612  36.935   3.771  10.477
 6352W        W65613  30.442  37.465  11.405
 6353W        W65614  36.589   0.385   4.630
 6354W        W65615  13.666  39.834   4.617
 6355W        W65616  15.203  40.014  14.914
 6356W        W65617   0.802  32.032   5.145
 6357W        W65618  10.381  13.814   1.878
 6358W        W65619   1.320  39.514   3.207
 6359W        W65620  22.647  35.369   4.272
 6360W        W65621   0.392   4.816  14.920
 6361W        W65622  43.327  36.550   0.734
 6362W        W65623   0.453  36.053   4.803
 6363W        W65624   9.180  18.788  13.858
 6364W        W65625  27.626   7.780  10.522
 6365W        W65626  21.515  27.453   0.924
 6366W        W65627  18.728  44.812  10.956
 6367W        W65628  13.631  26.194   3.154
 6368W        W65629  11.739  29.493  10.941
 6369W        W65630  30.541  15.273  12.352
 6370W        W65631   8.784  33.591   0.479
 6371W        W65632  28.454  20.141  13.390
 6372W        W65633  21.525   3.354   5.190
 6373W        W65634   6.702  12.614  14.878
 6374W        W65635  36.579  14.765  10.485
 6375W        W65636  12.185  17.645  10.562
 6376W        W65637  31.993  35.036   3.188
 6377W        W65638  38.075  40.917  11.501
 6378W        W65639  14.736   9.208   3.745
 6379W        W65640  32.078  20.161   0.287
 6380W        W65641  42.999  28.934   4.130
 6381W        W65642  21.107  23.154   5.224
 6382W        W65643  13.348  16.685  14.440
 6383W        W65644  36.543  37.068  10.946
 6384W        W65645  42.294   8.389  14.789
 6385W        W65646  20.653  44.869   2.863
 6386W        W65647   2.414  16.293   3.694
 6387W        W65648  26.079  22.042  12.850
 6388W        W65649  14.149  28.170   2.368
 6389W        W65650  14.123  43.930   0.311
 6390W        W65651  22.126  30.963  12.434
 6391W        W65652  27.636  17.211  14.312
 6392W        W65653  42.943  10.150  14.810
 6393W        W65654  41.821  35.390   9.642
 6394W        W65655  23.551   7.411   1.758
 6395W        W65656   5.258  11.717  13.427
 6396W        W65657  35.390   1.335   1.251
 6397W        W65658  22.007  38.394   2.691
 6398W        W65659  27.540  30.107   4.637
 6399W        W65660   9.840  19.646  13.518
 6400W        W65661   7.907   0.844   4.774
 6401W        W65662  40.382   3.424  11.090
 6402W        W65663  14.259  24.125   3.856
 6403W        W65664  23.572   2.320   0.252
 6404W        W65665  14.599   7.684  12.895
 6405W        W65666  22.090  40.380  12.916
 6406W        W65667  44.473  13.761   4.764
 6407W        W65668  18.102  42.441   1.906
 6408W        W65669   1.313  44.916   0.302
 6409W        W65670  41.014  35.985  13.534
 6410W        W65671  36.375  40.949  12.496
 6411W        W65672  42.481  19.156  14.282
 6412W        W65673   5.763  33.428  12.369
 6413W        W65674  38.437  33.546   1.263
 6414W        W65675  31.907  20.149  13.057
 6415W        W65676  43.871   3.444   0.463
 6416W        W65677  32.550  32.449  11.560
 6417W        W65678  20.041  25.628  11.992
 6418W        W65679   1.830  30.508   0.354
 6419W        W65680  11.679  44.372   1.698
 6420W        W65681  35.070  15.680  14.941
 6421W        W65682  10.222   0.931   3.175
 6422W        W65683  14.274   7.696  12.449
 6423W        W65684  10.234  13.271   2.363
 6424W        W65685  15.136  29.173  13.332
 6425W        W65686  19.690   9.162   0.386
 6426W        W65687  40.941   0.404  13.476
 6427W        W65688   7.901  17.252  10.613
 6428W        W65689  34.877  14.641   5.123
 6429W        W65690  31.030  24.049  14.403
 6430W        W65691   5.885   9.270   1.242
 6431W        W65692  35.900  41.897   3.774
 6432W        W65693  20.166   6.348   1.801
 6433W        W65694  18.109  44.878  11.985
 6434W        W65695  27.623  18.247  13.863
 6435W        W65696  20.546  17.707  10.431
 6436W        W65697   9.224   7.243  12.493
 6437W        W65698  44.839   2.874   1.332
 6438W        W65699  36.060  25.201   4.342
 6439W        W65700   3.272  13.108   3.194
 6440W        W65701  29.006  16.150   2.725
 6441W        W65702   0.989  28.043   3.821
 6442W        W65703  12.159  17.728  12.936
 6443W        W65704  27.130   2.390  13.851
 6444W        W65705  28.465  40.512   3.667
 6445W        W65706  29.044  26.104   3.282
 6446W        W65707  19.056   6.412   4.703
 6447W        W65708  31.915  30.472   3.678
 6448W        W65709  36.558  28.064  11.097
 6449W        W65710  19.145  26.036  13.379
 6450W        W65711  40.445  28.090   0.467
 6451W        W65712   9.728  14.258   2.318
 6452W        W65713  21.227   5.881  11.124
 6453W        W65714   8.282  18.593  12.494
 6454W        W65715  31.623  25.040  14.832
 6455W        W65716  13.182  23.147   0.806
 6456W        W65717  27.490  24.050  12.373
 6457W        W65718  15.282  42.003   2.727
 6458W        W65719  17.209  32.995   3.703
 6459W        W65720  12.182   3.346  12.065
 6460W        W65721  27.126   7.237   2.701
 6461W        W65722  17.802  26.554  11.420
 6462W        W65723  23.691   7.281  12.578
 6463W        W65724   4.280  27.623  14.429
 6464W        W65725  19.593  40.836  12.039
 6465W        W65726  31.630   2.739   3.187
 6466W        W65727   7.344  22.657  14.475
 6467W        W65728  17.762  12.752  12.451
 6468W        W65729  18.227   1.431   0.863
 6469W        W65730  29.174   7.236  13.350
 6470W        W65731   5.357  33.081   1.386
 6471W        W65732  30.569  43.934  11.943
 6472W        W65733  33.471  20.269  14.466
 6473W        W65734  29.039  27.197  10.535
 6474W        W65735  18.580  40.896   3.751
 6475W        W65736  23.156  34.008  13.332
 6476W        W65737  29.132  38.481  12.070
 6477W        W65738  20.603  42.833   1.426
 6478W        W65739  20.525  33.606   2.226
 6479W        W65740   2.278  32.518   1.393
 6480W        W65741  39.977  11.714  13.005
 6481W        W65742  16.750  43.856  13.825
 6482W        W65743  33.919   4.293  13.804
 6483W        W65744   0.860  12.811   1.256
 6484W        W65745  43.340   4.324   3.798
 6485W        W65746  11.292  25.551  11.012
 6486W        W65747   5.437  41.790  12.918
 6487W        W65748  10.798  22.246  13.524
 6488W        W65749  42.434  41.486   0.851
 6489W        W65750   7.888  21.233   3.640
 6490W        W65751  43.433  25.654   0.739
 6491W        W65752  43.281  39.062  11.927
 6492W        W65753  39.434  32.902  13.429
 6493W        W65754  32.937   4.270   2.292
 6494W        W65755  27.677  22.744  14.307
 6495W        W65756  16.267  16.149  11.007
 6496W        W65757  24.129  28.530  11.577
 6497W        W65758  25.625  11.645   3.282
 6498W        W65759   6.337  30.560  14.431
 6499W        W65760  22.118  42.511  10.584
 6500W        W65761  27.948  42.784   1.863
 6501W        W65762  10.790   6.769  12.989
 6502W        W65763  41.822  14.166   3.159
 6503W        W65764  41.950  17.134   2.812
 6504W        W65765  25.570  27.038   2.288
 6505W        W65766  28.480  21.085  13.370
 6506W        W65767  37.528  18.601  10.944
 6507W        W65768   3.373  15.095  13.894
 6508W        W65769   5.325  39.929   1.345
 6509W        W65770  36.847  13.318  10.953
 6510W        W65771  35.592  24.121   1.783
 6511W        W65772  41.797   2.395   3.712
 6512W        W65773  18.739  29.587  14.323
 6513W        W65774  34.973  10.168   2.893
 6514W        W65775  29.502  44.906  13.023
 6515W        W65776   1.963  35.567  14.977
 6516W        W65777   9.780  38.860  12.999
 6517W        W65778  39.417  25.139  13.855
 6518W        W65779   9.722  35.461   3.164
 6519W        W65780  39.353  43.782  12.855
 6520W        W65781  16.135  33.565  14.303
 6521W        W65782  18.094  14.680   2.221
 6522W        W65783  30.930  36.041  11.955
 6523W        W65784  36.992  18.172  11.971
 6524W        W65785  13.342  27.497   1.286
 6525W        W65786  32.491  27.119  11.095
 6526W        W65787   0.306   8.742   4.718
 6527W        W65788  25.112  25.693  12.446
 6528W        W65789   6.250   0.871   3.309
 6529W        W65790  30.509  32.965   3.797
 6530W        W65791   4.292   8.337  12.981
 6531W        W65792  31.453  30.520   0.802
 6532W        W65793  13.744  21.060   1.844
 6533W        W65794  27.061  30.014   0.872
 6534W        W65795  39.504  40.046   2.217
 6535W        W65796  29.986  18.628   2.345
 6536W        W65797   5.323  15.618   3.700
 6537W        W65798  30.599  11.313   3.161
 6538W        W65799  22.090  40.034  14.895
 6539W        W65800   2.246   2.341   2.666
 6540W        W65801  37.014  26.660   3.809
 6541W        W65802  16.217  39.912   3.765
 6542W        W65803  34.109  20.257  12.571
 6543W        W65804  16.119  43.836  14.846
 6544W        W65805  12.193  40.892   4.666
 6545W        W65806   5.405  23.650  10.644
 6546W        W65807  20.523   1.805  13.478
 6547W        W65808  10.733  43.972   3.633
 6548W        W65809  26.650  36.371   2.775
 6549W        W65810  13.110   8.278   1.375
 6550W        W65811  24.501  36.401   2.716
 6551W        W65812  26.124  42.010   4.785
 6552W        W65813   0.775  37.440  14.308
 6553W        W65814   7.300  13.142   1.823
 6554W        W65815  33.452  27.532  12.092
 6555W        W65816  43.310   6.717   1.303
 6556W        W65817  36.442  32.961   2.702
 6557W        W65818   5.848   2.895   1.820
 6558W        W65819  20.728  27.692   1.385
 6559W        W65820   6.859  35.427  14.767
 6560W        W65821  41.855   0.452  13.920
 6561W        W65822   5.739  32.077  14.873
 6562W        W65823   5.805   7.758  14.982
 6563W        W65824  39.012  16.175   3.650
 6564W        W65825  19.098  25.554  14.458
 6565W        W65826  15.147  19.693   4.173
 6566W        W65827  17.697  27.591   2.264
 6567W        W65828   6.689  15.817  13.930
 6568W        W65829  37.422  26.048  12.563
 6569W        W65830  16.699  43.309   0.282
 6570W        W65831  24.114  42.973  12.944
 6571W        W65832  23.575  25.531   1.745
 6572W        W65833  38.065  38.387   3.773
 6573W        W65834   0.308   5.928  10.946
 6574W        W65835  12.133  32.466  14.965
 6575W        W65836  13.211  42.789   0.751
 6576W        W65837  24.177   8.847   2.270
 6577W        W65838   7.758  29.581  12.939
 6578W        W65839  21.554  23.534   1.359
 6579W        W65840   4.820   1.789  13.521
 6580W        W65841  36.445  29.992  13.883
 6581W        W65842   7.377  27.551   4.775
 6582W        W65843  41.005  18.247  11.454
 6583W        W65844  10.702  16.568   3.841
 6584W        W65845  40.381  11.631  11.060
 6585W        W65846  18.575  13.227  10.462
 6586W        W65847  36.977  20.528  12.539
 6587W        W65848  19.620   2.368   3.305
 6588W        W65849   4.251  32.593  14.286
 6589W        W65850  19.168  17.661   0.386
 6590W        W65851   2.901  19.258  14.877
 6591W        W65852  25.098  14.751   1.849
 6592W        W65853  10.690  25.979   3.253
 6593W        W65854  19.562   2.927  12.090
 6594W        W65855  34.880   4.889   3.171
 6595W        W65856   1.938  22.061  12.062
 6596W        W65857  39.941   5.209  13.515
 6597W        W65858  21.657  40.987  14.399
 6598W        W65859  32.890  32.967  11.453
 6599W        W65860  33.562  26.513  14.001
 6600W        W65861   3.377   1.386  12.538
 6601W        W65862  15.223  31.419   0.768
 6602W        W65863  26.963  14.801  12.926
 6603W        W65864   8.781  13.600   0.777
 6604W        W65865  28.579  11.233   5.222
 6605W        W65866  23.212  38.832   0.319
 6606W        W65867  36.091  14.228  10.902
 6607W        W65868  28.455   6.717  11.586
 6608W        W65869  19.163  35.109   0.311
 6609W        W65870   2.763  26.203  11.383
 6610W        W65871  42.906   6.764  12.987
 6611W        W65872   0.787  22.668   4.279
 6612W        W65873  20.587  12.328  14.772
 6613W        W65874  26.097  39.419  13.875
 6614W        W65875   8.336  11.330   0.767
 6615W        W65876  12.764  39.810  14.838
 6616W        W65877  35.387   3.400   2.698
 6617W        W65878  20.227  41.293  10.492
 6618W        W65879  25.981   4.247   3.192
 6619W        W65880  38.535   8.894   2.867
 6620W        W65881  41.310  12.123   4.324
 6621W        W65882  31.647  16.727  11.992
 6622W        W65883   7.241  37.417   0.816
 6623W        W65884   3.357  41.974  11.582
 6624W        W65885  19.556  11.152   3.196
 6625W        W65886  24.480  32.900  11.567
 6626W        W65887  38.857  18.725   1.384
 6627W        W65888  13.275  29.106  11.477
 6628W        W65889   1.429  44.469  13.891
 6629W        W65890  29.540  23.602  10.106
 6630W        W65891  37.910  31.426  10.488
 6631W        W65892  22.018  18.075  12.021
 6632W        W65893   7.306  30.150  14.301
 6633W        W65894  27.534   4.414   2.758
 6634W        W65895  35.504  36.094  11.402
 6635W        W65896   7.872  38.912   4.284
 6636W        W65897  44.421  27.061  13.837
 6637W        W65898  27.556  37.926  11.049
 6638W        W65899  37.473  27.524   2.367
 6639W        W65900   1.306  24.630   3.155
 6640W        W65901  17.569  38.336  11.128
 6641W        W65902  12.149   4.885  14.909
 6642W        W65903   8.786   7.686   1.854
 6643W        W65904  15.757  26.960   2.183
 6644W        W65905  13.699   4.841  14.966
 6645W        W65906  39.894  19.613   3.644
 6646W        W65907  40.547  41.402   3.286
 6647W        W65908  24.064   4.725   0.918
 6648W        W65909  37.881  31.981   0.390
 6649W        W65910  21.078  42.299  10.611
 6650W        W65911  19.767  30.969   3.368
 6651W        W65912   4.391  23.612   3.675
 6652W        W65913  44.417   2.778  14.800
 6653W        W65914  37.871   1.242  11.995
 6654W        W65915   0.805  38.076   3.245
 6655W        W65916  13.286   2.950   0.934
 6656W        W65917   9.215  32.396   1.796
 6657W        W65918  23.554  28.605   1.860
 6658W        W65919  14.202  22.701   0.363
 6659W        W65920  16.200  32.590  12.507
 6660W        W65921  23.194  23.619  13.847
 6661W        W65922  14.277  35.415  11.095
 6662W        W65923  42.982  40.830   1.804
 6663W        W65924  31.109  11.178  14.465
 6664W        W65925  12.760  16.756   3.247
 6665W        W65926  41.803  35.407  14.855
 6666W        W65927  37.351  18.684  12.430
 6667W        W65928  26.549   2.419  13.005
 6668W        W65929  37.834  28.102   3.147
 6669W        W65930  11.289  39.523  14.307
 6670W        W65931  36.417  31.544   4.653
 6671W        W65932   4.770  14.689   0.727
 6672W        W65933  44.839   1.460  12.996
 6673W        W65934  12.701  39.921  13.982
 6674W        W65935   6.323  30.538   1.296
 6675W        W65936  20.051  18.089   0.321
 6676W        W65937   4.300   1.824  10.955
 6677W        W65938  19.577  13.732  13.901
 6678W        W65939  23.155  42.440  11.544
 6679W        W65940  12.288  17.700   3.736
 6680W        W65941   1.779  32.896   2.798
 6681W        W65942  41.941  39.912  14.455
 6682W        W65943  25.148  30.024   3.381
 6683W        W65944  41.514   6.883  12.559
 6684W        W65945   0.421  24.602   2.416
 6685W        W65946  17.609   9.198   4.617
 6686W        W65947  24.574   2.808  12.070
 6687W        W65948   0.365  31.553  13.039
 6688W        W65949  22.659  25.527   0.852
 6689W        W65950  10.339   9.833   4.756
 6690W        W65951  18.185  27.525   0.763
 6691W        W65952  33.097  21.603   0.797
 6692W        W65953  30.103   8.188   0.396
 6693W        W65954  34.106  18.283   1.251
 6694W        W65955  37.956  25.634   3.723
 6695W        W65956  33.967  24.702   1.743
 6696W        W65957  36.567  27.062   2.264
 6697W        W65958   5.707  31.627   4.705
 6698W        W65959   4.407  11.644  14.928
 6699W        W65960  34.081   7.233  10.542
 6700W        W65961  38.936  11.867  13.903
 6701W        W65962   2.310  22.073  13.984
 6702W        W65963  21.226  21.124   4.130
 6703W        W65964   1.296  25.033   1.410
 6704W        W65965  33.043   2.761   1.804
 6705W        W65966  21.086  13.802  12.499
 6706W        W65967  41.869   2.838  12.548
 6707W        W65968  16.633   2.947  11.371
 6708W        W65969   8.382  18.567  10.924
 6709W        W65970  13.109   3.838  14.818
 6710W        W65971  17.619   0.278  13.325
 6711W        W65972   1.314   6.265   3.792
 6712W        W65973  14.287  21.683   0.323
 6713W        W65974  30.090  22.180  10.541
 6714W        W65975   7.179   7.293  14.470
 6715W        W65976  31.051  27.635  11.980
 6716W        W65977  26.073   9.177   2.895
 6717W        W65978  15.697   8.226  14.018
 6718W        W65979  30.063  18.065  14.427
 6719W        W65980  27.091  43.484   2.207
 6720W        W65981  36.903  15.222  11.938
 6721W        W65982  11.627  41.522   1.713
 6722W        W65983  38.045   5.754  12.365
 6723W        W65984   8.339  29.646  12.867
 6724W        W65985  41.003  32.079   1.229
 6725W        W65986  16.739   6.249  12.029
 6726W        W65987   3.946   5.745   4.137
 6727W        W65988  10.208  33.976  10.139
 6728W        W65989   7.254  36.538   1.327
 6729W        W65990  31.020  30.932  13.896
 6730W        W65991   6.244  27.492  11.535
 6731W        W65992  38.352   1.910  12.904
 6732W        W65993  39.318  37.366   4.721
 6733W        W65994  38.855  30.437  14.334
 6734W        W65995  29.515  25.172  11.009
 6735W        W65996  22.733  42.301   0.439
 6736W        W65997  38.007  29.142  12.836
 6737W        W65998  10.196  17.645  10.930
 6738W        W65999  34.898  22.591   5.185
 6739W        W66000  17.705  41.404   0.467
 6740W        W66001   7.906  22.101   2.384
 6741W        W66002  31.472   2.956   1.242
 6742W        W66003  42.027   4.300  11.407
 6743W        W66004  14.672  23.725  13.989
 6744W        W66005  28.479  29.505   1.426
 6745W        W66006  31.148   2.728   3.738
 6746W        W66007  34.438  32.396   3.330
 6747W        W66008  37.846  24.040  14.858
 6748W        W66009  20.757   1.401   3.358
 6749W        W66010  37.517  44.285  12.014
 6750W        W66011  21.257   2.295  10.964
 6751W        W66012  27.482  19.651   0.891
 6752W        W66013  11.189  29.960  10.634
 6753W        W66014  34.999   9.274  13.987
 6754W        W66015  26.138   3.859   2.764
 6755W        W66016  44.975  42.780  14.513
 6756W        W66017  26.134  24.014   2.777
 6757W        W66018  14.332  35.531  14.494
 6758W        W66019   2.431   5.758  14.404
 6759W        W66020   3.282  15.179   1.366
 6760W        W66021  38.945  17.646  12.532
 6761W        W66022  17.304  19.062   1.829
 6762W        W66023  27.448   3.259   4.297
 6763W        W66024  21.726  29.550   3.168
 6764W        W66025  33.461  10.333   0.887
 6765W        W66026   8.768  11.654   0.849
 6766W        W66027  15.601  29.987  10.934
 6767W        W66028  29.083   3.913   0.876
 6768W        W66029  27.515   3.912  13.431
 6769W        W66030  32.599  44.909  12.029
 6770W        W66031  27.641  20.134   3.251
 6771W        W66032   1.783  40.040   3.795
 6772W        W66033   1.859  34.393  11.124
 6773W        W66034  33.918  20.164  10.565
 6774W        W66035  29.605  37.918   9.989
 6775W        W66036  16.654  10.856   4.128
 6776W        W66037  19.573  10.309   4.163
 6777W        W66038  25.128   9.342  10.941
 6778W        W66039   0.815   0.489  10.993
 6779W        W66040  17.625   1.780   3.251
 6780W        W66041  21.217   2.858   4.154
 6781W        W66042   8.192  20.535  11.428
 6782W        W66043  35.069  24.691   1.363
 6783W        W66044  40.030  23.548  11.507
 6784W        W66045   8.865   5.287   3.212
 6785W        W66046  31.470  20.579   0.325
 6786W        W66047  18.235  39.868  12.900
 6787W        W66048  36.035  18.192   3.306
 6788W        W66049   2.944  38.476   2.874
 6789W        W66050  31.422  12.140  13.538
 6790W        W66051  28.988   1.324  10.977
 6791W        W66052  30.521  28.042  14.766
 6792W        W66053   9.709   6.215   0.947
 6793W        W66054  12.755  16.155  10.405
 6794W        W66055  37.080  41.516  12.385
 6795W        W66056  38.569  42.471  14.403
 6796W        W66057  34.369  24.986   4.202
 6797W        W66058   8.192  26.603   1.695
 6798W        W66059   6.263  21.699   4.809
 6799W        W66060  32.931  27.163  12.480
 6800W        W66061  33.404  14.213  14.777
 6801W        W66062   1.402  20.601  11.579
 6802W        W66063  10.270  19.731   3.720
 6803W        W66064  12.259  14.209  10.069
 6804W        W66065  32.943   8.313   5.085
 6805W        W66066  27.452  34.906   5.214
 6806W        W66067  23.696  44.436   4.203
 6807W        W66068  43.804  14.165   3.244
 6808W        W66069  43.770   9.821   4.238
 6809W        W66070  12.131  34.068   0.755
 6810W        W66071   2.391  37.879   4.668
 6811W        W66072  20.272  25.672   0.774
 6812W        W66073  19.234  31.462  14.863
 6813W        W66074   2.295   9.315   1.431
 6814W        W66075  34.902  13.680  12.404
 6815W        W66076   8.804  10.753   4.240
 6816W        W66077  14.630  20.242  12.022
 6817W        W66078  21.603  15.616   1.695
 6818W        W66079   8.202  24.661  12.567
 6819W        W66080  11.805  32.483  11.975
 6820W        W66081  24.174  15.251  13.801
 6821W        W66082  18.077  39.390  11.488
 6822W        W66083  17.248  23.054   3.313
 6823W        W66084  24.209  13.709  11.525
 6824W        W66085  29.601  26.080  11.126
 6825W        W66086   2.942  36.351  11.404
 6826W        W66087  22.713   9.848   2.198
 6827W        W66088   7.277  13.666  12.413
 6828W        W66089  17.292  25.220   1.221
 6829W        W66090  26.970  36.438   1.905
 6830W        W66091   1.272  35.901   3.329
 6831W        W66092  19.741  39.380  13.795
 6832W        W66093  42.779  26.979  10.526
 6833W        W66094  25.040  24.212  11.083
 6834W        W66095  30.623  22.704   4.608
 6835W        W66096  19.105  35.373   4.183
 6836W        W66097  22.059   0.867  13.404
 6837W        W66098  29.610  12.226   0.935
 6838W        W66099  36.892  12.296   4.175
 6839W        W66100  16.284  43.859  13.386
 6840W        W66101  12.642  25.527   3.840
 6841W        W66102  28.566  19.228  14.339
 6842W        W66103  25.016  31.440   2.295
 6843W        W66104  26.687  11.751   0.427
 6844W        W66105  21.201   0.312   3.786
 6845W        W66106  35.875  44.898   0.310
 6846W        W66107  20.230  28.939  11.445
 6847W        W66108  24.157  26.025  13.309
 6848W        W66109  40.851  43.814   0.302
 6849W        W66110  37.891  10.814  13.932
 6850W        W66111  35.036  37.833  11.495
 6851W        W66112  30.439  28.981   3.831
 6852W        W66113  26.163  41.348  13.315
 6853W        W66114  43.312  23.053   4.612
 6854W        W66115  14.832  35.936   0.328
 6855W        W66116  29.019  11.716  11.482
 6856W        W66117   5.439   6.711   4.710
 6857W        W66118   8.305   6.820   4.127
 6858W        W66119   4.770   9.880   4.763
 6859W        W66120  27.049  40.839   2.669
 6860W        W66121  12.745  25.171   2.757
 6861W        W66122  11.140  15.742  12.056
 6862W        W66123  33.498  44.299  13.323
 6863W        W66124  43.800  10.287   2.898
 6864W        W66125  20.722  22.622   1.842
 6865W        W66126  27.998  34.959  12.007
 6866W        W66127  13.321  15.187   1.763
 6867W        W66128  41.018   0.888   0.446
 6868W        W66129  36.387  33.895   3.811
 6869W        W66130  17.719   8.386   3.147
 6870W        W66131  38.328   5.834  11.023
 6871W        W66132  10.670  11.801   3.849
 6872W        W66133  30.551   4.383   4.209
 6873W        W66134  23.152   3.450  11.861
 6874W        W66135   2.906  16.655   0.387
 6875W        W66136  16.598   8.672   4.802
 6876W        W66137   6.765   2.788   0.460
 6877W        W66138  32.915  21.545   2.743
 6878W        W66139  39.949  16.647  14.293
 6879W        W66140  44.758   9.236   0.310
 6880W        W66141  12.658  15.121  14.279
 6881W        W66142  39.046  22.555   3.187
 6882W        W66143  27.968  33.402   4.123
 6883W        W66144  43.307  30.107  14.316
 6884W        W66145   3.874  20.613   4.321
 6885W        W66146  40.432  24.123   1.371
 6886W        W66147  34.602  10.244   2.886
 6887W        W66148  40.951  26.641   4.303
 6888W        W66149  39.051  37.507   3.864
 6889W        W66150  26.469  39.412   1.315
 6890W        W66151   5.397  13.286   2.275
 6891W        W66152   5.918   2.405   2.896
 6892W        W66153  40.892  30.963   3.387
 6893W        W66154  18.606  25.073   0.873
 6894W        W66155   2.300  22.691  13.387
 6895W        W66156   4.335  12.735  12.029
 6896W        W66157  42.993   3.908   3.698
 6897W        W66158  13.723   7.812   3.176
 6898W        W66159   0.858  42.467   1.880
 6899W        W66160  39.373  37.080   3.301
 6900W        W66161  28.475  34.394  13.003
 6901W        W66162  27.983  33.120   4.804
 6902W        W66163  20.159  22.668   0.290
 6903W        W66164  21.198  44.863   3.309
 6904W        W66165  22.537  17.135   5.286
 6905W        W66166   0.754  22.641  14.020
 6906W        W66167  20.082  42.467  10.607
 6907W        W66168   9.301   3.444   0.730
 6908W        W66169  14.196  31.552   1.249
 6909W        W66170  14.621  26.668  13.483
 6910W        W66171   4.874  18.090   2.898
 6911W        W66172  26.087  18.091   0.451
 6912W        W66173  18.157  44.404  14.768
 6913W        W66174  35.872  34.912   1.407
 6914W        W66175  43.306  40.823   2.201
 6915W        W66176  18.691  19.550  12.855
 6916W        W66177   1.961  28.439   3.760
 6917W        W66178  31.432   1.306  12.074
 6918W        W66179  17.083  19.276   3.167
 6919W        W66180   8.888  25.665   1.253
 6920W        W66181  32.465   7.819  13.426
 6921W        W66182  36.486  31.534   4.206
 6922W        W66183  30.633  39.401  11.037
 6923W        W66184  14.103  38.037   1.822
 6924W        W66185   1.909  25.691  13.435
 6925W        W66186  41.955  29.555   4.664
 6926W        W66187  27.025  28.985  13.844
 6927W        W66188  42.949  31.457  13.874
 6928W        W66189  31.152  31.485   2.232
 6929W        W66190  12.841  43.301  13.964
 6930W        W66191  13.117  16.656  12.960
 6931W        W66192  26.034  14.654  11.042
 6932W        W66193  41.800  13.846  10.525
 6933W        W66194   2.306  37.885   1.918
 6934W        W66195  30.413   3.436   0.345
 6935W        W66196  28.929  29.044  14.440
 6936W        W66197  19.668  36.531  14.806
 6937W        W66198  10.864  20.229   2.396
 6938W        W66199   7.716  31.640   1.415
 6939W        W66200  16.082   4.297  14.990
 6940W        W66201  41.526  15.086   4.143
 6941W        W66202  40.448  31.927  13.986
 6942W        W66203  14.110   0.853  14.963
 6943W        W66204  24.159  12.753  12.984
 6944W        W66205  27.576  30.098  13.309
 6945W        W66206  36.361  44.384  14.466
 6946W        W66207   7.695   2.327   2.279
 6947W        W66208  12.239  36.435   1.280
 6948W        W66209  30.632  37.886  11.594
 6949W        W66210  34.984  34.993  10.565
 6950W        W66211  38.541   8.678  11.858
 6951W        W66212  23.503   1.374   4.131
 6952W        W66213  15.194  44.439   1.706
 6953W        W66214   4.369  22.165   4.673
 6954W        W66215  44.770  14.146  11.950
 6955W        W66216   2.726  21.630   0.403
 6956W        W66217  14.153  34.614   2.877
 6957W        W66218   3.428  11.714   9.956
 6958W        W66219   0.803  31.148   4.665
 6959W        W66220   3.251  43.785  11.953
 6960W        W66221  38.989  34.460  12.896
 6961W        W66222   1.262  13.635  11.922
 6962W        W66223  20.696  33.036  14.412
 6963W        W66224  36.457  34.429   2.801
 6964W        W66225  37.487   2.866  11.560
 6965W        W66226  21.533  26.509  13.475
 6966W        W66227  35.525  33.408   3.749
 6967W        W66228  15.271   0.746  13.999
 6968W        W66229  42.352   1.969   3.156
 6969W        W66230  41.393   2.376  14.967
 6970W        W66231  11.270  41.356  10.606
 6971W        W66232  10.214  34.570  10.041
 6972W        W66233  41.524  27.514  11.934
 6973W        W66234  18.648  44.820  13.423
 6974W        W66235   0.855  27.490  13.864
 6975W        W66236  38.393  36.505   4.137
 6976W        W66237  27.999   1.816  13.546
 6977W        W66238   8.287   0.924  11.518
 6978W        W66239  44.925  37.080  13.832
 6979W        W66240  33.044  33.945   3.364
 6980W        W66241   8.822  16.587  13.401
 6981W        W66242  10.756  26.205  11.028
 6982W        W66243  38.409  22.138  10.999
 6983W        W66244  13.693  25.027  11.939
 6984W        W66245  40.810  30.477   4.662
 6985W        W66246  24.022  12.752   2.230
 6986W        W66247  42.895  14.710  14.358
 6987W        W66248  43.901  13.130   0.851
 6988W        W66249  22.173   0.436  13.319
 6989W        W66250   9.748  29.555  14.283
 6990W        W66251  37.830  34.902   2.677
 6991W        W66252  27.459  37.895  13.320
 6992W        W66253  15.727  17.649   1.873
 6993W        W66254  39.904  26.573   0.910
 6994W        W66255  19.771  11.249   0.320
 6995W        W66256  27.690  39.524   4.647
 6996W        W66257   5.747  12.197  14.822
 6997W        W66258  11.191  39.873   1.214
 6998W        W66259  42.834  37.439   2.699
 6999W        W66260  30.419  30.548   1.840
 7000W        W66261  21.022   3.381  11.999
 7001W        W66262  10.732  30.113  12.432
 7002W        W66263  12.357  27.052   4.673
 7003W        W66264  12.145   1.866   4.831
 7004W        W66265  11.165  33.960   2.746
 7005W        W66266   1.424  37.487  13.448
 7006W        W66267  41.404   7.782   1.933
 7007W        W66268  10.371  24.567  11.599
 7008W        W66269  11.827  31.565   0.278
 7009W        W66270  12.155  12.281   4.276
 7010W        W66271  29.932   5.727  12.054
 7011W        W66272  16.668  22.122  11.456
 7012W        W66273  36.448  43.947   0.280
 7013W        W66274  20.602  41.403  11.064
 7014W        W66275  38.421  39.484   5.139
 7015W        W66276  14.280  23.565   1.889
 7016W        W66277   4.263  30.454   0.475
 7017W        W66278  14.713   7.715  11.535
 7018W        W66279  16.100  37.970   0.777
 7019W        W66280  36.396  11.231   0.734
 7020W        W66281  38.542  34.032   4.125
 7021W        W66282  40.814   7.334   0.339
 7022W        W66283  31.544  14.827   1.762
 7023W        W66284  19.233  35.531   0.790
 7024W        W66285  22.703   8.290   3.639
 7025W        W66286  39.510   8.171  13.504
 7026W        W66287   6.689  15.088  14.937
 7027W        W66288  25.004  34.443   3.801
 7028W        W66289  19.754  20.255   0.314
 7029W        W66290  28.535  41.949   0.781
 7030W        W66291  14.288   6.854  14.999
 7031W        W66292  17.611  20.192   2.844
 7032W        W66293  21.748  43.368  13.449
 7033W        W66294  31.144  29.083  12.470
 7034W        W66295  12.260  24.162   1.416
 7035W        W66296  35.521  13.263   4.646
 7036W        W66297  44.448  37.923   0.469
 7037W        W66298   4.268  10.871   1.315
 7038W        W66299  23.559  20.171  12.901
 7039W        W66300   2.764  23.733  13.898
 7040W        W66301   1.293   4.224  12.009
 7041W        W66302  37.446  40.045  12.574
 7042W        W66303  11.692  10.810   3.854
 7043W        W66304   2.363  33.986   4.678
 7044W        W66305  28.514  40.032   4.165
 7045W        W66306  24.088  15.713  13.445
 7046W        W66307  40.424  21.565  14.760
 7047W        W66308  20.765   0.265  14.456
 7048W        W66309   2.287  32.110  11.981
 7049W        W66310   7.766  16.167  12.088
 7050W        W66311  19.615  34.881  13.459
 7051W        W66312  29.539  42.440  11.514
 7052W        W66313   3.787  36.981  11.041
 7053W        W66314   8.316  31.440  13.492
 7054W        W66315  30.656  41.015  14.361
 7055W        W66316  43.379  26.636   0.425
 7056W        W66317  41.389   7.332   3.647
 7057W        W66318   1.805   7.853   2.410
 7058W        W66319   5.690   8.865   1.772
 7059W        W66320  15.206  32.091   2.328
 7060W        W66321  23.005  13.689   1.818
 7061W        W66322  43.954  39.970  11.504
 7062W        W66323  11.797  39.009   4.303
 7063W        W66324  10.347  20.636  11.417
 7064W        W66325  31.406   7.828   0.794
 7065W        W66326  15.691  40.891  14.905
 7066W        W66327  14.286  32.099   0.343
 7067W        W66328  30.955  27.685   3.870
 7068W        W66329  43.510   1.861   3.293
 7069W        W66330   3.780   7.873  10.930
 7070W        W66331  23.645   8.342  14.286
 7071W        W66332  36.970  15.579   4.315
 7072W        W66333  18.699  42.792  11.430
 7073W        W66334   1.780  18.078   3.286
 7074W        W66335  32.401  42.350  11.375
 7075W        W66336   4.773  19.774  12.890
 7076W        W66337  36.937   7.758  12.854
 7077W        W66338   7.310   0.868  12.487
 7078W        W66339  17.643  16.150   1.252
 7079W        W66340   2.819  44.436   3.252
 7080W        W66341   4.941  18.184  10.960
 7081W        W66342   0.451  42.488   2.781
 7082W        W66343  30.623  37.045  11.552
 7083W        W66344  36.402   3.886  12.363
 7084W        W66345  43.019  20.556   0.735
 7085W        W66346  18.163  26.646   3.256
 7086W        W66347   4.944  17.248  12.507
 7087W        W66348  15.180   7.673  13.941
 7088W        W66349  44.832  30.490   4.608
 7089W        W66350  44.392  32.893  13.352
 7090W        W66351  44.942  40.015   4.222
 7091W        W66352  19.211  35.463   0.417
 7092W        W66353  35.401  42.004  12.832
 7093W        W66354  32.525  28.463   2.317
 7094W        W66355  35.035  41.423  14.951
 7095W        W66356  35.379   4.444   3.194
 7096W        W66357  14.104   5.364  11.594
 7097W        W66358  19.765  29.106   9.500
 7098W        W66359  13.107  15.793  11.504
 7099W        W66360  11.157  43.339   4.601
 7100W        W66361  44.312  43.462   5.296
 7101W        W66362   7.888  10.271  11.055
 7102W        W66363  19.218  29.552  12.533
 7103W        W66364   2.937  14.203  14.378
 7104W        W66365  11.641   0.429   3.765
 7105W        W66366  29.626  38.412   3.272
 7106W        W66367   4.881  38.030  12.969
 7107W        W66368   7.358  27.019  12.976
 7108W        W66369  41.365  34.422  11.871
 7109W        W66370  33.476   7.771   2.673
 7110W        W66371   8.298  43.440   4.230
 7111W        W66372  36.542   8.700  11.912
 7112W        W66373  44.339  37.339  11.554
 7113W        W66374  12.187  14.626  12.857
 7114W        W66375  35.974   8.752  14.893
 7115W        W66376   0.481  13.816   4.813
 7116W        W66377  16.611  26.990  12.892
 7117W        W66378  22.008   2.903   1.339
 7118W        W66379  41.303  25.105   3.186
 7119W        W66380  22.530  28.159   3.703
 7120W        W66381  15.264  18.066  11.501
 7121W        W66382  22.627  41.996   0.441
 7122W        W66383  22.160  36.050   0.959
 7123W        W66384   0.364  20.545  14.885
 7124W        W66385   3.244  33.534   3.696
 7125W        W66386  39.356  43.775  14.491
 7126W        W66387  25.537   2.433   4.628
 7127W        W66388   1.401  18.683   4.256
 7128W        W66389  21.196   7.264  13.933
 7129W        W66390  41.393   4.362  14.404
 7130W        W66391  42.479  42.457   1.821
 7131W        W66392  11.233  10.723   4.745
 7132W        W66393  36.365  19.770  13.508
 7133W        W66394  30.141  31.522   2.187
 7134W        W66395  16.166  13.237   3.335
 7135W        W66396  20.213  28.156  12.580
 7136W        W66397  10.633  39.823   2.236
 7137W        W66398   6.737  32.128  13.404
 7138W        W66399  31.946  22.570  11.385
 7139W        W66400  34.965   1.925  11.593
 7140W        W66401  26.552   3.710  14.460
 7141W        W66402  41.364  18.783  11.569
 7142W        W66403  42.982  21.126  14.890
 7143W        W66404   5.698  12.853  11.411
 7144W        W66405  34.430   6.893  12.847
 7145W        W66406   3.217  40.822  12.501
 7146W        W66407  22.600  35.552   1.872
 7147W        W66408   1.267  37.369  13.843
 7148W        W66409  36.971  37.947  11.995
 7149W        W66410  10.715   8.245   1.277
 7150W        W66411  19.243  22.061  11.902
 7151W        W66412  10.261  21.161   3.696
 7152W        W66413  39.314   9.387   2.301
 7153W        W66414  29.992  20.552  13.438
 7154W        W66415  26.982  36.496  14.962
 7155W        W66416  29.549   0.367   1.264
 7156W        W66417  12.803  43.892   2.826
 7157W        W66418  26.569  10.242  12.563
 7158W        W66419   3.443   5.326  14.329
 7159W        W66420  40.844   1.900  11.091
 7160W        W66421  10.310   2.431  13.047
 7161W        W66422  13.784  41.858   3.382
 7162W        W66423   5.811   6.823  12.863
 7163W        W66424  27.664  41.490  11.939
 7164W        W66425  25.070  37.015  11.967
 7165W        W66426  39.857  24.514   3.342
 7166W        W66427  33.615  30.118   4.772
 7167W        W66428   3.445  36.528  10.405
 7168W        W66429  10.360   1.747  14.312
 7169W        W66430  15.726  37.401   2.251
 7170W        W66431   6.781  15.790  11.593
 7171W        W66432  22.557  23.171   1.881
 7172W        W66433   9.229   5.933  13.343
 7173W        W66434  42.527  27.540  13.353
 7174W        W66435  23.027  29.661  12.931
 7175W        W66436  24.505  18.638   3.701
 7176W        W66437  20.170  21.515  10.425
 7177W        W66438   9.773  43.459  12.534
 7178W        W66439  23.001   1.475  13.059
 7179W        W66440  22.561   8.295  12.540
 7180W        W66441  37.578   2.317  14.504
 7181W        W66442  36.504  12.635   0.833
 7182W        W66443  33.558  18.689  11.072
 7183W        W66444  42.334  40.864  12.990
 7184W        W66445   2.853   9.336   1.804
 7185W        W66446  23.571  42.982   0.256
 7186W        W66447  27.604  42.851   2.699
 7187W        W66448  44.856  28.544   4.274
 7188W        W66449  14.197  11.806  13.872
 7189W        W66450  17.769   9.661  11.498
 7190W        W66451   5.319   1.782   0.797
 7191W        W66452  35.852  17.295  12.451
 7192W        W66453   8.819  21.745   0.311
 7193W        W66454  28.618  27.545  13.516
 7194W        W66455   7.696  37.500  11.906
 7195W        W66456  26.126  40.050   1.245
 7196W        W66457  14.135  13.808  11.918
 7197W        W66458  24.104  24.200  10.538
 7198W        W66459  43.401  19.556   4.157
 7199W        W66460   6.902  15.239  10.600
 7200W        W66461  37.895   8.836   3.809
 7201W        W66462  29.491   4.441   3.303
 7202W        W66463  31.558  38.076  12.525
 7203W        W66464  31.066  20.618   0.375
 7204W        W66465   8.661  26.644  13.425
 7205W        W66466   9.744   4.332   3.691
 7206W        W66467  41.496   1.881   4.208
 7207W        W66468  13.609   5.902  10.132
 7208W        W66469  28.957   9.752  14.368
 7209W        W66470  30.653  32.453  12.086
 7210W        W66471   0.971  18.736  13.350
 7211W        W66472  22.106  15.199   2.696
 7212W        W66473  11.800  10.813  11.862
 7213W        W66474  21.157  39.553  12.088
 7214W        W66475  28.546   4.942   4.274
 7215W        W66476  23.065  40.509   0.404
 7216W        W66477   4.280  39.469  13.311
 7217W        W66478  26.571   3.241   2.307
 7218W        W66479   6.839  19.707  11.525
 7219W        W66480   2.817  39.853   1.225
 7220W        W66481   7.341   6.349  13.431
 7221W        W66482  39.887  13.292   2.809
 7222W        W66483   5.778   7.321   1.842
 7223W        W66484  26.692  42.845  13.849
 7224W        W66485  16.602  22.151   0.821
 7225W        W66486  42.407  40.421  10.964
 7226W        W66487  41.371  35.451  14.820
 7227W        W66488  33.996  17.071  12.921
 7228W        W66489   3.877  10.728  14.920
 7229W        W66490  14.706  41.906   4.710
 7230W        W66491  35.947   5.721   3.698
 7231W        W66492  40.966   6.815   4.316
 7232W        W66493   8.401  26.112   2.813
 7233W        W66494  32.896  18.611   1.735
 7234W        W66495   4.223  25.693   2.205
 7235W        W66496   6.822  21.190   4.251
 7236W        W66497  31.537   1.917   2.334
 7237W        W66498  38.432  41.837   1.814
 7238W        W66499  38.057  29.926  13.492
 7239W        W66500  35.499  23.120   3.370
 7240W        W66501  10.205  43.330   4.650
 7241W        W66502  20.729  18.646   4.830
 7242W        W66503  34.382  35.923   0.336
 7243W        W66504  39.014  22.702  11.876
 7244W        W66505  21.727  40.032   1.212
 7245W        W66506  24.580   2.233   2.813
 7246W        W66507  32.934   4.316  12.489
 7247W        W66508   9.739  12.742   3.778
 7248W        W66509  20.128   3.343   9.986
 7249W        W66510  19.714   0.744   3.179
 7250W        W66511  34.939  43.327   4.599
 7251W        W66512  30.461  13.768  11.975
 7252W        W66513   6.872   2.895  11.859
 7253W        W66514   5.287  39.834  12.466
 7254W        W66515  13.351   0.985   2.775
 7255W        W66516  44.441   8.858   5.210
 7256W        W66517  15.624  38.005  11.422
 7257W        W66518  13.776  13.695  11.398
 7258W        W66519   1.829  26.571   2.246
 7259W        W66520   0.912   8.717  11.987
 7260W        W66521  20.583  40.517  13.532
 7261W        W66522  18.058  11.206   4.814
 7262W        W66523  26.207  20.702   1.815
 7263W        W66524  27.488  10.175   4.312
 7264W        W66525  20.586  15.264   4.286
 7265W        W66526  42.479  43.445   3.229
 7266W        W66527   6.823   2.365  13.878
 7267W        W66528  43.347  15.614  12.460
 7268W        W66529  10.797  28.497  14.309
 7269W        W66530  19.549  15.674   3.158
 7270W        W66531  25.585  32.614   0.862
 7271W        W66532  43.416  30.517  14.939
 7272W        W66533  36.959  11.792   4.146
 7273W        W66534  29.161  25.630  11.984
 7274W        W66535  31.918  24.145  11.438
 7275W        W66536   9.815  44.942   2.732
 7276W        W66537  39.042  41.378   1.896
 7277W        W66538  25.667   9.163   0.278
 7278W        W66539  11.170  34.603  13.953
 7279W        W66540  21.573  18.198   1.833
 7280W        W66541   9.198  11.841   3.667
 7281W        W66542  41.001   9.371   1.314
 7282W        W66543   5.706   8.363   2.889
 7283W        W66544  42.990  26.094  14.813
 7284W        W66545  23.723   9.157  14.946
 7285W        W66546  38.489   4.364  14.291
 7286W        W66547  42.408  23.723  10.439
 7287W        W66548  39.333   2.740  11.444
 7288W        W66549  16.275  38.009  12.517
 7289W        W66550  36.358  24.004   2.374
 7290W        W66551  36.938  16.779   2.836
 7291W        W66552  19.104  31.538   0.319
 7292W        W66553  42.849  18.187   2.801
 7293W        W66554  37.476  29.650   3.830
 7294W        W66555  31.081  23.104   3.663
 7295W        W66556  21.585  31.529   4.744
 7296W        W66557  19.682  42.515  14.341
 7297W        W66558  28.099  20.031  11.930
 7298W        W66559  16.777   2.736  12.979
 7299W        W66560  27.542   2.952  14.976
 7300W        W66561  19.617  18.249  11.971
 7301W        W66562  30.563  33.466   5.741
 7302W        W66563  32.491   7.777  12.394
 7303W        W66564  37.397   9.764  11.547
 7304W        W66565  13.818  22.097  14.895
 7305W        W66566  44.849  26.006   3.261
 7306W        W66567  20.671   7.318  14.883
 7307W        W66568   5.213  27.961  11.419
 7308W        W66569  26.163  36.456  11.988
 7309W        W66570  26.521   6.270   4.656
 7310W        W66571   8.182  19.106   1.892
 7311W        W66572  12.810  23.161  11.041
 7312W        W66573  33.444  32.611   1.352
 7313W        W66574  20.750  15.279   3.333
 7314W        W66575  33.905  25.541  14.297
 7315W        W66576   5.369  12.264   4.756
 7316W        W66577  30.949  25.123   4.813
 7317W        W66578  34.036  28.552   0.285
 7318W        W66579  38.450  33.395   3.768
 7319W        W66580  17.253   5.433   1.344
 7320W        W66581  13.640  21.172   2.881
 7321W        W66582  17.286  39.368   2.859
 7322W        W66583  24.524   4.713   4.714
 7323W        W66584   5.741  39.922   3.257
 7324W        W66585  34.066  24.040   2.858
 7325W        W66586   5.398  25.596   0.411
 7326W        W66587  20.602  10.670  10.597
 7327W        W66588  17.766  44.481  13.328
 7328W        W66589  13.179   0.451   0.808
 7329W        W66590  17.638  27.050  10.570
 7330W        W66591  23.124  40.411   2.872
 7331W        W66592   5.410  40.331  13.021
 7332W        W66593  27.628  30.505   1.707
 7333W        W66594  25.101   6.815  14.976
 7334W        W66595  40.391  31.515  11.974
 7335W        W66596  33.591   4.229   1.309
 7336W        W66597  10.690   4.857  11.100
 7337W        W66598  10.765  33.463   4.156
 7338W        W66599  11.328  37.016   0.366
 7339W        W66600  35.900  38.830  13.792
 7340W        W66601   1.349   3.405   0.303
 7341W        W66602  23.600  42.850   2.285
 7342W        W66603   3.375  36.029   3.357
 7343W        W66604  12.640  33.006  11.496
 7344W        W66605  11.287  21.155   4.132
 7345W        W66606  16.756  38.459  13.366
 7346W        W66607   2.400  24.670  12.055
 7347W        W66608  43.394  24.704  10.980
 7348W        W66609  16.809  14.760   1.895
 7349W        W66610  25.969  28.574   3.317
 7350W        W66611  32.076  11.370   2.315
 7351W        W66612  43.436  28.165  13.933
 7352W        W66613  33.052  26.959  13.941
 7353W        W66614  26.951  23.668  14.425
 7354W        W66615  36.520  39.955   1.807
 7355W        W66616   8.283  44.410  10.588
 7356W        W66617   4.815  18.143   3.683
 7357W        W66618  33.111  23.161   3.841
 7358W        W66619   4.867  13.831   1.307
 7359W        W66620  26.000  40.467   3.799
 7360W        W66621  33.073  37.877  14.870
 7361W        W66622  44.395  10.274  14.918
 7362W        W66623  34.471  26.597   3.354
 7363W        W66624   6.799  43.363  12.870
 7364W        W66625  15.098   5.859  12.848
 7365W        W66626   5.207   8.696   3.307
 7366W        W66627  32.448  10.816  13.496
 7367W        W66628  10.375  37.418  10.492
 7368W        W66629  17.304  12.191   4.283
 7369W        W66630  10.827  42.311  14.509
 7370W        W66631  19.622   8.812  10.619
 7371W        W66632  36.853   0.781   3.151
 7372W        W66633  14.244  27.449   4.282
 7373W        W66634  42.527  30.917   1.819
 7374W        W66635  17.164  32.084   1.863
 7375W        W66636  26.480  36.940   2.678
 7376W        W66637  23.660  37.512  13.060
 7377W        W66638  14.143   9.359   1.266
 7378W        W66639  27.577  28.509  14.319
 7379W        W66640   4.322  16.296  10.459
 7380W        W66641   7.769  38.020   4.250
 7381W        W66642  43.764  24.088  14.013
 7382W        W66643  32.453  13.685  13.937
 7383W        W66644  30.995  44.915   3.152
 7384W        W66645  20.189   9.297   0.899
 7385W        W66646  36.081  13.217  13.057
 7386W        W66647  20.218  32.581   3.724
 7387W        W66648  27.162  26.058   9.994
 7388W        W66649   3.286  35.442  13.838
 7389W        W66650  28.594  25.616   1.928
 7390W        W66651   0.759  25.151  10.642
 7391W        W66652  16.115   5.282   9.526
 7392W        W66653  22.726  27.942  13.800
 7393W        W66654   2.724  32.556  13.038
 7394W        W66655   9.352  35.067   3.847
 7395W        W66656  17.172  42.356  12.432
 7396W        W66657   2.921   8.702  14.338
 7397W        W66658  14.168   6.867  13.352
 7398W        W66659  34.927  16.661  10.621
 7399W        W66660  29.506  43.336   1.840
 7400W        W66661  29.640  13.294   3.650
 7401W        W66662  20.749  36.479   1.746
 7402W        W66663  44.849  39.924  14.288
 7403W        W66664  31.042  44.932   2.689
 7404W        W66665  14.595  14.826   4.607
 7405W        W66666  21.238   1.308  12.520
 7406W        W66667  29.083   8.256   0.267
 7407W        W66668   9.248  42.821   1.391
 7408W        W66669  34.419  11.327   1.445
 7409W        W66670  33.581   1.410  12.404
 7410W        W66671  21.173  10.852   0.360
 7411W        W66672  37.393  26.656  11.565
 7412W        W66673  23.492   2.349  14.431
 7413W        W66674  22.998  44.461  13.862
 7414W        W66675  43.318  39.457  14.453
 7415W        W66676  44.494   9.656  13.833
 7416W        W66677  33.903  26.024  11.042
 7417W        W66678  43.994  36.968   2.418
 7418W        W66679  36.391   2.909   1.417
 7419W        W66680  33.614  39.501   0.473
 7420W        W66681  33.412  15.823  13.030
 7421W        W66682  33.892  43.002  14.874
 7422W        W66683  20.636  35.446  14.477
 7423W        W66684  25.647  30.582  12.941
 7424W        W66685  20.547  16.251   0.432
 7425W        W66686   0.777  21.654  10.506
 7426W        W66687  12.837   1.766   9.516
 7427W        W66688  42.313  42.985  13.402
 7428W        W66689  33.507   1.735  12.480
 7429W        W66690   9.246   6.838  14.284
 7430W        W66691  27.174   0.782  11.891
 7431W        W66692  19.063  24.019  12.875
 7432W        W66693  26.542  10.659  11.442
 7433W        W66694  13.844  38.353   0.742
 7434W        W66695  17.084  15.288  11.383
 7435W        W66696  18.063   6.893  12.520
 7436W        W66697  21.018  14.646  14.906
 7437W        W66698   1.951  21.727   3.203
 7438W        W66699  38.861   7.280   0.309
 7439W        W66700   6.888  18.581   0.834
 7440W        W66701  39.545  29.617  12.572
 7441W        W66702  42.917   2.322  13.894
 7442W        W66703  10.289   4.763  10.549
 7443W        W66704  44.411   1.276  11.052
 7444W        W66705   2.874  30.521  14.331
 7445W        W66706   5.834  40.924  13.937
 7446W        W66707  42.879  16.620  11.910
 7447W        W66708   8.289  30.131   4.720
 7448W        W66709  39.981  18.565   2.764
 7449W        W66710   5.310  42.923   1.392
 7450W        W66711  34.030  20.123   4.238
 7451W        W66712   3.394  28.048   5.222
 7452W        W66713   3.260  12.622   3.734
 7453W        W66714   1.899  40.830   1.320
 7454W        W66715  40.515  37.858  10.900
 7455W        W66716   4.241  38.968   3.859
 7456W        W66717  34.524   7.899  11.121
 7457W        W66718  31.591  32.086   3.173
 7458W        W66719   2.852  43.853  14.771
 7459W        W66720  43.509  36.942   3.296
 7460W        W66721  26.114  13.774  10.609
 7461W        W66722   3.779  44.420  11.912
 7462W        W66723  44.296  17.678  13.482
 7463W        W66724  33.993  12.805   2.359
 7464W        W66725   8.205  16.090  11.527
 7465W        W66726   4.301  34.444  13.495
 7466W        W66727  21.644   7.203  13.547
 7467W        W66728   0.458  36.352   3.165
 7468W        W66729  38.449   3.291  11.416
 7469W        W66730  17.104   7.280   3.714
 7470W        W66731  18.080   2.811   3.207
 7471W        W66732  16.728  11.138  13.495
 7472W        W66733  18.281  42.875  11.564
 7473W        W66734  43.938  14.678  13.543
 7474W        W66735  40.877  25.509  13.448
 7475W        W66736  10.159  40.469  10.459
 7476W        W66737  39.336  43.360   3.684
 7477W        W66738  10.775  15.712  13.373
 7478W        W66739   7.856  23.500  10.095
 7479W        W66740  16.802   4.327   4.292
 7480W        W66741  35.572  26.122   2.698
 7481W        W66742  14.211   8.858  10.116
 7482W        W66743  12.640   7.177  14.446
 7483W        W66744  17.617  34.884  14.898
 7484W        W66745   9.207   5.255   2.272
 7485W        W66746   7.886  39.327  14.949
 7486W        W66747  27.986  14.739   1.869
 7487W        W66748  41.007  12.213   1.348
 7488W        W66749  35.026  35.539   2.218
 7489W        W66750  25.129  44.338  10.934
 7490W        W66751   6.408  38.405   1.820
 7491W        W66752  33.028  28.507  10.488
 7492W        W66753  28.153  17.631  14.031
 7493W        W66754   9.307  33.906   0.466
 7494W        W66755  15.184  13.113   0.809
 7495W        W66756  35.479  16.215  13.007
 7496W        W66757   8.799  19.231  14.027
 7497W        W66758  32.463   5.743  14.915
 7498W        W66759  20.059   3.369  11.021
 7499W        W66760  36.934   2.949  12.361
 7500W        W66761   1.386  18.146   1.273
 7501W        W66762  11.147  32.955  13.389
 7502W        W66763  45.000  13.696  10.520
 7503W        W66764  28.555  34.896   2.730
 7504W        W66765  21.019  12.844   3.304
 7505W        W66766  44.489  36.981   3.146
 7506W        W66767  28.963   9.315  10.911
 7507W        W66768  17.727   3.942   1.372
 7508W        W66769  12.146  11.766  12.064
 7509W        W66770  30.571   7.311   3.266
 7510W        W66771  40.426  36.965  13.329
 7511W        W66772   5.333  25.553   1.735
 7512W        W66773  24.123  32.577   4.694
 7513W        W66774   7.411  35.983   2.792
 7514W        W66775  16.715  20.717   5.590
 7515W        W66776  43.861  34.406   3.157
 7516W        W66777   9.707   4.292  13.925
 7517W        W66778  39.999   1.419   3.300
 7518W        W66779  15.327  21.576   3.845
 7519W        W66780  19.075   8.388  10.449
 7520W        W66781  21.252  24.535   0.884
 7521W        W66782  23.715  13.740   1.920
 7522W        W66783  11.789  19.701   0.782
 7523W        W66784  21.059   8.203   3.712
 7524W        W66785   2.926  32.960  11.520
 7525W        W66786  42.444  25.481  11.584
 7526W        W66787  23.509   1.420  11.607
 7527W        W66788   4.308  36.930  13.329
 7528W        W66789  19.233  17.657   5.707
 7529W        W66790  10.850  10.771  13.972
 7530W        W66791  10.687  27.976  11.889
 7531W        W66792  11.738  17.563  13.791
 7532W        W66793  26.119  14.198  11.874
 7533W        W66794   7.336  35.051   0.967
 7534W        W66795   1.473  35.599  10.470
 7535W        W66796  23.601  38.422  13.881
 7536W        W66797   0.297  11.293  12.040
 7537W        W66798  26.669  26.509   3.356
 7538W        W66799  15.615  44.481   1.332
 7539W        W66800  15.301  19.222  14.414
 7540W        W66801  24.137  29.971  14.879
 7541W        W66802  10.656   6.721  12.504
 7542W        W66803  12.687  38.389  14.404
 7543W        W66804   6.743  44.382   3.838
 7544W        W66805  12.265   5.223  14.763
 7545W        W66806  38.004  33.505  10.988
 7546W        W66807  11.732   1.868   5.178
 7547W        W66808  15.770   8.873  10.541
 7548W        W66809  44.451   2.775  12.028
 7549W        W66810  29.961  32.020   4.280
 7550W        W66811   1.418  19.703   4.333
 7551W        W66812   6.184  40.457   2.756
 7552W        W66813  29.059  23.221  11.058
 7553W        W66814  10.640  14.184  13.023
 7554W        W66815  14.242  12.790   2.255
 7555W        W66816  33.514  16.745   4.287
 7556W        W66817  41.907  41.921  10.418
 7557W        W66818   0.322  44.867  11.063
 7558W        W66819  34.371  12.822   4.605
 7559W        W66820   6.264  23.580  13.030
 7560W        W66821  23.999  24.644   4.314
 7561W        W66822  25.067   2.773   4.119
 7562W        W66823  35.015   0.864  10.036
 7563W        W66824  40.547  13.238   0.410
 7564W        W66825   5.264  29.077   2.872
 7565W        W66826   9.302   2.310  12.562
 7566W        W66827  26.116  18.645  12.076
 7567W        W66828  14.780  29.572  13.313
 7568W        W66829  29.047  17.763  14.492
 7569W        W66830  41.994  21.592  10.442
 7570W        W66831  13.750   8.200  13.367
 7571W        W66832   0.864  32.951   0.799
 7572W        W66833  44.977  39.935  12.924
 7573W        W66834  26.136   9.347  13.430
 7574W        W66835  24.567  19.131   1.897
 7575W        W66836  11.782  16.644  12.973
 7576W        W66837  36.950  28.148  11.944
 7577W        W66838  25.583   8.718   4.667
 7578W        W66839  37.383  36.466  14.279
 7579W        W66840   4.876  39.384   4.802
 7580W        W66841  42.779  39.991   1.868
 7581W        W66842  19.667   9.706  14.866
 7582W        W66843  34.896  25.142  11.114
 7583W        W66844  20.112  13.197   0.928
 7584W        W66845   5.853  34.560  13.501
 7585W        W66846  24.480  15.183   2.811
 7586W        W66847   3.391  41.487   0.366
 7587W        W66848  22.030  34.908   0.322
 7588W        W66849  15.581  41.844   5.180
 7589W        W66850   7.387   8.893  12.498
 7590W        W66851  13.348  33.389   3.787
 7591W        W66852   4.324  35.928   4.754
 7592W        W66853  26.548   0.305   0.331
 7593W        W66854   3.284  33.070  14.772
 7594W        W66855  12.342  30.623  13.949
 7595W        W66856  24.044   4.344   2.888
 7596W        W66857  27.612  17.745   3.670
 7597W        W66858   3.358  10.214  13.880
 7598W        W66859  17.787  19.050  12.015
 7599W        W66860  28.185  26.635  14.845
 7600W        W66861  24.106   4.910  12.891
 7601W        W66862  15.292  36.470   3.673
 7602W        W66863  18.647  43.314   0.445
 7603W        W66864   4.803  11.665   0.734
 7604W        W66865  14.752   4.235   4.722
 7605W        W66866   0.920   5.310   3.839
 7606W        W66867  40.354  17.294  11.544
 7607W        W66868  25.553  22.621  12.575
 7608W        W66869   3.225  27.552   0.885
 7609W        W66870  14.785  38.521  11.108
 7610W        W66871  11.778  40.372   3.632
 7611W        W66872  27.171   6.748  11.483
 7612W        W66873  13.313  34.477  14.828
 7613W        W66874  34.565   9.251  14.829
 7614W        W66875  39.366   7.383  12.555
 7615W        W66876  44.465  17.565  11.006
 7616W        W66877  31.960  33.502   4.633
 7617W        W66878  28.172  32.013   5.109
 7618W        W66879  23.552   0.857   0.378
 7619W        W66880  14.658  33.490  12.827
 7620W        W66881  25.184  37.471   3.382
 7621W        W66882  37.038  28.455  12.083
 7622W        W66883  41.332  37.088   0.739
 7623W        W66884  40.494  33.900   4.617
 7624W        W66885  32.010  31.580  10.431
 7625W        W66886  22.503  23.990  14.298
 7626W        W66887  33.600  17.774   2.319
 7627W        W66888  31.941  18.191   4.247
 7628W        W66889  28.956  37.036  13.340
 7629W        W66890  43.305   0.940  14.361
 7630W        W66891  34.886   0.385  12.356
 7631W        W66892  16.663  29.573   1.284
 7632W        W66893  24.609   2.321  12.482
 7633W        W66894  35.898  44.342  14.766
 7634W        W66895  31.459   1.923  13.815
 7635W        W66896  14.610  35.442   3.219
 7636W        W66897  31.040  31.973  14.515
 7637W        W66898   5.252  35.008   4.599
 7638W        W66899  23.000  33.571  10.526
 7639W        W66900  28.658  26.955   0.909
 7640W        W66901  31.487   3.876   4.627
 7641W        W66902  31.530  31.476   1.885
 7642W        W66903  34.513  34.407   0.474
 7643W        W66904  39.902  35.434  11.919
 7644W        W66905  40.533   7.371   1.310
 7645W        W66906  27.030  42.029  14.384
 7646W        W66907  41.814  19.738   0.323
 7647W        W66908  20.206   8.161   1.392
 7648W        W66909  27.014  34.999  11.518
 7649W        W66910  21.263  24.009   2.412
 7650W        W66911  19.217   5.388  10.511
 7651W        W66912   2.290  33.600   2.270
 7652W        W66913   9.303  43.949   4.836
 7653W        W66914   7.339  13.811  10.545
 7654W        W66915  20.654   5.292  13.028
 7655W        W66916  36.064   8.253  12.381
 7656W        W66917   6.362  37.863   2.695
 7657W        W66918   5.426  26.498   0.934
 7658W        W66919  41.878  27.044  10.974
 7659W        W66920   1.360  37.398   2.193
 7660W        W66921   2.829   9.692  10.954
 7661W        W66922   9.190  37.385   2.867
 7662W        W66923  10.235  33.485   2.201
 7663W        W66924   1.443  26.617  13.964
 7664W        W66925  33.945  44.762   9.922
 7665W        W66926  23.004   2.874   3.644
 7666W        W66927  40.881  42.936  13.480
 7667W        W66928   9.298  23.064  14.478
 7668W        W66929  42.893  26.505  10.915
 7669W        W66930  29.489  17.720  10.427
 7670W        W66931   4.270  41.815   4.775
 7671W        W66932  42.896  19.572   2.332
 7672W        W66933   9.379  39.001  11.992
 7673W        W66934  19.570   3.215  11.083
 7674W        W66935  17.093  22.634   1.270
 7675W        W66936   8.879   3.243   1.337
 7676W        W66937  34.909   2.823  12.848
 7677W        W66938  26.146  19.574  12.448
 7678W        W66939  16.105  39.972   5.180
 7679W        W66940  28.452  28.457  12.578
 7680W        W66941  41.935  13.633  11.516
 7681W        W66942  15.624  23.016   3.731
 7682W        W66943  12.171  12.361  11.107
 7683W        W66944  35.563  20.725   1.251
 7684W        W66945   1.908  25.027   1.277
 7685W        W66946  14.643  27.452  13.004
 7686W        W66947  40.856  27.092  13.341
 7687W        W66948   1.422  43.321  13.851
 7688W        W66949  14.189  37.529   0.251
 7689W        W66950  22.733  23.230  14.893
 7690W        W66951   6.852  26.546  10.616
 7691W        W66952   1.317  24.022  12.002
 7692W        W66953  22.132  29.941  14.479
 7693W        W66954  15.653  15.784   4.809
 7694W        W66955  15.744  39.320  13.458
 7695W        W66956  40.870   3.757   2.180
 7696W        W66957  30.499   0.369  14.916
 7697W        W66958  26.018  22.608   0.335
 7698W        W66959  33.557  12.203  12.483
 7699W        W66960   7.685  39.016   2.849
 7700W        W66961  13.787   2.909   1.903
 7701W        W66962   2.353   1.393  12.866
 7702W        W66963  11.329  36.456   1.700
 7703W        W66964   1.815  25.487   0.907
 7704W        W66965  17.768   9.298  13.543
 7705W        W66966   0.341  21.200   3.353
 7706W        W66967  17.751  11.636   2.773
 7707W        W66968   8.787  23.003  12.540
 7708W        W66969   5.905   1.357  14.452
 7709W        W66970  30.060  16.194   0.366
 7710W        W66971  24.995  22.082  14.280
 7711W        W66972  44.389   6.287   0.404
 7712W        W66973  23.231  22.708   0.460
 7713W        W66974  42.886  17.078   1.422
 7714W        W66975  34.047  36.590   9.622
 7715W        W66976  13.274  20.624  11.003
 7716W        W66977  29.959   6.686   4.718
 7717W        W66978  40.517   7.865  11.035
 7718W        W66979  34.884  10.661  10.894
 7719W        W66980   6.872  32.418   3.247
 7720W        W66981  34.564  33.022  13.501
 7721W        W66982  36.879  15.729  11.408
 7722W        W66983  27.187   3.769   0.426
 7723W        W66984  30.068   6.686  11.552
 7724W        W66985  21.624  34.892   4.767
 7725W        W66986  36.888  35.599  12.363
 7726W        W66987  30.654   9.387   3.229
 7727W        W66988  27.458  27.106  10.526
 7728W        W66989  17.560  14.678   4.220
 7729W        W66990  39.452   3.295   2.211
 7730W        W66991  15.604   3.759  13.411
 7731W        W66992   7.693  35.038   3.698
 7732W        W66993  30.107  32.143  10.594
 7733W        W66994  19.172   4.423  11.372
 7734W        W66995   9.717  26.132   3.151
 7735W        W66996  20.537  43.840  13.924
 7736W        W66997  36.522  26.077   4.233
 7737W        W66998  12.203   4.871  12.503
 7738W        W66999  20.161  11.701   1.880
 7739W        W67000  36.873  30.013  11.468
 7740W        W67001  41.384   7.185   3.293
 7741W        W67002   7.172   3.277   3.172
 7742W        W67003  10.247  44.308   2.837
 7743W        W67004  44.989  31.945  11.560
 7744W        W67005   8.370   6.308   5.220
 7745W        W67006  36.975  17.167  11.883
 7746W        W67007  40.316  35.091   2.748
 7747W        W67008  26.954  14.768   0.453
 7748W        W67009  31.904  25.169  14.878
 7749W        W67010  26.085   4.438   3.687
 7750W        W67011  17.207   4.762   1.899
 7751W        W67012   4.225   6.330  12.886
 7752W        W67013   5.743  34.414   1.435
 7753W        W67014  33.587   8.211   0.849
 7754W        W67015  22.594  40.927   1.718
 7755W        W67016  17.299  42.960  10.406
 7756W        W67017   2.241   2.825   3.798
 7757W        W67018  12.283   1.467  12.833
 7758W        W67019  41.307   5.743  13.852
 7759W        W67020   1.903  17.725   1.879
 7760W        W67021  16.252  17.630   0.242
 7761W        W67022  33.539   4.347  11.027
 7762W        W67023  28.153  40.002   0.880
 7763W        W67024   6.886   8.337   2.277
 7764W        W67025  34.425   1.877   0.439
 7765W        W67026  18.076   4.361  11.977
 7766W        W67027  15.612   2.757  12.523
 7767W        W67028  14.297   3.278   3.194
 7768W        W67029   5.266   6.902  13.955
 7769W        W67030   6.250  21.188   1.398
 7770W        W67031  33.445  30.508   3.684
 7771W        W67032  43.412  25.012   4.188
 7772W        W67033  26.472   1.245  14.807
 7773W        W67034  43.957  23.653   1.399
 7774W        W67035  23.049  19.640   4.188
 7775W        W67036  30.656   8.169  13.489
 7776W        W67037  36.563  20.168   4.269
 7777W        W67038  23.096  10.377  14.329
 7778W        W67039  19.591  12.614   3.345
 7779W        W67040  15.594  33.571  11.096
 7780W        W67041   3.846   5.279   3.298
 7781W        W67042   3.822  40.884  13.936
 7782W        W67043   0.282   0.949   4.669
 7783W        W67044  11.201   2.881  13.517
 7784W        W67045  36.046  29.536   2.669
 7785W        W67046  22.071  15.244   0.362
 7786W        W67047  14.236  17.248  13.322
 7787W        W67048  44.331  43.392   0.942
 7788W        W67049  37.526  25.590  11.080
 7789W        W67050  43.341   6.297  11.119
 7790W        W67051  34.984  24.093   3.306
 7791W        W67052  41.980  40.862   3.792
 7792W        W67053  10.297  11.172   4.340
 7793W        W67054   6.328  24.138   2.398
 7794W        W67055  10.355  15.803   0.850
 7795W        W67056  37.357   8.682   3.190
 7796W        W67057  30.433   6.707   1.758
 7797W        W67058  26.669  19.124   3.717
 7798W        W67059  18.065  32.110   5.178
 7799W        W67060  15.261  30.130   0.903
 7800W        W67061  14.120  17.661   3.163
 7801W        W67062  19.167  38.051   1.871
 7802W        W67063  26.606   5.722   0.314
 7803W        W67064  41.807  37.014  12.513
 7804W        W67065  23.054  17.723  13.858
 7805W        W67066  35.109  15.770  12.901
 7806W        W67067  16.125  32.908   1.921
 7807W        W67068  20.575  43.489   1.821
 7808W        W67069  39.809  22.650   2.723
 7809W        W67070  19.778  27.021  14.930
 7810W        W67071  28.957  15.641  14.904
 7811W        W67072  32.401  22.742   0.933
 7812W        W67073  39.407  17.200   3.691
 7813W        W67074  35.438  44.455  13.373
 7814W        W67075  21.171  39.873   0.366
 7815W        W67076   4.867  44.786  12.957
 7816W        W67077  27.473  22.243  11.407
 7817W        W67078  25.489  30.923   4.651
 7818W        W67079   5.415  36.090   2.394
 7819W        W67080  16.159  24.206   1.768
 7820W        W67081  12.256   0.746  14.993
 7821W        W67082  17.119   0.475   9.959
 7822W        W67083  39.042  36.510  12.979
 7823W        W67084  27.061  30.053  10.891
 7824W        W67085  16.801  42.843  14.941
 7825W        W67086  10.635  29.968  14.323
 7826W        W67087  43.880   1.807  11.879
 7827W        W67088  38.530  18.550   3.267
 7828W        W67089  43.488  26.005  11.925
 7829W        W67090  23.157   6.229  11.879
 7830W        W67091  28.497  30.945  11.879
 7831W        W67092  33.968  41.494  10.557
 7832W        W67093  42.350  44.448   3.166
 7833W        W67094  17.095  18.171  13.968
 7834W        W67095   8.371   9.787   3.699
 7835W        W67096  20.123   7.852   0.308
 7836W        W67097  28.148  43.867   2.312
 7837W        W67098  11.224   0.864  12.896
 7838W        W67099   1.437  13.685   0.796
 7839W        W67100  36.417  42.458   2.791
 7840W        W67101   4.405  29.590   0.294
 7841W        W67102  25.033  42.951  12.366
 7842W        W67103  30.029  39.333  12.921
 7843W        W67104   6.253   6.894  14.297
 7844W        W67105  41.520   5.874   2.789
 7845W        W67106  31.458  24.067   2.671
 7846W        W67107  43.356  11.266  11.444
 7847W        W67108  26.535  33.941  12.008
 7848W        W67109  13.294   0.883   4.185
 7849W        W67110  14.759  30.606   1.844
 7850W        W67111  22.555  23.006  13.994
 7851W        W67112  13.234  13.186   2.821
 7852W        W67113  23.724  20.537  12.953
 7853W        W67114  26.639  24.485   3.864
 7854W        W67115  16.234  11.771   0.319
 7855W        W67116  31.428   7.302  13.311
 7856W        W67117  31.613  33.131  12.494
 7857W        W67118   2.385  41.910   1.836
 7858W        W67119  16.205  18.625  10.957
 7859W        W67120  14.123   6.348  13.390
 7860W        W67121  42.498  37.872   3.797
 7861W        W67122  10.209  16.174   1.377
 7862W        W67123  21.584   1.819  14.822
 7863W        W67124  37.834   1.889   0.315
 7864W        W67125  43.845  35.938   4.212
 7865W        W67126  43.441  23.648  10.917
 7866W        W67127   9.648   4.845  10.481
 7867W        W67128  29.638  22.071   0.791
 7868W        W67129  11.175  17.786   0.756
 7869W        W67130  43.879  27.178  13.406
 7870W        W67131  25.974  17.615  13.871
 7871W        W67132  17.174  12.194   3.368
 7872W        W67133  44.769   4.834  14.306
 7873W        W67134   5.902  35.499   4.330
 7874W        W67135   6.703  14.271  14.009
 7875W        W67136  43.322  10.665   0.808
 7876W        W67137   3.819  13.240  11.447
 7877W        W67138  43.296  37.008   0.961
 7878W        W67139  35.401  12.612   3.815
 7879W        W67140   4.281   5.230  11.093
 7880W        W67141  10.342  29.997  10.570
 7881W        W67142  34.020  17.179  11.493
 7882W        W67143  36.093   5.196   2.352
 7883W        W67144  15.672  38.968   1.801
 7884W        W67145  15.206  16.104  13.394
 7885W        W67146  24.166  22.186   1.855
 7886W        W67147   9.329  43.456  13.809
 7887W        W67148   6.292  26.475  14.892
 7888W        W67149  37.900  33.112   4.207
 7889W        W67150   2.428  43.960  12.370
 7890W        W67151  40.958  14.613  14.337
 7891W        W67152  23.647  17.793  11.534
 7892W        W67153  29.166  10.202   2.272
 7893W        W67154  37.349  22.118  14.778
 7894W        W67155  31.099  22.521   1.292
 7895W        W67156   6.222  28.999  11.402
 7896W        W67157  26.072  17.230   0.420
 7897W        W67158  20.689  39.045   4.269
 7898W        W67159  24.074  30.645   3.370
 7899W        W67160  21.688  23.192   4.354
 7900W        W67161  34.029   6.187   3.803
 7901W        W67162  41.425  31.039   1.393
 7902W        W67163  14.610  38.387   3.657
 7903W        W67164  25.219   7.903   1.374
 7904W        W67165  38.481  18.694   2.839
 7905W        W67166  24.210  34.034   2.246
 7906W        W67167   7.240  25.159  12.005
 7907W        W67168   9.886  18.741  14.955
 7908W        W67169  33.406  20.542   1.828
 7909W        W67170  11.211   5.307  11.416
 7910W        W67171   1.760  34.039  10.482
 7911W        W67172   0.875  25.668   4.257
 7912W        W67173  39.900  19.157  13.846
 7913W        W67174  22.161  21.205   2.743
 7914W        W67175   1.762  23.176  14.803
 7915W        W67176  41.376  28.477   2.725
 7916W        W67177  42.409  30.090   3.380
 7917W        W67178  36.036  36.085  14.348
 7918W        W67179   2.341  42.840   3.195
 7919W        W67180  37.073  25.097   3.215
 7920W        W67181  18.192   7.691   3.679
 7921W        W67182  38.435  36.950   0.352
 7922W        W67183   4.890   5.845  12.540
 7923W        W67184   0.806  32.082   0.465
 7924W        W67185  23.005  37.355   4.156
 7925W        W67186   3.825  36.453   0.267
 7926W        W67187   9.225   8.349   3.708
 7927W        W67188  40.826  33.107   4.137
 7928W        W67189  40.524  38.017   0.810
 7929W        W67190  14.634   7.416   1.713
 7930W        W67191  14.141  10.642  14.469
 7931W        W67192  26.677  28.061   0.913
 7932W        W67193  25.056  14.833   4.343
 7933W        W67194  26.637  36.451  12.382
 7934W        W67195  22.726   4.721   3.347
 7935W        W67196  37.480  15.699  12.454
 7936W        W67197  11.207  21.734  14.775
 7937W        W67198   6.874  43.902   2.793
 7938W        W67199  11.293  21.197   4.762
 7939W        W67200  27.018  22.249  11.497
 7940W        W67201  19.689   7.253  13.365
 7941W        W67202  35.379  40.502   5.286
 7942W        W67203  23.018  13.761  11.984
 7943W        W67204  42.490  24.098  13.052
 7944W        W67205  40.992   1.476   3.364
 7945W        W67206   7.216  26.208  11.927
 7946W        W67207   9.318   2.418   1.862
 7947W        W67208   1.299   0.485   0.440
 7948W        W67209   9.316  27.574   0.308
 7949W        W67210   2.265  39.916   3.838
 7950W        W67211  41.292  18.750  13.934
 7951W        W67212   0.828  13.218  13.498
 7952W        W67213  12.780  28.032  11.471
 7953W        W67214  30.995  19.745  14.022
 7954W        W67215  19.694  34.450  12.451
 7955W        W67216  18.222  41.328   0.433
 7956W        W67217  43.379  21.549   0.265
 7957W        W67218   0.862  35.074   2.780
 7958W        W67219  25.566  18.659  11.965
 7959W        W67220  36.521  34.928  13.825
 7960W        W67221  39.387   6.706  11.451
 7961W        W67222  15.795  42.836  13.351
 7962W        W67223  31.133  30.627   4.788
 7963W        W67224   2.469   5.373  10.527
 7964W        W67225  18.161  41.402   3.289
 7965W        W67226  37.530  31.625   3.686
 7966W        W67227  11.218  11.306   4.731
 7967W        W67228   8.732  15.646   0.452
 7968W        W67229   0.314  23.092  10.894
 7969W        W67230  16.812  32.056  14.388
 7970W        W67231  32.003  25.581   4.669
 7971W        W67232  15.742   3.717  11.096
 7972W        W67233  11.750  43.017   3.752
 7973W        W67234  32.590  31.907  13.367
 7974W        W67235  40.950  36.551  14.516
 7975W        W67236  30.065  11.736  14.422
 7976W        W67237   8.857  10.734  13.421
 7977W        W67238  21.152  10.336  14.284
 7978W        W67239  30.430  44.945   0.480
 7979W        W67240   7.196  11.263  11.919
 7980W        W67241   8.351  10.272   2.793
 7981W        W67242  36.992  41.482  12.864
 7982W        W67243  35.089  35.030   1.865
 7983W        W67244   1.337  19.066  12.934
 7984W        W67245  20.258  29.514  11.447
 7985W        W67246   4.214   3.853   3.699
 7986W        W67247  12.203   6.810   2.717
 7987W        W67248  24.026  44.318  10.909
 7988W        W67249  19.658   0.252   4.162
 7989W        W67250   1.916  34.894  14.381
 7990W        W67251   0.326  17.740   0.424
 7991W        W67252   4.222  19.175   1.250
 7992W        W67253  36.395  18.234   1.225
 7993W        W67254   0.962   1.350   4.289
 7994W        W67255   7.832   8.264   1.413
 7995W        W67256  39.939  31.597  10.973
 7996W        W67257  38.959  26.019  10.567
 7997W        W67258  15.691  41.844   1.908
 7998W        W67259  43.451  25.211   2.696
 7999W        W67260   6.229  30.418   3.182
 8000W        W67261  20.746  44.884  12.922
 8001W        W67262  37.028   1.863  10.999
 8002W        W67263  19.776  18.215  14.362
 8003W        W67264  38.072   5.884   2.295
 8004W        W67265  19.224   2.380  12.833
 8005W        W67266  27.019  19.117  14.827
 8006W        W67267   1.827   2.831  11.859
 8007W        W67268  21.136  38.451  14.466
 8008W        W67269  23.233  30.552   3.858
 8009W        W67270  10.725  36.954   4.669
 8010W        W67271  29.077  44.916   3.302
 8011W        W67272  14.315  23.208  10.452
 8012W        W67273   6.226  39.857   1.305
 8013W        W67274  40.321  10.701   4.680
 8014W        W67275  12.671   5.369   3.227
 8015W        W67276   7.705  21.725   4.314
 8016W        W67277   8.762  44.838   3.818
 8017W        W67278  30.471   7.743  13.000
 8018W        W67279  40.322  13.705   3.781
 8019W        W67280  34.109  26.686  14.486
 8020W        W67281  18.628   6.787   2.364
 8021W        W67282  31.496  42.969   2.694
 8022W        W67283   3.398  36.512   4.338
 8023W        W67284   3.912  27.135  13.896
 8024W        W67285  24.494  35.966   4.832
 8025W        W67286  26.149   0.258   1.914
 8026W        W67287  32.910  12.182  10.508
 8027W        W67288  13.248   0.865  12.853
 8028W        W67289  15.647   6.270  11.473
 8029W        W67290  27.941  33.043   1.432
 8030W        W67291  36.415   7.325   2.664
 8031W        W67292  32.423  37.937  11.389
 8032W        W67293  10.312  18.602   1.292
 8033W        W67294  26.590  14.255  14.024
 8034W        W67295   8.271  33.005  13.380
 8035W        W67296   1.471   9.289  10.617
 8036W        W67297  32.571   0.968  10.060
 8037W        W67298  19.777   2.866   1.364
 8038W        W67299  19.282  27.016   0.833
 8039W        W67300  14.123  42.026   4.177
 8040W        W67301  15.305  28.009  14.424
 8041W        W67302   7.332  23.132   4.242
 8042W        W67303  44.764   6.879  13.895
 8043W        W67304  23.507   4.264   0.452
 8044W        W67305  31.937  16.693   2.382
 8045W        W67306  12.232  31.958   4.302
 8046W        W67307  21.176   9.370  10.644
 8047W        W67308  29.002  22.130   1.874
 8048W        W67309  18.200  30.975   1.441
 8049W        W67310  24.974  21.206  14.286
 8050W        W67311   6.256  28.467   1.724
 8051W        W67312  30.629  40.983   4.263
 8052W        W67313  23.621  42.473  13.339
 8053W        W67314  12.314   6.854  10.602
 8054W        W67315  12.269  36.397  10.627
 8055W        W67316   9.655  18.720  12.535
 8056W        W67317  35.934  25.681  11.122
 8057W        W67318  41.351  28.117  12.918
 8058W        W67319  27.506  36.488  12.938
 8059W        W67320  28.528  43.458   3.225
 8060W        W67321  30.612  42.512  14.769
 8061W        W67322   5.744  27.169  12.862
 8062W        W67323  18.710   7.740   0.332
 8063W        W67324   0.437  10.787   4.295
 8064W        W67325  23.088  28.025  13.793
 8065W        W67326  24.130  29.962  11.400
 8066W        W67327  27.018  17.665   1.699
 8067W        W67328  12.638   4.721   1.871
 8068W        W67329  24.628  44.948   1.450
 8069W        W67330  17.629  19.123   3.384
 8070W        W67331  25.966  39.413   4.708
 8071W        W67332   3.922  16.265  14.325
 8072W        W67333  13.268   0.742  11.099
 8073W        W67334  32.014  44.817   2.721
 8074W        W67335  32.142   6.787  14.473
 8075W        W67336  21.163   5.787   4.136
 8076W        W67337  42.419  22.626   1.267
 8077W        W67338  12.653  42.812   0.409
 8078W        W67339  26.172  35.433   4.330
 8079W        W67340   2.436   7.670   2.245
 8080W        W67341  30.486  21.098  11.539
 8081W        W67342  38.058  27.946  14.469
 8082W        W67343  15.295  14.770   3.271
 8083W        W67344   2.340  14.175  10.529
 8084W        W67345  39.902  43.400  10.644
 8085W        W67346   9.284  28.448  10.486
 8086W        W67347  23.734  41.503  14.415
 8087W        W67348  15.137  42.954  14.300
 8088W        W67349  36.389  13.189  12.497
 8089W        W67350   3.430   5.895  14.823
 8090W        W67351   3.884  32.987   3.166
 8091W        W67352  42.503  11.636   1.819
 8092W        W67353  26.554   3.398  14.032
 8093W        W67354  38.008   2.394   1.302
 8094W        W67355  20.575  14.218   1.397
 8095W        W67356  22.108  28.515  13.427
 8096W        W67357  42.979  33.604  12.016
 8097W        W67358  22.589  16.091  13.006
 8098W        W67359   7.371  40.408  14.290
 8099W        W67360  25.988  22.201  10.527
 8100W        W67361  44.885  39.472  11.033
 8101W        W67362  37.481   3.809   0.323
 8102W        W67363   4.853  19.159   4.715
 8103W        W67364  16.727   8.286   1.769
 8104W        W67365   6.888  44.468   4.291
 8105W        W67366  34.414  30.453  12.988
 8106W        W67367  20.113  17.153  13.439
 8107W        W67368   4.286   9.726   1.382
 8108W        W67369  24.104   5.325  13.059
 8109W        W67370   4.260  10.160   0.850
 8110W        W67371  11.664  37.033   4.264
 8111W        W67372   2.452  24.046  10.413
 8112W        W67373   7.762  40.814   1.327
 8113W        W67374  41.811   2.852   4.167
 8114W        W67375  41.928  10.803  10.978
 8115W        W67376   5.732  17.303  12.994
 8116W        W67377  24.014  43.328   0.399
 8117W        W67378  22.538  16.654  14.392
 8118W        W67379  30.430  14.133  13.535
 8119W        W67380  14.141   1.824  13.888
 8120W        W67381  44.935  42.455  10.973
 8121W        W67382   4.272   4.752  14.849
 8122W        W67383  21.701  29.965  14.447
 8123W        W67384   6.302  35.081   3.270
 8124W        W67385   1.371  13.284  14.387
 8125W        W67386  24.497   4.743  10.966
 8126W        W67387   7.407  42.958   3.817
 8127W        W67388  37.022  40.958  12.396
 8128W        W67389  32.932  25.151  14.940
 8129W        W67390  44.947   5.712   1.311
 8130W        W67391   6.780   5.695  14.772
 8131W        W67392   9.756  12.809  11.043
 8132W        W67393  26.536  10.343   1.365
 8133W        W67394  28.051  43.414   2.276
 8134W        W67395  23.001  37.976  13.338
 8135W        W67396  17.192  36.399   0.894
 8136W        W67397  10.844  28.651  13.342
 8137W        W67398  16.711  32.434   3.376
 8138W        W67399  11.277  27.668   1.251
 8139W        W67400   1.773  30.118  11.036
 8140W        W67401  18.143   1.463   3.252
 8141W        W67402  16.091   6.702   2.372
 8142W        W67403  27.126  39.442   4.264
 8143W        W67404  32.974  38.477   2.182
 8144W        W67405   7.827   6.721  14.947
 8145W        W67406  25.145  25.972  10.432
 8146W        W67407  25.095  25.984   0.383
 8147W        W67408   3.250  24.680   4.714
 8148W        W67409  28.060  35.030  12.911
 8149W        W67410  34.979  41.427  13.796
 8150W        W67411  22.698  10.851   1.246
 8151W        W67412  29.625   4.830   0.781
 8152W        W67413  20.050   1.957  14.793
 8153W        W67414  42.984   5.413   2.414
 8154W        W67415  18.565   0.865  10.887
 8155W        W67416  15.328  15.186   2.674
 8156W        W67417   9.764  15.782  11.600
 8157W        W67418  37.561  13.629   0.267
 8158W        W67419  17.694   7.346  14.433
 8159W        W67420   7.353   0.948   0.741
 8160W        W67421   7.183  11.338  11.000
 8161W        W67422  35.869  37.903  11.112
 8162W        W67423  21.097   5.315   1.308
 8163W        W67424   4.786  12.833  10.534
 8164W        W67425  11.644  12.855  14.002
 8165W        W67426  24.571  31.934   2.305
 8166W        W67427  33.517  29.967  12.576
 8167W        W67428  16.748   9.150   2.365
 8168W        W67429  23.725  40.320   3.256
 8169W        W67430   3.728  41.910  12.430
 8170W        W67431  33.610  35.903  12.086
 8171W        W67432   3.802  22.635   2.668
 8172W        W67433  29.995  43.440  10.413
 8173W        W67434  15.722   9.208   5.121
 8174W        W67435  26.019  29.168  12.036
 8175W        W67436  42.434   7.868  12.423
 8176W        W67437   1.436  16.637  10.940
 8177W        W67438  20.186  29.503  14.004
 8178W        W67439   6.182  26.482  10.541
 8179W        W67440  11.849  18.591   0.469
 8180W        W67441   3.934  39.462  13.820
 8181W        W67442  16.233  39.028   3.313
 8182W        W67443  15.157  27.007  14.963
 8183W        W67444  38.997  17.163   1.320
 8184W        W67445  11.164  32.040   2.670
 8185W        W67446  42.492  35.597  12.874
 8186W        W67447  38.417  31.059  14.759
 8187W        W67448  24.684  33.965  11.068
 8188W        W67449  13.756   4.312   2.304
 8189W        W67450  33.531  27.684   4.312
 8190W        W67451  14.216  22.547  11.916
 8191W        W67452  39.357  31.901  10.985
 8192W        W67453  10.255  44.955  11.961
 8193W        W67454  12.294  41.318  10.469
 8194W        W67455  44.262   7.251   4.233
 8195W        W67456  15.199  24.973   0.828
 8196W        W67457  41.867   2.426  14.369
 8197W        W67458  16.142   9.261   1.342
 8198W        W67459  35.081  22.127  14.798
 8199W        W67460  38.918   7.176  14.366
 8200W        W67461  27.974  26.189   2.805
 8201W        W67462  34.100  16.161  10.644
 8202W        W67463  18.564   7.399  14.435
 8203W        W67464  24.583  29.478   3.165
 8204W        W67465   1.467  38.383  14.440
 8205W        W67466  33.930   3.238  12.503
 8206W        W67467  40.879  27.550  11.075
 8207W        W67468  23.608  27.500  10.113
 8208W        W67469  23.585   1.316   1.338
 8209W        W67470  25.562   2.246   1.342
 8210W        W67471  41.384  19.081   3.260
 8211W        W67472  32.614  32.539   1.432
 8212W        W67473  36.446  26.474  13.429
 8213W        W67474  24.230  21.046   2.668
 8214W        W67475  13.344   2.300  12.539
 8215W        W67476  36.390   5.886  13.935
 8216W        W67477   4.319   4.279   0.940
 8217W        W67478   5.843  10.369   1.398
 8218W        W67479  43.887  40.979  14.375
 8219W        W67480  22.623   0.278  13.974
 8220W        W67481   5.849  18.633  12.941
 8221W        W67482   9.882   0.277   3.822
 8222W        W67483   8.752   0.819  11.439
 8223W        W67484  22.707  15.088  13.059
 8224W        W67485  41.376   9.333  12.535
 8225W        W67486   9.392  44.910   3.348
 8226W        W67487  30.984  22.650   9.967
 8227W        W67488   2.864   2.783  11.926
 8228W        W67489  26.053  16.650  11.881
 8229W        W67490  23.512  21.687   1.292
 8230W        W67491  30.053  26.572   3.374
 8231W        W67492  32.629  37.399  14.844
 8232W        W67493   7.825   3.413   2.179
 8233W        W67494  11.770   4.413   2.880
 8234W        W67495   2.832  11.783  11.910
 8235W        W67496  15.213  38.008  14.351
 8236W        W67497  16.648   2.873  10.052
 8237W        W67498  29.599   7.378  11.609
 8238W        W67499   4.906  39.824   4.635
 8239W        W67500   0.985  43.322  14.467
 8240W        W67501   9.859  10.667  11.507
 8241W        W67502  31.496  23.124   4.654
 8242W        W67503   0.795  24.635  13.436
 8243W        W67504  32.076   8.313   4.322
 8244W        W67505  12.732  17.773  13.455
 8245W        W67506   6.830  14.737   1.724
 8246W        W67507  37.047  25.517  13.406
 8247W        W67508  19.110  36.413   1.309
 8248W        W67509   6.289  26.608   0.968
 8249W        W67510  43.457  43.840  13.487
 8250W        W67511  33.497  17.591  10.911
 8251W        W67512   8.299  23.223  10.458
 8252W        W67513  32.001  15.319   4.693
 8253W        W67514  42.022  41.868   2.214
 8254W        W67515  19.040  37.428   5.236
 8255W        W67516  38.558   1.313   0.803
 8256W        W67517  11.799  44.263  12.070
 8257W        W67518   6.721   3.391  12.400
 8258W        W67519  23.178  15.783   4.748
 8259W        W67520  33.520  13.161  12.542
 8260W        W67521  36.562  44.949  12.445
 8261W        W67522  37.988  26.157  14.875
 8262W        W67523  15.734  11.715   0.463
 8263W        W67524  10.358  25.037  10.125
 8264W        W67525   4.829  43.403  13.352
 8265W        W67526  29.087  44.988  13.011
 8266W        W67527  38.521  13.168  12.876
 8267W        W67528  37.874  24.223   3.303
 8268W        W67529  20.525  16.729  11.510
 8269W        W67530  11.820   1.313   4.216
 8270W        W67531   2.404   5.399  12.441
 8271W        W67532   8.726  24.187  13.439
 8272W        W67533  36.378   6.259  13.468
 8273W        W67534  40.303  28.049   4.624
 8274W        W67535   7.197  25.601  12.866
 8275W        W67536  17.762  42.943  11.381
 8276W        W67537  15.324   2.935   1.261
 8277W        W67538   8.325  17.752   0.390
 8278W        W67539  38.938  11.751   0.922
 8279W        W67540  18.553  34.417  13.481
 8280W        W67541  21.045   7.723  10.960
 8281W        W67542  19.247  26.188  12.923
 8282W        W67543   8.183  13.274  11.874
 8283W        W67544  12.687  26.650  14.877
 8284W        W67545   9.254  44.969  10.523
 8285W        W67546  32.468   6.305   4.703
 8286W        W67547  17.663  34.115   3.345
 8287W        W67548  33.944  16.091  11.897
 8288W        W67549  44.887   9.267  11.912
 8289W        W67550  37.027  22.117  14.958
 8290W        W67551  24.035  18.232  13.820
 8291W        W67552  26.467  30.587  11.460
 8292W        W67553  18.105  31.073  11.006
 8293W        W67554  27.065  21.604  13.364
 8294W        W67555  35.546  43.924  11.120
 8295W        W67556  22.103  32.075   2.396
 8296W        W67557   9.737  42.317  10.472
 8297W        W67558   4.944  32.901   3.210
 8298W        W67559  36.382  30.620  14.481
 8299W        W67560  19.236  42.015   3.201
 8300W        W67561  23.031  15.253   0.301
 8301W        W67562  24.077  19.701   2.338
 8302W        W67563  32.090  35.584  13.024
 8303W        W67564  24.152  39.962   5.279
 8304W        W67565   1.309  19.622  13.040
 8305W        W67566   5.279  18.635  13.888
 8306W        W67567  29.076  38.454   0.894
 8307W        W67568  12.160   8.352  12.551
 8308W        W67569   1.347  20.701   0.928
 8309W        W67570  37.478  22.611   2.697
 8310W        W67571  40.376  44.478   2.733
 8311W        W67572  23.647   3.431   1.418
 8312W        W67573   6.714  11.656  14.487
 8313W        W67574  33.946   5.706  14.013
 8314W        W67575   4.800   1.863   1.724
 8315W        W67576  31.987  21.083  12.578
 8316W        W67577  26.671  27.641   4.117
 8317W        W67578   7.879   2.446   3.250
 8318W        W67579   1.287  43.000   1.394
 8319W        W67580  18.221  17.736  10.987
 8320W        W67581  11.788  34.972   2.240
 8321W        W67582  37.846   0.885   3.773
 8322W        W67583  23.513  28.639   3.710
 8323W        W67584  29.489  24.573  11.545
 8324W        W67585   6.696  18.145  13.536
 8325W        W67586  18.626  22.605  13.854
 8326W        W67587   3.950   1.354  12.024
 8327W        W67588  15.614  12.316  14.384
 8328W        W67589  19.156  35.541  12.349
 8329W        W67590  39.547  27.947  12.925
 8330W        W67591   3.838  36.362   2.738
 8331W        W67592  21.200  26.094  14.904
 8332W        W67593  36.510  11.651  10.048
 8333W        W67594  29.134  11.804   1.874
 8334W        W67595  24.620   2.235   4.237
 8335W        W67596  15.118  10.283  14.455
 8336W        W67597  34.120  34.471   1.784
 8337W        W67598  44.410  39.911  10.612
 8338W        W67599  25.552  23.212  13.021
 8339W        W67600  36.589   5.342   4.309
 8340W        W67601  10.287  14.826   0.327
 8341W        W67602  41.997  29.012  12.400
 8342W        W67603  43.461  44.321   4.196
 8343W        W67604  26.067   7.386   4.291
 8344W        W67605   8.213  26.143   0.391
 8345W        W67606  12.211  36.061   1.321
 8346W        W67607   5.312   6.795  13.345
 8347W        W67608   5.217   9.263   1.421
 8348W        W67609  41.361  42.401   2.850
 8349W        W67610  29.458  33.936   1.324
 8350W        W67611   1.930  38.453   1.365
 8351W        W67612   8.253  14.257   3.746
 8352W        W67613   9.803  29.661  11.864
 8353W        W67614  20.180  42.492  12.421
 8354W        W67615  18.643  36.867   4.203
 8355W        W67616  34.530  38.057  14.841
 8356W        W67617   5.802  36.030   3.716
 8357W        W67618   6.182   4.741   3.161
 8358W        W67619  37.496   6.356  10.504
 8359W        W67620  12.739  23.736   4.214
 8360W        W67621  14.290  17.753  11.125
 8361W        W67622  38.931  31.613   4.353
 8362W        W67623  44.462   1.827  12.890
 8363W        W67624  30.910  41.292  10.545
 8364W        W67625  33.382  20.208   2.224
 8365W        W67626  36.012   1.272  14.309
 8366W        W67627  21.091  28.558  13.857
 8367W        W67628  35.989  42.803  13.923
 8368W        W67629  44.504  11.263  11.551
 8369W        W67630  16.257  26.199  12.468
 8370W        W67631  16.769  18.222  14.318
 8371W        W67632  18.280   8.163   1.808
 8372W        W67633  19.041  22.189   0.841
 8373W        W67634  38.978  42.466   4.128
 8374W        W67635  38.883  42.909   3.351
 8375W        W67636  38.045  44.994  12.567
 8376W        W67637   2.750  28.141  12.870
 8377W        W67638  31.032  38.347   0.270
 8378W        W67639  22.534  43.460  13.971
 8379W        W67640  14.692  21.624  13.980
 8380W        W67641  22.135  35.411   2.710
 8381W        W67642  14.098  41.836  10.918
 8382W        W67643  15.262   6.354  14.959
 8383W        W67644  24.219  15.170  12.079
 8384W        W67645  28.532  36.027   2.254
 8385W        W67646  22.681  18.628   4.307
 8386W        W67647  40.842  32.075  10.561
 8387W        W67648  25.469   4.294   1.844
 8388W        W67649  31.973   9.863  14.007
 8389W        W67650  20.691  32.404   2.311
 8390W        W67651  35.419   7.757   1.738
 8391W        W67652  26.976  21.189  14.830
 8392W        W67653  35.086  10.200  13.932
 8393W        W67654   5.690  43.504   2.351
 8394W        W67655  29.483  17.097   5.293
 8395W        W67656  23.736  28.979   1.915
 8396W        W67657  14.607  36.519  12.542
 8397W        W67658  22.194  10.865  10.409
 8398W        W67659  44.914  18.246   1.860
 8399W        W67660  31.523  27.995   4.766
 8400W        W67661  26.698  32.113   3.186
 8401W        W67662   5.384  35.871   4.315
 8402W        W67663  18.589  29.472   3.294
 8403W        W67664  39.512  31.970  13.511
 8404W        W67665  37.501  27.069  14.989
 8405W        W67666  44.806  30.482   1.814
 8406W        W67667  29.430  25.185   1.702
 8407W        W67668   8.196  38.382   4.336
 8408W        W67669  40.827  28.497  11.420
 8409W        W67670  40.849  24.101   2.182
 8410W        W67671  14.828  18.176  10.923
 8411W        W67672  32.069  37.031   3.865
 8412W        W67673  24.034  39.893  12.830
 8413W        W67674  18.735   6.342  12.563
 8414W        W67675  44.803  41.788   0.323
 8415W        W67676  41.518  31.533  13.465
 8416W        W67677  42.941  39.315   2.248
 8417W        W67678   0.275  34.406  14.345
 8418W        W67679  24.192  38.888  13.525
 8419W        W67680  41.949  23.516   4.337
 8420W        W67681  23.606  36.987  13.045
 8421W        W67682  25.997  38.966  10.947
 8422W        W67683  31.621  10.214  10.474
 8423W        W67684   4.943  33.896  13.885
 8424W        W67685  44.978  23.670   2.342
 8425W        W67686   2.776   6.383  12.825
 8426W        W67687  25.564  29.139  13.991
 8427W        W67688  11.281  44.924  14.814
 8428W        W67689  30.546   8.709  10.637
 8429W        W67690  31.511   3.769  13.482
 8430W        W67691  31.988  12.158  14.434
 8431W        W67692  41.418  31.618  12.826
 8432W        W67693  33.052  26.152   4.313
 8433W        W67694   9.321  27.000  14.888
 8434W        W67695   0.368  33.977  13.916
 8435W        W67696   1.926  37.972   3.700
 8436W        W67697   4.848  41.995  12.022
 8437W        W67698   4.243  31.503   1.747
 8438W        W67699   3.719  31.912   1.760
 8439W        W67700  43.294   7.325   1.840
 8440W        W67701  14.630  25.997  14.862
 8441W        W67702  10.249   3.736  13.315
 8442W        W67703  19.562  43.321   3.642
 8443W        W67704  15.316  31.943   3.227
 8444W        W67705  42.939  22.141   0.342
 8445W        W67706  41.989  23.031   2.380
 8446W        W67707   9.852  43.986  13.358
 8447W        W67708  12.708  43.887   0.458
 8448W        W67709  36.474  11.252  14.350
 8449W        W67710  42.818  19.039   4.186
 8450W        W67711  16.766  31.495   4.789
 8451W        W67712  26.612   4.345   0.760
 8452W        W67713   0.363  22.230   1.402
 8453W        W67714  35.364  40.407  12.426
 8454W        W67715  36.419  32.026  13.993
 8455W        W67716  26.540   3.337  11.406
 8456W        W67717  26.639  25.566  11.061
 8457W        W67718  19.775  34.947   1.221
 8458W        W67719  23.232  14.768  11.009
 8459W        W67720  41.314  31.470   2.285
 8460W        W67721  15.269  10.330   0.730
 8461W        W67722  32.600   6.885   3.292
 8462W        W67723  41.008   7.830   0.296
 8463W        W67724  42.306  11.855  11.412
 8464W        W67725  27.113  28.464   2.248
 8465W        W67726   5.700  43.829  14.016
 8466W        W67727  31.637  42.367   0.289
 8467W        W67728  35.422  30.508   4.635
 8468W        W67729  24.166  18.292   1.731
 8469W        W67730  44.277  17.062   2.778
 8470W        W67731  27.559  20.590   4.836
 8471W        W67732  42.345  32.548   2.356
 8472W        W67733  40.023  29.985  10.567
 8473W        W67734  14.669  32.545   1.236
 8474W        W67735  32.991  10.830  10.095
 8475W        W67736  38.535  21.594   3.786
 8476W        W67737  41.855  35.103   4.656
 8477W        W67738   8.254  38.944   4.794
 8478W        W67739   6.252  42.925  14.808
 8479W        W67740   3.261   0.292   0.478
 8480W        W67741   2.961  16.130  11.602
 8481W        W67742  43.426  30.079   1.805
 8482W        W67743  25.135  36.069  14.298
 8483W        W67744  36.537  12.854   1.344
 8484W        W67745  25.040   7.761  10.931
 8485W        W67746  41.414  43.911  12.520
 8486W        W67747  41.021   4.330   4.323
 8487W        W67748  10.347  38.499   1.754
 8488W        W67749  28.520  38.978  13.362
 8489W        W67750  28.556  12.250   2.277
 8490W        W67751  41.814  21.629  13.024
 8491W        W67752   6.806  25.507  11.095
 8492W        W67753  11.136  13.341  14.301
 8493W        W67754  39.515  43.320   2.757
 8494W        W67755  30.964  11.263   0.789
 8495W        W67756  24.679  33.400  12.023
 8496W        W67757  12.637  34.582   2.345
 8497W        W67758  33.606   0.910  14.959
 8498W        W67759  36.588  11.259   1.858
 8499W        W67760  30.449  29.076   0.432
 8500W        W67761  40.470   2.959  11.052
 8501W        W67762  15.816  15.212  10.907
 8502W        W67763   7.177  40.368  11.913
 8503W        W67764   5.210  21.135   3.348
 8504W        W67765  42.287  10.212  13.011
 8505W        W67766   9.178  19.058  13.843
 8506W        W67767  42.023  39.456  13.422
 8507W        W67768  33.538  32.899   3.770
 8508W        W67769   7.705  27.940   5.086
 8509W        W67770  39.485   3.873  11.476
 8510W        W67771  11.316  29.533   2.727
 8511W        W67772   8.337   6.901  14.278
 8512W        W67773  39.938  43.938   3.845
 8513W        W67774  42.993  34.390   4.200
 8514W        W67775  13.839  36.858  13.863
 8515W        W67776   0.417   2.758  10.630
 8516W        W67777  10.659  26.160   2.871
 8517W        W67778  22.197   2.772   3.165
 8518W        W67779  34.108  42.017   2.337
 8519W        W67780  27.185  28.073  14.378
 8520W        W67781   6.215  32.986   3.347
 8521W        W67782  38.928  20.054   1.401
 8522W        W67783  32.574  15.687   2.181
 8523W        W67784   2.461  17.140   2.677
 8524W        W67785  26.575   0.429   1.853
 8525W        W67786   9.808  16.314   2.225
 8526W        W67787  24.680  33.052  11.125
 8527W        W67788  30.972  22.026   0.449
 8528W        W67789  36.877  23.147   3.371
 8529W        W67790  22.691  28.019   1.334
 8530W        W67791  11.708  16.811   4.687
 8531W        W67792  36.370  44.907   0.356
 8532W        W67793  32.554  15.150   2.831
 8533W        W67794  43.004  42.932  13.833
 8534W        W67795  23.099  19.645   2.418
 8535W        W67796  29.062   0.809  11.038
 8536W        W67797  36.484  17.190   4.804
 8537W        W67798   9.783  29.603  13.360
 8538W        W67799  14.616   1.446   1.350
 8539W        W67800  31.091  10.876   2.289
 8540W        W67801   4.724  32.550  11.918
 8541W        W67802  40.047  24.128   2.845
 8542W        W67803   9.176   2.915   1.739
 8543W        W67804  31.411  32.393   1.428
 8544W        W67805  16.111  14.720   1.339
 8545W        W67806  25.118  38.045   1.914
 8546W        W67807  35.856  30.608   1.809
 8547W        W67808  33.531  29.102  11.435
 8548W        W67809   6.765  19.763  14.920
 8549W        W67810  12.842  22.673   1.747
 8550W        W67811  31.960  34.584   2.355
 8551W        W67812  16.573  22.173   2.709
 8552W        W67813  37.951  29.653  11.505
 8553W        W67814   5.202  18.634   1.311
 8554W        W67815  44.416  24.627   1.230
 8555W        W67816  15.164  23.580  11.410
 8556W        W67817   8.692  20.065  12.962
 8557W        W67818  42.912  12.732   4.135
 8558W        W67819  42.287  11.319  11.007
 8559W        W67820   3.832   1.940  14.929
 8560W        W67821  11.667  28.631  13.496
 8561W        W67822  17.789  16.610  11.975
 8562W        W67823  38.340   1.819   0.792
 8563W        W67824  24.697   9.201  11.603
 8564W        W67825   1.747  33.885   3.324
 8565W        W67826  34.532  22.119   3.675
 8566W        W67827   0.875  38.516  12.932
 8567W        W67828  31.096  12.326  13.428
 8568W        W67829  12.338  25.476   0.790
 8569W        W67830  35.461  34.379   3.636
 8570W        W67831  31.402   5.687  11.063
 8571W        W67832  11.706   5.346   4.124
 8572W        W67833  34.908  28.539   1.292
 8573W        W67834  18.071  22.163  10.521
 8574W        W67835   7.813  17.738  10.556
 8575W        W67836   3.427  25.694   4.709
 8576W        W67837   8.794   6.786   0.275
 8577W        W67838  19.204  33.448   0.451
 8578W        W67839   7.194  20.200  10.894
 8579W        W67840  12.685  23.087   0.885
 8580W        W67841  26.065  25.196   2.251
 8581W        W67842  39.549   2.766  14.884
 8582W        W67843  40.862  34.966  13.848
 8583W        W67844  22.746   4.944   1.718
 8584W        W67845  12.652  37.875   2.684
 8585W        W67846  33.405   7.715  10.625
 8586W        W67847   1.884  15.121  12.879
 8587W        W67848   0.748   5.704   2.857
 8588W        W67849  26.102   7.680  12.881
 8589W        W67850  30.081  28.668   2.773
 8590W        W67851  11.860  36.872  12.532
 8591W        W67852   8.228  34.372  14.884
 8592W        W67853   5.816  32.523  11.088
 8593W        W67854   4.284  22.505   0.377
 8594W        W67855  39.462  23.006   2.401
 8595W        W67856  44.493  26.535   2.680
 8596W        W67857   0.931  13.344  11.043
 8597W        W67858  14.340   0.812   2.206
 8598W        W67859  41.013  21.244  14.360
 8599W        W67860  43.946  44.414   0.342
 8600W        W67861  20.266  33.492   1.346
 8601W        W67862  39.882  37.883   1.799
 8602W        W67863  37.949  15.817   3.292
 8603W        W67864   3.718   4.294  14.426
 8604W        W67865   7.334   2.413  14.857
 8605W        W67866  24.191   2.727   3.868
 8606W        W67867  18.670  33.517  13.452
 8607W        W67868  28.999   2.453   1.227
 8608W        W67869  44.381  13.636  10.955
 8609W        W67870  17.250  35.406  14.446
 8610W        W67871   0.864  34.525   1.889
 8611W        W67872  42.294  36.064  12.353
 8612W        W67873  44.966   0.828   2.861
 8613W        W67874  13.820  41.845  11.985
 8614W        W67875  36.991  25.482   2.375
 8615W        W67876  28.155   8.683   1.419
 8616W        W67877  20.163  33.041  12.960
 8617W        W67878  43.349  10.679   3.841
 8618W        W67879  21.639   8.173  14.366
 8619W        W67880  21.111  20.092   2.713
 8620W        W67881  23.990  26.963   0.938
 8621W        W67882  21.562   8.886   4.756
 8622W        W67883   0.750  24.667   0.863
 8623W        W67884  36.431  18.662  12.826
 8624W        W67885  43.891   1.329  10.897
 8625W        W67886  36.927  35.980  10.914
 8626W        W67887   7.886  43.014   3.261
 8627W        W67888  26.519  41.336   3.303
 8628W        W67889  13.620  31.043   3.647
 8629W        W67890  24.581  30.608   1.231
 8630W        W67891  26.035  28.472  14.858
 8631W        W67892  16.666  27.618  13.432
 8632W        W67893   6.714  21.040  14.444
 8633W        W67894  39.384  44.865  12.952
 8634W        W67895  20.250  41.385   1.779
 8635W        W67896  36.925  29.590  11.454
 8636W        W67897  31.011  22.026  13.368
 8637W        W67898   4.844  33.938   1.727
 8638W        W67899  33.906  23.633  13.532
 8639W        W67900  34.970  23.732   5.288
 8640W        W67901  13.762  13.606   3.244
 8641W        W67902  28.072  15.808   3.178
 8642W        W67903  16.280   1.885  14.294
 8643W        W67904  32.522  24.683   2.838
 8644W        W67905  44.850  27.552  12.428
 8645W        W67906  35.433  43.930  13.345
 8646W        W67907  44.886  25.977  14.920
 8647W        W67908  37.077  28.981  13.306
 8648W        W67909   1.372  41.393  14.473
 8649W        W67910  31.910  35.545   0.330
 8650W        W67911  32.477  20.262  11.092
 8651W        W67912  14.726  20.579  14.298
 8652W        W67913  13.204  22.739   1.700
 8653W        W67914  22.234   0.360   1.282
 8654W        W67915  43.385  10.281  12.467
 8655W        W67916  42.027  22.533   0.257
 8656W        W67917  24.136  14.810  11.378
 8657W        W67918   0.923   7.342   5.161
 8658W        W67919  29.175  37.901  13.827
 8659W        W67920  17.178  32.118   1.448
 8660W        W67921  28.176  13.614   1.819
 8661W        W67922  17.653  21.628   0.964
 8662W        W67923   2.735  10.739  12.835
 8663W        W67924  38.556   3.441   2.704
 8664W        W67925   8.845   2.788  14.333
 8665W        W67926  17.212   3.407  14.861
 8666W        W67927   4.903  40.942   2.842
 8667W        W67928  11.816  42.362  13.330
 8668W        W67929  17.276   8.311   3.362
 8669W        W67930   3.913   6.909  12.357
 8670W        W67931   3.875  21.635  10.960
 8671W        W67932  43.883  27.567  11.492
 8672W        W67933  16.765  34.583  11.039
 8673W        W67934  32.607  25.675  14.431
 8674W        W67935  28.501  23.621   0.325
 8675W        W67936   9.243  31.493   1.828
 8676W        W67937  16.756  41.868  14.760
 8677W        W67938  17.729  15.689  14.829
 8678W        W67939   6.226  24.018   3.771
 8679W        W67940  31.060  43.855  10.985
 8680W        W67941  34.600  37.339   0.350
 8681W        W67942  28.984  13.114   0.419
 8682W        W67943  15.117  27.629   4.354
 8683W        W67944  13.634  18.103  10.988
 8684W        W67945  28.086   8.217   2.762
 8685W        W67946  38.851  34.042   1.298
 8686W        W67947  34.103  19.738   2.714
 8687W        W67948   9.772  25.064   2.191
 8688W        W67949  42.285   8.260   1.426
 8689W        W67950  28.075  24.505  13.512
 8690W        W67951  34.531  15.733   4.128
 8691W        W67952  14.105  18.205  14.465
 8692W        W67953  27.013  24.018  14.393
 8693W        W67954  32.974  12.307  10.080
 8694W        W67955  15.598  33.097   0.747
 8695W        W67956  20.613  11.753  10.496
 8696W        W67957  30.989   7.731   1.816
 8697W        W67958  33.952  14.135   0.932
 8698W        W67959  28.469  31.442   0.381
 8699W        W67960   2.304  32.548  11.870
 8700W        W67961  14.333   6.723   2.786
 8701W        W67962  40.019  30.548  10.548
 8702W        W67963  43.824   8.406  12.868
 8703W        W67964  22.157  31.628  10.932
 8704W        W67965   7.833  22.099   2.863
 8705W        W67966  42.309  33.600   0.922
 8706W        W67967  35.539  35.392   0.800
 8707W        W67968   2.865  16.576  13.499
 8708W        W67969   9.387  16.695  14.476
 8709W        W67970  20.735   1.819  10.406
 8710W        W67971  44.313  40.452  10.632
 8711W        W67972  15.160  36.374   4.271
 8712W        W67973  18.251   4.930  12.431
 8713W        W67974   6.713  39.054   4.223
 8714W        W67975  39.860  12.809   0.357
 8715W        W67976  32.079  15.593   4.712
 8716W        W67977   8.299  11.140  13.543
 8717W        W67978  40.835  30.035  12.865
 8718W        W67979  18.207  23.690   2.808
 8719W        W67980  37.393   0.298  14.857
 8720W        W67981  43.000  27.479   0.912
 8721W        W67982  40.928   2.780   1.326
 8722W        W67983  41.899   9.359   4.731
 8723W        W67984  10.695  25.536   0.862
 8724W        W67985  28.100   8.708  12.362
 8725W        W67986  25.964  31.900  11.534
 8726W        W67987  44.909  39.349   0.342
 8727W        W67988  11.307  26.196   2.331
 8728W        W67989  36.441  38.966   1.913
 8729W        W67990  22.697   2.237   3.318
 8730W        W67991   6.217  19.046   2.261
 8731W        W67992   7.347  18.784   4.156
 8732W        W67993  13.313   9.334   3.329
 8733W        W67994   5.867  30.099  13.310
 8734W        W67995  33.123  12.641  14.330
 8735W        W67996   2.765  32.027  13.479
 8736W        W67997   4.393   4.879   3.266
 8737W        W67998  27.099  44.859  11.023
 8738W        W67999  30.002  29.137  12.361
 8739W        W68000   8.753  24.101   0.778
 8740W        W68001   6.765  24.221   3.758
 8741W        W68002  25.706  38.345  10.544
 8742W        W68003  26.123  30.431  14.001
 8743W        W68004  29.003  31.486   3.243
 8744W        W68005  37.896  18.233   2.356
 8745W        W68006  44.989  32.136  11.939
 8746W        W68007   6.788   2.367  12.553
 8747W        W68008   1.961  22.557  13.492
 8748W        W68009  10.750  34.088  13.817
 8749W        W68010   4.777  27.616  12.936
 8750W        W68011  34.406   4.228   2.219
 8751W        W68012  31.628  11.296   1.441
 8752W        W68013   6.208  39.438   2.224
 8753W        W68014  41.434  37.399  11.067
 8754W        W68015   1.796   7.348  14.448
 8755W        W68016   7.416  23.632   4.615
 8756W        W68017  44.900  13.827  14.471
 8757W        W68018  16.118  39.421  12.912
 8758W        W68019   2.944  20.173   0.795
 8759W        W68020   6.427  14.269   3.194
 8760W        W68021  13.718   6.328  11.110
 8761W        W68022  17.562   8.178   0.346
 8762W        W68023   1.375  43.958   3.169
 8763W        W68024  24.723  25.120  14.015
 8764W        W68025  36.926   0.372  13.439
 8765W        W68026  32.531  12.802   1.304
 8766W        W68027   1.756  22.602  12.085
 8767W        W68028  26.563  12.211  12.489
 8768W        W68029   7.234  36.843  10.591
 8769W        W68030  26.647  11.696   2.206
 8770W        W68031  33.075  20.089  11.874
 8771W        W68032  17.132   5.775   3.185
 8772W        W68033  18.060  20.033  14.872
 8773W        W68034  34.404  32.596  11.610
 8774W        W68035  24.503  31.447  12.967
 8775W        W68036  11.770   8.688   2.734
 8776W        W68037  40.864  40.331  13.039
 8777W        W68038  33.993  35.916  10.560
 8778W        W68039  25.068   3.410   0.760
 8779W        W68040  12.345  38.859   4.814
 8780W        W68041  38.948  16.779  14.856
 8781W        W68042  22.742  30.061   0.476
 8782W        W68043   3.919   7.190  10.529
 8783W        W68044  44.783   7.688   2.875
 8784W        W68045   7.832  32.972   4.355
 8785W        W68046   1.953   9.643  14.924
 8786W        W68047  27.666  29.970   0.775
 8787W        W68048  19.662   8.814   4.267
 8788W        W68049  44.819  38.396  10.473
 8789W        W68050  29.610   9.160  12.368
 8790W        W68051  26.499   3.836  12.879
 8791W        W68052   8.696   0.843   1.745
 8792W        W68053  16.165  11.147  13.877
 8793W        W68054  22.703  40.445   2.684
 8794W        W68055   9.323  27.991  12.072
 8795W        W68056  10.313  40.910   1.261
 8796W        W68057  22.592  19.170   4.303
 8797W        W68058  37.883  12.816  10.478
 8798W        W68059  14.698  32.469   1.764
 8799W        W68060   0.767   7.745   4.180
 8800W        W68061  14.148  13.829  13.478
 8801W        W68062   8.246  10.833  10.911
 8802W        W68063  40.482  14.681   4.318
 8803W        W68064  20.713   7.776  12.362
 8804W        W68065   5.916  22.728   0.774
 8805W        W68066  36.510  15.810  10.938
 8806W        W68067   0.984   2.423  10.561
 8807W        W68068  31.497  16.787   1.317
 8808W        W68069   0.784  16.184   2.849
 8809W        W68070  31.099  44.859   9.535
 8810W        W68071  34.933   6.709   2.696
 8811W        W68072   0.882  11.204  14.498
 8812W        W68073  16.286  32.057   0.371
 8813W        W68074  36.858  17.682  10.617
 8814W        W68075   3.870  10.720   0.301
 8815W        W68076  27.613  34.477  11.415
 8816W        W68077  33.388  37.470  14.763
 8817W        W68078  23.219  32.022   1.814
 8818W        W68079  25.184  36.461   4.612
 8819W        W68080  42.482  17.707  13.903
 8820W        W68081  36.949  19.126  11.436
 8821W        W68082  21.529  28.032  12.477
 8822W        W68083   3.759   9.810   1.815
 8823W        W68084  30.499  37.863   2.318
 8824W        W68085  33.958   1.939   0.894
 8825W        W68086  22.718  35.854  14.020
 8826W        W68087  43.311  16.310  11.440
 8827W        W68088  27.081   4.213  14.464
 8828W        W68089  14.233  17.682  12.984
 8829W        W68090  31.414  29.162   0.457
 8830W        W68091   4.706   4.216   0.847
 8831W        W68092  21.212  42.314   2.353
 8832W        W68093  21.210   8.293   0.961
 8833W        W68094  21.047  40.945  13.902
 8834W        W68095  39.922  22.617   0.770
 8835W        W68096  15.786  13.321  12.493
 8836W        W68097  22.081  19.256   5.307
 8837W        W68098   5.358  44.798  13.320
 8838W        W68099  41.299  17.077  11.556
 8839W        W68100  38.439  25.185  14.950
 8840W        W68101   0.930  35.898  14.840
 8841W        W68102   2.871  24.201  11.078
 8842W        W68103   2.435  27.089   2.702
 8843W        W68104  38.371  20.675  14.973
 8844W        W68105  17.299  39.487  10.900
 8845W        W68106  33.409  40.473   0.340
 8846W        W68107  13.617  18.614   4.660
 8847W        W68108  42.515   4.269  11.455
 8848W        W68109  43.273   0.827  10.114
 8849W        W68110  23.698   8.220  10.444
 8850W        W68111  14.158  40.864  11.876
 8851W        W68112  39.857  28.469  12.846
 8852W        W68113  21.215  23.144   4.311
 8853W        W68114  31.898   5.207  12.459
 8854W        W68115  31.555  18.266  13.344
 8855W        W68116  42.892   6.260  14.280
 8856W        W68117  42.407   6.717   3.286
 8857W        W68118  40.475  34.412   3.726
 8858W        W68119  23.107   7.183  14.783
 8859W        W68120  20.171  32.895   1.882
 8860W        W68121  29.530  17.725   3.374
 8861W        W68122  26.645  13.165   1.819
 8862W        W68123  28.151  25.495  13.030
 8863W        W68124  23.985   4.332   1.364
 8864W        W68125   0.376  36.472  12.461
 8865W        W68126   1.373  27.538   3.212
 8866W        W68127  14.143  26.148   5.177
 8867W        W68128  12.141  36.875  11.608
 8868W        W68129  12.150   9.205  13.398
 8869W        W68130  43.408   3.859  10.997
 8870W        W68131  24.990  11.746   2.750
 8871W        W68132  22.611  31.543  14.462
 8872W        W68133  41.980   9.239   2.396
 8873W        W68134  20.203  28.986  11.926
 8874W        W68135  15.325  26.027  14.974
 8875W        W68136  40.870  12.836  12.081
 8876W        W68137  36.946  43.393   2.688
 8877W        W68138  34.971   9.649  12.446
 8878W        W68139  16.121   8.670   1.923
 8879W        W68140  14.726  31.567   1.379
 8880W        W68141  32.098  11.773  14.477
 8881W        W68142  33.503  20.066   1.780
 8882W        W68143  20.162  12.726  12.455
 8883W        W68144  40.494  42.820   3.227
 8884W        W68145  11.281  44.931   1.695
 8885W        W68146  14.677  35.562   0.730
 8886W        W68147  35.923  28.666   3.282
 8887W        W68148  31.047  14.645  12.941
 8888W        W68149   5.263   4.256  12.071
 8889W        W68150  29.091  12.820   2.204
 8890W        W68151   2.733  18.199  12.009
 8891W        W68152   5.858   4.383   2.676
 8892W        W68153  14.615   3.360  12.528
 8893W        W68154  25.693  40.361   2.776
 8894W        W68155  29.530  19.721  11.978
 8895W        W68156   1.822  38.884   1.694
 8896W        W68157  26.596   7.376  13.010
 8897W        W68158  13.271  19.278  13.057
 8898W        W68159  37.841  36.546  11.937
 8899W        W68160  25.187  36.956  10.501
 8900W        W68161  13.617  22.609   2.804
 8901W        W68162  24.115  39.341  14.949
 8902W        W68163  11.821  29.953  11.394
 8903W        W68164  30.922  36.084  11.612
 8904W        W68165  21.614  41.525   1.379
 8905W        W68166  41.788  22.007  11.560
 8906W        W68167  10.169   8.235   3.792
 8907W        W68168  25.661  12.337   4.810
 8908W        W68169  20.203  32.579  11.065
 8909W        W68170   8.404  28.575   2.187
 8910W        W68171  32.429  29.953   4.799
 8911W        W68172  42.973  38.065   0.914
 8912W        W68173   6.873   8.199   1.697
 8913W        W68174  13.331  10.685   0.802
 8914W        W68175  33.105  24.487  13.870
 8915W        W68176  39.504  32.116  10.453
 8916W        W68177  39.533   4.238  13.940
 8917W        W68178   6.286  34.934   4.232
 8918W        W68179   2.915  39.383  11.044
 8919W        W68180  10.722  38.958   2.413
 8920W        W68181  20.128  39.934   1.903
 8921W        W68182  23.225   7.207  11.563
 8922W        W68183  18.631  41.464  14.761
 8923W        W68184  33.405   3.334   1.718
 8924W        W68185  13.607  31.486  10.528
 8925W        W68186  11.128  27.606  12.054
 8926W        W68187  33.065  19.198   4.718
 8927W        W68188  42.883  34.605  14.841
 8928W        W68189   2.239  42.926   1.863
 8929W        W68190  18.097  36.056  11.592
 8930W        W68191  18.289  41.039   0.456
 8931W        W68192  25.190   8.389  12.433
 8932W        W68193  42.523  14.165   4.346
 8933W        W68194  16.185   1.818  12.355
 8934W        W68195  20.552   5.395   3.863
 8935W        W68196  33.496  10.219   1.917
 8936W        W68197  39.486  25.158   2.289
 8937W        W68198  22.563  10.706  13.836
 8938W        W68199  33.047  31.107   3.172
 8939W        W68200   8.388  14.255   0.936
 8940W        W68201  33.070  38.987   0.407
 8941W        W68202  32.998   6.690  10.532
 8942W        W68203  20.258  41.292  14.317
 8943W        W68204  27.461  31.972  14.793
 8944W        W68205   2.342  11.185  13.812
 8945W        W68206  40.892   3.448  12.541
 8946W        W68207   6.918  30.970  12.841
 8947W        W68208  33.055  31.585  14.913
 8948W        W68209  35.391   0.822  14.460
 8949W        W68210  41.948  20.257   2.822
 8950W        W68211  25.650  37.553  14.917
 8951W        W68212  15.234  25.151  11.116
 8952W        W68213  41.474  31.053   0.310
 8953W        W68214  11.295  39.960  14.931
 8954W        W68215  37.006  15.600  11.944
 8955W        W68216  34.038  27.476  14.934
 8956W        W68217   2.462  19.127  12.506
 8957W        W68218  38.563  30.066   0.319
 8958W        W68219   0.988  32.890   4.770
 8959W        W68220  40.510  30.001   2.833
 8960W        W68221  34.432  27.006   4.836
 8961W        W68222   0.819  21.559   1.220
 8962W        W68223  24.589  12.701  11.977
 8963W        W68224  26.544   5.753   1.290
 8964W        W68225  42.872  34.091  11.910
 8965W        W68226  20.565   5.358  14.312
 8966W        W68227  38.069  14.589   0.474
 8967W        W68228  34.920  15.632   3.257
 8968W        W68229  24.652   1.795   1.829
 8969W        W68230  30.503   5.233   1.304
 8970W        W68231   3.793   7.797  13.821
 8971W        W68232  33.399  38.956  12.090
 8972W        W68233  25.486  44.846  12.016
 8973W        W68234  12.716  12.804  11.564
 8974W        W68235  41.799  17.244  11.402
 8975W        W68236   5.271  22.247  12.836
 8976W        W68237   3.298   5.354  12.440
 8977W        W68238  28.449  16.117  10.615
 8978W        W68239  32.010  32.513  11.450
 8979W        W68240  31.070   9.643  14.923
 8980W        W68241  27.577  20.169  13.542
 8981W        W68242  30.940  20.093   4.774
 8982W        W68243  14.791  34.395  11.553
 8983W        W68244   8.176  43.444   2.790
 8984W        W68245  43.019  11.726  12.949
 8985W        W68246   3.323  11.278   2.835
 8986W        W68247   1.784  24.078   1.856
 8987W        W68248  23.078  31.150  11.604
 8988W        W68249  26.191  16.648   4.694
 8989W        W68250   5.210  23.716  14.000
 8990W        W68251  31.070   3.242  12.026
 8991W        W68252  15.235   4.250   0.924
 8992W        W68253  29.143   7.848   3.663
 8993W        W68254  42.947  29.141  12.978
 8994W        W68255   7.740  40.408  11.512
 8995W        W68256  20.201  23.240   9.616
 8996W        W68257  32.575  37.422  13.411
 8997W        W68258   7.335   7.286  11.536
 8998W        W68259   2.757   3.793  13.968
 8999W        W68260   0.832  37.356   2.708
 9000W        W68261   4.937  23.667   3.159
 9001W        W68262   1.884   6.684  14.963
 9002W        W68263  25.168  14.684   1.378
 9003W        W68264  30.131  35.449  12.349
 9004W        W68265  31.589  12.702  14.919
 9005W        W68266  19.145  33.908   2.206
 9006W        W68267  40.379  13.331   0.948
 9007W        W68268  42.352  25.648   2.837
 9008W        W68269  30.128  26.162   4.819
 9009W        W68270  44.882  11.356   2.778
 9010W        W68271  35.891  21.122   4.181
 9011W        W68272  21.534  30.578   1.760
 9012W        W68273   9.226  29.578   0.453
 9013W        W68274  30.085  35.019  14.476
 9014W        W68275  22.180  28.040   0.798
 9015W        W68276  42.367   4.791  14.855
 9016W        W68277  15.239  19.275   0.424
 9017W        W68278   1.913  41.846  10.487
 9018W        W68279   9.344   3.946   4.293
 9019W        W68280   5.273   4.739  14.988
 9020W        W68281  14.180   8.223   4.786
 9021W        W68282  23.637  34.605  10.537
 9022W        W68283  15.326  20.597  11.391
 9023W        W68284  16.683  21.091  12.550
 9024W        W68285  30.915  24.575  13.437
 9025W        W68286   4.375   0.938   3.289
 9026W        W68287  40.972  44.944  10.897
 9027W        W68288  27.960  23.531   3.181
 9028W        W68289  43.935  23.214  13.471
 9029W        W68290  21.584  13.311  10.995
 9030W        W68291  30.147  27.194   1.448
 9031W        W68292   6.768  20.671  12.927
 9032W        W68293  38.556   3.395   0.341
 9033W        W68294  20.102  22.507  14.345
 9034W        W68295   5.196  12.832  11.876
 9035W        W68296  28.116  39.058   4.254
 9036W        W68297  29.164  21.752   0.962
 9037W        W68298   6.690  32.532  14.855
 9038W        W68299  34.027   7.205  11.391
 9039W        W68300  26.142  44.974  14.962
 9040W        W68301  31.978   4.748   1.410
 9041W        W68302   8.853  38.003   2.391
 9042W        W68303   8.797  12.356  13.946
 9043W        W68304  42.827  11.857   5.299
 9044W        W68305  10.384   3.413   1.396
 9045W        W68306   9.767  20.044   2.691
 9046W        W68307  41.296   4.812   1.254
 9047W        W68308  35.040   6.407  11.922
 9048W        W68309   1.953  21.671  12.370
 9049W        W68310  25.171  39.463  12.924
 9050W        W68311  33.437   5.278   0.475
 9051W        W68312   2.820  28.177   2.883
 9052W        W68313  37.442  32.630   5.186
 9053W        W68314  29.968  23.198  13.314
 9054W        W68315  21.191  41.433  13.455
 9055W        W68316   6.765  23.157  13.512
 9056W        W68317   5.856  26.640  11.443
 9057W        W68318   8.800  27.111   2.803
 9058W        W68319  34.883  15.758   2.275
 9059W        W68320   8.858  20.639   2.847
 9060W        W68321   1.440  28.669   0.869
 9061W        W68322  44.860  31.931  11.069
 9062W        W68323  36.962  36.374  12.450
 9063W        W68324  29.588  28.653   1.737
 9064W        W68325  40.327  32.446   4.164
 9065W        W68326  22.998  15.209   1.796
 9066W        W68327   5.914  14.149   1.354
 9067W        W68328   4.304  12.341  14.824
 9068W        W68329  29.527  22.662   2.192
 9069W        W68330  10.289  39.867   4.228
 9070W        W68331  38.358  40.927  11.491
 9071W        W68332  27.675  37.996   3.674
 9072W        W68333  28.076  39.883  13.975
 9073W        W68334   7.229   5.435  10.621
 9074W        W68335  17.582  23.158  12.963
 9075W        W68336  26.190  34.902   0.857
 9076W        W68337  11.255  10.663  12.008
 9077W        W68338  20.137   1.929   2.743
 9078W        W68339  11.287  33.567  13.051
 9079W        W68340  32.089  38.867   5.130
 9080W        W68341  29.991  27.492  11.934
 9081W        W68342  19.218   0.752  12.026
 9082W        W68343   6.322  38.042   1.879
 9083W        W68344  13.136  39.468  11.556
 9084W        W68345  12.638  34.992   0.359
 9085W        W68346   4.298  37.851   2.354
 9086W        W68347  40.954  10.176   3.655
 9087W        W68348  30.017   7.823   0.274
 9088W        W68349  42.385   8.160   0.823
 9089W        W68350  32.136  35.949   1.850
 9090W        W68351   7.177  18.574  13.538
 9091W        W68352  41.937  19.707  11.987
 9092W        W68353   9.840  28.562   1.407
 9093W        W68354  24.230  44.322   0.351
 9094W        W68355  43.490   7.724   3.653
 9095W        W68356   8.193  43.800   3.261
 9096W        W68357  36.043  19.675  10.958
 9097W        W68358   3.380  25.074   1.292
 9098W        W68359   2.227   3.757   1.843
 9099W        W68360   9.823   8.747  12.932
 9100W        W68361  10.204  15.173  13.888
 9101W        W68362  13.127  24.154  11.461
 9102W        W68363  24.156  30.568   4.738
 9103W        W68364  41.412  43.773  11.382
 9104W        W68365  39.042  28.182   3.354
 9105W        W68366  11.650  14.683  11.494
 9106W        W68367   5.227  18.692   2.767
 9107W        W68368  30.972   6.819  10.422
 9108W        W68369   6.818  22.056   4.750
 9109W        W68370   8.194  17.085  10.625
 9110W        W68371  32.967  24.637  11.100
 9111W        W68372  21.715   3.754   3.648
 9112W        W68373   5.828  41.985   0.244
 9113W        W68374  39.820  17.255  11.106
 9114W        W68375  32.463  14.265   9.982
 9115W        W68376   1.761  26.663   3.862
 9116W        W68377  20.677  29.468  11.473
 9117W        W68378  40.499  29.608   4.712
 9118W        W68379  16.284  40.498  11.611
 9119W        W68380  32.024  42.870   0.417
 9120W        W68381  13.328   9.652   1.362
 9121W        W68382   9.890  40.490  11.895
 9122W        W68383  24.193  19.050  10.948
 9123W        W68384  41.934  38.403  13.949
 9124W        W68385  38.332  44.987   2.670
 9125W        W68386  26.542   9.213  10.488
 9126W        W68387  27.493  41.825  13.502
 9127W        W68388  35.455  31.906   2.689
 9128W        W68389  21.122  34.052   2.902
 9129W        W68390  35.467  35.485  14.801
 9130W        W68391  31.609  15.084  13.394
 9131W        W68392  30.558  32.033  11.915
 9132W        W68393   7.262  19.764   4.254
 9133W        W68394   0.771   2.337   2.804
 9134W        W68395  14.247  34.052   4.642
 9135W        W68396  32.983  36.870  12.904
 9136W        W68397  29.580  40.310   3.719
 9137W        W68398  13.625  42.943   2.182
 9138W        W68399  35.541  28.548   2.254
 9139W        W68400  16.145  15.736   2.691
 9140W        W68401  32.941  24.070  10.937
 9141W        W68402  14.310  44.297  14.940
 9142W        W68403  17.585  43.448   4.219
 9143W        W68404  31.481  31.102  12.076
 9144W        W68405  44.415  28.614  14.777
 9145W        W68406  22.032  40.534  14.010
 9146W        W68407  35.588  21.138   2.273
 9147W        W68408  19.149  27.076  14.025
 9148W        W68409  35.572  20.588  10.595
 9149W        W68410   2.727  10.225  11.010
 9150W        W68411  42.522   6.340  13.324
 9151W        W68412   6.719  39.954   0.943
 9152W        W68413  10.768  13.798  13.847
 9153W        W68414  27.181  44.974  12.467
 9154W        W68415  25.169  36.877  13.052
 9155W        W68416  11.196  11.741  13.883
 9156W        W68417  10.702  26.034  13.441
 9157W        W68418  22.058   1.977   2.275
 9158W        W68419  29.990  39.997  13.801
 9159W        W68420  22.588  18.119  13.534
 9160W        W68421   7.837  41.305  13.977
 9161W        W68422   8.390  18.266   4.294
 9162W        W68423  32.016  11.189  14.809
 9163W        W68424  13.676  28.037   4.810
 9164W        W68425   9.886  16.624   1.896
 9165W        W68426  18.674  19.134  11.548
 9166W        W68427   7.404   0.358  10.416
 9167W        W68428  16.169  34.938   2.254
 9168W        W68429  18.722   6.424   0.478
 9169W        W68430  44.438  33.034  12.551
 9170W        W68431  12.790  26.148  12.519
 9171W        W68432  19.643  38.902  10.122
 9172W        W68433  20.124  37.493  13.871
 9173W        W68434  25.110  39.518   3.268
 9174W        W68435   4.811  37.991   1.901
 9175W        W68436  18.249   6.714   4.130
 9176W        W68437   3.301  30.909   0.260
 9177W        W68438  39.823  41.464  12.446
 9178W        W68439  20.264  21.532  14.993
 9179W        W68440  42.450  26.531  10.615
 9180W        W68441  25.480  34.028   1.754
 9181W        W68442  13.237  42.526   4.170
 9182W        W68443  12.162  14.127   0.370
 9183W        W68444  25.038  29.134   3.870
 9184W        W68445  10.340  14.256   3.747
 9185W        W68446  14.160  41.450  10.601
 9186W        W68447  33.928  28.173  12.956
 9187W        W68448  44.449  15.291  10.626
 9188W        W68449   8.348  30.977   2.288
 9189W        W68450  25.476  17.602  14.275
 9190W        W68451   8.698  13.253  11.373
 9191W        W68452  17.208  29.169  11.395
 9192W        W68453   0.835  26.045   1.239
 9193W        W68454  39.007  43.792  14.018
 9194W        W68455   2.750  33.464  13.935
 9195W        W68456  40.480  40.481  14.819
 9196W        W68457   6.923  44.351  14.893
 9197W        W68458   1.802  40.889  11.478
 9198W        W68459   1.760  16.759   1.445
 9199W        W68460  21.524  21.058   2.762
 9200W        W68461  13.198  14.599   4.725
 9201W        W68462  19.725  16.195  12.058
 9202W        W68463  39.324  34.883   0.811
 9203W        W68464  30.977   4.706  11.965
 9204W        W68465  32.428  19.700   1.273
 9205W        W68466  30.428   0.846  11.890
 9206W        W68467  22.064  29.080   4.668
 9207W        W68468  25.040  28.077  14.480
 9208W        W68469  18.602   0.321  12.414
 9209W        W68470  17.251  31.143  12.957
 9210W        W68471  33.886  40.396   9.511
 9211W        W68472  35.876  35.963  12.401
 9212W        W68473   5.417  39.348  10.613
 9213W        W68474  14.736  16.798   0.732
 9214W        W68475  28.605  10.700   1.882
 9215W        W68476  25.690  27.152  11.436
 9216W        W68477   3.263  38.897   3.206
 9217W        W68478  36.492   1.476  10.605
 9218W        W68479  35.071  38.404  13.498
 9219W        W68480  12.722  14.724  12.421
 9220W        W68481  40.966  41.320   1.769
 9221W        W68482  40.484   3.880   0.344
 9222W        W68483  22.662   9.758   4.204
 9223W        W68484  36.968   8.362  11.062
 9224W        W68485  11.203  34.058  14.421
 9225W        W68486  35.939  15.210  14.376
 9226W        W68487  41.350  37.044  14.895
 9227W        W68488  18.108  24.500   4.741
 9228W        W68489   0.809  30.069   1.913
 9229W        W68490   0.267   9.647  14.490
 9230W        W68491  32.407  22.111  12.946
 9231W        W68492  13.807   6.360   2.322
 9232W        W68493  32.940  15.281  14.405
 9233W        W68494  36.377  13.650  12.556
 9234W        W68495  12.312  37.402  11.866
 9235W        W68496  21.522  44.003   2.350
 9236W        W68497  40.973  21.245   0.362
 9237W        W68498  11.151   0.855   4.733
 9238W        W68499  30.024  29.962   2.359
 9239W        W68500  33.068  44.397  13.886
 9240W        W68501   3.329  44.335  11.397
 9241W        W68502  29.472  24.714   0.758
 9242W        W68503   9.374  21.223  14.847
 9243W        W68504  28.071  37.831   3.636
 9244W        W68505  44.851  32.071   4.253
 9245W        W68506  25.525   2.298  12.520
 9246W        W68507  19.217  26.002  10.411
 9247W        W68508  37.470  44.827   1.754
 9248W        W68509  41.459  26.609   0.776
 9249W        W68510   8.364  28.024   4.354
 9250W        W68511  38.936  22.018   5.083
 9251W        W68512  14.810  19.734   0.826
 9252W        W68513   6.381   0.398  12.833
 9253W        W68514  28.669  35.482   0.336
 9254W        W68515  12.354   1.884   1.221
 9255W        W68516   8.774  23.088  14.488
 9256W        W68517  31.039  24.089  10.528
 9257W        W68518   8.847  37.551  11.068
 9258W        W68519  22.093  23.693  14.343
 9259W        W68520  29.992  38.931   0.829
 9260W        W68521  33.990  28.645   1.311
 9261W        W68522  39.367  41.835   0.252
 9262W        W68523   9.857  20.173  13.805
 9263W        W68524  24.032  28.648   2.319
 9264W        W68525  24.050  21.224   1.901
 9265W        W68526  19.085  20.564  13.932
 9266W        W68527  39.819  37.357   2.856
 9267W        W68528  21.203  28.523  10.438
 9268W        W68529   9.254   1.800  10.427
 9269W        W68530  39.897   1.840  14.367
 9270W        W68531  34.575  12.300   1.308
 9271W        W68532  12.643   3.892   0.740
 9272W        W68533  32.057   9.663   9.950
 9273W        W68534  17.784  34.058   4.344
 9274W        W68535  42.807   1.246  13.008
 9275W        W68536   6.861  26.583  11.972
 9276W        W68537  23.666  23.209  11.606
 9277W        W68538  19.594  14.635   0.474
 9278W        W68539   1.470   9.704   1.858
 9279W        W68540   7.344   4.371  10.934
 9280W        W68541   3.424  44.902   4.238
 9281W        W68542   9.808  13.820   3.253
 9282W        W68543  15.321  23.516   1.780
 9283W        W68544  27.451  39.468  10.995
 9284W        W68545   5.698   9.391  14.876
 9285W        W68546  10.655  18.758   1.801
 9286W        W68547   7.684  40.015   1.702
 9287W        W68548  11.335  16.750  13.483
 9288W        W68549  29.585  17.221   0.242
 9289W        W68550  39.851  37.847   9.556
 9290W        W68551  13.691  41.358  10.605
 9291W        W68552  39.053  15.596   2.808
 9292W        W68553   5.826   3.415   0.808
 9293W        W68554  44.424  43.382   2.229
 9294W        W68555  42.906  26.973  14.508
 9295W        W68556   6.850  35.600  13.956
 9296W        W68557  39.827  26.657   2.666
 9297W        W68558  34.526  13.662  14.409
 9298W        W68559  33.460  25.675   3.193
 9299W        W68560  43.913  20.573  14.359
 9300W        W68561  39.470  27.135  12.947
 9301W        W68562  12.189  40.442  14.318
 9302W        W68563  17.661  27.503   2.857
 9303W        W68564  19.202  39.316   1.334
 9304W        W68565  15.789  12.186  13.850
 9305W        W68566  19.535  12.828  10.519
 9306W        W68567  28.506   7.233   3.822
 9307W        W68568  24.009   5.733   2.872
 9308W        W68569  18.764  21.694  11.047
 9309W        W68570  20.252  11.258   3.679
 9310W        W68571   4.242  35.909   1.380
 9311W        W68572  31.115  35.029   3.871
 9312W        W68573  14.336  31.932   3.320
 9313W        W68574  21.636   8.839  14.029
 9314W        W68575  12.645   6.893   1.887
 9315W        W68576   2.335  23.520  12.090
 9316W        W68577  35.991   2.356  10.503
 9317W        W68578   0.923  24.606  12.912
 9318W        W68579  35.417  31.434  13.907
 9319W        W68580  14.251  20.714   4.754
 9320W        W68581  10.143  23.185   3.848
 9321W        W68582  25.216   1.901  11.021
 9322W        W68583  39.875   3.461  13.048
 9323W        W68584  16.643  37.894  12.531
 9324W        W68585  41.927  11.319  14.486
 9325W        W68586  25.703   2.232  14.364
 9326W        W68587  25.563  44.997  10.536
 9327W        W68588  22.714  29.630   3.856
 9328W        W68589  21.247  39.849  13.899
 9329W        W68590  12.689   8.404   2.670
 9330W        W68591  15.699  12.768  13.501
 9331W        W68592   2.440  26.688  14.808
 9332W        W68593  27.692  41.009  14.912
 9333W        W68594  34.957  18.587  12.566
 9334W        W68595  20.648   5.759  11.866
 9335W        W68596  39.536  41.860   4.137
 9336W        W68597  27.678  33.427   4.695
 9337W        W68598  39.524   1.268   1.389
 9338W        W68599  24.028  37.571  12.401
 9339W        W68600  29.155  25.077  10.977
 9340W        W68601  29.508   8.858   3.217
 9341W        W68602  44.840  24.983  12.525
 9342W        W68603  12.200  31.119   3.844
 9343W        W68604  10.375   2.361  12.443
 9344W        W68605  33.593  30.948  12.848
 9345W        W68606  30.455  43.309   1.336
 9346W        W68607   7.865   3.900  10.972
 9347W        W68608  25.969  17.277   1.376
 9348W        W68609  33.609  16.727   2.336
 9349W        W68610  42.955  25.475   5.248
 9350W        W68611  10.730  25.180  12.917
 9351W        W68612  43.788  20.566   4.212
 9352W        W68613   1.390  38.873  12.997
 9353W        W68614  20.702  44.328   3.703
 9354W        W68615   2.895   8.175   4.640
 9355W        W68616   0.834   5.408  11.857
 9356W        W68617  13.274  38.503   2.311
 9357W        W68618   0.748  13.118  10.645
 9358W        W68619  19.682  41.393  14.778
 9359W        W68620  11.811   9.384   1.739
 9360W        W68621  33.051  39.558  14.373
 9361W        W68622  34.900  38.463   4.343
 9362W        W68623  13.201  27.110   0.919
 9363W        W68624   3.301  22.009   4.834
 9364W        W68625  33.415   9.652  11.558
 9365W        W68626  32.122   5.422   4.207
 9366W        W68627  28.495  38.355   3.794
 9367W        W68628  33.543  30.032  11.982
 9368W        W68629  28.546  33.550   2.242
 9369W        W68630  11.372  23.612  12.405
 9370W        W68631  19.680  38.880  11.587
 9371W        W68632   8.273  11.743   1.361
 9372W        W68633  37.938  41.327  10.640
 9373W        W68634  31.062  25.619  12.415
 9374W        W68635  43.941  18.229   2.253
 9375W        W68636  16.108  31.980  14.363
 9376W        W68637  42.475  20.749  14.851
 9377W        W68638  42.384   6.238   2.251
 9378W        W68639  19.769   4.716   0.445
 9379W        W68640  28.050  35.431   2.218
 9380W        W68641   3.894  17.307  13.468
 9381W        W68642  40.842  19.580  10.609
 9382W        W68643  43.843  14.214   1.295
 9383W        W68644  21.139  37.457   3.170
 9384W        W68645   0.839  43.930   0.400
 9385W        W68646  31.009  32.391   0.873
 9386W        W68647   9.665  39.559  11.098
 9387W        W68648  39.374  13.741   2.313
 9388W        W68649  33.927  23.170   2.195
 9389W        W68650  17.566  32.483  10.072
 9390W        W68651   7.305  19.720   2.903
 9391W        W68652  21.710  42.915   0.918
 9392W        W68653  22.606  27.504  14.303
 9393W        W68654   0.294  23.000   1.929
 9394W        W68655  35.004  22.048   0.820
 9395W        W68656  18.158   5.876  10.607
 9396W        W68657   8.170  34.016  13.502
 9397W        W68658  21.694  22.562   1.438
 9398W        W68659  42.418   2.725   2.413
 9399W        W68660  40.427  26.111   1.441
 9400W        W68661  11.856  21.115   1.835
 9401W        W68662  12.246   8.666  12.861
 9402W        W68663  18.610  36.592  12.079
 9403W        W68664   3.905  18.090   0.462
 9404W        W68665  38.459  18.226  13.383
 9405W        W68666  43.369  17.157   1.304
 9406W        W68667  35.059  27.003   1.437
 9407W        W68668   5.416  39.961   3.293
 9408W        W68669  30.100  29.432  13.856
 9409W        W68670  11.693  43.008  14.509
 9410W        W68671  43.464  32.595  14.808
 9411W        W68672  34.981  36.525   2.301
 9412W        W68673  26.579   5.739  11.416
 9413W        W68674  37.880  27.988  12.462
 9414W        W68675   0.801  41.927  13.945
 9415W        W68676  28.147  42.358   1.873
 9416W        W68677  41.374  43.862  12.003
 9417W        W68678  44.471   0.425  11.597
 9418W        W68679  33.897  18.735   2.752
 9419W        W68680  31.643   2.410  11.075
 9420W        W68681  43.864  25.126   3.711
 9421W        W68682   6.692   6.396  11.100
 9422W        W68683  40.468  23.648  13.896
 9423W        W68684   6.735  19.201   1.347
 9424W        W68685  22.052  31.923   2.753
 9425W        W68686   2.917  15.806  13.933
 9426W        W68687  42.989  43.458   1.235
 9427W        W68688  30.992  34.912  14.920
 9428W        W68689  17.633  28.018   3.217
 9429W        W68690  38.463  17.072   4.713
 9430W        W68691   8.245  19.704   2.377
 9431W        W68692   8.299  28.143  13.958
 9432W        W68693  41.822  14.115   2.326
 9433W        W68694  22.735  20.646  14.998
 9434W        W68695  31.636  40.543   4.671
 9435W        W68696  40.879  33.506  11.055
 9436W        W68697  21.675  11.688  11.031
 9437W        W68698   8.741  37.061   0.893
 9438W        W68699  20.729  25.066   0.271
 9439W        W68700  25.493  18.554  11.371
 9440W        W68701   9.761  38.004  10.569
 9441W        W68702  35.923  13.297  11.085
 9442W        W68703  14.661  34.110  13.485
 9443W        W68704  18.632  43.327   4.799
 9444W        W68705  24.527  29.593  14.474
 9445W        W68706   5.879  15.232   3.349
 9446W        W68707  41.043  11.136   1.719
 9447W        W68708  36.070  22.558  14.870
 9448W        W68709  38.563  42.018   4.174
 9449W        W68710  23.630  29.007   3.659
 9450W        W68711   5.372  32.036  11.558
 9451W        W68712  23.053  40.871  13.848
 9452W        W68713  39.350  34.423   2.759
 9453W        W68714  38.033   6.359   0.767
 9454W        W68715  14.715  36.398  13.998
 9455W        W68716  37.890  12.217   0.244
 9456W        W68717  22.176  24.074  13.921
 9457W        W68718  27.167  25.605   1.240
 9458W        W68719  30.509   7.376   4.663
 9459W        W68720   2.310  16.093  13.484
 9460W        W68721   2.877   2.258   4.744
 9461W        W68722  27.007  11.280  10.897
 9462W        W68723  39.443  30.422   0.480
 9463W        W68724  19.678  20.689   2.396
 9464W        W68725  20.097  31.906   3.354
 9465W        W68726   5.923  24.526  12.920
 9466W        W68727  33.910   0.980   0.813
 9467W        W68728   3.729  12.821  14.476
 9468W        W68729  44.401  42.329  12.025
 9469W        W68730  23.574  27.561  11.581
 9470W        W68731  33.434  19.602  13.828
 9471W        W68732  19.159  18.613   2.238
 9472W        W68733  20.216   4.803   5.306
 9473W        W68734  18.112  18.160   0.842
 9474W        W68735  22.245  17.663  10.523
 9475W        W68736  31.460  27.057   3.762
 9476W        W68737   1.765  40.501   1.864
 9477W        W68738  30.088  35.399  13.926
 9478W        W68739  32.901   1.963  12.860
 9479W        W68740  30.637  24.012   1.250
 9480W        W68741  18.588   3.911   0.768
 9481W        W68742  34.395  29.047  12.013
 9482W        W68743  35.464  17.166  14.901
 9483W        W68744   8.667   7.695  14.427
 9484W        W68745  30.135  21.174  10.615
 9485W        W68746  22.047   8.825   3.284
 9486W        W68747  10.708  33.473  13.443
 9487W        W68748  31.074   5.897   0.890
 9488W        W68749   4.733  38.526  13.055
 9489W        W68750  41.337  36.523  14.406
 9490W        W68751   0.291  26.177  11.042
 9491W        W68752  12.323  38.987  13.530
 9492W        W68753  37.959  25.644   2.892
 9493W        W68754   9.779  34.576  13.331
 9494W        W68755  12.732  40.519   2.377
 9495W        W68756  14.627  19.242   4.273
 9496W        W68757  22.175   4.281   3.374
 9497W        W68758  12.734  17.234   3.856
 9498W        W68759  40.940   4.404   2.416
 9499W        W68760  23.545  42.842  11.934
 9500W        W68761   4.260   4.836  13.794
 9501W        W68762  33.059  19.230  12.011
 9502W        W68763   9.165  17.746   0.947
 9503W        W68764  40.827  37.983   0.340
 9504W        W68765  40.027  14.685   0.311
 9505W        W68766  14.243  12.161  13.013
 9506W        W68767  31.542  41.356  14.027
 9507W        W68768  33.992  35.999   0.726
 9508W        W68769   6.827  44.417   1.887
 9509W        W68770  10.811  26.122   3.802
 9510W        W68771  34.433  44.270  10.152
 9511W        W68772   9.268  12.759  10.575
 9512W        W68773   8.380  26.554  14.444
 9513W        W68774  30.090  33.397   5.670
 9514W        W68775  42.310  19.730  12.073
 9515W        W68776   8.724  43.488   4.176
 9516W        W68777   3.278  30.471  10.447
 9517W        W68778   9.158  21.151  10.079
 9518W        W68779  33.054  40.415  13.983
 9519W        W68780  33.060  23.540  12.524
 9520W        W68781  38.510  20.752  11.004
 9521W        W68782  42.984   0.301  14.282
 9522W        W68783   4.321  31.533  11.407
 9523W        W68784  21.256  41.371   5.195
 9524W        W68785  38.546   7.189  13.503
 9525W        W68786  33.951  41.961   0.399
 9526W        W68787  37.963  25.704   3.288
 9527W        W68788  14.815  19.263  14.974
 9528W        W68789  18.701  44.340   4.813
 9529W        W68790  31.511  13.315   1.390
 9530W        W68791  42.403  24.040   3.730
 9531W        W68792  32.448  26.159  12.374
 9532W        W68793  20.217  31.998  14.373
 9533W        W68794  38.554  17.233   4.328
 9534W        W68795  17.641  16.238   0.399
 9535W        W68796  43.954  28.965  12.360
 9536W        W68797  31.945  20.740  14.401
 9537W        W68798   1.735  21.183  13.943
 9538W        W68799  27.651  29.510   4.212
 9539W        W68800  39.836  15.085  14.484
 9540W        W68801  10.775  22.615   1.350
 9541W        W68802  35.035  43.478  12.523
 9542W        W68803  28.001  42.978   0.461
 9543W        W68804   9.811  28.182   4.332
 9544W        W68805   5.321  13.196  14.969
 9545W        W68806  27.072  29.624  11.089
 9546W        W68807  13.788  30.542   2.804
 9547W        W68808  17.293  38.908  13.031
 9548W        W68809  30.595  44.400   1.845
 9549W        W68810  27.068  18.637  12.508
 9550W        W68811  44.905  29.927   1.419
 9551W        W68812  34.900  21.089  12.998
 9552W        W68813  30.947   7.689  14.956
 9553W        W68814  24.219  42.916   1.928
 9554W        W68815  22.704   4.733   4.670
 9555W        W68816   1.923  12.170   3.162
 9556W        W68817  19.656  18.597   0.740
 9557W        W68818  36.882  10.151   3.292
 9558W        W68819  14.752  34.377   1.301
 9559W        W68820  44.991   9.391  11.588
 9560W        W68821  24.161  42.509  12.933
 9561W        W68822  16.266  31.639   1.270
 9562W        W68823  32.143  12.206   0.737
 9563W        W68824  27.959  23.995   4.161
 9564W        W68825  38.838  33.444   1.283
 9565W        W68826  15.280  32.633   0.905
 9566W        W68827  14.621  27.569   3.296
 9567W        W68828   4.794   2.938   3.822
 9568W        W68829  23.101  10.732  11.017
 9569W        W68830  42.915  33.497   0.921
 9570W        W68831  11.840  17.769   4.728
 9571W        W68832  21.702  32.017  12.376
 9572W        W68833  13.199   9.867  13.813
 9573W        W68834  27.629  21.145   4.140
 9574W        W68835  40.806  30.557   3.658
 9575W        W68836  10.225  36.494  14.842
 9576W        W68837  30.948  37.014   4.229
 9577W        W68838   7.845  30.575   0.264
 9578W        W68839   1.976  43.779   1.727
 9579W        W68840  12.166  25.679  14.455
 9580W        W68841  36.413  23.612  12.421
 9581W        W68842  28.183  36.587  11.970
 9582W        W68843  12.669  42.943  14.816
 9583W        W68844  21.608   6.220   3.764
 9584W        W68845  33.917  42.822   1.363
 9585W        W68846  27.146  33.081   2.844
 9586W        W68847   0.321  32.553  11.570
 9587W        W68848  38.048  11.266   4.822
 9588W        W68849   6.764  27.522   1.242
 9589W        W68850  16.165   7.310   3.318
 9590W        W68851  36.977  44.947   4.113
 9591W        W68852   2.921  19.184   0.808
 9592W        W68853  40.881   0.807   0.796
 9593W        W68854  43.412  15.612  13.516
 9594W        W68855  32.494  34.922   1.907
 9595W        W68856  41.013   3.857   2.737
 9596W        W68857  23.573  16.303  14.327
 9597W        W68858  27.998  15.255   3.283
 9598W        W68859   5.383  17.613  13.843
 9599W        W68860   9.253   5.353  11.994
 9600W        W68861  39.058  24.986  14.815
 9601W        W68862  25.097  33.432  12.429
 9602W        W68863  44.306  33.937  10.506
 9603W        W68864  29.541  11.352  12.389
 9604W        W68865   3.936  44.885  12.562
 9605W        W68866  38.401   3.810  11.572
 9606W        W68867  19.077  26.081   3.650
 9607W        W68868  25.550  14.644   2.678
 9608W        W68869  27.535  21.049   0.398
 9609W        W68870  19.226   1.965  11.500
 9610W        W68871   0.762  12.648   5.305
 9611W        W68872  19.621  25.630   2.831
 9612W        W68873  26.678   8.676   0.900
 9613W        W68874  25.485  21.710  12.439
 9614W        W68875  22.158  28.653  12.997
 9615W        W68876  41.864  20.548  10.429
 9616W        W68877  37.375  13.347   1.910
 9617W        W68878  28.966  21.166  12.521
 9618W        W68879   6.295  22.077  10.462
 9619W        W68880  26.584  14.235   4.218
 9620W        W68881  40.932  17.146  12.974
 9621W        W68882  44.307  36.957   0.768
 9622W        W68883   2.754   9.388   3.364
 9623W        W68884   7.406  34.374   4.812
 9624W        W68885  11.211  43.272  13.482
 9625W        W68886   9.744  11.649  14.761
 9626W        W68887   3.879  41.916   4.113
 9627W        W68888   9.863   5.722   0.865
 9628W        W68889  15.593  44.293  11.967
 9629W        W68890  29.980  39.811   4.662
 9630W        W68891   0.476  35.045  10.518
 9631W        W68892  12.264  22.126   3.177
 9632W        W68893  22.017  12.675  13.479
 9633W        W68894  37.454  20.696  14.851
 9634W        W68895  31.539  39.886   4.327
 9635W        W68896   4.898   4.717  10.993
 9636W        W68897  31.484  12.769   0.367
 9637W        W68898  38.499  34.950  12.548
 9638W        W68899  17.584  41.422  12.345
 9639W        W68900   3.951  11.318  12.919
 9640W        W68901  35.509  44.298  14.331
 9641W        W68902  17.791   4.253  11.477
 9642W        W68903  12.789  24.090   3.637
 9643W        W68904  17.663  38.424   0.839
 9644W        W68905  25.635  14.700   3.751
 9645W        W68906   0.928  35.952  12.507
 9646W        W68907   4.839   5.276   3.819
 9647W        W68908  11.335  27.642   1.708
 9648W        W68909  44.953  23.202  12.067
 9649W        W68910  18.161   6.786  11.000
 9650W        W68911  34.077  25.526  14.989
 9651W        W68912  11.763  21.689   0.472
 9652W        W68913  35.377  29.131   1.934
 9653W        W68914  24.550  10.772  14.793
 9654W        W68915  15.123  16.317   2.223
 9655W        W68916  27.087  33.939  11.932
 9656W        W68917  25.557   0.911  11.380
 9657W        W68918  16.260  10.877  13.861
 9658W        W68919  12.744  36.457   0.461
 9659W        W68920   2.238  36.353   0.736
 9660W        W68921  13.206  39.550  14.903
 9661W        W68922  36.863   3.912   3.214
 9662W        W68923   0.291  10.749  14.781
 9663W        W68924  22.627  34.475   3.164
 9664W        W68925   4.889   6.335  11.570
 9665W        W68926  39.391  22.533   0.906
 9666W        W68927  21.069  36.472   0.771
 9667W        W68928   1.248   7.716  14.313
 9668W        W68929  19.727   6.315  12.348
 9669W        W68930  19.676   1.855   0.934
 9670W        W68931  34.603  14.819  14.411
 9671W        W68932  37.419  20.101   4.614
 9672W        W68933  29.016  41.421  13.822
 9673W        W68934   5.201  25.042  13.895
 9674W        W68935   6.921  41.447  10.962
 9675W        W68936  21.528   7.218   3.712
 9676W        W68937   0.829  34.966   3.783
 9677W        W68938  27.501   4.727  11.400
 9678W        W68939  33.497  23.217  13.322
 9679W        W68940   1.942  41.924   1.335
 9680W        W68941  36.546  37.956  11.078
 9681W        W68942  37.903   9.244  13.887
 9682W        W68943   8.714  31.521  10.417
 9683W        W68944  34.952   2.446   4.729
 9684W        W68945  39.555  40.407  12.427
 9685W        W68946  23.613  44.463  14.832
 9686W        W68947  39.974  16.245  11.526
 9687W        W68948  26.130  28.972   3.146
 9688W        W68949  34.923  43.273  13.359
 9689W        W68950  29.639  23.696  12.504
 9690W        W68951  30.980  28.132  10.096
 9691W        W68952  27.010   2.754  11.043
 9692W        W68953  18.132  41.956  13.855
 9693W        W68954   7.784  44.385  10.549
 9694W        W68955  12.119   8.294   0.424
 9695W        W68956  39.028  15.096  11.992
 9696W        W68957   4.394  18.291   3.787
 9697W        W68958  44.477   3.888   4.735
 9698W        W68959   9.783   1.299   3.288
 9699W        W68960  33.017  29.068   1.389
 9700W        W68961  20.762  31.548   4.837
 9701W        W68962  44.470   1.260   4.239
 9702W        W68963  14.208  43.367  11.508
 9703W        W68964  42.778  10.159  13.800
 9704W        W68965  30.030  42.970  14.030
 9705W        W68966  38.564  42.392  13.909
 9706W        W68967  19.641  12.727   1.214
 9707W        W68968  17.560  30.549  12.547
 9708W        W68969  38.407  23.517  11.383
 9709W        W68970  42.377   3.311   0.315
 9710W        W68971  34.075  40.832   2.178
 9711W        W68972   1.877  31.142  13.971
 9712W        W68973  31.902   2.821  11.505
 9713W        W68974  43.395  40.968  12.861
 9714W        W68975  28.122  13.695   2.770
 9715W        W68976  38.491  28.016   2.300
 9716W        W68977   5.843  22.520   3.146
 9717W        W68978   3.923  29.524   4.305
 9718W        W68979  15.716  17.197   1.906
 9719W        W68980  33.896  32.988   9.436
 9720W        W68981  35.575   4.327   0.464
 9721W        W68982  30.496   8.358  12.432
 9722W        W68983  17.130  37.474   0.837
 9723W        W68984  21.604  24.528  12.967
 9724W        W68985  38.406  38.498  14.780
 9725W        W68986   1.242  41.879   0.298
 9726W        W68987  39.906  24.652   2.841
 9727W        W68988  14.626  29.132  14.841
 9728W        W68989  36.866  25.497  12.853
 9729W        W68990  35.936  11.235  12.977
 9730W        W68991  21.638  39.456   3.169
 9731W        W68992   8.193  11.643  14.502
 9732W        W68993  12.232  24.486   3.360
 9733W        W68994  44.879   6.407   1.773
 9734W        W68995  41.949  25.665  13.387
 9735W        W68996  11.761  30.110   0.954
 9736W        W68997  18.144   7.800  11.560
 9737W        W68998  28.939  32.409  14.445
 9738W        W68999  43.392  33.405   1.818
 9739W        W69000  32.503  39.338  12.507
 9740W        W69001  27.173  35.527  10.950
 9741W        W69002  29.976  16.260   4.657
 9742W        W69003   3.821   9.672  13.548
 9743W        W69004  14.669  17.713  11.413
 9744W        W69005  19.751  29.544   5.297
 9745W        W69006   4.410  36.041  13.484
 9746W        W69007  21.167  25.595   9.654
 9747W        W69008  10.311  39.867  11.056
 9748W        W69009   4.811   3.925   0.772
 9749W        W69010  21.604  11.815   0.402
 9750W        W69011  31.115   2.457   4.272
 9751W        W69012  15.085   6.373  13.379
 9752W        W69013  25.980  11.717   4.804
 9753W        W69014  32.895   5.204   0.909
 9754W        W69015   0.758  29.629   2.213
 9755W        W69016  11.313   1.354  11.047
 9756W        W69017   3.259   9.388   2.414
 9757W        W69018  23.716  33.501  14.771
 9758W        W69019   7.697  11.303  14.331
 9759W        W69020  42.307  30.135   2.837
 9760W        W69021  14.614  40.480   1.839
 9761W        W69022  40.339   2.251  11.002
 9762W        W69023  31.443  32.098   5.218
 9763W        W69024   9.719   8.206  14.393
 9764W        W69025  40.832   1.418  13.456
 9765W        W69026  15.689  36.933  12.493
 9766W        W69027  21.185  28.147  13.845
 9767W        W69028  10.787  13.343  13.359
 9768W        W69029  44.839  25.656  10.973
 9769W        W69030  18.226  41.794  10.918
 9770W        W69031  39.363  33.945   0.805
 9771W        W69032  25.587  34.469   9.923
 9772W        W69033  18.769   9.178   2.410
 9773W        W69034   2.257   7.366   5.227
 9774W        W69035  31.982   4.872   3.293
 9775W        W69036  17.246  29.109   9.446
 9776W        W69037  40.475  35.516   5.167
 9777W        W69038  15.145  10.193   3.854
 9778W        W69039  23.528   9.150   3.719
 9779W        W69040  42.316  22.662   2.711
 9780W        W69041  22.689  11.278   3.849
 9781W        W69042  16.604   1.380  10.559
 9782W        W69043  44.952   1.436   3.324
 9783W        W69044  36.349   3.390   4.673
 9784W        W69045  15.744  21.733   5.288
 9785W        W69046   2.919  19.622   3.786
 9786W        W69047  33.502  30.164  14.812
 9787W        W69048  16.569  21.137   4.329
 9788W        W69049  40.505  19.696  14.456
 9789W        W69050  10.325  36.844  13.324
 9790W        W69051  14.106  35.974  12.907
 9791W        W69052  18.063   0.447  12.982
 9792W        W69053  28.579  29.150   4.151
 9793W        W69054  42.291   6.195  14.435
 9794W        W69055  12.121  14.774  10.935
 9795W        W69056   7.215   3.386  12.510
 9796W        W69057  43.431   6.804  13.384
 9797W        W69058   5.310  44.806   2.300
 9798W        W69059  22.074  12.767   3.777
 9799W        W69060  23.503  20.634  11.078
 9800W        W69061   5.279  41.816   0.778
 9801W        W69062  17.658  14.228   1.712
 9802W        W69063  18.098  40.899  11.509
 9803W        W69064  23.637  30.119  10.446
 9804W        W69065  10.174  43.328   0.875
 9805W        W69066   3.891   6.913   1.840
 9806W        W69067   7.884   4.400   1.853
 9807W        W69068   0.934  33.536  14.923
 9808W        W69069  15.154  13.105   0.384
 9809W        W69070  30.948  16.098  10.889
 9810W        W69071  43.468   2.748  12.065
 9811W        W69072  21.080  18.093   3.808
 9812W        W69073   6.217  21.196   3.333
 9813W        W69074  38.933  40.034  13.800
 9814W        W69075  42.006   9.377   1.832
 9815W        W69076  26.178  26.495  10.964
 9816W        W69077  43.290   5.934  10.443
 9817W        W69078  20.173  16.259   0.939
 9818W        W69079  33.884  26.995  14.493
 9819W        W69080   0.950  44.874   0.829
 9820W        W69081  17.224   3.882  10.999
 9821W        W69082   2.860  29.596  10.937
 9822W        W69083  20.088  44.341   0.325
 9823W        W69084  12.649   6.772  10.474
 9824W        W69085   3.949  32.419  11.928
 9825W        W69086  35.583  42.280   1.235
 9826W        W69087  40.832   8.708  13.047
 9827W        W69088   6.815  31.007   0.907
 9828W        W69089  17.732   0.270  12.024
 9829W        W69090  35.591  41.838  12.398
 9830W        W69091  30.624  25.106  12.932
 9831W        W69092  29.080   3.733  11.462
 9832W        W69093   8.851  11.747  12.939
 9833W        W69094  34.997  15.163   3.656
 9834W        W69095  12.202   7.278  14.353
 9835W        W69096  10.751  12.273   1.698
 9836W        W69097   2.334  28.006  14.505
 9837W        W69098   5.875  33.960   2.378
 9838W        W69099  27.189  29.531   2.839
 9839W        W69100  32.542  17.711   3.153
 9840W        W69101  28.497   4.942   3.701
 9841W        W69102  32.911  37.958  10.913
 9842W        W69103  15.284   4.875   3.208
 9843W        W69104  16.789  34.555  14.947
 9844W        W69105  32.976   0.754  12.528
 9845W        W69106  38.491   4.212   4.608
 9846W        W69107  23.089  19.141  11.576
 9847W        W69108  10.709  26.043   4.811
 9848W        W69109  11.255  26.696   4.116
 9849W        W69110  23.585  16.709   4.662
 9850W        W69111  14.300  27.514  14.294
 9851W        W69112  39.540   8.206   0.296
 9852W        W69113  26.652  14.227  10.140
 9853W        W69114  41.512  38.469   0.325
 9854W        W69115  23.087   9.337  13.039
 9855W        W69116  43.484  15.787   1.797
 9856W        W69117  21.654  25.110   1.408
 9857W        W69118  28.680  39.863  14.950
 9858W        W69119  13.320  18.588  11.476
 9859W        W69120  15.186  32.563   1.358
 9860W        W69121  21.129  14.259  13.522
 9861W        W69122  36.477   6.354  10.160
 9862W        W69123  35.577  31.487  10.444
 9863W        W69124  14.820  32.109   1.259
 9864W        W69125  17.611  34.483  12.439
 9865W        W69126  40.926  36.039  13.819
 9866W        W69127  42.346   9.356  12.986
 9867W        W69128  38.005   5.918   3.692
 9868W        W69129  30.607  36.446   2.228
 9869W        W69130  16.655  17.623  14.498
 9870W        W69131  28.016  42.336  14.455
 9871W        W69132  10.237  18.111  11.943
 9872W        W69133  43.288  34.393   3.343
 9873W        W69134  26.987   2.734  10.453
 9874W        W69135   2.239  37.436   3.176
 9875W        W69136  32.974  20.106   0.315
 9876W        W69137  13.718  35.577   2.671
 9877W        W69138  29.083  20.675   4.202
 9878W        W69139   8.758  29.429  12.501
 9879W        W69140  13.298  19.682   0.746
 9880W        W69141  14.196  39.831   4.160
 9881W        W69142  11.653  20.251  13.024
 9882W        W69143   3.909  10.338  11.105
 9883W        W69144   9.298  22.185  13.541
 9884W        W69145   5.214  35.011   2.797
 9885W        W69146  28.004   9.180   4.597
 9886W        W69147   4.813  35.858  14.013
 9887W        W69148  29.565  41.962   0.902
 9888W        W69149  26.631  19.730  13.348
 9889W        W69150  24.716   3.253  12.077
 9890W        W69151  31.909  43.839   2.184
 9891W        W69152   6.369  11.771   0.921
 9892W        W69153  24.000  19.129  13.321
 9893W        W69154   1.460   2.397  13.857
 9894W        W69155  42.283  17.802   1.876
 9895W        W69156  19.174   4.780   3.770
 9896W        W69157  30.562   3.429   0.943
 9897W        W69158  29.625  29.128  11.015
 9898W        W69159  33.016  37.841   4.317
 9899W        W69160   8.387  43.770   0.455
 9900W        W69161  42.434  39.478  13.326
 9901W        W69162   4.313  36.589  10.632
 9902W        W69163  30.447   3.896  11.580
 9903W        W69164  43.356   4.278  13.015
 9904W        W69165   6.826  17.098  14.969
 9905W        W69166  18.594  19.721  13.902
 9906W        W69167  30.044  44.842  13.955
 9907W        W69168  17.736   5.291  13.052
 9908W        W69169  11.822  42.451   1.270
 9909W        W69170  15.268  36.044   0.742
 9910W        W69171   4.853  31.579  14.839
 9911W        W69172  44.297  38.839   4.748
 9912W        W69173  24.624  36.084   0.891
 9913W        W69174  27.506  40.361  10.523
 9914W        W69175   4.399  37.030   4.192
 9915W        W69176  14.687  43.429   4.639
 9916W        W69177  22.713   3.312  12.976
 9917W        W69178  12.227  25.028  10.596
 9918W        W69179  16.708  19.113  10.908
 9919W        W69180  33.958  20.754  11.895
 9920W        W69181  21.247  26.619  10.553
 9921W        W69182  38.545  33.406   4.221
 9922W        W69183  34.940  42.357   1.421
 9923W        W69184  37.852  34.110  12.480
 9924W        W69185  24.096  37.466   3.235
 9925W        W69186  19.676  26.671   5.112
 9926W        W69187  37.556  39.559  11.407
 9927W        W69188  44.471   2.728   0.860
 9928W        W69189   7.373   1.422  11.919
 9929W        W69190  40.889   9.322  13.500
 9930W        W69191   3.436   7.232   1.763
 9931W        W69192  22.043  30.512   1.378
 9932W        W69193  35.915  39.336  11.061
 9933W        W69194  29.942   2.370  10.952
 9934W        W69195  34.464  33.052   1.235
 9935W        W69196  26.587  16.766  13.361
 9936W        W69197  13.668  28.039  13.992
 9937W        W69198   4.308  39.855   3.754
 9938W        W69199  36.915   5.198  14.971
 9939W        W69200  44.438  13.796  12.446
 9940W        W69201  19.745  24.056  14.795
 9941W        W69202  36.024   2.786  13.964
 9942W        W69203  29.925  36.405   1.247
 9943W        W69204   2.761  35.575   0.915
 9944W        W69205  15.172  36.029  13.942
 9945W        W69206  43.879   0.769   1.281
 9946W        W69207   9.810   6.709   3.216
 9947W        W69208  10.144  22.653  14.919
 9948W        W69209  16.742  37.417  11.511
 9949W        W69210   8.791  41.981  10.967
 9950W        W69211  23.498  28.937  10.991
 9951W        W69212  27.977  11.749   0.266
 9952W        W69213   0.343   7.815   1.757
 9953W        W69214  18.227  28.550  11.610
 9954W        W69215  24.611  17.734  11.957
 9955W        W69216  19.606  28.991  12.504
 9956W        W69217  29.036  18.109   1.264
 9957W        W69218  36.982  28.075   0.893
 9958W        W69219  41.315   6.862   0.380
 9959W        W69220  36.869  24.688  10.959
 9960W        W69221  27.980  25.187  11.418
 9961W        W69222   9.338  26.647   5.228
 9962W        W69223  22.578  30.520   4.775
 9963W        W69224   8.381  26.966  10.465
 9964W        W69225  27.449  43.344   3.220
 9965W        W69226  28.680  21.233  11.093
 9966W        W69227  18.579  26.593   3.768
 9967W        W69228  19.772   7.270   4.634
 9968W        W69229  35.435  34.048  10.605
 9969W        W69230  17.237  28.970  10.545
 9970W        W69231  25.191   4.749   0.858
 9971W        W69232   2.428   1.432  12.515
 9972W        W69233  44.463  35.903   2.257
 9973W        W69234  32.493  13.746   0.245
 9974W        W69235  23.167   3.405  12.953
 9975W        W69236  10.267  22.743  13.812
 9976W        W69237  10.359  27.455   2.745
 9977W        W69238  17.179  26.698   2.264
 9978W        W69239  43.874  35.873  14.314
 9979W        W69240   5.763  15.791   2.804
 9980W        W69241  37.027   3.452  11.064
 9981W        W69242  13.816  44.958  13.954
 9982W        W69243  44.991  31.035  14.457
 9983W        W69244  30.494   4.261   1.848
 9984W        W69245  16.105  36.057  11.469
 9985W        W69246  25.051  19.640   1.388
 9986W        W69247  43.313   0.809  14.967
 9987W        W69248  12.676  21.075   2.253
 9988W        W69249  35.007  27.586  14.393
 9989W        W69250  27.168  44.455   2.226
 9990W        W69251  30.973  31.647  14.802
 9991W        W69252  39.363  38.500   3.795
 9992W        W69253   6.816   5.354   1.804
 9993W        W69254   8.268   9.265  10.968
 9994W        W69255  10.167  38.902  10.494
 9995W        W69256  31.981   7.356  14.841
 9996W        W69257  31.646  13.729  14.968
 9997W        W69258  31.966  31.979  10.513
 9998W        W69259   1.766   5.844  12.854
 9999W        W69260  35.041   8.217   4.203
10000W        W69261  43.405  43.807   2.796
10001W        W69262  21.553  28.946   2.890
10002W        W69263   5.383  22.675   3.859
10003W        W69264  16.091   3.332  11.012
10004W        W69265   7.194  12.130  11.040
10005W        W69266  38.352  25.064   4.290
10006W        W69267  30.464   7.835   4.351
10007W        W69268  19.251  23.634  10.623
10008W        W69269   5.252  44.372  14.999
10009W        W69270   4.255  33.495  11.604
10010W        W69271  32.408  10.182   4.340
10011W        W69272  15.801  43.467  10.958
10012W        W69273  30.146   6.793  10.888
10013W        W69274  40.828  40.963  14.924
10014W        W69275  34.115   3.850   1.859
10015W        W69276  10.331  12.723   0.349
10016W        W69277   4.924  24.039   4.601
10017W        W69278  34.014  31.978   1.413
10018W        W69279  43.921   6.790   1.361
10019W        W69280   7.765  20.189  11.459
10020W        W69281  22.023  13.666   0.334
10021W        W69282  25.061  25.521   0.949
10022W        W69283   6.854  28.025   2.290
10023W        W69284   7.338  20.727  10.929
10024W        W69285  43.773  39.950   2.311
10025W        W69286  27.447  13.283   0.836
10026W        W69287  30.145  44.262  14.831
10027W        W69288  42.502  37.944  12.065
10028W        W69289  21.727   9.208  13.479
10029W        W69290  28.557  44.972  11.002
10030W        W69291  22.546  40.390  14.403
10031W        W69292  38.875  31.023  14.864
10032W        W69293  21.519  42.025   3.751
10033W        W69294  29.094   9.382  13.892
10034W        W69295  36.887  39.990  14.381
10035W        W69296  38.532  15.319   2.721
10036W        W69297  26.648  10.723  13.509
10037W        W69298  30.451  14.105   0.341
10038W        W69299   2.311  27.687  11.961
10039W        W69300   0.825   3.374   0.292
10040W        W69301   6.317  28.186   3.226
10041W        W69302  30.124  10.773  14.881
10042W        W69303  13.668  41.363   4.330
10043W        W69304   0.299  38.526   1.276
10044W        W69305  36.361  33.108   5.260
10045W        W69306   0.857  34.609  13.996
10046W        W69307  34.948  38.559  14.779
10047W        W69308  14.329  26.965  13.044
10048W        W69309  25.700  24.511  12.062
10049W        W69310  18.680  17.261   0.786
10050W        W69311  30.578  22.101  13.376
10051W        W69312  22.573  23.601   4.172
10052W        W69313   2.301  27.967  11.951
10053W        W69314  14.775   0.306   1.768
10054W        W69315  35.458  20.626  14.974
10055W        W69316   0.318  24.156   3.340
10056W        W69317   0.926  17.186   0.927
10057W        W69318  24.007  35.371   0.405
10058W        W69319  26.690   3.907  11.070
10059W        W69320  31.010  10.844  12.845
10060W        W69321  29.643   1.814   1.437
10061W        W69322  18.691  30.598  10.900
10062W        W69323  16.310  30.973   1.856
10063W        W69324  29.133   8.820  12.553
10064W        W69325  29.654  13.603   0.367
10065W        W69326  26.109   5.691   1.860
10066W        W69327  44.491   7.898  10.556
10067W        W69328  17.271  38.340   2.739
10068W        W69329  44.938  30.911  10.887
10069W        W69330  30.498  30.121   1.240
10070W        W69331  32.102  38.373  12.363
10071W        W69332  24.088  20.125   4.617
10072W        W69333  10.160  34.117   4.800
10073W        W69334  28.630  17.618   1.236
10074W        W69335  19.199  11.807   0.837
10075W        W69336   6.803  17.709   4.224
10076W        W69337  12.661  31.516  13.317
10077W        W69338  19.704  42.400  13.869
10078W        W69339  34.048  39.962   5.692
10079W        W69340  38.041   0.258   2.826
10080W        W69341  31.112   6.334  13.966
10081W        W69342  36.885  27.661   2.347
10082W        W69343  26.547   0.963   0.900
10083W        W69344  44.498  39.827  11.546
10084W        W69345  11.623  31.094  12.557
10085W        W69346   4.294  43.766  14.975
10086W        W69347  24.101  15.230  12.499
10087W        W69348  20.057  20.213   0.475
10088W        W69349  27.689   4.432  14.951
10089W        W69350  16.109   6.255  13.485
10090W        W69351  44.811  20.057   3.731
10091W        W69352  17.743  36.899  11.095
10092W        W69353  14.210  27.460  10.554
10093W        W69354  39.850   3.390  14.311
10094W        W69355  29.996   6.735   1.325
10095W        W69356  30.543  43.283  13.021
10096W        W69357  20.054  24.597  12.504
10097W        W69358  13.729  40.453  10.934
10098W        W69359  15.215  27.197  10.979
10099W        W69360  32.979  40.873   1.340
10100W        W69361  20.563   1.393   0.277
10101W        W69362   9.318  43.874  12.967
10102W        W69363  34.552   5.284   1.343
10103W        W69364  16.271   2.801   2.179
10104W        W69365  38.524  24.228   0.365
10105W        W69366  25.470  38.959  14.293
10106W        W69367  25.489  16.673  13.463
10107W        W69368  40.439   5.756   2.358
10108W        W69369   2.378   4.837  13.802
10109W        W69370  24.042   3.436   2.191
10110W        W69371  21.017  16.091  11.029
10111W        W69372  30.504  40.450  12.879
10112W        W69373  13.119  32.569  14.895
10113W        W69374   6.712  29.044   0.938
10114W        W69375  16.810  25.671  11.919
10115W        W69376  10.813  11.194   2.335
10116W        W69377   9.287  42.967   9.958
10117W        W69378  27.065  12.262   4.804
10118W        W69379  42.840  37.567  12.062
10119W        W69380  19.039  34.586  10.909
10120W        W69381  30.988  42.301   2.254
10121W        W69382  15.265  31.465  13.413
10122W        W69383  19.225  32.538   0.329
10123W        W69384  39.043  28.103   2.801
10124W        W69385  13.662  20.760  12.516
10125W        W69386  40.915  40.350   2.343
10126W        W69387  43.895  34.521   1.859
10127W        W69388   7.349  27.151   4.694
10128W        W69389   3.811  15.179  13.918
10129W        W69390   4.359  40.450   3.242
10130W        W69391  44.760  16.252  13.459
10131W        W69392   8.719   8.228  12.907
10132W        W69393   1.437   7.212  11.417
10133W        W69394  16.812  28.456   2.740
10134W        W69395  36.376   9.226  14.794
10135W        W69396  38.520   8.263  11.122
10136W        W69397  31.915  13.671  14.380
10137W        W69398   8.766  39.035  14.506
10138W        W69399  42.437  13.806  11.003
10139W        W69400  32.616  25.067   4.620
10140W        W69401  31.428  21.618  13.029
10141W        W69402  37.482  23.043  12.092
10142W        W69403   4.711  10.145  13.906
10143W        W69404  18.169  14.303   4.702
10144W        W69405  36.458  44.445   2.380
10145W        W69406   2.882   8.814  11.022
10146W        W69407  36.843  33.975   5.281
10147W        W69408  15.324  23.502   0.459
10148W        W69409  15.773   1.308  12.993
10149W        W69410  18.264  17.745  11.546
10150W        W69411  44.889  39.925  12.501
10151W        W69412  39.504  30.909  10.999
10152W        W69413  29.530   5.404   3.773
10153W        W69414   8.243   9.831  11.086
10154W        W69415  34.544  18.247   4.135
10155W        W69416  19.591  37.483  12.095
10156W        W69417  41.320  14.608  14.025
10157W        W69418   5.729  12.781  11.920
10158W        W69419  17.156  26.032   0.263
10159W        W69420  21.164   5.766  12.840
10160W        W69421   0.963  11.627  14.903
10161W        W69422  10.298   7.897  12.045
10162W        W69423   2.466  23.525  10.606
10163W        W69424  21.712  37.991  14.411
10164W        W69425  25.516  31.068  10.965
10165W        W69426  26.142  10.837  13.408
10166W        W69427   3.453  31.913  12.457
10167W        W69428  38.533   8.265   1.422
10168W        W69429   9.725  41.834   2.736
10169W        W69430  41.970  28.167  14.912
10170W        W69431   0.474  15.170  12.075
10171W        W69432  15.633  14.290  12.899
10172W        W69433   1.921  11.818   2.188
10173W        W69434  23.985  11.157   4.724
10174W        W69435   7.728   9.260   3.182
10175W        W69436  20.143   6.207  13.943
10176W        W69437  39.485  30.022  12.846
10177W        W69438  18.592  24.152   3.702
10178W        W69439  11.833  22.525  13.881
10179W        W69440   6.325  23.516  10.086
10180W        W69441  23.041  22.554  10.017
10181W        W69442   3.906  18.735  11.482
10182W        W69443  13.257  38.932  13.453
10183W        W69444  26.505  23.117  10.558
10184W        W69445  24.673   2.738  14.430
10185W        W69446  38.996  10.197  13.438
10186W        W69447  19.240   6.693   0.384
10187W        W69448  41.344   5.897   1.362
10188W        W69449  25.559   5.432  11.044
10189W        W69450  30.584  10.744  14.899
10190W        W69451  43.294  16.811  10.420
10191W        W69452  14.761   6.873   4.624
10192W        W69453   3.344   3.916   4.710
10193W        W69454  15.625   9.659  10.506
10194W        W69455  37.379  41.429  13.021
10195W        W69456   2.880  27.607  13.974
10196W        W69457  39.353  24.681   4.114
10197W        W69458  37.833  35.093   1.320
10198W        W69459  28.012  39.868   3.262
10199W        W69460  37.565  17.712  11.114
10200W        W69461  20.103  27.077  12.849
10201W        W69462  43.386   1.880   3.779
10202W        W69463  38.037   2.351  11.919
10203W        W69464  15.595  11.671  13.498
10204W        W69465  34.979  17.140  13.416
10205W        W69466  25.534  12.293  12.405
10206W        W69467  25.204  19.141  10.420
10207W        W69468  13.842  15.578  13.488
10208W        W69469  32.454  30.630  10.404
10209W        W69470  35.397  30.937  11.565
10210W        W69471   6.689  22.746   3.784
10211W        W69472  21.046  31.940  12.898
10212W        W69473  36.423  13.349  11.052
10213W        W69474  21.184  30.432  14.020
10214W        W69475   1.819  13.220   2.882
10215W        W69476  20.755  40.051  13.381
10216W        W69477  27.669   6.280  14.351
10217W        W69478  16.669  17.559  12.056
10218W        W69479  43.874  25.218   2.867
10219W        W69480  11.681  29.920  13.852
10220W        W69481   2.925  27.996   2.257
10221W        W69482  18.093  30.919   0.885
10222W        W69483  40.892  13.189  10.535
10223W        W69484  39.324  44.868  14.413
10224W        W69485   9.673  31.540  13.447
10225W        W69486   2.430  10.186   0.951
10226W        W69487  11.356  34.088  13.990
10227W        W69488  32.460  26.609   0.372
10228W        W69489   3.741  11.683   2.666
10229W        W69490  44.266  38.968  12.904
10230W        W69491  42.385  17.631   0.451
10231W        W69492  20.059   4.880   2.866
10232W        W69493  22.543  21.750  13.902
10233W        W69494  21.523   3.458   4.182
10234W        W69495  22.069  34.957   1.785
10235W        W69496  21.092   6.819  14.884
10236W        W69497  27.566   0.271  14.399
10237W        W69498   3.861  35.418  13.398
10238W        W69499  29.660  14.724  12.500
10239W        W69500  13.601  20.184   1.280
10240W        W69501  31.962  39.890   3.375
10241W        W69502   9.756  19.700   4.669
10242W        W69503   0.797  25.199   3.717
10243W        W69504   7.685  35.553  11.857
10244W        W69505  27.449  10.384  13.026
10245W        W69506  15.801  41.510   4.826
10246W        W69507  39.965  30.063   1.817
10247W        W69508  24.647  44.768  14.843
10248W        W69509  10.323   5.849  14.309
10249W        W69510   2.951  43.939  13.898
10250W        W69511  37.984  25.639   2.337
10251W        W69512   2.962  19.779   1.772
10252W        W69513  27.139  28.566   3.630
10253W        W69514  21.554  29.538   2.843
10254W        W69515  26.510   3.849   1.311
10255W        W69516  24.564  43.799   1.758
10256W        W69517   2.290  28.009  10.457
10257W        W69518   5.723  21.624   0.337
10258W        W69519  10.695  32.096   3.300
10259W        W69520  37.392  11.664   2.259
10260W        W69521   5.217  10.803   2.390
10261W        W69522  32.977  30.545  12.516
10262W        W69523  42.007   4.933   4.805
10263W        W69524  28.625  33.403   4.806
10264W        W69525  31.495  22.152   0.393
10265W        W69526   8.887  14.158  11.967
10266W        W69527   6.682   8.729  14.888
10267W        W69528  30.635  21.244   0.763
10268W        W69529  22.222   3.256   0.478
10269W        W69530  39.053  38.837  13.340
10270W        W69531  43.386  25.692  10.513
10271W        W69532  36.503  36.408   4.338
10272W        W69533  22.637  26.957   3.335
10273W        W69534   0.862  19.252   4.220
10274W        W69535  32.600  35.054  11.899
10275W        W69536  30.992  17.622  13.909
10276W        W69537  23.184   8.293  12.370
10277W        W69538  41.480  30.160   3.188
10278W        W69539  19.671  13.662   3.257
10279W        W69540  42.347  22.252  10.907
10280W        W69541  19.601  35.430   0.347
10281W        W69542  10.284  29.601  11.048
10282W        W69543  37.534   6.790   2.274
10283W        W69544  37.359  13.825  13.414
10284W        W69545  31.456  39.932  11.382
10285W        W69546  42.525   9.189   1.336
10286W        W69547  13.293   4.233  10.436
10287W        W69548   2.367   5.272   1.770
10288W        W69549  29.661  43.829   0.401
10289W        W69550   0.837  40.877   4.321
10290W        W69551  25.012  36.568  10.902
10291W        W69552   3.769   0.979   0.308
10292W        W69553   7.274  15.130   1.906
10293W        W69554  17.679  40.495   1.230
10294W        W69555  12.813  22.232  11.502
10295W        W69556   6.392  22.695   2.692
10296W        W69557  26.187  39.402  13.462
10297W        W69558  16.578  34.909  14.366
10298W        W69559  20.756  17.628   0.368
10299W        W69560  25.648   5.862   4.671
10300W        W69561  24.615  17.078   3.680
10301W        W69562  42.013  25.711  14.887
10302W        W69563  39.979  29.610  13.379
10303W        W69564  44.975   2.439  13.866
10304W        W69565  28.515  34.601   1.356
10305W        W69566  17.558  42.804   4.252
10306W        W69567  33.920  33.492  13.335
10307W        W69568  27.016  32.909  10.465
10308W        W69569  44.805  42.515  12.344
10309W        W69570  26.138   5.388  14.365
10310W        W69571  37.379  13.213   4.828
10311W        W69572   9.655  42.991   1.424
10312W        W69573  20.551   8.402   1.829
10313W        W69574  44.362  35.525  12.073
10314W        W69575  32.500   1.482   3.303
10315W        W69576  14.327  21.674  11.911
10316W        W69577   3.855   1.926   0.846
10317W        W69578   5.711  30.568   4.195
10318W        W69579  28.568  26.532   0.864
10319W        W69580  19.069  24.087  11.998
10320W        W69581  30.564  20.241  10.522
10321W        W69582  34.509  15.097   1.842
10322W        W69583  43.395  12.172  10.962
10323W        W69584  16.252  18.676   3.357
10324W        W69585  16.126  44.928  13.327
10325W        W69586  13.286  18.152  12.358
10326W        W69587  25.511   2.956   3.164
10327W        W69588  38.040  42.456   5.794
10328W        W69589  24.538   3.448   0.861
10329W        W69590  33.121  32.029  13.497
10330W        W69591  32.940  19.670   3.761
10331W        W69592  34.531  30.652   3.166
10332W        W69593   2.854   2.934  12.345
10333W        W69594  20.657  21.621  13.935
10334W        W69595  12.663  22.172   3.838
10335W        W69596  39.386   3.406   0.472
10336W        W69597  42.325  12.753   4.160
10337W        W69598  12.853  35.377   3.668
10338W        W69599  39.464  27.130   2.326
10339W        W69600  30.130  44.445   4.811
10340W        W69601  33.062  22.735  14.977
10341W        W69602  26.102  12.213   3.692
10342W        W69603  21.682  17.119  11.568
10343W        W69604   2.275   4.761   5.161
10344W        W69605  13.118  14.135   0.879
10345W        W69606  27.195  20.205  14.327
10346W        W69607  18.263  23.208   2.760
10347W        W69608  41.485  28.132   0.321
10348W        W69609  30.097  17.068  11.415
10349W        W69610  31.021   1.949   1.293
10350W        W69611  18.144  34.541  12.579
10351W        W69612  41.992  11.307   3.364
10352W        W69613  35.450  44.828   1.387
10353W        W69614   5.858  10.787  13.510
10354W        W69615  30.648  14.171  13.815
10355W        W69616  37.421  39.902  12.051
10356W        W69617   7.784   1.454   4.743
10357W        W69618  35.590  36.424   3.272
10358W        W69619   8.299   4.340   4.154
10359W        W69620  35.057   3.954  14.953
10360W        W69621  20.130  40.839  13.879
10361W        W69622  43.345   9.834  14.412
10362W        W69623   5.345  38.330  11.441
10363W        W69624   8.668  42.996  13.415
10364W        W69625  10.853  43.922   1.253
10365W        W69626  26.174   7.310   1.773
10366W        W69627  37.393  32.104   2.810
10367W        W69628  11.325  25.476   1.922
10368W        W69629  23.228  38.514   4.663
10369W        W69630  10.146  28.572   0.925
10370W        W69631   5.926   7.760  11.376
10371W        W69632   1.966  40.307   4.275
10372W        W69633  10.189  29.919   1.447
10373W        W69634  11.624  42.413  11.114
10374W        W69635  42.288  14.236   2.227
10375W        W69636   4.705  36.985   0.889
10376W        W69637   9.299  39.451  13.441
10377W        W69638  22.737  39.960  12.450
10378W        W69639  18.743  22.105   9.509
10379W        W69640  16.241   9.768  11.509
10380W        W69641  36.431  31.986   0.405
10381W        W69642  18.097  29.539   4.830
10382W        W69643   4.317  11.723  12.852
10383W        W69644  15.321  25.516  10.616
10384W        W69645  32.490  17.139  14.489
10385W        W69646   7.370  23.123  14.289
10386W        W69647  33.987  42.478   2.355
10387W        W69648   3.307   2.276  11.909
10388W        W69649  42.341  33.997   1.887
10389W        W69650  44.336  15.629   2.873
10390W        W69651  23.499   5.739   2.330
10391W        W69652  39.453  32.057   5.127
10392W        W69653  25.966  29.668   4.301
10393W        W69654  36.888   6.275  11.442
10394W        W69655  21.046   6.898   3.256
10395W        W69656  44.967   1.448   2.664
10396W        W69657  21.558  18.141   3.688
10397W        W69658  22.094  21.654   5.171
10398W        W69659  13.662   3.293  14.017
10399W        W69660  27.650  41.887   2.828
10400W        W69661   7.220  11.323   0.483
10401W        W69662  18.100  18.066  11.951
10402W        W69663  37.415  28.970   0.459
10403W        W69664  42.375  36.551   3.823
10404W        W69665  44.802   9.858  14.375
10405W        W69666   3.792  24.022  12.447
10406W        W69667  41.456  23.027  10.411
10407W        W69668  37.360  40.526   2.182
10408W        W69669   2.898  12.651   1.240
10409W        W69670   6.191  19.695   2.737
10410W        W69671   2.373   0.844   0.443
10411W        W69672  23.115  35.573   0.297
10412W        W69673  15.765  18.190   3.215
10413W        W69674  11.292  35.426  11.502
10414W        W69675  22.045  10.223  11.525
10415W        W69676   6.242  28.629   4.301
10416W        W69677  21.150   5.224   0.878
10417W        W69678  12.288  40.383   1.830
10418W        W69679  44.358  31.148   1.741
10419W        W69680  26.644  13.787  11.517
10420W        W69681  32.999   5.725   3.280
10421W        W69682  17.664   0.279   0.416
10422W        W69683  41.896  35.013  13.454
10423W        W69684   7.179   0.396  13.469
10424W        W69685  12.299   1.436   1.915
10425W        W69686  36.469   9.748  13.883
10426W        W69687  11.306  40.042   1.728
10427W        W69688  32.532  35.491  14.363
10428W        W69689  11.708  26.604   3.776
10429W        W69690   6.372  12.120   2.248
10430W        W69691  10.224  11.360   0.910
10431W        W69692  38.431  29.558   1.297
10432W        W69693  24.008  33.988  12.530
10433W        W69694  10.324   1.359   3.172
10434W        W69695  40.497  40.945   3.249
10435W        W69696  28.546  24.558  13.502
10436W        W69697  30.067  33.522   0.374
10437W        W69698  11.359  40.944  10.585
10438W        W69699  12.775  14.834  14.946
10439W        W69700  10.823  22.720   3.660
10440W        W69701   0.803  15.711  14.394
10441W        W69702   2.821   6.201   1.343
10442W        W69703  17.085  12.848   4.834
10443W        W69704  28.527   5.734  12.512
10444W        W69705  30.643  29.595  13.895
10445W        W69706  24.005  22.518   4.326
10446W        W69707  24.095  41.499   4.251
10447W        W69708  10.228  19.113   3.769
10448W        W69709   9.193  41.900  10.539
10449W        W69710  20.268  18.606   3.718
10450W        W69711   8.798  11.686   3.258
10451W        W69712  29.090  33.963  10.893
10452W        W69713   4.383   6.789   2.808
10453W        W69714  33.917  27.629   3.322
10454W        W69715  39.014  42.350   0.967
10455W        W69716  16.149   8.231  12.029
10456W        W69717  13.632  36.041  12.400
10457W        W69718  12.185  16.176  14.956
10458W        W69719  24.004  32.921  13.826
10459W        W69720  22.187   8.808   4.257
10460W        W69721  27.153   1.451  11.050
10461W        W69722  32.461  31.564  13.967
10462W        W69723  25.065  10.766   3.714
10463W        W69724  43.400   8.200  11.413
10464W        W69725   6.186   8.799   3.343
10465W        W69726  34.112  27.052  12.548
10466W        W69727  34.416   9.179   0.309
10467W        W69728  39.316  35.486  14.370
10468W        W69729  36.937  43.418   0.389
10469W        W69730  31.044   4.386   4.792
10470W        W69731  15.793  23.540  12.844
10471W        W69732   5.290   7.321  14.791
10472W        W69733  19.756   4.375  10.972
10473W        W69734  26.020  41.831  10.625
10474W        W69735   5.786  31.999  10.448
10475W        W69736  43.503  40.030   2.810
10476W        W69737   2.930  12.762   3.209
10477W        W69738   2.451  18.709   1.849
10478W        W69739  23.590  16.585   3.179
10479W        W69740  17.762  15.785  12.509
10480W        W69741  14.593  44.895   0.894
10481W        W69742  38.333  33.094  13.458
10482W        W69743   3.710   1.816   0.338
10483W        W69744  42.439  14.663  11.480
10484W        W69745  39.523  31.446  12.494
10485W        W69746  10.829  16.227  12.998
10486W        W69747  20.233   6.228   0.371
10487W        W69748  17.652   7.376  11.413
10488W        W69749  14.633  12.272   1.771
10489W        W69750   8.227  13.737  11.467
10490W        W69751   7.297   7.191  14.761
10491W        W69752  28.945  32.073  12.370
10492W        W69753  44.941   1.409   0.352
10493W        W69754   0.411  22.216   2.761
10494W        W69755  37.434   9.310   0.855
10495W        W69756  38.442  11.652  13.012
10496W        W69757  20.745   7.682  14.288
10497W        W69758  43.965   9.647  10.472
10498W        W69759  23.202  11.286  11.587
10499W        W69760  31.587  35.589   1.431
10500W        W69761  17.782  42.509   0.472
10501W        W69762  42.379  20.259  12.929
10502W        W69763  31.944  42.433   3.332
10503W        W69764  20.122  26.080  11.390
10504W        W69765  32.063   0.924  10.502
10505W        W69766  35.407  38.848  12.904
10506W        W69767  10.218   8.816   4.132
10507W        W69768  33.924  13.213  12.092
10508W        W69769  13.108   8.700  13.814
10509W        W69770   8.887  34.518  10.898
10510W        W69771  26.064  37.399  12.079
10511W        W69772  25.649  41.985   4.319
10512W        W69773   5.795  23.173   4.284
10513W        W69774  23.039  23.630   3.165
10514W        W69775  29.047  13.181  11.383
10515W        W69776  23.732  30.051   3.375
10516W        W69777  21.622  44.299  13.841
10517W        W69778  37.543   7.219   1.314
10518W        W69779  37.443  11.680   0.945
10519W        W69780  39.897   5.343  14.891
10520W        W69781  39.977  26.149   3.852
10521W        W69782  10.312  23.136  12.369
10522W        W69783   5.412   7.912   1.220
10523W        W69784  29.936  20.187   1.309
10524W        W69785  42.817  23.216  12.578
10525W        W69786  41.953   3.262   0.323
10526W        W69787  22.604  22.563   1.899
10527W        W69788  18.281  18.170   9.603
10528W        W69789  38.827   8.749   3.226
10529W        W69790  44.863   4.436   3.280
10530W        W69791   6.421  44.906  11.036
10531W        W69792   8.271  18.791   4.165
10532W        W69793   0.893  38.494   2.852
10533W        W69794  38.995   0.950   4.133
10534W        W69795  35.943  28.672   1.338
10535W        W69796  14.300  43.362   2.246
10536W        W69797  30.643   1.812   1.309
10537W        W69798  15.704  15.202  10.065
10538W        W69799   2.360   7.774   3.864
10539W        W69800  43.329  23.658  13.798
10540W        W69801   7.351  32.107  14.315
10541W        W69802  28.947  33.898   5.098
10542W        W69803   1.332  11.641  13.522
10543W        W69804  22.660  23.588  13.388
10544W        W69805  15.763   8.796   4.288
10545W        W69806  28.999   7.252   2.869
10546W        W69807  37.432  16.808   3.183
10547W        W69808  44.774   5.200  12.527
10548W        W69809   4.856  24.050   4.159
10549W        W69810  33.570   8.325  14.031
10550W        W69811  29.491  33.430   1.836
10551W        W69812   0.820  31.125   2.274
10552W        W69813  24.514   9.203   4.669
10553W        W69814   7.809  30.072   1.437
10554W        W69815  36.521  22.040   2.755
10555W        W69816   5.280  29.485  13.540
10556W        W69817  12.303  16.119   4.116
10557W        W69818  11.142  36.457  11.486
10558W        W69819  13.685  25.027   4.288
10559W        W69820  29.546  31.570  10.454
10560W        W69821   0.304  28.598   2.747
10561W        W69822  43.309   3.835   1.831
10562W        W69823  33.425   7.375  14.459
10563W        W69824   2.449  18.224   0.930
10564W        W69825  10.751   6.790   1.789
10565W        W69826  40.948   8.776  13.407
10566W        W69827   6.343  36.903  14.340
10567W        W69828   8.748   1.846   1.284
10568W        W69829   1.236   7.821  12.542
10569W        W69830  28.074   2.874   9.929
10570W        W69831  29.587  21.075   1.910
10571W        W69832  12.699  23.076  14.347
10572W        W69833  10.363   0.427   2.795
10573W        W69834  28.956  29.116  13.976
10574W        W69835  11.767  42.902   5.309
10575W        W69836   1.406  36.558   0.324
10576W        W69837  31.447  15.176   3.644
10577W        W69838  34.013  30.468   4.214
10578W        W69839  39.835  16.715  12.492
10579W        W69840  25.124  31.516   4.811
10580W        W69841  11.162  43.877  11.500
10581W        W69842  14.593  33.924   3.270
10582W        W69843   1.471   6.862   2.380
10583W        W69844  16.165  44.466  10.968
10584W        W69845  32.116  11.188   2.876
10585W        W69846  41.871  16.718  12.513
10586W        W69847  38.922   3.421   4.772
10587W        W69848  37.869  32.120   4.302
10588W        W69849   5.310  39.411  14.415
10589W        W69850   6.903  25.173   4.114
10590W        W69851   0.426   5.372  12.562
10591W        W69852  32.045  15.616  13.821
10592W        W69853  44.893   0.479  13.488
10593W        W69854   9.770   2.412  11.605
10594W        W69855  13.642  30.514   4.146
10595W        W69856   4.419  18.259  13.491
10596W        W69857  23.545   2.359  13.919
10597W        W69858   3.931  20.658  11.090
10598W        W69859  37.467  22.107  10.009
10599W        W69860  41.838   9.861  12.409
10600W        W69861   5.863  17.188   0.300
10601W        W69862  31.582   4.393   2.678
10602W        W69863  31.486  18.173   3.791
10603W        W69864   9.155  27.613   2.341
10604W        W69865  19.762  27.111  13.014
10605W        W69866  12.855   1.901   3.330
10606W        W69867  32.917  16.105  14.433
10607W        W69868  17.183  24.505   4.313
10608W        W69869  31.646  15.150   0.820
10609W        W69870  42.967  18.697   4.262
10610W        W69871  35.010  28.120  10.432
10611W        W69872  43.833  16.783  13.013
10612W        W69873   3.835  27.959   0.812
10613W        W69874  44.387   9.658  12.541
10614W        W69875  36.532   7.313   9.948
10615W        W69876  11.727  36.042  10.963
10616W        W69877  37.949   0.397  12.034
10617W        W69878   0.895  23.656  12.064
10618W        W69879  11.293  36.568   1.222
10619W        W69880  16.607  43.446   2.800
10620W        W69881  23.241  27.593  13.898
10621W        W69882  12.301  35.001   1.833
10622W        W69883   8.372  11.810   3.790
10623W        W69884   3.826  39.977  10.597
10624W        W69885  13.826   1.929   0.781
10625W        W69886  30.560  41.451   1.312
10626W        W69887  40.933  12.740   4.126
10627W        W69888  15.142  21.203   3.285
10628W        W69889  30.608   1.365   1.777
10629W        W69890   9.178  43.977  10.556
10630W        W69891   3.848   7.284   4.160
10631W        W69892   3.308  32.069  14.985
10632W        W69893  43.950  29.656  13.999
10633W        W69894  36.897  44.491   4.816
10634W        W69895  12.289  13.629   5.090
10635W        W69896  16.115  19.183  14.008
10636W        W69897  44.956  22.677   4.157
10637W        W69898  33.526   4.845   3.751
10638W        W69899  40.831  20.678   4.731
10639W        W69900  33.042   1.932   1.713
10640W        W69901  30.062  22.578   1.817
10641W        W69902  18.570   6.893  12.530
10642W        W69903  27.122  11.830   0.866
10643W        W69904  30.117  26.553  12.980
10644W        W69905  32.406  10.721   0.935
10645W        W69906   7.837   6.255  13.311
10646W        W69907  12.311  29.643   2.248
10647W        W69908  39.511   4.424   0.381
10648W        W69909  41.805   2.391  12.391
10649W        W69910  31.962  10.828   1.443
10650W        W69911  23.174  39.493   2.787
10651W        W69912  39.423  13.266   4.613
10652W        W69913   7.670  39.946   2.248
10653W        W69914  11.790  21.044   3.185
10654W        W69915  23.993  11.776   0.795
10655W        W69916  17.715  33.571   0.895
10656W        W69917  10.752   9.729  13.061
10657W        W69918  16.175  29.956   3.335
10658W        W69919  42.837   6.388  10.630
10659W        W69920  23.142  38.499   2.295
10660W        W69921   8.659  18.168  14.826
10661W        W69922  23.172  17.158  14.854
10662W        W69923   5.789  29.532   4.637
10663W        W69924  28.519  36.017  13.339
10664W        W69925   2.278  24.519   4.723
10665W        W69926  38.331  40.031  11.015
10666W        W69927  14.159  16.309   0.346
10667W        W69928   9.300   3.412   2.359
10668W        W69929  30.968  26.003  13.897
10669W        W69930  14.824   6.220   0.756
10670W        W69931  41.478  11.331   4.609
10671W        W69932  42.905   7.341  11.865
10672W        W69933  26.153  14.619   3.730
10673W        W69934  42.421  42.285  14.008
10674W        W69935  26.088  18.737   1.444
10675W        W69936  18.696  10.235   2.258
10676W        W69937  39.004  26.106   2.798
10677W        W69938   5.403  42.804   3.667
10678W        W69939  18.692  17.133   0.367
10679W        W69940  24.137  19.237   0.427
10680W        W69941  16.766  12.611   0.358
10681W        W69942  39.928   6.738   1.826
10682W        W69943   2.301  29.079   2.674
10683W        W69944  10.194  12.717   3.800
10684W        W69945   4.770  37.473  12.518
10685W        W69946  33.046  37.888   3.291
10686W        W69947  38.935  25.174   3.264
10687W        W69948  39.340   4.440   1.357
10688W        W69949  31.096  17.623   3.788
10689W        W69950  20.173  15.325   1.919
10690W        W69951  44.432   8.251   1.759
10691W        W69952  31.412  16.574  14.399
10692W        W69953  10.208  40.908  10.414
10693W        W69954  23.725  21.676   0.361
10694W        W69955  10.703  40.375   1.818
10695W        W69956  16.679  31.090   2.369
10696W        W69957  44.382  37.958  12.002
10697W        W69958   7.235   9.278   2.279
10698W        W69959  21.590  40.504  13.458
10699W        W69960  19.605  13.783   0.745
10700W        W69961  16.103  38.903   3.867
10701W        W69962  42.939  16.283   3.301
10702W        W69963  25.610   0.419   0.780
10703W        W69964  44.889  13.692  11.883
10704W        W69965  33.131  39.375   9.525
10705W        W69966  19.748  36.915  12.371
10706W        W69967  26.515  13.318   1.393
10707W        W69968  33.011  16.778   1.730
10708W        W69969  20.622  10.169  13.825
10709W        W69970   7.327  27.628   2.734
10710W        W69971  33.886  35.499   0.726
10711W        W69972   5.322  17.689   2.317
10712W        W69973  35.040  35.547   1.219
10713W        W69974  25.094  13.244   0.758
10714W        W69975  37.962  37.032  11.511
10715W        W69976  33.613  13.181   4.735
10716W        W69977  23.568   0.939   4.281
10717W        W69978  31.623  13.177  14.379
10718W        W69979  21.662  23.556   3.833
10719W        W69980  26.100  20.245  14.023
10720W        W69981  31.103  21.669   0.966
10721W        W69982  36.555  20.171  14.399
10722W        W69983  32.935  26.123  12.392
10723W        W69984  12.219  17.591  11.058
10724W        W69985  14.123  22.695   1.839
10725W        W69986   8.346  31.108   1.311
10726W        W69987  23.102  10.772   1.265
10727W        W69988   1.287   1.336  13.901
10728W        W69989  30.137  39.520  12.519
10729W        W69990  35.909  28.122   3.785
10730W        W69991  33.412  17.121   2.306
10731W        W69992   2.413  32.428   2.734
10732W        W69993  40.867   5.426  12.513
10733W        W69994  16.631  18.630   0.890
10734W        W69995  13.195   9.740   0.945
10735W        W69996   0.867  18.188   3.646
10736W        W69997  32.018  35.955  13.364
10737W        W69998  44.856   9.673  10.581
10738W        W69999  36.582  42.893   1.285
10739W        W70000  32.531  23.667   4.813
10740W        W70001  23.595  38.984   4.201
10741W        W70002   3.335  21.715  13.369
10742W        W70003  14.136  25.079  10.148
10743W        W70004  31.933  20.192  12.545
10744W        W70005  31.458  31.021  11.505
10745W        W70006   2.286   2.326   2.316
10746W        W70007  25.168  39.379  10.415
10747W        W70008  31.557  40.918  14.785
10748W        W70009  32.086   8.796  14.402
10749W        W70010   8.795  33.614   1.409
10750W        W70011  21.210  26.572   2.415
10751W        W70012  23.031   2.328   4.766
10752W        W70013  13.695  18.157   4.830
10753W        W70014  16.632   8.196   2.193
10754W        W70015  19.538  32.444   1.801
10755W        W70016  26.138  11.128  11.572
10756W        W70017  38.045  11.654   4.809
10757W        W70018  28.992  31.601  11.871
10758W        W70019  34.020  28.476  12.572
10759W        W70020  28.644  40.459   4.626
10760W        W70021  28.015  33.485  12.548
10761W        W70022  12.622  34.554  12.472
10762W        W70023  37.432  19.732   0.440
10763W        W70024  11.623   0.253   2.723
10764W        W70025   8.354  25.133  11.436
10765W        W70026  25.175  41.831  13.450
10766W        W70027  24.524   0.256   1.251
10767W        W70028  24.018  17.778  12.520
10768W        W70029  24.999  32.546  13.435
10769W        W70030  14.780  19.749  14.946
10770W        W70031  14.207  10.339  11.970
10771W        W70032  29.494  25.531   0.910
10772W        W70033  20.721   4.804   2.230
10773W        W70034  24.091  43.773  11.125
10774W        W70035  30.939  15.123  10.583
10775W        W70036   6.293  19.560   0.772
10776W        W70037  10.281  39.424  10.574
10777W        W70038  35.395  15.670   2.196
10778W        W70039  12.774  36.591   4.722
10779W        W70040  32.450  39.553  14.294
10780W        W70041   3.308  17.752   3.831
10781W        W70042  26.199  14.662   0.440
10782W        W70043  37.917  24.603   1.894
10783W        W70044  42.900  43.499   3.812
10784W        W70045  36.065  31.538  14.436
10785W        W70046  23.072  43.296  14.478
10786W        W70047  44.860  31.620   3.849
10787W        W70048   5.823   9.816  13.810
10788W        W70049  16.279   0.444  12.354
10789W        W70050  32.062  14.142   1.230
10790W        W70051   6.835   0.430  12.085
10791W        W70052  11.308  41.291  14.458
10792W        W70053   5.335   6.845  13.011
10793W        W70054  24.512  18.732   4.340
10794W        W70055  34.110  13.142   0.361
10795W        W70056  22.718   8.855  10.442
10796W        W70057  44.469  30.518   0.442
10797W        W70058   3.794  18.647  14.806
10798W        W70059  40.499   2.235  14.896
10799W        W70060   7.717  11.794   5.284
10800W        W70061  31.490  15.734  11.128
10801W        W70062  11.347   8.777  13.903
10802W        W70063   9.853  13.793   5.632
10803W        W70064  11.313  42.330   2.720
10804W        W70065  31.933  43.430  12.355
10805W        W70066  44.456   2.929  12.568
10806W        W70067  13.695  21.646  10.618
10807W        W70068  29.163   1.934   1.904
10808W        W70069   5.307  16.631  10.634
10809W        W70070   1.800  32.967   4.135
10810W        W70071  24.162   5.734  11.994
10811W        W70072  35.446  22.108  13.062
10812W        W70073   2.393  44.990  14.888
10813W        W70074  42.456  30.428   4.743
10814W        W70075  17.743  23.019   4.647
10815W        W70076  25.683   3.725   4.738
10816W        W70077   3.366  37.069   3.154
10817W        W70078  36.357  44.830  10.079
10818W        W70079   6.363  23.671   2.306
10819W        W70080   5.407   9.266   3.767
10820W        W70081   7.343  25.695   1.835
10821W        W70082  19.109  44.329  14.824
10822W        W70083  44.956   3.739  14.493
10823W        W70084   8.366   9.843   1.748
10824W        W70085  24.190  16.661  11.526
10825W        W70086  15.259   4.925  11.533
10826W        W70087   6.257   3.387   3.357
10827W        W70088  23.699  33.426  11.113
10828W        W70089  24.023  41.847  12.503
10829W        W70090   3.350   0.250   3.370
10830W        W70091  43.328  33.492  11.586
10831W        W70092  29.007  19.573  12.483
10832W        W70093  37.371  16.184   4.292
10833W        W70094  29.458  22.569   0.805
10834W        W70095  43.986  31.030   3.716
10835W        W70096  39.375   7.248  13.806
10836W        W70097   3.839  15.135   2.336
10837W        W70098   1.297  40.383  12.362
10838W        W70099   8.718  30.609   3.827
10839W        W70100  34.589   0.832   4.166
10840W        W70101   4.230  12.679  13.976
10841W        W70102  42.348  25.154   1.312
10842W        W70103  26.598  23.730   0.336
10843W        W70104  20.538   4.375   1.361
10844W        W70105   5.731  13.761  12.442
10845W        W70106  19.551  14.593   4.315
10846W        W70107  24.206   9.764   4.715
10847W        W70108  40.043  20.202  10.988
10848W        W70109   6.218  10.816  13.320
10849W        W70110  37.414   0.488   2.666
10850W        W70111   6.817  15.676   4.255
10851W        W70112  39.927   5.315   2.209
10852W        W70113   2.788  11.730   3.281
10853W        W70114  24.170  18.638   2.890
10854W        W70115  37.013  10.857  12.527
10855W        W70116  12.358  23.696   1.321
10856W        W70117  38.894  24.990   4.166
10857W        W70118  15.756  29.513  13.535
10858W        W70119  33.027  39.407  14.973
10859W        W70120   8.340  10.199  14.949
10860W        W70121  37.849  43.452  10.407
10861W        W70122  14.299   2.339   1.308
10862W        W70123  15.260  36.367   0.793
10863W        W70124  44.316   4.222   4.618
10864W        W70125  44.906   7.321  14.895
10865W        W70126  30.599  16.244   3.780
10866W        W70127   4.252   9.384   0.472
10867W        W70128  29.942   3.771  10.918
10868W        W70129  12.185  30.466  10.501
10869W        W70130  30.487   6.868   0.947
10870W        W70131   8.836   2.422  14.784
10871W        W70132  29.592   1.289  12.026
10872W        W70133   2.773  41.936  14.953
10873W        W70134   7.728  22.138  10.901
10874W        W70135  35.477  43.503   0.894
10875W        W70136  40.929  33.051   2.731
10876W        W70137  22.676  43.958  13.543
10877W        W70138  11.253  28.595  13.022
10878W        W70139  43.901  42.287   3.219
10879W        W70140  33.539  13.319   3.255
10880W        W70141   4.350  27.640   0.890
10881W        W70142  10.260  28.577   0.267
10882W        W70143  31.099  42.346   3.848
10883W        W70144  24.013  26.184   5.690
10884W        W70145  13.172  23.604  14.796
10885W        W70146   2.877  42.422   0.901
10886W        W70147  27.593  41.003  13.030
10887W        W70148   4.385  10.291   4.647
10888W        W70149  45.000  43.889  11.098
10889W        W70150  13.264   7.370   0.268
10890W        W70151  28.096   9.361  14.328
10891W        W70152  27.096   6.281   4.801
10892W        W70153  21.129  16.658   2.793
10893W        W70154  41.992  15.187   3.171
10894W        W70155  33.978   6.763   0.432
10895W        W70156  22.012  26.124   1.347
10896W        W70157   3.929  40.048  13.063
10897W        W70158  34.601   9.201  10.988
10898W        W70159  26.023  30.135   1.410
10899W        W70160  26.966  31.986   3.214
10900W        W70161   5.689  19.125  10.898
10901W        W70162  30.996  32.485  12.572
10902W        W70163  40.520  22.074   2.744
10903W        W70164  14.679  43.855   4.788
10904W        W70165  18.182  22.611  10.589
10905W        W70166  25.053   5.225  11.886
10906W        W70167  11.205  12.219  13.488
10907W        W70168  41.800  41.333   0.478
10908W        W70169  27.139  16.130   3.316
10909W        W70170   3.271   9.837  12.577
10910W        W70171  29.604  19.545  14.824
10911W        W70172  27.664  31.059  12.916
10912W        W70173   1.764   0.303   0.842
10913W        W70174  33.056  25.580   4.803
10914W        W70175   6.314  12.245  14.901
10915W        W70176  33.444  35.507   9.648
10916W        W70177  19.640  20.161   1.443
10917W        W70178  24.546  22.038  11.887
10918W        W70179  24.166  35.555   2.417
10919W        W70180  33.066  30.134   4.690
10920W        W70181  34.447   8.814   0.462
10921W        W70182  21.057  11.826   4.736
10922W        W70183  20.690  35.431   1.863
10923W        W70184  32.528  30.552   0.923
10924W        W70185  43.922  32.986   2.858
10925W        W70186  40.492  11.230  11.467
10926W        W70187  30.566  28.113   0.947
10927W        W70188  36.553  13.144  11.516
10928W        W70189   3.367  20.184   4.792
10929W        W70190  18.552  34.904  10.593
10930W        W70191  43.790  35.972  11.887
10931W        W70192  17.117  41.020  11.948
10932W        W70193  17.568   1.894  13.844
10933W        W70194  38.489  27.072  13.533
10934W        W70195   3.269  32.084   0.802
10935W        W70196   2.744  11.683  12.529
10936W        W70197  23.695  27.461  14.802
10937W        W70198  33.447  18.742  12.089
10938W        W70199  11.148   7.848  12.940
10939W        W70200  43.867  34.596   1.365
10940W        W70201  38.937  17.208  13.328
10941W        W70202   9.876  36.096  13.986
10942W        W70203   5.724  10.796   4.739
10943W        W70204  18.220  12.179   0.877
10944W        W70205  19.109  35.880   1.840
10945W        W70206  36.386  32.122  12.531
10946W        W70207  18.239  39.968   3.865
10947W        W70208  35.512  31.574   0.859
10948W        W70209  12.141  29.957   1.365
10949W        W70210   2.956   3.857   2.777
10950W        W70211   8.777  22.525   0.276
10951W        W70212  28.134  41.976   4.751
10952W        W70213  29.472  40.352   3.226
10953W        W70214   8.305  25.584   0.323
10954W        W70215  26.563   7.325  14.509
10955W        W70216  28.064  15.232  10.989
10956W        W70217   2.737  30.562  10.412
10957W        W70218   8.381  30.968  13.804
10958W        W70219  19.665  40.928  12.542
10959W        W70220  35.932  27.513  11.985
10960W        W70221  30.473  33.398  10.891
10961W        W70222  25.196  28.470  10.505
10962W        W70223   5.319  32.944  10.424
10963W        W70224  33.059  37.919  13.811
10964W        W70225  22.100  27.591   1.871
10965W        W70226  10.174  30.511  10.904
10966W        W70227   3.452   8.776   0.321
10967W        W70228  27.535  12.770  12.849
10968W        W70229  35.378  22.656   1.298
10969W        W70230  42.935  30.593   3.865
10970W        W70231   9.386  15.298  14.937
10971W        W70232   4.900   5.434  12.571
10972W        W70233  16.154  39.502  12.060
10973W        W70234  44.410  12.252   0.727
10974W        W70235  11.725   6.816  12.380
10975W        W70236   8.259  24.122  13.827
10976W        W70237  42.432  18.288  10.973
10977W        W70238   4.702  23.637   1.329
10978W        W70239  23.571  34.064   0.275
10979W        W70240  13.172  24.102  13.526
10980W        W70241  32.613  24.543   4.165
10981W        W70242  18.122  37.494  12.044
10982W        W70243  15.164  14.589   5.712
10983W        W70244  19.762  25.215   1.279
10984W        W70245  36.938  39.915   2.258
10985W        W70246  24.089  40.918   3.281
10986W        W70247  37.415   9.371   2.300
10987W        W70248  18.164   5.243   4.707
10988W        W70249  17.702  17.179  14.011
10989W        W70250  16.253  13.244   4.213
10990W        W70251   7.290   9.312  10.493
10991W        W70252  44.294   7.816   1.720
10992W        W70253  42.822   3.456   4.251
10993W        W70254  12.748  39.861  10.983
10994W        W70255  42.015  39.444  11.488
10995W        W70256  31.048  25.141   2.195
10996W        W70257   3.386  22.161  14.374
10997W        W70258  42.308   4.756  12.431
10998W        W70259  44.926   6.230   0.771
10999W        W70260  26.605   1.938  13.844
11000W        W70261  36.447  29.591  14.385
11001W        W70262   8.681   8.835  14.359
11002W        W70263  42.840  40.809  13.006
11003W        W70264  39.984  35.996   2.250
11004W        W70265   8.873  22.512   0.908
11005W        W70266  16.590  27.477   9.445
11006W        W70267  15.720  35.968  11.991
11007W        W70268  40.800  43.846   2.293
11008W        W70269  11.244  29.469  13.319
11009W        W70270  38.539  29.016   1.348
11010W        W70271  25.154  42.811  14.814
11011W        W70272  17.748  16.766   2.406
11012W        W70273   8.855  30.656   4.628
11013W        W70274  13.115  30.572   0.761
11014W        W70275  37.476   5.224   4.807
11015W        W70276   5.918  13.300   3.169
11016W        W70277  17.300  37.570   3.694
11017W        W70278  32.908  10.365   0.416
11018W        W70279   6.315  32.461   4.747
11019W        W70280  33.623  34.425  12.480
11020W        W70281  26.078   3.847  10.599
11021W        W70282  22.720  26.994  11.089
11022W        W70283  20.178  10.811   3.669
11023W        W70284  24.617  14.736   3.231
11024W        W70285  26.064  34.493  11.899
11025W        W70286  23.662  43.826  14.405
11026W        W70287  43.890  11.814  10.924
11027W        W70288   9.319   3.913  11.393
11028W        W70289  18.751  42.392   2.670
11029W        W70290  19.132  27.504   3.210
11030W        W70291  18.238  23.127  13.855
11031W        W70292  24.126  18.181  11.871
11032W        W70293  29.506   9.208  14.462
11033W        W70294   9.231  43.846  10.976
11034W        W70295   7.304  36.516  10.921
11035W        W70296  38.975  26.952  12.962
11036W        W70297  42.427  30.041  12.353
11037W        W70298   3.818   3.372  13.518
11038W        W70299  31.013  43.276   3.291
11039W        W70300  41.453  26.547   0.419
11040W        W70301  40.011  38.022   5.103
11041W        W70302  29.992  19.196  12.546
11042W        W70303  34.535  39.413   4.150
11043W        W70304  31.051  42.966   1.887
11044W        W70305   1.763   8.699  14.471
11045W        W70306  14.774   7.813  13.396
11046W        W70307  26.509   7.804   1.263
11047W        W70308   1.344   4.926  13.534
11048W        W70309  44.778  12.828  13.054
11049W        W70310  37.891  10.800   2.182
11050W        W70311  12.795  10.818  13.826
11051W        W70312   7.177   7.364  13.799
11052W        W70313  20.725  13.658   3.351
11053W        W70314   5.829  18.222   0.401
11054W        W70315  41.916  14.266   0.283
11055W        W70316  29.959  41.517   2.178
11056W        W70317  38.526  12.201  12.975
11057W        W70318  10.655  42.936   4.176
11058W        W70319  28.112  34.491   0.796
11059W        W70320  16.156  43.440  11.034
11060W        W70321   7.292  16.760   3.374
11061W        W70322  41.034   2.272  10.966
11062W        W70323  18.669  18.204   5.595
11063W        W70324  31.426  25.591   4.124
11064W        W70325   8.368   8.344  12.353
11065W        W70326  42.424  19.556  12.347
11066W        W70327  39.508  16.300  13.036
11067W        W70328  39.445  28.166   3.811
11068W        W70329   1.787  14.102  14.465
11069W        W70330  34.022   3.732   3.380
11070W        W70331  40.959  29.573   1.831
11071W        W70332  14.243  34.873   4.809
11072W        W70333  20.728  41.451   4.345
11073W        W70334  34.090   5.204   0.946
11074W        W70335   3.857  34.494   0.745
11075W        W70336  27.018  10.738  11.074
11076W        W70337  22.595  12.324   3.386
11077W        W70338   0.390  15.593  12.416
11078W        W70339  29.506   3.719  13.539
11079W        W70340   4.700   9.853  12.386
11080W        W70341  30.646  10.360   3.676
11081W        W70342   7.400  22.046   0.383
11082W        W70343  18.605   6.726   1.339
11083W        W70344   6.861  31.037  14.378
11084W        W70345  32.987  42.991   2.377
11085W        W70346  24.545  21.527   0.848
11086W        W70347  24.664   2.899  11.037
11087W        W70348  13.235   3.902   2.710
11088W        W70349  42.808   8.695   0.850
11089W        W70350  33.496  37.943   4.202
11090W        W70351  36.507  12.619   3.756
11091W        W70352  29.064  39.933  12.890
11092W        W70353  20.118  19.106   1.268
11093W        W70354  19.645  25.661   3.754
11094W        W70355  25.188  19.134  11.009
11095W        W70356  23.604  11.204  11.585
11096W        W70357   6.408  42.961  12.506
11097W        W70358  18.235  29.586   1.906
11098W        W70359  40.832   7.189   3.690
11099W        W70360  19.098  18.590  10.470
11100W        W70361  36.923  26.060   0.475
11101W        W70362   0.396  23.635   4.808
11102W        W70363  18.127  24.131   1.827
11103W        W70364  27.121  11.646  12.479
11104W        W70365  39.040  28.136   4.653
11105W        W70366   1.758  43.370   4.725
11106W        W70367  25.680  15.613  11.373
11107W        W70368  21.051  15.675   2.232
11108W        W70369   7.344   1.374  12.354
11109W        W70370  43.347  29.580  11.501
11110W        W70371   7.344   3.872   3.860
11111W        W70372  17.293   3.344  10.947
11112W        W70373  33.553  28.132  10.903
11113W        W70374  18.226   2.427   2.323
11114W        W70375  39.833   1.426   1.260
11115W        W70376   4.767  22.510   3.307
11116W        W70377  17.080  13.622  10.608
11117W        W70378  29.138  25.520   2.356
11118W        W70379   3.747  31.616  14.391
11119W        W70380  31.940  17.194   1.930
11120W        W70381   5.842  23.233  11.606
11121W        W70382  39.864   3.257   0.469
11122W        W70383  18.257  11.817  11.872
11123W        W70384  42.838  17.209   0.755
11124W        W70385  21.703  43.937  11.033
11125W        W70386  40.920   5.814   0.746
11126W        W70387  26.151  21.734   3.335
11127W        W70388  23.220  29.433   1.435
11128W        W70389  31.995  26.645   0.285
11129W        W70390  11.234  41.843  12.366
11130W        W70391  22.563   8.886  13.315
11131W        W70392  20.235  43.929   1.918
11132W        W70393   9.219   3.767   1.784
11133W        W70394   1.382  34.458  13.478
11134W        W70395  30.435  24.586   0.264
11135W        W70396  23.068   8.160   4.289
11136W        W70397  20.763   0.925  11.065
11137W        W70398  23.713  36.405  10.598
11138W        W70399  30.655   1.903  11.427
11139W        W70400  16.186  17.277  10.983
11140W        W70401  31.523  21.255  12.529
11141W        W70402   4.842  19.121  13.416
11142W        W70403  43.496  24.481  13.308
11143W        W70404  19.573  31.539  13.055
11144W        W70405  43.008  22.689   2.371
11145W        W70406  40.371  23.584  11.474
11146W        W70407   4.698  17.246  14.797
11147W        W70408  21.647   0.880  14.835
11148W        W70409   7.667  29.128   2.252
11149W        W70410  34.039  15.705  10.429
11150W        W70411  44.457  33.596  14.950
11151W        W70412  32.453  38.880  10.017
11152W        W70413  43.986  12.845  11.510
11153W        W70414  37.879  28.961  14.885
11154W        W70415   8.346  20.230   2.776
11155W        W70416  24.110  44.901   2.789
11156W        W70417   8.839  29.466  11.976
11157W        W70418  35.363  18.071  13.490
11158W        W70419  44.308   3.828  14.864
11159W        W70420   9.754   4.207   4.640
11160W        W70421   0.968  29.599   0.887
11161W        W70422  36.492  40.911   3.321
11162W        W70423  44.502  43.505  13.028
11163W        W70424  28.164  34.016  14.351
11164W        W70425  40.397  11.708  11.943
11165W        W70426  12.721  28.083   2.265
11166W        W70427  26.159  22.201   3.636
11167W        W70428  25.493  42.911   5.154
11168W        W70429  28.457  10.162   1.377
11169W        W70430  17.155  20.630   0.478
11170W        W70431   8.715   5.889  13.362
11171W        W70432  37.897   3.754   0.737
11172W        W70433  43.498  42.460  12.415
11173W        W70434  33.006  31.992   5.312
11174W        W70435  21.546  16.577  10.583
11175W        W70436  23.060  23.655   5.174
11176W        W70437   9.205   6.838  10.624
11177W        W70438  27.017   5.392  12.468
11178W        W70439  41.469   3.864  11.980
11179W        W70440  19.264  10.214   2.854
11180W        W70441  39.856   8.718  12.483
11181W        W70442  30.013  17.233  13.805
11182W        W70443  33.008  43.434  14.775
11183W        W70444  23.491  14.719   0.923
11184W        W70445  10.800   7.733  13.415
11185W        W70446   5.749  34.932  13.025
11186W        W70447  10.695  35.855  12.084
11187W        W70448   7.816   3.949   3.774
11188W        W70449  32.900  28.010  13.401
11189W        W70450  26.087   3.268  11.049
11190W        W70451  27.506  39.388   1.695
11191W        W70452   0.411  43.882   4.175
11192W        W70453  35.089   6.833  12.532
11193W        W70454   0.979  28.434  12.891
11194W        W70455   7.271  23.098  12.409
11195W        W70456  19.704  10.250   0.341
11196W        W70457  35.017  23.989  14.426
11197W        W70458   7.868   1.873  13.033
11198W        W70459  15.173   2.368   4.187
11199W        W70460   5.287  20.104  11.881
11200W        W70461  20.639  44.794  13.814
11201W        W70462  34.909  30.535  11.933
11202W        W70463  20.054  11.198  10.554
11203W        W70464  24.129  44.289  12.015
11204W        W70465  20.700  30.579  14.853
11205W        W70466  22.649  16.807  13.466
11206W        W70467  35.578  33.465  14.284
11207W        W70468  37.447   7.801   2.835
11208W        W70469  24.544  32.898   4.694
11209W        W70470   3.839  32.099   0.880
11210W        W70471   6.233  38.435   4.697
11211W        W70472  33.901  34.022   5.246
11212W        W70473  13.619   0.248  12.412
11213W        W70474  25.602  18.577  14.389
11214W        W70475  27.971   7.843  10.426
11215W        W70476   6.857  21.194  13.007
11216W        W70477  33.962  25.217   1.300
11217W        W70478  15.166  37.040   0.799
11218W        W70479  22.055  10.323  13.534
11219W        W70480  38.040  11.269  11.076
11220W        W70481  39.862  38.991   4.227
11221W        W70482   3.379  30.939  12.389
11222W        W70483  21.722   8.811   2.318
11223W        W70484  40.529  26.132  13.037
11224W        W70485  10.852  19.667   3.747
11225W        W70486  25.645  21.628   2.902
11226W        W70487   6.334   0.357  11.032
11227W        W70488  11.649  21.624  14.878
11228W        W70489  33.590  35.416  13.511
11229W        W70490   2.915  32.948   1.413
11230W        W70491  41.869  25.702  12.904
11231W        W70492   3.833   3.268   2.885
11232W        W70493   6.699  24.124  11.040
11233W        W70494  44.849  42.307   1.774
11234W        W70495  41.363  32.526   0.397
11235W        W70496  30.554  17.170   2.705
11236W        W70497  41.387  30.526   3.686
11237W        W70498  22.704  15.323   2.845
11238W        W70499  35.473  17.661  13.432
11239W        W70500  42.853  14.105  12.892
11240W        W70501  28.026  12.735   4.339
11241W        W70502  30.058  20.524  12.980
11242W        W70503  24.215   3.908  13.419
11243W        W70504  42.468  12.807   0.770
11244W        W70505  13.319  10.317  12.556
11245W        W70506  35.531  38.958  12.372
11246W        W70507   0.344  14.119   5.308
11247W        W70508   3.780   2.805  13.508
11248W        W70509  24.708  36.487   4.829
11249W        W70510  22.102  41.928   1.443
11250W        W70511  13.325  24.997   9.976
11251W        W70512  10.140  38.866   2.750
11252W        W70513  22.734  19.710   0.270
11253W        W70514   9.813   5.854   4.287
11254W        W70515   2.309  26.495  13.422
11255W        W70516  25.093   2.298   0.357
11256W        W70517   6.350  14.207  10.528
11257W        W70518  29.019  12.699   3.221
11258W        W70519  42.829   3.779   0.393
11259W        W70520  17.629  10.672  13.328
11260W        W70521   1.740   6.199   1.763
11261W        W70522  18.091  16.233  11.953
11262W        W70523   8.657  37.570  14.002
11263W        W70524  35.377  26.962  12.401
11264W        W70525  14.128  28.540  14.947
11265W        W70526   2.877  27.481   3.244
11266W        W70527  32.510  13.271  10.511
11267W        W70528  25.478  19.607   0.885
11268W        W70529  40.868  27.598  13.476
11269W        W70530  33.048  10.372   1.884
11270W        W70531  43.945  17.270  10.414
11271W        W70532   1.837  44.859   0.819
11272W        W70533   0.955  10.854   0.302
11273W        W70534  31.032  44.460   2.309
11274W        W70535  27.967  10.319  10.134
11275W        W70536  39.966   2.444  11.430
11276W        W70537  21.594  36.896   3.780
11277W        W70538  14.324  35.047   1.256
11278W        W70539  10.639   5.383  14.454
11279W        W70540  26.700  41.379   2.729
11280W        W70541  29.619  32.931  13.541
11281W        W70542  11.765  24.189  10.567
11282W        W70543   1.432   9.263  11.593
11283W        W70544   6.210  20.754  14.879
11284W        W70545  39.319  23.712  12.919
11285W        W70546  12.774  38.822   3.361
11286W        W70547  33.571  28.604   2.704
11287W        W70548  11.756  23.731  10.941
11288W        W70549  34.948  25.578   4.627
11289W        W70550  40.020  25.686   4.264
11290W        W70551  19.180  27.945   3.270
11291W        W70552  18.591  31.539   2.715
11292W        W70553  38.028   8.818  14.971
11293W        W70554  11.272  44.351   0.951
11294W        W70555   8.200  17.257  14.333
11295W        W70556  38.035  36.946  12.420
11296W        W70557  24.154  43.952   1.402
11297W        W70558  23.075  35.968   1.284
11298W        W70559   7.853  44.266   5.218
11299W        W70560  22.618  32.493  13.960
11300W        W70561   4.292  30.145  11.501
11301W        W70562  38.994  21.201  12.969
11302W        W70563  36.403   0.984  12.487
11303W        W70564   4.711  31.563   0.275
11304W        W70565  31.915  37.037   2.690
11305W        W70566  40.036  29.988  13.501
11306W        W70567  41.374   1.877  12.467
11307W        W70568  23.000  11.846  13.546
11308W        W70569  30.626   0.879   4.214
11309W        W70570  22.626  12.168  14.014
11310W        W70571  32.465  29.640  12.352
11311W        W70572  22.539  40.333  13.799
11312W        W70573  39.980   5.282  11.580
11313W        W70574  34.561  30.493  13.533
11314W        W70575  28.954  14.203   4.641
11315W        W70576  44.002  18.732  13.474
11316W        W70577   8.866  21.529   2.781
11317W        W70578  19.284   5.399   3.354
11318W        W70579  13.253  36.419  11.549
11319W        W70580  16.632  22.033   0.359
11320W        W70581  37.887  42.783  13.893
11321W        W70582   3.438  24.689   2.709
11322W        W70583   1.378  42.027   2.669
11323W        W70584  44.827  27.633  10.511
11324W        W70585  10.317   2.233  11.438
11325W        W70586  14.797  33.976   0.818
11326W        W70587  27.105  40.464   4.282
11327W        W70588  19.653  30.510  14.308
11328W        W70589  29.618   3.341  13.824
11329W        W70590  13.249  29.090  14.958
11330W        W70591  39.974  13.827   1.703
11331W        W70592  35.884  29.566   1.789
11332W        W70593   6.894   4.751   9.973
11333W        W70594   9.346  42.920   2.385
11334W        W70595  27.155  16.617   2.817
11335W        W70596   5.237  33.025  12.042
11336W        W70597  21.240  37.043   0.765
11337W        W70598  23.725  26.094  13.423
11338W        W70599   1.398  41.969   3.696
11339W        W70600  25.648  19.250   0.735
11340W        W70601   9.324  35.444   2.803
11341W        W70602  15.136  44.416  13.929
11342W        W70603  31.037   5.885  13.934
11343W        W70604  24.579  41.014   0.893
11344W        W70605   5.259  10.156   2.334
11345W        W70606  18.644  21.022  13.039
11346W        W70607   0.272  30.547  11.020
11347W        W70608  15.743  14.284   1.823
11348W        W70609  15.183  29.437  11.872
11349W        W70610  18.547   1.361   4.611
11350W        W70611   7.717  13.683   2.836
11351W        W70612  14.239  40.977  10.453
11352W        W70613   0.352  13.804   3.291
11353W        W70614  34.056  24.617  10.404
11354W        W70615   2.910  15.739   2.349
11355W        W70616  18.158   3.879  13.483
11356W        W70617   3.844   1.852  11.519
11357W        W70618  19.103  18.172   4.713
11358W        W70619  32.636  37.387  12.415
11359W        W70620   6.365  18.185   4.156
11360W        W70621  13.135  35.984   5.306
11361W        W70622   6.280  15.212   2.693
11362W        W70623   0.383  43.984  10.608
11363W        W70624  34.111  10.812  12.985
11364W        W70625  38.332  14.181  13.314
11365W        W70626   4.719  35.368  11.966
11366W        W70627  31.627  43.345  13.488
11367W        W70628  18.147  24.206   0.410
11368W        W70629  28.176  23.720   3.791
11369W        W70630  28.542  18.247   1.333
11370W        W70631  17.693   1.766  12.368
11371W        W70632   8.188   4.933   0.804
11372W        W70633   4.908  23.520  14.383
11373W        W70634  22.070  29.050   3.293
11374W        W70635  40.399  27.035  13.822
11375W        W70636  41.496  16.660   0.763
11376W        W70637  21.139  37.881   2.324
11377W        W70638   1.941  16.258   4.718
11378W        W70639  29.999   2.264   0.789
11379W        W70640  23.527  26.986  12.029
11380W        W70641   7.727  27.149   4.661
11381W        W70642   7.893  23.509   1.253
11382W        W70643  34.599  11.372  10.984
11383W        W70644  14.638  38.516   2.814
11384W        W70645   3.352  13.336   2.395
11385W        W70646  40.810   8.328  10.933
11386W        W70647  24.564  37.406   2.201
11387W        W70648  29.934  13.832  14.849
11388W        W70649  38.528  17.729   3.263
11389W        W70650   5.825  16.142  13.893
11390W        W70651  24.058  39.829   2.370
11391W        W70652  36.440  26.152   0.412
11392W        W70653  31.921  35.522   3.251
11393W        W70654  12.677  14.302  13.793
11394W        W70655   0.357   7.320  13.945
11395W        W70656  42.791  36.096  11.025
11396W        W70657   6.204   7.315   2.289
11397W        W70658  27.037  13.751   2.818
11398W        W70659   0.968  23.058  10.410
11399W        W70660  12.120  28.555   3.867
11400W        W70661  26.599   0.343   4.116
11401W        W70662   0.431   6.847   4.691
11402W        W70663   8.265  32.573   2.247
11403W        W70664   9.868  12.309   0.926
11404W        W70665  36.041  32.047   1.782
11405W        W70666  25.489  27.144   0.928
11406W        W70667  33.605   8.803  13.843
11407W        W70668   6.816  12.820   1.225
11408W        W70669   8.286  20.043  14.308
11409W        W70670  15.814  23.646   3.771
11410W        W70671  14.834   2.749  12.848
11411W        W70672  41.853  23.653  13.846
11412W        W70673  12.334  24.093   4.687
11413W        W70674  11.216  26.968  11.434
11414W        W70675  26.058  40.011   3.771
11415W        W70676   6.360  39.871  14.885
11416W        W70677  32.003   3.238  10.961
11417W        W70678  23.516  13.320   2.411
11418W        W70679  33.494   4.430   2.181
11419W        W70680  18.073   1.898   1.918
11420W        W70681  12.754  32.950  13.945
11421W        W70682  44.374  11.330  11.037
11422W        W70683   6.687  26.138  14.925
11423W        W70684  14.149  27.148  11.068
11424W        W70685  12.253  26.033  12.395
11425W        W70686  35.885  32.099   4.312
11426W        W70687   0.378  39.893  10.595
11427W        W70688   1.838  21.052   4.139
11428W        W70689  14.780  16.253  12.477
11429W        W70690   3.715  37.496   3.195
11430W        W70691  37.893  14.628  12.379
11431W        W70692  41.904  36.880   3.189
11432W        W70693  11.242  36.425   3.732
11433W        W70694   5.327  23.149  11.376
11434W        W70695  35.392  32.438   4.772
11435W        W70696   3.714  25.514   1.802
11436W        W70697  39.443  19.155   1.323
11437W        W70698  36.576  31.636   3.855
11438W        W70699  12.761   1.353  12.963
11439W        W70700  18.152   5.333  10.488
11440W        W70701   5.385  40.961  12.845
11441W        W70702  12.316  12.136   2.199
11442W        W70703  14.622  37.551   3.717
11443W        W70704   4.397  17.722   3.756
11444W        W70705  15.184  31.970   1.861
11445W        W70706  26.670  13.619   1.890
11446W        W70707  31.558   8.755  13.020
11447W        W70708   2.271  18.557   3.672
11448W        W70709  28.101  28.995   5.237
11449W        W70710   4.903  21.048  14.376
11450W        W70711  35.060  26.961   3.836
11451W        W70712  14.835  28.950   2.382
11452W        W70713  43.445  32.551  12.364
11453W        W70714  25.184  36.543  11.547
11454W        W70715  10.693   5.221  10.944
11455W        W70716  33.553  15.327  14.027
11456W        W70717   9.854   4.907   3.842
11457W        W70718  22.607  37.477   3.369
11458W        W70719  16.169  24.658   2.705
11459W        W70720  33.004  40.411   5.101
11460W        W70721  20.576   1.360  12.503
11461W        W70722  40.343  39.040   0.884
11462W        W70723   2.902   6.767  10.623
11463W        W70724  29.036  13.765  13.400
11464W        W70725  20.578   6.797   4.711
11465W        W70726   9.316  12.316   0.878
11466W        W70727  42.967  28.654  10.503
11467W        W70728  19.230  14.720   0.855
11468W        W70729  35.543  30.511   2.366
11469W        W70730  43.820  10.849   3.781
11470W        W70731  25.159  13.177   3.242
11471W        W70732  19.081   3.338  11.031
11472W        W70733   4.253   8.812  14.470
11473W        W70734  44.834  25.966  12.025
11474W        W70735  21.754  14.763  11.920
11475W        W70736  16.682  41.370  11.954
11476W        W70737  10.160  39.000  11.011
11477W        W70738  27.626  21.182   1.378
11478W        W70739   7.759  38.046  11.556
11479W        W70740  18.775  37.949   3.829
11480W        W70741   6.702  42.806  11.105
11481W        W70742  14.116  38.850   4.734
11482W        W70743   6.829  17.286  14.336
11483W        W70744  16.698   5.761   3.785
11484W        W70745   3.397  44.379  10.912
11485W        W70746  25.624  39.484  12.432
11486W        W70747  38.374  24.724  12.411
11487W        W70748  11.797   8.400  12.380
11488W        W70749   2.309   8.182   3.289
11489W        W70750  37.425  10.187  12.836
11490W        W70751  30.522  15.805  11.963
11491W        W70752   5.822   9.250  13.498
11492W        W70753  31.103  21.721  13.912
11493W        W70754  33.951  36.431  11.545
11494W        W70755  18.142  36.001   1.847
11495W        W70756  20.706   7.712   0.438
11496W        W70757  36.353  22.009   1.304
11497W        W70758  35.438  14.334   3.774
11498W        W70759  12.142  35.108   2.683
11499W        W70760  20.536  27.564  13.546
11500W        W70761   4.205   5.874  10.543
11501W        W70762   1.395  13.308   0.394
11502W        W70763  28.175   8.830  13.051
11503W        W70764   8.687   1.774   4.231
11504W        W70765  17.589   0.483  14.359
11505W        W70766  33.132  24.109   4.635
11506W        W70767  32.070  26.621   1.283
11507W        W70768  27.174   6.822  10.889
11508W        W70769  24.066  17.280   2.281
11509W        W70770  26.668   4.794   5.095
11510W        W70771   0.865   8.878  11.116
11511W        W70772  33.049  38.838   3.747
11512W        W70773  33.074   9.302   5.097
11513W        W70774  29.565  38.059  15.000
11514W        W70775  16.096  34.987  12.397
11515W        W70776  37.081  12.190  12.922
11516W        W70777  22.529  24.036   4.638
11517W        W70778  11.200  37.499   3.317
11518W        W70779  30.656   8.226  14.396
11519W        W70780  11.281  37.360   0.354
11520W        W70781  12.817  43.386   4.311
11521W        W70782  24.070  31.090  13.872
11522W        W70783   7.234  37.917   1.743
11523W        W70784  12.152  19.683  11.930
11524W        W70785   9.880   4.402   3.258
11525W        W70786   5.388  10.838   3.328
11526W        W70787  19.732  12.668   4.814
11527W        W70788   9.342  29.047   4.786
11528W        W70789  35.535  34.951   3.730
11529W        W70790  21.177  23.126  12.096
11530W        W70791   0.786  39.348   3.368
11531W        W70792  31.077  28.104   0.958
11532W        W70793  35.086  12.761  10.030
11533W        W70794  19.137  35.091  12.990
11534W        W70795  13.321  26.041   2.804
11535W        W70796  27.597  18.087  14.893
11536W        W70797  30.609   5.325  11.516
11537W        W70798  12.801  41.995  13.384
11538W        W70799  28.461   6.838  10.532
11539W        W70800  26.648   2.834  14.016
11540W        W70801  18.605  39.483  10.580
11541W        W70802  39.895  26.539  10.555
11542W        W70803  35.032   4.445   0.402
11543W        W70804  34.906   1.975  14.854
11544W        W70805  42.860   7.348  10.544
11545W        W70806  11.742  14.661  10.641
11546W        W70807  12.651  39.444   3.700
11547W        W70808   9.684   9.211   2.823
11548W        W70809  37.364   0.925   1.879
11549W        W70810  44.374  39.541  12.395
11550W        W70811  14.738   5.232  12.398
11551W        W70812  31.476  28.660   1.833
11552W        W70813  29.460  39.039   3.282
11553W        W70814  35.502  21.682  13.503
11554W        W70815  11.191  38.972  13.324
11555W        W70816  40.933  18.632  14.401
11556W        W70817  27.658   4.420  13.029
11557W        W70818  25.084  11.274  12.036
11558W        W70819  25.994  38.552  10.471
11559W        W70820  21.019  10.689  11.063
11560W        W70821  34.450  27.139   3.708
11561W        W70822   5.356  42.826   2.822
11562W        W70823  23.622  25.978  11.376
11563W        W70824   6.834  15.285   0.391
11564W        W70825  25.980  29.452   1.823
11565W        W70826  36.475  18.594  13.308
11566W        W70827  34.468  13.772   0.341
11567W        W70828  27.000  37.905  13.534
11568W        W70829  25.962  21.568  14.857
11569W        W70830  38.394  37.070  13.523
11570W        W70831  16.684   6.824   0.914
11571W        W70832  28.026  39.988  10.151
11572W        W70833  36.031  28.070   0.968
11573W        W70834  27.021  27.484   3.237
11574W        W70835  38.956  33.452   4.808
11575W        W70836   7.888  12.277  13.978
11576W        W70837  20.580  20.099   0.857
11577W        W70838  10.683  14.723  12.482
11578W        W70839  33.490  44.300   1.786
11579W        W70840  33.918  35.984  13.308
11580W        W70841  32.103   8.328  12.853
11581W        W70842   9.198  10.681   9.956
11582W        W70843  44.328  36.555  13.937
11583W        W70844   4.705   0.444  10.120
11584W        W70845  35.973   7.413   1.876
11585W        W70846  27.004  31.498  13.918
11586W        W70847  11.722  23.093   1.398
11587W        W70848  36.479  21.046  11.398
11588W        W70849  12.650  13.672  10.071
11589W        W70850  19.230  13.116   2.387
11590W        W70851   4.305  41.922   4.157
11591W        W70852  20.127  34.528   3.704
11592W        W70853  12.797  28.645   4.649
11593W        W70854  37.841  42.864   5.760
11594W        W70855  21.146  44.439  13.469
11595W        W70856  30.466  10.841  11.571
11596W        W70857  18.653  21.148   4.279
11597W        W70858  37.967  39.906   2.215
11598W        W70859  20.233   5.753   3.735
11599W        W70860  43.369  16.259   1.927
11600W        W70861  20.150   0.768  14.841
11601W        W70862  20.238   3.443   0.435
11602W        W70863  18.242  24.062  12.034
11603W        W70864  14.124  36.954   3.316
11604W        W70865  43.988   4.798   1.736
11605W        W70866  12.775  36.940  13.060
11606W        W70867  32.594  13.701   2.763
11607W        W70868  25.027  44.800   3.825
11608W        W70869   6.361  41.022   3.660
11609W        W70870  24.207  25.087   3.295
11610W        W70871   4.819  13.836  14.281
11611W        W70872  14.656  15.613  12.522
11612W        W70873   6.426  24.011  14.429
11613W        W70874  33.962  25.700  13.316
11614W        W70875  42.990   0.452   3.870
11615W        W70876   9.888   9.750   5.618
11616W        W70877  32.100  16.172   3.864
11617W        W70878   8.837  10.682   4.722
11618W        W70879  38.937  24.644  10.009
11619W        W70880  35.527  39.432   0.405
11620W        W70881  11.157  21.028   3.214
11621W        W70882  22.216  34.403   1.877
11622W        W70883  33.063  10.803   3.813
11623W        W70884  33.891  14.810  12.393
11624W        W70885  13.176   5.313   2.816
11625W        W70886  19.680  11.631  12.378
11626W        W70887  15.255  22.155   0.296
11627W        W70888  30.438  34.965  14.440
11628W        W70889  42.412  21.129   0.367
11629W        W70890  42.295   5.831  11.928
11630W        W70891  18.593  24.700   2.271
11631W        W70892  40.859   6.404  12.345
11632W        W70893  43.457  10.770   3.161
11633W        W70894  32.140  37.527   4.612
11634W        W70895   5.774  39.985   0.794
11635W        W70896  24.066  36.563  12.556
11636W        W70897  20.249  35.397  13.804
11637W        W70898   4.379  31.081   3.291
11638W        W70899  40.411   9.323  14.786
11639W        W70900  13.695  36.022   1.722
11640W        W70901  12.772  42.010  11.027
11641W        W70902  38.985  40.311   9.939
11642W        W70903  41.506  20.116  10.486
11643W        W70904   8.358   6.876  10.904
11644W        W70905  21.241  33.962   1.827
11645W        W70906   1.762   6.711   2.752
11646W        W70907  22.205  20.256  14.801
11647W        W70908  36.883   1.876   4.354
11648W        W70909   3.407  37.418  12.562
11649W        W70910  23.027  13.688  11.580
11650W        W70911  18.272  28.671  12.035
11651W        W70912  40.899  11.684   4.732
11652W        W70913  11.866  29.508  10.007
11653W        W70914  30.441  13.800  14.838
11654W        W70915  31.551  41.011  11.009
11655W        W70916   2.912  24.149   2.199
11656W        W70917  15.198  14.675   1.278
11657W        W70918  18.288  18.704   3.314
11658W        W70919  30.979  13.166   4.271
11659W        W70920  43.480  33.583   3.665
11660W        W70921  33.406  13.234   1.884
11661W        W70922  26.085   5.831  12.016
11662W        W70923  23.734  26.493  12.453
11663W        W70924  24.148  25.138   1.308
11664W        W70925  32.463   7.198  14.456
11665W        W70926  14.142  34.051   1.322
11666W        W70927   4.293  26.161   3.718
11667W        W70928  36.350   6.282   1.830
11668W        W70929  12.162  17.231  12.507
11669W        W70930   6.799  29.980   4.142
11670W        W70931  40.358  20.590   0.268
11671W        W70932  22.718  22.111   9.522
11672W        W70933   0.451  26.160  11.465
11673W        W70934  17.066   5.315  14.374
11674W        W70935  42.431  35.473  13.545
11675W        W70936  17.285  23.012  12.986
11676W        W70937   1.402  16.185   2.415
11677W        W70938  31.078  32.139  13.795
11678W        W70939  44.935  33.581   4.219
11679W        W70940   9.810  26.597  13.382
11680W        W70941  19.076   4.256   3.755
11681W        W70942  13.671  30.986   4.245
11682W        W70943  38.339  33.415  13.906
11683W        W70944  40.917  32.570  14.355
11684W        W70945  14.667  16.271  10.964
11685W        W70946  14.178  19.779  13.318
11686W        W70947   3.805  44.760   3.156
11687W        W70948  26.686  38.402   1.897
11688W        W70949   5.340  31.018   1.284
11689W        W70950  22.032   2.727  14.397
11690W        W70951   7.198  25.968   2.259
11691W        W70952  18.286   9.289  13.367
11692W        W70953   3.775   7.736  11.398
11693W        W70954  33.493  39.385  11.543
11694W        W70955  13.753   5.211  12.943
11695W        W70956  33.609  24.069   1.328
11696W        W70957  36.442  41.406   2.226
11697W        W70958  43.819  41.372   3.855
11698W        W70959   5.695   7.173   3.182
11699W        W70960   9.816   5.214  12.384
11700W        W70961  35.922  42.363  10.529
11701W        W70962  18.634  23.103  14.290
11702W        W70963  29.536  10.159   4.752
11703W        W70964  22.118   6.788   1.259
11704W        W70965  20.607  19.595  11.872
11705W        W70966  19.633  23.988   1.696
11706W        W70967  26.004   8.833   5.308
11707W        W70968  33.445  30.163  11.515
11708W        W70969   4.731   5.236  11.459
11709W        W70970  37.997  11.705  12.857
11710W        W70971  40.975  41.309   0.260
11711W        W70972  12.191  16.568   0.898
11712W        W70973  27.560  43.403   4.250
11713W        W70974  22.211   9.872   2.691
11714W        W70975   6.305  14.591  12.500
11715W        W70976   3.738  38.927   1.215
11716W        W70977  22.025  16.309  10.536
11717W        W70978  22.543  24.006  10.098
11718W        W70979  38.042  11.128  11.941
11719W        W70980  26.072  43.795  10.994
11720W        W70981   5.357  18.059  14.475
11721W        W70982  27.613   4.354   4.607
11722W        W70983  44.835   6.222  12.509
11723W        W70984  37.573  27.609  13.953
11724W        W70985  19.204   8.664   0.773
11725W        W70986  11.845  27.017   2.312
11726W        W70987   8.852  13.279  13.871
11727W        W70988  33.525   5.426   3.162
11728W        W70989  34.942  39.808  11.951
11729W        W70990  34.103  32.432   1.245
11730W        W70991  31.591   1.468   1.275
11731W        W70992  36.461  26.103  12.383
11732W        W70993  11.842  21.735   0.743
11733W        W70994  37.988  44.925   3.674
11734W        W70995  32.518   8.691   3.374
11735W        W70996   9.809   8.309  11.591
11736W        W70997  29.925   7.856  12.351
11737W        W70998  32.142  27.156   2.836
11738W        W70999  16.592  17.243   2.323
11739W        W71000  35.926  16.616  10.496
11740W        W71001  30.034   5.360   2.873
11741W        W71002   8.778  25.147  10.512
11742W        W71003   6.701  28.546   3.740
11743W        W71004  10.782  23.623   2.341
11744W        W71005  30.475   7.672   0.942
11745W        W71006  43.785  12.231  11.489
11746W        W71007  14.182  36.844   4.334
11747W        W71008  43.006  44.398   4.246
11748W        W71009  24.089  21.723  13.466
11749W        W71010  20.536  35.502  11.470
11750W        W71011  17.741  39.875  10.526
11751W        W71012   2.768  10.700   0.469
11752W        W71013  30.611  21.705   0.325
11753W        W71014  22.179   5.824  12.364
11754W        W71015  33.545  20.612  12.403
11755W        W71016   0.486  20.680   3.671
11756W        W71017  13.258  22.213   0.297
11757W        W71018  36.031  34.079  14.879
11758W        W71019  12.650  44.434   9.997
11759W        W71020  39.468  18.560   1.839
11760W        W71021  42.289  25.003  14.275
11761W        W71022  19.135  18.750   2.814
11762W        W71023   9.717   8.306   3.226
11763W        W71024  23.107  44.356   1.786
11764W        W71025  44.882  29.960  14.383
11765W        W71026   0.889  18.595   1.444
11766W        W71027  31.522  19.234   1.720
11767W        W71028  28.068  39.488   4.705
11768W        W71029  19.041  27.629  14.869
11769W        W71030   5.328  34.994   0.825
11770W        W71031  16.224   0.250   4.823
11771W        W71032  32.985   7.397  11.426
11772W        W71033  40.470   4.796   4.811
11773W        W71034  18.616  33.541   5.209
11774W        W71035  11.160  42.848  14.015
11775W        W71036   6.758   6.273  12.987
11776W        W71037   6.794  15.792   0.385
11777W        W71038  24.677   8.845  10.639
11778W        W71039  30.013  38.369   0.761
11779W        W71040  25.606  13.242  11.901
11780W        W71041  15.164  27.185   3.765
11781W        W71042  30.069   9.161  10.948
11782W        W71043  17.685  29.553   0.956
11783W        W71044  18.778  38.058  11.992
11784W        W71045  41.013  24.976  13.059
11785W        W71046  39.839  33.579   1.225
11786W        W71047  44.976  31.422   4.826
11787W        W71048  39.534  32.636  13.990
11788W        W71049  21.249  36.867  14.794
11789W        W71050  16.246  27.134   3.777
11790W        W71051  34.873  11.301   4.664
11791W        W71052   7.182  28.055  14.367
11792W        W71053   4.447   3.714   0.903
11793W        W71054   5.858   8.759   4.671
11794W        W71055  41.027   2.757  12.874
11795W        W71056  28.543  17.604   4.311
11796W        W71057  42.978  23.180  13.051
11797W        W71058  35.971  25.996   3.310
11798W        W71059   7.683   0.775   2.682
11799W        W71060  31.527  33.893   0.822
11800W        W71061  15.185  44.311  11.067
11801W        W71062   3.229  39.824   2.181
11802W        W71063   9.196   5.713  12.923
11803W        W71064  32.921  18.558   0.352
11804W        W71065  33.426  38.412   2.825
11805W        W71066  30.471  33.594   2.833
11806W        W71067   5.428  14.328   5.202
11807W        W71068  17.646   2.960  11.917
11808W        W71069   3.822   1.483   3.692
11809W        W71070   5.231  36.089   2.895
11810W        W71071  31.136  11.134   5.158
11811W        W71072   4.441  43.809   4.317
11812W        W71073  17.625  35.090  10.443
11813W        W71074   9.277  13.754  12.012
11814W        W71075  15.695  17.074  10.528
11815W        W71076   3.404  42.972  11.437
11816W        W71077  41.823  21.248  11.430
11817W        W71078  11.635   5.203  12.889
11818W        W71079   5.414   4.930  10.439
11819W        W71080  13.695  37.935   2.902
11820W        W71081  19.162  35.942   4.352
11821W        W71082  14.186  38.024  14.890
11822W        W71083  21.541  40.837   3.643
11823W        W71084   2.809  32.426   0.804
11824W        W71085  27.035  28.083   0.765
11825W        W71086  23.647  19.173   3.822
11826W        W71087   9.797   3.800   0.244
11827W        W71088  13.619   5.347   2.710
11828W        W71089  20.745  17.118  10.434
11829W        W71090  27.654  20.640   1.255
11830W        W71091  29.594  42.874  11.406
11831W        W71092  19.206  23.077   4.739
11832W        W71093  13.281   5.735  10.961
11833W        W71094  12.707  30.108  13.366
11834W        W71095  36.000  30.922  10.556
11835W        W71096  36.353  26.571  12.052
11836W        W71097  26.539   6.706   1.848
11837W        W71098   9.841   2.781  14.013
11838W        W71099   8.701  42.299  14.844
11839W        W71100   2.266  23.220   1.240
11840W        W71101  24.483  19.600   1.333
11841W        W71102  23.715  14.696   4.642
11842W        W71103  41.919  27.685  11.050
11843W        W71104  38.960  19.171  13.898
11844W        W71105  36.462  30.973   4.270
11845W        W71106   1.924  30.469  13.344
11846W        W71107  15.221   8.764   2.853
11847W        W71108  20.097  27.082   3.734
11848W        W71109  22.056  42.986  14.381
11849W        W71110  20.077   6.373   2.359
11850W        W71111  27.667   6.230  12.365
11851W        W71112  21.192  33.395   3.696
11852W        W71113  28.670  12.812   2.386
11853W        W71114  16.214  35.974   5.116
11854W        W71115   3.457  26.601   3.766
11855W        W71116   6.753   3.889  10.616
11856W        W71117   3.409   8.740   1.261
11857W        W71118  11.842  11.143  14.355
11858W        W71119  17.596  24.635  13.397
11859W        W71120  18.762  24.505  11.373
11860W        W71121  39.007  19.095   2.856
11861W        W71122  38.973  27.652  10.984
11862W        W71123  34.100  21.102   3.661
11863W        W71124  44.777  14.152   4.264
11864W        W71125  29.563   6.755   4.824
11865W        W71126  35.883  32.094   3.146
11866W        W71127  29.116  28.945   0.834
11867W        W71128  30.491   0.807   0.963
11868W        W71129  42.286  39.415  14.375
11869W        W71130  38.500   2.868   3.865
11870W        W71131  39.382  21.592  14.319
11871W        W71132  13.829  19.634  13.959
11872W        W71133  20.653   0.822  11.539
11873W        W71134   9.210  40.901   2.791
11874W        W71135  34.593   4.363  12.947
11875W        W71136  31.601   0.880  14.443
11876W        W71137  40.963  14.160   4.150
11877W        W71138  20.590  30.988   4.722
11878W        W71139  14.752  41.902  12.952
11879W        W71140  29.600  17.181   3.384
11880W        W71141  37.456  16.083   1.215
11881W        W71142  22.694  24.677  12.390
11882W        W71143  23.134  31.533   3.364
11883W        W71144  15.293  14.682  12.940
11884W        W71145   6.328  26.521   3.807
11885W        W71146   0.418  15.227   3.802
11886W        W71147  44.999   4.400  11.086
11887W        W71148  13.621  40.956   3.283
11888W        W71149  37.503  30.987  13.539
11889W        W71150  37.932   6.395   2.764
11890W        W71151   9.267  36.979  13.985
11891W        W71152   8.403  36.500  12.911
11892W        W71153   8.795   4.219   2.840
11893W        W71154  33.913   3.768   2.872
11894W        W71155  28.629   4.317  13.475
11895W        W71156  28.524  16.734   3.217
11896W        W71157  40.547  34.384   1.813
11897W        W71158  18.157  37.943   3.223
11898W        W71159  22.150  39.543   4.150
11899W        W71160   2.886   7.208  12.001
11900W        W71161   8.828  24.005   4.658
11901W        W71162  18.684   5.723  11.595
11902W        W71163  22.717   4.254   1.279
11903W        W71164  40.868   0.400  11.908
11904W        W71165  12.782   5.717   5.198
11905W        W71166  44.329   9.792  11.486
11906W        W71167  36.348  27.614  10.917
11907W        W71168  13.291  35.043   0.253
11908W        W71169  29.525  40.535  12.967
11909W        W71170  44.497   0.932  10.635
11910W        W71171  32.539  34.049  11.008
11911W        W71172  26.543  34.492  11.372
11912W        W71173  39.887   2.295   2.363
11913W        W71174  27.026   3.411  10.914
11914W        W71175  14.680   1.962   0.300
11915W        W71176  43.020   3.226   4.818
11916W        W71177   3.952   6.737   3.729
11917W        W71178  31.950  24.054   1.345
11918W        W71179  42.288  32.092  11.092
11919W        W71180  42.776  35.533  12.505
11920W        W71181   3.424  38.995  11.895
11921W        W71182  18.581  10.279   1.734
11922W        W71183  37.372  37.001   1.422
11923W        W71184  10.654   6.780  14.878
11924W        W71185  27.027  32.924   2.246
11925W        W71186  28.610  20.140   1.421
11926W        W71187  10.786  28.174  10.404
11927W        W71188  17.700  13.653  12.013
11928W        W71189   5.417   7.239   1.932
11929W        W71190  18.139  13.279   3.638
11930W        W71191  28.658  15.318   3.310
11931W        W71192  36.979  25.713   4.179
11932W        W71193  31.104   2.336   3.334
11933W        W71194  34.410  24.492  11.371
11934W        W71195  23.720   9.752   2.837
11935W        W71196  29.430  27.002   3.233
11936W        W71197  43.856  33.615   3.146
11937W        W71198  27.654   9.744   0.795
11938W        W71199   8.733  43.947   0.291
11939W        W71200  44.426  10.811   2.829
11940W        W71201  30.036  11.861  12.015
11941W        W71202   2.325  44.372  10.059
11942W        W71203  17.260  36.549  13.514
11943W        W71204  43.929  31.053  14.813
11944W        W71205   5.770   4.752  14.503
11945W        W71206  13.334  38.891   2.309
11946W        W71207  29.072  41.450  11.951
11947W        W71208  40.327  31.920  12.519
11948W        W71209  20.239  25.012   0.896
11949W        W71210  25.704  11.244  13.505
11950W        W71211   9.184   9.811   2.333
11951W        W71212  30.049  42.863   0.433
11952W        W71213  38.509  41.952   1.317
11953W        W71214  14.152  28.151  12.976
11954W        W71215  41.879  17.757  13.526
11955W        W71216  15.202   5.766   2.734
11956W        W71217  12.847  28.018   1.404
11957W        W71218   1.406  44.430   0.766
11958W        W71219  39.416   0.274  11.984
11959W        W71220  16.202  10.207   0.277
11960W        W71221  28.502   5.931  12.871
11961W        W71222  40.384  17.292   5.261
11962W        W71223  16.776   7.685  14.844
11963W        W71224  29.596   5.856   3.734
11964W        W71225   4.859  40.863  10.961
11965W        W71226  24.501  27.557   2.783
11966W        W71227   9.807   0.319   1.861
11967W        W71228   4.390   4.253  10.936
11968W        W71229  38.512   9.780   2.311
11969W        W71230  37.054  40.411   3.180
11970W        W71231  32.991  27.083  10.500
11971W        W71232  17.589   8.339  11.504
11972W        W71233  40.979  26.624   0.390
11973W        W71234  35.901  25.516  12.383
11974W        W71235  41.997  30.910  10.967
11975W        W71236   3.357   6.185   5.139
11976W        W71237  12.288  19.679   1.409
11977W        W71238  37.941  44.446  13.995
11978W        W71239   2.254  40.399  13.053
11979W        W71240   5.818  38.327  12.999
11980W        W71241  25.161  28.594   2.785
11981W        W71242  43.889  16.294   4.284
11982W        W71243  15.808  26.615   1.850
11983W        W71244  19.734  16.276   2.348
11984W        W71245  43.913  21.647   3.850
11985W        W71246  30.436  16.618   2.203
11986W        W71247  35.070  28.021   3.865
11987W        W71248   4.916  28.612   0.910
11988W        W71249   2.413  11.670  10.994
11989W        W71250  10.180  24.672   1.722
11990W        W71251   9.780  44.932   4.284
11991W        W71252  12.336  37.942  14.874
11992W        W71253   1.875  14.305   2.715
11993W        W71254  34.552  31.946  13.812
11994W        W71255  33.929  41.413   4.335
11995W        W71256  19.060  38.486   1.305
11996W        W71257  34.075  31.060   1.755
11997W        W71258  18.726   9.867  13.996
11998W        W71259   0.967  23.683   1.760
11999W        W71260  16.766  42.922  10.436
12000W        W71261   1.297  37.581   4.288
12001W        W71262  38.972  12.658   4.743
12002W        W71263  27.127  33.623   3.178
12003W        W71264  15.806  18.750   3.354
12004W        W71265  12.270  43.490  10.953
12005W        W71266   7.831  30.472   2.209
12006W        W71267   0.379  33.515   1.776
12007W        W71268  43.965  29.022   3.174
12008W        W71269  34.073  16.075  12.908
12009W        W71270  25.662   5.328  14.306
12010W        W71271  43.824  31.904  11.611
12011W        W71272  21.260  34.490  12.534
12012W        W71273  32.916   4.766   0.734
12013W        W71274  38.349  43.516   4.206
12014W        W71275  28.533   7.763   2.308
12015W        W71276   4.308  20.656   0.856
12016W        W71277  25.151   6.277   3.274
12017W        W71278  11.804  38.888   1.821
12018W        W71279  20.030  25.694   0.401
12019W        W71280  30.651  13.266  11.879
12020W        W71281   2.347  35.512  13.019
12021W        W71282  21.160  35.445   0.391
12022W        W71283  41.944  24.116   2.678
12023W        W71284   1.743   6.784  11.487
12024W        W71285  31.468  21.064   3.238
12025W        W71286  19.079  23.230   1.298
12026W        W71287   6.398  37.573  11.552
12027W        W71288  33.948  13.792  12.092
12028W        W71289  38.947  27.586  14.775
12029W        W71290  17.628  31.448  14.852
12030W        W71291   3.843  23.564  12.836
12031W        W71292  27.015  25.206  11.541
12032W        W71293  29.590  32.413  14.828
12033W        W71294  39.014  44.944   4.622
12034W        W71295  26.132   9.869  10.486
12035W        W71296   1.430   2.884  12.419
12036W        W71297  34.368  18.611   1.884
12037W        W71298   6.786   1.362  10.445
12038W        W71299  30.530  41.886   3.373
12039W        W71300  39.356  19.186  11.942
12040W        W71301  13.793  27.952  11.508
12041W        W71302  12.780  13.250  13.056
12042W        W71303   8.888  18.280   0.481
12043W        W71304  23.540  43.929  11.083
12044W        W71305  13.256  26.536   0.287
12045W        W71306  42.526  11.672   2.684
12046W        W71307  37.062  13.145   3.359
12047W        W71308  10.807   6.720   4.766
12048W        W71309  20.201  14.722   1.931
12049W        W71310  20.074   0.804  14.418
12050W        W71311  19.061   9.289  13.990
12051W        W71312  11.658  16.072  13.841
12052W        W71313   5.365  21.141  13.414
12053W        W71314   3.741  34.935  12.519
12054W        W71315  29.526  32.526   0.314
12055W        W71316   7.333  31.445  10.937
12056W        W71317  34.997  33.609   0.936
12057W        W71318   5.293   2.267   3.711
12058W        W71319  39.361  26.961  13.424
12059W        W71320   7.828  41.436  12.413
12060W        W71321  10.185  20.231   1.849
12061W        W71322  21.029  22.724  14.364
12062W        W71323  32.445  23.034  12.497
12063W        W71324  43.350  31.144  10.629
12064W        W71325  38.510  31.120  13.985
12065W        W71326  13.649  30.907   3.361
12066W        W71327  25.067  33.496   2.325
12067W        W71328  22.629  31.141   2.224
12068W        W71329  35.875   9.672  11.953
12069W        W71330   7.771   8.789   1.769
12070W        W71331  28.086  16.809  12.412
12071W        W71332  23.723  29.528  10.622
12072W        W71333   9.668   0.912  12.430
12073W        W71334  24.533  23.169   0.482
12074W        W71335  39.465  12.184  14.363
12075W        W71336  31.647  26.179  14.990
12076W        W71337  41.522   8.836  11.875
12077W        W71338  43.388  24.102   1.221
12078W        W71339  38.853  15.109   2.382
12079W        W71340  18.080  10.715   3.824
12080W        W71341   3.244  44.427   3.216
12081W        W71342  40.532  36.923   0.332
12082W        W71343  38.444   8.269  14.826
12083W        W71344  18.555  10.777  11.381
12084W        W71345  12.824  10.864  10.452
12085W        W71346  10.710  27.032  13.376
12086W        W71347   9.152  42.818   0.445
12087W        W71348   5.248  16.145   4.209
12088W        W71349  43.860  22.114   2.252
12089W        W71350  19.049   1.837  13.432
12090W        W71351  39.474  36.870   5.236
12091W        W71352  40.007  10.713  11.488
12092W        W71353  22.711  20.040   4.232
12093W        W71354  11.316  20.567  11.443
12094W        W71355  27.094   8.681   3.835
12095W        W71356  21.116  44.480   4.757
12096W        W71357  40.472  30.002  11.460
12097W        W71358   6.831  28.670  10.933
12098W        W71359  30.424   4.353   0.454
12099W        W71360  41.364  22.219  10.620
12100W        W71361  18.563  17.630   1.709
12101W        W71362   3.246  21.619  14.786
12102W        W71363   4.845  30.433   3.345
12103W        W71364  28.564  37.533  11.875
12104W        W71365  13.628  12.230  10.514
12105W        W71366  34.103  21.055  11.453
12106W        W71367  27.496  16.223   1.698
12107W        W71368  24.117  27.160  12.830
12108W        W71369  17.736  35.970   4.193
12109W        W71370   5.770   5.342   3.724
12110W        W71371  16.575  35.554   4.342
12111W        W71372  23.123   3.271   1.336
12112W        W71373  16.752  36.882  13.059
12113W        W71374  16.104   2.789  14.013
12114W        W71375  33.403   9.182  11.464
12115W        W71376   1.975  26.586   4.242
12116W        W71377  23.553  18.186   0.351
12117W        W71378   9.855   6.420  12.029
12118W        W71379  34.867  11.774  12.011
12119W        W71380  11.159   8.836   0.269
12120W        W71381  40.360   9.729  10.561
12121W        W71382  13.141  32.101  10.997
12122W        W71383  14.214  21.170   1.741
12123W        W71384  11.300  34.020   1.328
12124W        W71385  18.155  10.173   1.861
12125W        W71386  11.672  28.187  12.025
12126W        W71387  42.356  36.006  11.451
12127W        W71388  33.473   9.352  14.364
12128W        W71389   8.168   1.424   4.131
12129W        W71390  44.985  42.312   2.411
12130W        W71391  42.924  13.640   0.307
12131W        W71392  19.570  21.100   0.883
12132W        W71393   6.351  15.661  11.575
12133W        W71394   5.892   0.913   4.120
12134W        W71395   0.912  29.044  12.981
12135W        W71396  16.695   5.838   0.281
12136W        W71397  11.743  27.452  14.964
12137W        W71398  25.684  36.992   1.754
12138W        W71399  34.474  34.473   5.140
12139W        W71400  18.583   4.922  11.061
12140W        W71401  10.195  24.555   4.698
12141W        W71402  14.210  17.790  14.301
12142W        W71403  39.878  41.430  11.985
12143W        W71404  34.442   2.830  10.953
12144W        W71405   7.741   7.761  14.994
12145W        W71406  28.112  10.296  14.913
12146W        W71407   1.276  14.164  10.569
12147W        W71408   6.765  31.546  14.820
12148W        W71409  10.650  40.333  13.404
12149W        W71410  20.166  37.843   3.165
12150W        W71411   5.698   5.365  13.865
12151W        W71412   3.717   1.873  10.448
12152W        W71413  44.466  36.021   4.264
12153W        W71414   2.252  19.659  10.119
12154W        W71415  41.952  26.054  11.500
12155W        W71416  31.946   5.386  13.976
12156W        W71417  39.936  20.123  12.563
12157W        W71418  19.682  14.135  12.358
12158W        W71419  34.421  25.545   1.223
12159W        W71420  33.982   1.292   2.319
12160W        W71421  26.541  24.977  13.347
12161W        W71422   3.376  18.064  14.981
12162W        W71423  40.305  12.693   0.401
12163W        W71424  27.081  20.241   1.862
12164W        W71425  21.538  40.994   3.233
12165W        W71426  14.302   0.852   3.324
12166W        W71427  24.980  33.068   0.343
12167W        W71428  14.712  44.894   0.285
12168W        W71429   8.870  11.832   2.190
12169W        W71430  27.625   1.373  10.628
12170W        W71431  17.686  26.045   1.886
12171W        W71432  32.460  21.586  12.942
12172W        W71433   1.418  15.755  11.948
12173W        W71434  17.636  23.062  10.504
12174W        W71435  10.782  36.852  13.970
12175W        W71436   6.834  19.272   4.188
12176W        W71437   3.818  16.639   2.673
12177W        W71438  22.681  30.130   3.637
12178W        W71439  38.375  32.996   1.925
12179W        W71440   4.746  32.037   5.224
12180W        W71441  35.011  24.088  11.102
12181W        W71442  41.511  38.881   0.376
12182W        W71443  42.504   4.941  10.411
12183W        W71444   9.314   0.278  13.515
12184W        W71445  14.796  21.246  14.330
12185W        W71446  35.874   7.206   2.218
12186W        W71447  17.292  28.055  12.409
12187W        W71448  16.163   2.807   4.599
12188W        W71449  33.478  12.359  11.558
12189W        W71450   6.826  13.766   1.788
12190W        W71451   1.411   0.413  11.933
12191W        W71452  19.271  42.382  11.107
12192W        W71453  33.095  29.919  10.894
12193W        W71454  36.463  25.683  12.969
12194W        W71455  32.926  37.385   3.854
12195W        W71456   3.842  25.606  14.984
12196W        W71457  29.664   2.832   4.754
12197W        W71458  40.051   8.855   4.712
12198W        W71459  20.661  35.964   1.854
12199W        W71460  32.590  43.809   1.224
12200W        W71461  25.482  13.765  12.392
12201W        W71462  20.753  19.193   1.934
12202W        W71463   4.765  32.474   4.354
12203W        W71464  27.030  39.898  11.014
12204W        W71465   0.253   4.294  14.322
12205W        W71466  29.043  44.372  12.451
12206W        W71467  18.720  15.800  11.552
12207W        W71468  28.949   7.705   0.759
12208W        W71469   7.808   5.244   3.862
12209W        W71470  21.634  36.404   4.769
12210W        W71471   8.669   0.790   5.295
12211W        W71472  24.013  21.156  12.878
12212W        W71473   7.809   2.904   2.732
12213W        W71474  18.215  24.976   1.885
12214W        W71475  19.253  13.809  12.565
12215W        W71476  20.719  26.079  13.841
12216W        W71477  15.311  36.928   2.706
12217W        W71478  22.071  22.151  13.961
12218W        W71479  33.046  30.615  14.464
12219W        W71480  44.000  28.490  10.496
12220W        W71481   7.219  32.010   3.356
12221W        W71482   5.772  12.708   0.863
12222W        W71483  12.290  39.386  12.045
12223W        W71484  13.633  23.010  11.049
12224W        W71485  21.158  33.116  13.313
12225W        W71486   3.348   6.362   1.390
12226W        W71487  23.160   8.705  10.554
12227W        W71488  30.619  39.330   0.796
12228W        W71489  28.101  35.992   1.919
12229W        W71490   4.864  32.576   4.816
12230W        W71491   4.825  17.770   4.828
12231W        W71492  15.294   8.826  12.445
12232W        W71493  39.005  27.000  13.398
12233W        W71494  35.544   7.375  11.555
12234W        W71495   0.934  42.299  11.573
12235W        W71496  35.029  30.964   1.376
12236W        W71497  29.014  20.164   2.844
12237W        W71498  27.492   2.231   0.745
12238W        W71499  12.123   8.720  12.573
12239W        W71500   2.755  35.056   3.648
12240W        W71501   5.225   2.954   2.341
12241W        W71502  40.531  38.938   3.667
12242W        W71503   5.351  16.100  14.406
12243W        W71504  36.514   4.775  13.340
12244W        W71505  41.420  20.218  13.943
12245W        W71506  42.961  30.986  12.362
12246W        W71507  41.305  10.691  13.884
12247W        W71508  26.009  44.848  13.841
12248W        W71509   7.799  22.510  12.441
12249W        W71510  26.001  35.582  14.019
12250W        W71511  12.292  37.545  10.944
12251W        W71512  18.188  18.643   9.961
12252W        W71513  36.402  11.349  12.439
12253W        W71514   0.763  31.525  11.386
12254W        W71515  34.460  38.890   0.911
12255W        W71516  29.070  22.136  11.054
12256W        W71517  39.478  40.542   2.368
12257W        W71518  34.438  27.511  11.985
12258W        W71519  35.596   8.769   2.358
12259W        W71520  18.654   7.906   0.772
12260W        W71521  15.680   0.988   2.229
12261W        W71522  16.289   3.223  13.824
12262W        W71523  25.984  41.009  11.028
12263W        W71524  43.901  24.064   4.774
12264W        W71525  35.588  41.447  12.903
12265W        W71526   3.884  30.986  14.775
12266W        W71527  30.414  32.950  13.427
12267W        W71528  18.121  18.209  10.459
12268W        W71529   1.746  38.040  12.946
12269W        W71530  41.849  12.800   3.373
12270W        W71531  39.516  21.173   0.767
12271W        W71532  39.512  27.586   4.269
12272W        W71533  10.861  42.291  14.792
12273W        W71534  40.367  29.070  11.489
12274W        W71535  14.116  25.055  11.387
12275W        W71536  35.993  33.959   3.312
12276W        W71537  19.088  10.180   1.910
12277W        W71538  27.069  24.021   9.493
12278W        W71539  16.731  31.513   4.183
12279W        W71540  42.945  16.101   1.735
12280W        W71541  19.644  18.069   1.784
12281W        W71542  18.281  38.443   1.214
12282W        W71543   1.426  37.856   0.769
12283W        W71544  31.529  42.365  10.406
12284W        W71545  29.606  20.208  13.396
12285W        W71546   5.931  31.636   3.761
12286W        W71547  36.099  21.647  10.505
12287W        W71548  27.970  39.060  14.379
12288W        W71549   7.248  31.580   0.780
12289W        W71550  16.765  30.508   9.543
12290W        W71551  27.063  33.435   1.300
12291W        W71552   1.860   9.306   4.195
12292W        W71553   5.866   4.393   1.820
12293W        W71554   9.693  17.674  14.339
12294W        W71555   9.255  34.952   4.670
12295W        W71556  32.519  18.064   2.712
12296W        W71557   1.864  22.664   1.804
12297W        W71558  20.533  38.027   3.171
12298W        W71559   1.736  28.954  13.021
12299W        W71560  44.395   8.779  12.373
12300W        W71561  11.162   1.907   3.857
12301W        W71562  27.456   0.781   2.222
12302W        W71563  28.654  12.644   4.298
12303W        W71564   2.344  14.230   3.320
12304W        W71565  13.280  23.024   3.281
12305W        W71566  34.909  34.543  10.066
12306W        W71567  13.257  15.765  11.935
12307W        W71568  16.113  32.100   3.264
12308W        W71569  18.620  30.031  13.848
12309W        W71570  34.380  21.656  14.949
12310W        W71571  35.402  32.503   2.404
12311W        W71572   8.372  22.556  12.017
12312W        W71573  25.057  23.203   3.718
12313W        W71574  21.154  20.616  13.332
12314W        W71575  27.589  41.305  14.886
12315W        W71576  22.051  31.499   2.313
12316W        W71577   6.234  16.140   2.808
12317W        W71578  16.247  40.945  10.919
12318W        W71579  21.048  38.821  12.859
12319W        W71580   6.387  30.532  11.989
12320W        W71581   7.298  15.143   2.836
12321W        W71582  32.396  35.072   1.229
12322W        W71583  38.042  38.547  14.466
12323W        W71584   1.783   3.294  12.458
12324W        W71585   6.385  22.549  11.419
12325W        W71586  19.633  25.562   1.450
12326W        W71587  22.712  29.586   2.392
12327W        W71588  17.691  27.498  14.470
12328W        W71589  31.490   7.172   2.692
12329W        W71590  24.194  29.114  14.379
12330W        W71591  17.603   6.904   3.646
12331W        W71592   5.345  41.027   1.223
12332W        W71593  32.022  37.554   4.234
12333W        W71594  38.980  10.356  10.952
12334W        W71595  36.447  25.990   2.371
12335W        W71596  18.206  39.837   0.794
12336W        W71597  40.887  32.611  10.956
12337W        W71598  11.724  21.537   2.356
12338W        W71599  15.191  40.828   4.647
12339W        W71600   7.897  27.679  10.508
12340W        W71601  15.218  43.882   4.280
12341W        W71602  10.845  18.077  12.937
12342W        W71603   7.316   4.762   2.889
12343W        W71604  38.036  39.359  13.064
12344W        W71605  43.891  36.363   1.849
12345W        W71606   3.852  43.477   1.285
12346W        W71607   9.223  20.621  13.866
12347W        W71608   7.740  25.205   4.737
12348W        W71609  15.214  38.436  12.077
12349W        W71610  25.558  12.165   3.378
12350W        W71611   9.294  16.183  14.003
12351W        W71612  26.645   0.465   3.653
12352W        W71613  41.797  39.522  14.845
12353W        W71614  24.724  43.361   3.336
12354W        W71615  15.255  28.508   2.853
12355W        W71616  37.872  19.541  14.880
12356W        W71617   9.340   4.753  10.895
12357W        W71618  34.986  31.499   1.773
12358W        W71619  30.947   1.911   3.320
12359W        W71620  33.424   7.408   2.276
12360W        W71621  42.949  13.166  12.035
12361W        W71622  35.939  12.724   3.385
12362W        W71623  29.513  22.202  12.382
12363W        W71624  20.269  40.367   2.668
12364W        W71625  25.479  43.912  11.099
12365W        W71626  24.519  36.537  10.492
12366W        W71627  36.551  15.638  14.322
12367W        W71628   7.688  35.403   3.340
12368W        W71629   0.321  34.527  14.991
12369W        W71630  18.606   0.802   0.847
12370W        W71631  44.855  40.450  14.767
12371W        W71632  14.244  37.383  11.929
12372W        W71633   0.893  14.617  12.082
12373W        W71634  14.645   2.451  11.480
12374W        W71635  28.090  36.496   0.804
12375W        W71636  16.158  24.990  14.014
12376W        W71637   4.898   6.775   9.959
12377W        W71638  34.527  24.627  14.021
12378W        W71639   6.415  36.007  14.394
12379W        W71640  21.241  43.765  12.557
12380W        W71641  44.803  32.509   3.773
12381W        W71642  38.366  40.856  12.907
12382W        W71643  26.574   0.396  12.992
12383W        W71644  14.716  42.319   0.315
12384W        W71645  24.070   5.407  14.333
12385W        W71646  29.442  15.623  14.969
12386W        W71647  41.879   5.437  12.526
12387W        W71648   4.742  29.032  13.443
12388W        W71649  17.164  30.072   2.736
12389W        W71650  26.061  23.608  11.921
12390W        W71651   1.905   4.779  10.417
12391W        W71652   2.272  23.016   3.693
12392W        W71653   1.811  21.018   5.089
12393W        W71654  16.738  44.926   1.290
12394W        W71655  13.721  24.078   2.704
12395W        W71656  21.731  20.563   2.236
12396W        W71657   2.283   7.707  10.523
12397W        W71658   5.251  29.642   2.817
12398W        W71659  19.200   5.223   1.720
12399W        W71660  15.205  44.911   4.132
12400W        W71661   4.817  13.832  12.064
12401W        W71662  32.563  27.546   2.351
12402W        W71663  32.926  29.425   3.691
12403W        W71664  23.641  29.599   2.372
12404W        W71665  34.490  32.558  12.552
12405W        W71666  42.946   9.810   2.901
12406W        W71667  44.342  42.368  14.992
12407W        W71668   9.152  37.436  13.831
12408W        W71669  16.277  35.543   4.181
12409W        W71670  44.989  27.489   2.183
12410W        W71671   9.205  39.900   0.851
12411W        W71672  20.160  32.634  14.924
12412W        W71673  44.311   0.780   2.864
12413W        W71674  33.947   2.394  10.621
12414W        W71675  39.462  35.511  13.468
12415W        W71676  24.676  17.710  14.302
12416W        W71677  21.589  27.940   2.246
12417W        W71678   9.830  21.530  12.342
12418W        W71679  27.480  26.082  12.007
12419W        W71680   8.212  44.927   1.306
12420W        W71681   0.493  40.474   4.759
12421W        W71682  38.983  24.130   2.883
12422W        W71683   8.664   6.186  14.464
12423W        W71684  15.097  37.393   0.931
12424W        W71685  39.326  14.229  12.911
12425W        W71686  41.422  28.122  14.452
12426W        W71687  31.426   6.913  14.419
12427W        W71688   1.904  17.765   4.150
12428W        W71689  19.549  32.042  11.470
12429W        W71690   6.314  26.196  13.814
12430W        W71691  41.425  36.044   3.838
12431W        W71692   6.249  19.134   2.787
12432W        W71693  26.110  14.158   4.727
12433W        W71694   1.419  18.083  12.494
12434W        W71695  34.404   6.751  10.544
12435W        W71696  17.689  35.567  12.860
12436W        W71697  25.516  34.586   1.397
12437W        W71698  26.677  19.718  13.884
12438W        W71699  12.712   1.814  11.477
12439W        W71700  11.792  29.095  13.442
12440W        W71701  39.506  11.803   2.199
12441W        W71702  43.432  17.606   1.935
12442W        W71703  27.572  18.092  10.950
12443W        W71704  40.507  31.592   2.352
12444W        W71705  34.603  25.623  12.842
12445W        W71706  36.516  36.585   2.301
12446W        W71707   8.787  36.410   0.857
12447W        W71708  17.762   7.394  11.077
12448W        W71709  42.449  42.903   5.258
12449W        W71710  18.193  23.517  12.544
12450W        W71711   7.903  18.666  12.046
12451W        W71712  10.188  27.521  11.923
12452W        W71713   4.702  35.397  14.913
12453W        W71714  20.163  26.978  11.528
12454W        W71715   0.978  31.483   4.223
12455W        W71716   8.331   1.255   2.347
12456W        W71717  38.867  19.079   0.369
12457W        W71718  15.237  28.042   0.944
12458W        W71719  17.234  42.315  12.925
12459W        W71720   2.367   6.693  10.493
12460W        W71721  39.529  43.010   2.304
12461W        W71722  38.411  41.010   1.212
12462W        W71723   9.167  15.770   0.760
12463W        W71724  41.022  36.936  11.552
12464W        W71725  29.562  39.966  12.366
12465W        W71726  21.164   8.304   3.282
12466W        W71727   0.477  32.555  14.025
12467W        W71728  44.876   4.405  11.894
12468W        W71729  34.050  35.945   1.728
12469W        W71730  25.592  36.435   4.284
12470W        W71731  13.623  10.229   0.879
12471W        W71732  16.094  30.593   0.380
12472W        W71733  31.138   8.336  12.945
12473W        W71734  22.116  22.683   0.869
12474W        W71735   1.397  27.194  14.480
12475W        W71736  15.673  31.153  11.541
12476W        W71737  31.643   9.195   3.269
12477W        W71738  12.251  32.482  13.538
12478W        W71739  24.988  25.500   0.400
12479W        W71740  18.625  10.335  13.429
12480W        W71741  44.818  35.573  11.528
12481W        W71742  20.180  41.864  10.412
12482W        W71743   2.254  30.036  12.527
12483W        W71744  35.954  24.144   4.821
12484W        W71745  28.009  42.961  11.411
12485W        W71746   0.913  44.976  12.836
12486W        W71747  13.676  39.357  14.507
12487W        W71748  38.522  41.433   2.891
12488W        W71749  34.024  32.436   2.245
12489W        W71750  26.657  19.204  14.441
12490W        W71751  12.811   6.714   2.854
12491W        W71752  42.515   8.318  13.361
12492W        W71753   5.824  32.469   4.114
12493W        W71754   5.837  16.604  12.871
12494W        W71755  33.531   2.779   3.707
12495W        W71756  32.977  14.279   3.218
12496W        W71757  22.996   0.977  14.328
12497W        W71758  41.892  26.046  13.903
12498W        W71759   3.439   7.911   0.458
12499W        W71760  36.919  12.202  10.474
12500W        W71761  35.387  36.529  13.011
12501W        W71762  33.908  30.616  12.917
12502W        W71763  36.909  41.476  13.524
12503W        W71764   5.864  22.579  12.970
12504W        W71765  42.972  42.510  13.386
12505W        W71766  39.319  17.094   3.241
12506W        W71767  19.049   7.338   4.698
12507W        W71768  26.068  20.038  12.453
12508W        W71769  38.013  30.519  10.525
12509W        W71770  26.040  34.511   3.802
12510W        W71771   1.317  21.687   3.643
12511W        W71772  24.101   0.394  13.359
12512W        W71773  10.716  33.463   1.276
12513W        W71774   7.686  15.673   3.147
12514W        W71775  29.589  30.933   1.386
12515W        W71776  21.571  41.355  13.915
12516W        W71777  29.979  23.510   0.330
12517W        W71778   8.851  42.882  10.426
12518W        W71779  28.656  44.958   1.239
12519W        W71780  29.156  36.894   0.319
12520W        W71781  40.317  27.128  14.352
12521W        W71782  10.650  38.916  14.359
12522W        W71783  28.527  29.977   2.735
12523W        W71784   7.363  28.969   2.363
12524W        W71785  42.333   3.860   3.175
12525W        W71786   8.336   3.229   2.783
12526W        W71787  27.468  18.598  10.454
12527W        W71788   4.747  34.114   1.238
12528W        W71789  13.823  31.008   0.769
12529W        W71790   7.698  25.158   2.316
12530W        W71791  12.209  35.878   0.806
12531W        W71792  39.322  29.052  11.909
12532W        W71793  34.394  18.272   4.750
12533W        W71794  15.084  33.591  10.953
12534W        W71795  20.530  36.381   2.796
12535W        W71796  36.010   4.399   1.261
12536W        W71797   0.818  27.581  14.974
12537W        W71798  42.453  22.741   3.177
12538W        W71799  35.858  26.666  12.393
12539W        W71800  13.311  42.936  12.417
12540W        W71801  21.716  35.441   1.767
12541W        W71802  16.740  30.550   5.319
12542W        W71803  15.171   6.424  10.961
12543W        W71804   0.327  11.749  14.963
12544W        W71805  13.794  22.609  11.944
12545W        W71806  37.466  25.128  13.358
12546W        W71807   0.363  14.658   3.762
12547W        W71808  40.489  36.008  10.494
12548W        W71809  23.234  16.643  14.878
12549W        W71810  24.215  16.174   1.774
12550W        W71811  33.432   1.840  14.903
12551W        W71812  39.554  21.748  10.562
12552W        W71813   0.967   0.760  10.533
12553W        W71814  18.734  21.180   5.799
12554W        W71815  39.833  36.375  14.492
12555W        W71816  12.686   0.811   3.696
12556W        W71817   7.221  33.617  13.905
12557W        W71818  17.285  17.268  13.338
12558W        W71819  42.473  40.395   1.753
12559W        W71820  43.872  32.900   3.305
12560W        W71821  15.687  12.719   5.291
12561W        W71822   7.186   3.266  10.474
12562W        W71823  42.896  37.880   1.885
12563W        W71824  14.693  22.166   2.298
12564W        W71825  34.113  33.421   4.309
12565W        W71826  29.485  41.989   2.304
12566W        W71827  28.513  39.399   1.867
12567W        W71828   8.230   9.315  12.872
12568W        W71829  31.025  41.880  11.888
12569W        W71830  28.633   9.385   2.320
12570W        W71831  21.183  13.673   3.323
12571W        W71832  17.663  35.463  14.949
12572W        W71833  35.380  17.305   1.823
12573W        W71834   0.259  42.438   1.256
12574W        W71835  35.467   3.332   0.453
12575W        W71836   2.337   8.667  14.788
12576W        W71837  18.129  44.318   4.204
12577W        W71838  40.025  11.355   3.304
12578W        W71839  34.063  15.694  14.289
12579W        W71840  38.017  40.870  13.984
12580W        W71841  25.044  22.609  12.081
12581W        W71842  18.743   8.753  12.063
12582W        W71843   0.970   5.711   1.769
12583W        W71844  39.343  21.684  13.431
12584W        W71845  29.114   5.926   4.779
12585W        W71846  33.482  28.080   3.366
12586W        W71847  28.473  28.946  14.411
12587W        W71848   3.921   0.755  13.874
12588W        W71849  20.715  37.044   2.383
12589W        W71850  15.305  27.531  11.080
12590W        W71851   8.884  23.229   4.318
12591W        W71852  21.243  35.460   3.358
12592W        W71853  16.176  29.070   2.839
12593W        W71854   8.736  33.505  13.871
12594W        W71855  42.924  33.043   1.436
12595W        W71856   1.773  26.001   0.320
12596W        W71857  15.170   0.386  12.963
12597W        W71858  36.029  37.899   4.675
12598W        W71859  13.144  19.754   9.987
12599W        W71860  17.065   0.335   0.745
12600W        W71861   9.358  11.802  12.908
12601W        W71862  11.765  16.104  11.536
12602W        W71863  37.470  10.193   3.646
12603W        W71864  17.738  23.667  12.057
12604W        W71865  41.526  18.774   1.261
12605W        W71866  10.756  34.911   3.718
12606W        W71867  10.371  37.345  12.555
12607W        W71868  33.621  34.000   5.265
12608W        W71869  22.173   9.735  12.452
12609W        W71870  34.481  34.585   1.376
12610W        W71871  38.981  17.203  14.341
12611W        W71872  28.989  27.967  12.493
12612W        W71873  33.447  31.064   1.218
12613W        W71874  40.993  29.642   4.154
12614W        W71875  33.130  43.388   1.259
12615W        W71876  14.135  39.477  11.495
12616W        W71877  41.879  42.325   1.250
12617W        W71878  11.325  11.234   0.874
12618W        W71879  20.205  14.767  10.973
12619W        W71880   7.797  25.011  13.459
12620W        W71881  10.244   2.310   2.268
12621W        W71882  20.584  33.058  11.554
12622W        W71883  16.232   0.398   0.365
12623W        W71884   7.859  31.555  14.945
12624W        W71885   7.736   9.865   3.161
12625W        W71886  35.977  42.890   9.950
12626W        W71887   2.763  27.065  13.995
12627W        W71888   6.791  20.531  14.422
12628W        W71889  16.656  17.587  13.358
12629W        W71890  37.038   4.251   0.809
12630W        W71891   7.814   3.797   4.330
12631W        W71892  20.121  29.961  14.838
12632W        W71893  21.236  27.587   4.298
12633W        W71894  17.796  41.412  14.427
12634W        W71895  42.824  31.125   0.323
12635W        W71896   3.853  23.062  12.575
12636W        W71897  17.687  32.633   1.925
12637W        W71898   3.922  35.589   2.805
12638W        W71899  26.975  14.262   1.336
12639W        W71900  23.013  10.664  14.803
12640W        W71901   1.287   4.288   1.912
12641W        W71902   6.229  11.278  11.978
12642W        W71903   6.907  15.306  14.488
12643W        W71904   8.859  36.851   2.411
12644W        W71905  29.637  22.669  14.818
12645W        W71906   0.427  19.188   1.286
12646W        W71907  39.930  44.856  14.922
12647W        W71908  25.123  16.641  10.626
12648W        W71909  34.901  28.991   3.776
12649W        W71910  33.050  29.471  10.930
12650W        W71911  17.246  34.432  11.085
12651W        W71912   7.190   2.226   1.875
12652W        W71913  11.787  18.574  11.977
12653W        W71914   3.308  13.232   2.787
12654W        W71915   3.880  32.895  14.480
12655W        W71916  39.320   6.853   0.876
12656W        W71917  25.554  10.764  13.439
12657W        W71918   1.911  15.093   0.382
12658W        W71919  40.487  37.492  12.451
12659W        W71920  22.649   5.775   0.481
12660W        W71921   8.839  17.787   2.376
12661W        W71922  41.969  15.214   0.791
12662W        W71923  35.016  24.575  11.605
12663W        W71924  40.481  32.539  13.983
12664W        W71925  40.978  28.602   2.193
12665W        W71926  26.164  18.754  13.364
12666W        W71927  13.672  15.087   2.706
12667W        W71928  43.396   4.228  12.343
12668W        W71929  38.023  29.567  13.513
12669W        W71930  21.640  42.966  13.874
12670W        W71931  40.923  10.869   0.768
12671W        W71932  10.683  39.914  14.499
12672W        W71933  41.993  27.019   3.336
12673W        W71934  38.036  23.630   3.153
12674W        W71935  43.875   4.423   1.735
12675W        W71936  28.612  36.986   0.459
12676W        W71937   2.955  31.010   0.475
12677W        W71938   6.837  11.284   0.787
12678W        W71939   2.905  27.088   0.315
12679W        W71940  16.142   8.220  11.390
12680W        W71941  25.152  41.325  14.446
12681W        W71942   2.304  27.941   0.426
12682W        W71943   5.765  13.817   2.869
12683W        W71944  23.678  37.477  13.866
12684W        W71945  17.182  37.064   1.716
12685W        W71946  31.513  43.329   0.256
12686W        W71947  43.889  36.028  10.994
12687W        W71948   8.884  37.072   3.368
12688W        W71949   6.380  24.026   3.318
12689W        W71950  17.653  12.661  14.353
12690W        W71951  15.151  44.476   1.391
12691W        W71952  22.232  22.676   4.221
12692W        W71953  44.881  26.157  13.401
12693W        W71954  34.027  37.085  14.445
12694W        W71955  25.981   5.871   2.388
12695W        W71956  22.037  39.933   2.800
12696W        W71957  14.314  28.154   0.727
12697W        W71958  13.131  19.740  12.072
12698W        W71959   8.704  39.911   2.265
12699W        W71960  29.149  18.733   4.750
12700W        W71961  42.923   3.821  12.972
12701W        W71962  27.493  16.297  13.980
12702W        W71963  17.760  13.191  14.930
12703W        W71964   0.746   4.849  11.858
12704W        W71965  40.850  28.581  12.867
12705W        W71966  24.699  15.814   0.263
12706W        W71967  20.097  43.318   1.305
12707W        W71968  36.939  41.802  11.930
12708W        W71969  13.255   0.886  12.342
12709W        W71970   2.863  31.098  13.499
12710W        W71971  32.514  36.575   3.315
12711W        W71972  30.940  37.943  11.096
12712W        W71973  15.268  27.971  12.430
12713W        W71974   2.899  32.620   4.333
12714W        W71975  31.484  35.919  13.061
12715W        W71976  16.633  37.065  13.899
12716W        W71977  19.566   2.883  11.069
12717W        W71978  34.920  35.573   3.239
12718W        W71979  38.523  43.969  13.951
12719W        W71980  36.922  26.115  10.572
12720W        W71981  16.076  34.427   3.703
12721W        W71982   5.437   4.277   3.299
12722W        W71983  41.026  28.083   3.274
12723W        W71984   0.861  17.751  12.027
12724W        W71985   8.331   2.231   4.309
12725W        W71986  19.220  38.047   2.669
12726W        W71987  26.527  41.362  12.444
12727W        W71988  19.142  26.678   0.347
12728W        W71989  36.881  37.456   1.823
12729W        W71990  40.984  22.665  12.946
12730W        W71991  27.491  15.145  10.541
12731W        W71992  42.001   1.942  10.506
12732W        W71993  13.628  14.618   2.205
12733W        W71994  29.955   6.231   0.354
12734W        W71995  35.002  22.214  10.566
12735W        W71996  36.920  30.630  12.384
12736W        W71997  23.066  19.078  13.463
12737W        W71998  41.442  30.416   0.855
12738W        W71999  41.413  32.043   3.769
12739W        W72000  34.864  30.098   4.815
12740W        W72001   9.649  15.301  14.974
12741W        W72002  23.540   2.399  14.875
12742W        W72003  22.646  44.860   0.322
12743W        W72004   7.400  34.988   2.329
12744W        W72005  29.443  16.813  13.955
12745W        W72006  20.581  18.159  12.993
12746W        W72007   6.795  41.789  13.326
12747W        W72008   7.256  28.119   4.665
12748W        W72009  32.633  41.923   2.257
12749W        W72010  33.497  21.192   3.729
12750W        W72011  10.689  17.147  13.944
12751W        W72012  30.576  20.535  12.882
12752W        W72013   2.342  34.875   2.272
12753W        W72014  43.459  30.952  14.358
12754W        W72015  42.813  22.049  10.939
12755W        W72016  18.603  44.989   3.150
12756W        W72017   5.209  24.210   1.764
12757W        W72018  29.098  32.621  14.864
12758W        W72019  32.097  16.078   0.319
12759W        W72020  44.774  21.591  12.535
12760W        W72021   8.335  41.326   0.763
12761W        W72022   0.366  17.700  12.994
12762W        W72023  32.563  24.119   0.820
12763W        W72024  18.565  12.771  12.470
12764W        W72025  17.651  41.974  11.485
12765W        W72026  11.738  11.845   9.589
12766W        W72027  25.186  32.482   0.954
12767W        W72028   0.844  26.589   4.770
12768W        W72029   3.817   6.899  14.004
12769W        W72030  17.730  39.046   1.910
12770W        W72031  35.512  36.090   3.321
12771W        W72032   3.262  15.634  13.510
12772W        W72033  39.475   5.852  11.903
12773W        W72034  43.421  40.324  12.444
12774W        W72035   8.795   0.809   0.744
12775W        W72036   9.879  26.107  14.297
12776W        W72037   6.343  19.212  10.575
12777W        W72038  20.165  39.924   1.261
12778W        W72039  30.127  16.243  14.983
12779W        W72040  30.554  36.550  13.983
12780W        W72041  17.700  32.885  14.811
12781W        W72042  14.207  16.618  14.378
12782W        W72043  35.923   8.357   1.274
12783W        W72044  33.554  25.980   3.303
12784W        W72045   7.892  34.548   0.291
12785W        W72046  28.674  15.648   0.251
12786W        W72047   5.821  39.485   0.323
12787W        W72048  17.581  33.909   2.803
12788W        W72049  25.631  18.639   2.769
12789W        W72050  31.944  15.318  13.356
12790W        W72051  16.588  28.951   1.914
12791W        W72052  41.968  30.013   0.365
12792W        W72053   0.824   1.331   1.735
12793W        W72054  31.626  28.177   1.754
12794W        W72055   0.869  11.691  13.423
12795W        W72056  30.627   4.729   1.260
12796W        W72057   4.880   2.362  12.400
12797W        W72058  28.074  37.080  11.494
12798W        W72059  44.412  36.571  14.898
12799W        W72060  28.561  30.131  11.418
12800W        W72061  27.050  19.165  14.441
12801W        W72062  43.414  18.652  14.332
12802W        W72063  26.971  35.440  14.495
12803W        W72064  29.982  30.001  11.026
12804W        W72065  40.523   2.872   3.201
12805W        W72066  41.948  23.679   3.737
12806W        W72067  35.000  21.522   0.482
12807W        W72068  39.341  41.496   1.450
12808W        W72069  19.111   8.847  12.078
12809W        W72070  11.663   5.705   3.663
12810W        W72071   7.272  35.865   2.309
12811W        W72072  21.206  18.626   3.824
12812W        W72073  33.548   4.897   4.708
12813W        W72074  34.611  36.919  14.874
12814W        W72075  44.295  16.086   2.699
12815W        W72076  22.109  27.621   9.971
12816W        W72077  35.958  37.574  13.380
12817W        W72078  16.578  27.040  12.373
12818W        W72079  32.082   7.814   3.202
12819W        W72080   3.910   1.915   4.273
12820W        W72081  22.212  32.104   0.270
12821W        W72082  38.521  11.835  14.869
12822W        W72083  21.575  27.473  10.420
12823W        W72084  27.946  19.769   2.404
12824W        W72085  10.300  23.047   2.259
12825W        W72086  12.193  19.674  13.872
12826W        W72087  10.636   4.447  13.892
12827W        W72088  24.205  38.985   3.813
12828W        W72089  32.131  19.613  10.101
12829W        W72090  31.911  34.382   0.298
12830W        W72091  42.888  44.972  14.972
12831W        W72092  16.728  17.069  14.961
12832W        W72093   9.162  13.290   5.645
12833W        W72094  17.792  25.618  12.893
12834W        W72095  38.361  12.160   3.742
12835W        W72096  39.004  43.409  11.045
12836W        W72097  27.620   2.365   3.367
12837W        W72098  15.276   1.841   1.707
12838W        W72099  39.425  32.062  14.324
12839W        W72100  17.129   0.919   5.166
12840W        W72101  24.609  37.909   4.678
12841W        W72102  27.525   2.304  11.022
12842W        W72103  36.438   2.829  14.360
12843W        W72104  10.299  22.151   4.255
12844W        W72105  27.958  13.672  10.630
12845W        W72106  39.935  18.691  12.088
12846W        W72107  39.461  14.814  11.123
12847W        W72108  10.774   4.437  12.447
12848W        W72109  20.679  10.738   3.270
12849W        W72110  40.344  30.076  12.350
12850W        W72111  28.469  33.892  13.360
12851W        W72112  31.051   0.851  13.002
12852W        W72113  21.592  20.091  13.974
12853W        W72114  11.162   6.206  14.431
12854W        W72115  16.727  27.128   4.822
12855W        W72116   8.302  13.268   2.733
12856W        W72117   3.445  41.807  14.476
12857W        W72118   4.730  11.194  13.422
12858W        W72119  23.489  38.943   2.867
12859W        W72120  34.559   2.385   0.926
12860W        W72121  14.301  13.299   2.898
12861W        W72122  10.800  43.783  11.532
12862W        W72123   0.413   7.244   3.164
12863W        W72124   6.680  13.196   0.389
12864W        W72125   6.868  42.478   4.658
12865W        W72126  11.723  36.880  13.353
12866W        W72127   1.855  34.495  14.955
12867W        W72128  33.000  35.042   1.394
12868W        W72129  24.698  30.150  13.441
12869W        W72130  10.255  17.713   2.332
12870W        W72131  39.901  22.514  12.920
12871W        W72132  28.127  20.601   4.645
12872W        W72133  35.360  25.614  12.409
12873W        W72134  33.007  10.239  14.821
12874W        W72135  43.853  41.979  14.845
12875W        W72136  11.371   6.189   2.758
12876W        W72137  43.364  10.830  12.507
12877W        W72138  22.500  36.854  13.995
12878W        W72139   3.242  37.404   5.172
12879W        W72140  31.989  40.398   1.352
12880W        W72141  13.186  11.826   1.724
12881W        W72142  17.227  18.547   0.385
12882W        W72143  23.033  33.940   2.869
12883W        W72144  11.785   7.679   0.336
12884W        W72145   0.484  19.057  11.483
12885W        W72146  33.065  34.925  13.401
12886W        W72147   5.259  10.706   4.621
12887W        W72148   6.396  28.095   4.823
12888W        W72149   9.770  34.010  11.912
12889W        W72150  31.976  18.719  10.995
12890W        W72151  37.863  34.418   1.730
12891W        W72152  28.538  21.706  14.427
12892W        W72153  41.943  35.917   3.162
12893W        W72154  19.672  29.128   0.431
12894W        W72155   2.862  28.143   1.442
12895W        W72156  35.497   8.335   0.900
12896W        W72157  25.097  37.923   0.244
12897W        W72158  44.289  19.053   4.704
12898W        W72159   7.281   0.330   1.441
12899W        W72160  24.150  10.289   0.867
12900W        W72161  36.538  29.535  10.567
12901W        W72162  24.153   5.846   4.328
12902W        W72163  11.331  32.509   0.335
12903W        W72164   0.467  33.558   4.823
12904W        W72165   5.228  27.565   0.289
12905W        W72166  41.463  39.962   4.663
12906W        W72167  33.605   9.312   4.226
12907W        W72168  41.985  34.478   1.722
12908W        W72169  30.572   7.851   2.235
12909W        W72170  41.332  37.875   0.824
12910W        W72171  24.584  40.357  14.944
12911W        W72172  23.631  41.896   0.261
12912W        W72173  19.234  41.993   3.710
12913W        W72174  16.797  15.672  11.540
12914W        W72175   5.420  39.508  10.905
12915W        W72176  30.582  20.110   1.874
12916W        W72177  25.627  43.357   2.250
12917W        W72178  17.714  15.116   3.632
12918W        W72179  36.866  18.607  10.951
12919W        W72180  28.620  29.456  11.105
12920W        W72181  11.221  25.501  14.798
12921W        W72182  16.670  14.779  12.506
12922W        W72183  37.018  32.888  12.091
12923W        W72184  24.666  19.675  12.035
12924W        W72185  14.618  28.524   0.772
12925W        W72186  28.538  44.394   4.690
12926W        W72187  22.609  37.513  10.009
12927W        W72188  42.431  19.277   3.292
12928W        W72189   7.828   9.272  12.892
12929W        W72190  12.667  13.754   4.323
12930W        W72191  11.776  33.034  10.986
12931W        W72192  30.546  27.479  13.968
12932W        W72193  29.524   4.356  12.890
12933W        W72194  18.559   0.979  10.589
12934W        W72195  43.490  18.783   2.356
12935W        W72196   2.903  12.650   1.869
12936W        W72197  41.943   2.416   3.196
12937W        W72198  10.770  16.077  11.454
12938W        W72199   3.260  30.618  14.875
12939W        W72200  14.681  44.822   4.207
12940W        W72201  28.452  35.875  13.821
12941W        W72202  21.060   8.686   4.233
12942W        W72203  26.132  27.026   0.957
12943W        W72204  37.955  38.469   4.734
12944W        W72205   9.154   0.328  13.051
12945W        W72206  27.492  38.469   3.176
12946W        W72207  31.442  19.698   2.228
12947W        W72208  12.183  19.269  12.934
12948W        W72209  21.218  17.234  11.527
12949W        W72210  18.581   6.308   4.244
12950W        W72211  15.196  18.747  12.558
12951W        W72212  19.124   1.368  13.399
12952W        W72213   1.359  22.052  11.091
12953W        W72214  32.071   6.745  12.003
12954W        W72215  29.502  38.418  11.913
12955W        W72216  13.731  38.064   4.317
12956W        W72217  30.482  29.119  12.415
12957W        W72218  15.591  35.882   0.853
12958W        W72219   1.458  17.279  12.068
12959W        W72220  43.977  39.862  14.391
12960W        W72221   8.674  36.014  13.369
12961W        W72222   3.451  27.997  13.818
12962W        W72223  38.454  32.079   2.180
12963W        W72224   5.695   7.731  14.335
12964W        W72225   2.376  31.554   2.183
12965W        W72226  40.523   9.258   1.715
12966W        W72227  17.714  10.806  12.488
12967W        W72228  23.002  30.486  10.503
12968W        W72229   3.868  41.801  12.930
12969W        W72230  37.495  10.198  10.087
12970W        W72231  17.761   6.829  12.462
12971W        W72232  41.418  40.867  10.418
12972W        W72233  32.889  15.113   0.960
12973W        W72234  16.602  35.053   0.305
12974W        W72235  41.013  37.867  11.396
12975W        W72236  16.616  17.217   3.206
12976W        W72237  26.155  28.636   2.344
12977W        W72238  26.983  35.990   0.452
12978W        W72239  18.675  12.664  11.595
12979W        W72240  20.592  19.076   0.415
12980W        W72241  30.434  39.440  12.837
12981W        W72242   6.773  42.891  14.479
12982W        W72243  17.105  34.471  10.614
12983W        W72244  27.481  11.803  12.448
12984W        W72245   1.273  22.097   0.422
12985W        W72246   5.847  32.925  11.996
12986W        W72247  23.093  25.579   1.815
12987W        W72248   5.877  36.398   2.199
12988W        W72249  34.041  33.919   9.945
12989W        W72250  18.073  14.175  12.920
12990W        W72251  44.449  42.365   4.687
12991W        W72252  24.676  31.955  13.516
12992W        W72253  35.107  23.696   1.395
12993W        W72254  16.643  35.046  10.996
12994W        W72255  21.212  39.845  10.053
12995W        W72256  16.657  17.279   0.965
12996W        W72257  41.341  10.779   0.479
12997W        W72258   2.950   7.331  11.479
12998W        W72259  42.824  40.877   3.161
12999W        W72260  11.802  25.978   0.340
13000W        W72261  11.785  28.989  10.552
13001W        W72262  39.925   5.833   3.769
13002W        W72263  18.070  28.595   3.665
13003W        W72264  38.326  10.248  10.541
13004W        W72265  27.536  38.406   3.869
13005W        W72266  31.416  23.617   2.267
13006W        W72267  39.351   3.744   2.256
13007W        W72268  13.718  29.660   0.726
13008W        W72269  34.579   5.209   2.821
13009W        W72270  19.736  32.929   2.310
13010W        W72271  38.073  10.645   1.806
13011W        W72272   9.377  11.691  10.100
13012W        W72273  25.544  15.593   0.279
13013W        W72274  22.616  35.537  12.569
13014W        W72275  22.594  39.950  13.511
13015W        W72276   4.368  31.555   3.742
13016W        W72277  31.633  39.430   9.977
13017W        W72278  34.476  14.624   0.256
13018W        W72279  17.708   2.385   4.723
13019W        W72280  17.174  23.120   2.769
13020W        W72281  23.627  44.000   1.833
13021W        W72282  44.767   9.362  10.977
13022W        W72283  44.757  21.721  11.056
13023W        W72284   1.913   7.276  13.911
13024W        W72285  43.287   5.253   4.143
13025W        W72286   6.421  36.071   4.780
13026W        W72287  29.543   6.202   4.632
13027W        W72288  43.479  22.038   3.157
13028W        W72289  43.860  16.732   2.801
13029W        W72290  22.140  24.494   9.439
13030W        W72291  14.196  43.395   3.192
13031W        W72292  23.717  14.614  12.027
13032W        W72293  22.227  40.396   2.786
13033W        W72294  21.631  36.924  14.802
13034W        W72295  42.469  19.666   0.833
13035W        W72296  11.670  11.192   4.122
13036W        W72297  24.075  13.258  11.966
13037W        W72298  43.936  44.393  13.824
13038W        W72299  31.503  15.595   3.653
13039W        W72300  10.246  28.988   2.774
13040W        W72301  29.143  35.018   0.288
13041W        W72302  35.060  33.486   0.459
13042W        W72303  23.055  32.514   0.837
13043W        W72304  36.505  28.647   4.146
13044W        W72305   1.810  22.120  10.644
13045W        W72306  44.894   0.324   4.129
13046W        W72307   1.284  42.376   0.457
13047W        W72308  16.747  26.530  12.036
13048W        W72309  10.821  42.798  12.458
13049W        W72310  36.930  10.722  10.908
13050W        W72311  44.981  35.876   0.307
13051W        W72312  20.149   5.388   1.387
13052W        W72313  37.861   5.202  13.800
13053W        W72314  39.476  18.084  14.318
13054W        W72315   4.835  44.770  14.790
13055W        W72316  21.559   4.843  12.526
13056W        W72317  10.187  38.901   3.363
13057W        W72318  39.059   3.360  10.108
13058W        W72319  14.627  23.631   3.821
13059W        W72320  44.501  21.114   3.376
13060W        W72321  15.176   0.742   0.828
13061W        W72322  40.414  25.151  14.512
13062W        W72323   6.333  10.291   2.415
13063W        W72324  24.665   8.358  13.843
13064W        W72325  14.680   6.885   1.411
13065W        W72326  38.530   3.411  10.516
13066W        W72327  38.363  27.580   0.388
13067W        W72328   9.871  43.927  11.091
13068W        W72329  29.486  44.767   3.869
13069W        W72330  34.462  19.620   2.675
13070W        W72331  27.061  25.143  12.979
13071W        W72332  32.577  22.655  14.275
13072W        W72333  38.943  14.316  11.927
13073W        W72334  26.635  30.989  13.321
13074W        W72335   8.401  43.468   3.646
13075W        W72336   5.220   6.689  12.343
13076W        W72337  35.562  23.002   0.354
13077W        W72338   9.694  17.283  10.914
13078W        W72339  17.732  35.965   2.191
13079W        W72340  12.820  32.133   2.881
13080W        W72341  43.822  35.915  13.857
13081W        W72342  25.018   0.827   1.245
13082W        W72343  33.589  16.690  10.455
13083W        W72344   0.898  11.677   2.722
13084W        W72345  19.121  13.243  11.477
13085W        W72346  39.378  31.083   0.281
13086W        W72347  43.785  43.319  13.307
13087W        W72348   5.331  29.136  12.843
13088W        W72349  23.213  15.125  10.524
13089W        W72350  39.519  13.627  13.374
13090W        W72351  33.891   6.268   1.216
13091W        W72352   4.378  15.786  11.411
13092W        W72353  24.095  18.780   3.326
13093W        W72354  24.219   7.898  10.430
13094W        W72355  21.684  11.263   2.901
13095W        W72356  38.539  40.351   3.640
13096W        W72357  27.655  42.879  10.933
13097W        W72358  23.687   4.272   0.783
13098W        W72359  19.262  26.206   2.884
13099W        W72360  40.344  42.332   2.297
13100W        W72361   6.781  32.038  14.294
13101W        W72362  26.583  10.265   2.720
13102W        W72363   3.892  16.800   0.732
13103W        W72364   9.309  10.226  11.595
13104W        W72365   0.275  13.657   0.901
13105W        W72366  20.532  44.973  14.508
13106W        W72367  37.548   0.770  11.969
13107W        W72368  31.442  44.934  12.090
13108W        W72369  16.171  32.946  10.453
13109W        W72370  31.051  17.114   3.176
13110W        W72371  34.039  36.567   2.872
13111W        W72372  17.141  27.542   1.754
13112W        W72373   7.890  24.637  12.837
13113W        W72374   8.846  31.477  11.901
13114W        W72375  37.429  40.465   2.776
13115W        W72376  29.669  17.630   2.865
13116W        W72377   4.440  28.630  11.519
13117W        W72378  29.006  11.752  14.456
13118W        W72379  25.665  13.137  13.809
13119W        W72380   8.686  37.924  12.877
13120W        W72381   7.804  34.908  14.809
13121W        W72382   5.313  17.176  12.526
13122W        W72383  36.931  36.916   4.279
13123W        W72384  21.741  25.021   0.380
13124W        W72385  13.147   2.936  14.953
13125W        W72386  13.111  12.852   0.762
13126W        W72387   7.413  21.629   4.237
13127W        W72388  41.914   2.729   2.328
13128W        W72389   4.708  20.736  10.978
13129W        W72390  35.935  10.378   2.262
13130W        W72391  38.523   0.396   2.812
13131W        W72392  31.966   5.433  14.411
13132W        W72393  38.449  17.291   2.395
13133W        W72394   1.294  28.115  14.978
13134W        W72395  38.052  13.605   1.866
13135W        W72396  43.515  42.835   3.177
13136W        W72397   1.432  41.490   4.116
13137W        W72398   4.913   5.722   9.532
13138W        W72399  30.466  23.527   4.710
13139W        W72400  38.450  15.730   0.761
13140W        W72401   2.316  43.400   0.820
13141W        W72402  19.255  26.579  14.791
13142W        W72403   2.379  10.274   4.796
13143W        W72404  25.571  30.496   5.192
13144W        W72405  34.946  31.408  13.345
13145W        W72406  14.609  44.002   0.818
13146W        W72407   1.853  34.109   1.226
13147W        W72408  20.634  35.415  13.387
13148W        W72409  38.850  36.351  11.383
13149W        W72410   4.377  41.901   1.380
13150W        W72411  20.542  44.913  13.393
13151W        W72412  28.158  39.554   1.759
13152W        W72413  17.072  31.978   2.366
13153W        W72414  30.053   0.779   2.365
13154W        W72415  28.437  32.969   1.802
13155W        W72416  37.496  28.649  11.965
13156W        W72417   2.415  24.609  12.831
13157W        W72418  15.619   6.330  14.373
13158W        W72419  24.690  14.780  11.054
13159W        W72420   5.260   3.306   1.766
13160W        W72421  21.689   9.867  14.368
13161W        W72422   1.754  37.000   0.372
13162W        W72423  19.189  15.300  13.368
13163W        W72424  34.100  24.986  10.543
13164W        W72425  27.665  24.139  12.935
13165W        W72426  12.749  18.558  11.401
13166W        W72427  38.378  17.236  11.934
13167W        W72428  40.501  38.055   5.785
13168W        W72429  13.280  41.358   9.928
13169W        W72430  41.933  24.066  14.286
13170W        W72431  38.925  37.480  11.527
13171W        W72432  21.674  30.544   5.190
13172W        W72433  26.466   4.379   3.750
13173W        W72434   7.892  25.498   4.838
13174W        W72435  11.351  33.942   0.424
13175W        W72436   8.273  44.908  13.336
13176W        W72437   6.833   0.794  14.924
13177W        W72438  28.110  32.562   3.187
13178W        W72439  33.902  13.346  13.409
13179W        W72440  41.824  10.770  12.085
13180W        W72441  34.935  18.133  13.933
13181W        W72442   6.858  11.840   1.402
13182W        W72443  13.226  37.357   0.274
13183W        W72444  27.618   3.417   3.350
13184W        W72445  28.173  24.141   5.092
13185W        W72446   1.925  42.324  10.506
13186W        W72447  22.200   2.472  14.375
13187W        W72448  44.465  38.461  11.409
13188W        W72449  37.893  31.120   2.251
13189W        W72450  14.155   8.889  12.467
13190W        W72451  10.279   6.843  14.974
13191W        W72452  16.105  19.613  14.474
13192W        W72453  14.621   8.175  13.438
13193W        W72454  34.437   5.840  10.977
13194W        W72455  31.033   1.752  10.007
13195W        W72456   7.172  43.999  12.462
13196W        W72457  22.037  38.005  10.435
13197W        W72458  24.992   3.873   4.832
13198W        W72459  27.138   9.257   2.270
13199W        W72460  22.675  22.052  13.427
13200W        W72461  31.141  13.770   1.286
13201W        W72462  11.861  11.359   1.876
13202W        W72463   3.375  33.504   0.829
13203W        W72464  24.164  37.364  14.869
13204W        W72465  30.462  41.921   5.284
13205W        W72466  11.232  15.236  12.035
13206W        W72467  39.373   7.366   4.231
13207W        W72468  35.429  40.396   4.770
13208W        W72469  37.495  30.100  12.976
13209W        W72470  35.855  34.094  12.363
13210W        W72471  22.742  13.152  11.524
13211W        W72472  43.384  35.039  12.426
13212W        W72473   8.881  19.061  10.926
13213W        W72474  18.274   5.293   0.353
13214W        W72475  16.668   2.889   4.301
13215W        W72476  35.853   3.786  10.641
13216W        W72477  28.519   7.402   1.315
13217W        W72478  34.875  25.040   9.967
13218W        W72479  15.246  24.709   2.271
13219W        W72480  18.706   7.880  11.440
13220W        W72481  42.326  16.782  13.331
13221W        W72482  21.583  35.573   3.740
13222W        W72483   1.933   4.785  12.971
13223W        W72484  15.196   0.963   0.256
13224W        W72485   2.282  35.535   2.293
13225W        W72486  13.186  42.825  13.869
13226W        W72487  28.979  37.979  12.369
13227W        W72488  23.697   0.443  10.907
13228W        W72489   5.885  20.645  12.507
13229W        W72490  15.114  14.668   1.870
13230W        W72491  38.555  35.949   5.273
13231W        W72492  21.687  32.513  11.507
13232W        W72493  37.009  30.612  11.123
13233W        W72494  20.736  26.525  14.347
13234W        W72495   6.734   1.326  14.854
13235W        W72496  40.009  16.795   4.291
13236W        W72497   2.923  36.550   4.294
13237W        W72498  21.068  41.532   0.312
13238W        W72499   6.341  26.554   1.368
13239W        W72500  37.416  42.487   1.825
13240W        W72501  28.114  14.784   4.662
13241W        W72502  28.503  38.047   1.374
13242W        W72503  22.583   8.180  10.988
13243W        W72504  30.044   8.367  11.911
13244W        W72505  26.193  21.734  13.321
13245W        W72506  33.930   4.867  11.078
13246W        W72507   8.721   6.357   0.459
13247W        W72508  17.110  24.717  13.488
13248W        W72509  32.064  31.574  12.468
13249W        W72510  33.385  43.310   4.262
13250W        W72511  38.376  18.780  14.877
13251W        W72512  36.936   3.232   4.640
13252W        W72513  29.439  27.581   2.819
13253W        W72514  28.942  31.951  13.428
13254W        W72515  15.650  24.650   1.307
13255W        W72516   3.942  42.795   4.825
13256W        W72517  26.960  31.633  10.407
13257W        W72518  34.875  13.642  14.787
13258W        W72519   1.482   8.680  13.940
13259W        W72520  39.020   6.181   2.783
13260W        W72521   5.416  19.189  12.901
13261W        W72522  32.134  41.494  11.865
13262W        W72523  17.602  22.191  11.492
13263W        W72524  39.484  41.043  10.472
13264W        W72525   5.269  35.547  10.936
13265W        W72526  33.121  13.768  11.989
13266W        W72527  43.429   6.223   3.148
13267W        W72528  37.336  35.010  14.482
13268W        W72529  29.991  26.180   3.352
13269W        W72530  21.026  30.537   0.257
13270W        W72531  12.278  40.909   4.210
13271W        W72532  23.526  36.541  11.042
13272W        W72533  30.980  26.518   2.299
13273W        W72534  22.037  41.420  12.577
13274W        W72535  29.164   6.857   1.759
13275W        W72536  27.595   6.790   4.827
13276W        W72537   8.287   7.878   1.830
13277W        W72538  29.607  16.637   1.283
13278W        W72539   5.410  38.439  14.319
13279W        W72540   2.372  44.485  14.278
13280W        W72541  39.318  33.546  12.905
13281W        W72542  18.766  27.052   1.848
13282W        W72543  37.505  31.521   5.115
13283W        W72544  18.188  23.142   2.357
13284W        W72545  20.095  40.444  14.857
13285W        W72546  18.747  12.825   3.146
13286W        W72547  18.711  15.651   2.841
13287W        W72548  17.284  23.167   0.742
13288W        W72549  26.659  43.765   1.276
13289W        W72550  43.451  11.214   3.259
13290W        W72551  30.009  34.469  13.799
13291W        W72552  19.073  23.595   1.843
13292W        W72553   2.254  24.000  13.451
13293W        W72554  10.849  12.710  12.849
13294W        W72555  20.549  33.980  11.039
13295W        W72556  29.505  26.093  14.019
13296W        W72557  37.958  39.398   2.840
13297W        W72558   1.331  14.240   1.735
13298W        W72559  17.205  19.545  12.091
13299W        W72560  10.859  17.299   1.848
13300W        W72561   7.764  27.996   4.223
13301W        W72562  20.168  42.899   1.697
13302W        W72563  38.470  31.513   4.130
13303W        W72564   2.779  14.752   2.368
13304W        W72565  27.028  37.494  12.492
13305W        W72566  19.256  16.099   0.444
13306W        W72567  36.856   8.890  11.553
13307W        W72568  30.104  42.510  12.442
13308W        W72569  36.884  29.648   1.798
13309W        W72570  38.832  43.375   0.475
13310W        W72571  26.685  40.424  11.001
13311W        W72572  19.594   2.727  13.919
13312W        W72573  42.368   4.895   3.734
13313W        W72574  11.731   5.801   3.377
13314W        W72575  13.763   9.846   3.750
13315W        W72576  18.051   6.888   1.852
13316W        W72577  15.233  25.985  12.834
13317W        W72578  44.498  14.676   2.375
13318W        W72579  32.582  10.139   3.640
13319W        W72580  38.537  10.294   5.141
13320W        W72581  17.172   5.695   1.402
13321W        W72582  19.083  29.918  14.932
13322W        W72583  43.884  35.916   1.886
13323W        W72584  44.904  44.853   4.264
13324W        W72585  11.694   8.772   4.250
13325W        W72586  12.724   4.842   3.676
13326W        W72587   5.888  11.179   0.859
13327W        W72588  19.574   4.218   4.172
13328W        W72589  12.653  22.615   2.708
13329W        W72590  24.489  18.177  10.477
13330W        W72591   4.342  31.429   0.793
13331W        W72592  22.225  11.852   1.721
13332W        W72593  26.650   1.747  10.408
13333W        W72594  17.152   6.263   2.281
13334W        W72595  20.179  37.525   5.182
13335W        W72596  17.749   1.758   3.740
13336W        W72597   4.414  17.795   1.303
13337W        W72598  14.693  41.959  12.380
13338W        W72599  38.371  22.664   1.449
13339W        W72600  22.649   5.743   0.825
13340W        W72601   2.757  38.976   3.745
13341W        W72602  25.142  10.268  12.855
13342W        W72603   1.782  33.943  12.083
13343W        W72604  31.525   3.385  12.423
13344W        W72605  12.676  38.360  10.640
13345W        W72606  20.603  44.401   4.181
13346W        W72607  17.196   5.245  12.017
13347W        W72608  28.088  35.390   4.145
13348W        W72609  21.698  19.097   1.441
13349W        W72610  30.049   7.343  11.117
13350W        W72611  21.143  27.188   1.823
13351W        W72612  39.033   6.215   5.292
13352W        W72613  22.668  18.736  11.115
13353W        W72614   4.247  37.853  13.925
13354W        W72615  16.189  13.116  13.026
13355W        W72616  31.615  17.205  13.332
13356W        W72617   6.887   7.765   2.752
13357W        W72618  23.074  37.526  11.574
13358W        W72619  29.427   0.456  13.524
13359W        W72620  29.611  30.468  14.289
13360W        W72621  27.024  19.247  13.842
13361W        W72622  29.576  39.950   3.639
13362W        W72623  41.935  28.659   0.782
13363W        W72624  17.152  40.328  14.402
13364W        W72625  15.769  32.135  13.912
13365W        W72626  21.202   8.349   4.244
13366W        W72627  40.835  25.714   3.650
13367W        W72628  42.989  29.558   1.417
13368W        W72629   9.818  35.562   1.855
13369W        W72630  10.635  18.567  13.855
13370W        W72631  19.732  31.931  14.761
13371W        W72632  31.623  30.532  11.981
13372W        W72633  19.705   1.976   0.381
13373W        W72634  38.871  29.632   4.283
13374W        W72635  21.528  37.352  14.982
13375W        W72636  29.057   7.267   1.424
13376W        W72637  42.864  40.821   0.404
13377W        W72638  32.058  40.948   4.209
13378W        W72639  27.138  15.250  10.516
13379W        W72640  36.474  33.105  11.017
13380W        W72641  14.250  36.015  13.535
13381W        W72642  43.488  26.471  14.503
13382W        W72643   6.764   4.438   1.749
13383W        W72644  27.467  27.186   2.412
13384W        W72645  24.594  44.497  13.983
13385W        W72646   0.362  23.724  12.403
13386W        W72647  43.900  39.043   2.215
13387W        W72648  11.181   1.865  10.932
13388W        W72649   4.274   0.860   4.597
13389W        W72650  30.657  26.694  12.862
13390W        W72651   2.731  36.431   1.795
13391W        W72652  29.976  31.629  14.342
13392W        W72653  41.849  12.296  10.521
13393W        W72654  13.330   5.232  13.478
13394W        W72655  31.090  28.487  10.483
13395W        W72656   8.716   7.296   3.258
13396W        W72657  29.454  42.824  11.921
13397W        W72658  35.967   3.341   4.206
13398W        W72659  14.810   1.462   2.336
13399W        W72660   3.242  20.030  11.023
13400W        W72661  28.529  12.176  12.863
13401W        W72662  18.740  19.227   1.820
13402W        W72663  23.148  32.964  13.316
13403W        W72664  37.413  40.920   3.679
13404W        W72665  17.103  25.524  14.991
13405W        W72666  21.018  23.984   0.280
13406W        W72667  43.330  30.491  11.423
13407W        W72668  10.141   9.212   3.264
13408W        W72669  40.921  21.705   1.350
13409W        W72670   0.854  19.212   1.758
13410W        W72671  18.675   3.352  11.030
13411W        W72672  13.142  37.846  14.799
13412W        W72673  21.708  31.436  11.014
13413W        W72674  40.500  44.390  14.314
13414W        W72675  29.922  13.157  11.960
13415W        W72676  21.156   3.894  10.638
13416W        W72677  32.973   1.907  13.540
13417W        W72678  31.511  37.030   0.274
13418W        W72679  16.628  28.058   3.189
13419W        W72680  24.527  10.312  12.925
13420W        W72681  32.950  21.065   0.403
13421W        W72682  13.157  24.505  12.361
13422W        W72683  23.106  11.851  12.949
13423W        W72684  44.958  18.692  14.341
13424W        W72685  42.000  24.523   1.933
13425W        W72686  34.892  29.496  12.005
13426W        W72687   6.881  28.024  14.358
13427W        W72688  23.623  44.756   3.821
13428W        W72689  27.974  16.102  11.603
13429W        W72690  39.822  33.896   1.792
13430W        W72691  27.575   7.844   3.223
13431W        W72692  43.930   9.263   2.298
13432W        W72693  11.685  24.109  13.998
13433W        W72694   9.778  32.472  14.915
13434W        W72695  36.553  24.651  14.899
13435W        W72696   1.247   9.837  11.978
13436W        W72697  16.615  30.142   3.747
13437W        W72698  20.587  29.992  13.008
13438W        W72699  28.619  30.981   3.729
13439W        W72700  23.496  21.031  11.025
13440W        W72701  44.389  19.118   0.948
13441W        W72702  20.746  44.914   1.318
13442W        W72703  34.928   3.422  11.529
13443W        W72704  40.530   0.364   3.656
13444W        W72705  27.679  11.691   2.179
13445W        W72706   3.453  35.930  14.333
13446W        W72707   7.196   9.756   1.376
13447W        W72708  18.629  16.223   2.193
13448W        W72709  28.013   4.842   5.247
13449W        W72710  28.564  22.206   3.289
13450W        W72711  11.714  26.569   2.737
13451W        W72712   2.841  32.058  10.567
13452W        W72713   2.441  22.045  14.305
13453W        W72714  20.576  31.004  14.337
13454W        W72715  22.562  23.070  13.529
13455W        W72716  13.294  27.965  14.343
13456W        W72717  17.126  29.022  13.312
13457W        W72718  22.110  32.992   2.815
13458W        W72719  15.811  20.224   0.263
13459W        W72720  26.055  43.983   2.814
13460W        W72721   3.856  24.041  11.923
13461W        W72722  40.381  13.109  14.327
13462W        W72723  42.983  14.119   4.132
13463W        W72724  26.573  32.499  12.867
13464W        W72725   0.822  26.594   1.744
13465W        W72726  24.088  22.079  12.368
13466W        W72727   8.295  20.088  11.942
13467W        W72728  27.561  30.096  14.011
13468W        W72729  27.677  38.522  11.880
13469W        W72730  39.989   3.817   3.214
13470W        W72731   2.803  14.625  11.888
13471W        W72732  30.558  33.062  13.934
13472W        W72733  39.538  33.081  10.923
13473W        W72734  18.659  36.080   3.170
13474W        W72735   5.745  10.358  12.997
13475W        W72736  24.623  29.154   1.920
13476W        W72737  16.224  11.642   4.210
13477W        W72738  36.557  38.927   0.807
13478W        W72739   8.385  32.119   0.447
13479W        W72740   1.448  42.806   4.625
13480W        W72741   1.738  13.131   4.182
13481W        W72742  40.984  36.852   1.737
13482W        W72743  26.679  12.790   1.920
13483W        W72744  43.819  33.505  11.906
13484W        W72745  14.095  33.113   1.231
13485W        W72746  41.043   4.925  11.935
13486W        W72747  19.090  25.517  11.011
13487W        W72748  24.081   8.247   1.847
13488W        W72749   9.334  11.190   0.479
13489W        W72750  12.324   1.735   2.692
13490W        W72751  37.522  18.583   0.436
13491W        W72752  44.272   2.365  14.766
13492W        W72753  26.460  43.359  13.888
13493W        W72754   9.730  32.408   3.642
13494W        W72755  31.566  29.092  14.389
13495W        W72756  12.675   9.327   0.471
13496W        W72757  12.821  44.939  14.967
13497W        W72758  15.252  24.105   0.253
13498W        W72759  25.132   2.251  11.971
13499W        W72760  14.177  34.390  14.991
13500W        W72761   1.972  33.571  14.349
13501W        W72762  34.963   6.334  10.478
13502W        W72763  33.391  39.922  11.897
13503W        W72764   6.898  29.960   2.819
13504W        W72765  17.799  37.368  13.524
13505W        W72766  42.433  22.150   2.374
13506W        W72767  21.205  20.546   1.797
13507W        W72768  30.490  13.111   1.883
13508W        W72769  37.463  29.975   0.888
13509W        W72770  35.024  44.810  13.898
13510W        W72771  39.019  28.938  10.586
13511W        W72772  30.547  16.217   4.214
13512W        W72773  14.692  38.555   0.368
13513W        W72774  42.404  23.697   0.417
13514W        W72775  24.611  40.913  11.012
13515W        W72776  20.541  18.707  12.507
13516W        W72777  23.603  10.177   2.707
13517W        W72778   1.974  40.874  10.927
13518W        W72779   6.260  29.999  14.339
13519W        W72780   7.302   1.301   0.429
13520W        W72781  37.025  20.617   3.370
13521W        W72782  33.451  42.880  10.940
13522W        W72783  37.482  13.256  11.111
13523W        W72784   9.800  33.091   4.147
13524W        W72785  18.263  41.899   1.440
13525W        W72786  41.436  20.657   3.352
13526W        W72787  25.038  39.927  12.956
13527W        W72788  38.837  30.070   1.323
13528W        W72789  13.731  20.590   0.252
13529W        W72790   5.691   7.267  14.437
13530W        W72791  35.096  29.445  14.462
13531W        W72792  29.963  38.937   3.254
13532W        W72793   0.960  34.011   1.314
13533W        W72794   6.373  23.520   1.308
13534W        W72795   7.889  19.665   2.671
13535W        W72796  18.073  25.039   3.868
13536W        W72797  19.126  31.622  13.825
13537W        W72798  31.138  34.474  13.931
13538W        W72799   4.227  32.003   0.948
13539W        W72800  36.038  12.259  14.280
13540W        W72801   6.826  25.191   3.657
13541W        W72802  27.522  32.036  10.920
13542W        W72803   2.797   6.758   1.864
13543W        W72804  14.614   3.922  12.539
13544W        W72805  25.647  27.112  11.129
13545W        W72806  20.255   4.426  11.060
13546W        W72807  40.403  18.709   4.167
13547W        W72808  14.680  39.907  11.414
13548W        W72809   4.820  24.612   0.473
13549W        W72810   5.427  13.614   4.251
13550W        W72811   5.754   6.408  10.946
13551W        W72812  31.456  10.181   5.193
13552W        W72813  29.622  30.613   4.322
13553W        W72814  25.021  44.764  10.940
13554W        W72815  25.095  34.384  13.308
13555W        W72816  11.753  38.983  13.994
13556W        W72817  18.756   6.918  14.330
13557W        W72818  26.517  11.673  12.891
13558W        W72819   1.348  17.097   1.347
13559W        W72820  23.100   8.369   3.172
13560W        W72821  40.319  35.867  11.440
13561W        W72822  19.175  22.564  12.342
13562W        W72823  35.873  39.483   2.196
13563W        W72824   4.716  30.915  10.607
13564W        W72825  34.590  11.632   2.305
13565W        W72826  26.644  28.672  10.428
13566W        W72827  42.310  22.716  14.846
13567W        W72828  10.669   9.716   2.861
13568W        W72829  40.907  24.998  10.976
13569W        W72830  20.651  21.191   4.278
13570W        W72831   5.287  30.991  14.314
13571W        W72832  10.375  44.314  11.886
13572W        W72833  15.683  43.002  10.986
13573W        W72834  36.029  43.442   1.891
13574W        W72835   9.680  18.728  11.080
13575W        W72836  23.607  21.749   4.758
13576W        W72837  18.618  42.895   3.808
13577W        W72838  20.559   6.881   2.680
13578W        W72839  42.514  29.667   1.333
13579W        W72840  10.864  15.682   2.408
13580W        W72841  21.618   5.808  13.870
13581W        W72842   1.339   8.269   1.866
13582W        W72843   9.243  11.858   4.281
13583W        W72844  11.311  33.042   2.237
13584W        W72845  19.605  37.521   1.735
13585W        W72846  35.999  37.485  14.374
13586W        W72847  17.640  41.367  13.901
13587W        W72848   8.821   8.360  11.486
13588W        W72849  33.381  38.891   5.102
13589W        W72850  21.090  38.902   1.902
13590W        W72851   0.928  40.504   2.714
13591W        W72852  39.886   1.742  11.118
13592W        W72853  24.687  13.830  11.500
13593W        W72854   8.700   2.466   3.821
13594W        W72855  29.924  43.471   4.253
13595W        W72856  39.906  32.580   3.202
13596W        W72857  43.975  11.683  14.949
13597W        W72858  11.338  36.886   2.419
13598W        W72859   9.816  43.940   3.723
13599W        W72860  12.716  39.062  11.038
13600W        W72861   3.231   7.343   3.206
13601W        W72862  30.146  34.946   0.781
13602W        W72863  43.948  41.955  12.457
13603W        W72864  32.910   9.238   0.893
13604W        W72865  10.863   3.794   5.131
13605W        W72866  16.619   1.922   4.309
13606W        W72867  27.553  10.806  13.315
13607W        W72868  40.435   2.949  11.931
13608W        W72869  19.253   7.406   2.773
13609W        W72870  26.585   2.353  11.574
13610W        W72871  32.064   3.397   2.178
13611W        W72872  23.095   0.275   1.413
13612W        W72873  10.707   9.686   2.247
13613W        W72874  34.522  13.668   4.837
13614W        W72875  42.964  19.557  11.078
13615W        W72876  25.528   7.311  13.334
13616W        W72877  17.779  27.535   0.901
13617W        W72878  15.221  12.628  12.414
13618W        W72879  21.587  33.384   3.352
13619W        W72880  43.911   9.343  10.532
13620W        W72881  19.760  26.030   1.309
13621W        W72882  13.195  34.103  11.421
13622W        W72883  14.789  39.494  13.511
13623W        W72884  39.397  42.921   9.963
13624W        W72885  38.463  10.807   0.474
13625W        W72886  31.627  12.288   1.352
13626W        W72887  21.663   4.930  14.393
13627W        W72888   3.268  25.048  14.865
13628W        W72889  42.930  27.083  12.348
13629W        W72890  30.483  39.435   0.389
13630W        W72891  13.120  36.409  14.829
13631W        W72892  19.678  32.110  13.968
13632W        W72893  17.778  23.668   1.875
13633W        W72894  18.140   8.814  12.966
13634W        W72895  39.329  16.223   0.334
13635W        W72896  18.625  40.468   4.152
13636W        W72897  18.055  43.349   4.266
13637W        W72898  35.469  14.715  14.976
13638W        W72899  44.777  11.687  14.877
13639W        W72900   5.746   6.194  12.543
13640W        W72901  31.570  39.045   5.705
13641W        W72902  31.069  18.615   4.708
13642W        W72903  39.423  11.746   1.868
13643W        W72904   1.868  20.180  13.508
13644W        W72905  20.187  36.496  13.520
13645W        W72906  19.184   3.758  13.884
13646W        W72907   4.420  28.181   2.675
13647W        W72908  44.837  10.829  14.759
13648W        W72909  42.416   2.433   4.807
13649W        W72910  10.290   7.189  14.405
13650W        W72911  38.970  24.146   0.951
13651W        W72912  39.326   7.262  10.980
13652W        W72913  18.152  44.447  12.492
13653W        W72914  40.971   9.775   2.740
13654W        W72915  38.343  33.944   1.345
13655W        W72916  29.135  11.711  12.006
13656W        W72917  42.364  29.585   3.725
13657W        W72918   6.775  35.076   3.631
13658W        W72919   0.394  37.977  12.858
13659W        W72920  21.182  29.928  12.493
13660W        W72921  12.733   0.418   1.383
13661W        W72922  31.426  25.681  13.967
13662W        W72923   2.816  35.922   2.734
13663W        W72924  24.496  22.725  14.315
13664W        W72925  23.499  11.253   1.427
13665W        W72926  41.902  36.881  12.824
13666W        W72927  29.649   2.948   0.818
13667W        W72928   0.416  21.262  10.505
13668W        W72929  26.076  23.711  14.829
13669W        W72930  34.925   4.373  13.340
13670W        W72931   8.872  16.811   3.864
13671W        W72932   0.342  25.076  13.794
13672W        W72933  14.614  11.760   4.756
13673W        W72934  18.724  19.161   3.365
13674W        W72935  43.377  40.944   2.891
13675W        W72936  42.304  26.170   2.878
13676W        W72937  23.144  15.736   2.317
13677W        W72938  26.611  28.943  14.353
13678W        W72939  43.001  16.250   3.745
13679W        W72940   9.699  22.010   2.669
13680W        W72941  31.955  42.367   2.181
13681W        W72942  12.611  11.739   4.833
13682W        W72943  24.974  40.433   0.846
13683W        W72944   3.813  15.168  11.573
13684W        W72945  42.357  41.030   2.317
13685W        W72946  40.855  18.557  13.456
13686W        W72947   8.729  23.606   3.858
13687W        W72948  10.174  42.822   4.729
13688W        W72949  42.296  12.702   4.750
13689W        W72950  13.338  30.910   2.332
13690W        W72951   6.760  34.419   0.457
13691W        W72952  19.767   8.741   1.789
13692W        W72953  24.186  16.633  10.888
13693W        W72954  30.959   7.369   9.952
13694W        W72955  21.630  16.242  12.346
13695W        W72956   6.689  14.716   0.347
13696W        W72957   5.416   3.229  11.537
13697W        W72958  37.891  14.615  14.904
13698W        W72959   5.810  16.188  12.466
13699W        W72960  37.468  24.050   4.213
13700W        W72961  16.769  26.128   3.365
13701W        W72962  34.024  40.493  14.782
13702W        W72963   1.333  12.814  12.950
13703W        W72964  28.454  44.353   0.755
13704W        W72965  41.939   9.864   2.387
13705W        W72966  24.104  13.732   3.376
13706W        W72967  16.618  40.482   1.427
13707W        W72968  39.046   2.953  10.923
13708W        W72969  29.026  20.747  13.532
13709W        W72970  16.311  43.338  10.633
13710W        W72971  34.448  14.726   4.266
13711W        W72972   0.352  36.096  10.494
13712W        W72973  42.396  15.768   1.292
13713W        W72974  40.918  28.515   0.845
13714W        W72975   6.713  32.978   4.158
13715W        W72976   6.327  12.234  12.912
13716W        W72977  39.957  11.311   0.883
13717W        W72978  35.472  36.515  11.494
13718W        W72979  34.081  40.438   3.773
13719W        W72980  34.580  39.809  11.102
13720W        W72981  42.788  34.902   2.252
13721W        W72982   9.830  21.086   0.475
13722W        W72983  32.970  39.340   5.720
13723W        W72984  28.572  43.951   0.397
13724W        W72985  32.527   8.890   1.437
13725W        W72986  13.631  21.155  11.011
13726W        W72987  16.755   2.291   2.706
13727W        W72988   5.840  24.174   1.292
13728W        W72989   0.930   8.799   1.770
13729W        W72990  30.925   4.783   2.367
13730W        W72991   4.332   6.298  11.495
13731W        W72992  39.333  37.433   0.926
13732W        W72993  21.603  25.673  13.324
13733W        W72994   7.774  44.971   4.188
13734W        W72995  29.540  31.023   3.851
13735W        W72996  31.511  33.580   2.835
13736W        W72997   1.350  13.288   4.822
13737W        W72998  26.656  43.291   1.335
13738W        W72999  26.023  17.068  12.032
13739W        W73000  14.312  23.672  10.407
13740W        W73001  28.155  28.050  11.531
13741W        W73002  20.536  30.648  13.378
13742W        W73003  33.622  17.141  11.449
13743W        W73004  15.124  29.654   4.722
13744W        W73005  31.967  35.602  11.868
13745W        W73006  22.721  12.306   4.652
13746W        W73007  14.224  14.717  12.489
13747W        W73008  21.653  25.035   5.777
13748W        W73009  38.460   4.248   1.859
13749W        W73010   2.750  43.982   2.726
13750W        W73011  31.966  14.152  13.928
13751W        W73012  41.851  14.236  14.279
13752W        W73013   4.720   3.771  13.534
13753W        W73014  41.922   4.770  12.925
13754W        W73015  15.302  38.995   1.925
13755W        W73016  41.809  15.822  11.104
13756W        W73017  43.953  29.104  11.083
13757W        W73018  36.985  43.440   4.674
13758W        W73019  40.001  44.329   4.671
13759W        W73020  25.048  23.691   0.939
13760W        W73021   6.732   2.833   3.305
13761W        W73022  12.778  10.276  11.057
13762W        W73023  41.956  39.007   2.399
13763W        W73024  41.294  20.564  12.043
13764W        W73025   8.388  23.088  11.875
13765W        W73026  23.602   2.890  14.331
13766W        W73027  13.318  35.048  14.983
13767W        W73028  23.029  36.587  13.397
13768W        W73029  36.452  26.565  12.556
13769W        W73030  24.524  12.207  13.825
13770W        W73031  13.306  16.252  14.396
13771W        W73032  16.151  38.352   0.316
13772W        W73033  30.487  40.504   3.645
13773W        W73034  36.093   8.211  10.424
13774W        W73035  20.597  28.034   5.269
13775W        W73036  14.104  39.356  10.472
13776W        W73037  35.986  30.122   0.947
13777W        W73038  43.946  16.159   0.779
13778W        W73039  14.232   3.456   1.416
13779W        W73040  13.285  15.824   5.151
13780W        W73041  11.719  37.571  10.134
13781W        W73042  26.078  26.545   3.805
13782W        W73043   2.329  14.694  13.946
13783W        W73044   6.848  31.541   3.240
13784W        W73045  17.702  40.331   2.691
13785W        W73046  40.023  15.123   3.244
13786W        W73047  42.419  26.119  11.040
13787W        W73048  23.605  16.670  12.386
13788W        W73049   9.847  10.861  14.510
13789W        W73050  44.886   9.208   3.177
13790W        W73051  14.163  33.950  13.336
13791W        W73052  40.478  24.499  12.871
13792W        W73053   2.328  12.118   1.391
13793W        W73054  33.052  41.000  14.423
13794W        W73055  40.995  12.845   1.922
13795W        W73056  30.598  20.554   3.302
13796W        W73057  20.541   8.688   1.866
13797W        W73058   9.351   4.313  14.783
13798W        W73059  35.013  31.979   2.700
13799W        W73060  35.985  16.797   3.689
13800W        W73061  44.500   5.319   3.311
13801W        W73062  37.558  14.147  13.987
13802W        W73063  22.675  31.149   0.441
13803W        W73064  27.592  16.263   3.787
13804W        W73065   1.950  12.686   3.288
13805W        W73066  19.645  26.202   1.809
13806W        W73067   2.243  27.164  14.830
13807W        W73068   6.340  36.083   2.665
13808W        W73069   2.872  19.576  10.589
13809W        W73070  11.665  22.065  13.008
13810W        W73071  33.113  10.309  12.413
13811W        W73072  22.737  14.299  10.451
13812W        W73073  44.802  37.380   2.288
13813W        W73074  19.656  37.026  11.536
13814W        W73075  11.728  14.175   0.959
13815W        W73076  42.454  13.719  14.785
13816W        W73077  10.193  24.037  12.981
13817W        W73078  41.790  33.118  10.615
13818W        W73079   6.781  32.506   4.200
13819W        W73080   6.424  39.502  11.377
13820W        W73081  11.754   4.763  14.799
13821W        W73082  43.479   7.909   4.231
13822W        W73083  25.660  20.242  11.508
13823W        W73084  27.176  31.030   3.279
13824W        W73085  17.192  39.883   1.813
13825W        W73086  32.571   3.382   2.776
13826W        W73087  10.293  19.220   9.991
13827W        W73088  38.948  39.956   3.336
13828W        W73089  12.164  25.599  12.443
13829W        W73090  38.498  35.431   3.150
13830W        W73091   4.294  23.097  12.954
13831W        W73092  36.518  28.460   2.896
13832W        W73093  23.061  25.605  12.861
13833W        W73094  23.717  41.933   0.860
13834W        W73095  44.910  19.590   0.428
13835W        W73096  25.525  17.754  10.913
13836W        W73097  13.822  44.312   2.854
13837W        W73098  14.326  26.550  11.496
13838W        W73099  37.364  14.264  14.339
13839W        W73100  36.448   6.425   0.914
13840W        W73101  30.122  38.042   4.632
13841W        W73102   8.276  42.991   1.819
13842W        W73103  14.238  11.336   1.239
13843W        W73104  36.490  44.821  14.022
13844W        W73105   2.461   1.773   4.290
13845W        W73106   4.807  34.988  13.798
13846W        W73107  27.539  22.713   0.483
13847W        W73108  12.138  14.725   4.685
13848W        W73109  39.927  26.499  11.995
13849W        W73110  19.073   4.853  14.363
13850W        W73111  23.550  31.146  12.571
13851W        W73112  12.833   0.915   4.355
13852W        W73113   5.908  29.020   1.714
13853W        W73114  26.030  24.081  12.512
13854W        W73115  24.043  26.523   0.965
13855W        W73116  44.812   6.721  11.460
13856W        W73117   3.380   6.736  10.888
13857W        W73118  43.906   7.795  12.955
13858W        W73119   1.252  29.135  11.562
13859W        W73120  35.534   6.219  12.487
13860W        W73121  30.500  28.438   1.930
13861W        W73122  44.842  35.556  14.456
13862W        W73123  11.781  32.991  11.380
13863W        W73124  33.105  14.316  14.480
13864W        W73125  27.979  38.825  12.951
13865W        W73126  36.909  36.481  12.886
13866W        W73127  44.398   0.797   0.320
13867W        W73128   1.270  25.661   3.668
13868W        W73129  30.948  24.676   3.266
13869W        W73130   9.700  20.196  10.452
13870W        W73131   6.690  39.917  11.948
13871W        W73132  37.515  22.723  11.997
13872W        W73133  28.138  25.053  13.424
13873W        W73134  25.198  10.272  11.065
13874W        W73135  30.465  10.173  10.956
13875W        W73136   1.948  32.124   2.388
13876W        W73137  17.171  41.986  13.434
13877W        W73138  19.193  23.154  14.008
13878W        W73139   0.291  20.271   2.794
13879W        W73140   2.227  29.011   3.200
13880W        W73141  17.664  41.522   0.739
13881W        W73142  17.614  17.078   3.844
13882W        W73143  11.254  14.313  14.855
13883W        W73144  20.191  28.655   2.201
13884W        W73145  34.579  34.518  10.977
13885W        W73146  40.003  10.784   4.196
13886W        W73147  13.697  26.176  12.910
13887W        W73148   4.373   8.353   0.881
13888W        W73149  16.797  20.080   3.687
13889W        W73150  37.063   3.239  13.363
13890W        W73151  43.878  35.541  11.608
13891W        W73152  22.524  13.323   2.811
13892W        W73153   3.955  30.531   3.358
13893W        W73154  23.672  33.968  12.980
13894W        W73155   9.312  32.109   3.825
13895W        W73156  20.218  24.538   5.094
13896W        W73157   0.449  24.094  14.937
13897W        W73158  16.255  15.083   2.256
13898W        W73159  40.330  38.934  10.464
13899W        W73160   9.694  13.255  14.292
13900W        W73161  28.634  21.596  13.962
13901W        W73162  38.341  37.951  14.408
13902W        W73163  26.474  31.446  10.602
13903W        W73164  19.098  36.473  13.500
13904W        W73165   6.254   9.299  12.940
13905W        W73166  12.720  21.584  12.944
13906W        W73167  19.585   5.703   4.771
13907W        W73168  35.397  17.182  14.410
13908W        W73169  40.409  27.630  13.310
13909W        W73170   7.245   1.837  10.482
13910W        W73171  43.395  23.573  10.581
13911W        W73172  30.561  23.574  14.800
13912W        W73173  13.639  20.630   3.635
13913W        W73174  23.100  17.639   3.716
13914W        W73175   8.224  10.215   1.890
13915W        W73176   4.340  25.592  14.334
13916W        W73177  43.828  42.888   0.905
13917W        W73178   7.229  23.231   1.927
13918W        W73179  27.145   3.893  11.565
13919W        W73180  19.071  10.207  10.134
13920W        W73181  36.590   1.932   2.371
13921W        W73182  36.888  44.005   3.698
13922W        W73183  31.113   9.745  12.860
13923W        W73184  10.864  44.793   4.794
13924W        W73185  28.469  30.155  13.486
13925W        W73186  28.142   3.723   3.192
13926W        W73187   0.318  24.649  13.529
13927W        W73188  35.522  36.053  12.498
13928W        W73189  11.237  40.031   3.158
13929W        W73190   8.358  17.786  11.022
13930W        W73191  20.673  25.040   1.916
13931W        W73192  37.573  23.009  12.485
13932W        W73193  22.203   4.724  13.007
13933W        W73194  10.236   9.188  14.924
13934W        W73195  17.136  27.569  13.992
13935W        W73196  31.909   3.946  10.512
13936W        W73197   6.709   0.815  14.302
13937W        W73198  34.981  33.390   3.764
13938W        W73199  14.672   3.773   3.635
13939W        W73200  17.595  18.104  10.905
13940W        W73201  33.530  42.428  14.822
13941W        W73202  11.297  41.813  10.968
13942W        W73203  30.971   6.361   4.136
13943W        W73204   8.785   2.355  12.464
13944W        W73205  11.860   8.717   2.361
13945W        W73206   2.867   1.310   4.711
13946W        W73207   8.179  24.118  10.463
13947W        W73208  15.250  14.770  11.987
13948W        W73209  43.488  11.800   2.238
13949W        W73210  14.711  12.256   3.197
13950W        W73211  44.480  24.552  10.576
13951W        W73212   8.322  39.328   4.797
13952W        W73213  21.180  28.481   3.740
13953W        W73214  34.454  41.935   0.947
13954W        W73215  30.002  22.165   0.899
13955W        W73216  42.990  17.751  14.835
13956W        W73217  20.036  20.680  13.978
13957W        W73218  36.450  25.657  10.916
13958W        W73219  23.685  25.019  14.424
13959W        W73220  13.220  31.966   0.818
13960W        W73221  26.030   8.161   0.442
13961W        W73222  28.952   0.374  14.355
13962W        W73223  23.562  16.581  13.344
13963W        W73224  41.035  43.809  10.936
13964W        W73225  43.855  33.613  12.986
13965W        W73226  21.723  43.508  10.420
13966W        W73227  17.296   2.795   2.349
13967W        W73228  18.232  16.699   4.208
13968W        W73229  43.994  16.295  13.986
13969W        W73230  31.641  31.503  14.032
13970W        W73231  36.989  42.943  12.906
13971W        W73232  38.559  22.644  13.491
13972W        W73233   3.727  36.468  11.980
13973W        W73234  37.068  42.426   4.347
13974W        W73235  15.096  37.353  13.884
13975W        W73236  10.267  10.176   4.353
13976W        W73237   0.770  24.070  13.372
13977W        W73238  36.375  43.929  13.860
13978W        W73239   8.692   5.344   2.376
13979W        W73240  11.179  13.760  14.283
13980W        W73241  34.382   2.347   4.623
13981W        W73242  16.706  15.728   3.643
13982W        W73243  40.540   2.454  14.439
13983W        W73244   2.386   8.291  12.095
13984W        W73245  41.008   9.782   0.323
13985W        W73246  27.561  35.546  10.542
13986W        W73247  27.944   5.703  11.903
13987W        W73248  44.260   9.321   1.259
13988W        W73249  20.062  27.122  10.150
13989W        W73250  15.667  24.052  14.315
13990W        W73251  43.349  42.471  13.939
13991W        W73252  32.932  41.821  12.898
13992W        W73253  20.633  28.570  14.875
13993W        W73254   3.815  35.534   2.405
13994W        W73255  26.579  30.049   1.212
13995W        W73256  32.450  43.345   3.742
13996W        W73257  23.656  17.617  11.094
13997W        W73258  20.043  14.214   4.134
13998W        W73259  42.916  16.121  14.346
13999W        W73260  43.505   4.739   4.216
14000W        W73261   4.230   8.791   1.287
14001W        W73262  33.608  25.685   4.155
14002W        W73263  16.193  31.923  12.579
14003W        W73264  32.459  32.969  12.826
14004W        W73265  35.872  13.144  13.459
14005W        W73266  43.482  26.988   0.252
14006W        W73267  34.534  10.741   3.176
14007W        W73268  14.218  20.260   1.264
14008W        W73269  29.968  24.559   0.260
14009W        W73270  37.479  25.095  12.561
14010W        W73271  21.676  37.841  11.129
14011W        W73272   2.816  11.652  13.920
14012W        W73273   5.358  44.814  12.973
14013W        W73274   2.742   6.857  14.772
14014W        W73275  10.700  31.608  13.045
14015W        W73276  36.069   3.736   1.721
14016W        W73277  12.358  42.455   2.670
14017W        W73278  38.064  11.811   3.696
14018W        W73279  13.285  13.729   0.732
14019W        W73280  30.452  40.843   0.887
14020W        W73281  27.591   8.720  12.488
14021W        W73282  17.255   7.236   3.266
14022W        W73283   3.921  32.458   1.704
14023W        W73284  34.996   4.375   1.309
14024W        W73285  31.943  15.767   3.230
14025W        W73286  39.455  32.073  13.061
14026W        W73287  29.427  15.235   3.151
14027W        W73288  44.500   0.947   5.223
14028W        W73289   0.479  29.555   0.438
14029W        W73290  33.576  30.527  10.147
14030W        W73291   4.874  26.980   2.805
14031W        W73292   4.889  20.536  13.338
14032W        W73293  27.624  18.077   3.147
14033W        W73294   7.791  25.651  10.412
14034W        W73295  36.381  20.744  12.913
14035W        W73296  29.948  41.787  11.909
14036W        W73297   8.656  37.463   4.598
14037W        W73298   7.720  23.704   4.140
14038W        W73299  14.588   7.208   1.219
14039W        W73300  19.239  33.596   3.782
14040W        W73301  37.581  33.386  12.830
14041W        W73302   1.907  24.044   0.378
14042W        W73303  44.386  16.593  14.862
14043W        W73304  16.770  36.024   0.775
14044W        W73305   1.249  42.410  10.494
14045W        W73306  12.612   2.340  11.376
14046W        W73307  12.792  26.126   1.423
14047W        W73308   0.798  42.391  11.107
14048W        W73309  28.605  10.679  11.903
14049W        W73310  16.727  36.973   0.285
14050W        W73311  20.088  10.766   0.357
14051W        W73312  35.105  44.993  10.044
14052W        W73313  31.060  28.650   0.430
14053W        W73314  17.263  37.856   2.803
14054W        W73315  22.656  37.478   2.685
14055W        W73316  23.043  33.435  12.027
14056W        W73317   1.370  35.913   0.955
14057W        W73318  33.505   0.971   2.399
14058W        W73319  19.710  17.306  14.987
14059W        W73320  21.251  39.002  10.612
14060W        W73321  19.150  28.969   4.777
14061W        W73322   7.237  15.290  10.425
14062W        W73323  22.645  39.906  11.590
14063W        W73324  23.581  24.517   2.698
14064W        W73325  38.337  18.142  14.916
14065W        W73326  41.957   7.863   1.214
14066W        W73327  13.289  22.529  12.956
14067W        W73328  21.748  42.906  14.952
14068W        W73329  43.833  14.732   1.822
14069W        W73330  29.623  38.011   1.822
14070W        W73331  26.033  33.958  12.556
14071W        W73332  33.395  19.222   1.898
14072W        W73333  42.449  20.240  14.814
14073W        W73334   7.748  24.633  13.903
14074W        W73335  42.928  23.030   0.389
14075W        W73336  13.802  35.573  14.946
14076W        W73337  26.690  41.947  14.868
14077W        W73338   2.269  21.183  13.439
14078W        W73339  39.812  38.855   2.366
14079W        W73340   3.783   4.937  10.961
14080W        W73341  38.558   1.354  13.063
14081W        W73342  16.640  22.508  10.101
14082W        W73343  28.656   6.739   0.795
14083W        W73344  23.730  39.841  13.362
14084W        W73345  24.158  15.150  13.522
14085W        W73346  41.994  37.558  12.532
14086W        W73347  42.334  37.029   3.706
14087W        W73348  20.266  10.364   1.398
14088W        W73349  31.638  19.230  11.927
14089W        W73350  20.217  23.495  14.458
14090W        W73351  33.403  40.454   3.732
14091W        W73352  17.120   3.803  13.345
14092W        W73353   2.462  13.611  13.039
14093W        W73354   3.318  16.652  10.999
14094W        W73355  23.034   8.225   0.831
14095W        W73356  39.357  16.771  10.473
14096W        W73357  23.496  36.397  14.869
14097W        W73358   7.710   9.771  12.898
14098W        W73359  19.111  36.865  11.468
14099W        W73360  18.731  27.490   0.436
14100W        W73361  26.113  37.532   3.649
14101W        W73362  28.634  44.911   0.885
14102W        W73363  31.004   7.672   3.264
14103W        W73364  24.135  10.230   1.789
14104W        W73365  28.111  18.589   1.694
14105W        W73366  27.553  27.563   9.645
14106W        W73367  15.758   8.223  10.406
14107W        W73368  17.148  38.970   3.317
14108W        W73369   7.253   0.857   4.311
14109W        W73370  42.462  20.220  13.525
14110W        W73371  32.084  42.964  14.421
14111W        W73372  34.552  40.851  13.916
14112W        W73373  17.116  27.978  11.983
14113W        W73374  43.881  31.475  13.466
14114W        W73375  23.504   2.796   4.673
14115W        W73376  23.550   6.841  12.381
14116W        W73377  15.194  28.580  10.968
14117W        W73378  43.812  10.254   2.386
14118W        W73379  33.932   3.795  12.083
14119W        W73380  23.552  36.403   2.675
14120W        W73381   9.676  36.904   4.199
14121W        W73382  27.138  35.968  14.352
14122W        W73383  41.985  23.064   3.866
14123W        W73384   9.331   1.348  14.815
14124W        W73385  41.344   2.408  13.405
14125W        W73386  26.129  17.077  14.303
14126W        W73387  30.992   2.259   3.841
14127W        W73388  26.560  10.139   4.813
14128W        W73389  22.683  33.968   2.344
14129W        W73390  33.874   4.721   0.941
14130W        W73391   3.845  34.119   2.282
14131W        W73392  15.679  21.554  12.080
14132W        W73393  39.442  28.571   1.219
14133W        W73394   0.973   4.378   1.370
14134W        W73395   8.816  23.206   0.403
14135W        W73396   5.225  10.382   0.865
14136W        W73397   1.293  30.417  11.004
14137W        W73398   5.335   3.831  10.481
14138W        W73399  42.875  25.627  14.010
14139W        W73400  29.499   5.818  10.434
14140W        W73401  10.790  25.572   3.693
14141W        W73402  16.582  43.474   1.776
14142W        W73403   0.853  36.982  11.911
14143W        W73404   9.829  30.650  10.495
14144W        W73405  30.493   2.288   0.308
14145W        W73406  24.721  40.008   4.171
14146W        W73407   1.311  34.942  11.609
14147W        W73408  20.697  20.086   5.719
14148W        W73409   2.257   9.298   2.371
14149W        W73410   1.300  21.238  14.450
14150W        W73411  15.696   3.242  13.833
14151W        W73412   3.437  44.502   0.789
14152W        W73413  17.287  30.467  10.064
14153W        W73414  14.729  44.443   3.816
14154W        W73415  16.200  13.130   3.785
14155W        W73416  20.589  23.517   0.448
14156W        W73417  37.363  12.694  11.020
14157W        W73418  43.386  24.224  13.858
14158W        W73419   7.343   8.217   2.353
14159W        W73420  27.677  33.882   2.730
14160W        W73421  16.074  28.636   3.259
14161W        W73422  42.363  31.057  11.919
14162W        W73423  39.400  27.093  11.560
14163W        W73424   4.872   9.811   1.897
14164W        W73425  18.709  37.443  14.461
14165W        W73426  34.080  25.995  10.444
14166W        W73427   9.284  35.064   0.414
14167W        W73428  41.486  35.509   1.718
14168W        W73429  24.524  18.153   4.653
14169W        W73430  24.630  24.703   2.666
14170W        W73431   2.875  37.931  12.567
14171W        W73432  23.669   7.768   1.255
14172W        W73433   0.286  17.281   3.280
14173W        W73434  24.488  37.503   4.668
14174W        W73435  32.941  40.929  12.872
14175W        W73436  10.296  40.521  14.467
14176W        W73437  35.491  37.051  10.981
14177W        W73438  42.426  21.032   0.925
14178W        W73439  41.536  19.562  13.853
14179W        W73440   9.150  25.658  14.437
14180W        W73441  18.106  27.567   3.383
14181W        W73442   4.224  35.576  14.974
14182W        W73443  33.105  12.805  10.566
14183W        W73444  33.421  27.101  14.811
14184W        W73445  16.638  15.803  10.562
14185W        W73446   9.375  40.871   4.795
14186W        W73447  26.703  16.709  12.872
14187W        W73448  28.477  27.968   0.960
14188W        W73449  39.955  13.280  14.967
14189W        W73450  14.614   5.846  12.489
14190W        W73451  43.426  15.628  14.286
14191W        W73452   0.925   2.748  12.445
14192W        W73453  40.809  42.879   1.855
14193W        W73454  32.398  43.878   1.705
14194W        W73455   3.437   5.361   4.793
14195W        W73456  38.026  19.193  11.036
14196W        W73457  27.487  42.853  12.067
14197W        W73458  40.411  37.572   2.868
14198W        W73459   1.739  26.540  11.512
14199W        W73460   8.365   7.381  14.305
14200W        W73461  39.046  30.122  14.824
14201W        W73462  23.152  44.473   3.840
14202W        W73463  31.061  32.464   0.271
14203W        W73464   0.747  32.496   0.441
14204W        W73465  11.844  36.531   4.213
14205W        W73466  41.019   0.287  14.878
14206W        W73467  14.196  32.622   0.737
14207W        W73468   1.819   9.832  10.064
14208W        W73469  32.487  11.636  13.891
14209W        W73470  43.934  40.819   1.790
14210W        W73471  19.627  19.234   1.899
14211W        W73472  35.529  12.677   0.854
14212W        W73473  19.223   2.845   0.770
14213W        W73474  43.276  34.104  11.071
14214W        W73475   2.754  23.504  12.579
14215W        W73476  30.992  43.964  12.508
14216W        W73477  15.105  19.566   2.681
14217W        W73478  38.397  23.735  13.034
14218W        W73479  17.610   4.263  10.628
14219W        W73480  43.403  38.454  13.317
14220W        W73481  20.179   8.258   2.207
14221W        W73482  21.752  29.968   2.342
14222W        W73483  23.603   1.775  11.072
14223W        W73484   6.879  28.187  10.956
14224W        W73485  18.147  34.030   0.729
14225W        W73486  42.392  23.150  11.544
14226W        W73487   2.955  37.444   1.886
14227W        W73488  36.982  29.618   2.279
14228W        W73489  25.219   8.739  14.384
14229W        W73490  32.469   8.696  13.391
14230W        W73491  15.779  28.639  13.967
14231W        W73492  39.344  10.216   4.275
14232W        W73493  12.673  39.504   2.685
14233W        W73494  15.328  38.459  14.015
14234W        W73495  41.800  28.136  12.562
14235W        W73496  24.043  43.935   0.790
14236W        W73497   9.823   3.941   4.800
14237W        W73498  19.099  42.366  12.375
14238W        W73499  32.487   3.883   0.945
14239W        W73500  23.042  27.614   4.186
14240W        W73501  43.862  22.647  10.502
14241W        W73502  22.080  19.160   1.253
14242W        W73503  32.392  22.567   0.451
14243W        W73504  17.779  21.731  14.876
14244W        W73505  15.236  17.665   3.371
14245W        W73506  39.915  39.977   1.290
14246W        W73507  28.056  25.036   3.202
14247W        W73508  36.962  13.769  11.103
14248W        W73509   2.382  40.924  12.559
14249W        W73510  44.458  15.811   9.921
14250W        W73511  44.828  20.714   4.657
14251W        W73512  34.592  39.025  11.076
14252W        W73513  25.112  18.734   3.733
14253W        W73514  19.671  24.169  13.403
14254W        W73515  17.270   7.706  14.427
14255W        W73516   3.353  28.176   1.385
14256W        W73517  11.803   9.748  12.854
14257W        W73518  32.470  38.014  14.776
14258W        W73519  19.220   3.862  11.534
14259W        W73520   3.391  10.193   3.234
14260W        W73521  26.650  41.889   2.671
14261W        W73522  43.931  40.960   2.672
14262W        W73523  35.489  27.643  13.936
14263W        W73524  16.671  35.052  13.977
14264W        W73525   4.381  39.400   2.211
14265W        W73526  18.065  43.324   4.646
14266W        W73527  35.417  19.268   4.164
14267W        W73528  15.625  33.485  12.069
14268W        W73529  28.479  32.906  14.972
14269W        W73530   8.188  12.819  10.581
14270W        W73531   2.878  40.471  14.383
14271W        W73532  31.624  44.482   2.317
14272W        W73533  44.812  27.084   1.700
14273W        W73534   0.468  24.684   0.764
14274W        W73535  30.605  10.826  11.962
14275W        W73536   0.957  35.937   0.752
14276W        W73537  19.264  43.916   3.179
14277W        W73538  30.152  16.762  10.559
14278W        W73539  18.676  21.149   2.369
14279W        W73540  42.463  21.087  11.011
14280W        W73541  23.184  11.263   1.411
14281W        W73542  11.189  16.207   0.249
14282W        W73543  13.143   8.794  11.463
14283W        W73544  17.285   8.867  13.003
14284W        W73545  15.189  30.515  12.057
14285W        W73546  43.456  34.021  10.503
14286W        W73547  10.745  34.873  13.050
14287W        W73548   2.915  29.133  13.046
14288W        W73549   7.669  20.660   1.814
14289W        W73550  17.766  22.559  12.837
14290W        W73551  16.077   9.278   4.335
14291W        W73552  19.057  17.061  14.858
14292W        W73553  29.994  41.397   1.744
14293W        W73554  20.076  12.635  11.487
14294W        W73555  14.290  39.374   3.366
14295W        W73556  21.089   3.420  12.893
14296W        W73557  37.885  32.090   3.760
14297W        W73558  38.464  28.583  13.531
14298W        W73559  17.186  11.712  14.410
14299W        W73560  19.170  39.978  13.871
14300W        W73561   4.821  39.818   3.667
14301W        W73562   3.217  37.890   2.678
14302W        W73563  17.235  17.784   2.743
14303W        W73564  31.918  23.569   2.895
14304W        W73565  35.484  17.754  10.521
14305W        W73566   7.393  14.228   1.922
14306W        W73567  37.869  12.796   0.353
14307W        W73568  44.869   8.161   2.397
14308W        W73569  29.477   5.236  12.050
14309W        W73570   7.382  32.623  11.976
14310W        W73571  36.391  16.766   1.284
14311W        W73572   3.835  32.977  13.534
14312W        W73573  38.353  38.987  10.406
14313W        W73574  17.262  29.967   1.792
14314W        W73575  43.829  26.640  12.512
14315W        W73576   4.276   0.409   4.693
14316W        W73577  37.355   5.923   2.227
14317W        W73578  26.581  19.719  10.452
14318W        W73579   4.448  41.012   2.762
14319W        W73580   8.699   9.395   2.307
14320W        W73581   9.384   9.342  13.966
14321W        W73582  19.713  16.697  13.477
14322W        W73583  27.464  20.212   4.247
14323W        W73584   7.415   1.482   1.734
14324W        W73585  20.533  27.965   2.714
14325W        W73586  33.913  35.529   9.455
14326W        W73587  10.212   2.469  14.487
14327W        W73588   0.310  40.406  11.535
14328W        W73589   6.263  20.601  12.908
14329W        W73590  27.668  44.465  12.875
14330W        W73591  35.554  35.517  11.861
14331W        W73592  33.918  39.402   0.921
14332W        W73593  26.044   1.376   3.829
14333W        W73594  18.775  13.249   3.666
14334W        W73595   8.371  35.008   3.801
14335W        W73596  36.998  21.094  14.773
14336W        W73597  39.465  33.970  14.963
14337W        W73598  31.425  39.888  14.484
14338W        W73599  12.822  38.343   2.241
14339W        W73600   6.203  42.425   3.741
14340W        W73601  13.636  44.902  10.991
14341W        W73602  36.569  15.584  14.805
14342W        W73603  14.318  42.457   2.879
14343W        W73604  26.648   1.394  11.422
14344W        W73605   9.694  22.095  12.828
14345W        W73606  23.607  15.815  14.892
14346W        W73607  36.848  40.802  10.606
14347W        W73608  17.189  37.409  14.014
14348W        W73609  19.163   4.367   1.890
14349W        W73610  29.463  34.583   1.768
14350W        W73611  41.879  37.459   1.849
14351W        W73612  29.512  30.132   3.207
14352W        W73613   1.256  40.421  11.873
14353W        W73614   0.875   4.822  12.993
14354W        W73615  12.141  15.625  11.446
14355W        W73616   4.384   7.197   4.664
14356W        W73617  26.979  27.949  10.540
14357W        W73618  20.607  35.973  12.443
14358W        W73619  20.591  34.083   3.849
14359W        W73620  24.161  20.693   2.262
14360W        W73621  22.639  34.059  10.538
14361W        W73622  38.971  10.260  14.835
14362W        W73623  27.681  26.604   5.740
14363W        W73624  38.563  22.670   0.295
14364W        W73625  33.391  26.582   4.286
14365W        W73626  26.483  35.056   1.928
14366W        W73627  18.142  35.581  11.033
14367W        W73628  14.304  34.477   2.386
14368W        W73629   0.294  43.341   3.750
14369W        W73630  16.226  44.292   1.366
14370W        W73631  36.073  28.066   2.273
14371W        W73632  32.603   3.457   4.606
14372W        W73633  19.061  42.996   1.220
14373W        W73634  26.019  38.865   2.874
14374W        W73635  14.697  32.902  14.927
14375W        W73636   1.342  33.104   1.308
14376W        W73637  20.625  15.275   0.787
14377W        W73638  14.666  32.432  14.822
14378W        W73639  22.076   1.786   1.894
14379W        W73640  27.061  34.115   5.252
14380W        W73641  31.607  21.191   4.322
14381W        W73642   0.975  28.517   4.602
14382W        W73643   3.380  15.784   1.386
14383W        W73644  36.976  35.595   2.823
14384W        W73645  34.455  39.028   2.710
14385W        W73646  13.171  34.058  12.951
14386W        W73647  24.092  40.468   2.901
14387W        W73648   8.723  15.171   3.275
14388W        W73649  11.266   1.374  14.941
14389W        W73650   2.402  18.744  11.107
14390W        W73651   6.850   5.297   0.284
14391W        W73652  33.470  37.353  10.970
14392W        W73653  17.239   2.405  12.406
14393W        W73654   6.376  39.544  14.465
14394W        W73655  14.331   4.435  12.062
14395W        W73656  43.451  43.802   4.121
14396W        W73657  31.597  24.715  14.927
14397W        W73658  18.658  18.551  12.561
14398W        W73659   1.320   9.195   3.766
14399W        W73660  16.263  23.541   0.745
14400W        W73661  37.439   8.707   0.254
14401W        W73662  35.422  43.015   0.813
14402W        W73663  42.000  26.069   2.792
14403W        W73664  11.353  32.436   4.297
14404W        W73665  44.306  34.411   0.364
14405W        W73666  41.933  29.568  12.035
14406W        W73667  24.526  23.083   0.798
14407W        W73668  37.872  18.781  13.362
14408W        W73669   7.416  27.689  13.982
14409W        W73670  43.348  25.992   3.657
14410W        W73671  41.477  40.939  11.563
14411W        W73672  35.081  36.392  10.141
14412W        W73673  17.657  13.315  11.559
14413W        W73674  44.867   7.416   4.150
14414W        W73675   0.266  27.561  11.083
14415W        W73676  27.048  14.291  13.916
14416W        W73677  30.526   1.743   0.769
14417W        W73678  22.247  15.803  12.877
14418W        W73679  27.645   8.866   2.772
14419W        W73680  33.944   2.403   3.783
14420W        W73681   6.721  36.544   1.259
14421W        W73682  28.990   8.406  14.479
14422W        W73683  26.019  18.583   4.332
14423W        W73684  13.634  40.546   1.401
14424W        W73685  24.520  23.574   1.900
14425W        W73686  35.895  36.553  12.964
14426W        W73687   8.309  25.165   2.884
14427W        W73688  44.754  19.548  11.400
14428W        W73689  23.684  42.481  11.580
14429W        W73690  35.498  17.239   4.192
14430W        W73691  15.226  11.314  12.978
14431W        W73692  17.563  44.505   0.865
14432W        W73693  34.936  30.491   0.309
14433W        W73694  20.595  25.138  14.824
14434W        W73695  42.457  41.507   4.669
14435W        W73696  41.930  42.847   4.277
14436W        W73697  29.959  15.635  11.966
14437W        W73698  24.652  20.599   4.239
14438W        W73699   1.912   4.233   1.790
14439W        W73700  17.264  15.771  14.467
14440W        W73701  27.020  43.865  12.986
14441W        W73702  17.163  42.918   4.778
14442W        W73703   9.660  42.835  14.012
14443W        W73704  16.192  23.721   3.282
14444W        W73705  38.025  17.257  13.317
14445W        W73706  30.465  11.772   1.829
14446W        W73707  15.139   0.387  11.043
14447W        W73708  27.618   8.401  10.643
14448W        W73709  33.522  21.592  14.893
14449W        W73710  17.245  26.599  13.959
14450W        W73711  22.090  19.166   5.700
14451W        W73712   4.274  29.038  13.410
14452W        W73713  16.141  24.208  14.833
14453W        W73714   3.935  24.171  14.831
14454W        W73715   5.234   1.883  13.353
14455W        W73716   9.206  20.614   4.346
14456W        W73717  35.494  32.395  14.832
14457W        W73718  33.404  19.096   0.368
14458W        W73719  18.669   1.398  12.000
14459W        W73720  27.192   0.270   2.365
14460W        W73721  42.918   0.822   3.655
14461W        W73722  41.394  27.002  10.502
14462W        W73723  41.828  21.113   1.228
14463W        W73724  23.029  27.649  14.783
14464W        W73725  11.278   2.835   5.669
14465W        W73726   3.732  17.062   2.781
14466W        W73727  27.155   8.377   1.853
14467W        W73728  36.554  38.451  14.453
14468W        W73729  23.136   9.848   0.756
14469W        W73730  42.355  14.338  13.952
14470W        W73731  44.971  12.699   3.669
14471W        W73732  24.989  32.472  13.048
14472W        W73733  28.482  34.947  13.982
14473W        W73734  42.890  35.534   2.336
14474W        W73735  28.470  38.527   4.716
14475W        W73736  43.443  22.087   2.292
14476W        W73737  33.043  21.594  13.990
14477W        W73738   2.786  10.217  13.331
14478W        W73739   2.404  25.035   1.711
14479W        W73740  28.457   6.228  12.010
14480W        W73741  32.558  29.107  13.345
14481W        W73742  21.176  22.221  11.926
14482W        W73743  31.556  13.612  11.927
14483W        W73744   9.234  15.180  13.389
14484W        W73745  37.019  25.209  10.956
14485W        W73746  37.347  24.576   4.232
14486W        W73747   9.852  21.232  13.471
14487W        W73748  30.941  40.946   0.474
14488W        W73749  27.036  30.604   4.139
14489W        W73750   3.430  32.917   1.750
14490W        W73751   1.298  40.421   3.691
14491W        W73752  15.757  24.077   2.336
14492W        W73753  13.789  37.579  13.531
14493W        W73754   7.206  11.699  12.400
14494W        W73755  43.408  18.578   0.866
14495W        W73756  36.548  34.939   3.344
14496W        W73757  41.799  28.940   4.773
14497W        W73758  33.066  24.229   3.698
14498W        W73759  40.816   7.208   4.336
14499W        W73760  19.715  40.816   1.760
14500W        W73761  37.547   4.843  14.776
14501W        W73762  29.062  32.972  11.051
14502W        W73763  25.111   8.204   3.290
14503W        W73764  24.680   7.293  13.959
14504W        W73765  17.216  43.001  12.953
14505W        W73766  35.101  16.789   4.257
14506W        W73767  10.223  35.559   3.386
14507W        W73768   1.382  22.227   2.336
14508W        W73769  15.798  36.948   2.861
14509W        W73770  13.311  20.745   1.302
14510W        W73771  19.564  26.152   0.757
14511W        W73772  37.562   7.278  13.038
14512W        W73773   8.666   2.762   3.325
14513W        W73774   2.443  38.542  12.908
14514W        W73775  12.171  31.588   4.116
14515W        W73776   2.820  16.313   2.339
14516W        W73777   9.682  29.061  14.396
14517W        W73778  19.133  44.404   0.954
14518W        W73779  32.029  19.143   1.226
14519W        W73780   1.942  17.150   1.316
14520W        W73781  43.502  31.568  14.858
14521W        W73782  29.158   8.802   0.428
14522W        W73783  38.074  22.157  12.966
14523W        W73784  16.572   4.339   2.856
14524W        W73785  28.047  23.054   3.272
14525W        W73786  12.615  44.983   0.357
14526W        W73787  14.642  42.474  13.836
14527W        W73788  11.366   5.254   4.800
14528W        W73789  12.675  32.633   1.868
14529W        W73790   6.333  44.299  11.057
14530W        W73791  13.710   9.172  12.424
14531W        W73792  23.140   7.844  12.849
14532W        W73793  39.478  16.208  13.996
14533W        W73794   7.802  39.996  14.934
14534W        W73795  16.599  43.883  11.070
14535W        W73796  24.080   8.210  13.844
14536W        W73797  43.767  41.956   2.788
14537W        W73798  17.681  42.808   2.739
14538W        W73799  19.687  40.043   1.914
14539W        W73800   7.221  22.620   1.742
14540W        W73801   9.859  16.644  14.342
14541W        W73802  36.387  41.308   4.708
14542W        W73803   0.946  14.835   1.422
14543W        W73804  25.586  17.617   3.801
14544W        W73805   5.397   5.359  11.107
14545W        W73806  14.808  43.917   1.390
14546W        W73807  11.293  33.575   2.181
14547W        W73808  20.184   2.803  10.590
14548W        W73809  44.796  19.548  14.395
14549W        W73810  10.724  39.532   4.285
14550W        W73811  23.509  16.261   4.260
14551W        W73812  24.979   8.750   3.200
14552W        W73813   2.240  23.620  12.438
14553W        W73814  28.667  29.543  13.509
14554W        W73815  20.133  29.438   2.876
14555W        W73816   4.778  24.696  12.534
14556W        W73817  23.705  37.936   1.242
14557W        W73818   4.342  10.304  14.328
14558W        W73819  27.459  28.109  14.854
14559W        W73820  36.587  15.679   0.812
14560W        W73821  23.130   2.420  14.965
14561W        W73822  19.131  36.943   1.280
14562W        W73823  37.965  32.000   2.782
14563W        W73824  20.231   4.768   3.795
14564W        W73825  40.438   8.659  12.922
14565W        W73826  21.111  17.652  12.553
14566W        W73827  13.316  32.507  10.530
14567W        W73828  18.754   5.709  10.956
14568W        W73829  31.903  15.652   0.951
14569W        W73830   9.838   6.859  14.451
14570W        W73831  29.939   7.349  13.881
14571W        W73832  10.691  38.386  11.915
14572W        W73833  25.539   4.763  11.912
14573W        W73834  43.512  18.722   3.785
14574W        W73835  27.577  11.180   2.403
14575W        W73836  29.539  42.945   1.716
14576W        W73837  41.043  20.059   4.154
14577W        W73838  27.056  11.852   0.255
14578W        W73839  14.132   2.800   1.310
14579W        W73840  10.656  25.678  11.560
14580W        W73841  28.491  13.168   1.932
14581W        W73842   6.191  39.034   0.736
14582W        W73843   4.431  18.278   4.273
14583W        W73844  32.001   3.349  13.022
14584W        W73845  14.195  28.150   1.383
14585W        W73846  24.623  40.450  10.967
14586W        W73847   3.772  12.249  11.961
14587W        W73848  21.742   9.304  10.525
14588W        W73849  16.255  24.696  11.088
14589W        W73850  35.539  21.110   3.727
14590W        W73851  36.970  43.471  13.871
14591W        W73852  13.753   6.816   3.700
14592W        W73853  13.348  18.117   4.124
14593W        W73854  31.957  42.876   2.385
14594W        W73855  25.075   2.729  11.589
14595W        W73856   2.413   3.220  10.626
14596W        W73857  23.041  38.912  12.384
14597W        W73858  38.048  43.938   4.810
14598W        W73859  24.061  34.571   0.832
14599W        W73860  24.516  30.639  14.840
14600W        W73861  15.692  31.929   3.837
14601W        W73862  32.890  11.175   3.265
14602W        W73863  22.704  22.014  14.376
14603W        W73864  36.515  21.031  10.074
14604W        W73865  29.123  28.492  12.047
14605W        W73866  27.120  43.302   0.336
14606W        W73867  29.968   7.779  11.874
14607W        W73868   2.267  37.013   1.840
14608W        W73869  22.547  14.115   0.318
14609W        W73870  34.460  40.962   3.666
14610W        W73871  17.069  15.158  11.082
14611W        W73872  44.325   0.789  14.431
14612W        W73873  35.037  12.645  11.962
14613W        W73874  38.873  36.421   2.254
14614W        W73875  38.366  31.148   0.257
14615W        W73876  36.348  36.490   0.384
14616W        W73877   8.377   8.702  14.974
14617W        W73878  13.665  13.616   1.306
14618W        W73879   7.684  15.262   0.913
14619W        W73880  19.736  28.609   4.612
14620W        W73881  14.273  12.663  12.070
14621W        W73882  41.967  15.155  12.500
14622W        W73883  44.391  39.519  13.848
14623W        W73884  12.703  11.853  13.419
14624W        W73885   6.869  21.608   2.409
14625W        W73886   6.401  35.952   3.713
14626W        W73887  25.614   5.193   1.219
14627W        W73888  40.458  16.283   4.143
14628W        W73889  11.147  34.892  14.824
14629W        W73890  26.082  39.035  14.793
14630W        W73891  25.174  31.581  14.410
14631W        W73892  27.627  10.778   3.818
14632W        W73893  37.376   2.431   0.930
14633W        W73894   2.775   2.452  12.527
14634W        W73895  44.924  34.919   0.423
14635W        W73896   5.902  21.550  13.993
14636W        W73897   9.735  39.536  10.554
14637W        W73898  12.273  44.356   4.350
14638W        W73899  15.702  35.025  11.079
14639W        W73900  15.684   6.812  11.424
14640W        W73901  14.606   6.340   3.278
14641W        W73902  32.968  31.066  13.929
14642W        W73903   8.204   7.416   3.647
14643W        W73904  18.732  20.199  14.487
14644W        W73905  38.530  23.142  10.970
14645W        W73906  13.664  20.561   4.769
14646W        W73907  10.262  30.479  14.382
14647W        W73908  12.335  22.164   3.633
14648W        W73909  14.729  13.196   1.396
14649W        W73910   2.802   2.721   2.891
14650W        W73911  17.682   7.266   3.369
14651W        W73912   6.764   7.758   2.307
14652W        W73913   7.673  23.118   0.328
14653W        W73914  31.590  44.353   3.275
14654W        W73915  21.150   8.335  11.925
14655W        W73916  24.542  32.964  14.997
14656W        W73917  24.093   9.819   2.720
14657W        W73918  10.725  44.795   1.743
14658W        W73919   5.276   2.292  13.799
14659W        W73920   0.436  37.037   4.309
14660W        W73921  36.444  18.087  14.485
14661W        W73922  17.791  27.525  11.423
14662W        W73923  27.028  24.078   4.699
14663W        W73924  26.620  39.873  11.574
14664W        W73925  29.062  13.181  13.925
14665W        W73926  44.330   1.366   2.358
14666W        W73927  10.379  37.960  15.000
14667W        W73928  24.107  25.980   2.344
14668W        W73929   9.208  20.263  10.499
14669W        W73930  28.449   2.943   3.360
14670W        W73931  37.981  36.486  14.856
14671W        W73932  11.694  24.702  13.383
14672W        W73933  35.040  35.558  11.566
14673W        W73934  31.576  27.161   4.740
14674W        W73935  38.520  26.178   3.690
14675W        W73936  19.688   9.676   0.833
14676W        W73937  24.720  33.564   3.754
14677W        W73938   2.861  11.711   4.293
14678W        W73939  10.359   3.890   0.376
14679W        W73940  21.068  31.041   2.241
14680W        W73941  28.175   6.281  13.896
14681W        W73942   8.171  18.578   2.238
14682W        W73943  32.004  24.078   4.703
14683W        W73944  11.250   7.385  14.445
14684W        W73945  15.280  14.189   3.742
14685W        W73946  29.593  43.488   2.404
14686W        W73947  24.540   7.229   2.364
14687W        W73948  21.063   4.446  10.403
14688W        W73949  35.968  13.735  11.902
14689W        W73950   7.678  17.202   5.189
14690W        W73951  27.057  22.584   0.959
14691W        W73952  33.416  24.207  11.084
14692W        W73953  42.944   4.710   4.278
14693W        W73954  18.251  37.463  14.343
14694W        W73955  15.304  40.030  11.040
14695W        W73956  15.140  14.167  13.485
14696W        W73957  38.020  40.412  10.606
14697W        W73958  12.126  30.097  12.486
14698W        W73959  34.040   1.384   0.422
14699W        W73960   8.688  10.345   2.305
14700W        W73961   1.747  31.510  10.433
14701W        W73962  42.860   0.442   1.347
14702W        W73963  23.563   1.884   1.360
14703W        W73964  18.288  30.961   2.373
14704W        W73965  26.201  19.778  10.904
14705W        W73966  42.807  32.123  12.966
14706W        W73967   3.272   1.750  11.414
14707W        W73968  22.064  30.070  11.068
14708W        W73969  23.614  41.806   4.266
14709W        W73970  38.832  42.375  12.532
14710W        W73971  12.360  33.061  13.398
14711W        W73972  26.466  30.416  13.889
14712W        W73973   9.273   2.796   3.187
14713W        W73974  15.670  43.828  14.327
14714W        W73975   2.779  14.267  11.102
14715W        W73976   7.704  20.732   4.207
14716W        W73977  26.043  15.131   0.766
14717W        W73978  41.507   1.341   0.888
14718W        W73979   1.749  14.148  13.002
14719W        W73980  30.026   1.764   4.671
14720W        W73981  40.484  14.757   3.683
14721W        W73982  38.904  18.262   4.255
14722W        W73983  14.780  29.531  12.521
14723W        W73984   4.447  15.634   1.254
14724W        W73985   0.937  10.353   2.370
14725W        W73986  39.522  42.310  13.518
14726W        W73987  29.097   4.401  11.961
14727W        W73988  34.019  27.585   2.779
14728W        W73989  32.057  21.581  14.318
14729W        W73990  26.178  35.599   4.807
14730W        W73991  17.307   2.297   0.416
14731W        W73992  19.636  26.019  11.564
14732W        W73993  17.272   8.817   1.298
14733W        W73994   9.312   7.331   4.600
14734W        W73995  30.974  30.518   0.739
14735W        W73996   6.711  36.418  11.987
14736W        W73997  44.460  16.250   0.282
14737W        W73998   2.229  12.183  13.322
14738W        W73999  36.904  41.931  10.889
14739W        W74000   8.705  25.651  13.452
14740W        W74001  38.343  20.272   1.892
14741W        W74002  27.176  32.588  14.508
14742W        W74003  29.023  38.873  12.877
14743W        W74004  43.002  18.752  10.548
14744W        W74005  36.957  36.990  14.024
14745W        W74006  18.686  39.549   4.177
14746W        W74007   6.271  28.029  13.001
14747W        W74008  27.126  16.566  14.412
14748W        W74009  14.738  30.491  14.017
14749W        W74010  12.671   5.746   9.627
14750W        W74011   2.924   6.209  14.023
14751W        W74012  40.013  38.076  12.879
14752W        W74013  44.415  14.610   1.849
14753W        W74014  36.569   7.332  13.836
14754W        W74015  21.146  21.547  14.850
14755W        W74016  23.632  12.154  12.002
14756W        W74017  18.651   6.369  14.858
14757W        W74018  19.590  39.041  11.001
14758W        W74019  16.177   0.325   2.802
14759W        W74020  39.465  34.119  12.575
14760W        W74021  19.664  25.021  14.416
14761W        W74022  35.440  41.475  14.811
14762W        W74023   6.284   2.791  12.496
14763W        W74024  28.027   4.429   2.333
14764W        W74025  22.051  34.550   2.365
14765W        W74026   3.453  38.350   1.338
14766W        W74027  35.927  35.943  11.855
14767W        W74028  30.021  29.048  13.875
14768W        W74029   6.316  26.580  11.447
14769W        W74030  41.498  36.037   4.705
14770W        W74031  41.794  33.946  14.985
14771W        W74032  13.307  24.022   4.739
14772W        W74033   7.767  35.422  10.993
14773W        W74034  27.976  17.656   2.241
14774W        W74035  36.886   3.221   4.223
14775W        W74036  30.497  23.083  12.358
14776W        W74037  33.416  35.100   2.787
14777W        W74038  15.194   8.683  11.518
14778W        W74039  40.905  26.579   4.624
14779W        W74040  26.554  43.310   2.412
14780W        W74041  39.527  19.750  10.936
14781W        W74042  12.359  40.892   1.897
14782W        W74043  13.647  39.941  11.108
14783W        W74044  33.943   1.458  12.456
14784W        W74045  44.996   1.903   3.272
14785W        W74046   1.339  36.415   4.222
14786W        W74047  34.379  20.666  13.348
14787W        W74048  44.956  33.458   4.660
14788W        W74049  14.164  40.978   1.771
14789W        W74050   4.352  29.950  11.066
14790W        W74051   0.350   5.357  13.508
14791W        W74052  24.205   9.306   4.338
14792W        W74053  14.786   5.341   0.862
14793W        W74054  23.591  11.796   4.305
14794W        W74055  18.683  11.663  13.852
14795W        W74056  17.203  36.973  11.419
14796W        W74057  25.533  30.972  13.017
14797W        W74058  22.073  25.012  11.430
14798W        W74059  37.851   2.270   2.875
14799W        W74060  29.132  25.048   1.919
14800W        W74061  33.880  28.522   4.325
14801W        W74062  18.670  39.321   3.357
14802W        W74063   4.827  42.366  12.412
14803W        W74064  17.555  25.634   1.932
14804W        W74065  12.195  27.162   4.282
14805W        W74066  18.074  10.187  10.930
14806W        W74067  12.209  17.150  11.426
14807W        W74068   0.970   9.754   4.783
14808W        W74069  29.001  25.632   4.708
14809W        W74070  22.031  34.524   3.184
14810W        W74071   6.197  33.611  11.583
14811W        W74072  37.385  26.022   3.295
14812W        W74073  32.633  12.167  12.884
14813W        W74074  25.204  35.886   1.429
14814W        W74075  13.331  30.524  14.501
14815W        W74076   0.359  43.793  13.441
14816W        W74077   2.935  34.612   2.344
14817W        W74078  35.896  30.434   3.711
14818W        W74079  26.006  32.136   1.862
14819W        W74080  21.650  16.675   3.330
14820W        W74081  25.015  18.594   2.181
14821W        W74082  15.129  11.839   1.258
14822W        W74083  43.294  15.116  12.042
14823W        W74084   0.397  18.201   2.250
14824W        W74085  25.531  31.985  12.010
14825W        W74086  33.107  11.697   2.237
14826W        W74087   1.922  13.604  13.468
14827W        W74088  11.274  22.690  11.496
14828W        W74089   3.713  22.547  12.992
14829W        W74090  36.446  36.466  14.881
14830W        W74091   1.839  27.123   0.790
14831W        W74092  41.429  40.495   3.800
14832W        W74093   4.243   7.838   0.410
14833W        W74094  11.780  16.790  12.086
14834W        W74095   3.851  34.935   0.778
14835W        W74096   6.751  37.948   2.403
14836W        W74097  11.857  41.383   2.862
14837W        W74098  43.777  32.513   2.674
14838W        W74099  25.614   1.795  10.623
14839W        W74100  28.440  12.264   0.249
14840W        W74101  23.130   4.205  12.469
14841W        W74102  33.559   0.937  10.475
14842W        W74103  36.557  36.009  14.863
14843W        W74104  12.183  28.086  14.383
14844W        W74105  10.278  15.225  14.386
14845W        W74106  11.801  42.350  12.531
14846W        W74107  18.253  42.291  13.925
14847W        W74108  39.013  13.128   2.728
14848W        W74109   0.954  36.943  13.424
14849W        W74110  13.324  43.015  11.376
14850W        W74111  36.024   6.864   3.851
14851W        W74112  28.479   3.368  11.002
14852W        W74113  42.293  36.421   1.774
14853W        W74114   8.740  23.114  14.781
14854W        W74115   8.702  44.447   4.727
14855W        W74116  31.495  38.823   1.308
14856W        W74117  37.862  12.169  12.892
14857W        W74118  39.962  32.120  13.884
14858W        W74119   8.163  44.406  14.410
14859W        W74120   0.446  36.949  10.594
14860W        W74121  29.963  16.252   1.835
14861W        W74122   7.248   5.794  14.774
14862W        W74123  15.297  35.417   3.857
14863W        W74124  25.524   1.847  12.452
14864W        W74125  44.961  12.834   3.175
14865W        W74126   4.432  28.080  12.504
14866W        W74127   9.867  19.220   3.655
14867W        W74128   6.327   5.350  12.531
14868W        W74129  41.850  37.963   3.192
14869W        W74130   8.189  30.497   1.712
14870W        W74131   5.275  22.649  13.909
14871W        W74132  12.217   0.322   3.359
14872W        W74133  28.462  21.737  14.812
14873W        W74134  26.036  37.943  12.844
14874W        W74135  22.685  14.257   5.123
14875W        W74136  41.914  28.125   5.243
14876W        W74137  18.584   2.738   2.406
14877W        W74138  42.400  38.841  11.081
14878W        W74139  27.969  43.784   0.965
14879W        W74140   1.928  20.072   0.726
14880W        W74141  36.554  14.328   0.751
14881W        W74142   9.365  39.391   4.751
14882W        W74143  38.998  40.408   2.723
14883W        W74144   1.420   1.819  12.423
14884W        W74145  31.014  25.080   0.372
14885W        W74146  22.572  30.043  10.973
14886W        W74147  35.418   2.332  13.433
14887W        W74148  22.649  19.124   1.738
14888W        W74149  18.278  24.723   9.453
14889W        W74150   2.369  32.107  11.086
14890W        W74151  22.014  36.575   2.751
14891W        W74152  37.442  18.670  10.601
14892W        W74153  28.519  42.824   4.251
14893W        W74154   8.718  12.764  11.082
14894W        W74155  24.634  17.602  11.123
14895W        W74156  15.288  20.092   0.418
14896W        W74157  25.581  30.943   1.766
14897W        W74158   2.748   9.222  14.818
14898W        W74159  12.752   6.260  12.369
14899W        W74160  17.678   1.786   1.440
14900W        W74161  30.138  28.447   2.218
14901W        W74162  40.526   9.300  10.486
14902W        W74163  34.969  31.522   3.723
14903W        W74164  17.648  28.644   0.306
14904W        W74165  14.811   7.235  10.510
14905W        W74166  23.655   7.841  11.041
14906W        W74167   5.878  40.323  12.015
14907W        W74168  10.375  23.734  12.844
14908W        W74169   3.890  32.023  13.937
14909W        W74170  32.435   4.889  14.328
14910W        W74171  26.580   5.756  12.079
14911W        W74172  20.613  43.785   4.792
14912W        W74173  26.067   0.325   3.758
14913W        W74174   3.447   6.386  13.335
14914W        W74175   3.825   0.295   0.928
14915W        W74176  39.403  29.143  13.878
14916W        W74177   7.234  44.454   0.336
14917W        W74178   4.799  36.935   2.409
14918W        W74179  19.284  11.842   1.253
14919W        W74180  40.000  20.191   3.291
14920W        W74181   1.309  23.043   4.725
14921W        W74182  44.263  34.943   4.189
14922W        W74183  34.477   4.305   0.406
14923W        W74184  13.824   1.766  11.941
14924W        W74185  37.428  36.457   0.328
14925W        W74186  22.520  36.495   1.891
14926W        W74187  44.779  13.252  13.509
14927W        W74188   1.816  41.948   1.883
14928W        W74189  44.285   5.392   2.695
14929W        W74190  12.813   0.263  10.618
14930W        W74191  11.659  37.551  13.848
14931W        W74192  10.315  44.413  14.976
14932W        W74193   2.738  10.357  12.576
14933W        W74194   0.303   0.391   1.843
14934W        W74195  16.703  23.587   0.474
14935W        W74196  25.472  10.802   0.921
14936W        W74197  33.908  21.081   1.237
14937W        W74198  39.859  27.531  13.517
14938W        W74199  22.136  25.054   3.750
14939W        W74200  27.558  34.908  12.922
14940W        W74201   8.816  25.056   2.190
14941W        W74202  18.661  42.976   1.448
14942W        W74203   1.887  21.649   2.383
14943W        W74204  21.181  19.247   3.176
14944W        W74205  39.492  10.866  10.579
14945W        W74206  35.933  37.513  11.104
14946W        W74207  32.627   4.406  14.021
14947W        W74208  28.569  24.581   4.696
14948W        W74209   8.232  24.064  13.472
14949W        W74210  10.714  22.526  14.490
14950W        W74211   5.826  29.618  14.348
14951W        W74212   2.296  34.011   3.759
14952W        W74213  41.930  16.216   2.375
14953W        W74214  12.346  33.457   4.712
14954W        W74215   5.774  14.708   2.414
14955W        W74216  41.829  44.371   3.790
14956W        W74217  22.642  12.647   9.982
14957W        W74218  39.343  39.822   4.754
14958W        W74219  36.907  22.217   4.642
14959W        W74220   1.327  14.690  14.327
14960W        W74221  19.224   7.351  14.901
14961W        W74222  39.440  21.528  11.464
14962W        W74223  34.392  41.884  10.490
14963W        W74224  22.032  43.302  13.442
14964W        W74225  32.910   2.254   0.260
14965W        W74226   7.689  13.602   1.768
14966W        W74227  22.102  24.724  14.858
14967W        W74228  36.907   2.728  13.018
14968W        W74229  21.037  29.108   3.691
14969W        W74230  14.704  15.793   4.602
14970W        W74231  14.721  23.233  14.004
14971W        W74232  43.315  35.480  13.935
14972W        W74233  36.013   7.277  14.401
14973W        W74234  19.658  34.115  13.944
14974W        W74235  12.313  22.682  12.916
14975W        W74236   6.901  19.618  14.005
14976W        W74237  42.518  35.465   2.704
14977W        W74238  13.268  43.766   0.478
14978W        W74239   4.870  26.554  13.469
14979W        W74240  34.399  13.677  12.454
14980W        W74241  17.669  39.329   0.339
14981W        W74242  35.506   0.855   2.214
14982W        W74243  21.108  30.993   0.267
14983W        W74244  36.958  41.970   3.722
14984W        W74245  10.803  24.539   3.632
14985W        W74246  36.470  26.075  10.415
14986W        W74247  41.480  24.557   2.189
14987W        W74248  39.542  33.594   1.405
14988W        W74249   4.351  32.090  14.770
14989W        W74250   8.228   6.863   0.447
14990W        W74251   3.819  30.953  11.027
14991W        W74252  13.748  13.128  11.564
14992W        W74253  19.774   4.221  13.369
14993W        W74254  25.479  29.600   2.289
14994W        W74255  33.046   0.452   2.209
14995W        W74256  43.958  26.560  11.080
14996W        W74257  42.973   6.404   1.874
14997W        W74258  14.770  35.103  12.873
14998W        W74259   9.754  41.458   1.764
14999W        W74260  29.665  10.746   4.218
15000W        W74261  43.294  27.116   3.339
15001W        W74262  19.224  32.481   3.845
15002W        W74263  20.213  12.757  13.436
15003W        W74264   1.762  23.677  12.935
15004W        W74265  43.770   2.780  12.048
15005W        W74266  26.179  22.659   2.265
15006W        W74267  31.109   5.347   4.670
15007W        W74268  13.329  30.159   9.623
15008W        W74269  35.918  33.518  13.496
15009W        W74270  30.559  17.247  12.959
15010W        W74271  17.155  34.084  12.943
15011W        W74272  22.549  15.588   5.200
15012W        W74273  18.086  14.704   4.126
15013W        W74274  43.984  26.048   0.293
15014W        W74275  36.407  28.571  12.374
15015W        W74276  41.941  17.126   1.380
15016W        W74277  29.145  41.294   1.778
15017W        W74278  30.067  20.707   0.785
15018W        W74279  34.944   9.823  14.862
15019W        W74280   3.428  36.845  12.953
15020W        W74281  21.515  22.666   3.757
15021W        W74282  39.015   7.792   0.827
15022W        W74283  11.825  10.368  11.484
15023W        W74284  41.317   6.290  10.639
15024W        W74285  20.691  29.483   1.896
15025W        W74286   4.745  41.793   4.790
15026W        W74287   6.290  27.551  12.578
15027W        W74288  17.786  34.935   0.367
15028W        W74289  29.073  20.235  10.896
15029W        W74290  24.601  37.957  11.473
15030W        W74291  15.195  42.495  14.360
15031W        W74292  12.794   2.287  12.349
15032W        W74293   2.378   6.356  14.312
15033W        W74294   2.818   9.827   2.330
15034W        W74295  40.923  35.057   2.882
15035W        W74296   9.818   7.771   0.895
15036W        W74297  41.023  18.292   2.902
15037W        W74298  18.763  41.495  13.894
15038W        W74299  19.671  38.991  12.559
15039W        W74300  10.732  38.010  14.831
15040W        W74301  29.654  35.944   1.741
15041W        W74302  34.465  20.114  14.819
15042W        W74303  32.080  40.450  10.030
15043W        W74304  25.501  26.594   3.729
15044W        W74305  33.625  30.465  14.280
15045W        W74306  30.494  23.196  12.987
15046W        W74307  42.432  10.812  14.897
15047W        W74308  23.039  41.411  14.366
15048W        W74309  15.808   8.807   5.228
15049W        W74310   1.312  19.538   3.159
15050W        W74311   0.892  41.435  11.486
15051W        W74312  15.184  10.315  11.378
15052W        W74313  40.867  29.430   2.787
15053W        W74314  27.131   2.372   2.799
15054W        W74315  20.571   3.380   4.334
15055W        W74316  16.794  11.281  13.917
15056W        W74317  24.679  20.257   1.898
15057W        W74318  25.081  18.601   1.408
15058W        W74319  25.662  35.420  11.480
15059W        W74320   8.221  36.904  11.462
15060W        W74321  37.918  32.948  13.544
15061W        W74322  16.171  27.456   4.326
15062W        W74323  16.086  33.884  13.323
15063W        W74324  44.430  25.100  11.093
15064W        W74325   3.806  21.626  12.832
15065W        W74326  20.695  24.149   2.747
15066W        W74327  24.984  17.078  14.371
15067W        W74328  10.831  37.895   3.860
15068W        W74329  35.923  34.961  10.525
15069W        W74330  18.615  39.916  13.830
15070W        W74331   2.893   4.813  12.396
15071W        W74332  32.053  19.096   3.382
15072W        W74333  29.432   0.795  14.505
15073W        W74334   6.197  31.566   0.730
15074W        W74335   3.744  44.885  12.907
15075W        W74336  25.661  17.625   1.866
15076W        W74337  32.427  44.456  14.981
15077W        W74338   9.742  31.143  13.038
15078W        W74339  33.911  19.280   1.408
15079W        W74340  24.533  21.723  12.928
15080W        W74341  36.842   3.252   3.792
15081W        W74342  23.200  18.118   3.766
15082W        W74343  39.009  28.144   4.256
15083W        W74344   8.682  34.012   3.242
15084W        W74345  12.771  22.689  10.965
15085W        W74346  38.555   8.877  13.933
15086W        W74347  43.800   9.865   4.683
15087W        W74348  24.137  29.519  12.980
15088W        W74349  28.455  16.592  14.997
15089W        W74350   0.300   1.731  11.026
15090W        W74351  15.734  43.905   4.662
15091W        W74352  42.395   6.285   0.326
15092W        W74353   1.411  39.530   0.844
15093W        W74354  17.723  10.659   0.852
15094W        W74355  10.776  28.138  13.368
15095W        W74356  18.672  32.396   0.861
15096W        W74357  19.175  42.927   3.744
15097W        W74358  40.849  12.250   2.695
15098W        W74359   3.302   4.285  14.886
15099W        W74360  15.316  32.584   4.278
15100W        W74361  25.152  14.811  10.928
15101W        W74362  27.151  19.747  13.974
15102W        W74363  21.180  14.742   2.766
15103W        W74364  10.226  15.622   4.803
15104W        W74365  28.041  38.555  14.902
15105W        W74366  43.857  22.231   4.817
15106W        W74367  34.476  38.065   3.251
15107W        W74368  25.080  22.711   3.339
15108W        W74369  39.373   0.877   3.796
15109W        W74370  41.323  42.948   4.295
15110W        W74371  35.505  14.172  14.302
15111W        W74372  43.413  13.187   2.783
15112W        W74373  25.972  37.576  14.031
15113W        W74374  26.157  43.503  14.449
15114W        W74375  13.717  26.160  10.541
15115W        W74376  16.259  23.507  14.767
15116W        W74377  17.221  36.429   3.175
15117W        W74378   5.299  33.596  10.096
15118W        W74379  41.519   6.753   2.825
15119W        W74380  40.422  30.647   9.986
15120W        W74381   6.881  23.550  10.970
15121W        W74382  17.061   6.344   0.886
15122W        W74383   9.150  25.990  14.032
15123W        W74384  19.741  43.428   1.429
15124W        W74385  20.201  28.984  14.914
15125W        W74386  40.491  10.179  14.350
15126W        W74387  40.934  24.128   0.772
15127W        W74388  35.472  43.835   3.714
15128W        W74389   6.845  43.290   2.222
15129W        W74390  25.474  16.749  12.994
15130W        W74391  37.858  31.938   9.490
15131W        W74392  29.524  19.049   1.359
15132W        W74393  44.865   7.246  10.564
15133W        W74394  30.426   2.425   4.819
15134W        W74395   5.904  11.683  12.007
15135W        W74396  39.487  36.386  14.021
15136W        W74397  26.465  27.002  13.021
15137W        W74398   8.852   5.849  12.091
15138W        W74399  21.552   1.825  12.413
15139W        W74400  13.162  26.505   1.356
15140W        W74401  20.105  13.616   3.732
15141W        W74402   3.434  44.866   0.400
15142W        W74403  10.145   9.169  13.858
15143W        W74404   9.720  44.924  13.056
15144W        W74405  40.341  22.199  11.447
15145W        W74406  23.100  38.474  12.953
15146W        W74407  22.217   1.836  14.373
15147W        W74408  27.175  43.921  11.442
15148W        W74409  18.735  42.881  12.369
15149W        W74410  43.395   9.747  13.422
15150W        W74411  14.612  25.193  11.387
15151W        W74412  15.607  39.880   4.342
15152W        W74413  33.031   4.852   1.441
15153W        W74414  15.137  31.570  11.571
15154W        W74415  11.309  36.049   4.755
15155W        W74416  31.009  34.058   2.837
15156W        W74417  33.560  21.110   5.308
15157W        W74418  35.498   8.820   5.210
15158W        W74419  34.971   8.851  13.988
15159W        W74420  19.142  40.903   0.247
15160W        W74421  38.914   5.419   1.345
15161W        W74422   8.260  42.510  11.973
15162W        W74423  40.870   4.365  13.355
15163W        W74424  42.007   5.738  12.473
15164W        W74425  18.249  26.191   1.840
15165W        W74426  38.483   6.307   1.245
15166W        W74427  31.147  18.139   1.268
15167W        W74428  24.549   8.659  11.571
15168W        W74429  42.358  28.973  11.076
15169W        W74430  15.316  11.770  11.011
15170W        W74431   2.361  39.948  12.472
15171W        W74432   5.696  38.047  13.862
15172W        W74433  35.002  18.239   0.441
15173W        W74434  28.456   3.785   4.119
15174W        W74435   6.886  18.549  14.471
15175W        W74436   9.845   4.937   1.910
15176W        W74437  25.606  42.958   2.354
15177W        W74438  26.501  42.421  13.797
15178W        W74439  30.493   0.967   2.830
15179W        W74440   3.277  28.037   3.793
15180W        W74441  31.058   2.269   0.467
15181W        W74442   7.293  29.654   2.248
15182W        W74443   8.787   4.921  10.640
15183W        W74444  37.487  34.493   1.365
15184W        W74445  24.202  38.951   2.707
15185W        W74446  31.095  19.726  12.392
15186W        W74447   6.266  10.185   4.615
15187W        W74448  10.690   7.888  14.961
15188W        W74449  39.555  42.471   0.257
15189W        W74450  36.563  17.574   3.685
15190W        W74451  19.774  22.021  10.405
15191W        W74452  18.087  32.892  12.951
15192W        W74453  14.112  31.596  13.024
15193W        W74454  22.997  18.203   2.667
15194W        W74455  10.740  28.444  10.943
15195W        W74456   8.403  21.150  12.044
15196W        W74457  43.296   0.780   0.802
15197W        W74458  20.618  31.502   2.707
15198W        W74459  19.099  39.971   4.298
15199W        W74460  41.002  11.198  10.537
15200W        W74461   4.251  39.437  11.480
15201W        W74462   8.288  15.093  10.537
15202W        W74463   6.400  26.191   1.216
15203W        W74464  18.547  28.076   0.370
15204W        W74465  36.453   6.393  14.008
15205W        W74466   8.340  22.132  11.468
15206W        W74467  43.334  42.991  11.588
15207W        W74468  11.635  23.532   1.738
15208W        W74469  27.468  13.219  13.962
15209W        W74470  26.532  39.028   0.409
15210W        W74471  16.811  40.021   4.261
15211W        W74472  28.500  43.304  10.509
15212W        W74473  30.614  36.435   3.745
15213W        W74474  26.200  34.606   2.852
15214W        W74475  31.602  40.531  12.529
15215W        W74476  25.992  42.504   3.639
15216W        W74477  25.480  11.769   5.180
15217W        W74478  17.723  34.064  13.419
15218W        W74479  43.272  20.657   4.656
15219W        W74480  21.167  16.215   3.359
15220W        W74481  24.140  26.530  13.407
15221W        W74482  29.006  21.152  14.966
15222W        W74483  17.655  19.765   0.466
15223W        W74484  42.466  40.404  14.413
15224W        W74485   9.265  38.383   4.350
15225W        W74486  27.582  17.572   0.327
15226W        W74487  32.450  36.998   2.827
15227W        W74488  41.327   1.279   2.827
15228W        W74489  10.298  18.607   1.901
15229W        W74490  43.774  28.955   4.742
15230W        W74491  36.897   2.319   4.137
15231W        W74492   3.895  40.820   0.829
15232W        W74493  42.381  28.520  14.775
15233W        W74494  38.512  20.238  10.910
15234W        W74495  30.610  40.886  13.525
15235W        W74496  27.652  32.065   4.187
15236W        W74497  36.021  38.375  14.909
15237W        W74498  25.627  37.895   3.297
15238W        W74499  25.986  20.244   3.220
15239W        W74500  20.081   9.710  14.854
15240W        W74501  19.683  31.605  13.796
15241W        W74502   2.339  40.819  14.978
15242W        W74503  33.980  43.418   9.615
15243W        W74504  16.663  43.861   2.256
15244W        W74505  31.074  18.259  13.943
15245W        W74506  10.291  12.298   1.749
15246W        W74507   4.931  24.187  13.866
15247W        W74508  31.523  15.258   2.671
15248W        W74509  14.207  36.872   0.887
15249W        W74510  23.587  42.523   4.805
15250W        W74511   6.301  32.029  10.915
15251W        W74512  23.195  12.196  13.016
15252W        W74513  35.572   3.355   3.263
15253W        W74514  37.388  28.589  10.507
15254W        W74515  40.338  36.009   0.850
15255W        W74516   8.810  15.672  13.365
15256W        W74517  18.599   8.673   4.231
15257W        W74518  44.993  26.095  10.984
15258W        W74519   0.250  24.081   4.280
15259W        W74520  18.690  24.019   4.709
15260W        W74521  33.071  13.339  12.925
15261W        W74522  34.894  12.335   3.688
15262W        W74523  31.048   0.405  13.911
15263W        W74524  21.666  34.874  14.488
15264W        W74525  34.904  24.648   2.202
15265W        W74526  35.064  36.884   1.448
15266W        W74527  12.834  35.010  14.485
15267W        W74528  42.970   8.755   0.369
15268W        W74529  14.755  11.650  14.454
15269W        W74530  15.815  18.575  11.088
15270W        W74531  37.025  11.229  14.764
15271W        W74532   8.309  33.489  13.430
15272W        W74533  14.822  31.444  14.020
15273W        W74534  11.628  18.686  14.472
15274W        W74535  28.596  43.943   3.732
15275W        W74536   3.324   7.784  11.030
15276W        W74537  39.369  44.758   4.824
15277W        W74538  29.070  10.221  13.520
15278W        W74539   6.909  14.829  14.397
15279W        W74540   9.161  15.589   2.305
15280W        W74541  32.888   1.401  11.601
15281W        W74542   2.467  19.214  11.494
15282W        W74543  24.994  24.196   3.641
15283W        W74544   8.786  36.031   1.825
15284W        W74545  16.771  32.502   0.374
15285W        W74546   6.859  12.640  10.125
15286W        W74547   9.150   5.799   3.777
15287W        W74548  10.645  34.921   2.360
15288W        W74549  16.639  18.072   2.675
15289W        W74550  25.131  16.175   2.378
15290W        W74551   0.874  22.624  11.602
15291W        W74552   8.680  41.456   3.746
15292W        W74553  17.580  38.933  13.365
15293W        W74554  26.014  31.942  13.984
15294W        W74555  10.276  30.412   2.796
15295W        W74556   8.738  21.659  11.906
15296W        W74557  13.140  19.780   4.276
15297W        W74558  13.144  40.970  10.541
15298W        W74559  42.842  44.494  10.583
15299W        W74560  30.602  42.931  14.316
15300W        W74561  23.229  21.242  13.510
15301W        W74562  12.760  24.647  13.388
15302W        W74563  17.654  39.410   3.337
15303W        W74564  41.467  22.618  13.829
15304W        W74565  28.090  29.021   1.226
15305W        W74566  20.612   3.745  14.372
15306W        W74567  38.903  42.946  12.475
15307W        W74568  25.684   8.386  12.440
15308W        W74569  23.517  22.590  14.841
15309W        W74570   5.829  25.713  13.804
15310W        W74571   4.865   6.215  13.861
15311W        W74572  16.131  36.356   2.348
15312W        W74573  21.653  15.679  13.799
15313W        W74574  16.144  15.171   4.130
15314W        W74575  28.109  37.457  10.024
15315W        W74576  44.820   0.371  11.954
15316W        W74577  35.573  13.602   3.759
15317W        W74578  20.597  12.156   4.775
15318W        W74579  26.173  28.953   3.711
15319W        W74580  37.517  14.159  11.885
15320W        W74581  12.619  15.779  11.876
15321W        W74582  10.368  31.559  14.396
15322W        W74583  10.140  31.579   4.788
15323W        W74584  38.060  17.718   4.148
15324W        W74585  34.559  23.508   2.862
15325W        W74586  38.531  18.602   1.298
15326W        W74587  39.044  34.379  12.467
15327W        W74588  30.957  10.198   3.655
15328W        W74589  23.668   3.244   4.760
15329W        W74590  44.940  21.652   3.298
15330W        W74591  20.557  41.389  14.287
15331W        W74592  17.103  31.474   3.692
15332W        W74593   1.429  21.541  11.126
15333W        W74594   1.749   9.842  13.063
15334W        W74595   1.811  41.318   4.717
15335W        W74596  39.919  36.552  13.792
15336W        W74597  37.446   7.740   3.738
15337W        W74598  22.613  33.476   3.734
15338W        W74599  28.938  11.308   4.138
15339W        W74600  18.285  41.008   0.814
15340W        W74601  10.296  38.426   1.222
15341W        W74602  17.596  27.663   1.766
15342W        W74603  41.898  40.820  12.090
15343W        W74604  15.808   1.432  14.450
15344W        W74605   4.760  41.421  14.021
15345W        W74606  11.668  19.555   4.752
15346W        W74607  11.842  33.380  11.543
15347W        W74608   7.393  24.020  13.803
15348W        W74609  17.789  30.483   4.244
15349W        W74610  35.086  29.156   1.435
15350W        W74611  39.411   5.392  11.519
15351W        W74612   0.462  10.820  12.848
15352W        W74613  38.570  30.088   2.831
15353W        W74614  17.279  24.605   2.669
15354W        W74615  26.100  21.593  12.929
15355W        W74616  29.160  14.806   2.708
15356W        W74617  43.857   6.863  10.420
15357W        W74618  21.093  15.598  14.883
15358W        W74619  29.487  38.840   4.226
15359W        W74620   5.431  12.340   0.462
15360W        W74621  14.802  21.089   2.736
15361W        W74622   3.841  27.521  10.926
15362W        W74623  29.505  28.048   9.999
15363W        W74624   5.289  40.320  13.383
15364W        W74625  28.943  40.545   2.408
15365W        W74626  21.252  42.486  11.920
15366W        W74627  23.539  31.580  14.505
15367W        W74628  17.281  15.626   5.220
15368W        W74629  16.145   6.921  10.482
15369W        W74630  36.477  26.083  14.834
15370W        W74631   4.754  40.433  10.537
15371W        W74632  43.817  35.582  12.890
15372W        W74633  11.743  37.348   1.879
15373W        W74634  42.815  34.564   1.781
15374W        W74635  25.080  21.545   4.693
15375W        W74636  26.161  30.946  11.114
15376W        W74637   2.468   0.329   0.772
15377W        W74638   1.265  12.315   3.829
15378W        W74639  10.739  19.071  10.619
15379W        W74640   8.890   3.285  13.377
15380W        W74641  18.640  29.033   2.706
15381W        W74642  28.513  26.109  14.969
15382W        W74643  13.145  35.870  12.381
15383W        W74644  21.590  14.689   0.766
15384W        W74645  33.626  28.656   2.275
15385W        W74646   7.739  37.053   3.303
15386W        W74647  35.494  10.835   3.268
15387W        W74648  22.679  16.109  12.366
15388W        W74649   3.217  37.449  10.566
15389W        W74650  36.061   2.348   4.704
15390W        W74651  11.629  37.499   3.160
15391W        W74652  30.991   4.788  10.985
15392W        W74653   0.798   5.222   4.721
15393W        W74654  27.957  27.453   1.726
15394W        W74655   9.180  33.909  13.526
15395W        W74656  27.068  35.037   3.867
15396W        W74657  21.755  25.569   3.177
15397W        W74658  17.731  11.224   0.288
15398W        W74659  41.421  44.948   4.145
15399W        W74660  26.000   1.811  11.043
15400W        W74661  17.796   0.878  12.428
15401W        W74662   5.838   9.886  10.993
15402W        W74663  22.711   9.707  11.608
15403W        W74664   3.744  21.261  13.393
15404W        W74665  39.046   2.252   1.258
15405W        W74666   7.781  14.768   2.287
15406W        W74667  40.999  13.263  11.926
15407W        W74668  26.609  23.495  14.347
15408W        W74669  29.441  16.126  13.545
15409W        W74670  10.380  16.144   2.756
15410W        W74671   1.335  15.661  13.327
15411W        W74672  36.367  30.944   2.368
15412W        W74673  24.073  39.357   4.131
15413W        W74674  16.753   7.343  12.396
15414W        W74675  40.529   8.325  11.492
15415W        W74676  11.200  15.097   1.361
15416W        W74677  23.704   7.860   1.825
15417W        W74678  24.185  17.736   1.317
15418W        W74679  41.809  29.548  10.516
15419W        W74680  10.204  23.117  14.504
15420W        W74681  39.066  14.194   3.191
15421W        W74682  34.498  32.634  14.770
15422W        W74683  22.076  38.058   4.818
15423W        W74684  27.632  15.701   3.769
15424W        W74685  26.689   7.677  14.942
15425W        W74686  42.491  22.117  12.005
15426W        W74687  42.937  15.246  11.426
15427W        W74688   4.398  30.546  12.842
15428W        W74689  19.692  22.183   2.363
15429W        W74690   7.282  41.005   0.364
15430W        W74691  44.505  17.169   5.287
15431W        W74692  26.585  39.341  13.917
15432W        W74693  34.553  22.607  10.423
15433W        W74694   8.807  23.191   2.810
15434W        W74695  12.280  31.460  12.066
15435W        W74696   8.170   7.381   4.620
15436W        W74697   5.867  29.556   3.666
15437W        W74698   9.364   1.733  12.906
15438W        W74699  43.800  27.692   3.702
15439W        W74700  24.640  27.690   2.392
15440W        W74701  11.200  15.168   3.177
15441W        W74702  32.421  24.202  12.917
15442W        W74703  20.214   0.408  11.012
15443W        W74704  15.798   8.332  13.429
15444W        W74705   5.197  36.953   4.276
15445W        W74706  24.638   8.221  14.479
15446W        W74707  42.004   2.459   1.826
15447W        W74708  18.105  31.647  12.556
15448W        W74709  14.703  25.089   1.358
15449W        W74710  18.772  24.627  10.061
15450W        W74711   2.232  21.620   0.384
15451W        W74712  29.481  21.516  14.879
15452W        W74713   2.297   8.299   9.612
15453W        W74714   3.934  33.481   1.286
15454W        W74715  26.642  12.243   1.345
15455W        W74716   4.813  28.671   0.433
15456W        W74717   1.380  37.470   2.891
15457W        W74718   8.831  15.579   1.769
15458W        W74719  42.850   3.254  10.949
15459W        W74720  23.209   3.353   3.825
15460W        W74721  42.409   6.901   4.830
15461W        W74722  41.427  42.953   4.613
15462W        W74723  29.553  30.911  14.325
15463W        W74724  30.613  25.469   2.814
15464W        W74725  40.547  22.590   0.778
15465W        W74726  40.842  33.463   3.235
15466W        W74727  40.037  13.786   4.652
15467W        W74728  36.904   7.799   4.597
15468W        W74729  16.162  42.458   2.255
15469W        W74730  16.168  20.085  14.465
15470W        W74731   2.292  44.479  10.974
15471W        W74732  15.728  30.620  14.843
15472W        W74733  40.392   3.418   4.663
15473W        W74734  17.745  15.656  11.562
15474W        W74735  39.836  12.244  14.862
15475W        W74736  36.932  11.312  12.990
15476W        W74737  20.694  15.308   2.772
15477W        W74738  34.959   3.874  10.575
15478W        W74739  10.741  38.908  12.080
15479W        W74740   3.360  16.736   2.332
15480W        W74741  41.467  23.510  11.470
15481W        W74742  22.091  35.038  11.415
15482W        W74743  16.677  21.711  14.858
15483W        W74744  44.290  27.103  14.856
15484W        W74745  27.183  20.162  11.877
15485W        W74746  37.387  40.547  11.109
15486W        W74747  42.365   5.784  13.329
15487W        W74748   7.814  14.623   1.341
15488W        W74749  19.089  35.521   1.328
15489W        W74750   5.899  29.540  14.837
15490W        W74751  18.151   9.876  13.913
15491W        W74752  34.588  40.337   0.283
15492W        W74753   0.892  17.277   4.787
15493W        W74754   5.248  26.534  12.384
15494W        W74755  25.672  27.065   3.227
15495W        W74756  37.554   3.310  14.903
15496W        W74757  25.589  37.341  12.978
15497W        W74758  36.558  43.319  12.344
15498W        W74759  18.100  30.990  12.868
15499W        W74760  20.719  35.868   0.424
15500W        W74761  20.118   6.298  11.491
15501W        W74762  23.555  19.747   4.601
15502W        W74763  43.944   1.933  10.571
15503W        W74764   9.655  16.112  11.511
15504W        W74765  27.539   6.709  14.761
15505W        W74766   0.450   4.890  13.832
15506W        W74767  41.332  21.099  13.367
15507W        W74768  14.639  18.739   2.783
15508W        W74769   0.304  26.176   0.731
15509W        W74770  15.193  22.062  11.389
15510W        W74771  15.649  33.103  11.009
15511W        W74772   1.796  40.845   2.381
15512W        W74773   5.742  31.905  11.079
15513W        W74774  12.821  10.360   0.407
15514W        W74775  15.210   5.196  11.542
15515W        W74776  36.055  27.542   4.184
15516W        W74777  30.987  35.954  12.864
15517W        W74778  20.580   1.917  11.517
15518W        W74779   8.847  16.257  14.848
15519W        W74780   6.232  19.140   1.904
15520W        W74781  15.105   4.386   4.640
15521W        W74782  19.241  30.438   2.831
15522W        W74783  23.503   2.789  11.950
15523W        W74784   5.873  39.970  13.791
15524W        W74785   8.181  29.472  10.920
15525W        W74786   2.766   8.867  11.453
15526W        W74787  23.580  20.274   4.283
15527W        W74788  25.526  14.206   2.722
15528W        W74789  31.140  30.911   2.217
15529W        W74790  42.390   0.954  11.546
15530W        W74791  12.340   2.919  13.364
15531W        W74792  15.590  15.100  10.574
15532W        W74793  36.962  11.631  10.923
15533W        W74794  17.198  43.270   0.337
15534W        W74795  39.417  28.958   3.730
15535W        W74796  24.489   7.773   2.692
15536W        W74797   3.860  21.219  14.484
15537W        W74798  37.409  18.249  14.363
15538W        W74799  21.558  16.298   4.660
15539W        W74800   7.715   0.941  10.126
15540W        W74801  26.187   1.318   2.180
15541W        W74802  18.781  44.764  12.889
15542W        W74803   9.686  24.027   4.124
15543W        W74804   4.206  26.498  13.891
15544W        W74805  12.763  31.109  13.382
15545W        W74806  28.993  12.849   4.691
15546W        W74807  31.120  16.138   1.399
15547W        W74808  39.477   4.329  14.315
15548W        W74809  15.597   1.770  10.893
15549W        W74810  39.945  36.354   2.822
15550W        W74811  14.696   8.390  14.385
15551W        W74812   6.793   0.435   0.948
15552W        W74813  22.648  14.107  14.471
15553W        W74814   8.289  40.306   3.318
15554W        W74815  19.596   0.886   4.739
15555W        W74816   7.755  33.955  11.951
15556W        W74817   3.263   3.346   5.250
15557W        W74818   9.323   1.934  14.760
15558W        W74819   7.313  21.652  12.896
15559W        W74820  31.075  26.642   2.727
15560W        W74821   4.896  11.756  10.914
15561W        W74822  26.532  14.730   3.364
15562W        W74823  13.105  33.592   4.671
15563W        W74824  42.917  44.927   0.755
15564W        W74825  24.205  34.430   4.118
15565W        W74826  32.962  27.475   3.675
15566W        W74827  22.677  37.486   0.824
15567W        W74828  34.500  32.973   3.737
15568W        W74829  35.450  32.474  13.451
15569W        W74830  25.672   3.740  11.027
15570W        W74831  28.577  33.979  12.991
15571W        W74832  17.707  44.465   0.419
15572W        W74833  25.477  16.772  14.348
15573W        W74834  38.355  31.534   4.792
15574W        W74835  12.762  35.076   4.678
15575W        W74836  30.520  30.034   4.228
15576W        W74837  25.610  14.727  11.990
15577W        W74838  30.433  19.236   2.830
15578W        W74839   2.796  41.518  12.350
15579W        W74840  38.350  11.324   3.285
15580W        W74841  18.266  26.977   3.700
15581W        W74842  24.195   2.743   4.346
15582W        W74843  40.356  22.574  14.868
15583W        W74844  30.440  41.408  14.947
15584W        W74845  36.462  23.003   3.204
15585W        W74846  39.996  44.310   9.989
15586W        W74847   0.972   9.762  13.350
15587W        W74848  34.094  17.259  11.976
15588W        W74849  21.721  32.014   3.289
15589W        W74850  39.043  18.145  14.415
15590W        W74851   3.394  24.613  13.437
15591W        W74852  31.560  29.452  12.847
15592W        W74853  37.901  19.276   3.152
15593W        W74854  42.024  37.496   5.115
15594W        W74855  38.980  35.555   4.209
15595W        W74856   1.358   2.892  14.502
15596W        W74857  28.578  33.598  14.312
15597W        W74858   2.914  34.390   4.625
15598W        W74859   1.903  29.444   0.381
15599W        W74860   0.296  10.368  13.972
15600W        W74861   4.405  37.452  13.502
15601W        W74862  30.499  37.848  13.866
15602W        W74863   9.740  28.562   4.281
15603W        W74864  37.943  12.630  11.989
15604W        W74865  21.670   6.754  12.981
15605W        W74866   2.809  42.790   3.258
15606W        W74867  39.475  19.142  11.469
15607W        W74868  24.207  36.371   1.435
15608W        W74869   5.926   8.182  13.949
15609W        W74870   8.195  34.960   0.311
15610W        W74871  44.493  37.983  14.839
15611W        W74872  44.867  10.182  12.475
15612W        W74873  31.123  25.186   5.149
15613W        W74874  30.091  32.932   5.286
15614W        W74875  27.172  21.528  11.594
15615W        W74876  35.910   0.340   1.276
15616W        W74877  24.183   5.866  11.018
15617W        W74878  11.219   1.269   2.809
15618W        W74879  34.605  34.572   4.694
15619W        W74880  28.448   6.779   0.467
15620W        W74881   7.690  18.070  12.372
15621W        W74882  18.119  27.560   1.707
15622W        W74883   7.332  33.100   1.863
15623W        W74884  43.505  28.053   0.477
15624W        W74885  34.875  25.689  13.471
15625W        W74886  20.195  15.783  11.494
15626W        W74887  19.064  37.542  11.889
15627W        W74888  20.045  23.067  13.369
15628W        W74889   2.314  29.573  10.993
15629W        W74890  40.308  40.937  12.908
15630W        W74891   9.735  19.649   0.272
15631W        W74892   8.255  26.494   3.749
15632W        W74893   9.745  25.658   0.273
15633W        W74894   5.429  26.626   1.236
15634W        W74895   6.379  21.529  10.917
15635W        W74896  40.522  32.470  14.475
15636W        W74897  44.407  30.055   4.834
15637W        W74898  29.424  15.116  11.426
15638W        W74899  15.658   9.231   0.867
15639W        W74900   8.837  34.449  13.344
15640W        W74901  15.137  37.426  11.604
15641W        W74902   5.254   8.808   0.765
15642W        W74903  29.670  18.725  12.427
15643W        W74904  17.200  26.181  12.831
15644W        W74905  23.606  26.554  11.563
15645W        W74906   7.791  35.089   1.886
15646W        W74907  42.497  23.690   4.157
15647W        W74908   2.763  37.382   4.660
15648W        W74909  31.987  28.501  11.396
15649W        W74910  40.878  32.533   0.409
15650W        W74911  17.681   9.672  12.012
15651W        W74912  36.092  34.547   3.151
15652W        W74913  28.946  21.069   1.376
15653W        W74914   3.275  32.415  13.532
15654W        W74915   4.885   8.171  11.990
15655W        W74916  26.458  16.650  11.127
15656W        W74917   0.799  36.440   2.379
15657W        W74918  32.540  12.247  11.983
15658W        W74919  15.207  10.714   1.214
15659W        W74920   9.883  39.556  12.569
15660W        W74921   3.815  31.432   3.241
15661W        W74922  20.655   5.786   1.926
15662W        W74923   4.300  29.495   0.944
15663W        W74924  29.578  15.193  10.564
15664W        W74925   7.282   3.316   1.311
15665W        W74926  38.063  39.037  12.950
15666W        W74927   4.845  36.577   3.653
15667W        W74928  14.690  15.099  12.458
15668W        W74929  13.626  41.466   3.344
15669W        W74930  26.104  37.832  12.517
15670W        W74931   3.862  32.501  10.413
15671W        W74932   7.259  38.820  14.477
15672W        W74933  12.344  15.162  14.811
15673W        W74934  10.202   3.244  11.398
15674W        W74935  21.728  21.258  11.387
15675W        W74936  29.541  44.931  11.597
15676W        W74937  34.021  22.537   4.726
15677W        W74938  23.568  21.092  10.470
15678W        W74939   2.819  22.636  12.906
15679W        W74940  32.955  21.060  13.378
15680W        W74941  16.592  23.136   0.855
15681W        W74942   7.848  40.327  12.372
15682W        W74943  12.747  28.929   4.228
15683W        W74944  33.874   4.843  14.303
15684W        W74945  25.503  41.403  13.897
15685W        W74946  31.452   9.789   2.775
15686W        W74947  32.117  14.279  13.498
15687W        W74948  41.880   3.741   2.316
15688W        W74949  32.590  19.638   5.200
15689W        W74950   3.841  28.481  12.954
15690W        W74951  15.304  10.832   3.243
15691W        W74952  36.933  34.606  13.899
15692W        W74953  19.638   6.365  14.375
15693W        W74954   7.677  36.032  14.300
15694W        W74955  35.871  35.904   3.164
15695W        W74956  13.243   1.428  14.768
15696W        W74957   0.491  10.277   4.222
15697W        W74958  36.870  28.519  12.388
15698W        W74959  42.881  24.089  10.585
15699W        W74960   5.691  44.975  14.032
15700W        W74961  44.492  14.300   1.396
15701W        W74962  44.481  40.051   3.335
15702W        W74963  12.799   0.326   4.652
15703W        W74964  19.579  14.721  12.828
15704W        W74965   8.273   9.861  14.360
15705W        W74966   2.907  29.148  10.932
15706W        W74967  17.736  21.728   3.635
15707W        W74968  38.896  14.611  10.442
15708W        W74969   3.955  12.707   3.267
15709W        W74970  10.148  19.104   0.283
15710W        W74971  38.850  17.776  11.908
15711W        W74972  16.078  23.205   3.743
15712W        W74973  22.658  32.965   3.309
15713W        W74974  27.095  35.866  13.339
15714W        W74975  18.680  37.080   0.947
15715W        W74976  39.025  18.203  13.046
15716W        W74977  29.502   2.233   2.207
15717W        W74978  11.136  34.892   1.732
15718W        W74979  23.240  17.754   3.217
15719W        W74980  28.484  28.064   0.394
15720W        W74981  44.010   5.350  14.499
15721W        W74982  44.422  21.224  11.487
15722W        W74983  15.772  35.918   1.335
15723W        W74984  43.796  25.506   4.629
15724W        W74985   3.854  37.484  10.589
15725W        W74986   9.272  22.140   4.724
15726W        W74987  23.698  25.069  12.489
15727W        W74988  29.012  22.150  14.839
15728W        W74989   9.698   7.713   1.292
15729W        W74990  12.201  25.210   1.239
15730W        W74991  19.622   7.810  12.470
15731W        W74992  44.006  16.099  11.987
15732W        W74993   8.858  43.846  12.945
15733W        W74994  29.136  20.163   0.846
15734W        W74995  18.693  38.065  12.356
15735W        W74996  40.837  12.182  12.483
15736W        W74997   6.766  28.599   2.824
15737W        W74998   5.705  31.611   1.320
15738W        W74999   0.317   2.958   1.846
15739W        W75000   2.744   8.748   3.739
15740W        W75001  38.981  14.228   0.839
15741W        W75002  17.079  22.602   0.814
15742W        W75003  16.253  36.463  11.054
15743W        W75004  19.094  25.644  12.552
15744W        W75005  38.898  41.330  11.554
15745W        W75006  10.860  21.061   3.699
15746W        W75007   9.822  34.109  10.412
15747W        W75008  44.776  11.849  13.450
15748W        W75009  30.074   9.810  13.342
15749W        W75010  12.632  37.392  13.478
15750W        W75011   6.678  17.084   3.248
15751W        W75012  14.783   9.674  13.381
15752W        W75013  12.324  35.420  14.823
15753W        W75014   4.869  14.314   2.380
15754W        W75015  25.141  14.148  13.364
15755W        W75016  24.610  29.578   0.382
15756W        W75017  28.059  24.988   1.751
15757W        W75018  34.098   1.357  14.960
15758W        W75019  42.313  30.073  13.824
15759W        W75020  37.448  17.306   0.277
15760W        W75021  31.128  31.016  14.783
15761W        W75022  39.495  38.010   3.806
15762W        W75023  35.573  35.391  12.523
15763W        W75024  24.120  13.727  12.399
15764W        W75025   7.725  44.983   0.309
15765W        W75026  39.913  33.453  14.014
15766W        W75027  33.424  14.766  14.897
15767W        W75028   8.265  28.653  12.993
15768W        W75029   7.281  42.844   0.367
15769W        W75030  40.370  12.353   3.201
15770W        W75031  32.937  13.663  12.385
15771W        W75032  44.988  18.676  14.906
15772W        W75033  29.144   2.411   0.871
15773W        W75034  38.933  43.455  13.354
15774W        W75035  33.501  37.546  13.404
15775W        W75036  43.291  32.910  11.481
15776W        W75037  23.138  33.489   2.232
15777W        W75038  17.566  27.946  13.051
15778W        W75039  23.733  37.880   0.744
15779W        W75040   3.348  19.538  14.820
15780W        W75041  11.776  10.250   3.175
15781W        W75042  28.603   3.439   1.873
15782W        W75043  40.383  39.013  12.908
15783W        W75044  32.138  31.603   3.670
15784W        W75045   9.651   4.814   2.229
15785W        W75046  29.142  38.959  14.005
15786W        W75047  40.505   3.888  10.605
15787W        W75048  29.010  27.131  14.444
15788W        W75049  26.552  29.618   5.232
15789W        W75050   2.341  24.516  10.492
15790W        W75051   5.822   5.327   1.728
15791W        W75052  38.500  30.991  12.486
15792W        W75053  32.933  18.075   3.205
15793W        W75054  31.125  24.090   3.808
15794W        W75055  22.115  19.082  12.364
15795W        W75056  16.687  24.617  12.543
15796W        W75057  30.439  36.479   5.084
15797W        W75058  26.951  10.818   2.787
15798W        W75059  13.258  16.228   1.789
15799W        W75060  28.435  17.254   0.274
15800W        W75061  11.852  34.988   5.111
15801W        W75062   2.364  23.637  13.887
15802W        W75063  39.413  18.688  13.495
15803W        W75064  36.842  29.511  14.407
15804W        W75065  23.114   0.845  12.481
15805W        W75066  26.987   9.888   1.435
15806W        W75067  22.576   1.879   2.361
15807W        W75068  16.706  27.974  11.923
15808W        W75069  11.676  14.284  12.578
15809W        W75070   7.333  30.503   1.708
15810W        W75071  14.226  18.748   4.329
15811W        W75072   0.926  12.680  14.478
15812W        W75073  17.096   6.908  11.534
15813W        W75074  11.351   4.336   2.847
15814W        W75075   2.385   1.737   2.352
15815W        W75076  17.632  24.526   3.299
15816W        W75077  13.775  15.260  11.611
15817W        W75078   8.273  31.632  12.540
15818W        W75079   0.897  13.664   0.733
15819W        W75080  19.585  33.126  14.947
15820W        W75081  34.397  17.697  12.487
15821W        W75082  28.582   4.817  10.442
15822W        W75083  11.633   8.681   3.635
15823W        W75084  10.320  34.434  11.604
15824W        W75085   6.787  10.721  14.025
15825W        W75086  23.584  11.705   1.212
15826W        W75087  23.555  41.921  14.858
15827W        W75088  20.260  33.892   4.332
15828W        W75089   0.919  32.556  10.422
15829W        W75090  21.071   0.848  10.524
15830W        W75091  35.006  41.291  14.420
15831W        W75092   3.713   7.667   3.816
15832W        W75093  16.113  27.038  10.494
15833W        W75094  22.593   3.256   1.433
15834W        W75095  13.651  31.938  13.965
15835W        W75096  39.380  25.534   0.278
15836W        W75097   0.912   9.803  10.586
15837W        W75098  12.790  18.156   0.292
15838W        W75099   0.887  32.552   2.836
15839W        W75100  24.647  42.887   4.735
15840W        W75101  37.976   1.359  14.963
15841W        W75102  10.288  22.715  14.334
15842W        W75103  23.211  24.199  12.036
15843W        W75104  17.722   5.800  12.859
15844W        W75105  25.185   1.302  14.288
15845W        W75106  32.503  31.572   2.330
15846W        W75107  39.323  37.502  12.982
15847W        W75108  11.193  41.827   1.307
15848W        W75109   7.685   2.852   4.793
15849W        W75110  19.633  43.013   0.837
15850W        W75111   0.832  25.111  12.440
15851W        W75112   0.797   8.205   1.212
15852W        W75113   8.805  43.791  11.465
15853W        W75114  34.866  37.862  13.039
15854W        W75115  12.148  19.280   2.270
15855W        W75116   3.832   5.226   4.318
15856W        W75117  37.466  16.075   0.479
15857W        W75118   9.653  36.865  14.299
15858W        W75119  16.807   1.777   2.260
15859W        W75120  27.678   3.314  12.407
15860W        W75121   8.780  31.088  13.797
15861W        W75122  13.150  33.589   9.949
15862W        W75123   6.813  26.485   4.746
15863W        W75124  40.822   6.382   2.761
15864W        W75125  16.743  38.922   3.753
15865W        W75126   3.432  15.799   5.247
15866W        W75127   2.349  39.880   5.181
15867W        W75128  13.681   9.797  14.819
15868W        W75129   2.829  28.979  10.427
15869W        W75130  20.698  23.986  14.448
15870W        W75131  19.673  28.014  14.486
15871W        W75132   7.355  26.167   4.273
15872W        W75133  30.126  29.025   4.189
15873W        W75134  18.248  14.628   1.438
15874W        W75135   7.327   9.293  10.058
15875W        W75136  37.041  26.482  11.612
15876W        W75137   8.293  14.695  13.914
15877W        W75138  19.071   5.695  10.473
15878W        W75139  35.888  30.431   3.309
15879W        W75140   7.821  19.547  12.051
15880W        W75141  29.054  14.712   1.397
15881W        W75142  30.454  39.849   4.333
15882W        W75143  38.836  10.780  13.003
15883W        W75144  33.625   2.311   3.293
15884W        W75145  15.274  27.533  11.458
15885W        W75146  11.295  22.123  14.881
15886W        W75147  26.671  42.290   0.351
15887W        W75148  22.078  23.619   4.329
15888W        W75149  16.602  24.219  11.992
15889W        W75150  16.098  21.020  10.504
15890W        W75151  25.185  17.287   5.114
15891W        W75152  31.512  35.022   2.262
15892W        W75153  38.831  43.900  10.925
15893W        W75154  36.575  37.899  10.140
15894W        W75155   4.898  15.587   1.871
15895W        W75156  40.506  20.666   1.418
15896W        W75157   7.870  30.018  13.397
15897W        W75158  15.206  19.143   1.345
15898W        W75159  32.968   7.766  12.908
15899W        W75160   0.478   5.391  14.980
15900W        W75161  26.538  27.507  14.302
15901W        W75162  16.095   3.886  13.517
15902W        W75163  34.893  17.301  14.451
15903W        W75164  24.100  26.059   2.662
15904W        W75165  32.521  29.974   3.283
15905W        W75166   6.295   1.734   1.330
15906W        W75167  16.208  10.753  13.479
15907W        W75168  34.105  40.310  11.384
15908W        W75169  32.958  41.040   2.274
15909W        W75170  37.449   4.725   2.677
15910W        W75171  16.277  42.316   2.698
15911W        W75172  26.004  10.766   2.849
15912W        W75173  28.115   4.776  13.517
15913W        W75174  17.281  25.494  13.943
15914W        W75175  18.768  35.375  13.037
15915W        W75176  33.050  36.378  13.985
15916W        W75177  23.515  24.138  11.514
15917W        W75178  42.014   0.748   0.901
15918W        W75179   7.291  37.415  14.457
15919W        W75180  42.818  11.346  12.496
15920W        W75181  37.015   1.293  13.051
15921W        W75182  42.936   5.314   4.174
15922W        W75183  11.825   6.259   4.221
15923W        W75184  34.577  40.002  12.994
15924W        W75185  18.620  29.054   5.246
15925W        W75186   1.753  35.391   1.367
15926W        W75187  25.985  11.348  12.398
15927W        W75188  32.004   1.424   2.871
15928W        W75189  18.721  43.491   1.825
15929W        W75190  26.126  10.238  11.389
15930W        W75191  18.596  29.622   0.317
15931W        W75192  39.967  29.034   3.779
15932W        W75193  31.480  37.541   5.089
15933W        W75194  18.596   5.427   1.425
15934W        W75195  10.720   8.221  11.572
15935W        W75196  23.539  29.985   2.182
15936W        W75197  29.572  28.595   0.350
15937W        W75198  26.071  18.063  13.046
15938W        W75199   0.917  26.617  14.956
15939W        W75200   9.156  38.866   3.719
15940W        W75201  20.214  27.139   3.238
15941W        W75202  32.556  27.982   3.636
15942W        W75203   9.377   2.395   3.787
15943W        W75204  23.139   2.919   1.233
15944W        W75205  22.014  44.335   3.661
15945W        W75206  13.693  23.645   2.256
15946W        W75207  19.606  41.797   4.679
15947W        W75208  28.478  43.434  14.894
15948W        W75209   5.867  13.636  13.332
15949W        W75210  20.747  19.691   2.874
15950W        W75211  41.393  18.269   1.296
15951W        W75212   0.387   2.402  14.470
15952W        W75213   9.383   6.254  11.412
15953W        W75214  42.012  44.860   3.258
15954W        W75215  44.982   1.343  13.922
15955W        W75216  19.656  15.660   3.801
15956W        W75217  19.203  34.436   1.396
15957W        W75218  32.130  41.849   9.518
15958W        W75219   7.295  31.471  13.397
15959W        W75220   8.833   4.884  14.867
15960W        W75221  14.707  40.908  14.452
15961W        W75222   3.277  12.161  13.943
15962W        W75223  27.941  42.508  13.419
15963W        W75224  18.602  33.002   3.690
15964W        W75225  35.032  34.092   9.578
15965W        W75226  30.502  43.011  10.475
15966W        W75227  21.253  31.927  11.585
15967W        W75228  34.581  42.319  11.077
15968W        W75229  34.953  11.279   5.220
15969W        W75230   9.783   2.444   1.777
15970W        W75231  12.674   0.395  14.361
15971W        W75232  43.387  36.964   4.668
15972W        W75233  22.156   2.811  11.428
15973W        W75234   3.336   4.396   9.964
15974W        W75235  23.584   4.306   3.253
15975W        W75236  27.154  27.983   3.384
15976W        W75237  35.963  11.185  13.545
15977W        W75238   1.333   0.459  10.911
15978W        W75239  37.500  43.798   4.190
15979W        W75240   4.230  35.965  11.463
15980W        W75241  32.096  31.574  11.915
15981W        W75242  21.663  33.443   0.442
15982W        W75243  36.449  43.281  14.805
15983W        W75244  23.162   8.168  11.063
15984W        W75245  13.626  18.654   2.716
15985W        W75246  28.455   3.933   0.770
15986W        W75247   5.336  25.493   2.875
15987W        W75248  16.570   2.256   3.828
15988W        W75249  29.009   5.793  13.362
15989W        W75250  39.865  38.428  12.834
15990W        W75251  22.091  42.874   3.309
15991W        W75252  39.869  37.036   1.914
15992W        W75253  30.542  12.753  12.374
15993W        W75254   5.725  14.617   4.176
15994W        W75255  18.064   4.755   4.705
15995W        W75256  27.040   1.880   1.335
15996W        W75257  28.033  14.336  13.518
15997W        W75258  27.019  41.443   0.452
15998W        W75259  40.474  18.269  12.356
15999W        W75260  43.856  43.471  14.823
16000W        W75261  10.705   2.412  11.403
16001W        W75262  14.108  17.219   1.724
16002W        W75263  10.201  44.890  11.580
16003W        W75264  23.021   1.296   1.331
16004W        W75265  30.453  43.329  14.299
16005W        W75266  34.115  16.712  12.969
16006W        W75267  25.152   9.885  13.799
16007W        W75268  40.438  24.158  13.912
16008W        W75269   8.693  35.996   1.421
16009W        W75270  37.980  37.503  13.358
16010W        W75271   2.813  19.077  13.490
16011W        W75272  33.058  24.998  11.512
16012W        W75273   4.369  28.995  12.343
16013W        W75274  36.074  15.149  12.391
16014W        W75275   1.386   3.771  13.805
16015W        W75276  29.583  11.149   2.696
16016W        W75277  41.429  17.686   3.291
16017W        W75278  12.813   7.178   4.322
16018W        W75279   4.894  17.738  12.913
16019W        W75280   6.339  26.506   0.266
16020W        W75281  44.293   3.307   3.333
16021W        W75282  35.415  41.488   2.196
16022W        W75283  14.723   5.360   1.418
16023W        W75284  15.676  31.442  13.522
16024W        W75285  28.934  20.105   2.401
16025W        W75286  18.139  19.168  11.860
16026W        W75287  32.419   2.901  12.095
16027W        W75288  38.928  20.089   0.919
16028W        W75289  25.177  17.745   3.635
16029W        W75290  42.821  32.465  14.834
16030W        W75291  41.878  39.410  12.342
16031W        W75292  29.564   7.317  14.970
16032W        W75293  20.254   2.352   2.902
16033W        W75294   5.868  25.193   0.830
16034W        W75295  14.294  18.119  11.581
16035W        W75296   7.334  12.677   4.279
16036W        W75297  13.257  36.541   1.367
16037W        W75298   7.345   2.919  10.598
16038W        W75299  31.102  13.242  14.454
16039W        W75300  19.170  12.218   4.649
16040W        W75301  24.669  24.979   3.154
16041W        W75302   3.789  37.865  12.474
16042W        W75303  19.592  25.610  14.963
16043W        W75304  41.507  23.063   2.810
16044W        W75305  24.066  32.131  12.374
16045W        W75306  30.936  38.536   3.837
16046W        W75307  12.157  20.719  12.901
16047W        W75308  36.521  31.119   4.775
16048W        W75309  20.624  25.103  11.901
16049W        W75310  33.004  37.422   1.231
16050W        W75311  30.948  20.708  11.390
16051W        W75312  11.768  34.587  10.967
16052W        W75313   8.213  30.157  11.561
16053W        W75314   2.927  21.530  10.907
16054W        W75315   1.464  38.874  10.952
16055W        W75316  16.780  27.102   2.283
16056W        W75317  29.958  11.800  12.851
16057W        W75318   3.854   2.722   2.193
16058W        W75319  22.100  34.039   4.708
16059W        W75320  14.167   0.769   0.866
16060W        W75321  31.638  18.753   0.409
16061W        W75322  30.124  31.969  14.964
16062W        W75323  37.541  21.048  13.999
16063W        W75324   4.739  34.614  11.397
16064W        W75325  28.435  32.449   1.784
16065W        W75326  23.119  20.532  14.471
16066W        W75327  24.150  27.130  14.428
16067W        W75328  18.627  22.096   2.666
16068W        W75329  17.763  13.618   3.790
16069W        W75330  18.144  17.203   2.772
16070W        W75331  41.993  29.610  13.446
16071W        W75332  13.124   7.878   4.816
16072W        W75333   2.931  24.184  12.849
16073W        W75334   0.375  35.493  10.469
16074W        W75335   6.269  25.476   0.872
16075W        W75336  37.873  13.171  14.968
16076W        W75337  37.374   6.700   1.379
16077W        W75338  30.453  25.559   1.415
16078W        W75339   2.329  20.597   2.269
16079W        W75340  40.366  31.981  10.043
16080W        W75341  16.592  26.512   4.213
16081W        W75342  13.647  16.095   3.702
16082W        W75343  23.229   8.756  11.495
16083W        W75344  29.054  42.937  14.397
16084W        W75345   1.254  31.049   4.786
16085W        W75346  16.080   6.893  14.359
16086W        W75347   8.689   1.426   3.630
16087W        W75348  25.580  36.955   2.759
16088W        W75349  37.449   6.319  11.564
16089W        W75350  38.376  29.645   4.647
16090W        W75351  42.304  25.686  14.376
16091W        W75352  27.971  10.796  13.040
16092W        W75353  38.843  24.116  12.988
16093W        W75354  23.145   4.273  10.894
16094W        W75355  38.821  27.104   0.271
16095W        W75356   5.749   8.811   4.335
16096W        W75357  28.467  37.083  14.487
16097W        W75358  37.890  16.089   3.739
16098W        W75359  13.219  11.686  12.547
16099W        W75360  17.180  39.344   3.781
16100W        W75361  14.305  37.515  12.956
16101W        W75362  35.579   4.424   0.953
16102W        W75363  33.023  41.447  14.913
16103W        W75364  31.980  11.291  12.534
16104W        W75365  39.469  37.923  12.859
16105W        W75366  24.139  13.306   5.147
16106W        W75367   1.927  19.697  10.449
16107W        W75368   1.900   1.275  10.956
16108W        W75369  32.555   4.214  11.071
16109W        W75370   4.260  18.724  14.292
16110W        W75371   8.316  25.501   2.760
16111W        W75372   1.938  29.542  14.936
16112W        W75373  39.479  11.708  14.785
16113W        W75374   3.367  23.654  10.999
16114W        W75375  25.626  42.346  12.404
16115W        W75376  28.666  25.199  14.833
16116W        W75377  38.364  19.662  13.990
16117W        W75378  40.312  31.003  13.927
16118W        W75379   8.314  22.650  11.452
16119W        W75380  41.795  32.986  11.552
16120W        W75381   7.189   6.893   3.152
16121W        W75382  19.604  24.210  12.896
16122W        W75383  10.145  27.088   0.941
16123W        W75384   0.371   8.212   2.248
16124W        W75385  10.798  43.475  12.071
16125W        W75386   0.883  19.554   5.279
16126W        W75387   2.818  44.331  11.863
16127W        W75388  15.301  42.342   3.290
16128W        W75389  25.046   0.758   2.382
16129W        W75390  16.283   4.293  11.056
16130W        W75391  13.761  40.039  14.002
16131W        W75392  14.306  18.605  12.557
16132W        W75393  23.650  18.774  14.297
16133W        W75394  32.527  35.578   5.265
16134W        W75395   4.428   8.794  13.339
16135W        W75396  42.357  37.968   2.222
16136W        W75397  36.525  23.639   2.763
16137W        W75398  28.663  22.543   1.878
16138W        W75399  10.221   2.812   0.305
16139W        W75400  34.971   7.786   2.702
16140W        W75401  23.081  20.648   2.340
16141W        W75402  28.161   4.766   3.721
16142W        W75403   8.307  37.439   4.278
16143W        W75404   4.268  39.422   4.245
16144W        W75405  19.668  29.062  10.501
16145W        W75406  39.985  36.011  13.806
16146W        W75407  29.516  33.579   2.323
16147W        W75408  33.068  22.538   1.351
16148W        W75409  28.600  32.909  12.859
16149W        W75410  32.131  10.740  14.822
16150W        W75411  30.479  17.627  14.447
16151W        W75412  11.663  34.562   3.789
16152W        W75413  28.440   6.360  13.510
16153W        W75414  35.478   4.706   2.218
16154W        W75415  34.953  31.110  11.046
16155W        W75416  39.412   6.310   2.377
16156W        W75417  21.550  10.240  11.898
16157W        W75418  21.111   3.456   2.328
16158W        W75419   4.434  16.585   2.821
16159W        W75420  16.283   1.753   0.297
16160W        W75421   5.281  23.692  11.974
16161W        W75422  43.002   1.795  13.327
16162W        W75423  41.480  30.584   4.212
16163W        W75424  39.404  33.431  11.514
16164W        W75425  11.141  10.371   3.795
16165W        W75426  19.566  31.069  12.405
16166W        W75427  26.187  19.653   3.850
16167W        W75428  42.979  29.153   0.850
16168W        W75429  33.047   2.414  12.989
16169W        W75430  28.055  35.883  14.367
16170W        W75431  41.308  29.085  13.491
16171W        W75432  23.177  24.134  14.993
16172W        W75433  33.961  19.225   2.409
16173W        W75434  42.883   0.482   1.794
16174W        W75435  23.156  33.585  12.956
16175W        W75436  16.610  38.909   4.260
16176W        W75437   0.748  19.126   1.252
16177W        W75438  12.758  26.023   4.121
16178W        W75439  14.293  40.318  12.070
16179W        W75440  22.066  34.101  11.492
16180W        W75441  19.749  23.558   1.223
16181W        W75442   7.344  36.024   0.761
16182W        W75443  25.071   9.281   1.789
16183W        W75444  27.485  42.372  10.481
16184W        W75445   7.401  12.740   3.202
16185W        W75446   8.218  14.263   0.443
16186W        W75447  13.827  33.416  11.859
16187W        W75448  26.028  10.645  12.353
16188W        W75449  29.029  12.626  13.845
16189W        W75450  26.958  25.987   5.774
16190W        W75451   4.301  30.436  12.576
16191W        W75452  29.155  36.863   4.170
16192W        W75453  29.566   5.221   1.877
16193W        W75454  18.638   0.294   3.237
16194W        W75455  23.066  39.868  13.053
16195W        W75456  23.993  24.191  14.851
16196W        W75457  19.617  29.926  11.033
16197W        W75458  29.627  17.161  11.946
16198W        W75459  19.602  42.996   1.342
16199W        W75460   8.254   9.271   1.730
16200W        W75461  33.466  22.737   1.884
16201W        W75462  40.044   7.170   1.370
16202W        W75463  38.013   1.376   0.265
16203W        W75464  27.063  31.050   2.303
16204W        W75465  17.769  26.483   2.265
16205W        W75466   0.437  28.182   4.312
16206W        W75467  43.359  40.317   4.331
16207W        W75468  13.230   7.319  11.469
16208W        W75469  17.632   8.705   4.619
16209W        W75470  41.395  26.025   0.795
16210W        W75471  13.747   1.316   1.915
16211W        W75472   0.867  19.046   2.244
16212W        W75473   2.456   7.335   4.286
16213W        W75474  30.620   5.439   0.262
16214W        W75475  19.589  21.122  11.882
16215W        W75476  42.474  27.125  14.277
16216W        W75477   3.224  17.644  11.429
16217W        W75478  29.456  18.265   4.643
16218W        W75479  19.097  24.031   2.738
16219W        W75480  22.716  35.960   1.893
16220W        W75481  36.383  27.191   3.691
16221W        W75482  14.693  28.147   5.738
16222W        W75483  16.808  29.944   0.447
16223W        W75484  37.915  40.529   0.325
16224W        W75485  29.619  12.236  13.343
16225W        W75486  12.285  12.782   0.733
16226W        W75487   9.826   6.360  12.359
16227W        W75488   2.466  11.821   3.660
16228W        W75489  35.374  42.355   5.145
16229W        W75490   3.722  33.096   1.268
16230W        W75491  40.943  21.616  14.003
16231W        W75492  17.619  25.564   0.919
16232W        W75493  25.047  11.257   2.395
16233W        W75494   1.861  43.296   1.362
16234W        W75495  43.335  34.022   3.667
16235W        W75496  29.026  44.927   2.712
16236W        W75497   3.293  36.520  12.004
16237W        W75498  30.587  40.806  14.961
16238W        W75499   9.212  21.111   4.273
16239W        W75500  18.734  23.124   1.218
16240W        W75501  37.871   7.202   1.807
16241W        W75502  21.569  37.065  10.480
16242W        W75503  21.555  10.723  14.352
16243W        W75504  34.424  18.120   1.754
16244W        W75505  40.329  18.249   3.827
16245W        W75506  25.184  31.971   0.254
16246W        W75507  42.967  15.268   3.346
16247W        W75508  31.511  23.099   1.741
16248W        W75509   9.280  35.470  13.868
16249W        W75510  44.977  38.509   1.837
16250W        W75511  14.715  33.400   0.314
16251W        W75512  12.717  19.749  14.011
16252W        W75513   7.226  10.148   0.774
16253W        W75514   3.268   0.977  13.348
16254W        W75515   1.307  41.337   0.738
16255W        W75516   9.832   1.288  12.928
16256W        W75517  10.866  19.771  11.962
16257W        W75518  16.802  40.380  13.471
16258W        W75519  39.318  39.365   4.629
16259W        W75520  22.234  32.441  10.947
16260W        W75521  21.076  34.510  12.947
16261W        W75522  21.637  43.923   3.324
16262W        W75523  17.240  43.414  11.882
16263W        W75524  32.044  21.699   0.811
16264W        W75525  15.797  12.658  14.385
16265W        W75526  13.218  35.904  11.049
16266W        W75527  25.659  11.271  13.903
16267W        W75528  37.936  43.406   0.345
16268W        W75529  33.475  23.209   4.666
16269W        W75530  18.293  10.698   1.374
16270W        W75531  12.359  44.291  12.535
16271W        W75532  29.591  44.842   1.395
16272W        W75533   0.321   4.308  11.021
16273W        W75534  18.119  27.197   2.332
16274W        W75535  25.139  21.037   4.210
16275W        W75536  40.499  32.104   3.356
16276W        W75537  26.083  14.209  10.899
16277W        W75538  22.684  38.567  10.124
16278W        W75539  20.679  22.114   0.250
16279W        W75540  16.571  37.388   1.858
16280W        W75541  15.731  19.717  13.486
16281W        W75542   1.748  22.507  14.418
16282W        W75543  11.239  21.211  13.894
16283W        W75544  44.281  11.632   1.863
16284W        W75545  29.490  43.780   4.345
16285W        W75546  10.202  41.830  11.040
16286W        W75547   3.279  36.547  11.445
16287W        W75548  15.297   0.805   1.420
16288W        W75549   4.430  24.122   3.664
16289W        W75550  25.153  21.020   3.202
16290W        W75551  18.625  27.564  13.035
16291W        W75552   2.893  33.107   3.781
16292W        W75553  35.943   0.455  14.765
16293W        W75554   1.886   4.891   3.279
16294W        W75555  11.652  42.837   4.319
16295W        W75556  26.539   0.284  11.122
16296W        W75557  24.196  12.631  11.461
16297W        W75558   8.686  27.147  14.782
16298W        W75559  42.991   1.833  11.482
16299W        W75560  23.205   7.238  11.863
16300W        W75561  19.219  11.832  10.464
16301W        W75562  15.294  34.978   2.815
16302W        W75563  27.197   2.282   1.817
16303W        W75564  11.782  19.657   1.301
16304W        W75565  41.506  17.107   2.256
16305W        W75566  29.063  43.337   0.352
16306W        W75567  41.395  19.590   3.869
16307W        W75568  33.051  10.846   0.934
16308W        W75569  19.636  33.595   1.277
16309W        W75570  33.471  43.491   3.254
16310W        W75571  41.838  12.144  10.955
16311W        W75572  29.468  39.472   0.379
16312W        W75573  30.428  31.506  13.047
16313W        W75574   1.740  40.501  14.431
16314W        W75575  14.313  19.625   4.696
16315W        W75576  38.404  20.675   0.736
16316W        W75577  29.491  10.643   0.364
16317W        W75578   9.279  13.825  13.328
16318W        W75579  21.606   4.743   0.332
16319W        W75580  39.425   8.371   1.243
16320W        W75581  10.351   3.913   3.374
16321W        W75582   8.862  15.126  13.323
16322W        W75583  28.061  41.829  12.001
16323W        W75584   8.761  37.059   2.846
16324W        W75585  13.190   3.888   2.299
16325W        W75586  12.294  30.483   2.702
16326W        W75587   1.306  24.065   4.268
16327W        W75588  20.206  39.478   4.117
16328W        W75589  29.053  25.682  12.860
16329W        W75590  34.056  34.373  14.946
16330W        W75591  27.579  40.847  11.502
16331W        W75592   1.939  11.736   0.355
16332W        W75593  30.031  20.047  12.915
16333W        W75594  34.997  18.746   5.091
16334W        W75595   3.730  26.463   3.660
16335W        W75596  24.148  13.221   4.278
16336W        W75597  35.974  30.437   2.311
16337W        W75598  21.707  33.615   4.725
16338W        W75599  40.846   8.814  14.304
16339W        W75600  36.462  35.377   1.838
16340W        W75601  19.744   8.323  11.074
16341W        W75602  39.939   5.286  11.908
16342W        W75603  30.657  11.721   2.207
16343W        W75604  29.083   7.908  11.937
16344W        W75605  17.287   2.844   3.823
16345W        W75606   7.768  32.528  10.543
16346W        W75607  32.929   0.886  14.828
16347W        W75608  20.571  42.478   1.360
16348W        W75609  30.478  43.461  13.368
16349W        W75610  24.665  20.604  11.023
16350W        W75611  44.477   7.409  13.502
16351W        W75612  14.720   1.817  14.431
16352W        W75613  34.474  28.506   1.782
16353W        W75614  24.482  40.043  13.023
16354W        W75615  15.624  38.442   4.142
16355W        W75616  40.909  33.973   0.741
16356W        W75617   8.286  43.792  10.624
16357W        W75618  13.786   7.876   4.129
16358W        W75619  44.452   4.379   4.341
16359W        W75620  43.406  26.662   0.831
16360W        W75621  16.650  11.201  12.563
16361W        W75622  16.803  11.715  11.595
16362W        W75623  10.692  15.193  14.828
16363W        W75624  16.708   0.945   2.854
16364W        W75625   8.238   1.795  12.957
16365W        W75626  29.598  16.097  10.630
16366W        W75627  39.881   2.816  13.048
16367W        W75628  22.553   7.845   3.386
16368W        W75629  44.360   7.683  13.523
16369W        W75630  35.026  38.835   1.706
16370W        W75631  10.344  26.687  14.956
16371W        W75632   4.402  29.532   3.817
16372W        W75633   8.787  37.540   5.135
16373W        W75634  40.810  11.839   3.636
16374W        W75635  11.777  21.026   0.774
16375W        W75636   1.738   8.191   2.383
16376W        W75637  24.008   7.827  14.830
16377W        W75638  24.692   4.214  12.042
16378W        W75639  38.442  37.363  13.899
16379W        W75640  10.219   1.439  10.406
16380W        W75641  11.366  12.341   0.273
16381W        W75642   9.351   1.904  12.344
16382W        W75643  34.985  38.054   2.733
16383W        W75644  43.934   5.297  13.376
16384W        W75645  34.388  33.899  12.970
16385W        W75646  18.675  42.330  12.485
16386W        W75647  11.638  17.302  10.466
16387W        W75648  23.675  16.126   2.775
16388W        W75649  37.871  22.644  13.327
16389W        W75650   4.210   6.731  12.418
16390W        W75651  30.451  18.140  12.898
16391W        W75652   4.838   6.908   5.756
16392W        W75653  43.919  17.649  14.418
16393W        W75654  24.159  40.500   1.424
16394W        W75655  30.562  34.388   4.812
16395W        W75656  12.172  22.576  12.028
16396W        W75657  28.154  37.953   2.837
16397W        W75658  20.729   9.873  10.892
16398W        W75659  39.971  29.099   4.754
16399W        W75660  31.406  20.555   4.163
16400W        W75661  41.372  27.164  13.044
16401W        W75662   2.903  24.987  10.459
16402W        W75663  30.979   7.800  11.537
16403W        W75664  13.728  26.080  14.310
16404W        W75665   9.678  28.084   3.282
16405W        W75666  31.417  38.998  12.480
16406W        W75667  34.045  37.355  12.365
16407W        W75668  28.524  41.894   4.214
16408W        W75669   7.405   1.474   4.735
16409W        W75670   5.754  26.142  12.834
16410W        W75671  33.963   8.725   3.718
16411W        W75672   1.290  21.154  14.797
16412W        W75673  11.325  44.379   1.396
16413W        W75674  35.524  26.202  12.861
16414W        W75675  40.529   4.920  14.943
16415W        W75676  15.665  23.130  10.605
16416W        W75677  37.041  26.140   2.678
16417W        W75678  35.513  23.153  12.570
16418W        W75679  19.061  12.793   3.215
16419W        W75680   4.870  43.809  10.633
16420W        W75681   6.740   8.701  12.545
16421W        W75682   6.708  29.025   3.330
16422W        W75683  13.121   3.317  13.868
16423W        W75684  29.457  22.712  10.575
16424W        W75685   5.228  42.812   0.925
16425W        W75686  11.808  25.159  12.979
16426W        W75687  39.455  26.117  12.374
16427W        W75688   2.321  35.865  12.439
16428W        W75689  42.506  28.551   1.419
16429W        W75690  12.806  12.359  14.493
16430W        W75691   9.725  22.060   1.296
16431W        W75692  28.047  10.142   3.367
16432W        W75693   9.254   8.709   5.310
16433W        W75694  26.573  10.760   2.224
16434W        W75695  38.499  30.102  12.440
16435W        W75696   6.380  31.124  11.572
16436W        W75697  22.017  22.584  11.414
16437W        W75698  27.118  36.432  14.006
16438W        W75699   4.902   8.348   0.454
16439W        W75700  24.539  44.296   0.482
16440W        W75701   8.835   9.268   4.820
16441W        W75702   1.452  11.780  11.091
16442W        W75703  28.624   3.218   4.237
16443W        W75704  24.619  19.754   0.858
16444W        W75705  10.342  30.486   3.199
16445W        W75706   6.913   2.468  13.346
16446W        W75707  43.482   2.924  11.461
16447W        W75708   8.816  39.510   2.706
16448W        W75709  13.741  42.920  10.037
16449W        W75710   3.758  30.959  12.067
16450W        W75711  29.976  33.006   1.832
16451W        W75712  17.070  37.354  14.427
16452W        W75713  15.212   4.418  12.081
16453W        W75714  26.093   5.206  10.603
16454W        W75715  33.111   7.875  14.819
16455W        W75716  31.953  28.017   4.158
16456W        W75717   9.865  37.021  11.904
16457W        W75718   6.362  11.347  14.447
16458W        W75719  27.630  36.407   4.813
16459W        W75720  34.941  28.178  12.897
16460W        W75721  27.982  24.060  11.567
16461W        W75722  37.513  12.815   3.186
16462W        W75723  10.260  35.926  12.999
16463W        W75724  19.263   2.409  12.496
16464W        W75725  31.081  37.074   4.795
16465W        W75726   0.951  33.564  12.354
16466W        W75727   7.347   8.868  14.790
16467W        W75728   2.289  34.475  11.025
16468W        W75729   5.262   1.916   1.264
16469W        W75730   9.215   2.239   2.303
16470W        W75731   0.456  44.993   2.796
16471W        W75732  32.528  12.330  14.901
16472W        W75733  11.777  29.123  14.449
16473W        W75734   3.296  13.126  11.467
16474W        W75735  27.567  23.039   4.151
16475W        W75736  40.316   4.768   3.674
16476W        W75737   6.749  28.504  11.937
16477W        W75738   9.338  37.855  12.048
16478W        W75739  35.985   0.264   2.740
16479W        W75740  11.829   2.436  13.425
16480W        W75741  17.685   8.818  10.476
16481W        W75742  23.555  44.912   2.186
16482W        W75743  34.950  38.923  10.908
16483W        W75744  14.211  31.140  14.945
16484W        W75745  43.831   5.718   0.478
16485W        W75746   3.269  44.772   3.816
16486W        W75747   7.321   2.366  12.859
16487W        W75748  26.145   5.752   3.752
16488W        W75749   5.906  37.410  10.593
16489W        W75750  39.461   8.785   0.958
16490W        W75751  38.985  30.108  12.007
16491W        W75752  23.628  19.232   4.627
16492W        W75753  14.206   2.312  13.026
16493W        W75754  25.584  17.136  12.055
16494W        W75755  22.121  13.148   2.870
16495W        W75756   1.810  19.597  11.920
16496W        W75757   2.918  30.926   2.197
16497W        W75758  35.376  25.985   3.689
16498W        W75759  18.177  35.602   4.794
16499W        W75760  38.011  31.560  10.893
16500W        W75761  39.020   3.721  12.420
16501W        W75762   4.900  24.572  11.970
16502W        W75763  19.269  10.794  14.470
16503W        W75764   3.825  36.846   1.706
16504W        W75765   1.876  20.105   4.752
16505W        W75766  33.453  24.703  13.544
16506W        W75767  30.610  34.503  12.578
16507W        W75768  21.202  13.219   3.662
16508W        W75769  37.831  30.512   1.843
16509W        W75770   8.216  41.828  10.433
16510W        W75771  42.890  34.974   3.322
16511W        W75772  37.874  29.979   1.235
16512W        W75773  33.098  17.631   0.334
16513W        W75774  24.494  21.079   1.317
16514W        W75775  11.861  41.299  12.468
16515W        W75776  15.292  20.633  10.978
16516W        W75777   8.789   4.850   2.318
16517W        W75778  40.402  10.657   3.693
16518W        W75779  17.668   2.794  11.378
16519W        W75780  28.676  24.008   2.224
16520W        W75781  14.161  42.973  14.415
16521W        W75782  11.621   7.875   1.724
16522W        W75783  27.151  43.502  10.640
16523W        W75784  18.088  24.606  13.860
16524W        W75785  29.519  43.006  10.039
16525W        W75786   2.349   6.257  10.107
16526W        W75787  44.379  25.986   3.271
16527W        W75788   3.851  15.176   3.207
16528W        W75789   5.249   8.727   3.871
16529W        W75790  17.695  22.123  14.465
16530W        W75791  23.633  18.559  13.018
16531W        W75792   2.366  20.578  12.928
16532W        W75793  32.607  22.591  13.538
16533W        W75794   0.950   1.959  13.867
16534W        W75795  29.664  24.124  13.959
16535W        W75796  22.535  36.359   4.739
16536W        W75797  36.026  44.443  13.009
16537W        W75798  32.492  17.785  11.609
16538W        W75799  30.968  16.767   2.226
16539W        W75800   6.211  38.928   0.389
16540W        W75801  25.483   0.412  11.600
16541W        W75802  10.297  14.742   2.748
16542W        W75803  25.050  41.857   3.764
16543W        W75804   5.705  20.144  10.430
16544W        W75805   8.841  14.168  12.344
16545W        W75806  15.104   3.872  13.457
16546W        W75807  28.124   7.782   2.415
16547W        W75808   5.772   7.801  11.001
16548W        W75809  14.627  38.338   1.885
16549W        W75810  35.518  31.921  14.003
16550W        W75811  15.296   7.328   4.139
16551W        W75812  31.622   5.261   0.384
16552W        W75813  30.564  32.048   0.461
16553W        W75814  14.833  10.299  10.412
16554W        W75815   6.876  44.004   3.252
16555W        W75816  19.721  25.545  12.508
16556W        W75817  13.209  31.626   1.231
16557W        W75818   8.720   6.296   4.717
16558W        W75819  40.941   6.346   3.260
16559W        W75820  36.986  38.403   2.704
16560W        W75821  18.790  11.288  11.470
16561W        W75822  26.003  26.561   0.322
16562W        W75823  22.549  19.078  13.877
16563W        W75824  18.618  11.719  10.593
16564W        W75825   0.331  35.447  11.870
16565W        W75826   6.327   2.851   1.935
16566W        W75827  24.002  22.584   3.864
16567W        W75828  11.807   5.227   2.725
16568W        W75829  39.824   2.842   4.299
16569W        W75830  10.778  23.732  10.407
16570W        W75831  40.804  33.468   4.682
16571W        W75832  39.919   4.795   2.687
16572W        W75833  14.214  19.138   4.198
16573W        W75834  23.997  13.227   0.882
16574W        W75835  16.768   4.210  11.596
16575W        W75836  38.908  16.252   1.766
16576W        W75837   7.792  31.933   1.435
16577W        W75838  32.414   7.222  13.354
16578W        W75839  42.951  15.313  14.380
16579W        W75840  27.650  18.052  14.425
16580W        W75841  35.502   6.303  14.804
16581W        W75842  41.840  11.194   4.197
16582W        W75843  37.061  14.832  14.010
16583W        W75844  34.595  34.419   4.339
16584W        W75845  13.196   9.353   0.816
16585W        W75846  18.554  30.131  14.426
16586W        W75847  29.510   9.650  11.448
16587W        W75848  11.658  10.195  10.035
16588W        W75849  34.116   9.733  11.492
16589W        W75850   8.817  19.248  10.507
16590W        W75851  19.157   1.418   4.687
16591W        W75852   8.775  11.191   3.842
16592W        W75853  32.581  35.577  11.520
16593W        W75854  44.935  42.379   3.794
16594W        W75855  41.966  17.597   2.304
16595W        W75856  38.482  15.622   2.261
16596W        W75857  33.908  10.325  13.982
16597W        W75858  18.682  23.020  13.934
16598W        W75859  40.977  19.270   3.175
16599W        W75860  13.229  15.723   0.431
16600W        W75861   9.717  28.017  11.455
16601W        W75862  40.883  20.594   1.212
16602W        W75863  23.233  16.706   0.412
16603W        W75864  43.366   8.213  10.596
16604W        W75865   4.730   5.713   2.184
16605W        W75866  21.737  13.773   2.764
16606W        W75867  17.255  44.823   2.844
16607W        W75868  25.518  31.556  11.521
16608W        W75869  41.855  10.342  13.517
16609W        W75870  37.081  42.021  14.355
16610W        W75871   0.270  28.065   0.938
16611W        W75872  35.941   6.368   1.886
16612W        W75873  36.366  12.189   3.801
16613W        W75874  40.335   3.813   0.821
16614W        W75875   7.322  27.528  12.519
16615W        W75876   6.206  17.146  13.976
16616W        W75877   4.791   1.912   1.333
16617W        W75878  21.608  21.584   2.401
16618W        W75879  44.790  29.616   2.888
16619W        W75880  30.532  40.393  11.433
16620W        W75881  38.990  37.932   4.274
16621W        W75882  40.416  19.087   4.794
16622W        W75883  16.189  40.401  12.981
16623W        W75884  23.624  27.596   2.669
16624W        W75885  40.922  17.076  14.817
16625W        W75886  22.080  17.213   3.171
16626W        W75887  26.658  40.014  10.960
16627W        W75888  32.097  13.660  13.463
16628W        W75889  41.302  13.234  13.534
16629W        W75890  20.768   5.710   3.750
16630W        W75891  11.763  40.401  11.984
16631W        W75892  16.813  20.696  11.947
16632W        W75893  24.975  20.094   3.272
16633W        W75894   2.828  29.999  12.000
16634W        W75895   3.271   6.855  11.542
16635W        W75896   6.901  43.807  11.881
16636W        W75897  28.167  33.438   1.371
16637W        W75898  34.576   0.420   2.855
16638W        W75899   0.355  18.561   2.205
16639W        W75900  43.829   3.277  11.922
16640W        W75901  38.981  28.569   3.323
16641W        W75902   2.266  22.074   2.709
16642W        W75903  31.644  36.525   3.631
16643W        W75904  17.300  35.576  11.059
16644W        W75905  31.978   2.386   0.465
16645W        W75906  30.970  39.926  11.526
16646W        W75907  18.756  12.854   1.775
16647W        W75908   7.260   0.814  14.781
16648W        W75909  21.019  16.193  13.063
16649W        W75910  27.635  35.362  11.891
16650W        W75911  44.848  19.079   2.673
16651W        W75912  42.386  25.115   0.449
16652W        W75913  43.416   1.332   4.299
16653W        W75914  41.012  21.026  12.060
16654W        W75915  40.013  39.979  13.404
16655W        W75916   8.370   2.725  13.925
16656W        W75917  34.101  11.266   5.644
16657W        W75918  44.770  20.189  12.016
16658W        W75919  33.596  35.601  14.028
16659W        W75920   1.891  36.579  14.871
16660W        W75921  36.473  18.226   3.852
16661W        W75922  33.876  16.763  14.476
16662W        W75923  43.304  42.892  13.040
16663W        W75924  20.043   5.428  11.959
16664W        W75925   9.806  26.583  12.977
16665W        W75926   3.886  14.212   1.417
16666W        W75927  28.060  21.119  10.419
16667W        W75928  42.311   5.827  11.473
16668W        W75929  39.813  19.114   0.856
16669W        W75930  40.041  28.956  11.951
16670W        W75931  43.870  19.729   2.804
16671W        W75932  30.148  14.214   3.827
16672W        W75933  34.476  35.091   0.842
16673W        W75934  29.448  27.020  14.015
16674W        W75935  43.410  21.041  13.471
16675W        W75936  21.527  12.210  14.770
16676W        W75937  18.655  25.610   4.159
16677W        W75938  15.783  40.451   1.253
16678W        W75939  11.637  42.468  11.471
16679W        W75940  18.733   0.769   5.261
16680W        W75941   2.324   4.300  10.944
16681W        W75942  25.541  33.622   2.391
16682W        W75943  27.159  24.977   0.275
16683W        W75944  11.819  26.608  13.053
16684W        W75945  15.219  12.356  13.310
16685W        W75946  10.814  43.790  13.320
16686W        W75947  19.100   0.397  11.962
16687W        W75948  12.628  40.872   3.234
16688W        W75949  22.639  21.259   0.744
16689W        W75950   6.781  18.292  12.002
16690W        W75951  39.896  14.240   3.346
16691W        W75952  29.473   6.326   0.416
16692W        W75953  11.868  28.510  11.013
16693W        W75954  24.186  39.876  13.383
16694W        W75955  17.577  40.902  13.464
16695W        W75956   5.797  28.471  14.446
16696W        W75957  13.744  21.556  13.936
16697W        W75958  37.964  17.260  11.934
16698W        W75959  38.519  43.948  13.043
16699W        W75960  42.500  10.731  13.848
16700W        W75961   0.433  23.490   1.279
16701W        W75962  10.224   9.285   4.817
16702W        W75963  39.438  26.610  13.434
16703W        W75964  12.616  31.909   1.292
16704W        W75965   3.719  18.727   3.681
16705W        W75966  21.228  38.905   4.766
16706W        W75967   7.674  43.999  14.430
16707W        W75968   2.842  18.751  13.043
16708W        W75969  31.010  11.127   0.315
16709W        W75970  19.597   2.807  13.449
16710W        W75971  17.274  43.841  10.985
16711W        W75972  44.810  24.613   3.371
16712W        W75973  13.142  26.601  10.644
16713W        W75974  36.945  41.333  10.552
16714W        W75975  12.670  33.030  10.927
16715W        W75976  39.044  16.118  10.915
16716W        W75977  25.967  28.677   0.904
16717W        W75978  26.095   7.789   1.778
16718W        W75979  36.553  42.954   4.783
16719W        W75980  16.268  37.548   3.314
16720W        W75981  40.314  43.816  14.489
16721W        W75982  32.409  32.538   0.357
16722W        W75983  10.820   3.397   3.317
16723W        W75984   3.792   8.219  11.944
16724W        W75985  33.397  17.723   3.674
16725W        W75986  38.025  43.439   2.404
16726W        W75987   4.436  12.707   4.715
16727W        W75988  10.185  34.078  14.775
16728W        W75989  19.706  30.552  13.969
16729W        W75990  35.935  33.901   1.870
16730W        W75991  16.695  34.877  14.940
16731W        W75992   2.851   2.867  10.961
16732W        W75993  33.519  44.280  11.465
16733W        W75994  19.199   9.180   3.223
16734W        W75995   3.748  44.971  11.068
16735W        W75996  32.505  10.150   4.780
16736W        W75997  30.070  12.727   0.281
16737W        W75998  43.787  20.665   0.798
16738W        W75999  30.036   8.846  13.540
16739W        W76000   9.203   9.810  14.329
16740W        W76001  17.139  23.130   4.123
16741W        W76002  20.145  30.642   3.324
16742W        W76003  36.896  19.671   0.423
16743W        W76004   3.726  23.565  13.925
16744W        W76005  26.080  11.843   2.354
16745W        W76006  36.871  29.537   0.426
16746W        W76007  20.627  26.679   2.776
16747W        W76008   8.290  19.756  11.513
16748W        W76009  28.050  16.274   0.868
16749W        W76010  32.411  16.606  13.351
16750W        W76011  10.383   7.351   1.784
16751W        W76012   5.301  40.411  10.463
16752W        W76013   7.845  12.809   2.897
16753W        W76014  39.371   6.706  10.550
16754W        W76015   8.874  14.605   1.424
16755W        W76016  40.839  41.951  13.522
16756W        W76017   7.244  32.400  13.951
16757W        W76018  10.660  11.264   1.757
16758W        W76019   2.430  17.626   0.808
16759W        W76020  28.453  16.651  14.292
16760W        W76021  17.193  13.788   4.718
16761W        W76022  13.224  37.049  11.518
16762W        W76023   4.799  24.095   1.845
16763W        W76024  40.436  32.886   2.222
16764W        W76025  12.277  11.813   9.484
16765W        W76026  16.665   7.747  13.955
16766W        W76027  18.050  32.452   2.676
16767W        W76028  23.536  39.327  14.343
16768W        W76029  21.601  12.812  14.324
16769W        W76030  30.619  38.949  14.778
16770W        W76031  41.459  22.688  14.388
16771W        W76032   0.428  21.511  14.901
16772W        W76033  38.402  38.959  14.281
16773W        W76034  28.155  44.825  11.120
16774W        W76035  34.958  20.187   2.883
16775W        W76036   0.400  12.825   1.788
16776W        W76037  21.683  12.798   1.238
16777W        W76038  14.630  37.038   1.751
16778W        W76039  15.171  17.780   1.914
16779W        W76040   0.288  35.948  12.339
16780W        W76041  25.111  26.004  11.908
16781W        W76042  25.031  11.654   1.858
16782W        W76043  24.071  33.914  13.863
16783W        W76044  14.646  26.636   3.170
16784W        W76045  34.086   6.331  13.404
16785W        W76046   7.317  20.692   0.830
16786W        W76047   6.207   5.930  10.958
16787W        W76048  24.124   1.398   1.362
16788W        W76049  40.932  20.696  11.912
16789W        W76050  31.019  34.002   1.715
16790W        W76051  40.393  43.464  12.899
16791W        W76052   7.863  25.642   4.350
16792W        W76053  19.665  15.613   2.372
16793W        W76054  25.173  27.977  13.896
16794W        W76055   9.265  28.533   1.872
16795W        W76056  43.835  43.016   0.475
16796W        W76057  29.961  25.007  13.971
16797W        W76058  30.500  26.113   4.825
16798W        W76059   5.229  14.287  10.513
16799W        W76060  25.991  26.657  11.521
16800W        W76061  11.704  27.148  11.021
16801W        W76062  27.114  21.601  14.958
16802W        W76063  16.149  42.296   1.760
16803W        W76064   3.890  14.590   1.286
16804W        W76065  21.682   7.396   1.825
16805W        W76066  16.098  41.942  10.895
16806W        W76067  30.980  17.126   0.878
16807W        W76068  22.588  31.520  13.392
16808W        W76069  20.706  39.001   0.910
16809W        W76070   2.778  18.151  12.853
16810W        W76071  14.125  39.017  11.569
16811W        W76072  41.517  35.577   2.694
16812W        W76073  24.056  18.712   0.959
16813W        W76074  20.743   5.218  12.478
16814W        W76075  19.635   3.437   3.846
16815W        W76076  28.018   6.387   0.841
16816W        W76077   3.937  28.143  12.095
16817W        W76078  41.350  20.061   0.905
16818W        W76079  40.425  22.065   4.146
16819W        W76080  10.209  32.528  13.335
16820W        W76081   0.400  19.222  10.932
16821W        W76082  21.570  20.248  11.605
16822W        W76083  24.539  28.154   0.482
16823W        W76084   0.783   0.917  14.440
16824W        W76085  33.437   5.864   0.860
16825W        W76086  11.625  20.188  12.073
16826W        W76087  25.101  33.504  14.852
16827W        W76088  14.143   8.232  14.953
16828W        W76089  40.546  24.994  11.384
16829W        W76090  35.090   6.204   0.789
16830W        W76091   2.892  42.022  12.024
16831W        W76092   2.326   6.415  10.471
16832W        W76093  26.466  34.897  12.467
16833W        W76094  17.791  33.081  13.845
16834W        W76095  21.702  44.910  13.357
16835W        W76096  28.933  17.105  11.578
16836W        W76097  27.961  25.032  12.432
16837W        W76098  19.605   8.895  14.886
16838W        W76099  27.650   8.264   1.702
16839W        W76100  21.515   0.364  10.512
16840W        W76101  25.621  41.506   1.735
16841W        W76102  43.934   6.391   4.192
16842W        W76103  30.530   2.967  10.923
16843W        W76104  23.153  22.693  12.488
16844W        W76105   9.195  10.826   2.311
16845W        W76106  39.391  12.805   1.417
16846W        W76107   3.927  14.594   0.762
16847W        W76108   7.798  18.598  10.628
16848W        W76109  29.521  39.501   4.237
16849W        W76110  15.202  40.013   1.342
16850W        W76111  41.314  39.485  11.094
16851W        W76112   3.824  19.579  12.984
16852W        W76113  27.993  17.256  13.884
16853W        W76114   0.786   0.817  10.022
16854W        W76115  35.515  12.830   2.750
16855W        W76116  13.810  37.499   4.248
16856W        W76117   5.832   8.171  12.968
16857W        W76118  41.821  16.218  11.437
16858W        W76119  31.415  41.521   0.771
16859W        W76120  38.994  10.820   1.742
16860W        W76121  38.421  33.925   3.235
16861W        W76122  42.889   2.782   3.270
16862W        W76123  34.507  14.098  13.408
16863W        W76124  23.558  34.952   1.885
16864W        W76125   2.826  13.269  13.039
16865W        W76126  32.056  17.713  10.503
16866W        W76127  26.181  11.728  12.400
16867W        W76128  43.298  11.325   2.350
16868W        W76129  41.384  17.657  10.988
16869W        W76130  42.400   8.396  14.373
16870W        W76131  22.168  42.787   4.213
16871W        W76132  29.664  25.981  12.903
16872W        W76133  19.690  12.164  14.924
16873W        W76134   9.847   0.865   4.795
16874W        W76135  11.675  13.330   1.913
16875W        W76136  10.346   2.896   3.359
16876W        W76137  42.023  34.590  11.416
16877W        W76138  28.063   3.863  10.924
16878W        W76139   2.933   5.235  12.078
16879W        W76140  34.065  11.187   1.424
16880W        W76141  16.659   1.462  12.014
16881W        W76142  17.167  41.340  14.456
16882W        W76143  15.728  17.734   2.708
16883W        W76144  30.583   7.673   3.359
16884W        W76145  27.649  41.868  12.080
16885W        W76146   0.763  24.623   3.385
16886W        W76147  36.350  34.585   4.801
16887W        W76148  22.672  11.739  11.968
16888W        W76149  38.335  44.927  13.441
16889W        W76150  16.770  23.562  10.980
16890W        W76151  13.713  37.523  14.369
16891W        W76152  44.364  41.792   4.215
16892W        W76153  39.855  43.821  12.838
16893W        W76154  23.154   7.181   3.792
16894W        W76155   8.785  29.170  12.862
16895W        W76156  40.487   4.330   1.227
16896W        W76157  25.637  40.957  13.386
16897W        W76158  40.497  33.080   2.832
16898W        W76159  28.941  35.865  12.023
16899W        W76160   9.866  29.601   2.228
16900W        W76161  18.163  29.615   1.374
16901W        W76162  40.400  41.307   5.239
16902W        W76163  33.048  38.924  11.401
16903W        W76164  40.845  17.611   2.832
16904W        W76165   7.836  36.866  11.071
16905W        W76166   9.771  17.579   0.925
16906W        W76167  35.470  16.737   0.404
16907W        W76168  16.226  12.159   4.353
16908W        W76169  26.143  32.887  11.963
16909W        W76170  18.617   5.417   2.244
16910W        W76171   2.310  22.563  14.871
16911W        W76172  22.552  35.047   0.932
16912W        W76173  16.125  10.344  12.898
16913W        W76174   0.388  39.402   1.400
16914W        W76175  28.459   7.349   4.611
16915W        W76176  10.209  28.438  14.500
16916W        W76177  38.995   3.389  11.930
16917W        W76178   0.838  10.346  13.392
16918W        W76179  22.743  29.563   1.908
16919W        W76180  14.767  26.471  14.921
16920W        W76181  28.478  15.283   3.812
16921W        W76182  14.188  42.480  12.077
16922W        W76183  42.937  35.550  10.557
16923W        W76184   6.241  41.521  14.431
16924W        W76185  22.575  17.253  10.893
16925W        W76186  18.069  39.542   1.435
16926W        W76187  33.056  34.018   2.291
16927W        W76188  33.387  21.165  10.452
16928W        W76189  22.030  20.611  12.368
16929W        W76190  33.598  27.993   0.441
16930W        W76191  22.241  25.007   3.204
16931W        W76192  13.335   1.281  12.862
16932W        W76193  30.441  14.591  14.788
16933W        W76194   6.232   0.424   3.723
16934W        W76195  26.142  43.790  13.823
16935W        W76196  33.913  18.288  11.573
16936W        W76197  43.406  19.049  12.454
16937W        W76198  10.842  11.307   4.308
16938W        W76199   9.728   6.229   0.388
16939W        W76200   0.278  22.543   2.313
16940W        W76201  20.033  37.876  14.425
16941W        W76202  41.800  42.016   1.398
16942W        W76203  32.135  37.888  13.412
16943W        W76204   1.408  10.344   0.803
16944W        W76205  11.678  33.051  13.478
16945W        W76206  21.149  13.282   0.810
16946W        W76207  29.584  35.448  14.814
16947W        W76208  17.756  30.424   5.621
16948W        W76209  29.578  43.941  11.564
16949W        W76210   5.417  12.195   5.699
16950W        W76211   3.386  39.449  13.543
16951W        W76212   6.368  29.566  11.995
16952W        W76213   2.408  25.467   2.668
16953W        W76214  37.037  25.163  13.790
16954W        W76215  44.384   0.473   2.839
16955W        W76216  19.085   2.864   1.741
16956W        W76217  41.952  37.504   4.643
16957W        W76218  29.569  30.513  10.435
16958W        W76219  12.325  43.480  14.492
16959W        W76220  10.677  14.815  13.514
16960W        W76221  16.752   4.275   1.261
16961W        W76222  19.236  39.383   0.291
16962W        W76223  24.066  30.109   3.867
16963W        W76224   6.771  10.250  14.405
16964W        W76225   6.232  30.063   1.371
16965W        W76226  37.926  40.324  12.843
16966W        W76227  34.108  42.921  10.463
16967W        W76228  14.812  23.506   2.727
16968W        W76229  14.595  32.897   3.275
16969W        W76230  22.135   6.336   4.138
16970W        W76231   1.285   5.215   1.800
16971W        W76232  22.590   6.410   1.791
16972W        W76233  30.499  18.059   2.275
16973W        W76234  39.486  16.566   3.681
16974W        W76235  39.408  22.122   2.774
16975W        W76236   5.212   6.689   3.742
16976W        W76237  33.483   5.839  10.610
16977W        W76238   0.326   1.255   2.777
16978W        W76239   7.879  22.543  12.988
16979W        W76240   1.286  20.629   3.170
16980W        W76241  21.169  20.064  13.374
16981W        W76242  25.101  13.153   3.821
16982W        W76243   5.763  30.955  14.494
16983W        W76244  23.007  29.021   0.921
16984W        W76245   9.740   0.267   1.339
16985W        W76246  29.974   2.897   0.421
16986W        W76247  16.722  43.331  10.510
16987W        W76248  21.070   7.182  14.414
16988W        W76249  10.754  20.532  11.966
16989W        W76250  24.036  36.569   4.725
16990W        W76251  42.459   1.318   1.783
16991W        W76252  40.049  25.220   2.811
16992W        W76253  11.732  35.547  14.951
16993W        W76254  24.018   4.427   1.717
16994W        W76255  11.635  24.227   0.464
16995W        W76256  13.767  23.154  14.806
16996W        W76257  35.419  37.964  10.901
16997W        W76258  34.893  39.428  13.055
16998W        W76259  20.546  24.011  12.362
16999W        W76260  41.810  15.226   4.117
17000W        W76261  21.036  17.070   4.805
17001W        W76262  10.726  24.982   1.837
17002W        W76263  20.634  10.338  14.854
17003W        W76264  37.970   3.746  13.860
17004W        W76265  34.062  16.622  11.999
17005W        W76266  25.082   0.277  13.477
17006W        W76267   5.870  17.571   0.359
17007W        W76268  24.984  38.408  13.876
17008W        W76269  29.004   0.281   0.926
17009W        W76270   5.878  32.066  14.416
17010W        W76271  41.973  10.695   4.338
17011W        W76272  23.599  32.927   3.266
17012W        W76273   3.896  32.471   4.236
17013W        W76274  15.294  36.075   3.145
17014W        W76275  23.147  14.188   4.824
17015W        W76276  24.076  14.187   1.303
17016W        W76277   4.882  29.004   2.736
17017W        W76278  16.155  25.062   3.352
17018W        W76279  32.437  21.099  13.947
17019W        W76280  21.133  24.506  12.474
17020W        W76281  15.168  12.348   3.843
17021W        W76282   1.835  19.678   1.451
17022W        W76283  29.130  21.701   2.235
17023W        W76284  41.418  21.199   1.397
17024W        W76285  44.884   8.730   2.774
17025W        W76286   7.839   7.228   1.433
17026W        W76287   8.683   3.783  13.013
17027W        W76288  18.169  32.512   1.820
17028W        W76289  12.820   5.845   5.640
17029W        W76290  29.467   6.762  14.925
17030W        W76291  25.153  41.372   2.392
17031W        W76292   6.912  21.213  12.034
17032W        W76293  31.487  32.535   3.163
17033W        W76294  23.161  25.111   3.166
17034W        W76295  27.636  29.128  12.509
17035W        W76296  30.469   3.310  11.086
17036W        W76297  21.031   5.227  14.804
17037W        W76298  26.169  18.238  10.895
17038W        W76299  39.015  20.124  14.012
17039W        W76300  38.874  26.638  12.071
17040W        W76301   0.858  13.120   1.373
17041W        W76302  12.696   4.766  11.544
17042W        W76303  25.541   8.810   4.326
17043W        W76304  14.744  30.935  13.366
17044W        W76305  21.217   8.659   1.899
17045W        W76306  29.066  13.190  10.507
17046W        W76307  32.087  44.883   0.947
17047W        W76308  35.479  13.745   3.333
17048W        W76309  29.995  27.610   2.825
17049W        W76310  37.409   1.777   0.482
17050W        W76311   2.910  17.302  13.532
17051W        W76312  34.879  10.813  14.764
17052W        W76313   5.741  30.128   3.297
17053W        W76314  23.695  15.665  10.540
17054W        W76315  39.886  11.259   2.418
17055W        W76316  31.968  37.484  11.884
17056W        W76317  41.858  21.204   4.685
17057W        W76318  30.153  29.156  13.317
17058W        W76319   0.380  41.419   3.345
17059W        W76320  39.413   5.412   4.678
17060W        W76321  28.637  34.948   0.793
17061W        W76322  38.834  41.421   0.842
17062W        W76323   5.718  15.780  13.479
17063W        W76324  25.670  29.066   4.731
17064W        W76325  35.054  24.490  14.492
17065W        W76326  16.693  34.963  13.064
17066W        W76327  25.966  13.717  12.513
17067W        W76328  28.549   1.443   2.892
17068W        W76329  42.388   4.909   1.767
17069W        W76330  12.348  23.731   0.883
17070W        W76331   4.424  37.579  12.455
17071W        W76332  29.584   5.272  11.452
17072W        W76333  30.592  33.067   5.734
17073W        W76334   1.294  25.491   1.934
17074W        W76335  12.120  21.106  10.512
17075W        W76336  14.196  38.478  11.599
17076W        W76337  23.629  42.942  12.873
17077W        W76338  31.926  39.511   1.333
17078W        W76339   9.250  10.376   0.961
17079W        W76340  33.600   4.436  14.780
17080W        W76341  39.814  29.948  11.869
17081W        W76342  41.939  29.585   3.379
17082W        W76343  13.150  12.266  13.023
17083W        W76344   5.709  39.826  10.923
17084W        W76345  40.402  24.677   1.214
17085W        W76346  43.456  17.292   2.314
17086W        W76347  37.407  24.013   0.767
17087W        W76348  26.586  23.129  14.842
17088W        W76349  10.313  36.439   0.265
17089W        W76350  41.503  21.557   2.762
17090W        W76351  42.978  11.167  10.600
17091W        W76352   7.906   6.418   3.277
17092W        W76353   6.867  11.343  10.088
17093W        W76354  16.093  25.636  11.974
17094W        W76355  31.463  34.403  14.927
17095W        W76356   9.792  28.550  14.357
17096W        W76357  44.306  34.972   0.376
17097W        W76358   5.406  12.314   4.164
17098W        W76359  21.551  29.669  12.827
17099W        W76360   8.698   6.368   5.319
17100W        W76361  29.585  27.947  13.442
17101W        W76362  34.926  17.188  10.962
17102W        W76363  24.607  24.545  13.017
17103W        W76364  32.555  39.477   0.456
17104W        W76365   8.742  31.899  11.469
17105W        W76366   8.277  42.917   1.249
17106W        W76367  35.911  42.822  11.919
17107W        W76368  29.068   0.454  10.461
17108W        W76369   2.392  20.231   4.726
17109W        W76370  17.081  42.407   0.425
17110W        W76371  32.554  10.243   5.779
17111W        W76372   2.801  34.035   1.301
17112W        W76373  27.006  18.196  14.441
17113W        W76374  37.478  41.293   3.243
17114W        W76375  18.754  31.150   2.750
17115W        W76376   6.199   5.270  14.806
17116W        W76377  44.935  23.001  13.932
17117W        W76378  18.743  16.142   1.786
17118W        W76379  26.668   5.213  14.834
17119W        W76380  33.549   0.833   1.408
17120W        W76381  41.511  43.980   3.862
17121W        W76382  36.871  29.490  10.494
17122W        W76383   2.796  23.046  14.317
17123W        W76384  10.252  30.495   5.092
17124W        W76385   3.811  24.049   4.174
17125W        W76386   6.271  42.024   1.266
17126W        W76387  27.943  14.617   2.238
17127W        W76388   1.287  14.152   0.898
17128W        W76389  26.585  22.093   1.868
17129W        W76390  44.844  34.919   3.817
17130W        W76391  41.953  25.632   2.862
17131W        W76392  25.065  21.203   4.808
17132W        W76393  44.821  41.460   1.934
17133W        W76394  15.807   3.944   4.131
17134W        W76395  27.568  19.053  10.641
17135W        W76396   5.405  40.937  11.893
17136W        W76397  39.044  44.289  14.378
17137W        W76398  10.220  28.662  13.473
17138W        W76399  42.795  16.163  12.360
17139W        W76400  17.111  30.474  10.415
17140W        W76401  39.815  27.678  12.882
17141W        W76402  18.722  28.094   1.312
17142W        W76403   3.390  19.180  13.339
17143W        W76404  26.203  37.555   2.182
17144W        W76405  13.798  13.843   0.468
17145W        W76406  32.965   3.328  12.830
17146W        W76407   2.462  30.621   5.274
17147W        W76408  36.371  35.492  12.972
17148W        W76409  36.423  42.313   3.242
17149W        W76410  42.522   7.296   3.168
17150W        W76411  11.193  38.393   0.766
17151W        W76412   6.405   4.898  13.532
17152W        W76413  14.208  30.922   1.849
17153W        W76414  17.241  41.362   2.300
17154W        W76415  32.415  26.033   3.318
17155W        W76416  13.314  43.984  13.015
17156W        W76417  21.716  31.530  13.525
17157W        W76418   0.493  38.969   1.216
17158W        W76419  34.434  30.109   2.667
17159W        W76420   9.322  43.842   1.394
17160W        W76421   9.223  23.635  13.465
17161W        W76422  36.487  30.572  10.037
17162W        W76423  20.241  30.596  14.396
17163W        W76424   0.756  43.859   2.334
17164W        W76425   6.294  20.688   2.386
17165W        W76426  33.022   8.181  14.430
17166W        W76427  33.923   7.344  11.924
17167W        W76428  31.580   4.424   0.247
17168W        W76429  32.512  41.530   2.403
17169W        W76430  30.425  21.077   4.667
17170W        W76431  18.080  30.646  12.917
17171W        W76432  44.454  41.350   1.761
17172W        W76433  15.263  35.433  14.959
17173W        W76434  26.458   8.835  10.644
17174W        W76435  28.124   5.346  14.393
17175W        W76436   3.787  18.280   1.242
17176W        W76437  43.901   3.285  14.952
17177W        W76438  29.472  17.263  12.544
17178W        W76439  33.545  33.086  11.559
17179W        W76440  38.830  34.090  10.541
17180W        W76441  17.178  43.994   2.779
17181W        W76442  22.694   4.810  13.402
17182W        W76443  27.185   7.347   0.449
17183W        W76444  29.656  39.512   2.342
17184W        W76445  29.941  25.977  14.402
17185W        W76446  36.891  10.669   1.394
17186W        W76447  14.684  15.742   2.210
17187W        W76448  34.533  32.090  14.827
17188W        W76449  28.041  28.083   4.299
17189W        W76450  36.870  18.770  13.812
17190W        W76451   0.852  28.002   3.245
17191W        W76452  31.574  13.343  13.307
17192W        W76453  24.666  11.771  11.546
17193W        W76454  10.355  31.931  12.095
17194W        W76455  40.867  37.855  14.513
17195W        W76456  19.278  38.884   2.871
17196W        W76457  20.547  38.830   2.193
17197W        W76458  21.086   4.302  12.002
17198W        W76459  24.998  25.209  13.841
17199W        W76460  20.201  17.221   3.656
17200W        W76461   3.765  33.060   4.184
17201W        W76462  32.895  36.481   3.257
17202W        W76463   2.457   1.340  13.421
17203W        W76464  36.085  17.151   3.333
17204W        W76465   5.301  19.109  12.074
17205W        W76466  18.177  11.752  13.836
17206W        W76467  18.766  34.945   5.266
17207W        W76468   8.356  32.018  11.940
17208W        W76469  32.519   7.692  10.946
17209W        W76470  43.788  24.634   0.281
17210W        W76471  15.189   5.866   3.338
17211W        W76472  44.378   1.245  11.395
17212W        W76473  39.492   5.690   4.143
17213W        W76474  42.521  27.119   2.878
17214W        W76475  30.433  11.129   2.690
17215W        W76476   9.266  41.870   1.725
17216W        W76477  38.066  12.653   2.780
17217W        W76478  27.042  32.457   4.798
17218W        W76479   9.822  37.066  14.978
17219W        W76480  35.055   9.364   3.340
17220W        W76481  13.775  36.902  12.840
17221W        W76482  11.680  17.131  13.470
17222W        W76483  16.656  26.469   1.307
17223W        W76484  30.076  41.011  11.003
17224W        W76485  36.929   3.832   1.279
17225W        W76486  12.688  23.704  14.289
17226W        W76487  22.635  14.701   2.224
17227W        W76488   2.870   0.372   0.421
17228W        W76489  13.722  13.326  12.358
17229W        W76490  16.284  33.472   0.473
17230W        W76491  16.281  22.012  13.428
17231W        W76492  31.438  25.663  12.023
17232W        W76493  43.410  12.211   2.400
17233W        W76494  38.982  32.941   2.265
17234W        W76495   6.791  37.912   4.307
17235W        W76496  34.924   2.781  14.867
17236W        W76497  29.929  29.536  12.451
17237W        W76498  26.200  32.958  11.411
17238W        W76499  21.251  11.685  11.556
17239W        W76500  43.308  13.707   4.244
17240W        W76501  18.590  27.194  14.937
17241W        W76502   9.241   1.468   2.272
17242W        W76503  14.588   4.853  10.480
17243W        W76504   2.734  13.262   4.335
17244W        W76505  23.572  21.739  10.912
17245W        W76506  31.128  22.059  10.611
17246W        W76507  22.668  31.486   3.737
17247W        W76508  10.257  30.658   4.659
17248W        W76509  14.202  30.081   1.254
17249W        W76510  32.589  40.322   2.807
17250W        W76511  26.655  11.780   1.231
17251W        W76512  29.656  43.380  11.961
17252W        W76513  43.999  15.597   4.293
17253W        W76514  25.549  18.057   3.242
17254W        W76515  19.663  43.936  11.535
17255W        W76516  14.835  12.179   3.742
17256W        W76517  26.497  13.704   1.394
17257W        W76518   7.692   9.183  14.983
17258W        W76519   8.291   2.959   1.761
17259W        W76520  37.025  41.906   4.684
17260W        W76521  35.469  32.933  14.476
17261W        W76522  13.162  13.690  13.061
17262W        W76523  33.474  35.993   2.354
17263W        W76524  21.650  18.115   0.925
17264W        W76525  31.445  43.513  14.896
17265W        W76526  44.464  37.353  12.823
17266W        W76527  34.083  38.044   2.796
17267W        W76528  30.927   4.794  13.845
17268W        W76529  33.566   8.855   5.136
17269W        W76530   7.840  23.011   1.816
17270W        W76531  42.981  17.153   3.252
17271W        W76532  36.410  15.749   4.293
17272W        W76533  21.181  44.310  14.444
17273W        W76534  28.134  38.564  10.585
17274W        W76535  32.570  29.556  11.966
17275W        W76536  23.635  44.813  12.360
17276W        W76537   7.749  44.422   1.833
17277W        W76538   2.271  25.015  12.860
17278W        W76539   2.435  14.697  11.088
17279W        W76540  39.401  26.134  12.999
17280W        W76541  37.987  29.160  13.393
17281W        W76542  26.637  21.162  11.037
17282W        W76543  16.297   1.832   3.227
17283W        W76544  37.376   3.933  11.013
17284W        W76545  31.985   9.887   5.735
17285W        W76546  34.895   8.238  13.877
17286W        W76547   7.790   0.876   0.360
17287W        W76548  39.548  33.489   1.928
17288W        W76549   1.450  33.464   3.162
17289W        W76550  41.410   8.302   0.805
17290W        W76551  34.088   6.676  11.122
17291W        W76552  24.588   6.751  11.053
17292W        W76553  22.171  27.499   1.229
17293W        W76554  16.730  34.392  10.628
17294W        W76555  39.898  37.370   1.447
17295W        W76556   2.795  10.340  11.436
17296W        W76557  25.534   7.174  12.354
17297W        W76558  40.017  43.974  12.345
17298W        W76559   0.459   5.691  14.983
17299W        W76560   8.859  42.831  11.600
17300W        W76561  44.865  43.957  11.505
17301W        W76562  16.734   4.898   2.198
17302W        W76563   7.260   7.717  12.881
17303W        W76564  30.151  10.308   3.769
17304W        W76565  31.617   1.948  14.768
17305W        W76566  28.528  39.907   3.734
17306W        W76567  20.628  34.932   1.213
17307W        W76568  34.410  22.556   4.834
17308W        W76569  36.419  31.559  12.858
17309W        W76570  20.190  21.525  12.823
17310W        W76571  39.371  22.183   4.339
17311W        W76572  22.649   7.278   2.267
17312W        W76573  33.589   6.308  14.900
17313W        W76574   4.736   3.721  11.873
17314W        W76575  43.925  32.120  11.037
17315W        W76576  16.673  27.180   3.720
17316W        W76577  20.600  42.028  10.496
17317W        W76578   4.916  25.499   0.368
17318W        W76579  15.748   7.780   2.411
17319W        W76580  30.963  15.766  10.450
17320W        W76581  14.168  26.192  14.484
17321W        W76582   3.413  19.211  12.407
17322W        W76583  33.593  16.256   4.677
17323W        W76584  29.018  38.369   1.891
17324W        W76585  38.526  27.089   4.280
17325W        W76586  28.949  31.583  12.970
17326W        W76587   2.741   9.360  12.494
17327W        W76588  28.602   7.887   4.660
17328W        W76589  27.604  22.705   2.309
17329W        W76590  32.407   7.297  11.116
17330W        W76591  29.921  22.547  13.491
17331W        W76592  30.981   9.285  12.428
17332W        W76593  36.043  25.092   2.186
17333W        W76594  16.245  43.996  12.857
17334W        W76595  17.104  44.804   0.341
17335W        W76596  31.401   3.927   4.186
17336W        W76597   8.818  17.078   2.313
17337W        W76598  18.565  26.016   0.251
17338W        W76599  34.454  30.092  13.326
17339W        W76600   3.256  35.525   4.606
17340W        W76601  15.109   9.291   3.213
17341W        W76602   5.928  32.004   1.435
17342W        W76603  26.027  44.390   0.339
17343W        W76604  42.882   7.832  11.495
17344W        W76605  22.216   3.416   4.230
17345W        W76606  13.166  16.105   2.218
17346W        W76607  41.345  34.063   0.307
17347W        W76608  27.539   0.458   1.882
17348W        W76609   3.765  35.482  10.456
17349W        W76610  39.856  35.864   5.279
17350W        W76611   1.475  38.044   2.819
17351W        W76612  14.759  10.236   0.844
17352W        W76613   8.716  31.647  11.535
17353W        W76614  18.117   2.249  11.944
17354W        W76615  40.050  30.942  11.947
17355W        W76616  18.279  29.516   0.352
17356W        W76617  31.964  44.276  11.856
17357W        W76618  22.544  20.575   0.293
17358W        W76619   8.780  14.231  13.368
17359W        W76620  35.974  42.446  12.001
17360W        W76621  15.620  43.954   0.331
17361W        W76622   0.748  16.576   1.319
17362W        W76623  19.178  35.081   3.857
17363W        W76624  38.377  24.052   1.902
17364W        W76625  24.023  43.402   4.803
17365W        W76626  40.925   9.712  10.913
17366W        W76627  39.393  28.453  14.831
17367W        W76628   5.342  13.122   3.196
17368W        W76629  21.535  21.654   0.331
17369W        W76630  39.419  10.314  11.933
17370W        W76631  38.863  43.960  12.370
17371W        W76632  24.051  33.551   4.698
17372W        W76633   4.829  40.522  11.943
17373W        W76634   1.859  11.745   2.836
17374W        W76635  41.914  30.521  10.561
17375W        W76636  35.588  16.208   4.232
17376W        W76637  34.945   7.861   2.403
17377W        W76638  14.122   6.197   1.230
17378W        W76639  27.523  37.070  14.946
17379W        W76640  21.232  24.667  10.890
17380W        W76641  26.998  41.817  11.605
17381W        W76642  34.058   6.238  11.068
17382W        W76643  12.808   8.178  12.550
17383W        W76644  14.733   2.365   4.248
17384W        W76645   2.889  29.926  10.954
17385W        W76646  30.623  31.911  14.005
17386W        W76647   6.885  37.381  14.947
17387W        W76648   9.191  22.110  14.003
17388W        W76649  41.529   6.753   3.782
17389W        W76650  16.804  18.191  12.987
17390W        W76651  28.510   4.327   4.611
17391W        W76652  43.888  22.545   2.201
17392W        W76653  32.441  13.176   1.216
17393W        W76654  21.664   6.281   2.223
17394W        W76655   1.764  22.636   3.347
17395W        W76656   7.897  28.108   2.200
17396W        W76657  25.698  27.121   3.832
17397W        W76658  31.639  17.642  10.471
17398W        W76659  17.638   1.814   0.963
17399W        W76660   0.429  10.333  12.972
17400W        W76661  44.468   1.763  12.538
17401W        W76662  27.190  12.125   2.855
17402W        W76663   5.871   3.825   4.203
17403W        W76664  34.371  26.148   2.310
17404W        W76665   7.870  19.168  13.512
17405W        W76666  28.985  29.088   4.244
17406W        W76667  34.104  21.162  11.867
17407W        W76668   8.788   9.803   2.388
17408W        W76669  41.521  16.567  14.513
17409W        W76670  23.064  18.728  14.944
17410W        W76671  11.641  16.785  10.539
17411W        W76672  29.928   0.825   0.377
17412W        W76673  14.312   8.758   3.163
17413W        W76674  10.189   7.220   4.635
17414W        W76675  17.705  11.778   1.432
17415W        W76676  30.540  38.941  14.442
17416W        W76677  43.407  33.459   2.248
17417W        W76678  23.725   4.232  11.974
17418W        W76679   5.931  24.605  10.984
17419W        W76680   9.737  13.228  10.497
17420W        W76681  42.974  28.479  11.534
17421W        W76682  34.607  38.027  14.379
17422W        W76683  37.391   6.734   3.642
17423W        W76684  40.973  30.056  14.382
17424W        W76685  24.977  38.394  14.443
17425W        W76686   2.469   1.917   5.321
17426W        W76687  26.598   5.228   2.721
17427W        W76688  33.031  22.682   4.736
17428W        W76689   4.940  32.957   9.973
17429W        W76690  24.521  42.495  12.030
17430W        W76691  37.401  21.718   2.757
17431W        W76692   6.306  33.522  10.120
17432W        W76693   0.771  39.013   4.662
17433W        W76694  42.954  29.017   2.788
17434W        W76695  16.580  30.922  14.374
17435W        W76696  22.240  30.526   2.364
17436W        W76697  37.537  31.082  14.943
17437W        W76698  30.995  30.598   0.351
17438W        W76699   6.761  12.809   4.330
17439W        W76700  36.390  35.907   3.645
17440W        W76701  38.396  23.638   4.660
17441W        W76702  19.124  12.727   2.812
17442W        W76703  25.490  37.362  12.470
17443W        W76704   7.401  27.665   3.268
17444W        W76705  12.763   0.410  12.431
17445W        W76706   2.360  20.639  14.822
17446W        W76707  13.325  13.695   1.907
17447W        W76708  14.296  41.012  11.027
17448W        W76709  15.653  24.661   3.645
17449W        W76710   8.338  31.013  12.035
17450W        W76711  42.324   9.800  14.776
17451W        W76712  16.679  34.943  12.450
17452W        W76713  36.998   0.970  13.325
17453W        W76714  14.113   2.941  14.455
17454W        W76715  22.512  38.050   2.748
17455W        W76716  31.538  27.063  12.001
17456W        W76717  12.794  19.737   1.728
17457W        W76718  12.678  28.598   3.806
17458W        W76719  33.085   7.367  11.902
17459W        W76720  18.607  20.675   3.343
17460W        W76721   1.921   8.327  10.014
17461W        W76722   0.391  19.556   4.115
17462W        W76723   3.897  36.031   0.742
17463W        W76724  18.554  39.970   4.641
17464W        W76725  20.072  40.455  10.550
17465W        W76726  40.957  29.990  14.820
17466W        W76727  29.044   4.265  12.860
17467W        W76728  38.535  33.079   3.345
17468W        W76729  19.235  22.701  11.536
17469W        W76730  26.993   2.723  12.847
17470W        W76731   0.783  33.920   4.227
17471W        W76732  41.463  33.128   1.885
17472W        W76733  25.216   8.708   2.244
17473W        W76734   6.305  34.926   1.211
17474W        W76735  28.573  27.629  13.865
17475W        W76736  22.728  27.973   0.818
17476W        W76737   8.404  25.140  14.385
17477W        W76738  44.488  33.416  14.332
17478W        W76739  12.805  13.290  12.393
17479W        W76740   3.731  30.601   0.739
17480W        W76741  18.549   4.882  14.478
17481W        W76742  40.521  29.980   2.331
17482W        W76743  30.098  26.143   4.168
17483W        W76744  34.972  11.853  13.530
17484W        W76745  33.579  22.702   4.764
17485W        W76746  14.295  12.796  11.051
17486W        W76747  43.386  32.067   0.442
17487W        W76748   7.191  41.018   3.315
17488W        W76749  39.524  40.479   3.166
17489W        W76750  31.105  31.510  11.406
17490W        W76751   1.812  41.016   3.167
17491W        W76752  35.575  22.636  11.028
17492W        W76753  23.131  18.137  13.064
17493W        W76754   4.254  30.961  14.415
17494W        W76755  36.846   9.330  13.440
17495W        W76756   2.725  42.833   2.859
17496W        W76757  23.051  31.930   3.696
17497W        W76758  22.027  40.875   3.223
17498W        W76759  33.132   6.405  12.994
17499W        W76760   2.457  31.898   2.730
17500W        W76761  10.162  36.575   3.337
17501W        W76762  35.571  42.284  10.896
17502W        W76763  40.434  32.933  14.983
17503W        W76764  26.160  28.595  13.351
17504W        W76765  14.689   7.227   4.828
17505W        W76766   8.256   1.797  12.378
17506W        W76767   8.872  37.050  12.950
17507W        W76768  37.499  23.622   0.416
17508W        W76769  44.484  17.064  10.422
17509W        W76770  40.958  35.026   3.187
17510W        W76771  37.882  28.632   3.167
17511W        W76772  12.616  12.284  10.909
17512W        W76773  39.997  30.463  10.912
17513W        W76774  35.939  44.889   2.304
17514W        W76775  39.447  41.850   4.655
17515W        W76776  44.894  14.170  14.940
17516W        W76777  23.063  39.033  11.976
17517W        W76778   1.277   2.441  13.332
17518W        W76779  16.746  28.571   1.353
17519W        W76780  11.771  34.915  12.841
17520W        W76781  25.045  25.681   3.176
17521W        W76782   0.277  44.959  14.344
17522W        W76783  43.441  38.335  14.956
17523W        W76784  28.088  20.555  10.992
17524W        W76785  40.446   1.794  10.454
17525W        W76786  28.937   0.360   2.814
17526W        W76787  44.302   1.937   3.174
17527W        W76788   4.779   4.437  14.364
17528W        W76789  44.932  24.022   3.252
17529W        W76790   2.863  41.919  11.057
17530W        W76791  28.186   2.446   0.263
17531W        W76792  43.847   1.412   4.181
17532W        W76793  37.413   6.711   0.387
17533W        W76794  15.788  14.300   0.263
17534W        W76795  42.786  38.405  13.355
17535W        W76796  36.984  32.531   0.469
17536W        W76797  20.140   1.334  11.121
17537W        W76798  12.362  10.715  12.419
17538W        W76799   5.801  36.875   3.745
17539W        W76800   4.380   8.738   1.844
17540W        W76801   4.816  26.625   5.298
17541W        W76802  20.031  20.646  14.275
17542W        W76803   8.825  29.453  13.465
17543W        W76804  30.048  36.561   2.371
17544W        W76805  21.245  16.147   0.444
17545W        W76806  38.939  23.122   1.817
17546W        W76807  17.647  42.992   1.873
17547W        W76808  22.540  33.471  10.931
17548W        W76809  28.178  23.715   2.719
17549W        W76810   7.322  38.478  12.417
17550W        W76811   4.283  30.944   1.701
17551W        W76812  35.497  38.428  11.534
17552W        W76813  18.116  27.677   3.854
17553W        W76814  12.699   7.193  11.552
17554W        W76815  27.125  22.654   3.691
17555W        W76816  27.527  38.970   3.295
17556W        W76817  18.645  33.617   3.294
17557W        W76818  28.012  22.558  13.859
17558W        W76819   3.772  39.375  11.467
17559W        W76820  33.931  34.965  14.811
17560W        W76821   6.198   5.359  10.465
17561W        W76822  33.428  25.692  13.545
17562W        W76823  41.506  43.784   0.403
17563W        W76824  21.652   2.932  13.504
17564W        W76825  20.667  20.125   1.751
17565W        W76826  36.577  17.104  12.573
17566W        W76827  21.034  39.505   2.887
17567W        W76828  40.333  44.289  10.510
17568W        W76829  44.907  41.515   4.684
17569W        W76830  28.165   0.283  13.888
17570W        W76831  43.845   5.344   0.304
17571W        W76832  12.275   8.377  13.923
17572W        W76833  33.075  36.351   2.398
17573W        W76834  26.057   5.409   4.715
17574W        W76835  23.491  11.326  13.437
17575W        W76836   6.920  34.585  14.371
17576W        W76837  25.046  34.576  10.926
17577W        W76838  30.127  14.186  12.393
17578W        W76839  40.936  13.833   2.785
17579W        W76840  21.689   2.890   1.228
17580W        W76841   6.233  32.554  12.380
17581W        W76842   1.786  27.585   2.848
17582W        W76843  39.841  23.209   0.963
17583W        W76844   2.440  10.308  12.992
17584W        W76845  26.492   0.768  12.421
17585W        W76846   4.873  40.537   5.164
17586W        W76847  34.993  26.131   1.408
17587W        W76848  30.930  35.053  10.925
17588W        W76849   0.853   7.897  12.069
17589W        W76850   8.800   7.764   2.372
17590W        W76851  17.767  37.980  12.425
17591W        W76852  28.586  18.788   1.811
17592W        W76853   9.329  44.266   3.274
17593W        W76854  10.791  26.179   2.245
17594W        W76855  12.611  12.233   4.750
17595W        W76856   2.965  19.047  14.418
17596W        W76857   9.714  38.373  12.919
17597W        W76858   8.348  22.239   2.333
17598W        W76859  28.958  11.763   4.303
17599W        W76860  34.909   7.795   1.348
17600W        W76861  40.848   8.659  11.992
17601W        W76862  16.742  33.083  10.893
17602W        W76863   1.290  20.150   1.921
17603W        W76864  35.557  21.739  14.852
17604W        W76865  23.716   1.896   3.797
17605W        W76866  42.862  38.382  12.578
17606W        W76867  22.553  32.905  10.502
17607W        W76868  13.313  31.505  12.421
17608W        W76869   0.360  22.141  13.026
17609W        W76870  15.659  13.825   0.334
17610W        W76871   6.364  35.574  11.971
17611W        W76872  24.992  10.237   4.120
17612W        W76873  44.794  31.086   0.452
17613W        W76874  14.770  30.526   0.909
17614W        W76875  14.779  10.682   3.757
17615W        W76876  22.570  22.169   1.306
17616W        W76877  38.873   5.771   0.864
17617W        W76878  33.085   7.339  12.998
17618W        W76879   9.324  42.488  12.571
17619W        W76880  37.969   7.389  12.087
17620W        W76881  23.527  30.532  10.933
17621W        W76882  25.972  37.375  11.567
17622W        W76883  40.352  43.421   1.442
17623W        W76884   8.177  28.046  12.850
17624W        W76885  26.053  30.981   3.150
17625W        W76886  35.929  18.275  12.851
17626W        W76887  10.217  32.108   1.821
17627W        W76888  25.613  35.522   2.850
17628W        W76889  40.957   4.879  12.897
17629W        W76890   7.678   7.813  10.932
17630W        W76891   1.343  37.836   3.745
17631W        W76892  16.573  12.820  11.416
17632W        W76893   6.883  40.929   2.718
17633W        W76894  27.540  27.048   3.692
17634W        W76895  12.849   9.780   2.825
17635W        W76896  27.954  31.033   3.173
17636W        W76897  15.322  28.134   0.291
17637W        W76898  26.002  10.873  12.835
17638W        W76899  17.781  31.002   0.406
17639W        W76900  38.465  40.849  14.851
17640W        W76901  25.563  30.151  12.054
17641W        W76902  20.601   4.877  11.901
17642W        W76903  14.799  33.948  13.802
17643W        W76904  18.186  38.458   3.681
17644W        W76905  31.036  34.912   0.741
17645W        W76906  30.604  18.126  13.836
17646W        W76907  13.794   5.331  13.925
17647W        W76908  37.465  32.094  14.364
17648W        W76909  33.471  19.054  10.514
17649W        W76910  38.474  33.626  12.559
17650W        W76911  44.847  29.495   3.665
17651W        W76912  22.155  14.105   5.127
17652W        W76913  40.339  31.403  11.494
17653W        W76914  24.995  16.794   2.347
17654W        W76915  17.304  42.429   3.671
17655W        W76916  36.053  27.966  10.510
17656W        W76917  26.611  41.428  14.288
17657W        W76918  31.433  34.029  11.875
17658W        W76919  44.801  44.842   2.734
17659W        W76920  18.697  35.416  10.426
17660W        W76921   5.723  40.854  14.994
17661W        W76922  15.687  42.483  13.457
17662W        W76923  25.128  29.156  12.518
17663W        W76924  43.468  39.051  10.521
17664W        W76925  27.470   5.238   3.672
17665W        W76926  14.772  22.108   0.246
17666W        W76927  15.189  37.514   1.777
17667W        W76928  41.501   5.197  14.497
17668W        W76929  17.781  35.943  12.564
17669W        W76930  18.749   4.267  10.610
17670W        W76931  17.577  22.191   2.884
17671W        W76932   6.347  40.535   4.285
17672W        W76933  33.611   3.924   2.320
17673W        W76934  11.863  14.622   4.673
17674W        W76935  40.017  41.315  13.879
17675W        W76936  11.631  25.186   3.200
17676W        W76937  40.883   5.697   4.253
17677W        W76938  12.303  33.463   2.795
17678W        W76939  17.160   4.405   1.786
17679W        W76940  24.979   2.294  10.911
17680W        W76941   6.688  43.457  12.384
17681W        W76942  26.974  14.292   0.960
17682W        W76943   3.886   3.369   3.824
17683W        W76944  20.151  32.571   4.184
17684W        W76945  42.288  38.381  10.517
17685W        W76946  24.597   4.911  13.533
17686W        W76947  20.273   2.439  14.352
17687W        W76948   8.771  43.334   4.751
17688W        W76949   2.445   8.361  11.403
17689W        W76950  28.634  44.332   2.841
17690W        W76951  41.503  17.763  14.438
17691W        W76952  44.822  24.110  11.977
17692W        W76953   5.718  30.474  11.877
17693W        W76954  24.532  37.840  13.500
17694W        W76955   4.772  17.606   1.732
17695W        W76956  36.950  14.633   1.739
17696W        W76957  14.695  35.879  12.426
17697W        W76958   2.933  29.065   4.154
17698W        W76959   8.283   0.360   1.780
17699W        W76960  41.858   7.858  14.466
17700W        W76961  41.359  10.815   3.687
17701W        W76962  44.847  24.698  12.347
17702W        W76963   3.231  29.659   2.383
17703W        W76964  24.106   7.364  14.005
17704W        W76965  37.391   7.301   1.793
17705W        W76966  44.392  22.228  14.488
17706W        W76967  24.068  28.043  14.007
17707W        W76968  21.138  11.213   0.887
17708W        W76969  42.398  16.796   2.287
17709W        W76970   7.191  25.176   3.387
17710W        W76971  38.548  35.008   2.784
17711W        W76972  22.101  23.532  14.026
17712W        W76973  15.794  36.366  10.442
17713W        W76974  32.504   5.435   1.341
17714W        W76975  31.957  19.210   2.293
17715W        W76976  16.578   7.250  10.513
17716W        W76977  31.640  32.918   4.229
17717W        W76978   3.295  17.121   1.236
17718W        W76979  43.291  26.585  13.866
17719W        W76980  35.916  11.645  11.081
17720W        W76981  29.486  20.101  13.938
17721W        W76982  35.542   4.436  11.062
17722W        W76983   3.902  13.640  11.481
17723W        W76984  27.104  32.411  12.955
17724W        W76985  34.551   4.774   3.166
17725W        W76986   5.431  11.855  10.515
17726W        W76987   3.762  23.062  13.958
17727W        W76988  14.327   8.752   2.283
17728W        W76989   6.283  26.971   4.251
17729W        W76990  31.583  41.432   2.314
17730W        W76991  15.224  12.139   4.267
17731W        W76992  35.601  15.819   1.414
17732W        W76993  16.740  26.696   4.741
17733W        W76994   8.668  14.638  11.043
17734W        W76995  29.011   3.903   1.704
17735W        W76996  12.147  42.800  11.111
17736W        W76997  30.045   0.949  12.517
17737W        W76998  23.516  35.993   1.715
17738W        W76999  16.173  10.635   0.961
17739W        W77000  32.478  13.173  14.936
17740W        W77001  21.576  44.455   4.828
17741W        W77002  43.824  13.783  14.850
17742W        W77003  32.012   6.889   4.704
17743W        W77004  28.151  35.981   4.159
17744W        W77005  39.441  28.629  12.825
17745W        W77006  29.477  35.383   0.827
17746W        W77007  29.097  31.451  14.932
17747W        W77008   7.397  10.261  14.020
17748W        W77009   4.276  40.509  10.981
17749W        W77010  31.972  25.139  13.448
17750W        W77011  23.075  32.904   3.702
17751W        W77012   4.402  37.891  13.337
17752W        W77013   1.277  36.845  13.480
17753W        W77014   3.746   9.708  12.827
17754W        W77015   8.864  23.532   1.819
17755W        W77016   8.394   0.254   2.858
17756W        W77017  34.604   7.378   4.263
17757W        W77018  43.967  20.070   2.226
17758W        W77019   1.391  37.846  13.915
17759W        W77020  10.794  26.662  12.849
17760W        W77021  42.963   8.173  10.617
17761W        W77022  42.007   0.783  13.966
17762W        W77023   5.715   7.384   2.253
17763W        W77024  34.493  24.561   2.353
17764W        W77025  30.955   5.838   2.870
17765W        W77026   9.203  34.514   2.732
17766W        W77027  15.231  35.972  11.609
17767W        W77028   6.273  44.975   2.835
17768W        W77029  32.920   0.760  11.443
17769W        W77030  25.017  44.999  11.539
17770W        W77031  13.628  21.102  11.962
17771W        W77032  14.285  19.751  11.524
17772W        W77033  19.147   9.668  10.960
17773W        W77034  42.459  38.909   3.658
17774W        W77035   3.412  23.012  11.064
17775W        W77036   6.705  40.493  13.512
17776W        W77037  16.674  26.495   2.778
17777W        W77038  37.886  42.840  11.090
17778W        W77039   9.326  26.625   2.325
17779W        W77040  28.672   0.918   0.894
17780W        W77041  23.148   3.724  13.908
17781W        W77042  13.631  25.556   3.323
17782W        W77043  10.691  38.952   0.389
17783W        W77044  33.037  10.799   4.756
17784W        W77045  31.145  24.518  11.961
17785W        W77046  43.014  35.528   2.754
17786W        W77047   2.249  11.771   4.140
17787W        W77048  22.708  22.589   3.147
17788W        W77049   4.934   4.442   3.716
17789W        W77050  15.246   7.259   2.679
17790W        W77051  38.436  14.253  11.494
17791W        W77052  13.337  42.945   2.715
17792W        W77053  22.669  24.096   2.881
17793W        W77054   5.412  40.521  14.512
17794W        W77055   5.792  22.241  13.909
17795W        W77056  41.404  19.666   2.288
17796W        W77057  22.069  42.854  11.898
17797W        W77058  41.345  30.433  11.926
17798W        W77059  13.724  18.706  11.013
17799W        W77060   3.754  22.230  13.824
17800W        W77061  32.999  40.427  14.976
17801W        W77062  22.204  15.148   4.706
17802W        W77063  31.409  15.240   2.192
17803W        W77064  14.131  28.971   1.337
17804W        W77065  10.283  30.975   0.400
17805W        W77066  21.036  10.786  12.487
17806W        W77067  43.439  34.379  10.979
17807W        W77068   4.391  40.025  14.483
17808W        W77069  29.504  11.164  10.527
17809W        W77070  41.975  13.841   1.714
17810W        W77071  37.888  33.459  10.590
17811W        W77072  29.921   4.759   3.821
17812W        W77073  39.899   0.966   2.675
17813W        W77074  38.989  39.460   5.770
17814W        W77075  40.968  14.818   2.726
17815W        W77076  36.351   8.734   2.331
17816W        W77077  28.088  36.456  14.400
17817W        W77078   4.270  16.811  14.490
17818W        W77079   9.890  20.712   4.694
17819W        W77080   2.967  30.991   1.870
17820W        W77081  32.970   1.846   0.738
17821W        W77082  27.127  41.869  13.438
17822W        W77083  41.311  29.024   4.297
17823W        W77084   8.396   9.151  10.443
17824W        W77085  16.233  19.768  11.006
17825W        W77086  16.312  23.015  12.489
17826W        W77087  37.435  11.765   3.341
17827W        W77088  37.837   1.367  12.390
17828W        W77089   3.753  44.276  12.431
17829W        W77090   8.204  15.720  10.920
17830W        W77091  27.498  34.963   1.878
17831W        W77092   2.745   8.260   9.994
17832W        W77093   8.218  16.577   2.900
17833W        W77094  33.891  40.396  13.015
17834W        W77095  11.818  14.754   0.805
17835W        W77096  17.773  32.516   2.860
17836W        W77097  29.999  40.335  12.087
17837W        W77098  22.518   4.365  12.392
17838W        W77099  26.684  32.393  11.051
17839W        W77100   6.315  26.991   2.298
17840W        W77101  43.369  37.080  11.950
17841W        W77102  17.674   0.948   3.641
17842W        W77103   4.370  39.833   1.336
17843W        W77104  19.568  33.477  12.455
17844W        W77105  29.505  34.986  12.857
17845W        W77106  43.966   8.677   0.396
17846W        W77107  24.654  27.469  10.532
17847W        W77108  12.723  31.639   3.671
17848W        W77109   8.276  17.104   1.311
17849W        W77110  28.035  22.594   3.812
17850W        W77111   7.348  36.426  12.516
17851W        W77112   4.338  17.657  14.832
17852W        W77113  29.590  19.672   2.884
17853W        W77114   9.881  23.996  14.939
17854W        W77115  29.473  37.560   1.280
17855W        W77116  35.869  20.574   3.363
17856W        W77117  11.654  42.850  10.554
17857W        W77118  11.164  32.129  10.927
17858W        W77119  28.526  23.603  12.910
17859W        W77120  28.976  30.128   1.423
17860W        W77121   2.893  31.646  10.451
17861W        W77122  25.065   2.237  13.493
17862W        W77123  36.933   3.309   2.848
17863W        W77124   4.762   1.313   0.371
17864W        W77125  33.620  18.564  12.394
17865W        W77126  31.904  17.250   5.107
17866W        W77127   8.749  24.539  12.852
17867W        W77128  44.384   4.268   2.901
17868W        W77129  26.020  12.269   4.771
17869W        W77130   4.880  39.960   2.378
17870W        W77131  33.436  42.520   1.721
17871W        W77132  42.877  32.046   3.697
17872W        W77133  12.661  34.408  10.961
17873W        W77134  17.162  44.415   2.335
17874W        W77135  38.033  36.973   0.347
17875W        W77136  23.505  28.668  13.806
17876W        W77137  23.630  14.254   3.318
17877W        W77138  16.304   7.216   2.857
17878W        W77139  16.228   6.220   4.279
17879W        W77140  40.358  29.158   3.236
17880W        W77141  18.588  27.651   3.182
17881W        W77142  10.755   4.755   2.831
17882W        W77143  17.146  27.088  10.066
17883W        W77144  28.168  38.548  10.111
17884W        W77145   5.706  25.102  13.021
17885W        W77146  40.329  41.426   4.835
17886W        W77147  28.517  14.154   3.206
17887W        W77148  18.628  27.567   2.354
17888W        W77149  33.459  30.048  13.534
17889W        W77150   6.395  16.597   4.198
17890W        W77151  37.874  11.698  14.934
17891W        W77152   9.171  38.965  13.371
17892W        W77153   9.394  40.047  14.415
17893W        W77154  24.174   8.850  13.982
17894W        W77155   9.371   7.194   1.716
17895W        W77156   9.311  38.413  11.571
17896W        W77157  25.585  17.091  10.560
17897W        W77158  33.041  24.059   2.244
17898W        W77159  14.683  39.965  11.016
17899W        W77160  42.874   8.338  13.534
17900W        W77161  30.162  22.707   3.694
17901W        W77162  29.445  10.384   1.403
17902W        W77163  34.874  33.881  13.916
17903W        W77164   7.258  31.627  11.913
17904W        W77165  12.333  26.157   2.197
17905W        W77166  20.653  19.242  10.445
17906W        W77167  44.470  21.520  10.153
17907W        W77168  26.607  18.568   4.788
17908W        W77169  36.487  29.062   1.920
17909W        W77170  24.214  19.040  12.875
17910W        W77171   5.717  24.678   3.810
17911W        W77172  17.272   2.297   1.834
17912W        W77173  10.381  12.323   4.620
17913W        W77174  27.111   0.834  12.922
17914W        W77175  30.161  27.197   2.294
17915W        W77176  19.707  44.460  11.858
17916W        W77177  18.705  37.434   0.385
17917W        W77178   7.203  28.150  11.110
17918W        W77179   9.752  33.066   0.403
17919W        W77180  43.483  28.579   4.746
17920W        W77181  37.448  11.662  12.009
17921W        W77182  11.333   9.353  11.609
17922W        W77183   7.330  38.835   0.786
17923W        W77184  17.090  44.429  13.436
17924W        W77185  32.428  13.672   2.388
17925W        W77186  31.948   0.393  11.990
17926W        W77187  35.537  16.739   3.747
17927W        W77188   9.743  42.847  10.978
17928W        W77189  27.507  38.922  11.068
17929W        W77190  44.839  15.754  13.855
17930W        W77191  28.041   5.880   3.156
17931W        W77192  19.215   5.717  10.979
17932W        W77193   8.270  28.487  13.399
17933W        W77194  30.456  15.264   0.446
17934W        W77195  25.152   9.830  12.948
17935W        W77196   0.766   3.237  13.063
17936W        W77197  12.632  16.714  11.608
17937W        W77198  12.187  25.010  12.406
17938W        W77199  35.854   5.303   3.206
17939W        W77200  37.049  21.196   1.728
17940W        W77201  44.927  20.129  12.471
17941W        W77202  12.792  18.290  11.530
17942W        W77203  27.187  36.384   2.340
17943W        W77204  35.570  19.124   0.802
17944W        W77205  30.618  23.031  11.526
17945W        W77206   1.304  41.967  14.971
17946W        W77207  21.151   5.238   0.302
17947W        W77208   3.815  33.085  10.575
17948W        W77209  28.634   4.771   1.323
17949W        W77210   8.201  28.115  12.353
17950W        W77211  23.705  17.136   0.912
17951W        W77212  24.078   5.744  14.386
17952W        W77213  40.020  25.496   1.748
17953W        W77214  32.906  12.148  11.944
17954W        W77215  17.601  40.861  14.998
17955W        W77216  30.143  35.602   0.758
17956W        W77217   0.301  39.990  12.865
17957W        W77218  12.829  25.577   2.227
17958W        W77219  29.604  35.939  14.803
17959W        W77220  16.608   8.198  14.330
17960W        W77221  38.059  28.966   3.352
17961W        W77222  35.976  21.124   1.713
17962W        W77223   8.220  39.422  14.498
17963W        W77224   9.313  10.175  14.343
17964W        W77225   5.749  20.640  13.930
17965W        W77226  34.896  36.400   4.347
17966W        W77227   5.229   4.878   2.761
17967W        W77228  38.838  27.623  11.990
17968W        W77229   0.327  26.539  14.483
17969W        W77230   4.826  24.483  13.010
17970W        W77231  13.777  31.473  12.891
17971W        W77232  38.345   5.410   4.674
17972W        W77233  35.510   2.908   1.313
17973W        W77234   5.838  17.132   2.329
17974W        W77235  12.640   2.256  13.875
17975W        W77236  18.547  15.668   4.294
17976W        W77237  13.129  15.758  10.946
17977W        W77238  16.305  12.739   1.843
17978W        W77239  23.629   7.712   3.710
17979W        W77240  28.014  15.741   2.790
17980W        W77241  36.042   8.751  11.556
17981W        W77242  14.302   4.315  10.956
17982W        W77243  38.016  40.018   3.317
17983W        W77244  28.569   2.444  12.547
17984W        W77245  30.509   6.892   1.292
17985W        W77246  35.554  20.274   0.331
17986W        W77247  34.444  37.014  13.910
17987W        W77248  21.517  22.706   2.364
17988W        W77249   9.885  24.546   1.335
17989W        W77250   3.775  14.751   1.895
17990W        W77251  19.183  43.280   0.328
17991W        W77252   5.374   1.468  12.006
17992W        W77253   0.988  26.016  11.396
17993W        W77254  26.067  23.031   0.260
17994W        W77255   1.916   4.425   3.221
17995W        W77256  44.439  42.927   4.214
17996W        W77257  37.511  35.042   0.426
17997W        W77258  33.046  35.396   3.683
17998W        W77259  44.964   7.408  12.460
17999W        W77260  19.668  26.610  14.832
18000W        W77261  24.208  42.425   2.684
18001W        W77262  27.672   8.737   4.169
18002W        W77263  10.707  22.197   2.392
18003W        W77264  13.757   0.835   4.836
18004W        W77265  14.650  42.853   2.898
18005W        W77266  31.483  21.218  13.810
18006W        W77267  43.015  27.477   3.295
18007W        W77268  19.722  36.032  12.965
18008W        W77269  35.496   7.865   2.209
18009W        W77270   4.851   3.306  14.918
18010W        W77271   3.922  11.662  11.572
18011W        W77272   5.707  35.072   2.342
18012W        W77273  30.159  17.298   4.270
18013W        W77274  38.343   9.717   1.908
18014W        W77275  35.950  38.893   2.330
18015W        W77276  16.095  30.570   4.264
18016W        W77277  24.046  20.079  14.806
18017W        W77278  20.068  10.267   1.720
18018W        W77279  32.580  38.396   3.266
18019W        W77280   6.328  25.594   0.361
18020W        W77281  13.708  28.091   1.773
18021W        W77282  24.179  38.831  12.072
18022W        W77283   9.232   2.742  13.843
18023W        W77284  14.761  22.166  11.860
18024W        W77285  28.077  33.558   1.772
18025W        W77286  33.092   2.787   3.335
18026W        W77287  26.596  28.085   1.694
18027W        W77288   8.391  23.499   3.773
18028W        W77289  26.484   8.274  10.595
18029W        W77290  37.029  41.032   1.321
18030W        W77291  33.446  19.606   1.902
18031W        W77292  29.662  40.803  10.567
18032W        W77293   0.482  36.406   3.816
18033W        W77294  12.856  42.955  14.494
18034W        W77295  25.684   5.380   0.813
18035W        W77296  24.548  11.254  13.865
18036W        W77297  40.049  36.446   3.851
18037W        W77298  13.600  12.139  13.495
18038W        W77299  16.160  35.086   2.868
18039W        W77300  17.646  39.913   3.305
18040W        W77301  28.124  39.551  12.540
18041W        W77302  21.613  29.105  12.458
18042W        W77303  33.116  36.084  12.871
18043W        W77304  22.178  42.469   4.296
18044W        W77305   7.180   7.203   4.775
18045W        W77306  41.880  24.495  13.963
18046W        W77307  41.475  27.101   2.669
18047W        W77308  14.121  18.058  13.455
18048W        W77309  35.375  14.315  14.796
18049W        W77310  31.610  30.465   2.875
18050W        W77311  28.145  44.383  10.072
18051W        W77312   7.404  28.095  14.026
18052W        W77313  14.232  18.776   0.811
18053W        W77314  17.598   9.730   3.323
18054W        W77315  13.307  18.726  13.503
18055W        W77316  39.503   8.874   2.324
18056W        W77317   2.333  38.043   4.183
18057W        W77318  39.873   2.416   3.729
18058W        W77319  13.712  40.854   1.369
18059W        W77320   6.253  10.757  13.918
18060W        W77321  10.836  31.083   4.145
18061W        W77322  34.443  42.415   0.392
18062W        W77323  41.787   6.210   3.774
18063W        W77324  17.632  43.344  14.897
18064W        W77325  25.057  24.973  11.885
18065W        W77326  24.048   1.804  13.856
18066W        W77327  17.695  35.369   1.316
18067W        W77328  14.659  36.434   1.794
18068W        W77329   3.737  18.220   1.889
18069W        W77330  33.057  31.420  14.467
18070W        W77331  32.917  28.034   1.298
18071W        W77332  38.342  10.303  12.881
18072W        W77333  14.670  30.058  10.600
18073W        W77334   3.365  14.149  11.115
18074W        W77335  33.044   9.717  13.023
18075W        W77336  14.753  23.090   2.800
18076W        W77337  12.232  21.585   2.739
18077W        W77338  32.538  17.158   1.728
18078W        W77339  29.027  35.436   1.445
18079W        W77340  25.572  19.770   5.254
18080W        W77341   2.329  16.095  12.862
18081W        W77342  41.933  19.779   0.949
18082W        W77343  28.107   3.347  12.004
18083W        W77344  29.489   3.369  14.893
18084W        W77345  25.595  37.922   0.791
18085W        W77346  36.071  37.948   0.375
18086W        W77347  11.694  19.161  12.561
18087W        W77348  31.138   0.315   1.777
18088W        W77349  17.581  19.170  13.499
18089W        W77350   6.715  40.529  13.956
18090W        W77351  25.550  10.649  10.623
18091W        W77352  35.575  32.900   3.869
18092W        W77353   6.237  18.117   2.759
18093W        W77354  22.224  35.989   0.250
18094W        W77355  18.274  22.582  10.958
18095W        W77356  37.843  42.404  12.350
18096W        W77357  31.918  24.198  13.479
18097W        W77358  15.104  17.165   4.664
18098W        W77359  12.686  25.633   1.777
18099W        W77360  28.476  29.051   3.837
18100W        W77361  31.612  41.011  14.413
18101W        W77362  20.532   5.268  10.951
18102W        W77363   5.766   7.305   4.626
18103W        W77364  16.306  33.410   1.282
18104W        W77365   0.360  14.617  13.365
18105W        W77366   5.330  16.649   4.337
18106W        W77367  17.566  24.083  13.481
18107W        W77368   2.726  26.544  13.528
18108W        W77369  29.957  12.651  11.568
18109W        W77370  41.500   0.269   2.762
18110W        W77371  44.798  11.360  12.062
18111W        W77372  44.775  15.121  13.366
18112W        W77373  12.615  18.092   3.237
18113W        W77374  36.005  25.660  13.799
18114W        W77375  41.843   6.253  14.374
18115W        W77376  17.762  28.566  13.898
18116W        W77377  23.108   5.846  12.931
18117W        W77378  10.795  19.103   3.239
18118W        W77379  21.098   1.881   0.459
18119W        W77380   2.407  26.087  12.387
18120W        W77381  24.198  27.576   3.662
18121W        W77382   7.319  34.873  14.420
18122W        W77383  20.229  12.746  12.844
18123W        W77384  28.459  28.590  11.924
18124W        W77385  44.283  28.976  10.455
18125W        W77386   6.358  30.927  14.294
18126W        W77387  29.471  25.601   4.738
18127W        W77388  25.621   5.299   1.873
18128W        W77389  12.798  30.111   3.237
18129W        W77390  33.918  18.186   3.735
18130W        W77391  29.124  15.693  13.989
18131W        W77392   9.648   6.386  10.067
18132W        W77393   0.761   8.317   0.483
18133W        W77394  39.390  23.668  11.979
18134W        W77395  32.526  29.635   3.742
18135W        W77396   3.406  22.175  12.351
18136W        W77397  25.969  25.695  11.863
18137W        W77398  38.341   5.849   2.418
18138W        W77399   5.837  13.208  13.358
18139W        W77400  43.453  29.434   0.959
18140W        W77401   8.755   1.245   1.795
18141W        W77402  23.019  28.575   2.392
18142W        W77403  31.067  38.517  11.029
18143W        W77404  41.813   6.779  10.548
18144W        W77405  39.977  37.867   4.199
18145W        W77406  13.821  17.704   2.413
18146W        W77407   8.381  17.143   2.879
18147W        W77408  22.592  42.319   1.400
18148W        W77409  14.101  24.979   1.261
18149W        W77410   9.813  23.992  10.533
18150W        W77411   6.351  24.989   4.227
18151W        W77412  19.686  44.414  10.569
18152W        W77413  40.436  37.995  12.045
18153W        W77414  38.491  14.599  10.520
18154W        W77415  24.540  28.672  14.961
18155W        W77416  36.357  22.213  12.471
18156W        W77417  41.982   4.891   4.293
18157W        W77418   0.792  37.369   5.109
18158W        W77419  24.008  30.134   2.400
18159W        W77420   4.786  40.479  12.391
18160W        W77421  42.503  14.627   0.744
18161W        W77422  16.756  38.999   0.360
18162W        W77423   4.320   3.278  14.962
18163W        W77424   4.886  36.434  14.852
18164W        W77425  17.713  14.693  13.041
18165W        W77426   8.842   9.746  12.388
18166W        W77427  10.652   9.227   4.822
18167W        W77428  43.936   6.827   2.419
18168W        W77429  16.072  27.952   3.677
18169W        W77430   7.820  35.906   4.697
18170W        W77431   4.746  35.035   4.804
18171W        W77432  26.014  22.052  14.396
18172W        W77433   1.326  40.905  11.531
18173W        W77434  20.260   7.699   3.154
18174W        W77435   0.341   2.464   2.866
18175W        W77436   1.829  13.726  12.042
18176W        W77437  34.468  37.973   4.619
18177W        W77438  31.910  31.584  11.111
18178W        W77439  29.045  19.219  13.999
18179W        W77440   1.288  18.268   2.210
18180W        W77441  31.475  10.215   2.345
18181W        W77442   6.827  38.946   1.269
18182W        W77443  40.895  35.050   0.267
18183W        W77444  10.146  13.638   3.153
18184W        W77445   8.402  27.191  14.972
18185W        W77446  36.411  11.296   2.815
18186W        W77447   8.322   6.252   2.830
18187W        W77448  11.734  24.666  11.610
18188W        W77449  21.746   7.699  12.087
18189W        W77450  13.819  28.462   3.700
18190W        W77451  28.029  15.175   0.850
18191W        W77452  38.928  17.268  14.973
18192W        W77453   6.375  41.303   1.449
18193W        W77454   0.287  11.816   4.825
18194W        W77455   7.312  30.642   2.813
18195W        W77456  21.237  25.129  11.470
18196W        W77457  38.959  32.929   2.692
18197W        W77458  39.887  14.706   1.831
18198W        W77459  38.391  27.475  13.031
18199W        W77460   6.869  41.848   1.315
18200W        W77461  31.916  15.696  14.367
18201W        W77462  35.082   3.847   2.251
18202W        W77463  29.037  40.020   2.830
18203W        W77464  31.131  27.069  12.364
18204W        W77465  27.157   6.849  14.464
18205W        W77466  34.573  25.095   5.271
18206W        W77467  34.380  26.457  13.522
18207W        W77468  30.575  14.830  13.923
18208W        W77469  20.032  17.271  11.031
18209W        W77470  42.286   5.369  14.898
18210W        W77471   1.890  34.961   0.247
18211W        W77472  37.942  22.559  12.086
18212W        W77473  16.315  27.968  11.579
18213W        W77474   1.305  39.537  14.963
18214W        W77475  37.369  43.371   3.240
18215W        W77476   6.224  40.932   0.766
18216W        W77477  15.621  16.298  12.925
18217W        W77478  15.740   4.933  10.556
18218W        W77479  41.996  25.099  11.958
18219W        W77480  40.930   8.871  14.891
18220W        W77481  24.125  23.711   4.347
18221W        W77482  31.577  19.129   4.627
18222W        W77483  24.996  17.754   3.251
18223W        W77484  10.209   2.863  13.982
18224W        W77485  44.842  18.561  10.495
18225W        W77486  31.918  24.495  14.357
18226W        W77487  13.645  12.117  14.328
18227W        W77488  36.047  35.036  13.908
18228W        W77489  32.555  10.272   9.546
18229W        W77490   2.327  44.992  10.963
18230W        W77491  18.564  35.990   0.349
18231W        W77492  32.590  13.219   1.767
18232W        W77493  42.829  29.574  10.421
18233W        W77494  42.491  21.737  13.343
18234W        W77495  41.947  17.133   3.634
18235W        W77496  26.671  16.202   1.388
18236W        W77497  24.079   1.974   1.876
18237W        W77498  39.986  28.031  13.343
18238W        W77499  37.442  14.106   5.104
18239W        W77500   6.293  36.934  10.636
18240W        W77501  14.296  27.451   3.646
18241W        W77502  28.155  43.481   4.736
18242W        W77503  24.210  24.031  12.348
18243W        W77504   0.330  32.583  14.950
18244W        W77505  15.149  34.937   3.710
18245W        W77506  41.979  13.121  11.375
18246W        W77507  40.993  34.554   3.210
18247W        W77508   2.740  24.643  11.855
18248W        W77509  11.710   8.297   0.481
18249W        W77510  28.515   6.374   4.119
18250W        W77511   4.240  12.297   0.469
18251W        W77512  25.145  29.130   1.318
18252W        W77513  22.721  38.530  14.466
18253W        W77514  36.055  19.231  12.975
18254W        W77515  34.501  42.378   1.239
18255W        W77516   8.657  10.724  10.469
18256W        W77517  24.703  25.566  10.026
18257W        W77518   7.373  15.084   3.212
18258W        W77519   5.768  14.149   4.330
18259W        W77520  22.700  19.047  12.434
18260W        W77521  34.023  13.674  11.541
18261W        W77522   0.389   3.333   2.695
18262W        W77523  10.715  44.760  14.762
18263W        W77524  26.660   0.398  13.806
18264W        W77525   1.878  32.425  11.061
18265W        W77526   9.658  36.426  12.514
18266W        W77527  42.523  18.735   0.297
18267W        W77528  31.413   6.841   3.266
18268W        W77529  17.139  32.975   4.122
18269W        W77530  40.420  18.117   0.796
18270W        W77531  42.369   9.286  12.039
18271W        W77532  38.476   1.384  13.879
18272W        W77533  34.866  32.142   3.360
18273W        W77534   1.946   8.166  12.836
18274W        W77535  12.764   9.261  12.066
18275W        W77536   5.413  34.454   1.333
18276W        W77537  33.926  12.790  13.522
18277W        W77538  14.785  12.820   3.376
18278W        W77539  40.055  24.508   1.888
18279W        W77540   0.823  18.210  14.430
18280W        W77541  42.444  15.262  12.012
18281W        W77542   8.773   3.763  10.560
18282W        W77543  13.812  21.042   4.136
18283W        W77544  16.581  14.306  13.958
18284W        W77545  10.660  19.623   2.211
18285W        W77546   9.238  13.606  12.431
18286W        W77547  31.072  29.085   4.316
18287W        W77548   1.263   2.847   3.180
18288W        W77549  23.730   3.409   3.642
18289W        W77550   5.238  22.736   3.256
18290W        W77551  32.506  11.808   1.219
18291W        W77552  13.804  31.981   4.294
18292W        W77553  40.877  35.030  13.394
18293W        W77554  15.270   8.217  11.043
18294W        W77555  32.114  27.576   0.282
18295W        W77556  44.938   3.351   2.754
18296W        W77557  35.379  26.061   0.840
18297W        W77558  34.487   2.419  14.930
18298W        W77559  23.621  14.619   3.746
18299W        W77560  28.138  11.202   0.425
18300W        W77561   0.762   6.879  11.434
18301W        W77562  35.858  41.495  13.973
18302W        W77563   2.925   9.283  12.975
18303W        W77564  12.345  26.510   0.916
18304W        W77565  22.132  31.411  10.475
18305W        W77566  37.863  28.656   3.651
18306W        W77567  36.061  35.077  10.141
18307W        W77568   5.902  25.698  14.395
18308W        W77569  39.489  14.295   5.141
18309W        W77570   9.301  37.991   2.791
18310W        W77571  10.238  30.440   9.937
18311W        W77572  30.152  33.527   0.735
18312W        W77573   0.344  21.124   1.810
18313W        W77574  20.700  23.643  14.831
18314W        W77575  29.492  40.426  13.937
18315W        W77576  44.286  12.121   4.759
18316W        W77577  14.179  12.699   0.895
18317W        W77578   9.826  41.008  13.407
18318W        W77579  12.170  33.483  14.797
18319W        W77580  26.490  40.915  13.928
18320W        W77581  25.965   8.306   2.773
18321W        W77582  19.766  31.487   2.818
18322W        W77583  20.564  25.525   3.366
18323W        W77584  20.141  42.467   2.769
18324W        W77585  21.663  30.113  13.956
18325W        W77586  33.606  30.518  14.997
18326W        W77587  17.579  29.514  13.052
18327W        W77588  12.219  24.980  13.841
18328W        W77589  17.667  32.404  10.429
18329W        W77590  16.645   7.685   4.664
18330W        W77591  24.551  24.638  14.413
18331W        W77592  35.899   3.364   1.314
18332W        W77593  32.517  17.571   2.283
18333W        W77594  18.724  24.059   3.258
18334W        W77595   0.777  14.179   2.322
18335W        W77596  32.016  36.980  12.546
18336W        W77597  41.800  14.152   2.687
18337W        W77598  23.995   5.398   4.199
18338W        W77599  16.173  18.285  14.482
18339W        W77600  33.474  41.831   0.392
18340W        W77601  36.908   8.295  10.645
18341W        W77602  21.184  43.919  14.884
18342W        W77603   5.243  34.982  12.484
18343W        W77604  13.211  13.776  10.442
18344W        W77605  34.970  23.111  11.040
18345W        W77606  33.403  22.168  13.343
18346W        W77607  16.103  43.005   1.915
18347W        W77608  32.571   8.385   1.314
18348W        W77609   2.251  37.535   4.630
18349W        W77610  42.930  42.791  10.618
18350W        W77611  14.131  36.501  14.760
18351W        W77612  27.581  22.698  14.771
18352W        W77613   2.787  13.181   2.323
18353W        W77614  34.528  13.163   5.176
18354W        W77615  15.122  38.375   2.891
18355W        W77616  16.176  18.645   2.193
18356W        W77617  11.785  19.775  10.536
18357W        W77618  16.129  44.776   0.370
18358W        W77619  15.774  13.199   3.689
18359W        W77620   2.299  42.881  14.340
18360W        W77621  20.225   2.252   1.763
18361W        W77622  33.490  42.501  12.838
18362W        W77623  40.809  36.465  12.994
18363W        W77624  29.029  23.027  13.930
18364W        W77625  17.244  19.232  13.543
18365W        W77626  13.671  15.240  14.865
18366W        W77627  31.010  40.388   4.309
18367W        W77628  40.495  20.040  14.382
18368W        W77629   2.888  26.079   2.673
18369W        W77630  11.266  32.512  12.406
18370W        W77631  42.505  13.637  12.071
18371W        W77632  16.757  26.685   9.598
18372W        W77633  28.092  28.550  14.852
18373W        W77634  20.075  30.459   0.410
18374W        W77635   4.236  38.441  13.437
18375W        W77636  17.595  34.875  13.395
18376W        W77637  22.598  32.557   1.325
18377W        W77638  42.303  23.007  10.520
18378W        W77639  20.588  36.932   4.326
18379W        W77640   6.759  40.486  11.017
18380W        W77641   7.250  11.142   4.330
18381W        W77642  22.737  36.354   2.784
18382W        W77643  36.843   4.320  12.505
18383W        W77644  23.015  29.489  11.464
18384W        W77645  20.638  33.002   0.816
18385W        W77646  21.620   1.887   3.660
18386W        W77647  15.172  22.031   3.206
18387W        W77648   0.842  15.794   0.886
18388W        W77649  38.528  17.557   0.906
18389W        W77650  19.678  29.451   3.381
18390W        W77651  41.335   7.318   1.786
18391W        W77652  30.026  37.966  10.481
18392W        W77653  14.293  15.149   0.277
18393W        W77654   9.326   4.316   2.214
18394W        W77655  23.234   6.826   3.233
18395W        W77656  27.067  16.234  11.076
18396W        W77657  15.235  27.675  12.965
18397W        W77658   2.402   2.237   1.243
18398W        W77659  10.698  12.759   2.789
18399W        W77660  17.653  18.708  12.482
18400W        W77661   1.794  41.422   3.758
18401W        W77662  32.526  21.150  10.899
18402W        W77663  41.448   0.930   1.281
18403W        W77664  10.175  11.293  11.102
18404W        W77665  37.364  32.500   2.240
18405W        W77666  21.089  15.676   1.378
18406W        W77667  39.510  16.640  13.453
18407W        W77668   4.841  35.927  13.320
18408W        W77669  22.604  27.956  12.555
18409W        W77670  10.265  28.629  11.094
18410W        W77671  10.780  28.064  13.960
18411W        W77672  33.887  18.294  13.822
18412W        W77673  35.900   3.948  10.902
18413W        W77674  36.475   6.271  14.846
18414W        W77675  17.695  25.105   3.769
18415W        W77676  27.069  37.556   1.931
18416W        W77677  29.489  21.552  11.061
18417W        W77678  23.011  27.001  13.444
18418W        W77679  22.033  11.720   0.478
18419W        W77680  34.396  23.528  14.511
18420W        W77681  31.445  23.602  12.478
18421W        W77682  35.997  33.945   1.337
18422W        W77683  36.537  16.186  11.001
18423W        W77684  24.096   7.701   1.325
18424W        W77685  14.601  12.262   2.307
18425W        W77686  11.730  36.978   0.801
18426W        W77687  19.703   2.459  12.913
18427W        W77688   2.952  32.087   1.933
18428W        W77689   3.798  37.344   0.879
18429W        W77690  23.644  13.693   0.930
18430W        W77691  12.751  34.529   3.732
18431W        W77692  44.459  10.270   3.773
18432W        W77693  31.042   4.874  14.427
18433W        W77694  14.618  11.147   5.131
18434W        W77695  27.510  20.139  13.045
18435W        W77696   1.332  42.504  13.384
18436W        W77697   8.899  26.531  11.543
18437W        W77698  38.414   0.409  10.979
18438W        W77699   5.273  30.551   1.269
18439W        W77700  33.428  12.839   0.925
18440W        W77701   1.388  16.710  14.766
18441W        W77702   8.786  23.629  14.457
18442W        W77703  39.935  21.513   3.291
18443W        W77704  11.737   1.750   1.418
18444W        W77705   3.322  20.755  11.922
18445W        W77706   0.782  14.656  11.041
18446W        W77707  32.014  18.758  13.926
18447W        W77708  26.470   2.381   0.840
18448W        W77709   9.259  27.085  13.338
18449W        W77710  38.539   3.253   3.357
18450W        W77711  33.073   0.479  12.878
18451W        W77712  23.521  44.758   1.866
18452W        W77713   3.408   5.872  13.937
18453W        W77714  36.358  18.618   1.880
18454W        W77715  24.650  35.603  13.037
18455W        W77716  39.027  19.585  14.834
18456W        W77717  38.044  29.155  10.421
18457W        W77718  35.512  40.371   1.423
18458W        W77719   4.868  39.449  12.997
18459W        W77720  21.700  36.019   2.902
18460W        W77721  24.572  10.218  13.920
18461W        W77722  39.003  12.290  14.470
18462W        W77723  30.567  14.642  11.105
18463W        W77724  10.729  23.124   2.201
18464W        W77725  13.300   6.304   9.932
18465W        W77726  12.714  39.383   4.659
18466W        W77727  23.180   3.728  13.546
18467W        W77728  29.649  21.703  11.504
18468W        W77729  38.047  14.160  11.927
18469W        W77730  16.233  23.603   4.744
18470W        W77731  16.199  16.632  14.510
18471W        W77732  17.131  26.022  14.286
18472W        W77733   9.379  16.657  14.871
18473W        W77734  34.879  21.120  11.933
18474W        W77735  12.682  27.986  10.908
18475W        W77736  34.444  26.986  10.898
18476W        W77737  34.022  14.149  13.487
18477W        W77738  24.037  35.078   3.250
18478W        W77739  24.037  21.058  10.893
18479W        W77740  22.684  22.158  10.897
18480W        W77741  13.676  29.102  14.948
18481W        W77742  29.922  40.954  10.001
18482W        W77743  15.654  26.607  13.930
18483W        W77744  20.057   3.323  10.495
18484W        W77745  30.071   8.372  12.517
18485W        W77746  43.966  28.494   0.811
18486W        W77747  28.668  26.014  12.350
18487W        W77748  43.391  20.239  14.030
18488W        W77749   4.349  33.453   2.198
18489W        W77750  42.895   4.863   2.339
18490W        W77751  25.978  10.633  10.996
18491W        W77752  40.482  33.502   3.176
18492W        W77753   3.411  39.370   0.727
18493W        W77754  36.076   0.896  10.596
18494W        W77755  25.604  43.460  11.957
18495W        W77756  35.599  28.073  14.377
18496W        W77757   1.333   0.909  11.938
18497W        W77758  13.641   6.252  14.386
18498W        W77759   6.357  19.094   1.305
18499W        W77760   7.338  18.270  10.937
18500W        W77761  41.937  21.732  13.801
18501W        W77762   6.335  20.179  12.000
18502W        W77763   8.201   8.894  11.472
18503W        W77764  28.170  40.918   0.440
18504W        W77765   0.807  14.772   2.244
18505W        W77766  31.497   5.345  14.846
18506W        W77767  19.260  29.479  13.972
18507W        W77768  37.415  38.556  12.058
18508W        W77769  32.005   2.382   2.682
18509W        W77770  43.846  31.560  10.973
18510W        W77771  21.674  17.237   0.741
18511W        W77772  29.091  22.113  12.368
18512W        W77773   0.437  17.140   0.804
18513W        W77774  23.519  26.058   0.877
18514W        W77775  40.381  39.843  12.390
18515W        W77776  36.506   1.272   4.287
18516W        W77777  12.361  42.832  10.430
18517W        W77778  38.828   1.904  14.381
18518W        W77779   9.371  12.266  12.843
18519W        W77780  16.669  34.415   0.425
18520W        W77781  39.336  33.521  11.003
18521W        W77782  43.788   4.380  14.432
18522W        W77783   4.390  13.746   4.699
18523W        W77784  41.846  43.977   4.653
18524W        W77785  22.173  42.938  10.996
18525W        W77786  17.630  22.549  13.904
18526W        W77787  39.021  35.026  10.528
18527W        W77788  38.503  43.477  14.406
18528W        W77789  21.694   2.229   0.884
18529W        W77790  35.048  13.765  14.466
18530W        W77791   5.726  32.121   1.861
18531W        W77792  16.666  32.080  14.825
18532W        W77793  10.788  21.584   0.755
18533W        W77794  32.005  15.601  10.018
18534W        W77795  10.294  24.159   3.743
18535W        W77796  14.256   7.875  14.018
18536W        W77797  32.478  27.140  11.426
18537W        W77798   8.763  43.497  12.995
18538W        W77799  44.820   3.396   3.764
18539W        W77800  35.434   9.276  13.453
18540W        W77801  44.945   6.893   3.260
18541W        W77802   9.324  32.629   3.315
18542W        W77803  26.037  30.517   0.804
18543W        W77804  19.257  12.240  10.925
18544W        W77805   2.422  44.387   4.721
18545W        W77806   3.730  30.062  12.349
18546W        W77807  14.657  13.152   2.406
18547W        W77808   5.373  27.449  14.490
18548W        W77809  29.990  27.667  13.035
18549W        W77810  34.564  36.048  10.482
18550W        W77811  39.863  10.272   4.607
18551W        W77812  14.807  34.870  10.428
18552W        W77813   6.851  20.204  13.815
18553W        W77814  31.094  36.542  14.759
18554W        W77815  24.021  13.167   2.661
18555W        W77816  41.430  39.904  12.420
18556W        W77817  13.168  13.702   2.795
18557W        W77818  34.541  14.747  11.962
18558W        W77819  36.443  36.848   3.189
18559W        W77820  39.888   1.840  14.929
18560W        W77821  28.134  12.736  14.804
18561W        W77822  34.553  31.557   1.399
18562W        W77823  19.723  40.368  11.545
18563W        W77824   4.328   5.719   9.666
18564W        W77825  28.092  31.436  10.567
18565W        W77826  24.220  29.643   1.337
18566W        W77827  41.403  22.161   0.257
18567W        W77828  33.441  15.108   4.741
18568W        W77829   6.823   0.927  11.420
18569W        W77830  16.236  28.136   1.360
18570W        W77831   2.352  18.621  12.873
18571W        W77832  32.021  28.168  11.897
18572W        W77833  28.039  16.682   4.802
18573W        W77834   3.298  18.551   4.643
18574W        W77835  42.297   3.301   5.280
18575W        W77836  43.887  41.373  14.363
18576W        W77837   7.334   5.431   3.795
18577W        W77838  30.441  14.305   0.851
18578W        W77839   2.931  44.925   2.730
18579W        W77840  37.840  35.365  12.472
18580W        W77841   2.906  36.083  12.977
18581W        W77842  43.405  14.233  13.471
18582W        W77843  27.680  12.705   2.796
18583W        W77844  25.652  10.692  11.404
18584W        W77845  21.639   7.676  14.008
18585W        W77846  17.681  10.291  14.850
18586W        W77847  42.996  16.135  12.080
18587W        W77848   1.483   1.923  10.923
18588W        W77849  34.886  13.105  12.454
18589W        W77850  23.097  27.564   3.326
18590W        W77851   1.758   4.344  14.915
18591W        W77852  38.476  39.381  10.943
18592W        W77853  10.271  18.234  12.995
18593W        W77854  37.959   5.746  14.893
18594W        W77855   3.363   4.330   0.396
18595W        W77856  15.306  30.479   1.804
18596W        W77857  37.993  44.922   4.327
18597W        W77858  17.683  30.432  13.506
18598W        W77859   2.924  30.460   1.872
18599W        W77860  21.038   5.262  13.321
18600W        W77861  12.196  12.680   1.218
18601W        W77862  30.997  37.480   4.823
18602W        W77863  26.063  16.803  11.053
18603W        W77864  39.558  17.245  10.893
18604W        W77865  20.687  18.189   3.160
18605W        W77866  19.274  34.017   4.216
18606W        W77867  13.716   7.279   4.827
18607W        W77868  35.462  44.311   1.711
18608W        W77869  10.848  29.666   1.260
18609W        W77870  18.270  41.314  11.570
18610W        W77871   4.939  31.450   2.726
18611W        W77872  35.564  24.537  13.822
18612W        W77873  24.599  21.194  10.604
18613W        W77874   1.801   0.389   2.300
18614W        W77875  41.813  22.725   3.218
18615W        W77876  23.095   2.737   3.277
18616W        W77877   8.339  34.487   0.937
18617W        W77878  29.978  12.615  13.326
18618W        W77879  20.115   0.911   2.256
18619W        W77880   3.806  44.271  13.532
18620W        W77881   4.231   3.408   2.738
18621W        W77882  19.661   9.179   3.386
18622W        W77883   6.302  30.587  12.459
18623W        W77884   8.303  22.129   0.903
18624W        W77885  33.446  34.080  11.542
18625W        W77886  10.352  33.081  13.910
18626W        W77887   6.895   8.803  11.454
18627W        W77888  23.694  36.969  10.547
18628W        W77889  21.659  19.226  14.471
18629W        W77890   4.296  21.205   3.263
18630W        W77891  41.926  39.851  10.625
18631W        W77892  29.525  10.847   1.445
18632W        W77893  40.475  40.937  11.422
18633W        W77894  23.728  17.613  14.826
18634W        W77895   0.747  19.040   0.409
18635W        W77896  11.307  36.088  12.366
18636W        W77897  14.163  32.942  12.879
18637W        W77898  24.129  24.530  14.787
18638W        W77899  33.493  13.674  14.336
18639W        W77900   8.201  41.966  14.312
18640W        W77901  30.976  31.429   2.717
18641W        W77902   1.384  22.725   1.777
18642W        W77903  13.706   1.739  13.900
18643W        W77904  28.948  36.415   4.332
18644W        W77905  16.221   0.886   4.658
18645W        W77906   2.462  43.863   2.291
18646W        W77907  42.885  36.504   5.284
18647W        W77908  24.150  32.908   0.282
18648W        W77909   8.232  25.543   4.648
18649W        W77910  22.590   9.277   3.199
18650W        W77911  33.471  14.177  13.829
18651W        W77912  27.157  30.473   2.753
18652W        W77913  27.654  23.132  14.289
18653W        W77914  26.959  33.511  12.073
18654W        W77915  13.155  15.619   3.191
18655W        W77916  35.491  34.549   0.961
18656W        W77917  39.440  28.600   0.342
18657W        W77918  36.436  10.252   0.330
18658W        W77919  18.053  17.769  12.969
18659W        W77920   9.707  37.423  12.560
18660W        W77921  29.424  22.650  12.451
18661W        W77922  13.219   9.736   3.775
18662W        W77923  16.725   2.910   1.776
18663W        W77924  32.053  28.667   4.709
18664W        W77925  14.296  24.192  13.417
18665W        W77926   3.766   8.835   0.306
18666W        W77927  26.088  11.792   3.650
18667W        W77928   6.306  31.104  10.560
18668W        W77929  32.032   3.889  12.853
18669W        W77930  39.482  32.595   1.905
18670W        W77931  25.030  26.593  13.430
18671W        W77932   9.195   8.316   2.704
18672W        W77933  44.826  21.667  13.976
18673W        W77934  28.084  19.199  14.394
18674W        W77935   5.202  28.932  13.538
18675W        W77936  37.972  12.678  13.864
18676W        W77937  30.468  39.930  14.475
18677W        W77938  16.239   3.340  11.513
18678W        W77939  34.109  12.123   3.325
18679W        W77940   3.286  22.023  11.111
18680W        W77941  27.462  26.145  10.488
18681W        W77942  22.244   7.861  12.414
18682W        W77943  42.790  23.560  14.274
18683W        W77944  28.181  31.486  11.938
18684W        W77945   4.925  19.077   0.251
18685W        W77946  42.929   8.753  14.452
18686W        W77947  29.653  24.108   2.230
18687W        W77948  40.048  39.376   1.429
18688W        W77949   6.786  40.943  12.534
18689W        W77950  22.997   7.881   2.699
18690W        W77951  25.197  10.213  13.996
18691W        W77952  31.151   9.772   4.267
18692W        W77953  35.995  44.503  13.825
18693W        W77954  37.026   3.424   5.265
18694W        W77955  35.985  12.160  10.544
18695W        W77956  24.507  16.758  14.365
18696W        W77957  18.268  24.191  12.955
18697W        W77958   8.815  37.912   4.695
18698W        W77959  14.238  40.815   2.225
18699W        W77960  41.419  25.482  12.546
18700W        W77961  35.095   3.881  13.348
18701W        W77962   5.374   3.819   0.744
18702W        W77963  38.940  29.467   4.663
18703W        W77964   3.261   3.438  10.895
18704W        W77965  38.553  38.036   2.766
18705W        W77966  22.527   5.693  10.438
18706W        W77967  32.114  23.205   4.828
18707W        W77968   3.423  17.572  12.571
18708W        W77969   3.924  27.056   0.255
18709W        W77970   9.275  18.067   0.472
18710W        W77971  27.164   9.359   1.256
18711W        W77972  24.590  24.182   1.262
18712W        W77973  10.759  42.812  11.036
18713W        W77974  27.617  12.313   0.855
18714W        W77975  29.668  13.324  14.971
18715W        W77976  10.844  18.568  10.622
18716W        W77977  25.713   5.384   2.361
18717W        W77978  40.862  13.706  14.886
18718W        W77979  28.176  31.985   4.173
18719W        W77980   6.336   1.933   3.809
18720W        W77981  13.277  26.619   2.305
18721W        W77982  39.454  10.336   0.914
18722W        W77983  12.625  15.211   5.629
18723W        W77984  35.555  40.347   3.268
18724W        W77985  15.198  12.662   0.362
18725W        W77986  43.853  39.324  10.482
18726W        W77987  23.019  33.879  11.586
18727W        W77988  33.879  34.552  12.088
18728W        W77989  20.547  14.624   3.252
18729W        W77990   9.822  10.775  11.096
18730W        W77991  35.930  27.099   2.850
18731W        W77992  14.194  32.578  13.419
18732W        W77993   5.776  35.013   4.172
18733W        W77994   5.831  29.490  11.522
18734W        W77995  10.831  40.440  10.562
18735W        W77996   3.880  17.292  12.503
18736W        W77997   9.881   6.838   1.381
18737W        W77998  11.694  14.202  12.946
18738W        W77999   0.840  20.127  13.055
18739W        W78000  10.805   4.742   2.324
18740W        W78001  14.210   5.899   3.815
18741W        W78002   4.274   3.876  10.596
18742W        W78003   7.178   2.859   1.247
18743W        W78004  37.965  42.775   0.875
18744W        W78005  34.898  13.795  11.996
18745W        W78006   3.784  24.008  13.521
18746W        W78007  39.815   0.894  14.876
18747W        W78008  10.295  15.756   4.217
18748W        W78009  42.956  16.220  10.951
18749W        W78010  14.158  40.445   1.311
18750W        W78011  14.832  43.982   3.732
18751W        W78012   0.475   5.193   0.464
18752W        W78013  35.547  16.631   2.349
18753W        W78014   4.938   5.319  14.855
18754W        W78015  27.592  16.192   2.745
18755W        W78016   7.228  20.605  10.636
18756W        W78017  28.170   9.789   2.290
18757W        W78018   0.921  22.204  13.842
18758W        W78019  26.645  36.562  10.140
18759W        W78020  40.902  42.941  12.856
18760W        W78021  40.307  20.649  13.913
18761W        W78022  15.158   9.313  11.962
18762W        W78023  24.104  41.977  14.847
18763W        W78024  15.823  19.639  12.371
18764W        W78025   6.734  14.310  11.477
18765W        W78026  35.400  25.009   4.184
18766W        W78027  30.985  33.617  12.839
18767W        W78028  41.028  12.622   3.190
18768W        W78029  13.153  34.047   2.862
18769W        W78030  43.334  33.619  10.144
18770W        W78031  20.263  25.673   1.325
18771W        W78032  24.685  29.968  11.048
18772W        W78033  37.932  44.306   3.252
18773W        W78034  37.354  43.320   1.840
18774W        W78035   6.890  24.170   3.315
18775W        W78036   0.410   1.923  12.890
18776W        W78037  27.599  12.704  11.459
18777W        W78038  39.543  36.554   1.248
18778W        W78039  36.884  18.705  12.992
18779W        W78040  27.595  37.455  14.818
18780W        W78041  18.193  29.005   5.184
18781W        W78042  37.506  31.448  13.974
18782W        W78043  20.574  36.487   3.194
18783W        W78044  19.124  31.539  14.302
18784W        W78045  15.305  14.794   9.490
18785W        W78046  21.115  40.826  14.502
18786W        W78047   6.703   0.745   3.236
18787W        W78048  41.407  10.654  12.970
18788W        W78049  13.810  34.879   2.692
18789W        W78050  22.602  12.245   0.408
18790W        W78051  10.879   2.954   4.238
18791W        W78052  10.183  29.551  14.029
18792W        W78053  42.510  24.206  10.982
18793W        W78054   8.829  43.301  13.880
18794W        W78055   6.797   2.948  13.793
18795W        W78056  33.536   4.436  12.911
18796W        W78057  41.496  32.412  12.460
18797W        W78058  12.647   1.356  14.405
18798W        W78059  35.880  17.163   4.781
18799W        W78060  19.196  41.998   0.353
18800W        W78061  33.000  20.108  11.463
18801W        W78062  39.324  31.621   1.748
18802W        W78063   0.876  24.124  11.022
18803W        W78064  25.626   3.378  10.936
18804W        W78065  34.381   3.790  10.585
18805W        W78066  17.624  34.510   0.455
18806W        W78067  17.209  13.799   3.156
18807W        W78068  40.517  11.771  13.041
18808W        W78069  31.043   3.763  11.507
18809W        W78070  24.207  42.856   3.731
18810W        W78071   3.417  42.508  12.372
18811W        W78072  29.482  29.472   1.908
18812W        W78073  42.467  16.303  14.355
18813W        W78074  37.578  10.287   0.462
18814W        W78075   8.659  14.763   4.230
18815W        W78076  32.970   2.349  12.518
18816W        W78077  34.373   5.857  13.424
18817W        W78078  11.752  16.102   0.475
18818W        W78079  39.462  41.456   1.853
18819W        W78080   0.410  25.548   4.708
18820W        W78081  25.123  43.895  13.534
18821W        W78082  10.832  17.269  12.825
18822W        W78083  13.124   3.262  12.871
18823W        W78084  16.626  22.568  14.837
18824W        W78085  27.076  23.627  11.068
18825W        W78086  24.069   8.403   2.359
18826W        W78087  34.490  18.258  10.638
18827W        W78088  29.495  29.428  11.098
18828W        W78089   7.172  27.539  11.868
18829W        W78090  13.774  13.301  11.879
18830W        W78091  33.097  25.154   4.609
18831W        W78092  44.769  20.546   3.243
18832W        W78093  15.255   3.315   1.718
18833W        W78094  41.009  38.919  13.344
18834W        W78095  23.642   0.483   2.817
18835W        W78096  29.123  38.991   4.257
18836W        W78097  18.258  25.118  11.554
18837W        W78098  34.450   5.886  10.488
18838W        W78099  28.575   0.787  14.485
18839W        W78100  44.895   5.767   0.731
18840W        W78101   0.477  10.349   0.310
18841W        W78102  12.249   4.256   3.257
18842W        W78103   8.261  43.398  10.502
18843W        W78104   0.988   3.343  11.857
18844W        W78105  38.350  40.049  13.391
18845W        W78106  31.410  42.979  14.964
18846W        W78107   8.702  38.061   0.321
18847W        W78108  43.365  12.323  14.866
18848W        W78109   0.915   9.730  12.835
18849W        W78110  37.079   9.646  10.926
18850W        W78111  17.156   4.347  11.391
18851W        W78112   5.362  10.871  11.865
18852W        W78113  22.714  22.075  12.441
18853W        W78114  41.459  33.510   0.354
18854W        W78115  18.166  43.892  10.602
18855W        W78116  41.009  28.171   3.834
18856W        W78117  33.938   2.951   1.778
18857W        W78118  39.421  41.464   3.191
18858W        W78119  22.652   9.679   3.354
18859W        W78120  43.826  33.447  12.573
18860W        W78121  29.976  24.194   4.343
18861W        W78122  16.215  28.941   0.291
18862W        W78123  40.876  40.451  10.894
18863W        W78124  38.513  34.114   0.271
18864W        W78125  24.592  36.046   4.304
18865W        W78126  41.364   3.269  12.419
18866W        W78127  21.198  33.515  14.303
18867W        W78128   3.859  24.483   0.799
18868W        W78129  12.820  37.926  11.070
18869W        W78130  26.685  28.935  11.085
18870W        W78131   3.247   0.317  10.489
18871W        W78132  40.880  27.006  11.943
18872W        W78133  21.755   7.724  12.951
18873W        W78134  29.160  23.549  12.402
18874W        W78135   0.431   6.769  10.628
18875W        W78136  25.468  18.634  11.034
18876W        W78137  32.461  42.951   3.663
18877W        W78138  25.084   0.852  12.540
18878W        W78139   7.874  34.006  11.608
18879W        W78140   0.450  33.904   3.805
18880W        W78141   9.836  43.801   1.262
18881W        W78142   3.415   8.845  12.931
18882W        W78143  23.036  36.477   2.720
18883W        W78144  42.281  10.815  13.464
18884W        W78145  18.260  30.965   3.763
18885W        W78146  34.930   8.349   3.236
18886W        W78147  22.080  14.222   1.811
18887W        W78148  14.780  37.344   3.182
18888W        W78149  34.112  29.137  14.344
18889W        W78150   3.449  42.837  10.088
18890W        W78151  22.103  20.764  10.627
18891W        W78152   8.767  28.640  13.806
18892W        W78153  21.192  29.938  14.294
18893W        W78154  10.335  43.365  12.085
18894W        W78155  34.500   4.901   2.328
18895W        W78156  20.069  29.021  10.134
18896W        W78157  36.488  29.173   3.232
18897W        W78158  26.033  43.294  11.493
18898W        W78159   1.936   8.808   4.745
18899W        W78160  41.435   1.759   1.341
18900W        W78161  16.651  29.638   5.698
18901W        W78162   3.870  42.801   2.406
18902W        W78163  13.316  15.101   3.359
18903W        W78164  25.651  13.821   1.783
18904W        W78165  33.395   9.182   3.289
18905W        W78166  31.903  30.073   2.404
18906W        W78167   4.390  23.001   4.186
18907W        W78168  28.981   3.913  14.451
18908W        W78169  39.926  11.373   1.235
18909W        W78170  12.790   6.710  11.899
18910W        W78171  29.540   7.906   1.699
18911W        W78172   6.703  44.392  10.018
18912W        W78173   7.908   3.422   3.668
18913W        W78174  20.653  27.037   4.734
18914W        W78175  31.049   4.844   4.693
18915W        W78176  28.597  44.281  12.890
18916W        W78177   4.802  25.994  14.361
18917W        W78178   5.410  17.578   2.804
18918W        W78179  13.242  20.556   0.876
18919W        W78180  35.363   7.735   4.782
18920W        W78181   6.681  16.730  11.870
18921W        W78182  42.525  16.765  10.906
18922W        W78183   4.834   0.375  10.617
18923W        W78184  39.918  23.678  10.528
18924W        W78185  11.683   6.872   1.245
18925W        W78186   6.220  11.191  14.884
18926W        W78187  39.868  25.117   1.897
18927W        W78188  10.796  26.524   3.747
18928W        W78189  10.325  23.576  10.050
18929W        W78190  26.551  17.235  10.410
18930W        W78191  42.966  44.755  14.283
18931W        W78192  29.942  11.833  12.554
18932W        W78193   4.922  21.567  14.998
18933W        W78194  23.671  15.275   3.373
18934W        W78195  19.707  38.510   2.303
18935W        W78196  12.799  12.342  14.014
18936W        W78197   9.783   6.355   1.349
18937W        W78198  12.755  32.983  13.515
18938W        W78199  11.310  30.649   4.148
18939W        W78200   4.305  30.021  12.460
18940W        W78201   3.760  41.939  13.353
18941W        W78202  28.096   5.248  11.000
18942W        W78203  44.301  33.388   2.726
18943W        W78204   5.712  34.612   2.308
18944W        W78205  10.754  29.153   0.290
18945W        W78206  31.442  17.221  11.078
18946W        W78207  24.618   6.820  13.022
18947W        W78208  34.483  40.397  12.496
18948W        W78209  16.072  23.165  12.935
18949W        W78210  35.583  33.531  13.965
18950W        W78211  42.919  29.494  14.878
18951W        W78212  14.293  43.987   2.755
18952W        W78213  12.798  22.074   0.448
18953W        W78214  44.268  18.642  14.008
18954W        W78215   0.387   1.373   3.160
18955W        W78216  28.636  11.202  13.984
18956W        W78217   1.813  24.161  11.563
18957W        W78218  13.267  33.467   3.176
18958W        W78219  32.510  33.065   2.861
18959W        W78220  25.700  36.037  13.309
18960W        W78221  39.520  17.179   4.114
18961W        W78222  43.398   7.254   2.675
18962W        W78223  34.986  20.186  13.411
18963W        W78224  26.684  10.185   2.218
18964W        W78225  39.042  28.464   1.768
18965W        W78226   1.767   6.234   3.654
18966W        W78227  16.652  31.422  13.385
18967W        W78228   9.683  19.091  14.003
18968W        W78229  37.057  31.525  10.527
18969W        W78230   4.821  43.876   4.702
18970W        W78231  39.064  11.758  13.362
18971W        W78232   0.346  38.058   2.324
18972W        W78233  33.895   7.675  13.025
18973W        W78234  14.204  27.093   2.183
18974W        W78235  33.493  43.346   1.217
18975W        W78236  30.503  43.966   4.320
18976W        W78237  40.472  35.853  13.058
18977W        W78238  25.610  16.185   1.389
18978W        W78239   3.841   2.440  10.899
18979W        W78240  26.000  13.711  14.306
18980W        W78241  32.961  27.691  11.862
18981W        W78242   4.880   5.409   2.295
18982W        W78243   2.268  38.342   4.181
18983W        W78244  25.029  27.476   2.304
18984W        W78245  24.991  29.633   0.925
18985W        W78246  44.278  15.601   3.738
18986W        W78247  13.126  30.584   5.201
18987W        W78248  37.360   2.241  10.555
18988W        W78249   3.907  30.148   2.744
18989W        W78250  12.245  24.574  14.308
18990W        W78251  40.960  12.850  13.909
18991W        W78252  36.428  40.429  10.993
18992W        W78253  31.634  22.571  13.428
18993W        W78254  27.598  31.898   2.667
18994W        W78255  16.119  10.189  10.907
18995W        W78256   6.425   3.864  14.959
18996W        W78257  40.915  22.056   2.251
18997W        W78258  26.476  21.171   5.100
18998W        W78259  31.008   5.389  14.316
18999W        W78260  28.169  27.592  11.551
19000W        W78261  28.521   9.179  12.578
19001W        W78262  44.008  16.583  13.499
19002W        W78263  25.477  24.095   0.254
19003W        W78264  24.226   1.790   0.280
19004W        W78265  29.658  42.937  13.908
19005W        W78266  18.787   5.354  12.960
19006W        W78267  23.626  44.791   2.876
19007W        W78268  23.702  29.623   5.113
19008W        W78269  33.882  16.749  11.007
19009W        W78270   4.299  18.603  12.496
19010W        W78271  35.985   5.400  14.292
19011W        W78272  14.110  18.087   4.207
19012W        W78273  27.482   0.459   1.407
19013W        W78274   8.820  37.004   4.156
19014W        W78275  17.197  12.199  11.484
19015W        W78276  35.450  43.873   3.242
19016W        W78277   6.308  35.024  14.027
19017W        W78278  30.557  43.377   3.765
19018W        W78279  25.991  24.481  11.024
19019W        W78280  39.008  39.478  14.882
19020W        W78281   9.698   3.839  12.978
19021W        W78282  35.917  41.927   1.759
19022W        W78283   8.840  23.075  12.908
19023W        W78284  20.160  36.987   0.740
19024W        W78285   6.686  25.670   4.636
19025W        W78286  37.986  23.138  10.611
19026W        W78287  25.039   9.270   1.373
19027W        W78288   3.832  37.840   1.315
19028W        W78289  21.571  18.616  14.890
19029W        W78290  33.934   8.300   1.875
19030W        W78291  42.010  15.084  14.862
19031W        W78292  17.589   4.222  12.043
19032W        W78293   9.827  36.028  10.485
19033W        W78294   0.815  24.081  10.478
19034W        W78295  37.875  33.058  14.006
19035W        W78296  34.527  38.871  10.117
19036W        W78297   7.811  15.293  13.825
19037W        W78298   8.838  32.478   2.816
19038W        W78299  29.530  33.060   2.387
19039W        W78300  33.962  33.088   4.722
19040W        W78301  41.002  44.365   1.325
19041W        W78302  27.188  40.337   2.875
19042W        W78303  15.188  39.854  10.432
19043W        W78304  13.187  10.684  10.048
19044W        W78305  35.587  14.805   3.687
19045W        W78306   5.767  23.022   1.865
19046W        W78307  31.620  25.497   3.652
19047W        W78308   8.347   4.291   3.359
19048W        W78309   5.380   1.788   5.140
19049W        W78310   1.470   0.750  13.827
19050W        W78311  26.628   4.213   3.261
19051W        W78312   8.214  28.615  10.907
19052W        W78313   4.325  41.355   2.205
19053W        W78314  33.454   0.801   1.806
19054W        W78315   0.436   5.337   2.683
19055W        W78316  31.569  36.357   5.597
19056W        W78317   9.682   6.264  13.055
19057W        W78318  25.040  27.534   4.336
19058W        W78319  11.157   0.332   0.734
19059W        W78320  24.216  15.259   0.473
19060W        W78321   6.904  19.666  12.858
19061W        W78322   7.823  11.839  14.853
19062W        W78323  20.684  20.662   2.715
19063W        W78324  19.560  27.454   2.347
19064W        W78325  39.496   9.179   4.704
19065W        W78326  18.788  41.367   3.160
19066W        W78327   1.778  32.438   1.748
19067W        W78328  42.007  12.816   2.362
19068W        W78329  16.306   6.292  10.985
19069W        W78330  32.424  11.368  14.491
19070W        W78331  10.742  25.675  14.842
19071W        W78332  32.465  33.506  12.547
19072W        W78333  35.884  30.948   4.711
19073W        W78334  26.051   6.207  14.020
19074W        W78335  24.168  21.087   3.270
19075W        W78336   6.724  35.885  10.482
19076W        W78337  15.199  25.130   1.359
19077W        W78338  12.803  38.486   2.692
19078W        W78339   0.370   6.362   1.872
19079W        W78340  36.979  16.701  13.389
19080W        W78341  42.995  25.604  11.067
19081W        W78342  32.581  35.491  13.353
19082W        W78343   1.427  34.524   2.833
19083W        W78344  30.967   3.241  11.057
19084W        W78345  25.700  44.450   4.240
19085W        W78346  12.128  23.048  13.443
19086W        W78347   7.695  34.374  13.023
19087W        W78348  42.482  30.113   0.908
19088W        W78349  38.906  41.373  10.510
19089W        W78350   8.704  41.941  11.874
19090W        W78351  14.314  44.776  10.570
19091W        W78352   4.698  30.441   4.799
19092W        W78353  22.146  16.664  12.012
19093W        W78354   9.645  27.188   1.383
19094W        W78355   4.744   5.756  13.834
19095W        W78356   5.362   8.299  11.470
19096W        W78357  28.084   5.251  13.366
19097W        W78358  14.207  40.397   1.765
19098W        W78359  25.627  15.133   1.850
19099W        W78360  23.109  22.038   0.319
19100W        W78361  16.654  18.125  14.943
19101W        W78362  41.495  36.942   2.335
19102W        W78363   7.264  16.316   3.854
19103W        W78364  43.876   7.670  13.811
19104W        W78365  38.824  37.916   4.665
19105W        W78366  36.371  38.426  12.021
19106W        W78367   0.303  24.036   2.792
19107W        W78368  28.490   4.411   2.665
19108W        W78369  23.034  16.218   1.297
19109W        W78370   9.865  31.560   4.245
19110W        W78371  16.192  13.237   1.857
19111W        W78372  40.810  44.951   4.683
19112W        W78373  40.837  30.418  12.831
19113W        W78374  30.493  33.392   2.280
19114W        W78375  36.534  40.041   4.255
19115W        W78376  28.520  31.019  14.394
19116W        W78377  15.743   9.761   3.675
19117W        W78378   7.183  24.710  11.375
19118W        W78379  24.513  33.608  13.487
19119W        W78380  17.748  23.663   0.323
19120W        W78381  29.510   3.256  11.497
19121W        W78382  42.938  16.705  14.341
19122W        W78383  42.387   9.763  14.005
19123W        W78384   7.752   1.848  12.518
19124W        W78385  26.552  32.485  10.423
19125W        W78386  32.077  38.925   4.649
19126W        W78387  28.140  24.118   3.346
19127W        W78388  21.682  16.257  13.876
19128W        W78389   3.419  29.538   1.790
19129W        W78390  40.498   8.367  13.353
19130W        W78391   7.265  37.549  11.871
19131W        W78392  23.224  13.222  14.849
19132W        W78393   4.323   0.462   4.322
19133W        W78394   3.390  39.323  11.893
19134W        W78395  30.950  23.662   3.328
19135W        W78396  10.141  44.948   1.336
19136W        W78397  41.529  43.368   2.382
19137W        W78398  28.444  28.576  12.893
19138W        W78399  30.536   1.960   4.201
19139W        W78400  37.443  28.107   4.229
19140W        W78401  22.518  11.718  12.907
19141W        W78402  26.699  11.318  11.102
19142W        W78403  14.152  34.102  10.541
19143W        W78404  22.066  35.556   3.685
19144W        W78405   0.354   0.248  14.292
19145W        W78406  14.673  39.423  14.949
19146W        W78407  38.517  14.338  12.973
19147W        W78408   9.247  22.167   0.895
19148W        W78409   3.357  30.129   3.387
19149W        W78410  12.335  14.813   0.394
19150W        W78411  18.068  42.429   1.252
19151W        W78412  14.674  14.118  11.900
19152W        W78413  23.189  41.884  13.523
19153W        W78414  38.563  16.739  11.872
19154W        W78415  39.406  37.508   3.679
19155W        W78416  15.708  16.587   2.182
19156W        W78417   4.726  13.749  13.905
19157W        W78418  44.348  23.639   3.197
19158W        W78419   9.770   5.905  14.326
19159W        W78420  24.209  38.471   1.785
19160W        W78421  23.137   4.933   2.242
19161W        W78422  38.931  37.531  13.853
19162W        W78423  17.582  10.286   2.378
19163W        W78424  15.140  40.906   2.854
19164W        W78425  26.465  33.478  12.012
19165W        W78426  26.207  36.974   0.384
19166W        W78427  37.998  15.121  13.424
19167W        W78428  42.505  26.986  13.362
19168W        W78429  27.596   7.294   3.300
19169W        W78430  40.319   7.178  12.417
19170W        W78431   8.255  43.324  13.386
19171W        W78432  15.761   6.354  12.825
19172W        W78433  14.684  12.620  11.993
19173W        W78434  19.658  10.698  11.044
19174W        W78435   5.870   0.318  14.467
19175W        W78436  21.184  21.697  13.998
19176W        W78437   7.356  41.301  14.028
19177W        W78438  21.253  35.967  10.040
19178W        W78439  22.124  43.484  14.857
19179W        W78440  23.028  40.445  14.815
19180W        W78441  43.876   6.305   0.825
19181W        W78442  20.670   2.464   1.809
19182W        W78443  35.968  30.053   1.318
19183W        W78444   5.861  38.388  11.496
19184W        W78445  37.449   4.369  11.898
19185W        W78446  10.191  30.012  12.871
19186W        W78447  33.514   7.386  10.417
19187W        W78448  13.241  15.151  12.062
19188W        W78449  19.748  28.557  12.369
19189W        W78450  16.601   5.302   2.872
19190W        W78451  28.460  21.161  13.052
19191W        W78452  12.626  20.095  13.809
19192W        W78453   0.785  40.383  12.870
19193W        W78454  15.761  10.735  11.571
19194W        W78455   1.854   1.350   0.310
19195W        W78456   5.347  34.510   2.199
19196W        W78457  41.534  21.044  12.947
19197W        W78458   7.314  13.334  14.416
19198W        W78459  12.832  19.202   0.310
19199W        W78460  29.670  17.586   1.772
19200W        W78461  30.125   6.819  11.861
19201W        W78462  20.731  43.793  11.610
19202W        W78463  26.114  25.027   1.876
19203W        W78464  16.645   0.483  11.442
19204W        W78465  35.589   4.744  12.044
19205W        W78466  24.601   1.866  11.071
19206W        W78467  32.136  13.774  12.852
19207W        W78468  32.115  28.047   3.681
19208W        W78469  44.873   3.317  12.876
19209W        W78470  20.057  14.704  12.500
19210W        W78471  13.734  33.588   1.243
19211W        W78472   7.705  27.106   0.891
19212W        W78473  36.537  19.761   4.836
19213W        W78474  38.566   6.757   4.703
19214W        W78475  12.342  18.748   2.736
19215W        W78476  11.331  16.164  13.845
19216W        W78477  33.491  36.356  13.830
19217W        W78478  10.686  37.577   4.228
19218W        W78479  30.550  41.832   4.152
19219W        W78480  25.061  17.176   4.665
19220W        W78481  16.697  28.598   5.320
19221W        W78482   9.860   9.817   9.444
19222W        W78483   4.770  41.424   2.756
19223W        W78484  22.997  42.342   2.399
19224W        W78485  29.552  10.716   1.859
19225W        W78486  41.964  43.818   4.182
19226W        W78487  33.398  42.354  13.351
19227W        W78488  23.991  11.817  14.813
19228W        W78489  29.156  26.190  12.089
19229W        W78490  26.122  15.181  10.959
19230W        W78491   0.838   3.724   4.656
19231W        W78492  29.473  32.916   1.925
19232W        W78493  34.069  44.821  12.849
19233W        W78494  17.698  16.605   3.232
19234W        W78495   2.340  11.217  13.371
19235W        W78496  15.766  24.719  12.359
19236W        W78497  25.029  26.139   1.893
19237W        W78498  41.852  12.737   4.302
19238W        W78499  30.951  33.600  12.377
19239W        W78500  10.685  39.390  13.037
19240W        W78501  19.695  40.469  14.850
19241W        W78502  32.462  17.104  10.606
19242W        W78503  21.024   3.895   4.739
19243W        W78504  28.456  31.537   2.813
19244W        W78505  24.203  22.085   3.657
19245W        W78506  33.914  39.886   4.700
19246W        W78507   7.275  25.090  12.950
19247W        W78508  32.947   2.903  14.275
19248W        W78509  28.116  19.552  11.958
19249W        W78510  42.403  23.667  14.342
19250W        W78511   2.315  13.657   3.211
19251W        W78512  29.029  44.772  11.583
19252W        W78513  24.118  22.617  10.955
19253W        W78514  39.533  33.578  14.300
19254W        W78515  15.280  25.097   2.851
19255W        W78516  42.508  43.512   3.703
19256W        W78517  15.638   9.227  14.858
19257W        W78518  14.142  19.715   3.672
19258W        W78519  33.100   2.470  11.453
19259W        W78520   3.788   5.410   0.401
19260W        W78521  23.551  10.873  13.345
19261W        W78522  32.637  11.808  12.521
19262W        W78523  44.329  34.408   1.745
19263W        W78524  12.706   1.945  14.313
19264W        W78525  31.988  21.024   5.280
19265W        W78526  24.675  20.154  12.049
19266W        W78527  20.086  33.917  10.443
19267W        W78528   7.742   3.440  11.106
19268W        W78529   7.884  29.478   0.474
19269W        W78530  40.306  22.021  14.335
19270W        W78531   2.464   0.490   2.274
19271W        W78532  29.170  10.666  10.019
19272W        W78533  28.632  33.559   0.752
19273W        W78534  17.293  11.809  14.789
19274W        W78535  29.504  22.555   1.893
19275W        W78536  14.260  21.757   4.773
19276W        W78537  43.890   8.385  10.567
19277W        W78538  26.115  26.984   3.807
19278W        W78539   0.806  19.537  10.930
19279W        W78540  13.212  28.060  12.875
19280W        W78541  36.933  15.589  13.980
19281W        W78542  12.692  30.129   3.822
19282W        W78543  16.116   4.901  12.463
19283W        W78544  27.523  43.967   4.300
19284W        W78545   1.808  36.028   2.328
19285W        W78546  18.233  14.712  12.451
19286W        W78547  17.095   3.859   3.739
19287W        W78548  20.609  36.512  14.348
19288W        W78549  34.404  21.741  11.121
19289W        W78550   3.290  21.100   3.374
19290W        W78551   0.329  31.464  10.502
19291W        W78552  16.082  33.003   4.122
19292W        W78553  23.713  22.248  10.611
19293W        W78554  32.121  28.635   2.761
19294W        W78555   0.247  25.554   3.629
19295W        W78556  38.970  24.026   4.142
19296W        W78557  37.375  34.591  12.848
19297W        W78558  12.816  11.829  14.992
19298W        W78559  36.450   7.717   5.288
19299W        W78560  16.601  13.327  14.802
19300W        W78561  19.760  23.660  13.941
19301W        W78562   1.293  43.836  12.006
19302W        W78563  30.050   6.844   0.747
19303W        W78564  14.148  29.519   1.407
19304W        W78565  25.475  16.705   2.760
19305W        W78566  25.171  30.913   4.663
19306W        W78567  20.692  42.956  11.379
19307W        W78568  30.921  11.139   1.923
19308W        W78569  25.215  14.301  11.858
19309W        W78570  22.177  40.050  12.341
19310W        W78571  42.330  36.901  12.835
19311W        W78572   1.742   2.247  12.506
19312W        W78573  42.956  22.726  12.870
19313W        W78574  23.633  33.494   2.891
19314W        W78575  38.908  30.432  12.946
19315W        W78576  16.164  27.660  14.489
19316W        W78577  34.100   7.745  12.421
19317W        W78578   3.713   5.292  13.476
19318W        W78579   7.194   4.775   3.377
19319W        W78580  34.501  40.010  10.143
19320W        W78581  37.001   9.791   1.227
19321W        W78582  41.839  21.534   4.825
19322W        W78583  33.562   0.480  14.784
19323W        W78584   9.824  30.643   4.747
19324W        W78585  28.511  26.032   4.838
19325W        W78586  30.908  16.705  13.064
19326W        W78587  27.470  16.583  10.606
19327W        W78588   1.897  40.500  10.548
19328W        W78589  41.537  15.258   0.373
19329W        W78590  20.659  38.551  11.104
19330W        W78591   8.821  13.599  13.955
19331W        W78592  40.525  13.301  10.540
19332W        W78593  21.225  39.822  12.561
19333W        W78594  40.541  14.588  10.536
19334W        W78595   9.374  32.395  12.379
19335W        W78596   8.385   3.716  11.596
19336W        W78597  33.484  17.229  13.820
19337W        W78598  33.943   0.453  11.090
19338W        W78599  34.007  44.381  11.093
19339W        W78600  29.612  38.462  13.853
19340W        W78601  26.992   6.881  13.366
19341W        W78602  41.336  20.712  12.575
19342W        W78603  33.394  12.634  12.551
19343W        W78604   7.378  44.775  11.584
19344W        W78605   5.827   0.266   2.709
19345W        W78606  13.757  32.451   0.264
19346W        W78607  30.949  33.590   5.616
19347W        W78608  11.815   9.333  11.580
19348W        W78609   0.492   3.289  10.555
19349W        W78610   4.286   6.921   2.299
19350W        W78611  16.719  30.587  13.906
19351W        W78612  33.495  29.668  12.862
19352W        W78613   1.302  38.553   4.623
19353W        W78614   9.812   3.774  13.824
19354W        W78615  11.805   5.305  14.400
19355W        W78616  40.940  37.882  13.420
19356W        W78617  31.504  18.258   4.809
19357W        W78618  36.543  15.296   2.774
19358W        W78619  32.571  15.279   4.207
19359W        W78620   0.926   1.796  12.566
19360W        W78621  18.601  24.196   0.344
19361W        W78622   9.749   4.447   0.924
19362W        W78623   4.900  41.996  13.366
19363W        W78624   6.246  34.489  12.509
19364W        W78625  23.050   4.862   1.797
19365W        W78626  15.673  44.853   3.820
19366W        W78627  32.098  18.677   5.202
19367W        W78628  43.311  28.663  10.992
19368W        W78629   3.248  26.125   0.950
19369W        W78630  43.394  40.825   0.335
19370W        W78631  11.636  43.327  14.913
19371W        W78632  37.952  29.032  13.802
19372W        W78633  35.493  26.578  10.961
19373W        W78634  31.138  43.332   0.950
19374W        W78635   0.762  10.169  14.414
19375W        W78636  16.092   3.249   4.206
19376W        W78637  42.808   3.929   2.805
19377W        W78638  32.084   9.344  12.858
19378W        W78639  19.635  29.096  11.083
19379W        W78640  44.417  13.820  13.524
19380W        W78641  41.293  44.990   2.888
19381W        W78642   0.272  33.984   0.264
19382W        W78643  42.421  10.252  11.401
19383W        W78644  24.542  27.094   0.477
19384W        W78645  15.797  36.423  12.536
19385W        W78646  35.568  41.529  12.423
19386W        W78647  21.607   4.918  11.120
19387W        W78648   1.422  38.386  11.909
19388W        W78649  38.508  30.485   3.821
19389W        W78650   2.772   0.472  10.506
19390W        W78651  12.233   3.740   2.207
19391W        W78652  11.372  44.937  11.858
19392W        W78653  23.203   5.237   1.750
19393W        W78654  18.727  21.146   0.407
19394W        W78655  18.151  13.700  10.640
19395W        W78656  16.281  36.455  14.473
19396W        W78657  26.105  23.651  12.387
19397W        W78658  30.152  19.198  14.766
19398W        W78659  44.393  30.982   4.251
19399W        W78660   3.792   2.900  14.992
19400W        W78661  33.972   4.277   0.839
19401W        W78662   4.418  27.986   1.773
19402W        W78663  35.502   5.322  14.278
19403W        W78664  37.576  20.220  13.411
19404W        W78665   2.331   2.801  14.814
19405W        W78666  32.481   7.398   1.342
19406W        W78667  37.481  38.056  11.458
19407W        W78668  33.487  13.256  13.524
19408W        W78669  31.126  40.900   3.347
19409W        W78670   1.239  20.751   0.297
19410W        W78671  20.266  32.107  10.636
19411W        W78672  37.915  18.618   3.745
19412W        W78673  30.627  10.640  14.459
19413W        W78674  26.983  25.159  14.847
19414W        W78675  43.904   8.275  13.444
19415W        W78676  14.310  38.924  13.968
19416W        W78677   0.388  26.502  11.866
19417W        W78678  20.270  27.191   2.292
19418W        W78679  22.581  10.777   0.322
19419W        W78680  43.345  12.828   2.888
19420W        W78681   7.881   5.739   1.440
19421W        W78682  42.281  38.862  11.929
19422W        W78683   2.382  13.126  13.518
19423W        W78684   1.357   6.698   3.801
19424W        W78685   8.709  13.169  10.596
19425W        W78686  20.588   9.385  12.873
19426W        W78687  13.815  33.064   0.905
19427W        W78688  12.726  23.173  11.475
19428W        W78689  43.012  41.852   2.827
19429W        W78690   1.384  42.875  10.964
19430W        W78691   9.869   6.763   2.241
19431W        W78692  14.273  27.681  12.094
19432W        W78693   1.851  10.239  14.281
19433W        W78694  16.689   2.447   0.265
19434W        W78695  43.807  31.472  12.498
19435W        W78696  13.314   3.905  12.468
19436W        W78697   8.892   6.329  13.478
19437W        W78698   9.862  20.541   4.212
19438W        W78699   2.302   8.836  13.488
19439W        W78700  23.044  20.749   4.722
19440W        W78701  16.618   0.841   4.228
19441W        W78702  28.959  28.468  12.349
19442W        W78703  35.452   6.680   1.701
19443W        W78704  44.881  43.952  13.500
19444W        W78705  14.782  43.371  10.949
19445W        W78706  16.188  19.148  11.020
19446W        W78707  32.973  28.648  14.835
19447W        W78708  42.439   7.682  13.468
19448W        W78709  28.982  36.022  14.872
19449W        W78710  32.537  41.867  14.409
19450W        W78711  37.074   7.394   2.787
19451W        W78712   9.335  20.157   0.960
19452W        W78713  36.011  34.410   9.498
19453W        W78714  38.344  17.556   1.787
19454W        W78715  20.741   3.765   0.829
19455W        W78716  24.050  38.381  14.461
19456W        W78717  17.193   0.398  12.908
19457W        W78718  42.420  34.466   1.428
19458W        W78719  17.674   8.892  14.290
19459W        W78720  32.551  14.716   4.616
19460W        W78721  17.082   1.829  14.515
19461W        W78722  15.224  14.683  14.441
19462W        W78723   5.752  28.976   4.639
19463W        W78724  42.373  35.108   0.860
19464W        W78725  25.703  21.561  13.441
19465W        W78726  30.627  36.859   4.163
19466W        W78727  20.184   0.827   4.200
19467W        W78728  22.504  44.362  10.565
19468W        W78729  16.128  31.420   0.370
19469W        W78730   8.689  35.439   2.694
19470W        W78731   8.671  36.907  14.421
19471W        W78732  31.137  17.188  14.317
19472W        W78733  42.410   7.320  14.977
19473W        W78734  31.912   1.352  12.528
19474W        W78735  35.581  23.714   0.808
19475W        W78736   7.714  24.655   0.776
19476W        W78737  28.075  21.652   4.699
19477W        W78738  11.188  21.039  11.385
19478W        W78739  27.584   3.853  12.835
19479W        W78740   5.753  15.645  12.463
19480W        W78741  14.189  39.482  12.510
19481W        W78742  44.318  23.234   1.251
19482W        W78743  13.174   5.900  10.424
19483W        W78744  40.457   2.944  11.453
19484W        W78745  36.402   8.773   9.970
19485W        W78746  39.400   2.266   1.798
19486W        W78747   2.373  15.251   2.796
19487W        W78748  21.052  40.976  13.418
19488W        W78749   3.769  15.099   0.941
19489W        W78750   4.281  25.977  11.604
19490W        W78751  23.490  23.581   2.269
19491W        W78752   3.368  39.053  12.964
19492W        W78753  27.158   7.789  11.124
19493W        W78754  18.259  38.399   4.728
19494W        W78755  26.608   6.272   3.245
19495W        W78756  23.709  19.567  14.312
19496W        W78757  39.921   4.237   4.242
19497W        W78758  23.113   7.737  13.315
19498W        W78759  41.474  41.800  14.005
19499W        W78760  11.748  35.497   3.823
19500W        W78761  35.025  41.367   3.382
19501W        W78762  18.083  34.992  12.054
19502W        W78763  37.014  28.660  12.930
19503W        W78764  22.532  18.633   0.951
19504W        W78765  23.009   2.463  10.484
19505W        W78766  16.284   5.417   3.201
19506W        W78767   8.237   4.699  14.894
19507W        W78768  26.684  37.414   4.725
19508W        W78769  12.774  28.619  13.920
19509W        W78770  34.972   9.352   2.678
19510W        W78771   7.377  25.004  13.537
19511W        W78772   7.772  25.997   2.331
19512W        W78773  31.981  17.643   4.766
19513W        W78774  43.292   5.714  12.952
19514W        W78775  29.577  28.988   0.264
19515W        W78776  17.240  23.579   2.303
19516W        W78777  37.430  39.542   3.274
19517W        W78778  38.971  12.649  14.500
19518W        W78779  13.768   4.715  13.393
19519W        W78780   4.300   1.338  10.558
19520W        W78781  28.005  36.455  12.511
19521W        W78782  29.982  24.712   1.401
19522W        W78783  43.494   2.879   3.342
19523W        W78784   4.756  36.927  14.480
19524W        W78785   4.856  42.395  10.505
19525W        W78786  24.012   8.236  10.461
19526W        W78787  10.777  20.117  10.918
19527W        W78788  12.279  30.489  14.759
19528W        W78789   5.370  29.513  12.442
19529W        W78790  13.643  44.973  12.506
19530W        W78791  23.241  44.951   1.377
19531W        W78792  13.345  36.932   0.761
19532W        W78793  26.580  34.532  14.939
19533W        W78794  22.214   2.359   1.924
19534W        W78795  34.476  31.125  11.002
19535W        W78796  36.855  38.852  11.092
19536W        W78797  10.212   5.356  14.465
19537W        W78798   2.373  39.486   4.347
19538W        W78799   8.700   7.893  10.940
19539W        W78800  44.999  38.869  10.627
19540W        W78801  23.199   7.279   4.655
19541W        W78802  14.694  36.382  10.967
19542W        W78803   6.300  43.771  10.460
19543W        W78804  23.624  24.216   4.330
19544W        W78805  18.774  32.409   2.396
19545W        W78806  19.191  29.528  10.581
19546W        W78807  42.395   5.726   0.418
19547W        W78808  33.023  14.635  13.502
19548W        W78809  27.036  24.581  14.459
19549W        W78810   8.783   2.299  11.993
19550W        W78811   2.933  25.183  11.898
19551W        W78812  22.212  42.979   0.392
19552W        W78813  39.052   8.871  11.569
19553W        W78814  41.973  14.155   4.208
19554W        W78815  10.835  15.742  14.819
19555W        W78816  43.860  28.000   1.704
19556W        W78817  41.483   7.392   2.325
19557W        W78818  38.329  34.940   4.311
19558W        W78819  43.332  38.901  11.374
19559W        W78820  37.346  17.306   4.646
19560W        W78821  16.674  44.275  10.988
19561W        W78822  16.733  12.312  11.965
19562W        W78823   9.344   9.644   4.249
19563W        W78824  32.985   8.688   2.196
19564W        W78825  12.314  10.363  10.950
19565W        W78826   9.375   5.205   3.759
19566W        W78827  42.413   9.353  13.340
19567W        W78828  44.834  17.711  12.951
19568W        W78829  26.510  22.692   0.782
19569W        W78830  39.468  21.696   4.153
19570W        W78831  20.670   8.401   1.395
19571W        W78832  38.404  31.998   1.418
19572W        W78833  16.683  42.435  14.945
19573W        W78834  19.649  13.201   2.894
19574W        W78835  18.279  38.021  12.009
19575W        W78836  32.073  25.676  11.429
19576W        W78837  36.410  30.038   0.797
19577W        W78838   8.379   2.333  14.289
19578W        W78839  40.319  33.572  12.980
19579W        W78840  41.314  39.046   3.632
19580W        W78841  10.803   3.904   3.782
19581W        W78842  34.529  21.047  12.344
19582W        W78843  10.215   2.392  10.618
19583W        W78844  11.788  26.541   0.947
19584W        W78845   7.181   3.826  12.476
19585W        W78846  30.131  23.621   4.790
19586W        W78847  30.003  37.502  10.443
19587W        W78848  34.974  39.965  13.399
19588W        W78849  37.572  23.050  10.503
19589W        W78850  16.613  38.468   1.407
19590W        W78851   8.374  22.225   1.901
19591W        W78852  39.349  23.997  14.481
19592W        W78853   3.863  42.397  13.062
19593W        W78854  40.029  35.413  10.560
19594W        W78855   7.344  44.266  14.429
19595W        W78856  30.129  44.338   2.661
19596W        W78857  38.058  18.644  13.899
19597W        W78858   7.309  43.781  14.888
19598W        W78859  31.973  23.624  10.500
19599W        W78860  27.503  38.454  10.638
19600W        W78861  25.581  18.150  14.785
19601W        W78862  15.766  18.242  13.046
19602W        W78863  22.129  22.081  12.492
19603W        W78864  15.298  39.839   3.858
19604W        W78865  33.479  10.176   4.224
19605W        W78866  39.378   4.386  11.436
19606W        W78867  23.730  18.280  12.011
19607W        W78868  19.664  34.498  11.873
19608W        W78869  22.219  36.049  10.935
19609W        W78870   1.770  32.001  11.103
19610W        W78871  38.379  36.363  11.081
19611W        W78872  29.593   7.363  14.020
19612W        W78873  32.424  38.344  14.975
19613W        W78874  14.332  26.151  12.398
19614W        W78875  24.131  12.658   1.447
19615W        W78876  29.530  27.124   4.299
19616W        W78877  43.435   2.412  13.853
19617W        W78878  34.065  39.991  12.493
19618W        W78879   0.353   7.359   1.307
19619W        W78880  24.602   9.873   3.849
19620W        W78881  34.935  25.155  14.899
19621W        W78882  18.772  42.363  13.038
19622W        W78883  24.543  33.550  10.421
19623W        W78884  26.700  15.716  13.408
19624W        W78885  33.005   8.868   0.819
19625W        W78886  30.628   9.684  14.964
19626W        W78887  32.993  20.206   2.327
19627W        W78888   2.745   2.843  11.582
19628W        W78889   5.830  43.369   4.209
19629W        W78890  36.483  44.876  14.340
19630W        W78891   3.756  39.917  13.432
19631W        W78892   9.188  19.675   4.218
19632W        W78893  22.086  35.079   2.761
19633W        W78894  24.657   7.368   3.273
19634W        W78895  33.466  16.273   0.786
19635W        W78896  40.382  39.425  12.019
19636W        W78897  13.720  18.558   1.797
19637W        W78898  20.144  16.737   2.405
19638W        W78899  15.157  12.845  14.484
19639W        W78900  12.657  35.420   2.815
19640W        W78901  23.180  34.029   3.200
19641W        W78902   4.395  21.535  12.956
19642W        W78903  34.603  19.627  12.940
19643W        W78904  15.206   0.403   1.277
19644W        W78905  35.977  22.093  10.921
19645W        W78906  32.041  37.393   3.855
19646W        W78907  13.185   1.383  12.428
19647W        W78908  38.940  28.064  12.091
19648W        W78909  30.071  41.455   4.262
19649W        W78910  32.461   5.690  12.380
19650W        W78911  32.512   6.383  11.995
19651W        W78912  13.610  33.938   3.805
19652W        W78913  35.462  32.578   1.372
19653W        W78914  21.126   4.424   1.886
19654W        W78915  44.302  24.191   4.694
19655W        W78916  38.960   5.232   2.184
19656W        W78917  23.058  13.329   1.431
19657W        W78918  14.171  31.411   9.949
19658W        W78919   8.197  13.246   0.435
19659W        W78920  17.710  42.383   3.153
19660W        W78921   6.785  13.168  10.028
19661W        W78922  30.116  12.142   2.262
19662W        W78923  32.633  37.353   4.348
19663W        W78924  22.097   0.778  14.429
19664W        W78925  40.470  32.614  13.440
19665W        W78926   6.803   4.941   4.267
19666W        W78927  17.658  37.498   4.282
19667W        W78928  18.248   9.188   0.844
19668W        W78929  42.982  18.086  10.144
19669W        W78930  27.094   7.733  10.427
19670W        W78931  17.100   7.296   2.805
19671W        W78932   1.916  16.304  13.017
19672W        W78933  38.360   5.423  13.395
19673W        W78934   5.343  36.583  13.461
19674W        W78935  37.050  22.145   0.920
19675W        W78936  25.563   4.841   2.765
19676W        W78937  35.047  16.316  12.515
19677W        W78938  44.365  10.365  10.986
19678W        W78939  42.461   9.336   0.927
19679W        W78940  24.198  12.264   3.355
19680W        W78941  18.254   4.898  10.995
19681W        W78942  19.760  41.332  12.061
19682W        W78943  40.452  33.396   0.785
19683W        W78944   5.705   5.864  13.334
19684W        W78945   1.902  17.713  13.893
19685W        W78946  34.387  25.029  11.939
19686W        W78947  31.087  16.189   1.709
19687W        W78948   2.441  32.624  12.864
19688W        W78949  12.342  14.284   2.216
19689W        W78950  40.848  37.364  13.381
19690W        W78951  18.729  29.449  14.026
19691W        W78952  29.591  12.193   3.684
19692W        W78953  18.653  36.534  13.360
19693W        W78954  10.173  19.168   1.869
19694W        W78955   2.925  21.572   1.253
19695W        W78956   3.357   5.280   3.328
19696W        W78957  29.560  25.020   3.849
19697W        W78958  11.649  18.720  11.092
19698W        W78959  38.864  37.415  12.935
19699W        W78960  40.509  27.183   4.320
19700W        W78961   3.818  21.642  14.341
19701W        W78962   0.888  32.115   0.782
19702W        W78963   3.718  14.133  14.014
19703W        W78964   0.254  32.894   3.262
19704W        W78965  36.435   1.806   3.663
19705W        W78966  40.031  23.687   4.745
19706W        W78967  17.711   4.277  13.511
19707W        W78968   4.932  30.916  11.960
19708W        W78969   2.840   1.383   0.380
19709W        W78970   7.281  42.975   4.331
19710W        W78971  39.005  33.557  13.475
19711W        W78972   1.889  35.895  11.893
19712W        W78973  20.700  22.655  11.373
19713W        W78974  18.553  28.564  12.874
19714W        W78975  26.586  25.511   3.844
19715W        W78976  25.099  21.744  10.547
19716W        W78977   6.294  39.924   2.835
19717W        W78978  32.993  42.935  13.053
19718W        W78979  44.975  41.429   0.425
19719W        W78980  18.074   8.321  12.360
19720W        W78981   0.397   4.266  10.529
19721W        W78982  23.076  29.016  12.514
19722W        W78983  44.861   1.852  13.029
19723W        W78984  29.101  17.613   4.621
19724W        W78985  34.045  21.549   4.299
19725W        W78986  41.823  35.381  12.528
19726W        W78987   1.241  42.503   1.901
19727W        W78988  38.900   9.804   1.429
19728W        W78989  32.018  20.603   0.374
19729W        W78990  10.221  14.815  13.864
19730W        W78991  30.122   7.345  12.936
19731W        W78992  27.660  36.537   5.717
19732W        W78993  21.745  31.935   1.252
19733W        W78994  28.968   4.229   4.744
19734W        W78995  35.020  14.340  10.999
19735W        W78996   3.897   3.915  14.424
19736W        W78997   9.203  19.233   0.761
19737W        W78998  10.871  28.103   4.835
19738W        W78999  18.292  21.093   5.242
19739W        W79000   5.369  13.665  14.323
19740W        W79001   1.286  43.817  12.944
19741W        W79002  13.235  22.231   0.935
19742W        W79003  13.803  19.573  13.060
19743W        W79004   1.238  39.477   2.689
19744W        W79005  40.838  22.054   1.268
19745W        W79006  28.044   4.437  13.412
19746W        W79007  34.098   4.945   0.447
19747W        W79008  27.647  16.171  12.946
19748W        W79009  42.935  20.081   2.828
19749W        W79010  14.254  27.639   0.749
19750W        W79011  12.801  38.025   0.441
19751W        W79012  10.268  38.959   3.764
19752W        W79013  44.989   1.773   0.882
19753W        W79014  16.157  22.196  14.839
19754W        W79015  44.755  13.113   0.906
19755W        W79016  30.436  34.373   2.747
19756W        W79017   2.235  36.488   1.408
19757W        W79018   4.789  31.144   0.273
19758W        W79019  40.329  13.121  11.044
19759W        W79020  15.580  14.686  12.482
19760W        W79021  19.603  41.447   1.903
19761W        W79022   3.722  28.152  13.921
19762W        W79023  14.206  24.594  14.981
19763W        W79024  22.729   7.720   3.710
19764W        W79025  13.834  42.364  11.500
19765W        W79026  17.254   3.432  13.443
19766W        W79027  37.493  24.581   1.347
19767W        W79028  19.673  14.738  13.384
19768W        W79029  19.043  19.176   2.180
19769W        W79030  10.701  33.061  14.942
19770W        W79031  18.154   7.172  12.464
19771W        W79032  24.564  38.429   1.760
19772W        W79033  22.710  25.483  13.919
19773W        W79034  26.142  11.862  10.937
19774W        W79035  25.980  15.240  11.993
19775W        W79036  15.232  27.146  13.994
19776W        W79037  13.273  31.929   3.696
19777W        W79038  14.616  17.623  14.959
19778W        W79039  35.076   1.909  12.505
19779W        W79040   3.718   5.806   3.741
19780W        W79041  12.258   1.288   0.408
19781W        W79042  21.060  15.304   2.273
19782W        W79043   5.240  27.103   1.222
19783W        W79044  24.623  28.158   2.756
19784W        W79045  31.490  14.280   4.289
19785W        W79046   2.839   9.721   9.448
19786W        W79047  11.327  20.602  14.376
19787W        W79048  38.896  39.510  14.407
19788W        W79049   7.303  30.623   2.253
19789W        W79050  29.951  44.495   1.863
19790W        W79051  44.373  41.925   1.210
19791W        W79052  13.763  31.923  12.087
19792W        W79053  34.928   6.709   0.816
19793W        W79054  10.721  30.143  10.590
19794W        W79055  24.492  17.177   0.258
19795W        W79056  16.168  17.761  14.422
19796W        W79057  43.511  24.996  11.609
19797W        W79058  23.726  20.620  11.884
19798W        W79059   6.417  44.353   3.154
19799W        W79060   1.929  17.678   0.383
19800W        W79061  13.130  35.909   3.330
19801W        W79062   2.855  23.123   4.272
19802W        W79063  29.573  38.330   1.301
19803W        W79064  44.325  35.946  13.511
19804W        W79065  38.516  36.503  13.047
19805W        W79066  10.370   7.388  10.889
19806W        W79067  37.036  32.966   1.888
19807W        W79068   0.818   0.292   0.874
19808W        W79069  24.623   4.918   4.216
19809W        W79070   5.277  33.473   3.759
19810W        W79071  38.366  23.493   1.307
19811W        W79072  30.518  21.061  12.986
19812W        W79073  13.711  28.587  10.893
19813W        W79074  30.609  12.849  12.893
19814W        W79075  44.799  10.288  11.881
19815W        W79076  36.982  35.046  13.906
19816W        W79077  20.147  37.394   1.868
19817W        W79078  28.636  39.547   2.728
19818W        W79079   0.367  10.858  10.907
19819W        W79080   4.799  10.280   4.298
19820W        W79081  25.630  36.380   1.422
19821W        W79082  38.511   1.389   4.775
19822W        W79083   5.888   4.782   3.261
19823W        W79084   4.714  38.060   2.692
19824W        W79085  42.936  26.053   4.321
19825W        W79086  17.779   3.340  14.789
19826W        W79087  11.253  44.932   2.348
19827W        W79088  34.119   8.865   4.341
19828W        W79089   2.869  44.930  11.982
19829W        W79090   3.900  39.904   1.904
19830W        W79091  44.470  15.794   2.399
19831W        W79092  37.920  12.307   1.915
19832W        W79093   7.874  32.519   1.747
19833W        W79094  34.916  14.197   4.731
19834W        W79095  43.409  19.090  10.485
19835W        W79096  41.988  42.396  12.379
19836W        W79097  40.400  28.034   1.731
19837W        W79098  43.377   1.389   0.450
19838W        W79099  15.183   8.691   2.359
19839W        W79100  44.934  37.337   2.784
19840W        W79101   0.798   8.795  10.013
19841W        W79102  10.245  29.175   4.748
19842W        W79103  24.089  10.252  11.879
19843W        W79104   9.386  22.716  10.485
19844W        W79105   2.786  15.261  10.991
19845W        W79106  12.776  28.435  11.606
19846W        W79107  21.201  16.798   1.331
19847W        W79108   7.349  35.886  13.887
19848W        W79109  38.375  38.848   2.263
19849W        W79110  37.953  30.077  12.853
19850W        W79111  42.473  35.949   5.288
19851W        W79112   7.709   5.726  14.860
19852W        W79113   8.669  10.699  11.564
19853W        W79114  39.980   5.286  10.493
19854W        W79115  37.067  10.871  12.838
19855W        W79116  44.869  44.855  12.828
19856W        W79117  36.569  24.009  12.511
19857W        W79118  33.981   6.814   0.940
19858W        W79119   9.187  20.606  10.981
19859W        W79120  36.957  36.048  12.063
19860W        W79121  11.160  12.723  12.982
19861W        W79122  40.864  15.318   4.176
19862W        W79123  20.615  39.932  11.567
19863W        W79124   0.477  28.471   2.197
19864W        W79125   3.457   7.249  11.919
19865W        W79126   2.406   7.871   1.916
19866W        W79127  30.624  43.934   2.332
19867W        W79128  37.372  23.733  13.439
19868W        W79129  25.004  21.197   2.219
19869W        W79130  38.421  39.338   4.725
19870W        W79131  14.678  31.424   9.959
19871W        W79132  30.908  33.087  12.956
19872W        W79133  16.274   8.733  11.931
19873W        W79134  10.810  13.326   2.884
19874W        W79135  13.140  10.222  10.024
19875W        W79136  43.407  23.047  13.896
19876W        W79137  18.219   3.767   1.355
19877W        W79138  19.116  39.827   3.711
19878W        W79139  35.086   5.709  13.414
19879W        W79140   8.276  42.363   3.817
19880W        W79141  38.939  37.033   4.770
19881W        W79142  27.508  32.506   4.672
19882W        W79143  13.750  31.975   2.212
19883W        W79144   7.301   0.432  11.519
19884W        W79145   4.420  40.816   3.287
19885W        W79146  25.112  36.050  14.931
19886W        W79147   1.747  19.704   4.652
19887W        W79148  23.609  10.765   0.462
19888W        W79149  43.494  42.519  14.481
19889W        W79150  12.726  27.680  13.064
19890W        W79151  38.931   0.381  12.354
19891W        W79152  40.378  24.635  12.566
19892W        W79153  32.975  36.878  10.907
19893W        W79154   3.327  44.004   4.609
19894W        W79155  17.070  15.244   2.205
19895W        W79156  24.658   7.684   1.277
19896W        W79157  41.351  31.982  13.335
19897W        W79158  17.637  40.946   4.639
19898W        W79159  31.100  28.050   4.605
19899W        W79160  36.902  20.105  13.033
19900W        W79161   7.896   4.854  13.956
19901W        W79162  15.665  42.400   3.230
19902W        W79163  42.358   7.390   1.223
19903W        W79164  42.317  34.599   2.794
19904W        W79165  20.154  23.703  12.579
19905W        W79166   6.845  27.450  11.123
19906W        W79167  11.212   8.401  13.865
19907W        W79168  23.665  34.888  10.407
19908W        W79169  27.142  23.036  11.941
19909W        W79170   2.399  26.471   9.993
19910W        W79171  15.100  29.038  13.031
19911W        W79172  18.768  19.182   4.722
19912W        W79173  23.727  15.323   1.897
19913W        W79174  30.059  22.115   4.659
19914W        W79175  10.139   9.770   0.379
19915W        W79176  16.647  23.171  12.970
19916W        W79177  42.447  12.308   2.256
19917W        W79178  22.194   4.747  12.073
19918W        W79179   5.217  28.029   4.333
19919W        W79180  12.340   5.808   2.227
19920W        W79181  30.019  26.567  13.890
19921W        W79182  12.278  36.580  13.984
19922W        W79183  36.483  32.050   1.838
19923W        W79184  24.140  27.549   0.275
19924W        W79185  26.621  15.289   4.774
19925W        W79186  27.967  15.281  10.413
19926W        W79187   7.801  37.527   5.182
19927W        W79188   7.214   3.926  14.468
19928W        W79189  33.598  43.920  14.283
19929W        W79190   7.235  42.356  14.305
19930W        W79191   9.158  36.352  14.510
19931W        W79192  12.177  36.530   2.893
19932W        W79193   8.247  29.040   1.336
19933W        W79194   5.335  23.139  14.791
19934W        W79195  19.752   1.305  12.429
19935W        W79196  41.349  40.908   1.355
19936W        W79197  10.754  15.701   3.291
19937W        W79198  23.207  20.172  13.901
19938W        W79199  26.665  24.204  14.400
19939W        W79200   9.841  20.606  14.481
19940W        W79201   0.282   7.373  14.380
19941W        W79202  25.166  22.035  10.578
19942W        W79203  13.667  32.406   0.845
19943W        W79204  14.762   0.753  14.429
19944W        W79205  34.930  34.983  11.603
19945W        W79206  18.169  36.557  11.566
19946W        W79207  11.276  44.794   3.291
19947W        W79208  25.697  43.951  14.942
19948W        W79209  38.955  12.160   4.210
19949W        W79210  32.003   1.767   0.279
19950W        W79211  35.471   3.748   3.664
19951W        W79212  34.954   4.265  14.919
19952W        W79213   0.462  36.847   3.845
19953W        W79214   9.766   5.729   3.865
19954W        W79215  23.683  16.235   3.779
19955W        W79216  30.115  24.011   1.385
19956W        W79217  24.173  24.681   0.876
19957W        W79218   1.379  36.045   1.934
19958W        W79219  42.829  23.132  10.494
19959W        W79220  12.252   0.968   3.669
19960W        W79221  31.540  29.617  12.517
19961W        W79222  35.088  34.551  14.792
19962W        W79223  28.029  15.748  12.481
19963W        W79224   5.827  33.885   3.768
19964W        W79225  41.866  37.555   1.412
19965W        W79226   7.355  43.470   0.269
19966W        W79227  10.353  35.089   3.635
19967W        W79228  24.177  10.831   4.331
19968W        W79229   9.830  10.307  10.615
19969W        W79230   6.805   3.433   4.135
19970W        W79231  42.018  21.581  14.793
19971W        W79232  29.551  34.958  11.495
19972W        W79233  30.443   3.355  11.396
19973W        W79234   2.764  29.599   1.697
19974W        W79235  16.230  16.153  12.986
19975W        W79236  12.845   0.362   3.767
19976W        W79237   6.400   2.760  12.051
19977W        W79238   5.791  29.611  10.434
19978W        W79239  27.031   9.391   4.146
19979W        W79240  13.311  30.475  11.903
19980W        W79241  29.999  43.389  11.467
19981W        W79242  38.510  22.565  11.535
19982W        W79243   2.837   4.387   1.818
19983W        W79244   6.877  41.970   0.810
19984W        W79245  30.436  24.029   4.761
19985W        W79246  40.015  25.611   0.793
19986W        W79247   9.222  43.891  14.942
19987W        W79248  25.140  30.987   4.144
19988W        W79249  42.509  24.215  11.399
19989W        W79250   5.410   8.264   3.782
19990W        W79251  14.278  20.265  13.028
19991W        W79252  39.448  24.044   3.279
19992W        W79253  33.489   5.827   1.752
19993W        W79254  13.674   9.717   0.751
19994W        W79255  11.182   7.221  14.979
19995W        W79256  14.732  16.140   3.691
19996W        W79257  29.985  14.145  11.469
19997W        W79258  25.710   4.286  11.508
19998W        W79259   0.965  22.535  10.424
19999W        W79260  14.730   5.872   2.764
20000W        W79261  35.579  11.191  14.021
20001W        W79262   1.446   7.210   0.404
20002W        W79263  27.565  12.160  14.928
20003W        W79264  20.253  15.718   4.255
20004W        W79265  20.684  14.124  14.373
20005W        W79266   1.350   5.307   4.608
20006W        W79267  15.259   1.788   3.286
20007W        W79268  27.078  30.158   3.791
20008W        W79269  16.171  37.061  13.836
20009W        W79270  30.529  32.118  13.530
20010W        W79271  28.135  10.255  12.045
20011W        W79272  42.875  28.144  13.418
20012W        W79273  27.943  24.719  12.470
20013W        W79274  44.891  30.621  11.020
20014W        W79275  32.141  39.906  11.117
20015W        W79276  21.544   5.276   2.417
20016W        W79277  21.028   0.308   1.412
20017W        W79278  18.097  18.593  13.444
20018W        W79279   0.910   1.354   0.417
20019W        W79280   2.411  26.163   0.251
20020W        W79281  17.296  33.973  10.579
20021W        W79282   4.353  37.934   3.852
20022W        W79283  42.337  37.938  10.447
20023W        W79284  40.315  25.096  14.895
20024W        W79285  11.237  19.249  11.927
20025W        W79286  41.996   8.868   2.705
20026W        W79287  17.207  11.269  13.427
20027W        W79288  42.282  39.975   3.352
20028W        W79289  35.094  24.201  11.872
20029W        W79290  16.253  31.144  11.067
20030W        W79291  16.576  16.183   0.735
20031W        W79292   2.470  28.995  11.413
20032W        W79293  21.664   6.728  13.470
20033W        W79294  15.309   0.810   4.274
20034W        W79295  37.522  33.484   3.690
20035W        W79296   0.477  40.029   0.459
20036W        W79297  27.193  16.269   4.682
20037W        W79298  32.019   8.339  10.602
20038W        W79299   7.761  42.973   9.997
20039W        W79300   5.323  11.810   2.239
20040W        W79301  31.102  36.402   0.738
20041W        W79302  44.999  12.831  11.600
20042W        W79303  28.021   0.451  14.952
20043W        W79304  10.281  15.105   1.808
20044W        W79305  15.667  20.226   1.330
20045W        W79306   6.916   7.303   1.308
20046W        W79307   6.694  12.840   2.662
20047W        W79308  20.546  10.703   1.714
20048W        W79309  36.028  14.194  12.355
20049W        W79310  17.237   7.304  10.619
20050W        W79311  41.333   7.283  11.067
20051W        W79312   3.884  30.912   3.735
20052W        W79313   4.376  32.940  11.878
20053W        W79314  32.073  33.062  11.445
20054W        W79315  26.962  18.663   4.270
20055W        W79316  21.601  33.028  13.967
20056W        W79317   3.738  18.599  13.987
20057W        W79318   7.788  42.016  14.293
20058W        W79319  29.626  13.840   1.849
20059W        W79320   3.805  31.004   1.717
20060W        W79321  12.831  22.162  10.942
20061W        W79322   0.459   0.864   3.303
20062W        W79323   2.255   3.905   2.379
20063W        W79324  28.538  36.843  13.058
20064W        W79325   3.907  41.813   4.612
20065W        W79326  26.663  37.033  12.051
20066W        W79327  15.651  39.530  10.598
20067W        W79328  43.471  16.761   2.734
20068W        W79329   4.251  20.159  11.574
20069W        W79330  39.933  30.513  12.423
20070W        W79331  31.096  18.545   5.259
20071W        W79332  30.458  22.007  13.821
20072W        W79333   3.269   6.865   2.311
20073W        W79334  23.501  34.513  13.414
20074W        W79335  16.271  28.050   0.420
20075W        W79336  21.139  17.229   2.733
20076W        W79337  12.310  28.503   1.439
20077W        W79338  36.901  16.682  14.385
20078W        W79339   1.832  35.858  10.971
20079W        W79340  29.459  27.633   1.820
20080W        W79341  14.645  38.329  14.293
20081W        W79342  18.285  15.673  13.366
20082W        W79343  25.016  11.640   0.834
20083W        W79344  41.348  30.981   4.651
20084W        W79345  17.718  17.678  13.836
20085W        W79346  39.863  22.737  13.890
20086W        W79347  31.998  35.427   9.675
20087W        W79348  38.858   0.745   1.906
20088W        W79349   7.758  18.147  12.886
20089W        W79350   6.308  26.527   2.362
20090W        W79351  23.601  42.517   3.203
20091W        W79352   9.742  44.387   0.731
20092W        W79353   2.326  22.567   4.813
20093W        W79354  40.374  34.562  11.037
20094W        W79355   2.723   6.711  13.453
20095W        W79356  28.160  40.853   3.721
20096W        W79357  24.017   5.290   2.315
20097W        W79358  27.038  43.908   4.800
20098W        W79359  14.294  22.110   3.732
20099W        W79360  10.645  15.783   4.116
20100W        W79361  24.601  19.111  10.435
20101W        W79362  13.334  35.013  14.408
20102W        W79363  27.448   8.853  13.474
20103W        W79364   6.822  20.691  12.479
20104W        W79365  23.643  15.091  12.932
20105W        W79366  35.983  20.233   5.134
20106W        W79367  33.394  23.569  12.380
20107W        W79368  31.411  35.582  11.018
20108W        W79369  30.505   3.826   0.332
20109W        W79370  17.116   3.261  10.063
20110W        W79371  29.061  25.566  13.977
20111W        W79372  33.934  16.181   0.842
20112W        W79373  23.105  16.148   4.811
20113W        W79374  41.905  44.440   0.391
20114W        W79375  17.127  17.175   5.137
20115W        W79376   1.283   5.931  12.049
20116W        W79377   2.324  21.023   3.201
20117W        W79378  23.039   4.249  11.906
20118W        W79379  21.243  15.660   3.183
20119W        W79380  26.153   1.954  13.816
20120W        W79381  25.513  40.394  13.844
20121W        W79382  31.535   0.355  14.426
20122W        W79383   9.739  34.001  14.408
20123W        W79384   4.740   3.817   3.178
20124W        W79385  16.246  26.015   0.275
20125W        W79386  36.976   8.368  12.007
20126W        W79387  11.749  33.020  14.775
20127W        W79388  43.812   9.653  11.414
20128W        W79389  14.113  35.533   2.356
20129W        W79390   6.210  30.950   0.292
20130W        W79391  12.251  13.758  13.366
20131W        W79392  41.899  28.960   2.219
20132W        W79393   7.732   4.723   1.348
20133W        W79394  24.047   4.292   3.800
20134W        W79395  10.815   5.775  11.504
20135W        W79396  43.304  21.065  10.988
20136W        W79397   4.791  28.599  11.433
20137W        W79398   8.676  44.787  10.560
20138W        W79399  21.163  13.297  10.991
20139W        W79400  12.838  27.495  13.913
20140W        W79401   2.879  16.737  11.958
20141W        W79402  37.963  26.519  11.431
20142W        W79403  33.545   6.842  12.443
20143W        W79404  29.519  30.069  13.402
20144W        W79405  23.717  32.104   3.815
20145W        W79406   5.860   9.310   5.738
20146W        W79407  13.731  39.014   3.334
20147W        W79408  14.662  42.470   4.650
20148W        W79409  22.598  36.493   1.225
20149W        W79410  23.618  44.389  11.522
20150W        W79411   3.761   7.770   1.771
20151W        W79412  28.582  44.459   3.818
20152W        W79413  15.103  38.036  11.536
20153W        W79414  19.111  10.373   2.248
20154W        W79415  27.449  22.058  14.801
20155W        W79416  32.923  21.028   2.409
20156W        W79417  35.903  10.685   3.216
20157W        W79418  41.382  17.744  11.545
20158W        W79419   5.783  28.961  12.492
20159W        W79420  44.299  17.303   4.754
20160W        W79421  34.882  28.597  13.024
20161W        W79422  37.931  24.149   3.814
20162W        W79423   5.416  36.079   0.858
20163W        W79424  27.125   7.257  13.356
20164W        W79425   1.324   3.314  10.521
20165W        W79426   4.725   4.894   3.826
20166W        W79427   6.193  24.575  12.831
20167W        W79428   6.321   7.288  14.402
20168W        W79429   1.774  42.306   0.372
20169W        W79430  39.894  22.692  12.364
20170W        W79431   1.348   4.825   4.742
20171W        W79432   8.822   7.889  12.032
20172W        W79433  21.043   8.775  14.792
20173W        W79434  33.029   4.421   3.163
20174W        W79435  22.191  25.978  10.917
20175W        W79436  30.127  35.873   0.733
20176W        W79437  37.339  36.986   2.668
20177W        W79438  12.716  34.957   2.310
20178W        W79439  38.416  44.795   4.636
20179W        W79440  13.187  34.578  13.060
20180W        W79441  23.080  34.607   0.753
20181W        W79442   0.445  25.017   0.412
20182W        W79443  37.854  38.023   3.307
20183W        W79444   2.333  44.885  11.533
20184W        W79445  20.162  13.297   3.854
20185W        W79446  32.103   5.830  11.951
20186W        W79447  30.025  10.676   3.682
20187W        W79448  18.675  43.956   3.232
20188W        W79449  44.296  36.848   1.740
20189W        W79450  39.428   7.350   3.690
20190W        W79451  26.101   5.813  14.961
20191W        W79452  19.224   3.754   0.742
20192W        W79453  24.556  24.125  11.436
20193W        W79454  13.229   1.351   3.195
20194W        W79455  32.537  31.922   2.239
20195W        W79456  20.620  28.621   1.422
20196W        W79457   9.343  37.493  14.860
20197W        W79458  14.794  10.383   1.217
20198W        W79459  35.999  27.049  13.352
20199W        W79460  22.117  13.632  13.463
20200W        W79461  32.412  22.114   1.341
20201W        W79462  14.748  27.077  12.977
20202W        W79463  26.469  36.945  10.565
20203W        W79464   0.330   9.834   3.319
20204W        W79465  21.177   8.874   0.934
20205W        W79466   7.235   2.886   2.181
20206W        W79467  11.646  40.817  12.522
20207W        W79468  19.690  41.520  14.412
20208W        W79469  12.287   2.235  11.437
20209W        W79470  36.972  22.189   2.818
20210W        W79471  35.597  41.520  13.966
20211W        W79472  11.653  23.652  13.960
20212W        W79473  22.595  11.785   3.662
20213W        W79474  12.815  42.885  10.457
20214W        W79475  14.141  34.532  11.053
20215W        W79476  11.758  36.475  14.426
20216W        W79477  17.619  12.616   0.850
20217W        W79478  17.594  34.924   3.224
20218W        W79479  11.802  23.185   2.363
20219W        W79480  20.264   5.214   0.893
20220W        W79481  22.735   0.761   3.235
20221W        W79482  16.202  24.138   3.347
20222W        W79483  38.439   4.782  10.507
20223W        W79484  26.570  32.469  13.495
20224W        W79485  22.142  40.469  12.386
20225W        W79486  37.414   5.783   4.222
20226W        W79487  40.441   0.952   4.718
20227W        W79488   1.288  32.432   2.890
20228W        W79489  23.188  38.838  12.930
20229W        W79490  13.140  28.673  13.359
20230W        W79491  35.872  42.527   3.867
20231W        W79492   8.670  19.199   2.239
20232W        W79493  38.027  21.523  10.535
20233W        W79494  18.119  38.523  10.449
20234W        W79495  16.626  40.544  12.964
20235W        W79496  39.866  29.619  14.852
20236W        W79497  16.626  34.961  10.585
20237W        W79498  18.702  13.308   3.187
20238W        W79499  32.985   7.803   3.203
20239W        W79500  28.033  23.209  12.920
20240W        W79501   4.857   6.837   9.602
20241W        W79502  34.058  22.141  11.606
20242W        W79503   3.290  44.348  11.970
20243W        W79504  24.537  14.825   4.165
20244W        W79505   1.430  39.896   2.252
20245W        W79506  24.151  39.913   1.430
20246W        W79507  19.621  33.420   5.303
20247W        W79508  31.049  24.033  12.924
20248W        W79509   2.352  15.269   0.324
20249W        W79510   0.270  24.712   3.207
20250W        W79511  13.142  34.612   1.266
20251W        W79512  16.173  29.433  13.495
20252W        W79513  11.172  22.079   0.441
20253W        W79514  42.878  28.972   1.229
20254W        W79515  11.777  44.767   2.395
20255W        W79516  38.456   5.841  14.008
20256W        W79517   7.787  21.578   0.369
20257W        W79518  42.319  36.970  11.939
20258W        W79519  28.638  16.668  13.400
20259W        W79520  10.322   6.921   2.321
20260W        W79521  30.058  37.846  14.901
20261W        W79522   7.842   7.314  11.608
20262W        W79523  18.096  44.264  13.916
20263W        W79524   2.343  25.121  13.998
20264W        W79525  28.935   0.862  13.060
20265W        W79526  14.144   0.855   3.724
20266W        W79527  21.205  12.716   1.705
20267W        W79528   6.343  31.513   1.370
20268W        W79529  32.121  28.675  14.282
20269W        W79530  39.500  19.547  10.460
20270W        W79531   4.725  36.018   0.773
20271W        W79532  44.359  11.717   3.249
20272W        W79533  28.619   2.786  12.831
20273W        W79534  37.887  14.802   2.716
20274W        W79535  13.248  21.633  11.475
20275W        W79536  41.873  20.546  12.523
20276W        W79537  21.038  39.951  11.114
20277W        W79538   8.804   5.300   3.816
20278W        W79539   8.847  33.065   4.265
20279W        W79540  14.326  11.812   4.302
20280W        W79541  28.133  15.717   0.851
20281W        W79542  33.009  31.497   4.344
20282W        W79543  38.928   6.702   0.851
20283W        W79544  42.989  20.591  10.099
20284W        W79545  20.691  12.835  10.555
20285W        W79546  14.639  34.501   4.617
20286W        W79547  27.074  10.743   4.334
20287W        W79548  12.789  33.527   1.340
20288W        W79549   2.788  43.477   4.183
20289W        W79550   1.358  32.501   3.370
20290W        W79551  43.957  41.010   0.457
20291W        W79552  43.334  22.579  14.879
20292W        W79553  11.666  10.295   3.830
20293W        W79554  43.005  22.113   3.206
20294W        W79555   1.322  41.992   0.913
20295W        W79556  17.798  17.764   2.385
20296W        W79557   1.353  42.346   3.219
20297W        W79558  40.902  16.616   4.623
20298W        W79559  10.244  31.430   1.733
20299W        W79560  19.112  15.678  14.852
20300W        W79561  25.486  16.662  11.046
20301W        W79562   2.813   0.354   1.905
20302W        W79563  42.000  15.252   4.616
20303W        W79564  36.363  37.346  12.452
20304W        W79565  18.641  38.942  12.019
20305W        W79566  26.467  20.209   3.765
20306W        W79567  39.910  37.007  14.449
20307W        W79568  42.025   5.896  10.622
20308W        W79569  44.324  40.346   5.300
20309W        W79570  38.948  40.528  11.070
20310W        W79571  35.517   0.366  12.936
20311W        W79572  31.492   3.777  14.836
20312W        W79573  32.974   7.730  10.918
20313W        W79574  34.555   9.811   2.791
20314W        W79575  22.055  43.501   2.873
20315W        W79576  22.607  38.374  12.853
20316W        W79577  11.859  10.333  13.967
20317W        W79578  13.209  21.112  11.515
20318W        W79579   4.777   3.821  14.319
20319W        W79580  17.110  14.330  10.059
20320W        W79581   1.905   1.928  11.013
20321W        W79582   6.855  13.280  13.418
20322W        W79583  41.017  44.380  10.631
20323W        W79584  18.143  28.664  13.863
20324W        W79585  16.638  42.804  13.052
20325W        W79586  14.143  34.591  12.868
20326W        W79587  18.643  41.841  11.924
20327W        W79588   9.813  12.670   4.141
20328W        W79589   2.739  24.136   1.707
20329W        W79590   9.727   9.839  14.331
20330W        W79591  43.986   4.755  11.062
20331W        W79592  41.389  37.905   3.634
20332W        W79593   8.809  32.053   3.342
20333W        W79594   5.727  15.281  14.765
20334W        W79595  39.390   9.737  13.039
20335W        W79596  43.769  32.615  12.522
20336W        W79597  35.445  12.201  14.276
20337W        W79598   6.904  33.407   1.824
20338W        W79599  29.604  10.806  11.891
20339W        W79600   5.228  35.957  12.854
20340W        W79601  44.351   2.319  10.948
20341W        W79602  28.507   3.718  11.875
20342W        W79603  39.051   1.264   1.903
20343W        W79604  16.599  16.139  11.412
20344W        W79605  36.964  28.074   3.684
20345W        W79606   5.407  27.020  14.483
20346W        W79607  15.083  28.116   1.767
20347W        W79608   8.351  25.486  13.967
20348W        W79609  18.777  11.338   4.734
20349W        W79610  41.809   7.360   5.091
20350W        W79611  13.673  16.784   0.261
20351W        W79612  23.508  39.549   2.753
20352W        W79613  14.739  24.121  13.387
20353W        W79614   1.805   6.698  13.515
20354W        W79615  11.373  27.093   3.186
20355W        W79616   3.804   6.701   0.757
20356W        W79617  12.813   5.755  11.991
20357W        W79618  29.076  28.656  10.637
20358W        W79619  36.035  37.888  12.894
20359W        W79620  40.334  18.739  13.875
20360W        W79621  40.915   9.653  10.556
20361W        W79622  41.457  10.678  10.614
20362W        W79623  19.771  18.251  14.954
20363W        W79624  30.622   7.404   0.844
20364W        W79625  43.996  16.086  10.481
20365W        W79626  22.739  14.826  11.066
20366W        W79627  33.922  38.370  12.535
20367W        W79628   3.712  22.712  11.866
20368W        W79629  29.139   4.404   3.306
20369W        W79630  40.936  40.442  13.987
20370W        W79631  20.718  35.885  13.439
20371W        W79632  35.582  27.942  12.831
20372W        W79633  38.497  27.010   3.840
20373W        W79634  11.186  39.527  13.409
20374W        W79635  30.528  13.280   4.717
20375W        W79636   4.720  12.178  13.009
20376W        W79637  23.041  40.304   1.913
20377W        W79638  25.171  40.403   1.377
20378W        W79639  23.540  10.202  13.963
20379W        W79640   4.242   7.399   3.382
20380W        W79641  39.407  14.751   3.280
20381W        W79642   1.888  31.138  14.425
20382W        W79643  29.130   7.238   4.275
20383W        W79644  36.892  39.347  12.478
20384W        W79645  11.664  21.159   0.251
20385W        W79646  37.479   5.717  13.948
20386W        W79647   0.759  34.523   3.680
20387W        W79648  12.230  20.118  14.361
20388W        W79649   7.339  15.231   1.238
20389W        W79650  16.673  28.503   3.823
20390W        W79651  31.055  39.851  14.397
20391W        W79652  23.670  11.271  10.550
20392W        W79653  22.557   4.372   4.814
20393W        W79654   8.247  13.152  10.609
20394W        W79655  25.056  42.932   2.179
20395W        W79656  32.065   3.922   4.633
20396W        W79657   0.397  43.317   0.387
20397W        W79658  40.938   5.271  11.060
20398W        W79659  38.012   5.763  12.995
20399W        W79660   3.375  35.936  10.440
20400W        W79661  35.931  30.145  13.386
20401W        W79662   5.229   0.762   2.400
20402W        W79663   3.328  16.731  14.762
20403W        W79664  42.307  10.722   4.321
20404W        W79665  41.369   3.217   1.428
20405W        W79666  14.175  21.690  13.837
20406W        W79667  26.034  11.320  11.888
20407W        W79668   7.326  14.339   0.760
20408W        W79669  12.164  38.064   3.245
20409W        W79670  13.117  28.650   5.757
20410W        W79671  28.635  38.005   2.227
20411W        W79672  35.399  27.063  11.612
20412W        W79673  43.404  23.707   3.286
20413W        W79674  10.321  35.948  12.506
20414W        W79675   0.291  27.562  13.858
20415W        W79676  10.179   2.365  13.336
20416W        W79677  12.296  19.106  11.456
20417W        W79678   1.329  28.614  14.295
20418W        W79679  17.768  31.060  10.508
20419W        W79680  30.996  25.603  13.441
20420W        W79681  33.109  18.289  14.949
20421W        W79682   3.761   2.436   2.810
20422W        W79683  40.937  38.559   1.854
20423W        W79684  38.987  14.713   3.209
20424W        W79685  15.629  27.464   3.200
20425W        W79686  37.884  23.663   4.196
20426W        W79687  36.507  36.942  12.346
20427W        W79688  38.414  36.056   0.868
20428W        W79689  14.279  15.589  12.049
20429W        W79690  13.200  39.866  12.397
20430W        W79691  15.235  17.565  14.401
20431W        W79692  26.500   1.775  11.091
20432W        W79693  19.651  44.474   5.284
20433W        W79694  38.892  24.608   2.676
20434W        W79695   5.707   0.351   1.303
20435W        W79696  26.003  15.815   4.206
20436W        W79697  43.816  14.738  11.606
20437W        W79698  32.995  11.362   3.787
20438W        W79699  11.351  18.138   4.232
20439W        W79700  24.547  29.172   4.304
20440W        W79701   0.292   9.869   0.885
20441W        W79702  41.434   8.777  11.443
20442W        W79703  23.097  16.663   0.751
20443W        W79704   2.464   0.871  14.788
20444W        W79705  26.529  24.641  11.939
20445W        W79706  33.626  31.431  10.428
20446W        W79707  11.631  44.763  10.412
20447W        W79708  25.078  23.229   1.333
20448W        W79709  26.134  32.949  11.064
20449W        W79710  30.908  31.479  11.127
20450W        W79711  24.603   5.288  11.983
20451W        W79712  21.160  29.077   0.315
20452W        W79713  42.949  34.546  10.457
20453W        W79714  32.466  26.118   1.872
20454W        W79715  17.220  15.278  12.430
20455W        W79716  26.519   0.397  13.528
20456W        W79717  16.086  38.063   1.434
20457W        W79718  26.537  38.855  12.917
20458W        W79719  36.354   7.313   1.796
20459W        W79720  41.430  31.596   0.322
20460W        W79721  38.822  11.137   0.481
20461W        W79722   7.221  43.357   1.916
20462W        W79723  27.553  24.663   5.216
20463W        W79724  24.530  43.923   0.811
20464W        W79725  28.492   2.413  14.995
20465W        W79726   3.729  12.155   4.344
20466W        W79727  35.891  33.007  14.354
20467W        W79728  28.029  12.832  12.979
20468W        W79729  27.115  32.564  12.492
20469W        W79730  41.798  43.821  11.917
20470W        W79731   5.702  27.583   4.643
20471W        W79732  14.713  18.750  14.989
20472W        W79733  25.683  44.835  13.996
20473W        W79734  30.627  41.516  13.062
20474W        W79735   3.720  43.444  11.529
20475W        W79736   5.913  32.910   2.836
20476W        W79737   4.304   7.174  12.410
20477W        W79738  43.849   1.887   4.342
20478W        W79739  23.524  10.250   0.787
20479W        W79740  16.705  30.073  12.042
20480W        W79741  14.302  41.040  11.582
20481W        W79742  16.597   2.335   3.358
20482W        W79743   4.327   7.239  14.488
20483W        W79744  30.491  37.343   1.921
20484W        W79745  43.832  10.281  14.390
20485W        W79746   9.712  29.639  10.545
20486W        W79747  42.359  28.455  11.014
20487W        W79748  28.180  14.800  10.549
20488W        W79749  22.709   4.326  11.089
20489W        W79750  34.411  43.396   4.694
20490W        W79751  41.828  24.678   2.234
20491W        W79752  20.621   3.242   1.227
20492W        W79753  34.406   6.272  13.332
20493W        W79754  18.585  19.070   5.608
20494W        W79755  29.617  13.322  11.890
20495W        W79756  16.104   8.368   3.709
20496W        W79757   3.915  21.717  14.770
20497W        W79758  30.072  25.199  10.463
20498W        W79759  20.679  35.015   0.907
20499W        W79760  38.466  15.815   0.431
20500W        W79761  15.320  44.467  10.608
20501W        W79762   5.772  16.186  11.554
20502W        W79763  19.628  21.617  12.951
20503W        W79764   3.931  29.023   0.839
20504W        W79765  28.584  36.364   1.323
20505W        W79766  14.616   9.746  11.929
20506W        W79767  26.565  43.461   3.844
20507W        W79768  29.608  12.785   2.183
20508W        W79769  11.713  16.683  14.916
20509W        W79770  39.552  38.378   1.312
20510W        W79771   1.952   3.255  11.051
20511W        W79772  31.996  25.550  13.318
20512W        W79773  43.789  37.938  12.553
20513W        W79774  12.169  31.444  12.888
20514W        W79775  29.502  11.197   0.341
20515W        W79776  27.144  43.943   3.226
20516W        W79777  42.861  38.909   2.731
20517W        W79778   4.319  17.638  10.934
20518W        W79779  35.974   4.396  10.533
20519W        W79780  40.509  25.196   2.900
20520W        W79781  24.658  25.638   3.818
20521W        W79782  22.205   5.780   3.865
20522W        W79783  34.929   6.373   2.868
20523W        W79784   0.958  27.992  13.806
20524W        W79785  24.601  10.305  12.402
20525W        W79786  33.905  40.052   0.403
20526W        W79787  29.994   4.216   1.314
20527W        W79788  23.217  38.044   4.232
20528W        W79789   8.222  12.774   0.878
20529W        W79790  17.575  31.987   1.924
20530W        W79791   5.407  26.537  11.581
20531W        W79792  12.302  27.196   0.796
20532W        W79793  12.352  35.010   3.722
20533W        W79794  33.940  22.240  13.314
20534W        W79795  11.771  25.486  14.967
20535W        W79796  32.100   8.860  10.017
20536W        W79797  14.219   1.858   1.717
20537W        W79798  16.569  37.347  14.339
20538W        W79799   5.862   3.860  10.416
20539W        W79800  27.972  14.099   1.447
20540W        W79801  25.471   2.942  10.448
20541W        W79802  34.006   7.726   2.247
20542W        W79803  13.176   3.358  13.397
20543W        W79804   4.330   1.733   0.352
20544W        W79805  19.681  29.114   5.276
20545W        W79806  22.171   3.287  14.278
20546W        W79807  27.471  23.026   3.171
20547W        W79808   3.283  31.938   0.340
20548W        W79809   7.764  23.216   1.422
20549W        W79810  44.329  12.352  13.321
20550W        W79811  12.836  24.638  14.848
20551W        W79812  25.677  24.566   1.362
20552W        W79813  41.920  20.151  12.000
20553W        W79814  34.945  42.453   0.889
20554W        W79815  36.420   3.283   3.196
20555W        W79816   9.180  10.148   0.386
20556W        W79817  36.845  33.907   3.193
20557W        W79818  20.091  29.639   0.899
20558W        W79819  25.060   7.415   1.834
20559W        W79820  44.499  24.175  10.990
20560W        W79821   7.346  23.075  14.910
20561W        W79822   0.783  18.689   2.746
20562W        W79823  36.989  38.050   0.798
20563W        W79824   7.206   1.261  11.581
20564W        W79825  44.842  25.713  14.858
20565W        W79826  33.096  35.046  13.038
20566W        W79827  13.199  31.403   3.195
20567W        W79828   3.224  22.517  12.968
20568W        W79829  30.625  23.085  13.911
20569W        W79830  12.284  32.979  14.860
20570W        W79831  29.619   2.838   3.222
20571W        W79832  20.194  22.117  14.915
20572W        W79833   3.347   7.887   2.681
20573W        W79834  42.906  40.505  13.492
20574W        W79835  30.935  17.090   1.829
20575W        W79836  17.798  38.425   3.191
20576W        W79837   0.745  38.064  14.026
20577W        W79838   6.342  24.227   2.814
20578W        W79839  13.834  31.579   2.405
20579W        W79840   7.766   1.803  11.588
20580W        W79841  10.216  38.872  13.997
20581W        W79842  29.988  10.316   0.865
20582W        W79843  42.893  18.134   3.663
20583W        W79844  28.606  30.566   3.645
20584W        W79845  36.068  31.899   0.880
20585W        W79846  11.252   1.257   0.938
20586W        W79847  34.966  37.560   5.092
20587W        W79848  20.581   3.777   2.203
20588W        W79849  35.953  38.329  13.399
20589W        W79850  18.753  32.582   0.317
20590W        W79851   5.338  19.260   3.753
20591W        W79852  18.551   1.396  13.960
20592W        W79853  17.595  32.416  12.945
20593W        W79854  16.179  24.225  10.955
20594W        W79855   1.764  35.034  11.509
20595W        W79856   6.413  33.119  13.520
20596W        W79857   3.350  40.546  12.996
20597W        W79858  25.034  10.778   4.311
20598W        W79859  20.267  31.452   2.701
20599W        W79860  20.762  14.213   3.319
20600W        W79861  21.719  19.102   0.408
20601W        W79862  40.362  34.893  14.329
20602W        W79863   9.322  24.719  11.482
20603W        W79864  42.004  19.239  11.471
20604W        W79865  40.937  32.961   0.733
20605W        W79866  22.515  33.922   1.212
20606W        W79867  13.105  12.666   1.745
20607W        W79868  26.130  12.308   1.852
20608W        W79869  41.790  16.288   0.731
20609W        W79870  21.249  37.964  10.990
20610W        W79871  19.128  43.791   4.152
20611W        W79872  17.306  31.625   1.258
20612W        W79873  11.824   7.905  12.966
20613W        W79874  33.499   2.449  10.465
20614W        W79875   6.277  31.136   0.814
20615W        W79876   0.824  19.547   4.251
20616W        W79877  26.140  43.769  11.594
20617W        W79878  14.657  32.477   3.284
20618W        W79879  21.240  13.285  12.372
20619W        W79880  32.508  17.149   3.297
20620W        W79881  35.544   4.786   0.832
20621W        W79882  30.008  12.161   3.814
20622W        W79883  40.339  25.163  12.366
20623W        W79884   6.299  35.023  11.522
20624W        W79885   5.436  14.682  14.830
20625W        W79886   1.439  27.949  13.820
20626W        W79887   3.907  28.997   2.752
20627W        W79888  20.604   6.902   3.205
20628W        W79889  14.107  43.345  14.824
20629W        W79890  11.798  27.559  11.433
20630W        W79891   7.882  30.426  14.435
20631W        W79892  44.316   5.213  12.506
20632W        W79893  22.569  19.276   3.226
20633W        W79894  26.116   3.346  12.528
20634W        W79895  25.040   4.355   0.343
20635W        W79896  28.006  21.216  13.329
20636W        W79897  19.039   0.892  14.311
20637W        W79898   1.940  30.501   1.793
20638W        W79899   1.943  20.072  11.029
20639W        W79900  43.459  16.736   2.233
20640W        W79901  11.362  42.311  11.015
20641W        W79902  33.054  19.187  10.639
20642W        W79903  13.174  34.428  10.954
20643W        W79904   4.941  16.106   2.667
20644W        W79905   6.380  29.473   4.119
20645W        W79906   2.444   3.454  14.499
20646W        W79907  20.666  16.186  12.489
20647W        W79908  38.521  39.323   9.438
20648W        W79909   4.757  20.086   1.714
20649W        W79910  23.682  38.863  11.941
20650W        W79911  41.309  34.527  11.419
20651W        W79912  38.059   7.765   3.255
20652W        W79913   6.739  22.194   4.149
20653W        W79914  31.996   4.222   2.178
20654W        W79915   7.817  27.541  11.936
20655W        W79916  13.198  21.193   1.404
20656W        W79917  24.108  19.664   0.457
20657W        W79918  15.327  35.937   3.831
20658W        W79919  11.840  33.129   3.632
20659W        W79920   0.942  12.669   2.740
20660W        W79921  14.685  44.350   4.261
20661W        W79922  14.200   0.415  13.846
20662W        W79923  27.940  15.133  14.291
20663W        W79924   2.354  10.280   5.179
20664W        W79925  14.707  38.415  13.338
20665W        W79926   4.845  11.822   0.393
20666W        W79927  17.628  35.598   0.849
20667W        W79928   8.883   5.750  14.764
20668W        W79929  42.988  23.729  10.456
20669W        W79930  10.685   2.739   2.705
20670W        W79931  22.235  37.938  13.976
20671W        W79932  39.536  30.469  13.829
20672W        W79933  21.745  15.671  11.564
20673W        W79934  24.627  27.637   0.314
20674W        W79935  23.186  31.449  14.029
20675W        W79936  28.136  24.165  10.963
20676W        W79937  35.392  25.170  14.879
20677W        W79938  40.334  33.992  11.023
20678W        W79939  42.378  43.345   0.330
20679W        W79940  27.463   3.920  10.610
20680W        W79941  13.813  20.164   2.891
20681W        W79942  13.621  26.587   1.926
20682W        W79943   3.342  34.607  11.455
20683W        W79944  37.565  30.436  12.347
20684W        W79945  25.633  40.547  10.562
20685W        W79946  41.377  12.638   0.316
20686W        W79947  21.571  22.172  11.396
20687W        W79948  20.154   0.870  11.036
20688W        W79949   8.722  29.538  14.027
20689W        W79950  25.145  12.117   2.687
20690W        W79951  25.019   7.771  11.888
20691W        W79952  21.753  42.407   4.314
20692W        W79953   3.736  36.044  13.883
20693W        W79954  14.283  37.555   1.389
20694W        W79955  28.448  44.989  13.023
20695W        W79956   7.175  35.937  11.535
20696W        W79957  26.660  24.500  14.811
20697W        W79958  40.356   5.321  10.587
20698W        W79959  27.085  10.252   1.344
20699W        W79960   7.362   8.287  11.562
20700W        W79961  44.500  38.821  14.875
20701W        W79962  41.827  29.984  10.527
20702W        W79963  42.310  18.220   3.280
20703W        W79964   0.868  43.339   2.293
20704W        W79965  15.748  24.663  12.952
20705W        W79966   8.347  38.892  13.955
20706W        W79967  39.408   4.714  10.541
20707W        W79968  19.696   3.914  14.983
20708W        W79969  33.617   7.377  12.091
20709W        W79970  17.243  33.013  11.083
20710W        W79971   2.894   4.714   1.914
20711W        W79972  32.455  22.563  12.382
20712W        W79973   6.854  27.051   2.378
20713W        W79974   6.882  40.519  14.953
20714W        W79975  37.541  44.382   4.620
20715W        W79976  26.465  22.714  13.920
20716W        W79977   1.318  35.487  13.379
20717W        W79978  40.338  35.887  11.944
20718W        W79979  16.571  39.407   2.869
20719W        W79980  35.089  14.604  12.540
20720W        W79981  32.418   5.709   3.865
20721W        W79982  30.114  19.142   0.795
20722W        W79983  30.657  37.985   2.891
20723W        W79984  24.589   0.766  11.379
20724W        W79985   2.796  18.243  13.371
20725W        W79986  22.658  21.558   2.883
20726W        W79987  31.437  30.560  12.423
20727W        W79988   8.728  30.412   0.369
20728W        W79989  23.063   6.890   0.886
20729W        W79990  43.277  39.029  11.078
20730W        W79991   4.738  25.152  12.961
20731W        W79992  36.488  27.492  12.364
20732W        W79993  33.972  44.845   4.157
20733W        W79994   7.811  22.575   5.236
20734W        W79995   3.792   7.245   4.791
20735W        W79996  40.974  24.630  11.456
20736W        W79997  39.052   0.467   3.189
20737W        W79998  40.402   7.219  13.324
20738W        W79999  16.255  44.384  14.346
20739W        W80000  12.672  35.464  13.474
20740W        W80001  34.014  14.217   0.358
20741W        W80002   9.725  16.248  14.008
20742W        W80003  29.087  12.214  13.529
20743W        W80004  42.943  21.189  13.354
20744W        W80005   5.754  19.276   2.860
20745W        W80006  29.559  26.074   1.924
20746W        W80007  22.073  11.256   3.848
20747W        W80008  20.264  17.158  13.024
20748W        W80009  19.734  42.370  12.860
20749W        W80010  35.002  12.793   4.241
20750W        W80011  17.740   5.748  13.369
20751W        W80012   2.398   2.395   3.184
20752W        W80013   4.410   9.699  14.888
20753W        W80014  11.825   0.319  10.548
20754W        W80015  37.380  26.976   3.377
20755W        W80016  15.222  36.845  14.352
20756W        W80017  10.799  42.912   1.432
20757W        W80018  14.659  12.624  13.898
20758W        W80019   1.733  21.539  11.952
20759W        W80020  33.390   4.260   4.738
20760W        W80021  38.361  13.301   0.449
20761W        W80022  30.948  19.181  14.422
20762W        W80023  25.051   8.881  11.492
20763W        W80024  33.081  27.606   1.903
20764W        W80025  29.038  19.142  13.508
20765W        W80026  30.115   0.424   0.874
20766W        W80027  30.006   7.891   3.147
20767W        W80028  27.954  21.572   1.847
20768W        W80029  11.751   3.311  13.403
20769W        W80030  10.789  22.185  11.918
20770W        W80031  33.604  20.058   0.451
20771W        W80032  43.299  34.966   0.743
20772W        W80033  13.322   3.241   2.670
20773W        W80034  34.069  20.555  14.908
20774W        W80035   8.749   4.292   1.844
20775W        W80036  29.621  15.202   4.824
20776W        W80037   2.343  33.975  14.368
20777W        W80038  15.663  15.653   5.257
20778W        W80039   3.221   4.698   2.179
20779W        W80040  44.401  19.761   0.294
20780W        W80041   0.264  11.296  10.534
20781W        W80042   6.758  33.508   3.383
20782W        W80043  25.659  12.742   2.663
20783W        W80044  36.509  28.644  14.991
20784W        W80045  21.157  33.069  14.950
20785W        W80046  38.409   2.397   4.810
20786W        W80047   9.851  11.689   3.811
20787W        W80048   5.364   7.698   0.931
20788W        W80049  36.483   3.852  12.001
20789W        W80050   9.372  39.379  10.923
20790W        W80051  27.480  19.601  11.943
20791W        W80052   3.414  18.195  11.922
20792W        W80053   2.316  26.143  11.015
20793W        W80054  18.771   0.252   4.354
20794W        W80055  33.090  18.655   4.626
20795W        W80056  23.025  44.787   1.771
20796W        W80057   9.361  12.695   2.297
20797W        W80058   5.704  32.624   2.288
20798W        W80059  15.646  18.100   9.657
20799W        W80060  10.680  21.602  13.954
20800W        W80061  36.006  10.698   0.405
20801W        W80062   6.375  25.088   3.685
20802W        W80063  22.667  32.976  14.864
20803W        W80064   6.327  20.536   1.839
20804W        W80065  32.074  19.766  13.062
20805W        W80066  30.613  16.690  10.934
20806W        W80067  39.960  28.618   4.290
20807W        W80068  20.180   5.691  11.515
20808W        W80069   2.277   0.313   3.686
20809W        W80070  25.570  20.733  11.438
20810W        W80071  23.159  40.820   1.799
20811W        W80072  21.100  26.525   0.434
20812W        W80073  34.973  38.956   0.781
20813W        W80074   5.874  19.269   3.289
20814W        W80075  25.699   6.407   5.202
20815W        W80076  36.465  26.534   3.802
20816W        W80077  26.658   2.352   1.231
20817W        W80078  40.977  30.472  11.003
20818W        W80079  32.402  43.386  10.919
20819W        W80080  19.691  38.543   4.783
20820W        W80081  40.548  38.393   4.156
20821W        W80082  40.372   5.372  13.856
20822W        W80083  41.034  43.769  12.938
20823W        W80084  39.040  32.959  12.906
20824W        W80085  21.073  23.232   1.716
20825W        W80086  27.010  42.424   0.419
20826W        W80087  11.342  13.173   2.662
20827W        W80088  30.591  40.313   1.773
20828W        W80089  18.573  13.320   0.275
20829W        W80090  42.837  22.251  10.137
20830W        W80091  35.030  14.285   2.373
20831W        W80092   8.314  25.493  13.511
20832W        W80093  38.486   4.224  13.805
20833W        W80094  20.655  27.606   0.848
20834W        W80095  15.171  10.274  13.527
20835W        W80096  18.255  36.936  14.797
20836W        W80097  29.996  41.946   2.358
20837W        W80098  29.055  34.603   2.330
20838W        W80099  33.390  13.726   4.114
20839W        W80100  22.035  38.059   1.355
20840W        W80101  32.505  32.922   0.447
20841W        W80102   5.393   5.893  10.944
20842W        W80103   5.752  39.889   0.410
20843W        W80104   7.862  27.520   2.199
20844W        W80105  26.503   2.734   0.881
20845W        W80106  38.035   4.751   1.429
20846W        W80107  36.406  34.099  10.468
20847W        W80108   8.395  41.306  14.022
20848W        W80109   1.799  10.153   3.228
20849W        W80110   2.822  15.671  14.427
20850W        W80111  28.181  19.610  11.061
20851W        W80112   9.289  12.637   0.754
20852W        W80113  41.004  17.258  13.508
20853W        W80114  19.681   3.862  11.114
20854W        W80115  26.201  38.536  14.972
20855W        W80116  14.753  35.071  11.503
20856W        W80117   7.783   8.685   0.251
20857W        W80118  33.580  24.208  13.921
20858W        W80119  33.053  29.024  12.964
20859W        W80120  36.402   2.908   4.246
20860W        W80121  21.661  25.573   2.850
20861W        W80122   3.271  13.628   4.147
20862W        W80123   3.303  28.455  10.459
20863W        W80124   3.828   4.799   1.228
20864W        W80125  11.249  40.821  13.362
20865W        W80126  12.624  28.505  14.284
20866W        W80127   0.935  17.710  12.973
20867W        W80128  19.618  28.636   3.214
20868W        W80129  31.455  41.304   1.812
20869W        W80130  39.975  41.458  13.544
20870W        W80131   9.384  18.740  11.867
20871W        W80132  35.425  17.284   0.941
20872W        W80133  39.017  27.174   2.212
20873W        W80134  16.131  36.585   3.773
20874W        W80135   7.751  26.137  14.473
20875W        W80136  26.490  28.154   4.339
20876W        W80137  39.352  44.316  10.484
20877W        W80138  16.754  44.483   4.221
20878W        W80139  27.492  25.609  12.396
20879W        W80140  19.145  38.829  12.946
20880W        W80141  25.626  11.749  13.320
20881W        W80142   2.818  23.506  14.845
20882W        W80143  38.345  41.354  11.886
20883W        W80144  29.528  30.556  12.857
20884W        W80145  40.810  26.076   2.405
20885W        W80146  25.139  33.426  13.511
20886W        W80147  17.066  36.577   2.726
20887W        W80148  21.092   8.869  10.081
20888W        W80149  22.044   3.267   2.381
20889W        W80150   1.866  22.586   4.789
20890W        W80151  39.330  44.772  13.833
20891W        W80152  31.113  38.421   0.948
20892W        W80153  11.273  36.090  11.556
20893W        W80154  42.420   9.264  11.387
20894W        W80155   0.904   3.284  10.022
20895W        W80156   6.276  30.110  13.429
20896W        W80157  13.133  38.007   0.941
20897W        W80158   3.297  38.886  13.312
20898W        W80159  11.764  34.588  13.412
20899W        W80160  17.183  19.162   0.289
20900W        W80161  16.765  21.034  12.910
20901W        W80162   3.249  33.624  10.515
20902W        W80163   0.763   6.388   2.331
20903W        W80164   2.453  27.592   2.339
20904W        W80165  17.578   8.820   0.941
20905W        W80166  43.809  28.020  11.117
20906W        W80167  21.547  40.446   3.317
20907W        W80168  35.033  37.421  11.543
20908W        W80169  10.651   5.804   4.685
20909W        W80170   0.821  36.557  12.472
20910W        W80171  22.718  22.742  13.873
20911W        W80172  44.427  40.968   2.220
20912W        W80173  16.691  13.206  13.966
20913W        W80174   3.331  26.692   2.826
20914W        W80175   4.256  37.849  14.452
20915W        W80176  35.462  33.918  11.954
20916W        W80177  28.545  22.206  13.896
20917W        W80178  23.566   5.307   4.268
20918W        W80179  20.707  37.087  14.329
20919W        W80180  19.206   4.762  10.573
20920W        W80181   5.797  10.864  11.962
20921W        W80182  44.814  40.409   4.777
20922W        W80183  25.484   4.747   4.230
20923W        W80184  40.384  20.555   0.923
20924W        W80185  21.652   0.313   3.311
20925W        W80186   0.298  17.107   1.218
20926W        W80187  13.110  24.479  14.882
20927W        W80188  42.980  23.049   2.368
20928W        W80189  18.212  41.428   0.916
20929W        W80190  24.208  28.966  13.874
20930W        W80191  28.677  26.475   4.308
20931W        W80192  41.368  18.230   4.201
20932W        W80193  38.845  19.130   3.849
20933W        W80194  10.307  23.682   4.213
20934W        W80195   4.389  31.430  14.488
20935W        W80196  27.630  37.503   1.394
20936W        W80197  39.904  34.551   1.300
20937W        W80198  43.485  25.141   0.760
20938W        W80199   0.764   6.253  10.485
20939W        W80200  39.004  34.572   1.439
20940W        W80201  13.236  44.867  13.054
20941W        W80202  30.645  13.777  13.522
20942W        W80203  37.440  38.537  14.936
20943W        W80204  17.650  15.197  11.976
20944W        W80205  27.159  25.113  11.894
20945W        W80206   5.893  21.629  11.410
20946W        W80207  41.344  33.390   1.416
20947W        W80208   4.215  17.559  10.528
20948W        W80209  22.184   3.711  11.559
20949W        W80210  38.906  28.940  12.910
20950W        W80211   9.350  25.482   4.665
20951W        W80212   7.398  15.635  11.393
20952W        W80213  35.552   1.240   0.726
20953W        W80214  23.236  26.017   2.322
20954W        W80215  33.518  41.494   3.184
20955W        W80216  22.234  24.111  13.315
20956W        W80217  15.785  30.566  12.466
20957W        W80218  35.580  10.177  11.082
20958W        W80219   8.384  13.799   2.286
20959W        W80220  33.927  26.503   2.831
20960W        W80221  30.081  23.524  10.503
20961W        W80222   4.730  11.336  11.860
20962W        W80223  32.627  24.491  11.396
20963W        W80224   2.367  10.823   1.257
20964W        W80225  39.539  29.569   2.278
20965W        W80226  22.605   1.885   0.957
20966W        W80227  39.542  40.820   4.678
20967W        W80228   5.358  12.745   9.961
20968W        W80229  42.524  36.955  13.440
20969W        W80230  21.672  24.635   3.695
20970W        W80231  31.636  32.010   2.762
20971W        W80232  28.004   0.783   1.819
20972W        W80233  37.050   5.400  11.045
20973W        W80234   3.769   3.422  13.023
20974W        W80235  33.546   1.259   0.735
20975W        W80236  22.686   1.846  11.076
20976W        W80237   2.867  15.141  13.933
20977W        W80238   6.343  13.184  14.963
20978W        W80239  30.588  18.135  12.566
20979W        W80240  11.768  11.155   0.846
20980W        W80241   4.367  22.569   3.360
20981W        W80242  35.536  38.850   1.294
20982W        W80243  16.213  15.580  13.792
20983W        W80244  19.696  26.680  11.896
20984W        W80245   4.927  37.011   3.320
20985W        W80246  29.435  13.726  11.504
20986W        W80247  18.121  18.690  11.469
20987W        W80248  25.052   3.387  10.951
20988W        W80249  38.567  42.920  13.948
20989W        W80250  37.489  17.616   1.225
20990W        W80251  18.104  38.421  11.088
20991W        W80252  18.654  32.008   3.207
20992W        W80253   5.196  33.055   0.739
20993W        W80254  16.595   5.221  13.887
20994W        W80255  25.989  20.060  14.923
20995W        W80256  41.000  39.535  11.961
20996W        W80257  34.864   5.772   4.772
20997W        W80258  20.043   9.273   4.282
20998W        W80259  26.471  30.991  10.976
20999W        W80260   1.476  29.572   0.874
21000W        W80261   2.912   7.342  14.949
21001W        W80262  31.609  37.459  11.407
21002W        W80263   1.889  29.085   0.273
21003W        W80264  31.546  31.476  13.533
21004W        W80265   8.779  18.149  12.412
21005W        W80266  31.487  12.668   1.413
21006W        W80267  33.039   6.388  14.873
21007W        W80268  15.603  28.625  11.864
21008W        W80269   5.356   1.889   3.180
21009W        W80270  11.167   9.262   4.301
21010W        W80271   3.313  26.691  14.808
21011W        W80272  14.119  34.513   1.790
21012W        W80273  25.507  10.840   4.263
21013W        W80274   8.274   7.727  10.413
21014W        W80275  42.872  37.907   3.357
21015W        W80276   9.252  43.468   1.725
21016W        W80277  32.399   3.818  14.413
21017W        W80278  29.022  39.864  13.933
21018W        W80279  19.625   4.911   5.144
21019W        W80280  19.236   1.875   1.392
21020W        W80281  32.009  43.971   4.669
21021W        W80282  16.284  38.826  10.933
21022W        W80283   5.229  43.015   4.767
21023W        W80284  29.960  30.078  14.313
21024W        W80285  30.415  30.416  13.927
21025W        W80286  15.759  43.932  12.976
21026W        W80287   3.718  41.850   0.856
21027W        W80288   2.910   9.279   3.808
21028W        W80289  35.922   5.821  11.572
21029W        W80290  22.518  43.021  14.480
21030W        W80291  29.001  27.682  11.100
21031W        W80292  23.733  37.531  10.413
21032W        W80293  21.231  25.138  14.507
21033W        W80294  26.504  17.209  13.808
21034W        W80295  28.589  11.318  13.048
21035W        W80296  16.567  16.679  11.432
21036W        W80297   7.339  37.977   2.285
21037W        W80298  39.538  13.155  11.128
21038W        W80299  15.131   9.774   3.716
21039W        W80300  38.946  11.734  14.971
21040W        W80301  20.633  22.649   2.776
21041W        W80302   9.826   6.216   3.158
21042W        W80303  12.288  16.317  11.109
21043W        W80304  32.002  32.542  14.920
21044W        W80305  15.724  17.581  14.854
21045W        W80306  32.515  15.810   0.450
21046W        W80307  19.755  31.971   2.300
21047W        W80308  38.562  11.164   1.798
21048W        W80309   7.202  42.964   1.791
21049W        W80310  41.355   3.356  12.949
21050W        W80311  23.994  25.037   0.834
21051W        W80312  21.100  28.031   2.850
21052W        W80313   5.924  12.709   0.376
21053W        W80314  17.582  15.177  13.528
21054W        W80315   4.862  26.460  10.036
21055W        W80316  29.042  25.663   2.707
21056W        W80317  32.103  36.962   4.210
21057W        W80318   5.749  36.571   4.199
21058W        W80319  14.809  42.926   3.184
21059W        W80320   5.821   7.890   2.669
21060W        W80321  33.481  21.656   4.662
21061W        W80322  39.923  35.993   3.192
21062W        W80323  16.692  41.994  13.448
21063W        W80324  37.512  30.137  13.349
21064W        W80325   4.772  32.619   1.296
21065W        W80326  10.800   9.185  12.415
21066W        W80327  14.192  25.528  13.794
21067W        W80328   6.677  19.644  10.918
21068W        W80329   0.954  22.570   1.247
21069W        W80330  40.856  37.055   4.689
21070W        W80331  15.187  24.502  10.412
21071W        W80332  17.298  37.469  10.423
21072W        W80333  10.271   3.394  11.030
21073W        W80334   1.349   7.194   0.872
21074W        W80335  29.539  43.999   3.832
21075W        W80336  33.991   0.758  11.956
21076W        W80337  30.043   3.405   4.777
21077W        W80338  12.694   4.745   2.833
21078W        W80339   2.851  31.491   3.226
21079W        W80340  25.496  41.358   0.757
21080W        W80341  21.019  40.995   4.219
21081W        W80342  23.724  11.370  11.924
21082W        W80343  26.681   4.208  10.946
21083W        W80344   1.241  13.707  13.509
21084W        W80345  34.565  39.007   1.919
21085W        W80346   6.346  33.084  13.877
21086W        W80347  15.169  31.626  12.073
21087W        W80348  13.205  14.651  11.964
21088W        W80349  30.105  35.465  12.831
21089W        W80350  12.779  31.083   4.728
21090W        W80351  34.531  35.101   1.259
21091W        W80352  35.999  22.190   0.806
21092W        W80353  14.130   7.258  12.429
21093W        W80354   6.788   4.892   0.406
21094W        W80355  35.066  22.632   3.263
21095W        W80356  24.575  12.157   2.662
21096W        W80357  31.024  16.727  12.444
21097W        W80358  38.350  33.032   0.926
21098W        W80359   8.897   1.464  12.498
21099W        W80360   0.306  32.902  13.524
21100W        W80361  35.019  20.129   3.780
21101W        W80362  36.483  25.122  12.563
21102W        W80363  33.431  19.124   2.857
21103W        W80364  22.656  29.496  14.859
21104W        W80365   3.215  39.378  13.958
21105W        W80366  25.583  26.616  12.839
21106W        W80367  28.097  28.570  11.097
21107W        W80368  43.846   6.847   3.199
21108W        W80369  25.574  39.386  13.496
21109W        W80370  30.610   0.888   5.237
21110W        W80371   1.291  27.547  12.915
21111W        W80372  21.109   3.907  11.050
21112W        W80373   6.312  22.140  13.883
21113W        W80374  15.637   5.264  11.920
21114W        W80375  35.448  31.007  13.063
21115W        W80376  13.653  32.598   2.790
21116W        W80377   0.953  27.483  13.374
21117W        W80378   5.376  24.025  10.148
21118W        W80379   9.857   3.948  13.406
21119W        W80380  43.392  42.466  14.833
21120W        W80381   5.262  43.923   3.762
21121W        W80382  29.994   3.892  14.357
21122W        W80383   5.245   8.875  14.320
21123W        W80384  29.458  38.368   4.755
21124W        W80385  34.078  35.059  11.087
21125W        W80386  44.278  32.455   2.415
21126W        W80387  12.362   2.758   3.204
21127W        W80388  37.952   8.823  13.932
21128W        W80389  11.851  22.250   1.323
21129W        W80390  40.363  35.081   3.828
21130W        W80391  25.203   9.835   1.332
21131W        W80392  20.194  17.233   0.934
21132W        W80393  44.368  13.231  13.468
21133W        W80394  10.246  20.667   1.250
21134W        W80395  26.481  23.158   4.758
21135W        W80396  17.788  23.029   0.914
21136W        W80397   8.754  37.832   1.431
21137W        W80398  23.498  19.701  13.405
21138W        W80399  36.471  41.408  13.429
21139W        W80400  37.383  38.000   3.210
21140W        W80401   9.790  34.462  13.932
21141W        W80402   2.795   2.911   3.346
21142W        W80403  23.052  39.424  13.878
21143W        W80404   2.372  39.499   2.733
21144W        W80405  41.999  32.623   0.952
21145W        W80406  35.966  15.264   2.342
21146W        W80407  15.205  24.142  10.917
21147W        W80408  33.943  27.977   1.390
21148W        W80409  40.865  22.672  13.963
21149W        W80410  37.005  22.630  11.060
21150W        W80411  29.041   0.380   1.299
21151W        W80412   4.738  10.702   3.188
21152W        W80413  27.593  39.489  10.476
21153W        W80414  18.694   4.252   0.347
21154W        W80415  34.923  27.452   3.762
21155W        W80416  38.071   2.469  14.511
21156W        W80417  29.126  42.521  14.472
21157W        W80418   5.337   1.446  10.477
21158W        W80419  17.180  42.320   2.822
21159W        W80420  18.636  10.697   2.303
21160W        W80421  24.069  28.953   3.701
21161W        W80422  23.534  28.594  10.489
21162W        W80423   5.827  25.651  11.398
21163W        W80424  22.649  31.461   2.772
21164W        W80425  23.073  16.746  13.909
21165W        W80426  36.584   4.350  11.949
21166W        W80427  20.543  44.444   0.347
21167W        W80428  36.043  41.292   1.832
21168W        W80429  11.840  35.548   3.239
21169W        W80430  29.585  27.005  11.873
21170W        W80431  43.501  15.219   2.323
21171W        W80432  35.451  27.681  12.541
21172W        W80433  38.432   5.832  13.510
21173W        W80434   1.253  33.602  13.008
21174W        W80435  43.331  41.807   4.164
21175W        W80436  33.517  43.768  13.514
21176W        W80437  36.349  40.805   2.815
21177W        W80438  24.067  29.154  13.012
21178W        W80439  13.304  18.067  13.387
21179W        W80440  31.036  29.062   1.212
21180W        W80441   5.327  26.550   4.803
21181W        W80442  28.495  14.745   4.714
21182W        W80443  28.011   4.325   4.701
21183W        W80444  43.419  24.077  12.572
21184W        W80445  22.124  39.417  11.121
21185W        W80446   7.705  22.630  14.858
21186W        W80447  40.433   4.738  14.475
21187W        W80448  28.079  37.954  10.521
21188W        W80449  27.692  17.063   1.348
21189W        W80450   4.238  44.845  11.991
21190W        W80451   8.394  38.413   0.837
21191W        W80452   6.284   9.204   2.797
21192W        W80453  43.904  17.744   3.685
21193W        W80454  19.191  27.656   4.746
21194W        W80455  43.350  36.843   4.152
21195W        W80456  33.105  17.078   2.199
21196W        W80457   9.656  12.249   1.803
21197W        W80458  25.682  30.073   1.305
21198W        W80459  12.751  36.476   2.253
21199W        W80460  17.767  23.104   2.813
21200W        W80461  38.829   3.429  10.925
21201W        W80462  14.747  13.179   4.740
21202W        W80463  26.121  36.941   4.819
21203W        W80464  33.896  10.798  10.989
21204W        W80465  41.380  33.513  12.350
21205W        W80466  11.134   8.195  11.377
21206W        W80467  20.168   9.334  13.059
21207W        W80468  20.034  15.179  12.940
21208W        W80469  41.938   5.244   2.271
21209W        W80470   3.837  10.277   2.369
21210W        W80471  41.803  41.039   4.319
21211W        W80472  16.761   5.256   5.607
21212W        W80473  14.826  14.155   0.870
21213W        W80474  20.652   7.235   1.324
21214W        W80475  33.098   6.784  12.019
21215W        W80476  32.038   1.409   0.481
21216W        W80477  36.401   0.472  11.891
21217W        W80478   4.852  24.620  10.957
21218W        W80479  34.981  42.783   3.257
21219W        W80480  12.721  27.649  10.982
21220W        W80481   2.900  42.520   3.347
21221W        W80482   5.695  22.182   0.417
21222W        W80483  34.464  27.549  13.010
21223W        W80484  20.065   4.716  10.977
21224W        W80485  24.073  42.912   4.254
21225W        W80486  12.132  37.384   4.133
21226W        W80487  28.993  33.066  12.833
21227W        W80488   5.362  10.346   4.815
21228W        W80489   9.306   3.761  12.356
21229W        W80490  37.360  24.107   2.731
21230W        W80491  19.049  20.086   0.437
21231W        W80492  27.054  15.271   2.886
21232W        W80493  29.037   7.699   4.664
21233W        W80494  33.033  29.061   2.697
21234W        W80495  18.178   9.288   1.855
21235W        W80496  26.631  25.706  14.918
21236W        W80497  11.676  17.079  14.414
21237W        W80498  26.535   7.173   4.766
21238W        W80499   0.462   4.214  12.423
21239W        W80500  30.146  25.485   0.367
21240W        W80501  19.553  41.878   0.463
21241W        W80502  35.039  40.850  14.813
21242W        W80503  30.484  41.967   2.216
21243W        W80504  27.581  33.420   4.344
21244W        W80505  42.858  25.567   4.332
21245W        W80506   7.779   1.931   4.660
21246W        W80507   6.195  44.389   2.369
21247W        W80508  20.092  12.831   3.789
21248W        W80509  29.154  34.104   3.362
21249W        W80510  27.973  41.931  10.964
21250W        W80511   5.866  22.026   3.840
21251W        W80512  34.520  37.955  13.048
21252W        W80513  10.655  14.314   2.797
21253W        W80514  16.671  30.105  10.922
21254W        W80515  19.723  40.541  14.018
21255W        W80516  20.634   4.253  12.094
21256W        W80517  20.707   0.288  10.518
21257W        W80518   5.705  11.828   1.304
21258W        W80519  16.302  27.025   5.217
21259W        W80520  29.600   5.865  11.044
21260W        W80521   7.711  42.512   1.784
21261W        W80522   7.273  17.232   2.198
21262W        W80523   0.345  33.549  10.460
21263W        W80524  19.589  38.049  14.862
21264W        W80525  32.097  10.805   0.479
21265W        W80526  30.478  42.496   2.247
21266W        W80527  43.011   0.749  11.980
21267W        W80528  29.161  10.651   4.674
21268W        W80529  39.387  30.100  13.335
21269W        W80530  37.063  13.837  13.974
21270W        W80531  44.314   3.878  14.500
21271W        W80532  17.252  17.782  12.500
21272W        W80533  30.584  39.357  12.542
21273W        W80534  33.422  37.847   0.473
21274W        W80535   8.245  42.436  11.555
21275W        W80536   8.706  17.280  14.778
21276W        W80537  30.514  22.136   1.885
21277W        W80538  35.934  15.599   0.404
21278W        W80539  12.729  29.523   2.224
21279W        W80540  24.037  14.832   4.232
21280W        W80541   2.279  14.793   0.390
21281W        W80542  18.550  40.812   4.132
21282W        W80543  44.003  11.228   0.855
21283W        W80544  37.341  43.304   5.282
21284W        W80545  18.561  41.529   1.711
21285W        W80546  21.755  16.286  13.051
21286W        W80547  14.174  28.974  11.871
21287W        W80548  28.975  17.580  11.949
21288W        W80549  34.091  29.051  12.398
21289W        W80550  31.490  38.513  14.944
21290W        W80551  36.082  41.982  13.347
21291W        W80552  24.557  44.010   3.190
21292W        W80553  41.343  21.750  12.058
21293W        W80554  23.201   3.937   0.862
21294W        W80555  15.188   9.748   0.949
21295W        W80556  10.694   6.354   1.270
21296W        W80557  18.230  14.696   1.905
21297W        W80558   2.409  36.433  14.411
21298W        W80559   3.231   4.259  12.365
21299W        W80560   2.963   1.791   0.405
21300W        W80561  24.168  28.599   4.765
21301W        W80562   7.884  35.482   4.203
21302W        W80563   7.757   3.716  11.529
21303W        W80564   4.336  18.652   4.667
21304W        W80565   7.811  15.789   4.796
21305W        W80566  26.035  21.645   0.788
21306W        W80567  29.092  33.065   2.409
21307W        W80568  38.847  41.404   2.371
21308W        W80569   9.844  41.931  14.366
21309W        W80570  19.723  16.744   1.806
21310W        W80571  22.508  38.421  11.457
21311W        W80572  13.607  28.022  10.617
21312W        W80573  17.179  17.572   1.792
21313W        W80574  16.138  34.437  12.531
21314W        W80575  30.160  24.166   0.336
21315W        W80576  38.458  34.907  13.498
21316W        W80577   4.891  14.766  14.410
21317W        W80578  25.062  24.612   0.781
21318W        W80579  22.658  18.771   4.823
21319W        W80580  42.009  10.143   0.804
21320W        W80581  31.578  42.462  14.847
21321W        W80582  32.596  36.410   0.287
21322W        W80583  35.995  41.445  12.914
21323W        W80584  27.064  36.452  12.039
21324W        W80585  36.024  23.994  10.524
21325W        W80586   0.877  15.666  10.509
21326W        W80587  34.431  25.190  13.988
21327W        W80588  14.631  36.001   2.251
21328W        W80589   0.777  32.116  14.485
21329W        W80590  28.943   0.893   4.312
21330W        W80591  33.125  36.068  14.806
21331W        W80592  24.154  33.458  13.030
21332W        W80593  11.141  30.013   3.323
21333W        W80594  30.555  26.962  12.375
21334W        W80595  17.274  24.587  13.856
21335W        W80596  37.979   8.787  13.514
21336W        W80597  19.641  44.882  14.346
21337W        W80598  40.546   8.737  11.958
21338W        W80599   2.834  11.211  13.326
21339W        W80600  35.900  26.178   2.407
21340W        W80601  14.759   0.798  12.962
21341W        W80602  14.722  17.643   2.364
21342W        W80603  11.684  31.978  13.498
21343W        W80604  24.587   9.320  11.980
21344W        W80605  37.336   7.906   4.280
21345W        W80606   3.265  15.157  13.397
21346W        W80607  14.781  42.931  11.959
21347W        W80608  25.505  44.451  10.610
21348W        W80609  27.629   8.662  10.475
21349W        W80610  18.650  42.999  12.902
21350W        W80611  43.378  37.373   4.238
21351W        W80612  19.627   9.330  13.814
21352W        W80613  18.784  25.049  11.520
21353W        W80614   8.843  28.631  10.576
21354W        W80615  26.096   1.847  12.428
21355W        W80616   9.733  37.490  11.607
21356W        W80617  37.899  23.064   2.694
21357W        W80618   2.721  15.084   3.354
21358W        W80619  12.260  36.435  12.034
21359W        W80620  15.702   9.335   1.887
21360W        W80621   7.906  29.125  10.161
21361W        W80622   6.775  29.620   2.281
21362W        W80623  15.742   2.884  12.937
21363W        W80624  11.687  44.488  10.611
21364W        W80625  30.591   5.827  10.442
21365W        W80626  39.498  20.163   3.681
21366W        W80627  36.465  39.416  13.887
21367W        W80628   2.888  12.297  14.888
21368W        W80629  22.086  42.483  10.921
21369W        W80630   5.332  34.574  12.031
21370W        W80631  24.150  33.003  14.397
21371W        W80632  26.078  27.124  14.929
21372W        W80633   2.410   4.430  13.348
21373W        W80634  11.766  43.420  12.975
21374W        W80635  26.620  30.534  13.363
21375W        W80636  11.163   2.406  14.492
21376W        W80637  29.923  28.087   2.365
21377W        W80638   7.743  32.097  11.548
21378W        W80639  29.128  13.790   0.417
21379W        W80640  44.435   6.261  14.863
21380W        W80641  42.006   2.887   1.803
21381W        W80642  10.683   3.358  12.836
21382W        W80643  22.646  29.055   0.729
21383W        W80644  30.979  25.638   1.317
21384W        W80645  24.622   9.245   2.361
21385W        W80646  44.946  13.756   1.305
21386W        W80647  39.317   8.743  10.549
21387W        W80648  23.117  20.726   3.207
21388W        W80649  36.538  27.989  12.435
21389W        W80650  41.858  18.237   2.795
21390W        W80651  27.966  41.032  12.069
21391W        W80652  28.659  43.850  14.954
21392W        W80653  32.010  38.460   0.728
21393W        W80654   2.839  38.505  13.491
21394W        W80655  25.581   3.749  11.896
21395W        W80656   7.690  23.733  13.521
21396W        W80657  29.165  11.701   3.375
21397W        W80658  16.759   5.832  13.818
21398W        W80659  38.387  44.915  11.914
21399W        W80660  23.710  35.523  12.519
21400W        W80661  16.578  16.094  14.468
21401W        W80662  12.177  12.769  13.468
21402W        W80663   2.957  27.103   1.404
21403W        W80664  13.606  43.325   3.857
21404W        W80665  14.148  29.610   4.718
21405W        W80666  41.831  42.291  11.600
21406W        W80667  18.292   4.740  13.062
21407W        W80668  27.114  18.574   0.809
21408W        W80669   3.734   7.345   2.696
21409W        W80670  35.395  32.942   0.254
21410W        W80671  19.769   1.263  11.898
21411W        W80672  27.081  12.149  13.033
21412W        W80673  38.395  27.657   4.779
21413W        W80674   2.943  27.185  10.420
21414W        W80675   3.733   5.438   2.284
21415W        W80676  16.698  28.067  11.502
21416W        W80677  38.874  29.433  13.963
21417W        W80678  32.100  23.729  11.939
21418W        W80679  29.064  11.847  12.396
21419W        W80680  43.879  13.659  13.877
21420W        W80681   2.378  11.863  13.868
21421W        W80682   8.813  23.657   0.324
21422W        W80683  30.141   9.881  12.352
21423W        W80684  43.431   0.905  13.032
21424W        W80685  24.976  12.162   4.296
21425W        W80686  16.229  27.627   3.180
21426W        W80687  22.235   5.325   4.253
21427W        W80688   6.792  37.892  10.480
21428W        W80689  43.832  44.985   4.299
21429W        W80690   1.789  21.633  12.857
21430W        W80691  18.073   0.256   4.292
21431W        W80692  12.695  40.848  13.987
21432W        W80693  39.558  38.836  12.961
21433W        W80694  33.119  42.323   0.858
21434W        W80695  27.599  33.998  13.912
21435W        W80696  28.141  26.054  11.012
21436W        W80697  16.606  21.695  10.616
21437W        W80698  37.408  13.603   4.145
21438W        W80699  11.655  21.642   3.284
21439W        W80700  15.743  27.088  11.376
21440W        W80701  14.196  39.065  14.779
21441W        W80702   3.456  12.642  14.364
21442W        W80703  34.931  34.491  12.579
21443W        W80704  13.348  38.446   0.907
21444W        W80705  41.003  23.989   4.830
21445W        W80706   5.699  29.067  13.840
21446W        W80707  38.866  38.340   4.668
21447W        W80708  28.975  15.724  14.345
21448W        W80709  43.925  18.762   2.195
21449W        W80710  14.812  43.988   0.244
21450W        W80711  44.842  12.733   1.845
21451W        W80712  36.896  30.642   0.377
21452W        W80713  18.267  33.012   4.642
21453W        W80714  33.899  27.586  12.499
21454W        W80715  23.534   3.379   3.327
21455W        W80716  36.098  10.875  13.054
21456W        W80717   6.874  36.976  13.523
21457W        W80718  24.143  18.628   5.083
21458W        W80719  13.339   5.206   2.395
21459W        W80720  25.024  21.602   0.906
21460W        W80721   6.747   3.433   1.893
21461W        W80722  42.400   7.908   1.754
21462W        W80723  15.261  18.110   2.187
21463W        W80724  17.176  27.618  11.534
21464W        W80725  44.346  27.990   2.707
21465W        W80726  35.043  10.759  13.477
21466W        W80727   5.292  36.014  13.935
21467W        W80728   2.931   0.414   4.344
21468W        W80729  11.812   1.406   2.784
21469W        W80730  18.610  36.908   3.335
21470W        W80731  20.557  12.352  11.459
21471W        W80732  34.982  11.792  11.078
21472W        W80733  34.417  11.252   4.788
21473W        W80734  13.343  34.055   1.431
21474W        W80735  34.882  41.321  12.886
21475W        W80736  11.771  31.116   0.888
21476W        W80737  42.976  43.429  13.339
21477W        W80738  31.582   6.248  12.986
21478W        W80739  33.441   2.461   1.739
21479W        W80740  18.564  39.432  11.885
21480W        W80741  12.323  24.716  12.064
21481W        W80742  35.502   4.398   4.334
21482W        W80743  41.838  20.165   3.789
21483W        W80744  12.283   9.710  12.020
21484W        W80745  32.887   8.319   1.901
21485W        W80746  34.566   8.238  13.001
21486W        W80747  21.152   0.290   0.927
21487W        W80748  15.313  19.630   2.346
21488W        W80749   8.898  41.295   0.920
21489W        W80750  18.742  24.695   4.805
21490W        W80751   1.374  38.852  11.558
21491W        W80752  24.093  42.315   3.668
21492W        W80753  26.650   7.682  14.298
21493W        W80754  23.075   0.841   2.250
21494W        W80755  18.200  15.266  13.961
21495W        W80756  17.168   5.870   0.877
21496W        W80757   4.814  43.977   2.826
21497W        W80758  23.009  35.921  11.584
21498W        W80759  35.907   5.934   0.332
21499W        W80760   5.435  31.491   4.826
21500W        W80761  15.128  15.263   2.305
21501W        W80762  10.363   1.394   1.850
21502W        W80763   0.791  22.195   0.448
21503W        W80764  38.515   1.273   3.667
21504W        W80765   1.260  13.694   1.224
21505W        W80766  10.304  11.856  11.607
21506W        W80767  16.808  12.619  12.477
21507W        W80768  23.665   6.278  12.999
21508W        W80769   5.379   8.667  12.451
21509W        W80770   9.190  42.368   1.874
21510W        W80771  20.766  16.808  14.330
21511W        W80772  12.649  12.359   0.359
21512W        W80773  43.350  14.207   5.270
21513W        W80774  12.267  20.082   0.854
21514W        W80775  35.476  30.594   3.784
21515W        W80776   9.252  29.993  11.471
21516W        W80777   5.808  12.305   1.411
21517W        W80778  24.227  19.216  11.868
21518W        W80779  18.084   4.898   1.855
21519W        W80780   7.347  39.050   1.445
21520W        W80781  25.095  40.456   4.196
21521W        W80782   5.884  44.452   0.872
21522W        W80783  14.295  20.653   2.182
21523W        W80784   6.813  17.100   2.759
21524W        W80785  33.109  42.298   2.691
21525W        W80786  38.523  19.116   0.914
21526W        W80787  12.340  27.001  13.905
21527W        W80788  17.613   1.781  12.887
21528W        W80789  17.224  14.687   3.300
21529W        W80790  22.027  11.370  10.585
21530W        W80791   2.879  11.251  13.936
21531W        W80792   7.259  44.421  12.402
21532W        W80793  18.107  32.925  11.117
21533W        W80794   7.694  19.733   4.808
21534W        W80795  34.506  25.181  13.496
21535W        W80796   5.390  27.971  10.916
21536W        W80797  13.181   2.880  14.394
21537W        W80798  16.569   0.381  10.471
21538W        W80799   4.243  24.074  11.514
21539W        W80800  25.613  40.045   1.843
21540W        W80801   4.392  11.854  12.400
21541W        W80802   2.838   9.703   1.430
21542W        W80803  31.640  29.584   2.828
21543W        W80804  18.164  40.864  13.890
21544W        W80805  10.246  30.581  12.399
21545W        W80806  38.360  31.083   3.292
21546W        W80807  36.442  32.453  13.007
21547W        W80808  30.592  21.217  14.889
21548W        W80809  18.056  41.373   1.872
21549W        W80810  43.983  27.082  13.057
21550W        W80811  16.182  17.645  10.588
21551W        W80812  42.515  30.970  13.347
21552W        W80813   0.297   6.772  14.498
21553W        W80814  11.302  40.971   0.321
21554W        W80815  27.193  36.973  14.899
21555W        W80816  23.726  21.601  14.820
21556W        W80817  18.550   2.436  13.472
21557W        W80818  39.935  42.515   3.314
21558W        W80819  19.744  40.307   0.464
21559W        W80820  27.128  10.238  13.931
21560W        W80821  14.272  17.206  10.541
21561W        W80822  33.411   9.712  13.494
21562W        W80823  20.731  26.552   5.211
21563W        W80824  26.974   3.231   4.187
21564W        W80825  26.198   8.179  14.892
21565W        W80826  39.853  27.525   2.863
21566W        W80827  34.912  28.179   3.310
21567W        W80828   9.327  35.524  12.533
21568W        W80829  19.083  23.561   0.901
21569W        W80830  29.604  37.571   3.662
21570W        W80831  10.735  18.657   1.242
21571W        W80832   9.313  43.879   2.809
21572W        W80833  19.752  24.506  12.969
21573W        W80834  41.797  24.118  11.932
21574W        W80835  43.332  18.625   4.293
21575W        W80836   5.853   3.332  13.317
21576W        W80837  36.458  32.979   1.755
21577W        W80838   8.215   8.328  10.494
21578W        W80839  43.481   1.342   0.841
21579W        W80840  29.009   4.337   2.682
21580W        W80841  23.103  20.144   0.884
21581W        W80842  36.030  36.884   2.728
21582W        W80843  28.461  23.212  13.863
21583W        W80844  18.164  37.905   2.810
21584W        W80845  32.900  11.338   2.782
21585W        W80846  32.927  12.263   2.376
21586W        W80847   7.411   0.767   0.467
21587W        W80848  13.844  30.970  14.487
21588W        W80849  39.450  19.539   2.346
21589W        W80850  36.897  22.705   4.321
21590W        W80851   2.453  18.626   1.279
21591W        W80852  36.930   3.820  11.039
21592W        W80853  43.018  18.591   5.133
21593W        W80854  17.691   2.284  12.997
21594W        W80855  13.643   8.843   4.683
21595W        W80856   5.423  14.321   4.351
21596W        W80857  37.348  44.766   2.267
21597W        W80858  20.601  27.450  12.859
21598W        W80859  26.009  22.054   4.180
21599W        W80860  26.983  34.590  14.803
21600W        W80861  30.547  29.483   1.723
21601W        W80862  24.165  37.363   2.321
21602W        W80863  30.997  26.956   3.756
21603W        W80864  21.020  20.755   3.150
21604W        W80865  31.424  35.429  12.539
21605W        W80866  36.011  41.519   0.893
21606W        W80867  40.341  44.326   3.859
21607W        W80868  19.732  27.616   1.213
21608W        W80869  28.474   0.386  10.607
21609W        W80870  25.171   5.766  10.625
21610W        W80871   7.699   4.837  12.992
21611W        W80872   8.733   0.290   3.663
21612W        W80873  38.988   3.437   2.760
21613W        W80874   4.339  37.965   4.610
21614W        W80875  33.492   5.768   0.465
21615W        W80876  23.025  26.522   0.323
21616W        W80877   6.375   5.379   0.913
21617W        W80878   0.466   9.251  13.980
21618W        W80879  22.590   8.851  13.832
21619W        W80880  42.968  20.232  13.323
21620W        W80881  33.889  23.996  13.902
21621W        W80882  24.064  23.489  13.494
21622W        W80883  41.809   8.709   3.306
21623W        W80884  21.238   2.414   2.705
21624W        W80885   6.788  13.661   2.292
21625W        W80886  42.915   6.365   2.183
21626W        W80887  22.646  29.101  12.435
21627W        W80888  27.025   3.340  12.942
21628W        W80889  42.415   4.774   1.367
21629W        W80890  26.118  29.087  10.512
21630W        W80891  31.535  24.617   1.333
21631W        W80892   0.817   9.777  13.911
21632W        W80893  10.221  43.283   3.331
21633W        W80894  26.461  13.809   2.678
21634W        W80895  29.530   3.821  11.478
21635W        W80896  38.455   2.918  11.986
21636W        W80897  21.228  32.413  13.924
21637W        W80898  26.192  24.486  10.463
21638W        W80899  21.643  33.983  14.464
21639W        W80900   4.320  15.271  13.538
21640W        W80901   5.746  17.772   3.344
21641W        W80902  24.667  11.828  12.045
21642W        W80903   2.442  37.962  14.347
21643W        W80904  26.189   0.257  12.427
21644W        W80905   1.779  31.975   3.146
21645W        W80906  32.963  39.874  12.535
21646W        W80907   1.340  20.092  10.429
21647W        W80908  31.045  44.854   4.742
21648W        W80909  42.981  17.696   1.824
21649W        W80910   0.280  15.813  13.831
21650W        W80911  38.934  38.495   0.242
21651W        W80912   7.874  40.960  10.972
21652W        W80913  43.949  39.847   1.809
21653W        W80914  33.483  23.200   1.257
21654W        W80915   7.203  11.757   4.232
21655W        W80916  32.992  42.430  12.894
21656W        W80917  30.133   2.289   3.694
21657W        W80918   8.397  39.880   4.150
21658W        W80919   8.834  32.565  13.948
21659W        W80920  37.865  38.339  13.881
21660W        W80921  15.587  20.669   2.750
21661W        W80922  37.861  21.129   0.281
21662W        W80923  20.263  15.130   0.945
21663W        W80924  13.668  17.771  13.970
21664W        W80925  14.215  16.746   5.227
21665W        W80926  42.028  27.463   3.682
21666W        W80927  25.684   7.898  14.513
21667W        W80928  17.763  18.707  14.998
21668W        W80929   1.883  41.437   1.411
21669W        W80930  38.324   5.291  12.341
21670W        W80931  12.140  31.919   1.358
21671W        W80932   8.807   2.413   4.352
21672W        W80933  37.395  28.603  13.317
21673W        W80934  32.448  22.527  14.778
21674W        W80935   0.816   4.401  12.511
21675W        W80936  17.603   1.267   1.930
21676W        W80937  15.177  40.444   3.644
21677W        W80938  22.112  24.140   5.274
21678W        W80939  16.572  21.703  12.415
21679W        W80940  21.702  27.501  11.880
21680W        W80941  24.546  18.624  12.992
21681W        W80942   7.172   3.946  12.067
21682W        W80943  24.159  43.497  14.289
21683W        W80944  33.956  24.489   3.772
21684W        W80945  32.963  13.211   1.436
21685W        W80946  32.392   3.854  14.832
21686W        W80947  27.679  27.500   4.192
21687W        W80948  30.623  14.334  14.796
21688W        W80949  34.498   9.681  14.958
21689W        W80950  33.393  23.542  14.759
21690W        W80951  10.858  14.716   0.930
21691W        W80952  15.315  27.092  12.558
21692W        W80953   4.813  21.525   2.378
21693W        W80954   1.321  41.517   2.256
21694W        W80955  30.569  11.765   1.245
21695W        W80956  10.352   4.280  10.542
21696W        W80957  43.325   7.258   0.342
21697W        W80958   8.386  20.033   1.360
21698W        W80959  19.701  31.122   2.795
21699W        W80960  21.146  40.548   2.667
21700W        W80961  35.434  20.188   3.864
21701W        W80962  43.825   2.242  11.982
21702W        W80963  23.503  18.768   1.757
21703W        W80964  15.734   3.353  11.035
21704W        W80965  37.057  21.188  14.342
21705W        W80966  32.552   5.899  11.011
21706W        W80967  14.235  33.596   3.167
21707W        W80968   6.345  16.235  13.019
21708W        W80969  25.016  42.392  14.298
21709W        W80970   4.375  21.700   0.261
21710W        W80971  39.328  38.873  11.470
21711W        W80972  40.933  37.406   4.235
21712W        W80973  42.898  41.382  13.006
21713W        W80974   2.764  17.705  13.053
21714W        W80975  10.859  25.175   2.344
21715W        W80976  25.084   0.313   1.309
21716W        W80977  21.253   8.395   1.757
21717W        W80978   2.387   9.180  11.379
21718W        W80979  10.233   5.749   1.245
21719W        W80980  22.619  15.248   4.240
21720W        W80981  14.821  14.315  14.472
21721W        W80982  20.548  29.983   1.359
21722W        W80983  17.562  26.664  13.443
21723W        W80984  26.490   0.816  11.036
21724W        W80985   1.758  38.339  11.420
21725W        W80986  41.042   5.813  14.870
21726W        W80987   0.956  14.683  12.438
21727W        W80988  32.572   6.243  11.400
21728W        W80989  31.607   8.861   3.211
21729W        W80990  20.254  39.948   0.327
21730W        W80991   0.374   2.832   1.339
21731W        W80992  11.858  29.084  11.508
21732W        W80993  25.577   4.764   4.776
21733W        W80994  36.965  22.016  13.399
21734W        W80995  12.305  40.484  10.887
21735W        W80996  18.756  13.348  14.790
21736W        W80997  37.548   6.739  13.987
21737W        W80998  24.197   6.813   2.770
21738W        W80999   1.474   9.307  14.998
21739W        W81000   8.352  44.973  14.340
21740W        W81001  40.874  27.619  14.908
21741W        W81002  10.831  35.893   4.323
21742W        W81003  43.935  18.098   4.807
21743W        W81004  34.054  31.589  14.428
21744W        W81005  33.895  43.935   0.413
21745W        W81006  20.573  25.490  11.951
21746W        W81007  23.182  36.961   0.936
21747W        W81008  26.008  11.149  10.919
21748W        W81009   0.915   2.951  14.343
21749W        W81010  44.278  15.254  13.406
21750W        W81011  37.520  24.637   3.788
21751W        W81012   7.820  30.136  11.477
21752W        W81013  37.460  29.426   4.765
21753W        W81014  42.986   8.843  12.902
21754W        W81015   5.804  41.334  10.547
21755W        W81016  22.615  16.252  11.045
21756W        W81017  19.754  42.346  14.824
21757W        W81018  34.483  25.703   4.830
21758W        W81019  38.326  42.328   1.772
21759W        W81020  30.592  18.589  13.944
21760W        W81021  44.453  43.014  10.502
21761W        W81022  38.571  12.614   2.901
21762W        W81023  33.485  13.300   1.322
21763W        W81024   1.259  37.851  12.035
21764W        W81025  35.537  19.540   1.336
21765W        W81026  21.221  29.156  13.359
21766W        W81027  12.287  29.920   2.770
21767W        W81028   4.820  41.941  10.052
21768W        W81029  43.907  14.301   1.794
21769W        W81030  26.167  44.493   1.434
21770W        W81031   8.784  26.554   3.164
21771W        W81032  36.916   3.442   0.916
21772W        W81033  30.033  21.622   3.694
21773W        W81034  42.966  44.337  14.025
21774W        W81035  40.360   9.222  14.493
21775W        W81036  43.505  10.252  10.481
21776W        W81037  40.045   3.911   3.833
21777W        W81038  30.421  36.471  10.998
21778W        W81039  17.624  32.424  11.020
21779W        W81040  34.005  25.622   0.890
21780W        W81041  38.562  19.653   4.737
21781W        W81042  19.176  23.598  11.934
21782W        W81043  30.546  19.607  11.003
21783W        W81044  36.583  36.549   3.758
21784W        W81045  15.159  20.218   4.232
21785W        W81046  18.212  41.869  10.572
21786W        W81047  41.447  16.803   3.632
21787W        W81048  20.719  42.388  14.003
21788W        W81049   5.225   9.389   0.481
21789W        W81050  29.529   3.902  14.938
21790W        W81051  38.972  20.709   4.181
21791W        W81052  23.201  16.774   2.851
21792W        W81053  34.453  35.392  11.109
21793W        W81054  35.418  38.058   2.330
21794W        W81055  22.031  44.325   1.291
21795W        W81056  17.694  39.010  10.998
21796W        W81057  40.335  37.468   9.465
21797W        W81058   8.220  11.331  11.468
21798W        W81059  17.693  21.741   0.348
21799W        W81060  20.173   7.204  12.400
21800W        W81061  38.444  34.399   2.348
21801W        W81062  27.053  27.195  14.407
21802W        W81063  31.076  43.354   5.789
21803W        W81064  40.856   9.361  14.516
21804W        W81065  42.514   7.810  11.029
21805W        W81066  37.339  26.619  14.924
21806W        W81067  16.312  36.903   2.343
21807W        W81068  17.717  39.406  12.856
21808W        W81069   9.677  23.606  14.331
21809W        W81070   5.895  12.761  13.844
21810W        W81071  32.460  11.651   1.904
21811W        W81072   6.352  15.162   0.418
21812W        W81073  44.358   9.322   3.304
21813W        W81074  36.388  27.637   1.392
21814W        W81075  22.184  29.073  11.566
21815W        W81076  19.239  36.514  11.890
21816W        W81077   3.856  16.805   1.916
21817W        W81078  12.177  25.609  10.627
21818W        W81079  29.138  12.141  10.528
21819W        W81080  42.840   4.919  14.454
21820W        W81081  24.488  32.117  11.884
21821W        W81082  42.339  38.923   1.242
21822W        W81083  23.559  38.046  13.981
21823W        W81084  32.505   7.750   1.779
21824W        W81085   8.260  10.263  13.812
21825W        W81086  33.460  44.273   2.896
21826W        W81087  43.283  27.973  11.373
21827W        W81088  29.076  11.805  12.858
21828W        W81089  29.154  43.887  13.811
21829W        W81090  39.050  32.507   4.249
21830W        W81091  21.609  28.060   4.209
21831W        W81092   0.978  32.091  11.121
21832W        W81093   8.337  29.505  12.482
21833W        W81094  34.876  32.918  11.521
21834W        W81095  12.289  33.924  11.117
21835W        W81096  11.858  23.033  12.414
21836W        W81097  29.093  43.871  13.032
21837W        W81098  43.854   4.711  13.418
21838W        W81099  17.250  22.225   0.319
21839W        W81100  16.649  39.547  11.373
21840W        W81101  11.678  35.028   0.857
21841W        W81102  28.678  37.041   3.232
21842W        W81103   3.750  41.010   1.244
21843W        W81104  20.128  27.453   0.964
21844W        W81105  43.939  13.350  14.398
21845W        W81106  26.693  17.745  12.574
21846W        W81107  33.617  32.528  12.873
21847W        W81108   5.756   3.744   0.806
21848W        W81109  38.328  27.559  14.368
21849W        W81110   8.721  23.516   2.261
21850W        W81111  33.889  30.068  12.503
21851W        W81112   8.796  18.212  11.991
21852W        W81113  31.148  29.656   1.752
21853W        W81114  43.867  26.615  10.485
21854W        W81115  17.169  13.756  12.557
21855W        W81116   4.398   7.687   0.930
21856W        W81117   6.727  14.276  12.520
21857W        W81118  27.151   7.228  14.004
21858W        W81119   4.812   5.877   0.453
21859W        W81120  33.501  19.549  10.120
21860W        W81121  27.106  30.649  10.517
21861W        W81122  34.006  26.572  12.004
21862W        W81123  23.199  41.428   2.216
21863W        W81124  32.537  35.976   4.262
21864W        W81125   0.791   6.707  14.901
21865W        W81126   0.468  43.513  13.458
21866W        W81127   1.826   8.372  10.936
21867W        W81128  21.573  42.026   0.378
21868W        W81129   6.278  40.903  10.528
21869W        W81130  36.586   5.405  13.311
21870W        W81131  28.020  32.535   0.374
21871W        W81132   8.290   4.264  13.406
21872W        W81133  36.523  33.604  11.520
21873W        W81134  17.174  30.106  13.462
21874W        W81135  22.233  11.791  12.048
21875W        W81136  11.286   4.730  14.319
21876W        W81137  19.137  40.851   0.743
21877W        W81138   8.696  16.176  13.922
21878W        W81139  12.658   0.940  10.469
21879W        W81140  18.561  17.762  11.094
21880W        W81141  20.563  38.948   3.776
21881W        W81142  40.808  29.088   2.234
21882W        W81143   5.335  14.737  13.479
21883W        W81144  10.832  32.060  13.481
21884W        W81145   3.722   5.227  11.100
21885W        W81146  19.630   7.856  13.499
21886W        W81147  39.825  24.552   2.384
21887W        W81148  35.452  36.853  11.500
21888W        W81149  16.731   2.955   4.672
21889W        W81150  35.108  17.183  10.415
21890W        W81151  41.403  12.779  12.056
21891W        W81152  26.983  30.929  12.842
21892W        W81153  20.744  35.375   2.322
21893W        W81154   4.390  15.148   0.829
21894W        W81155  21.571  39.328  10.913
21895W        W81156  39.510  14.213  10.990
21896W        W81157   7.779  19.568   3.311
21897W        W81158  35.023   6.215   5.238
21898W        W81159  38.044  33.924   1.246
21899W        W81160   3.296  37.000   2.236
21900W        W81161   1.973  38.024  10.601
21901W        W81162  41.340  38.449  11.938
21902W        W81163  29.958  18.090  11.983
21903W        W81164  22.063  23.159  12.017
21904W        W81165  14.208  44.935   1.418
21905W        W81166  22.200  38.436   4.747
21906W        W81167  12.151   3.225  12.421
21907W        W81168   4.242  29.453   1.425
21908W        W81169   8.822  21.156  10.918
21909W        W81170  23.717  19.561  12.397
21910W        W81171  35.922  16.201   0.908
21911W        W81172  17.287   2.740   1.428
21912W        W81173  16.780  39.861  11.056
21913W        W81174  20.158  29.165   0.343
21914W        W81175  33.473  38.977   9.934
21915W        W81176  12.270  25.691   2.871
21916W        W81177  29.503  35.958  13.040
21917W        W81178  17.715  22.743   2.297
21918W        W81179  26.628  30.037   1.819
21919W        W81180   6.368  19.535  12.003
21920W        W81181  16.212  26.697   1.825
21921W        W81182  10.349   5.354   0.303
21922W        W81183   4.436  22.026   1.723
21923W        W81184  29.948  44.328   0.861
21924W        W81185   3.770  36.475   1.298
21925W        W81186  22.159  12.664  10.638
21926W        W81187   0.982  12.815   3.764
21927W        W81188  24.141  27.196   2.671
21928W        W81189  35.579  29.466  12.876
21929W        W81190  17.766  17.251   3.358
21930W        W81191   8.840  10.330  13.903
21931W        W81192   9.168  22.722  13.996
21932W        W81193   4.743  35.008  12.089
21933W        W81194   2.431  14.693   2.208
21934W        W81195  12.260   7.402   1.854
21935W        W81196  29.566  38.983  10.616
21936W        W81197  36.994  24.560   2.823
21937W        W81198  21.683  28.968   3.185
21938W        W81199  12.301  20.195   4.651
21939W        W81200  31.498  31.445   9.540
21940W        W81201  29.632  43.323   4.182
21941W        W81202   4.761  22.013  11.878
21942W        W81203  31.406  39.379  14.951
21943W        W81204   7.226  31.128  14.432
21944W        W81205  39.956  42.974  11.950
21945W        W81206  30.007  22.108   1.266
21946W        W81207   1.777  11.661  10.600
21947W        W81208  36.462  24.660   0.826
21948W        W81209  16.213  13.830  13.544
21949W        W81210  41.337  44.765  14.998
21950W        W81211   7.861  30.581  13.531
21951W        W81212  41.321   8.398   0.249
21952W        W81213  31.033  43.831  13.919
21953W        W81214  27.013  43.894  10.554
21954W        W81215  27.139  24.051  10.429
21955W        W81216  33.079  29.111  10.420
21956W        W81217  42.967  43.512   4.639
21957W        W81218  41.007   9.726   1.807
21958W        W81219   2.871   3.920   1.801
21959W        W81220   8.352  16.738   4.300
21960W        W81221  20.658  34.374  11.475
21961W        W81222  41.810  37.031  14.376
21962W        W81223  36.875  23.110  14.410
21963W        W81224  39.322  15.316   1.428
21964W        W81225  17.183  15.300  13.923
21965W        W81226   0.355  37.836   0.418
21966W        W81227  42.893  44.757   4.313
21967W        W81228  32.594  15.327  14.771
21968W        W81229   8.900  10.239   4.219
21969W        W81230  44.891  39.032  14.380
21970W        W81231   2.341  10.379   0.369
21971W        W81232  10.804  23.667   1.867
21972W        W81233  15.153  16.769  14.914
21973W        W81234  26.623  19.559   5.259
21974W        W81235  44.834   4.711   4.753
21975W        W81236  10.326  13.736   2.269
21976W        W81237  28.463  30.085  14.367
21977W        W81238  19.172  27.081  14.396
21978W        W81239  20.656  43.305  11.974
21979W        W81240  17.583  43.782  13.438
21980W        W81241   6.287  43.381  13.814
21981W        W81242  40.540   2.282   2.418
21982W        W81243  21.566   0.746   1.357
21983W        W81244  27.520   2.427  11.373
21984W        W81245  17.283   6.814  12.431
21985W        W81246  15.759  21.256  14.905
21986W        W81247  30.628  20.029  12.974
21987W        W81248  17.741   3.354   0.330
21988W        W81249  21.062  26.695  12.577
21989W        W81250  11.250   7.666   1.703
21990W        W81251  38.509  34.951   1.268
21991W        W81252   9.866  24.595  11.912
21992W        W81253  11.148  10.211  14.839
21993W        W81254  11.711  22.558  12.577
21994W        W81255  11.832  28.037  10.031
21995W        W81256  19.133  26.481  12.988
21996W        W81257  35.538  34.881  11.557
21997W        W81258   3.368   2.924  13.998
21998W        W81259  14.633   3.227  13.345
21999W        W81260  11.184  11.820  14.769
22000W        W81261  37.883  25.056  13.007
22001W        W81262  26.632  14.733   4.334
22002W        W81263   9.707   1.799  11.546
22003W        W81264  28.438  33.448   3.203
22004W        W81265  29.584  31.928  14.012
22005W        W81266   4.789  20.170   4.837
22006W        W81267   2.472  37.001   1.273
22007W        W81268   9.186  41.942  11.936
22008W        W81269  15.720  17.653   5.200
22009W        W81270  16.210  36.592   1.339
22010W        W81271   0.949  19.767  14.278
22011W        W81272   9.214  29.524  13.511
22012W        W81273   4.930   2.731   4.722
22013W        W81274   5.404  25.985  13.431
22014W        W81275  17.124  14.645   4.266
22015W        W81276   2.724   9.777  12.345
22016W        W81277  23.215   1.396  14.281
22017W        W81278  21.652   1.347   0.865
22018W        W81279   5.916  16.585   4.691
22019W        W81280   8.166  15.085  13.908
22020W        W81281  34.906  12.164   3.342
22021W        W81282   9.159  13.671  10.116
22022W        W81283  26.587  18.065  14.853
22023W        W81284   6.795  15.138  11.609
22024W        W81285  44.860  11.660   1.787
22025W        W81286   8.348  13.348   4.147
22026W        W81287  39.537  34.932  10.519
22027W        W81288  30.587  23.200   0.918
22028W        W81289  38.517  19.053   4.661
22029W        W81290  16.276   2.800  10.457
22030W        W81291  10.355  14.214  14.929
22031W        W81292  11.350   1.259   1.253
22032W        W81293  38.571  33.026   1.282
22033W        W81294  44.503  19.603  12.376
22034W        W81295  41.972  33.079   3.252
22035W        W81296  23.199  18.081   2.378
22036W        W81297  40.909  21.643   0.867
22037W        W81298  13.631  37.070   4.228
22038W        W81299   2.415  41.398   4.293
22039W        W81300  26.023  40.917  10.592
22040W        W81301   2.467   4.258  13.023
22041W        W81302   9.361  16.726   3.819
22042W        W81303   3.822  28.986   1.451
22043W        W81304  13.608  14.102   4.816
22044W        W81305   6.910  12.708   0.799
22045W        W81306  43.809  33.125   2.380
22046W        W81307  12.227   6.281   2.360
22047W        W81308  28.465  30.431  13.836
22048W        W81309  28.677  25.049   3.358
22049W        W81310  11.287  33.510  10.455
22050W        W81311  37.884  35.590   1.249
22051W        W81312  37.008  32.021   3.162
22052W        W81313   1.854   2.468  10.618
22053W        W81314  14.782  16.131  14.435
22054W        W81315   1.965  11.372   3.786
22055W        W81316  23.993  29.535  12.033
22056W        W81317  43.872   9.220   0.803
22057W        W81318   0.892  11.130  12.944
22058W        W81319   5.195   5.355  11.406
22059W        W81320  38.950  16.247   3.206
22060W        W81321  26.137   1.767   2.738
22061W        W81322   5.786   2.463  14.842
22062W        W81323  33.989  33.063  13.924
22063W        W81324  33.442  26.015  11.927
22064W        W81325  39.379  25.588  10.418
22065W        W81326   8.876  23.186  11.588
22066W        W81327   7.178  26.656   4.628
22067W        W81328   9.765  43.938   2.718
22068W        W81329  15.785  22.059   4.281
22069W        W81330   3.926  27.021   4.154
22070W        W81331  37.416  27.152   1.296
22071W        W81332  17.571  39.404  14.760
22072W        W81333  35.421  14.291  11.455
22073W        W81334  21.029  20.213   2.300
22074W        W81335  16.690  29.056   0.783
22075W        W81336  35.863  12.743  14.008
22076W        W81337  20.539   6.341   3.225
22077W        W81338  11.186   8.753  10.601
22078W        W81339   0.344   2.761  14.767
22079W        W81340  36.063  39.473   2.755
22080W        W81341  32.607   8.817  13.998
22081W        W81342  19.285   5.414  14.477
22082W        W81343  22.229   3.709  12.092
22083W        W81344  33.465  41.416  11.901
22084W        W81345  38.460   0.908  11.578
22085W        W81346  14.124  36.009   1.930
22086W        W81347   6.789  39.437  10.602
22087W        W81348  35.403  41.830   0.947
22088W        W81349  35.959  10.325  11.924
22089W        W81350  37.065  26.459  12.043
22090W        W81351  36.432  42.811   3.716
22091W        W81352   9.670   9.655   1.278
22092W        W81353  27.102   9.842   4.821
22093W        W81354  38.509  39.037  13.358
22094W        W81355   9.183  21.640   2.812
22095W        W81356   6.428  34.559   2.418
22096W        W81357  40.464  25.124   5.114
22097W        W81358  18.127  24.175   9.482
22098W        W81359  24.994  36.457  13.343
22099W        W81360  12.645  13.803  14.773
22100W        W81361  39.398  44.919   0.392
22101W        W81362  40.489  40.819   1.364
22102W        W81363  12.298  16.302  11.572
22103W        W81364   5.760  30.053   1.381
22104W        W81365  15.248  43.329  11.602
22105W        W81366  36.887   8.679  11.909
22106W        W81367   8.211  12.334  13.504
22107W        W81368   9.704  10.643   1.423
22108W        W81369  43.779  41.359   2.291
22109W        W81370   1.396  22.119   2.892
22110W        W81371  35.964  19.188   4.805
22111W        W81372  42.933  26.952  12.042
22112W        W81373   4.287  19.211  14.793
22113W        W81374  25.206  11.797   2.242
22114W        W81375  41.944  36.857  11.407
22115W        W81376  29.622   7.788  14.010
22116W        W81377  39.406  40.450  10.523
22117W        W81378  34.434  35.570   1.916
22118W        W81379  38.426   9.660   0.816
22119W        W81380  19.628  38.977   0.462
22120W        W81381  42.791  16.218   0.287
22121W        W81382  31.615   7.225   2.273
22122W        W81383  21.533  26.680   2.366
22123W        W81384  27.964  24.995   3.789
22124W        W81385  39.868  43.476   0.965
22125W        W81386  24.499  19.579   3.260
22126W        W81387  20.068  40.482  14.447
22127W        W81388  44.872   9.206   2.300
22128W        W81389  19.126   9.795   3.657
22129W        W81390  25.987  35.001   4.214
22130W        W81391  27.021  15.199   3.739
22131W        W81392   3.878  33.589  13.005
22132W        W81393  13.249  30.994   4.719
22133W        W81394  15.614  31.449  12.367
22134W        W81395  25.605  34.867  12.930
22135W        W81396  33.032  13.271  12.545
22136W        W81397   7.249   7.359   2.241
22137W        W81398  32.551   4.929   1.784
22138W        W81399  27.553  37.429   4.135
22139W        W81400  34.987  17.099   3.173
22140W        W81401  35.961  24.078   1.232
22141W        W81402  12.709   4.772  13.816
22142W        W81403  15.237   6.266  10.149
22143W        W81404   3.220  42.288   1.874
22144W        W81405  30.081  39.379  11.404
22145W        W81406  40.446  20.738  13.015
22146W        W81407   9.706  10.658  13.962
22147W        W81408  42.445  35.573  14.890
22148W        W81409  34.528  40.042  11.940
22149W        W81410  29.624  16.119  11.032
22150W        W81411  20.161  28.581  14.505
22151W        W81412  20.049  30.102  12.367
22152W        W81413  17.146  11.318  14.903
22153W        W81414  23.202  40.459   3.222
22154W        W81415   0.260  29.115   4.705
22155W        W81416  27.049  43.377  14.463
22156W        W81417  17.710  43.001   0.257
22157W        W81418  27.627   5.872   4.751
22158W        W81419  15.122  24.589  11.940
22159W        W81420   0.835  13.110  11.944
22160W        W81421  14.596  35.383   0.470
22161W        W81422  26.053  11.145   4.260
22162W        W81423  11.649   6.753   3.764
22163W        W81424  12.353  27.185  11.559
22164W        W81425   0.792   4.765   4.608
22165W        W81426   7.172   1.325   0.960
22166W        W81427  15.220  35.008   0.244
22167W        W81428  12.224  28.185  13.023
22168W        W81429  11.133  12.838   2.677
22169W        W81430  24.058  32.135  14.504
22170W        W81431  44.465   2.873  10.973
22171W        W81432  19.568  18.276  10.900
22172W        W81433  11.629  44.963  10.963
22173W        W81434  23.218  39.489   3.315
22174W        W81435   2.789  22.731   0.789
22175W        W81436  43.000  44.860   4.707
22176W        W81437  26.606  18.584  11.861
22177W        W81438  17.716  24.081   3.848
22178W        W81439  17.736  21.648   3.292
22179W        W81440  16.793  35.907  10.425
22180W        W81441  41.348  35.888  10.511
22181W        W81442  15.661  41.406   3.274
22182W        W81443  28.933  10.315  14.002
22183W        W81444  28.009  25.988   1.265
22184W        W81445  21.102  23.198  11.419
22185W        W81446  34.931  18.065  12.906
22186W        W81447  40.030   0.348   4.795
22187W        W81448   8.278  27.670  14.479
22188W        W81449  41.377  18.656  12.429
22189W        W81450  28.956  23.063  13.491
22190W        W81451  30.972  31.460   9.942
22191W        W81452  33.468  39.808  10.541
22192W        W81453  16.787   3.939  10.445
22193W        W81454  44.793  41.022  10.913
22194W        W81455  21.190  32.636  12.888
22195W        W81456   4.831  19.549   3.731
22196W        W81457   6.684  25.050   2.670
22197W        W81458   4.751  19.682   0.909
22198W        W81459  14.183  33.386  12.918
22199W        W81460  30.588  32.002   2.394
22200W        W81461  27.688  32.004  10.079
22201W        W81462  44.912  36.475  12.506
22202W        W81463  21.231   1.454  11.499
22203W        W81464  20.150  30.591   0.738
22204W        W81465  29.932   9.798   5.108
22205W        W81466  14.594  25.521   3.726
22206W        W81467  11.299  32.398   1.808
22207W        W81468  37.843  33.436   5.636
22208W        W81469  44.858  42.319  13.852
22209W        W81470  26.526  41.021   2.230
22210W        W81471  42.989   4.216  14.989
22211W        W81472   6.821  15.794  12.972
22212W        W81473  41.847   9.643   1.818
22213W        W81474  14.637  44.277  10.449
22214W        W81475   7.834  34.101  13.926
22215W        W81476  15.609  38.966  10.098
22216W        W81477  21.025  14.677   1.347
22217W        W81478   0.968  38.914   1.440
22218W        W81479  16.764  30.953   3.757
22219W        W81480   8.676  44.368   1.920
22220W        W81481  23.021  23.620   0.881
22221W        W81482   6.900   2.355   4.717
22222W        W81483  44.284  29.152   9.947
22223W        W81484  33.478  31.989  14.343
22224W        W81485  12.745  43.810   4.799
22225W        W81486   0.788  22.502  11.077
22226W        W81487  34.940   3.944  13.005
22227W        W81488  22.038   2.402  10.452
22228W        W81489  10.230   6.184   3.387
22229W        W81490   3.306  10.726  12.383
22230W        W81491  14.698  23.090   4.812
22231W        W81492  18.770  30.945  12.029
22232W        W81493  40.488  42.519   3.291
22233W        W81494  14.304  22.247  13.512
22234W        W81495  42.972  24.563   3.182
22235W        W81496  26.967   4.876   0.316
22236W        W81497   2.278  17.646  11.525
22237W        W81498  36.974   9.681   0.346
22238W        W81499  33.906  19.232  14.773
22239W        W81500   2.855  44.484   4.713
22240W        W81501  42.909  20.729   1.755
22241W        W81502  32.451  42.422   0.385
22242W        W81503   5.850  39.320  13.941
22243W        W81504  26.514  38.354   1.413
22244W        W81505   5.714   9.331   3.280
22245W        W81506  40.443  32.526  12.060
22246W        W81507   4.263  40.021  14.842
22247W        W81508   9.265  19.256  14.881
22248W        W81509  25.629   9.275   3.827
22249W        W81510   9.672  18.059   0.911
22250W        W81511  30.101  33.395  13.535
22251W        W81512   3.767   9.657  13.855
22252W        W81513  32.410  26.534  11.581
22253W        W81514  14.613  43.776   4.182
22254W        W81515  14.202  26.967  13.886
22255W        W81516  34.466  28.075   4.212
22256W        W81517   8.728  37.948  10.415
22257W        W81518   5.383  34.960  12.001
22258W        W81519  27.126  18.095   3.839
22259W        W81520  20.100  38.487  12.343
22260W        W81521   7.362  28.464  14.341
22261W        W81522  40.378  30.119  14.332
22262W        W81523  36.853  23.055   4.146
22263W        W81524  21.515  26.105  12.005
22264W        W81525  28.005  42.394  10.633
22265W        W81526   9.664  33.044  11.879
22266W        W81527   5.425  24.121  13.429
22267W        W81528  12.292  30.442   4.763
22268W        W81529  18.755   6.781  13.370
22269W        W81530  23.087  34.556  11.122
22270W        W81531  24.563  13.339   0.961
22271W        W81532   7.380  16.191  14.845
22272W        W81533  28.999  26.609  14.787
22273W        W81534  27.951  13.205  13.047
22274W        W81535  13.208  16.185   4.298
22275W        W81536  15.629  38.340   3.341
22276W        W81537   5.401  44.422  14.316
22277W        W81538   6.246  30.080  12.536
22278W        W81539   4.350  17.181   3.818
22279W        W81540  33.481  38.835   0.741
22280W        W81541  36.852  13.692   3.811
22281W        W81542  34.602  29.645  11.894
22282W        W81543  37.404  25.207   1.305
22283W        W81544  18.281  37.452   3.258
22284W        W81545   0.967  35.553  12.429
22285W        W81546  42.914  28.008   0.742
22286W        W81547  35.054  22.562   0.872
22287W        W81548   7.178   7.760  14.768
22288W        W81549  14.633   3.384   0.848
22289W        W81550  12.657  44.003   1.803
22290W        W81551  21.512  27.450   2.677
22291W        W81552  42.290   8.294  13.931
22292W        W81553  11.161  39.963   2.868
22293W        W81554  24.120  30.422   2.305
22294W        W81555  29.653  42.783   5.299
22295W        W81556  12.300  43.330  11.379
22296W        W81557  42.502  14.148  10.411
22297W        W81558  20.164   9.851  10.565
22298W        W81559  10.672  11.366   1.345
22299W        W81560  43.963  17.656  13.340
22300W        W81561  31.635  33.548  12.527
22301W        W81562  13.786  22.681  10.955
22302W        W81563  38.065  40.920  14.767
22303W        W81564  16.214  19.092   3.331
22304W        W81565  13.338   6.407  12.525
22305W        W81566  33.395  28.625  11.566
22306W        W81567   3.416  21.253  14.932
22307W        W81568   6.829   2.889   3.767
22308W        W81569  35.887  12.760   1.898
22309W        W81570  23.092  32.446  11.480
22310W        W81571   6.357  16.153  14.764
22311W        W81572  41.522  38.331   4.217
22312W        W81573  43.838   1.287  14.941
22313W        W81574  43.899   9.163  11.950
22314W        W81575  22.735  15.595  10.471
22315W        W81576  20.535  24.082   1.320
22316W        W81577  32.421  23.539  12.437
22317W        W81578  19.714  11.135  10.615
22318W        W81579  25.046  39.395  14.889
22319W        W81580  15.322  42.373   4.314
22320W        W81581  17.689  35.602   3.359
22321W        W81582  15.120  17.668   3.777
22322W        W81583   9.243  31.027   3.191
22323W        W81584  42.849  20.609   4.337
22324W        W81585  30.486   1.471   2.678
22325W        W81586  43.279   0.799   4.607
22326W        W81587  31.146  26.466  14.970
22327W        W81588  28.530  19.729   0.429
22328W        W81589  37.539  16.751  10.541
22329W        W81590  20.711   6.238   1.814
22330W        W81591  28.166   8.336  14.358
22331W        W81592  33.058  33.954  14.974
22332W        W81593  19.066  34.470   3.816
22333W        W81594   3.234  16.156   3.705
22334W        W81595  12.712  35.010   2.830
22335W        W81596   6.417   6.306   4.677
22336W        W81597   8.819  36.082  10.026
22337W        W81598  34.022  25.557  11.404
22338W        W81599  36.476   5.870  13.319
22339W        W81600   9.282  29.149  13.829
22340W        W81601  12.224  44.884  13.908
22341W        W81602  44.283  16.187   1.908
22342W        W81603  37.452  30.594   0.741
22343W        W81604   8.284  25.090   1.273
22344W        W81605  29.057  25.054   3.240
22345W        W81606  28.121  35.990   4.823
22346W        W81607  10.313   1.360  11.885
22347W        W81608  38.361  27.070  11.603
22348W        W81609  12.136  21.259  14.985
22349W        W81610  22.601  21.217   0.410
22350W        W81611  16.787  36.084  14.902
22351W        W81612  42.009  33.452   4.246
22352W        W81613  18.158  19.060  11.502
22353W        W81614   7.796   5.923  14.279
22354W        W81615   0.278  28.076   4.718
22355W        W81616  22.699  35.364  11.951
22356W        W81617  33.575  36.373  11.465
22357W        W81618  10.375   7.755  12.347
22358W        W81619  21.170  28.076  10.621
22359W        W81620  23.187  38.964  14.450
22360W        W81621  38.981  26.179   1.304
22361W        W81622  40.025  43.849   4.347
22362W        W81623  34.058  18.276  12.577
22363W        W81624  41.467  29.013   2.239
22364W        W81625   6.746  18.772  11.448
22365W        W81626  44.769  25.045  14.286
22366W        W81627  33.092  16.208  14.785
22367W        W81628  13.624  12.696   2.415
22368W        W81629  29.433   3.825   3.630
22369W        W81630  16.572  21.230   3.860
22370W        W81631  36.349  16.316  12.483
22371W        W81632   3.271   7.689   2.216
22372W        W81633   5.308   0.387  13.831
22373W        W81634  37.350  19.050  12.062
22374W        W81635   2.881  37.926  11.384
22375W        W81636  43.887  23.152  12.435
22376W        W81637  36.885   3.745   0.885
22377W        W81638   6.768  11.289   3.808
22378W        W81639   7.763  35.601   4.684
22379W        W81640   8.769  17.070  12.509
22380W        W81641  28.510   3.416  14.880
22381W        W81642  31.141  24.607   0.960
22382W        W81643  18.719  14.666   1.409
22383W        W81644  44.838  28.586   1.839
22384W        W81645  43.893  23.564  13.914
22385W        W81646  14.691  23.523  14.459
22386W        W81647  41.991   8.828   4.242
22387W        W81648   8.788  41.940   1.430
22388W        W81649  31.909  25.076   0.397
22389W        W81650  23.230  29.074   0.261
22390W        W81651  11.863  28.592   0.452
22391W        W81652  18.645  15.709  11.897
22392W        W81653  32.444  40.017   1.795
22393W        W81654  33.502   1.744   2.808
22394W        W81655  44.928  43.427   2.700
22395W        W81656   4.293  28.621  14.870
22396W        W81657  13.260   7.827  10.642
22397W        W81658  37.355  32.630  12.056
22398W        W81659  10.183  12.620   0.727
22399W        W81660  41.011  29.532   0.855
22400W        W81661  14.300  18.736   5.176
22401W        W81662  10.202   5.288   2.834
22402W        W81663  35.981   2.455   0.948
22403W        W81664   9.834  20.704   0.883
22404W        W81665   5.778  12.184  12.354
22405W        W81666  29.504  25.700  14.511
22406W        W81667  30.156  12.814  12.511
22407W        W81668   3.911   2.304   4.340
22408W        W81669  36.057  16.587   0.484
22409W        W81670  38.330  12.624  12.409
22410W        W81671  44.882  26.971  10.459
22411W        W81672   1.257   4.277  10.990
22412W        W81673  43.795  34.478   2.333
22413W        W81674  28.073  38.548   3.315
22414W        W81675  30.935  38.492   2.761
22415W        W81676  43.905  42.967   3.240
22416W        W81677  19.049  10.375  12.086
22417W        W81678  32.134  42.913  12.412
22418W        W81679  41.005  37.940   1.758
22419W        W81680   2.419  11.295   1.230
22420W        W81681  11.220  16.081  11.605
22421W        W81682  24.527  43.807   4.114
22422W        W81683   5.821  43.827  13.485
22423W        W81684  39.851  22.098  11.555
22424W        W81685  15.101  12.641  10.995
22425W        W81686  10.359  40.388  13.381
22426W        W81687  15.721   0.380   2.211
22427W        W81688  33.966   0.765   1.427
22428W        W81689  11.829  39.425   9.995
22429W        W81690  43.358  11.371   4.665
22430W        W81691  37.413  25.680   1.396
22431W        W81692   4.822   6.755   0.297
22432W        W81693  40.327  42.932  11.455
22433W        W81694  21.165  29.646   1.848
22434W        W81695  31.018  35.015  14.422
22435W        W81696  23.028  11.868   4.824
22436W        W81697  31.460   2.730  14.445
22437W        W81698  38.500  24.479  13.030
22438W        W81699  19.254  40.905  13.940
22439W        W81700   8.759  29.630   4.274
22440W        W81701  30.463  30.961   0.782
22441W        W81702  33.971   1.926  10.618
22442W        W81703  44.989  33.385  13.311
22443W        W81704  13.688  41.929  12.420
22444W        W81705  22.581   0.326  11.052
22445W        W81706  44.922  28.636  13.982
22446W        W81707  42.835   8.396   1.369
22447W        W81708   8.808  30.965   4.305
22448W        W81709  32.469   2.333  13.489
22449W        W81710  26.541  26.475   1.876
22450W        W81711  33.087  11.824   1.344
22451W        W81712  44.918  14.719   2.306
22452W        W81713   7.842   2.305  12.033
22453W        W81714  19.550  35.363   2.835
22454W        W81715  28.450  30.132  10.969
22455W        W81716  28.454  33.483  14.773
22456W        W81717   9.694   9.758  10.634
22457W        W81718  37.351  33.494  14.472
22458W        W81719  38.406  42.326  10.420
22459W        W81720   4.259  37.853   0.899
22460W        W81721   1.350  32.957   0.748
22461W        W81722  32.978  20.267   4.219
22462W        W81723   1.846  38.919  11.947
22463W        W81724  14.201   3.843  12.437
22464W        W81725  11.249  38.970   3.240
22465W        W81726  34.970  10.738  14.342
22466W        W81727  40.875  43.964   3.293
22467W        W81728  37.528   7.719  14.024
22468W        W81729  37.553   9.337  11.438
22469W        W81730   8.361   4.415   3.734
22470W        W81731   0.485   7.770  11.002
22471W        W81732  36.881  37.991  14.018
22472W        W81733  24.995  22.172   1.726
22473W        W81734  38.545  13.136   1.223
22474W        W81735  32.113  35.885   2.766
22475W        W81736  13.659  12.330  13.797
22476W        W81737  19.183  11.864  13.010
22477W        W81738  36.465   2.899  10.423
22478W        W81739  22.710  38.338  12.459
22479W        W81740   8.395   2.802  12.832
22480W        W81741   4.791   5.860  14.885
22481W        W81742  36.033  41.916   1.289
22482W        W81743  39.438   2.851  14.481
22483W        W81744  28.136  17.633  10.554
22484W        W81745  28.042  17.719  11.510
22485W        W81746  11.731  12.188   1.720
22486W        W81747  12.246   5.894   3.771
22487W        W81748  27.686   1.298  13.998
22488W        W81749  20.558   4.845  12.837
22489W        W81750  23.083  28.671   1.893
22490W        W81751   8.226  32.560   4.250
22491W        W81752  40.040  26.078  12.545
22492W        W81753  35.055   2.798   0.758
22493W        W81754  20.557  29.043   2.274
22494W        W81755  40.472  40.337   3.337
22495W        W81756  36.479   6.713   3.238
22496W        W81757  26.076  16.078  14.992
22497W        W81758   1.456   5.880   2.668
22498W        W81759  11.257  19.676  13.016
22499W        W81760  41.481  38.973   4.676
22500W        W81761  38.418   4.870  11.858
22501W        W81762  29.569  42.288  12.038
22502W        W81763  39.845  35.534   1.316
22503W        W81764  12.338   6.301   0.411
22504W        W81765  41.800   9.859  13.896
22505W        W81766   2.853  25.175  11.433
22506W        W81767  35.015  11.289  13.996
22507W        W81768  40.487  12.684   4.659
22508W        W81769   8.282  26.635  13.461
22509W        W81770  12.848  12.671  13.480
22510W        W81771  30.047  10.753   3.321
22511W        W81772  32.909  28.598  11.908
22512W        W81773  11.841  33.920   0.960
22513W        W81774  20.567  38.002   4.702
22514W        W81775  43.469  28.646   0.747
22515W        W81776  11.272  19.737  13.525
22516W        W81777   8.773  33.548   4.772
22517W        W81778  37.566  32.533  14.909
22518W        W81779  14.608  42.814  14.896
22519W        W81780  22.565  38.023   1.806
22520W        W81781  30.017  40.416  14.403
22521W        W81782  13.809  22.181   4.705
22522W        W81783  33.390  43.940   4.803
22523W        W81784  14.185  26.466  12.858
22524W        W81785  30.487  36.054  10.452
22525W        W81786   3.799  16.217  14.990
22526W        W81787  32.079  37.541  11.416
22527W        W81788  44.983  40.441  14.379
22528W        W81789   1.935  38.873  13.023
22529W        W81790  24.638   0.276   3.787
22530W        W81791  37.490  11.304   3.717
22531W        W81792  26.014  23.094  14.920
22532W        W81793   8.873   9.268   5.121
22533W        W81794  16.602   3.375  11.556
22534W        W81795  39.814   9.308   0.755
22535W        W81796  40.373  28.167   3.304
22536W        W81797   0.770  31.635  14.824
22537W        W81798   1.861  41.452   0.410
22538W        W81799   2.376  44.861  13.833
22539W        W81800   2.927  39.007   2.324
22540W        W81801  42.972  17.693  11.532
22541W        W81802  44.868   1.791  14.415
22542W        W81803  32.028  29.035   1.878
22543W        W81804  40.867  14.120   1.282
22544W        W81805  20.585  10.781   1.291
22545W        W81806  43.013   5.380  11.372
22546W        W81807  42.415  30.490   0.919
22547W        W81808   9.378   3.783   1.397
22548W        W81809  20.167  12.643   1.797
22549W        W81810  35.593  36.054  10.053
22550W        W81811  16.139  18.141   4.245
22551W        W81812   3.725  25.168   4.688
22552W        W81813  24.086  20.088   1.344
22553W        W81814   0.961  22.144   0.787
22554W        W81815   0.386  37.919   4.292
22555W        W81816  17.307  36.483  11.965
22556W        W81817   4.907  23.048  10.478
22557W        W81818  19.101   0.325   2.810
22558W        W81819   0.429  33.070   0.769
22559W        W81820  35.496  15.687  14.991
22560W        W81821  17.589  36.456   2.370
22561W        W81822  16.634  24.015  10.405
22562W        W81823   7.212  25.007  12.484
22563W        W81824  43.509  11.632   1.837
22564W        W81825  33.104  35.512  12.976
22565W        W81826  39.851  11.222   1.790
22566W        W81827  10.685  31.113  13.963
22567W        W81828  43.391  17.578  13.941
22568W        W81829   4.357  10.164   4.169
22569W        W81830  33.952  36.411  14.334
22570W        W81831  40.033  12.839  14.355
22571W        W81832  41.445  27.591  14.790
22572W        W81833  10.798  42.873  12.949
22573W        W81834  18.154  24.189   5.224
22574W        W81835  25.664  42.982  14.501
22575W        W81836  15.732   6.196  10.915
22576W        W81837  28.946  22.220   2.816
22577W        W81838  14.733  16.640  14.019
22578W        W81839  31.507  19.283   0.728
22579W        W81840  43.003  40.435   0.765
22580W        W81841  37.013   2.369   3.639
22581W        W81842  12.134   1.417  10.075
22582W        W81843  11.162  36.387  14.303
22583W        W81844  32.598  34.057   4.807
22584W        W81845  15.696  18.246   0.738
22585W        W81846  13.261  31.406   0.429
22586W        W81847  35.388  16.183   4.799
22587W        W81848  19.679  21.020  14.911
22588W        W81849   6.823  35.883   1.246
22589W        W81850  31.017  19.751   4.656
22590W        W81851  26.523   6.415   5.099
22591W        W81852  43.820   1.861  14.969
22592W        W81853  32.414   5.856  10.532
22593W        W81854  44.391  13.749  11.879
22594W        W81855  39.363  16.266   1.749
22595W        W81856  33.588   7.417   3.320
22596W        W81857  44.319  24.493  13.064
22597W        W81858  29.154   1.358  14.925
22598W        W81859  44.975   4.412   0.416
22599W        W81860  10.824  26.516  12.075
22600W        W81861   4.386  39.836   3.246
22601W        W81862   2.252   5.285  14.871
22602W        W81863  26.109  12.714   3.375
22603W        W81864  37.021   5.752   2.401
22604W        W81865   0.808  19.104  11.551
22605W        W81866  34.530  14.136  11.405
22606W        W81867  44.422  17.078  11.874
22607W        W81868  43.793  42.987  10.473
22608W        W81869  18.130  37.045   1.807
22609W        W81870  31.486  27.636   1.694
22610W        W81871  26.539  15.318   0.863
22611W        W81872  33.433  44.888  12.029
22612W        W81873  21.623  37.465   4.703
22613W        W81874  20.117  39.840   3.637
22614W        W81875   0.947  19.251  13.897
22615W        W81876  30.983  27.142  13.941
22616W        W81877  36.055  16.718   2.790
22617W        W81878  44.983  31.561   0.280
22618W        W81879  13.725   9.885  12.382
22619W        W81880  21.542  39.372   4.171
22620W        W81881  18.084  27.005  13.380
22621W        W81882   4.837  28.975  12.350
22622W        W81883  38.367   7.687  12.023
22623W        W81884   6.681   4.346  14.919
22624W        W81885  13.139  37.478   1.728
22625W        W81886  44.924  41.894  13.355
22626W        W81887  39.914  37.997  11.045
22627W        W81888   0.425  12.745  12.005
22628W        W81889  27.061  31.469   3.215
22629W        W81890  23.713  25.007   4.731
22630W        W81891  16.306  39.490   2.193
22631W        W81892  34.612   5.381  14.491
22632W        W81893  28.672  21.671   3.742
22633W        W81894  17.267  15.806  14.020
22634W        W81895  34.539   5.857  13.941
22635W        W81896  11.813  29.952  13.415
22636W        W81897  16.267  23.028  11.004
22637W        W81898  30.044  26.566  12.463
22638W        W81899  37.862  19.711  11.483
22639W        W81900  14.176  36.470   0.871
22640W        W81901  12.677  23.692   0.434
22641W        W81902  22.218  10.225  14.830
22642W        W81903  16.288   3.722  10.942
22643W        W81904  23.191  41.933  11.593
22644W        W81905  22.546   2.321   4.200
22645W        W81906  28.531  13.656   3.272
22646W        W81907  20.538   3.736  10.601
22647W        W81908  42.392   5.894   2.815
22648W        W81909   9.377  20.246   2.310
22649W        W81910  21.256  37.406  11.897
22650W        W81911  41.911  35.994   5.790
22651W        W81912  32.108  34.964  14.459
22652W        W81913  20.185  44.997  14.477
22653W        W81914   2.432  38.470  13.349
22654W        W81915  20.755  16.765   2.666
22655W        W81916  43.854  12.131   3.837
22656W        W81917   1.851  38.421  10.908
22657W        W81918  26.518  18.679   3.761
22658W        W81919  20.550   9.344   2.297
22659W        W81920   6.421  10.824   2.183
22660W        W81921  22.098  15.587   1.832
22661W        W81922   2.828  14.124   3.795
22662W        W81923   2.318  27.599  14.447
22663W        W81924  38.824  40.035   0.765
22664W        W81925   5.763  39.363   4.797
22665W        W81926  36.080   3.254   4.753
22666W        W81927  11.172  26.075   3.739
22667W        W81928  34.915  29.169   4.743
22668W        W81929   8.197  28.971   0.808
22669W        W81930  23.162  42.445  12.340
22670W        W81931  10.694  11.860   2.857
22671W        W81932  25.592  33.525   0.780
22672W        W81933  27.625  40.940   4.755
22673W        W81934  30.025  17.145  12.944
22674W        W81935  35.979  34.996   0.466
22675W        W81936  39.020   8.758  14.362
22676W        W81937  19.712  10.360  12.005
22677W        W81938  31.020  40.442  11.989
22678W        W81939  12.808   2.852  13.847
22679W        W81940  33.896   1.404   3.148
22680W        W81941  44.772  41.417  10.485
22681W        W81942  20.175  44.376  11.887
22682W        W81943  43.383  34.389  10.621
22683W        W81944  34.954  29.668   2.673
22684W        W81945   8.322  15.281   3.264
22685W        W81946   8.361  33.597  11.029
22686W        W81947  28.104  16.316  13.052
22687W        W81948  18.284  10.296  12.563
22688W        W81949   5.792  27.052   4.139
22689W        W81950  13.696  24.711  10.475
22690W        W81951  42.310  44.837  13.887
22691W        W81952  31.479   8.655  12.066
22692W        W81953   0.869  22.247  14.499
22693W        W81954   0.310   0.419  13.365
22694W        W81955  31.459  27.598  14.797
22695W        W81956  16.602   3.453   4.661
22696W        W81957   4.905   2.460   1.392
22697W        W81958  38.965   5.353  10.498
22698W        W81959  31.085   3.352  12.500
22699W        W81960  30.524  41.427  10.968
22700W        W81961  36.938  37.079   9.549
22701W        W81962  37.375  33.470  13.432
22702W        W81963   6.856  30.161  10.637
22703W        W81964  42.340  19.263   1.790
22704W        W81965  13.707  13.122   2.694
22705W        W81966  24.022   8.804  11.026
22706W        W81967  43.794  29.624   4.813
22707W        W81968  40.892  25.002  14.365
22708W        W81969  17.246  29.050   2.873
22709W        W81970  18.126   6.391   3.782
22710W        W81971  12.722  10.657   1.447
22711W        W81972   7.837  25.554   0.850
22712W        W81973  12.843  39.328   4.178
22713W        W81974   1.829  41.450   2.878
22714W        W81975  20.605   2.905  11.011
22715W        W81976  21.601  41.798  13.434
22716W        W81977   7.251  39.851  14.454
22717W        W81978  22.109   8.680   0.882
22718W        W81979  35.890  14.771  11.108
22719W        W81980  16.776  39.852   0.291
22720W        W81981  42.359  37.569   0.924
22721W        W81982  22.610  25.486   0.343
22722W        W81983  15.169   9.724  14.356
22723W        W81984   8.402  18.106  13.542
22724W        W81985  39.467  28.966   0.916
22725W        W81986  11.143   9.710  10.567
22726W        W81987  20.218  32.020  12.466
22727W        W81988  37.361   4.375  12.838
22728W        W81989  20.090  28.624  11.528
22729W        W81990  17.095  29.657   0.945
22730W        W81991  26.149  18.595  10.481
22731W        W81992  40.513  16.258  13.326
22732W        W81993  33.481   4.793  11.906
22733W        W81994  13.129   8.370   2.783
22734W        W81995   9.360  31.469  13.861
22735W        W81996  23.129  17.270   2.885
22736W        W81997  23.065  29.049  14.890
22737W        W81998  32.112  38.828   2.750
22738W        W81999  17.233   2.359   3.194
22739W        W82000  39.377  34.997   2.413
22740W        W82001  34.407   8.197   3.739
22741W        W82002  26.071  38.001  11.117
22742W        W82003   3.267  28.059  11.021
22743W        W82004  42.002  43.510  12.574
22744W        W82005   4.889  40.012   1.855
22745W        W82006   0.404  33.589  14.443
22746W        W82007  30.452  13.638  12.403
22747W        W82008  20.700  21.153  12.890
22748W        W82009  26.990  23.000  13.504
22749W        W82010  18.693  11.785   3.352
22750W        W82011  19.140  38.041   0.466
22751W        W82012  13.121  23.690   3.190
22752W        W82013  29.048  21.220  13.456
22753W        W82014  30.999  41.501   0.443
22754W        W82015  22.180  11.345  12.825
22755W        W82016   3.904  25.581   4.662
22756W        W82017  42.350  32.077   0.441
22757W        W82018   3.850  24.033   0.779
22758W        W82019  14.723  43.283  14.912
22759W        W82020  39.914  10.706  14.937
22760W        W82021  16.072  43.421   3.196
22761W        W82022  39.879  23.096  12.440
22762W        W82023  20.246  32.545  14.514
22763W        W82024   1.936   1.329  11.548
22764W        W82025  43.305  12.630   3.691
22765W        W82026   4.730   7.209  14.983
22766W        W82027  40.329  37.078  11.483
22767W        W82028  25.211  15.812  13.360
22768W        W82029   2.901  40.475  13.027
22769W        W82030  26.010   3.796   3.219
22770W        W82031  33.530   0.923  10.113
22771W        W82032  31.496  10.362  12.431
22772W        W82033  10.214  32.521  10.615
22773W        W82034   8.683  29.995   0.343
22774W        W82035   4.318  41.303  14.828
22775W        W82036  38.416  27.960  14.004
22776W        W82037   4.914  19.088   1.263
22777W        W82038  30.486  28.544  13.871
22778W        W82039  43.510  36.439  13.866
22779W        W82040   5.233   9.732  13.935
22780W        W82041  34.062  33.919   2.792
22781W        W82042   2.959   8.233   0.444
22782W        W82043   3.234  29.167  13.878
22783W        W82044  44.852   3.771  13.495
22784W        W82045  40.383  43.488   1.862
22785W        W82046  35.961  38.510  11.399
22786W        W82047  28.460  23.560   4.214
22787W        W82048  23.545  22.143   2.830
22788W        W82049  23.072   8.886  11.857
22789W        W82050   6.740  40.986  12.014
22790W        W82051   4.771  42.005   3.318
22791W        W82052  40.505  33.495   0.274
22792W        W82053   2.464   6.695   4.702
22793W        W82054   6.282  18.565   2.251
22794W        W82055  39.015  26.980   3.153
22795W        W82056  20.716   2.967   3.340
22796W        W82057  21.749   7.879  10.982
22797W        W82058  27.533  17.647  12.860
22798W        W82059  13.205  44.762   1.420
22799W        W82060  32.049  37.959   3.634
22800W        W82061  13.752  31.982   4.645
22801W        W82062  21.718   3.946  14.509
22802W        W82063  19.630  20.576  12.033
22803W        W82064  38.937   2.462  11.910
22804W        W82065   8.669  33.889  13.323
22805W        W82066  28.560  25.138   0.441
22806W        W82067   0.412   1.263   3.799
22807W        W82068   3.728  13.317   4.180
22808W        W82069  14.139  16.572  11.482
22809W        W82070   4.862  15.740   4.277
22810W        W82071  27.661  12.161  14.373
22811W        W82072  39.321   6.761   3.193
22812W        W82073   6.758   4.812  14.444
22813W        W82074  34.923   8.868   4.121
22814W        W82075  24.591  12.206   4.812
22815W        W82076   7.201   4.277   0.396
22816W        W82077  43.875  27.674  14.799
22817W        W82078  44.862  12.678  13.441
22818W        W82079  28.501  27.564   3.644
22819W        W82080   0.929  13.601  13.448
22820W        W82081  20.270  16.654  13.441
22821W        W82082  20.116  17.658   1.929
22822W        W82083  12.333   9.730   3.798
22823W        W82084  18.692  32.079  10.523
22824W        W82085  43.795  37.850   3.826
22825W        W82086  38.876  41.399  11.880
22826W        W82087  31.475  27.173  14.436
22827W        W82088   3.450  22.232   2.326
22828W        W82089  23.050  33.543   1.816
22829W        W82090  28.148  12.684  10.021
22830W        W82091  43.935  14.174  12.053
22831W        W82092   6.416  42.452  11.572
22832W        W82093  14.269  36.070   1.381
22833W        W82094   4.283  28.532  13.027
22834W        W82095  35.542  29.627   4.597
22835W        W82096  20.759  10.245   2.661
22836W        W82097  15.211  40.530   3.173
22837W        W82098   9.655  26.170   2.708
22838W        W82099  23.081  42.925  12.498
22839W        W82100   1.343  44.483  12.395
22840W        W82101   3.399  36.424  11.114
22841W        W82102  41.026  22.632  11.476
22842W        W82103  16.295  20.234  10.043
22843W        W82104  30.088  32.464  13.505
22844W        W82105  28.991  11.648   3.709
22845W        W82106  10.183  15.773  14.956
22846W        W82107  42.335  43.880  14.928
22847W        W82108  39.952   7.399  13.857
22848W        W82109  44.282   6.377   5.203
22849W        W82110   5.715  26.035  12.349
22850W        W82111  33.960  10.162  11.520
22851W        W82112  16.632  41.397   4.256
22852W        W82113  40.961  14.213  10.456
22853W        W82114  16.236  35.914  13.974
22854W        W82115  40.020  39.810   2.784
22855W        W82116   4.448  44.834   4.631
22856W        W82117  42.442  44.994   4.229
22857W        W82118  26.005  30.442   3.769
22858W        W82119  15.292  12.349  13.875
22859W        W82120  38.546   7.249   4.767
22860W        W82121  35.049  21.525  11.457
22861W        W82122  41.304   8.375  14.828
22862W        W82123  24.994   4.757  12.343
22863W        W82124  14.679   9.174   1.851
22864W        W82125  42.005  43.958  12.906
22865W        W82126  33.929  24.572  13.519
22866W        W82127  26.640  41.948   3.197
22867W        W82128  38.374   1.838   3.706
22868W        W82129  34.390   0.784   3.833
22869W        W82130   5.927   6.756  11.100
22870W        W82131  20.581   8.309   4.214
22871W        W82132   5.840  29.000  13.413
22872W        W82133  44.847  23.525   3.732
22873W        W82134  17.692  19.063   5.648
22874W        W82135  14.276  22.506  14.421
22875W        W82136   4.791  27.459   2.406
22876W        W82137  22.030   5.812  10.524
22877W        W82138  31.903   2.726   0.962
22878W        W82139  20.061  10.677  13.420
22879W        W82140  19.642   2.897  12.883
22880W        W82141  22.632   4.751  12.083
22881W        W82142   2.903  14.788  12.862
22882W        W82143  11.240  44.850  11.528
22883W        W82144  44.416   8.840   9.997
22884W        W82145  12.125  19.147  13.470
22885W        W82146   0.385  40.037   1.872
22886W        W82147   0.804  38.949   1.830
22887W        W82148  33.435  27.551   3.190
22888W        W82149  21.687  39.849   4.331
22889W        W82150  14.666  28.519   1.419
22890W        W82151  38.867  20.169  11.980
22891W        W82152  37.403  10.256   3.369
22892W        W82153   2.308  12.851   0.276
22893W        W82154   9.240  20.131  12.553
22894W        W82155  18.237  44.857   4.681
22895W        W82156   5.726   9.190   3.673
22896W        W82157  40.955   1.894   4.297
22897W        W82158  38.552  12.687   1.883
22898W        W82159   0.448  37.390  14.805
22899W        W82160  38.437  22.217  12.082
22900W        W82161  37.516  32.106   3.776
22901W        W82162  26.653  35.931  13.986
22902W        W82163  11.701  38.338  14.401
22903W        W82164  31.460  23.237  10.521
22904W        W82165  44.819  18.171  12.569
22905W        W82166   5.741  41.807  11.391
22906W        W82167  20.216  30.039  10.904
22907W        W82168  18.584  28.068  13.896
22908W        W82169  10.856  34.928   4.798
22909W        W82170  24.163  23.682  14.509
22910W        W82171  36.051  22.587  14.502
22911W        W82172  16.758  18.158  11.006
22912W        W82173   4.802   7.828   0.387
22913W        W82174   6.792  31.645  13.951
22914W        W82175  26.523  31.555  13.059
22915W        W82176   5.205  20.076  10.519
22916W        W82177   8.344  23.141   0.959
22917W        W82178  33.563  31.609   2.358
22918W        W82179  16.642  26.100   1.391
22919W        W82180  24.044  28.097  13.457
22920W        W82181   8.401  28.941  13.520
22921W        W82182   1.409  29.451   1.394
22922W        W82183  19.172  14.307   5.242
22923W        W82184  34.014   6.709   3.328
22924W        W82185  24.230  32.940  11.469
22925W        W82186  44.412  41.493  13.530
22926W        W82187   0.897   9.816   2.674
22927W        W82188  35.564   5.414   4.777
22928W        W82189  34.911  13.678   2.402
22929W        W82190  29.025  14.240  10.464
22930W        W82191  25.015  28.611   3.852
22931W        W82192   8.313   8.295   4.332
22932W        W82193  39.905  30.596   4.306
22933W        W82194  11.138  30.459   0.939
22934W        W82195  20.621  31.550   2.281
22935W        W82196  12.717  31.907  11.602
22936W        W82197  16.092  13.796   2.777
22937W        W82198   5.367  29.024   2.389
22938W        W82199  36.944  40.051   2.784
22939W        W82200  35.388  15.751  14.510
22940W        W82201  44.400   2.745   1.782
22941W        W82202  42.809   8.746   1.286
22942W        W82203  19.537  39.941   3.634
22943W        W82204   6.693  44.817   1.699
22944W        W82205  43.795  39.326  11.124
22945W        W82206  43.844  11.261  11.421
22946W        W82207  24.519  17.724   1.922
22947W        W82208  16.750  18.677  12.887
22948W        W82209  35.094  15.805  11.112
22949W        W82210  31.601  44.309   9.536
22950W        W82211  44.945   7.742  11.073
22951W        W82212  31.454  25.649  13.352
22952W        W82213  13.638  40.827  14.792
22953W        W82214   0.475  35.405   0.862
22954W        W82215  41.938  30.136  11.411
22955W        W82216  19.556  22.043  12.066
22956W        W82217  18.130  20.226  12.575
22957W        W82218  33.983   4.762  13.023
22958W        W82219   5.390  19.206  12.441
22959W        W82220  34.932  13.683   2.829
22960W        W82221   7.207  30.478  10.474
22961W        W82222  27.113  13.696  11.540
22962W        W82223  40.437  42.955  10.612
22963W        W82224  35.899  25.611  11.864
22964W        W82225  22.569  12.781   0.758
22965W        W82226   9.203  33.420   4.323
22966W        W82227  32.103  17.735   0.961
22967W        W82228  39.839  23.581   2.885
22968W        W82229  20.042  44.907   3.190
22969W        W82230  19.724  19.702  13.944
22970W        W82231  17.213  35.549  13.397
22971W        W82232  41.390  44.989  13.821
22972W        W82233  33.120   6.745   0.952
22973W        W82234  31.112  32.452   4.305
22974W        W82235  12.250  28.524  12.841
22975W        W82236  41.939   0.975   3.749
22976W        W82237  37.009  19.645  12.888
22977W        W82238  41.376  10.372  10.958
22978W        W82239   1.421  36.987  11.443
22979W        W82240  26.687  30.456   3.858
22980W        W82241  21.692  12.796   1.897
22981W        W82242  15.141  21.122   4.252
22982W        W82243   6.702  33.604  14.476
22983W        W82244   2.466  31.608   1.933
22984W        W82245  16.751  23.687  11.855
22985W        W82246  16.797  35.925   3.387
22986W        W82247  40.473  44.276  10.050
22987W        W82248  27.132  38.457   3.292
22988W        W82249  21.059  19.145  10.637
22989W        W82250  21.090  30.085  11.090
22990W        W82251  14.597  44.957   2.668
22991W        W82252  12.853  35.052  14.888
22992W        W82253   0.778  22.058  13.491
22993W        W82254  20.590  18.236  14.299
22994W        W82255  14.666  18.099   2.414
22995W        W82256  31.047  38.905  10.940
22996W        W82257  14.723  17.293   0.860
22997W        W82258  40.398   0.425  14.946
22998W        W82259  11.739   9.182  14.906
22999W        W82260  27.083  34.510  11.460
23000W        W82261  33.103   3.336   3.233
23001W        W82262  35.095  34.565   3.310
23002W        W82263  30.496  14.800   3.837
23003W        W82264  34.571  15.315   4.708
23004W        W82265  12.241  24.540  12.978
23005W        W82266   6.803  27.052   4.779
23006W        W82267   9.664   0.815   1.760
23007W        W82268  10.803  25.643  10.417
23008W        W82269  11.708   1.382  11.578
23009W        W82270  39.049  13.660   1.425
23010W        W82271  32.535  17.777  12.827
23011W        W82272  43.764  18.203   3.268
23012W        W82273  27.173  15.659  14.900
23013W        W82274  33.605  11.768  13.061
23014W        W82275  25.013  42.780  12.039
23015W        W82276  43.513   3.346  11.519
23016W        W82277  11.790  38.014  10.897
23017W        W82278  44.432  17.277   4.213
23018W        W82279  44.265  43.809  11.437
23019W        W82280   2.365  28.435  13.959
23020W        W82281  36.360   3.840   3.312
23021W        W82282   8.323  40.401   1.822
23022W        W82283  34.072  37.960   4.828
23023W        W82284   9.703  23.651  11.059
23024W        W82285  30.951   7.197   4.605
23025W        W82286  28.999   8.849   1.870
23026W        W82287  42.524  10.179   2.367
23027W        W82288  34.575   1.369   2.873
23028W        W82289  24.495  37.351   4.331
23029W        W82290  37.403  23.162   1.877
23030W        W82291   4.443  34.029  13.456
23031W        W82292  28.544  12.144  10.547
23032W        W82293  33.534  11.650  13.377
23033W        W82294  28.140  18.236   3.759
23034W        W82295   1.758  12.276   4.351
23035W        W82296  27.023  15.216  13.433
23036W        W82297   9.346  18.259  12.559
23037W        W82298  10.242   3.906   5.156
23038W        W82299  25.564  23.062   0.402
23039W        W82300  35.509   5.737   2.312
23040W        W82301  26.995  24.587  10.594
23041W        W82302  26.181  31.472   4.289
23042W        W82303  15.277  43.973  12.875
23043W        W82304  31.620  11.692  13.441
23044W        W82305  43.352   5.423   0.301
23045W        W82306   1.443  13.246  12.008
23046W        W82307  43.937   7.185   4.668
23047W        W82308   1.795   7.739   1.329
23048W        W82309  26.972  39.493   2.732
23049W        W82310  36.952  31.568   3.743
23050W        W82311  16.691  23.548  11.448
23051W        W82312  29.527  40.412  14.286
23052W        W82313  24.643  15.149   3.727
23053W        W82314   9.356  34.410   3.757
23054W        W82315  42.467  39.357   2.340
23055W        W82316  32.615  33.446   5.122
23056W        W82317  33.087  25.179  10.484
23057W        W82318   5.763  33.448   4.821
23058W        W82319   3.299   3.448  13.524
23059W        W82320  24.200  43.796  11.413
23060W        W82321  20.628  34.494   3.657
23061W        W82322  43.482  13.135   0.821
23062W        W82323  28.988  44.477   3.332
23063W        W82324  10.821  35.474   0.935
23064W        W82325  40.538  13.145  12.062
23065W        W82326  23.723  17.690   3.199
23066W        W82327   6.803  20.721   3.832
23067W        W82328  34.956   2.430  14.475
23068W        W82329  17.603  28.947   1.740
23069W        W82330  10.222  41.024  14.938
23070W        W82331  26.572  17.578   1.314
23071W        W82332  35.367   2.369  10.525
23072W        W82333  27.512   8.813  13.861
23073W        W82334  13.614  29.056   2.800
23074W        W82335   9.321   1.324  14.386
23075W        W82336   0.899   2.471   2.309
23076W        W82337  11.717  12.223   4.172
23077W        W82338  32.545  16.276   2.672
23078W        W82339  43.772  15.612  12.860
23079W        W82340  29.635  27.956  10.580
23080W        W82341  16.796  15.185   2.822
23081W        W82342  20.710   5.902  13.909
23082W        W82343  39.004   7.211  11.983
23083W        W82344  44.357   4.414   0.748
23084W        W82345  13.662  44.343   4.241
23085W        W82346  32.563   6.262  14.823
23086W        W82347  31.140  37.355   4.266
23087W        W82348  32.136  38.450  12.824
23088W        W82349  13.110  22.031   4.722
23089W        W82350   6.731  21.517   2.750
23090W        W82351  30.951  42.407   1.836
23091W        W82352  24.217  31.992   4.118
23092W        W82353   5.256  31.539  12.537
23093W        W82354  23.178  44.911  14.438
23094W        W82355   5.702  31.129  13.445
23095W        W82356  43.453  14.598   3.771
23096W        W82357  16.710   0.942   3.819
23097W        W82358  36.854   9.845  11.871
23098W        W82359  31.624   3.811   1.904
23099W        W82360  41.381  27.149   0.466
23100W        W82361  44.304   6.318   4.777
23101W        W82362   2.917  11.677  14.803
23102W        W82363  12.267  21.614  11.860
23103W        W82364  12.795  17.743  10.600
23104W        W82365  13.217  21.061   3.827
23105W        W82366  12.700  37.417  10.973
23106W        W82367  13.786  10.704  10.588
23107W        W82368   2.813   2.382   0.885
23108W        W82369   3.835  40.950  13.020
23109W        W82370  31.574   0.299   2.207
23110W        W82371   7.254  40.850   1.930
23111W        W82372  16.310  42.784   3.278
23112W        W82373   7.773  38.884   3.714
23113W        W82374   2.758  20.564   4.710
23114W        W82375  27.075  21.156  10.133
23115W        W82376   1.754  39.427  13.387
23116W        W82377  29.054  26.001   2.231
23117W        W82378  11.657  38.478   0.830
23118W        W82379  21.213   3.389   0.782
23119W        W82380   3.775   1.761  12.456
23120W        W82381   8.656  43.785  12.370
23121W        W82382  28.009  19.184   2.231
23122W        W82383  13.226   6.389   2.286
23123W        W82384  21.089  36.888   4.729
23124W        W82385  36.859  10.716  11.590
23125W        W82386  31.004  27.669  11.019
23126W        W82387   8.251   2.424   3.763
23127W        W82388  33.620  39.516   4.720
23128W        W82389  15.246   1.329  14.031
23129W        W82390  37.978  28.595   1.713
23130W        W82391  10.801  31.633  14.339
23131W        W82392  26.952   9.232   2.746
23132W        W82393  22.575  14.195  14.875
23133W        W82394  12.825  44.850  13.809
23134W        W82395  26.669  32.543   4.760
23135W        W82396  24.680  44.852  12.984
23136W        W82397  27.610  23.591   2.668
23137W        W82398  19.649  22.700   9.498
23138W        W82399  30.460   3.271   4.822
23139W        W82400  14.630  40.829   0.874
23140W        W82401  37.991  23.610  10.494
23141W        W82402  11.233  35.109   2.352
23142W        W82403  36.096  20.092   0.449
23143W        W82404  32.092   8.340   1.824
23144W        W82405  41.469  23.608  14.389
23145W        W82406  44.403  41.851   1.915
23146W        W82407   1.291   2.389   4.769
23147W        W82408   1.953   2.355   3.866
23148W        W82409  15.780  44.787   1.844
23149W        W82410  36.012  31.115  11.952
23150W        W82411  41.819  29.163  13.914
23151W        W82412  11.743  10.319   4.766
23152W        W82413  28.436  36.028  14.862
23153W        W82414  29.956   2.891   2.303
23154W        W82415  13.309   5.373  13.050
23155W        W82416   0.324  10.704   0.282
23156W        W82417  30.508  24.667   4.300
23157W        W82418  17.289  39.812   1.285
23158W        W82419  27.944  40.904   0.832
23159W        W82420   8.707  17.192   4.725
23160W        W82421  33.499  10.863  14.966
23161W        W82422  30.525  29.528  13.038
23162W        W82423   7.265   0.903  13.832
23163W        W82424  35.507  24.975   0.395
23164W        W82425  20.233  34.454   0.477
23165W        W82426  31.095  36.437  11.882
23166W        W82427  24.637  25.512  14.488
23167W        W82428  27.172  26.110   2.818
23168W        W82429   1.783   7.906  10.598
23169W        W82430  34.047  38.953  12.079
23170W        W82431  32.948  16.247   9.600
23171W        W82432  26.088  34.882   3.747
23172W        W82433   4.773  27.656   3.727
23173W        W82434  39.917   8.856  13.435
23174W        W82435  23.548  34.442   1.897
23175W        W82436  41.407  15.111   3.337
23176W        W82437  42.891  37.027  14.771
23177W        W82438   9.278   0.283   0.472
23178W        W82439  20.250   0.966  10.640
23179W        W82440  19.606  14.133   2.399
23180W        W82441  28.166  22.704   1.873
23181W        W82442   8.832   4.221  13.013
23182W        W82443  13.182  33.470  13.928
23183W        W82444   7.288   0.945   3.725
23184W        W82445  36.472  39.538   4.753
23185W        W82446  28.488  37.453   3.373
23186W        W82447  31.973   5.303  14.791
23187W        W82448  20.157  34.064   1.239
23188W        W82449   5.753   8.888   0.959
23189W        W82450  33.067  37.014  10.565
23190W        W82451  18.150   6.196   4.122
23191W        W82452  27.165  38.055   2.820
23192W        W82453  36.463  41.812  13.374
23193W        W82454  20.233  35.023   1.420
23194W        W82455  15.808  40.320  13.450
23195W        W82456   9.339  31.478  14.867
23196W        W82457   2.293  44.836   3.861
23197W        W82458  40.849   6.301  11.012
23198W        W82459  18.581  22.742  10.921
23199W        W82460  27.177  30.156   3.169
23200W        W82461  26.615  37.540   1.722
23201W        W82462  32.009  26.103  11.981
23202W        W82463  42.820   3.330   0.883
23203W        W82464  34.433  21.115   1.766
23204W        W82465  20.728   1.277  14.820
23205W        W82466  28.478  34.427   3.264
23206W        W82467  14.655  20.108  11.396
23207W        W82468  43.477  26.661  11.056
23208W        W82469  33.126  38.878   9.966
23209W        W82470  13.705  12.359   3.287
23210W        W82471  23.618   6.859  10.481
23211W        W82472   5.746  42.300  14.794
23212W        W82473   3.896  35.434   4.818
23213W        W82474  27.612  34.559   1.776
23214W        W82475  24.540  38.823  12.900
23215W        W82476  29.101  12.216   0.377
23216W        W82477  24.556   0.974  11.933
23217W        W82478  14.159   7.302  13.546
23218W        W82479  33.623   9.837  12.910
23219W        W82480  21.263  43.513   1.712
23220W        W82481  29.669  15.659  12.886
23221W        W82482  42.916  11.649  11.914
23222W        W82483  17.655   9.819  13.906
23223W        W82484  29.052  31.897  10.417
23224W        W82485  25.175  11.637  13.906
23225W        W82486   3.927  36.543   3.752
23226W        W82487   0.424  33.567   4.338
23227W        W82488  18.173  43.445   0.264
23228W        W82489   2.963   7.375  12.490
23229W        W82490  26.087  41.315  14.989
23230W        W82491  12.808  22.153  14.405
23231W        W82492  12.324  38.379   0.394
23232W        W82493  29.633  39.911   1.255
23233W        W82494  29.429  10.218   2.259
23234W        W82495   2.835  25.541  13.418
23235W        W82496   2.721  40.456  13.990
23236W        W82497  44.926  31.922  14.390
23237W        W82498   0.473   8.672   1.296
23238W        W82499  33.528  37.975   3.736
23239W        W82500  41.334  33.481  13.853
23240W        W82501  14.729  15.728   3.365
23241W        W82502  24.487   3.238  13.884
23242W        W82503  30.470  12.753   2.673
23243W        W82504  19.113  40.364   2.849
23244W        W82505  39.821  21.648   4.236
23245W        W82506  37.384  19.047  13.983
23246W        W82507  19.552  38.476   3.373
23247W        W82508  26.629  38.551  12.023
23248W        W82509  16.112  32.473  10.902
23249W        W82510  40.893  43.857  11.490
23250W        W82511  35.044  16.711   4.619
23251W        W82512  20.263  17.763  11.860
23252W        W82513  39.053  41.516  14.994
23253W        W82514  27.154  19.123   2.901
23254W        W82515  36.005  42.985   0.787
23255W        W82516  41.324  26.062  13.925
23256W        W82517  40.051   2.931  14.009
23257W        W82518  33.066  14.132   0.245
23258W        W82519  39.384   9.883  14.462
23259W        W82520   4.723   0.403  13.513
23260W        W82521  38.331  40.918   0.364
23261W        W82522  31.407  34.956  11.865
23262W        W82523   8.687  32.600  14.430
23263W        W82524  25.636  22.068  11.121
23264W        W82525  42.798  20.716  11.917
23265W        W82526  39.374  22.722   2.684
23266W        W82527  23.650   8.834   4.656
23267W        W82528  22.618   0.353  13.324
23268W        W82529   1.480   6.295  14.365
23269W        W82530   2.828  26.549   0.262
23270W        W82531   4.899  35.023  13.483
23271W        W82532   2.804   3.365  13.856
23272W        W82533  33.918  15.823   2.888
23273W        W82534  18.272  41.819   2.868
23274W        W82535  23.153  31.440   3.821
23275W        W82536  16.745  25.542   4.697
23276W        W82537  11.226  29.656  12.855
23277W        W82538  43.935  20.176   3.770
23278W        W82539  15.182  17.579  14.923
23279W        W82540  37.348  43.467  13.038
23280W        W82541  26.113  36.513  13.359
23281W        W82542  21.154  43.897  14.445
23282W        W82543  10.258   3.713   1.803
23283W        W82544  28.968   5.844   0.807
23284W        W82545  17.104   0.883   3.267
23285W        W82546  32.117  43.297   0.416
23286W        W82547   3.460  30.592   1.255
23287W        W82548  42.843   5.360   0.365
23288W        W82549  21.661  10.775   0.751
23289W        W82550   2.308   5.916  13.380
23290W        W82551  33.878  40.866   4.154
23291W        W82552  39.419   5.437   3.165
23292W        W82553  35.882  12.289   0.422
23293W        W82554  44.400   7.876  12.008
23294W        W82555   1.820  36.518   3.198
23295W        W82556  38.827   5.750   4.819
23296W        W82557  36.990  15.812  10.976
23297W        W82558   7.186  36.537   0.863
23298W        W82559  36.468  41.385  10.499
23299W        W82560  36.525  22.561  11.965
23300W        W82561  43.500  27.611   0.440
23301W        W82562  37.580  39.819   2.339
23302W        W82563  36.019  29.613  13.028
23303W        W82564  18.606  33.062  10.599
23304W        W82565  22.508  31.525  14.975
23305W        W82566  14.154  35.592   0.259
23306W        W82567  17.221   7.812  13.042
23307W        W82568  24.035  37.397   2.782
23308W        W82569  12.169  10.694  14.358
23309W        W82570  38.910   7.349  13.019
23310W        W82571  21.024  42.999  12.824
23311W        W82572  34.428  23.571   1.262
23312W        W82573  33.043  37.412   2.899
23313W        W82574  22.597  20.068  12.442
23314W        W82575   3.240   4.347  13.519
23315W        W82576  24.515  14.668  11.536
23316W        W82577  42.907  35.461   3.668
23317W        W82578  16.675   0.287   2.896
23318W        W82579  17.735  43.397  13.307
23319W        W82580  30.425  27.945  10.466
23320W        W82581  22.233  29.156  14.786
23321W        W82582  38.369  26.960  14.806
23322W        W82583   5.204  26.495   5.120
23323W        W82584  23.179   2.885  11.412
23324W        W82585  25.096   3.414  11.997
23325W        W82586  13.655  34.051  14.999
23326W        W82587  11.800  22.648  12.915
23327W        W82588  21.643   9.268   0.278
23328W        W82589   9.654  35.041  14.321
23329W        W82590  16.592  21.249  10.918
23330W        W82591  17.289  14.821   0.332
23331W        W82592  36.429  27.991  14.775
23332W        W82593   6.426  32.043   5.108
23333W        W82594  17.166  42.895   0.831
23334W        W82595  25.563  25.683   2.200
23335W        W82596  26.972  24.534  14.958
23336W        W82597  24.621  23.033  13.356
23337W        W82598  19.776  31.644  14.477
23338W        W82599  31.032  36.880  13.797
23339W        W82600  44.468   4.901   1.773
23340W        W82601   2.461  14.119   9.960
23341W        W82602  14.792  11.318  12.527
23342W        W82603   7.230  13.819   2.223
23343W        W82604   8.661   2.830   0.847
23344W        W82605  20.756  44.876  12.074
23345W        W82606  31.536  16.102  13.521
23346W        W82607  35.534  19.243  14.860
23347W        W82608  15.747  41.976  14.834
23348W        W82609   3.813   7.843  11.882
23349W        W82610  42.391  42.383  12.455
23350W        W82611  25.677  16.194  12.436
23351W        W82612  12.340   9.653   4.824
23352W        W82613  10.283  39.373  12.450
23353W        W82614  19.638  36.520  11.557
23354W        W82615   9.270  18.130   4.287
23355W        W82616  19.738  15.797   5.123
23356W        W82617  43.901   1.373  12.024
23357W        W82618  32.524  39.928   3.729
23358W        W82619  20.231  18.076  14.308
23359W        W82620  19.599  20.133  13.018
23360W        W82621  16.793  19.144  11.539
23361W        W82622   9.256   8.835  12.501
23362W        W82623  33.942  25.039  12.514
23363W        W82624  10.793  31.458  11.611
23364W        W82625  26.648  31.104   3.745
23365W        W82626  27.565  34.896  11.423
23366W        W82627  12.808  37.532  12.867
23367W        W82628  37.470  43.831  13.322
23368W        W82629  37.386  33.614  11.372
23369W        W82630  33.102  25.208  10.998
23370W        W82631  16.662  18.617  11.411
23371W        W82632  26.608   4.795   0.739
23372W        W82633   0.413  33.457  14.849
23373W        W82634   1.774  10.821  11.479
23374W        W82635  20.768   6.241   2.186
23375W        W82636  35.909  22.597  12.549
23376W        W82637   0.440   7.838   0.447
23377W        W82638  22.559  36.493  13.008
23378W        W82639  17.271   0.758   9.924
23379W        W82640  30.103  31.051   0.317
23380W        W82641  16.076  37.854   1.916
23381W        W82642  23.710  28.997   0.442
23382W        W82643  16.651   5.822   4.330
23383W        W82644  44.364  44.968  14.345
23384W        W82645  32.055  19.149   2.779
23385W        W82646  42.894  23.221  13.877
23386W        W82647  10.643  14.290   4.774
23387W        W82648  42.493  10.277   1.350
23388W        W82649  32.116  42.422  14.449
23389W        W82650  34.076   1.290  12.858
23390W        W82651  25.143  29.465  12.370
23391W        W82652   9.354  13.739   4.131
23392W        W82653  24.119  39.370   0.474
23393W        W82654  40.858  12.360   3.665
23394W        W82655   4.901  42.385  13.891
23395W        W82656  40.475  29.997   3.346
23396W        W82657  10.151   1.304  12.496
23397W        W82658  21.121   7.843  10.459
23398W        W82659  29.008  14.329  11.483
23399W        W82660  37.056  39.939   3.640
23400W        W82661  27.597   4.762  12.340
23401W        W82662   5.897  35.959  10.472
23402W        W82663  35.095  33.491  10.620
23403W        W82664  30.101   9.163   0.779
23404W        W82665  12.844  24.579   0.296
23405W        W82666  35.910  36.561   1.239
23406W        W82667  19.063   1.463   4.138
23407W        W82668  10.345  27.039   3.213
23408W        W82669  11.804  12.330   3.175
23409W        W82670   5.298   4.324   4.743
23410W        W82671  43.813  44.900   3.796
23411W        W82672  29.987  10.796  11.563
23412W        W82673  33.980  17.627   2.215
23413W        W82674  25.494  42.481  10.438
23414W        W82675  33.517  32.996  10.512
23415W        W82676  22.713   0.975  14.477
23416W        W82677  37.878  43.943  11.096
23417W        W82678  40.378  39.318   1.819
23418W        W82679  36.982  44.392   0.294
23419W        W82680   3.367  13.193  14.471
23420W        W82681  27.652  14.677   2.370
23421W        W82682  23.621  31.123   3.367
23422W        W82683  38.382  38.379  11.489
23423W        W82684  17.235  25.572  12.967
23424W        W82685  41.928  10.693  13.518
23425W        W82686  40.907   4.293  12.906
23426W        W82687  36.472  19.606  10.404
23427W        W82688  25.678  10.378  10.564
23428W        W82689  19.211   9.369  13.512
23429W        W82690  42.835  35.437  14.002
23430W        W82691  42.892  34.958  11.925
23431W        W82692  38.920  35.529  11.534
23432W        W82693  27.613  36.398  10.604
23433W        W82694   9.268   5.387   5.261
23434W        W82695  35.948   9.783   0.882
23435W        W82696  29.542   6.274  12.046
23436W        W82697  13.145  27.448   4.799
23437W        W82698  32.981   5.689  13.410
23438W        W82699   0.434  41.300   4.674
23439W        W82700  28.094  24.701  11.528
23440W        W82701  40.039  24.194  13.932
23441W        W82702  42.003  10.774  10.622
23442W        W82703   2.299  27.641   3.163
23443W        W82704  32.508  31.087   0.746
23444W        W82705  34.521  15.735   0.745
23445W        W82706  24.199   2.468   3.194
23446W        W82707  27.133  39.532   0.243
23447W        W82708   2.926   5.815   0.385
23448W        W82709  37.353  10.868  14.994
23449W        W82710  33.927  35.482   5.145
23450W        W82711  22.228  37.851   3.292
23451W        W82712  11.194  10.874  13.359
23452W        W82713  28.615  37.543  12.352
23453W        W82714  21.734   9.699  12.493
23454W        W82715  40.316  28.174   4.334
23455W        W82716   8.815   9.742   2.682
23456W        W82717  17.694   3.749  11.372
23457W        W82718  38.478   8.224  10.611
23458W        W82719   4.404  15.115   3.324
23459W        W82720  13.140  35.380  14.301
23460W        W82721   7.287   5.696   3.298
23461W        W82722  14.715  21.516   2.781
23462W        W82723  39.051  33.984   3.330
23463W        W82724  29.644  42.866  12.354
23464W        W82725   5.371   8.231  12.450
23465W        W82726  20.192   9.686   3.731
23466W        W82727  44.264  17.592  13.982
23467W        W82728   3.405  33.936   3.663
23468W        W82729  21.651  17.621  14.921
23469W        W82730  14.720  27.483  10.155
23470W        W82731  39.540  24.230  13.797
23471W        W82732  17.287  41.392   3.763
23472W        W82733  43.460   7.208  12.997
23473W        W82734  34.400  44.875  14.787
23474W        W82735  14.709  12.835   0.746
23475W        W82736  21.735   9.781   1.268
23476W        W82737  17.222  41.296   3.296
23477W        W82738  25.105  37.559   4.328
23478W        W82739  25.994  40.838   0.299
23479W        W82740  38.388  27.609  10.950
23480W        W82741  13.228  32.103   3.235
23481W        W82742  22.032   0.314  10.986
23482W        W82743  42.487  33.606  13.383
23483W        W82744  28.462  29.473  10.429
23484W        W82745   3.836  22.095  10.594
23485W        W82746  17.230  37.834   1.875
23486W        W82747  28.542  28.625   4.223
23487W        W82748  36.051  36.371  12.429
23488W        W82749  13.841  23.555  11.089
23489W        W82750   4.923   7.350  10.961
23490W        W82751  42.842   9.259  13.029
23491W        W82752  29.946   6.872   2.881
23492W        W82753  22.189  41.918   2.184
23493W        W82754  40.358  28.112  10.631
23494W        W82755  22.060  44.890  10.931
23495W        W82756  44.464   1.771  11.483
23496W        W82757  34.567  15.177   4.131
23497W        W82758  23.504  13.238   2.827
23498W        W82759   7.175  12.688  12.975
23499W        W82760  42.841  14.170   2.342
23500W        W82761   2.385  23.703   3.682
23501W        W82762  14.747  29.065  12.097
23502W        W82763  27.492  25.623  13.375
23503W        W82764  19.577  19.240   9.519
23504W        W82765  29.433  42.851  14.950
23505W        W82766  23.146  15.677  14.458
23506W        W82767  31.945  26.118   2.413
23507W        W82768  43.961   6.311  10.539
23508W        W82769  14.756  18.217  12.405
23509W        W82770   8.853   3.442   1.817
23510W        W82771   6.818  27.134  10.900
23511W        W82772  44.295  21.027  10.976
23512W        W82773   0.806   5.696   3.236
23513W        W82774  10.669  17.734  11.040
23514W        W82775  44.808   3.440  11.481
23515W        W82776  35.472  18.152  12.960
23516W        W82777  12.759  34.442   1.698
23517W        W82778   3.869  27.671   0.821
23518W        W82779  31.538  12.649   5.107
23519W        W82780  40.805  14.105   3.239
23520W        W82781   8.339  40.012   2.902
23521W        W82782  27.590  38.881  13.530
23522W        W82783  41.453  42.909  14.982
23523W        W82784  16.169   4.881   3.368
23524W        W82785  25.578   2.782   0.894
23525W        W82786  35.483  14.600  12.495
23526W        W82787  38.528  30.102  12.066
23527W        W82788  10.382  43.827   2.722
23528W        W82789   3.378  11.208   5.248
23529W        W82790  25.588  35.461   3.777
23530W        W82791  37.353  24.652   2.259
23531W        W82792   6.836  35.522   1.807
23532W        W82793  18.287   8.674  13.452
23533W        W82794  25.648  13.193   1.801
23534W        W82795  34.872  24.628   4.761
23535W        W82796  36.558   9.734  11.049
23536W        W82797  23.986  21.218  11.489
23537W        W82798  29.517  18.684  10.447
23538W        W82799  16.144  34.499  11.036
23539W        W82800   6.211  14.766  13.933
23540W        W82801  37.842  11.833   0.958
23541W        W82802   6.731   1.901  12.905
23542W        W82803  42.965  24.133   2.414
23543W        W82804  22.191  23.017   0.373
23544W        W82805  28.078  30.994  12.920
23545W        W82806  21.166   4.881   4.176
23546W        W82807  30.622  30.512   2.400
23547W        W82808  34.041  39.016  13.491
23548W        W82809  34.393  41.948  14.441
23549W        W82810  22.080  34.948   1.291
23550W        W82811  27.155   7.182  12.441
23551W        W82812  27.181   3.730  13.907
23552W        W82813  30.980  16.734  11.979
23553W        W82814  27.136  32.126  11.468
23554W        W82815  36.396  40.017  10.539
23555W        W82816  19.701  32.416   3.700
23556W        W82817   1.740  40.541  11.055
23557W        W82818  15.119  21.749  10.548
23558W        W82819   4.428  35.099   0.412
23559W        W82820   9.648  36.972   1.834
23560W        W82821  10.802  30.055  11.539
23561W        W82822  25.671  12.629  11.402
23562W        W82823  36.021   1.752   4.135
23563W        W82824  13.163  40.359  10.427
23564W        W82825  35.908  29.056   2.869
23565W        W82826  10.667   8.784  12.342
23566W        W82827  29.021  17.722   3.750
23567W        W82828  31.416   4.934   1.799
23568W        W82829   0.852   5.910   3.832
23569W        W82830   5.244  36.359  13.025
23570W        W82831  41.931  13.166  14.875
23571W        W82832  16.215  43.839  11.502
23572W        W82833  22.207  15.177  10.482
23573W        W82834  28.047  10.164   5.186
23574W        W82835   8.220  35.013   2.792
23575W        W82836  24.052  11.181  12.961
23576W        W82837   6.909  12.216   3.169
23577W        W82838   7.907  15.632   2.190
23578W        W82839  32.460   5.394  14.928
23579W        W82840  34.007  24.580   4.609
23580W        W82841  29.490  34.918  12.456
23581W        W82842  12.650  29.994   2.337
23582W        W82843  39.361  36.406   2.819
23583W        W82844  24.617  11.688   4.160
23584W        W82845  44.277  12.759   1.289
23585W        W82846  35.493  10.234  11.499
23586W        W82847   9.157  41.310  10.132
23587W        W82848   4.873   5.218   1.379
23588W        W82849  33.026  41.380  12.908
23589W        W82850   1.260   3.411  11.103
23590W        W82851  32.978  40.941   5.766
23591W        W82852  16.778  26.071   9.929
23592W        W82853  38.911  35.511   9.613
23593W        W82854  34.903   2.456   4.184
23594W        W82855  28.599  22.693  14.283
23595W        W82856   7.230  22.164   1.317
23596W        W82857  37.367  20.192  14.008
23597W        W82858  42.829   6.738  13.456
23598W        W82859  14.765   7.291   0.935
23599W        W82860   6.786  12.824   3.219
23600W        W82861  18.702  13.150  14.448
23601W        W82862  30.065  12.813  10.638
23602W        W82863  20.733  41.014   2.729
23603W        W82864  31.504  44.262  14.907
23604W        W82865  13.137   0.926  10.525
23605W        W82866  25.975   0.955  11.466
23606W        W82867  27.660  40.322   2.748
23607W        W82868  33.023  21.242   1.845
23608W        W82869  25.089  24.572  11.900
23609W        W82870  38.864  42.308  11.869
23610W        W82871  26.084  39.438  12.862
23611W        W82872  22.519  10.846   4.643
23612W        W82873  11.672  33.116   2.185
23613W        W82874  41.485  43.814   0.799
23614W        W82875  44.943   6.387  14.387
23615W        W82876  17.715  40.506   1.857
23616W        W82877   3.285  15.203  12.501
23617W        W82878   3.932  44.820   4.342
23618W        W82879  41.871  18.669   2.845
23619W        W82880  22.580  11.729   0.736
23620W        W82881   5.349  31.921  12.993
23621W        W82882  13.259  26.159   0.856
23622W        W82883  12.624  28.114   2.754
23623W        W82884  31.548  37.993  14.444
23624W        W82885  35.477  11.671  12.557
23625W        W82886  16.165   1.928   0.807
23626W        W82887   6.710  38.998   2.900
23627W        W82888  44.461   1.317  12.003
23628W        W82889  34.968  19.547   2.746
23629W        W82890  31.048  24.575   0.429
23630W        W82891  41.975   4.729  11.917
23631W        W82892  13.168  10.184  14.383
23632W        W82893  17.297  10.378   5.226
23633W        W82894  14.317  18.177   0.759
23634W        W82895  32.402  42.896  11.070
23635W        W82896  40.919  17.102   1.788
23636W        W82897  30.519  36.540   4.247
23637W        W82898   8.861  16.570  14.784
23638W        W82899  34.464  28.492   0.276
23639W        W82900  27.553  30.029  14.885
23640W        W82901  26.016  21.260  13.822
23641W        W82902  37.851  36.935   1.933
23642W        W82903   9.653  11.784   1.311
23643W        W82904  10.638  22.634   2.228
23644W        W82905  18.231  26.975   0.847
23645W        W82906  33.538  14.124   4.746
23646W        W82907  25.619   0.932  10.508
23647W        W82908   7.905  31.905  13.843
23648W        W82909  28.452   3.339   3.807
23649W        W82910   9.848  13.273   5.133
23650W        W82911  12.643  38.389  12.422
23651W        W82912  14.288  25.650  13.517
23652W        W82913   1.794  42.968   3.830
23653W        W82914  41.791  24.697  14.919
23654W        W82915  13.232  14.144  12.450
23655W        W82916   9.348  22.693   2.860
23656W        W82917  14.311  39.455   2.404
23657W        W82918  27.007  29.973   2.835
23658W        W82919   0.456  29.084  13.902
23659W        W82920  22.555  27.586  13.927
23660W        W82921  39.892   1.763  11.905
23661W        W82922   4.339  19.671   0.474
23662W        W82923  36.461  14.320  14.343
23663W        W82924   2.736  20.695   1.933
23664W        W82925  38.435  11.330  10.593
23665W        W82926  11.832   5.733  14.819
23666W        W82927  40.045   9.252   4.700
23667W        W82928   1.925  44.312  13.921
23668W        W82929  38.333   5.388   1.319
23669W        W82930  26.643  29.162  13.811
23670W        W82931  36.973  27.044  13.904
23671W        W82932  33.114   5.384  14.766
23672W        W82933  36.960   5.773   0.325
23673W        W82934   8.896  25.643  12.502
23674W        W82935  16.133  40.945   3.297
23675W        W82936  36.420  40.349   4.250
23676W        W82937   1.389  44.810   1.436
23677W        W82938  38.969  35.554  10.971
23678W        W82939  20.684  11.633  13.310
23679W        W82940  43.403   7.902  12.892
23680W        W82941   6.240  15.234   3.674
23681W        W82942  20.670  26.170  12.416
23682W        W82943  35.041  39.838   2.771
23683W        W82944  43.989  22.710  12.438
23684W        W82945   1.892   8.885   0.429
23685W        W82946  42.851  28.098  12.347
23686W        W82947   4.450  42.925   3.217
23687W        W82948  11.654  36.499   0.935
23688W        W82949  40.506  43.935  12.021
23689W        W82950  20.247   7.856  14.331
23690W        W82951   2.723  11.154   3.371
23691W        W82952  31.941   1.358  12.050
23692W        W82953  43.881  41.418  11.103
23693W        W82954  34.382  27.661  11.585
23694W        W82955  21.588  27.648   4.718
23695W        W82956  43.386  31.098   3.768
23696W        W82957  29.140  29.934   2.328
23697W        W82958   5.915  22.106  13.011
23698W        W82959  13.282   4.268   4.603
23699W        W82960  38.536  36.539   1.370
23700W        W82961  17.737  31.566  13.892
23701W        W82962  16.654  41.437   2.665
23702W        W82963  42.013  24.206   2.338
23703W        W82964  44.918   4.335  13.523
23704W        W82965   3.729  40.834  12.035
23705W        W82966  34.418  35.889   3.726
23706W        W82967  16.810  20.207   1.884
23707W        W82968  13.342  29.591  14.029
23708W        W82969  20.748  40.947  12.858
23709W        W82970  29.151  39.038  12.371
23710W        W82971  44.409   7.760   5.221
23711W        W82972  33.049  24.502  14.970
23712W        W82973  41.871  30.550   0.748
23713W        W82974  11.653  36.412   2.183
23714W        W82975  41.814  34.119   0.870
23715W        W82976  32.032  42.885  10.638
23716W        W82977  30.602  35.906   2.190
23717W        W82978  19.608  33.602   4.679
23718W        W82979  20.633  19.267  12.853
23719W        W82980  32.972  22.225   3.850
23720W        W82981  11.828  21.244  14.432
23721W        W82982  11.703   7.911  11.394
23722W        W82983  10.154  14.262   1.272
23723W        W82984   1.279  12.266  10.970
23724W        W82985  37.065  20.765   0.374
23725W        W82986  41.876  33.003   1.861
23726W        W82987  44.771  18.201  12.051
23727W        W82988  13.234  13.221   3.194
23728W        W82989  43.951   7.339   2.835
23729W        W82990   3.758  23.012   2.877
23730W        W82991   2.799  28.967   3.317
23731W        W82992   7.297   8.723  11.523
23732W        W82993  29.553  22.154  10.532
23733W        W82994  44.949   5.746   4.115
23734W        W82995  39.049  11.362   3.214
23735W        W82996   6.382  10.750   9.925
23736W        W82997  11.286  32.437   3.161
23737W        W82998  40.850  39.012   2.766
23738W        W82999  33.118   7.187   1.727
23739W        W83000  34.461  38.856  12.025
23740W        W83001  13.120  32.418   2.685
23741W        W83002  43.482  34.077  13.319
23742W        W83003  18.210  13.262  11.034
23743W        W83004  10.200  13.182  14.486
23744W        W83005  25.055  42.025  14.915
23745W        W83006   2.347  22.666   0.940
23746W        W83007   2.807  11.265   3.793
23747W        W83008   4.709  17.132   4.256
23748W        W83009   0.897  34.426  11.493
23749W        W83010  42.837  39.401   1.313
23750W        W83011  41.484  25.639  11.061
23751W        W83012   8.305  36.867   0.457
23752W        W83013  18.250  40.491  13.999
23753W        W83014   3.426  21.188   5.175
23754W        W83015  16.085  16.585  10.452
23755W        W83016   2.275  11.318  10.071
23756W        W83017  44.390  44.351  14.389
23757W        W83018  44.996  35.966   2.193
23758W        W83019   2.420   3.391   0.270
23759W        W83020  38.904  23.637  13.519
23760W        W83021  37.372   2.768   0.344
23761W        W83022  35.449   9.827   0.303
23762W        W83023  41.837  36.369   4.165
23763W        W83024  40.953  21.553  10.554
23764W        W83025  27.154  21.063   2.366
23765W        W83026  36.944  12.350  13.901
23766W        W83027  21.189  22.665  13.480
23767W        W83028  30.128  19.574  11.463
23768W        W83029  31.517  27.024  10.549
23769W        W83030  11.644  35.029  10.042
23770W        W83031  26.196  32.108   2.855
23771W        W83032  39.431  31.115   2.371
23772W        W83033  16.310   9.305  13.388
23773W        W83034  38.037  12.121  11.377
23774W        W83035  32.411  23.505  11.554
23775W        W83036  21.200   4.922   3.206
23776W        W83037   8.275  10.651   3.258
23777W        W83038  28.007  31.460  13.464
23778W        W83039  10.659   7.247  12.507
23779W        W83040  11.366  22.505   3.652
23780W        W83041  17.763  18.273   2.417
23781W        W83042  35.921  33.452   2.817
23782W        W83043  28.525  21.667   4.751
23783W        W83044  26.500  28.594   2.339
23784W        W83045   7.222  15.094  13.846
23785W        W83046  40.988   5.328   2.262
23786W        W83047  19.270   1.354   2.307
23787W        W83048  20.737  16.132  10.982
23788W        W83049  13.326  18.267  10.990
23789W        W83050  16.579  40.449   0.252
23790W        W83051  16.085  30.588   1.372
23791W        W83052  15.181  22.733  13.343
23792W        W83053  37.000   8.718   2.357
23793W        W83054   5.887  20.677   2.215
23794W        W83055  25.999  12.360   0.968
23795W        W83056  25.603  18.085   3.705
23796W        W83057  19.071  15.602  14.514
23797W        W83058  26.186   5.730   3.195
23798W        W83059  20.241  32.887   2.687
23799W        W83060  14.828  30.628   0.297
23800W        W83061  21.658   1.360  11.600
23801W        W83062  12.837  19.131  12.041
23802W        W83063  10.174  29.075   0.344
23803W        W83064  38.011  36.514   1.316
23804W        W83065   5.877  19.544  12.860
23805W        W83066  17.271  31.433  14.941
23806W        W83067  29.140  39.421   4.349
23807W        W83068  26.103   5.320   3.205
23808W        W83069  10.149  16.091   3.366
23809W        W83070  40.403  25.207   3.380
23810W        W83071  43.954  14.644  11.006
23811W        W83072  10.788   8.334  14.847
23812W        W83073   8.364  35.546  10.516
23813W        W83074   7.179  41.852   1.918
23814W        W83075  44.761  24.058   4.196
23815W        W83076  38.325   7.712  12.578
23816W        W83077  24.610  16.249  10.500
23817W        W83078  25.624  43.403   4.164
23818W        W83079  30.004  33.048  11.589
23819W        W83080   6.316   2.325   4.210
23820W        W83081  22.124  35.485  12.837
23821W        W83082  27.620  24.549  13.877
23822W        W83083  16.152  39.546   1.840
23823W        W83084   0.869  24.137   3.683
23824W        W83085  29.517  21.195   0.790
23825W        W83086  40.843  28.037  10.609
23826W        W83087  18.698  28.134  11.892
23827W        W83088   5.776   6.389   5.295
23828W        W83089  10.701   8.892   0.876
23829W        W83090  17.713  26.193  13.533
23830W        W83091  36.909  10.267  10.125
23831W        W83092  35.963   8.194  14.288
23832W        W83093  23.148  25.052   0.321
23833W        W83094  34.471  29.032   3.651
23834W        W83095   5.694  28.655  12.857
23835W        W83096  12.334  35.503   0.322
23836W        W83097  17.594  41.835   0.898
23837W        W83098   5.889  11.686  10.980
23838W        W83099  13.833  14.677   0.851
23839W        W83100  44.366  28.945   2.266
23840W        W83101  24.482  42.329   1.762
23841W        W83102   0.859  28.056  12.423
23842W        W83103   1.858  12.822   2.878
23843W        W83104  38.451  22.042   2.182
23844W        W83105  43.298  44.426   2.207
23845W        W83106  10.782  15.299  10.514
23846W        W83107  44.991  14.238   2.247
23847W        W83108   2.289  27.941  11.466
23848W        W83109  13.641  39.987   4.188
23849W        W83110  44.311   5.825   0.324
23850W        W83111  40.803   7.191   2.236
23851W        W83112   8.236  22.599  14.995
23852W        W83113  36.894  11.811   2.843
23853W        W83114   3.856   9.301  11.871
23854W        W83115  38.376   4.308  12.876
23855W        W83116  25.030  16.773   1.912
23856W        W83117  10.305  33.599   0.293
23857W        W83118  30.142   2.465   1.359
23858W        W83119  25.012  41.475   1.871
23859W        W83120  39.921  18.554   0.742
23860W        W83121  36.413  12.238  10.629
23861W        W83122  43.455  22.548  12.477
23862W        W83123  26.142   0.404  12.884
23863W        W83124  22.704  34.080  11.458
23864W        W83125   1.267   6.711   1.848
23865W        W83126  27.106  41.396  14.349
23866W        W83127  32.538  30.070   0.732
23867W        W83128  31.449  34.106  13.902
23868W        W83129  12.191  12.736   2.343
23869W        W83130  30.502  33.034   0.950
23870W        W83131  44.489   1.857   4.173
23871W        W83132  22.107   2.272  13.934
23872W        W83133   7.234   8.210  14.305
23873W        W83134  17.744  36.058  14.833
23874W        W83135  42.995   8.865   3.822
23875W        W83136  34.588  20.529  13.813
23876W        W83137  41.420   7.259  14.489
23877W        W83138  28.454  28.134   4.302
23878W        W83139  42.468  36.432  10.125
23879W        W83140  26.576   4.282   4.267
23880W        W83141  36.946   3.375   1.704
23881W        W83142  19.754   6.707  13.946
23882W        W83143  14.716   0.780   2.815
23883W        W83144  21.135  30.532  10.969
23884W        W83145  23.092  31.090   4.705
23885W        W83146  18.631  39.033   3.242
23886W        W83147   7.332  19.175  11.870
23887W        W83148  11.860  33.517  12.349
23888W        W83149  26.538  18.699   5.129
23889W        W83150  22.506   7.805  12.844
23890W        W83151  15.758  29.137  14.797
23891W        W83152   0.403  44.967  11.506
23892W        W83153   5.229  30.504   2.795
23893W        W83154  24.035  28.537  11.095
23894W        W83155  25.694  17.149  10.954
23895W        W83156  32.900  12.349  11.113
23896W        W83157  38.925   9.754   3.728
23897W        W83158  25.533  37.913   2.362
23898W        W83159  33.888  38.495   2.712
23899W        W83160  42.991  13.789  13.430
23900W        W83161  19.744  13.671  12.562
23901W        W83162   0.315  27.039   1.382
23902W        W83163  37.401  23.637  12.424
23903W        W83164  35.586  27.965  14.818
23904W        W83165  19.063  31.010  10.023
23905W        W83166   3.252   8.833   0.838
23906W        W83167  43.000  21.017   4.304
23907W        W83168  13.638  11.781   1.298
23908W        W83169   6.805  17.193  12.952
23909W        W83170   7.223  18.058   0.429
23910W        W83171  32.554  26.138  14.288
23911W        W83172  14.795  40.802   1.237
23912W        W83173  19.712  21.699  11.970
23913W        W83174  10.298   8.289   4.751
23914W        W83175  29.070   2.470   4.328
23915W        W83176  27.943  27.182   0.790
23916W        W83177   3.431  26.531  12.568
23917W        W83178  14.816   6.242   4.116
23918W        W83179  42.331  43.485  11.981
23919W        W83180   2.800  32.981  13.061
23920W        W83181   5.928  35.888  12.537
23921W        W83182  10.182   8.797  12.983
23922W        W83183  16.312  22.545   2.213
23923W        W83184  24.577  12.756   1.776
23924W        W83185  34.044  38.410  10.636
23925W        W83186   1.446  40.799  12.407
23926W        W83187  17.750  10.321  12.928
23927W        W83188  36.474  44.503  10.976
23928W        W83189   6.891   2.238   0.959
23929W        W83190  17.721  21.689   1.802
23930W        W83191   8.767  30.989   0.313
23931W        W83192   4.416  27.658   4.732
23932W        W83193  12.833  41.325   1.778
23933W        W83194  13.304  16.211  12.984
23934W        W83195  31.107  35.878   2.847
23935W        W83196   4.757   7.239   9.630
23936W        W83197  12.231  14.732  14.360
23937W        W83198  26.189  19.533   0.950
23938W        W83199  32.958  23.079  12.372
23939W        W83200  21.253  43.361   0.328
23940W        W83201  38.501  41.928  11.519
23941W        W83202  38.836  18.661  12.498
23942W        W83203  12.647  40.915   3.649
23943W        W83204  33.468  25.197  12.541
23944W        W83205  16.730   2.930  11.027
23945W        W83206  17.624   5.317   2.902
23946W        W83207  27.460  32.436  10.468
23947W        W83208  24.215  41.515  11.526
23948W        W83209  32.422  16.171  12.482
23949W        W83210  40.403  18.595   4.747
23950W        W83211  42.511  20.590  13.373
23951W        W83212  35.465  30.923   4.743
23952W        W83213  27.141   2.463  12.918
23953W        W83214  16.149   9.821   2.847
23954W        W83215  36.911  43.818   3.348
23955W        W83216  32.045  39.445  14.402
23956W        W83217  10.660   8.807  11.899
23957W        W83218  25.070  10.833  10.890
23958W        W83219  26.472  27.990   1.451
23959W        W83220  19.216  25.612  10.410
23960W        W83221  26.489  27.576   2.884
23961W        W83222  27.582  12.353   1.260
23962W        W83223  26.541  18.149   4.184
23963W        W83224  41.360  14.644   4.716
23964W        W83225  44.796  43.452   1.404
23965W        W83226  44.263  18.756   1.291
23966W        W83227  21.163  17.572   3.378
23967W        W83228  43.910  30.932   2.862
23968W        W83229  12.336  41.472   0.840
23969W        W83230   1.320   0.421   2.743
23970W        W83231   0.754  31.986   9.986
23971W        W83232  11.778  39.937   1.840
23972W        W83233  32.894  42.946  10.123
23973W        W83234  16.688  35.942   1.827
23974W        W83235  10.804  10.761  10.530
23975W        W83236  23.174  16.584  10.898
23976W        W83237  37.418  26.672   3.702
23977W        W83238  38.338   9.725  11.384
23978W        W83239   8.283  23.116  14.511
23979W        W83240  20.547  23.726   0.765
23980W        W83241  16.629  25.614  13.001
23981W        W83242  10.706  26.197  12.370
23982W        W83243  19.269  39.012   4.186
23983W        W83244  18.175   4.880   4.296
23984W        W83245   9.366   7.718  13.456
23985W        W83246   7.757  21.107  13.928
23986W        W83247  16.637  28.974  11.999
23987W        W83248   0.458  24.547  11.941
23988W        W83249  18.640  42.797   0.242
23989W        W83250   5.290   2.440   4.227
23990W        W83251  32.061  14.714   3.254
23991W        W83252  21.548   2.398  13.985
23992W        W83253  17.732  24.077  14.433
23993W        W83254  31.562  19.663   0.332
23994W        W83255  36.380  15.157   0.766
23995W        W83256  23.519   5.403  13.505
23996W        W83257  31.406  33.111   1.930
23997W        W83258   0.339   9.773  12.944
23998W        W83259  24.496  12.629  13.311
23999W        W83260  23.682   8.198   3.647
24000W        W83261   6.420  39.526  12.011
24001W        W83262  38.957  37.389   2.817
24002W        W83263  24.642   1.731   4.135
24003W        W83264  41.351  37.364  13.037
24004W        W83265   1.889  33.554  11.538
24005W        W83266  21.679  24.077   0.331
24006W        W83267  43.899  38.011  12.048
24007W        W83268  25.524   0.895   2.208
24008W        W83269  17.792  23.119   1.447
24009W        W83270   1.777  18.196  10.976
24010W        W83271  31.407  35.869   3.327
24011W        W83272  35.071   1.440   1.250
24012W        W83273  41.936  20.692   0.316
24013W        W83274  40.817  18.164  13.382
24014W        W83275  37.899  33.622   4.614
24015W        W83276  42.936  25.627  10.511
24016W        W83277  42.439   3.406  10.410
24017W        W83278  43.474  10.296  14.824
24018W        W83279  12.184  43.853   1.368
24019W        W83280   7.199  40.903   1.216
24020W        W83281  17.689   2.251  14.787
24021W        W83282  21.163  19.646   1.710
24022W        W83283   0.351   9.827  12.514
24023W        W83284  25.173  10.189  13.503
24024W        W83285  30.608  44.326   3.672
24025W        W83286  26.575   1.447   3.314
24026W        W83287  22.506  40.521  14.789
24027W        W83288  29.145  26.495   1.790
24028W        W83289  43.957   5.268  12.521
24029W        W83290  44.362  38.498  10.426
24030W        W83291  29.049  33.507   0.762
24031W        W83292  15.771  26.970  10.500
24032W        W83293  34.089  32.572   1.715
24033W        W83294   5.204  37.032  13.984
24034W        W83295  16.669  26.625   9.941
24035W        W83296  26.629  29.610  11.077
24036W        W83297  25.559  19.092  10.976
24037W        W83298  24.142   9.279   2.885
24038W        W83299  14.601  26.543   1.353
24039W        W83300  21.048  16.277  13.489
24040W        W83301  38.511   8.680  11.401
24041W        W83302  24.611  33.102   0.388
24042W        W83303  19.052  18.239  12.828
24043W        W83304   5.747   6.327  13.805
24044W        W83305   5.769  25.707   3.250
24045W        W83306   3.383  29.983   0.389
24046W        W83307  22.709  11.625  12.452
24047W        W83308  12.124  11.257  12.944
24048W        W83309  37.404  21.159   4.630
24049W        W83310  20.673  32.939   2.223
24050W        W83311   7.319  43.973  11.008
24051W        W83312  10.649  12.249  14.351
24052W        W83313  32.124  27.464  13.813
24053W        W83314   8.171  25.041  13.516
24054W        W83315  36.414  39.928  11.455
24055W        W83316  41.393  28.515  14.863
24056W        W83317   7.194  33.403  14.292
24057W        W83318  12.280  40.917   3.655
24058W        W83319  14.685  18.129   4.825
24059W        W83320   4.898  40.378   4.758
24060W        W83321  27.526  32.935  12.369
24061W        W83322  30.079  11.287   4.796
24062W        W83323  18.202  24.083  14.404
24063W        W83324  17.131  35.852   1.223
24064W        W83325  34.996  32.580   3.634
24065W        W83326   9.855  13.614   5.169
24066W        W83327  44.865   8.864   1.789
24067W        W83328  16.692  40.332  12.496
24068W        W83329  39.381  27.642   0.890
24069W        W83330  13.126  35.514  13.359
24070W        W83331  28.147  39.997  13.451
24071W        W83332  27.095  38.856   3.268
24072W        W83333  29.920   2.861   4.130
24073W        W83334   0.981  29.593   2.844
24074W        W83335  22.645  13.683  13.482
24075W        W83336  16.666   6.901   4.307
24076W        W83337  42.945  37.041   1.791
24077W        W83338  19.137  25.586   1.231
24078W        W83339  20.732  23.987  12.863
24079W        W83340   3.361   9.284  14.760
24080W        W83341  38.859  37.407  10.440
24081W        W83342  17.595  38.338   2.711
24082W        W83343   6.793  29.502  12.343
24083W        W83344  41.851   7.171  14.997
24084W        W83345  33.060  26.083   3.805
24085W        W83346  36.993  21.208   0.759
24086W        W83347  21.200   8.288  10.580
24087W        W83348  16.719   6.864   2.308
24088W        W83349  11.349  20.681   3.780
24089W        W83350  42.962  35.420   0.727
24090W        W83351   2.297   7.393   9.922
24091W        W83352  28.581  44.914  13.879
24092W        W83353  14.179  27.940   0.323
24093W        W83354   8.792  35.496   2.269
24094W        W83355  28.136   6.836  14.903
24095W        W83356  11.186  19.566  14.806
24096W        W83357   0.862  40.012  13.795
24097W        W83358  18.234  37.865  10.903
24098W        W83359  15.300  21.535   3.335
24099W        W83360  34.538   5.296   2.399
24100W        W83361  16.137  42.889   3.718
24101W        W83362  42.797  36.352  13.912
24102W        W83363   1.397  12.758  11.451
24103W        W83364   7.685   7.865  11.580
24104W        W83365  23.498  10.663   4.325
24105W        W83366  43.014   6.802  14.903
24106W        W83367  33.533  44.278   5.136
24107W        W83368  16.183   6.898   1.913
24108W        W83369  33.622  37.057  11.880
24109W        W83370  41.467  14.773   0.322
24110W        W83371  32.885  35.582   0.768
24111W        W83372  33.962  21.620   0.945
24112W        W83373   6.339   8.402  14.785
24113W        W83374   4.253  20.062  13.530
24114W        W83375  26.533  10.818  13.804
24115W        W83376  38.029  18.602   4.674
24116W        W83377  18.277  30.981  13.865
24117W        W83378  37.364  17.068  11.580
24118W        W83379  42.469  12.287  11.523
24119W        W83380  30.156  23.644  13.995
24120W        W83381  34.523  28.993  12.484
24121W        W83382  39.412  33.950   2.284
24122W        W83383  13.351   1.740  13.477
24123W        W83384  29.538   5.834   4.777
24124W        W83385   8.901  32.465   0.827
24125W        W83386   7.364   0.471   2.785
24126W        W83387   9.282   4.888  14.373
24127W        W83388   9.819  42.840  14.322
24128W        W83389  33.912  18.670  12.005
24129W        W83390  43.316  10.734  10.933
24130W        W83391   2.416   4.220   4.346
24131W        W83392   0.326   3.441   2.365
24132W        W83393  18.088  29.974  11.022
24133W        W83394  38.822   6.835  11.582
24134W        W83395  35.403  36.945   3.313
24135W        W83396  40.314   3.833   3.833
24136W        W83397  12.132  14.632  14.857
24137W        W83398  33.535  31.091  10.474
24138W        W83399  23.557  44.382  14.318
24139W        W83400  14.716  26.028  11.395
24140W        W83401  38.402  36.068   1.371
24141W        W83402   5.257   5.284  13.307
24142W        W83403   5.929  22.186  13.499
24143W        W83404  22.164  42.406  12.035
24144W        W83405   9.686  41.920   2.228
24145W        W83406   2.920  41.460   4.649
24146W        W83407  15.160  11.695   0.254
24147W        W83408  31.993  40.956  11.450
24148W        W83409  13.177  42.918  14.848
24149W        W83410   1.322   9.303   2.690
24150W        W83411   1.785  39.507  13.026
24151W        W83412  25.614  23.516  14.346
24152W        W83413  42.868  23.716   0.297
24153W        W83414  16.261  29.565  12.055
24154W        W83415   0.265  42.378  14.497
24155W        W83416  11.660  30.466   2.788
24156W        W83417  31.986  16.576  13.444
24157W        W83418   9.185  21.181  12.531
24158W        W83419  27.083  27.481   0.446
24159W        W83420  23.731  10.842   0.729
24160W        W83421  26.456  13.125   4.301
24161W        W83422   1.913  11.646  13.973
24162W        W83423  10.172  26.121   2.351
24163W        W83424  27.060  27.672  12.032
24164W        W83425   0.450   3.734  12.530
24165W        W83426   1.482  30.984   3.727
24166W        W83427  10.768  33.555   3.868
24167W        W83428  33.010  19.675  14.389
24168W        W83429   6.844  17.657   1.219
24169W        W83430  30.162   8.291  13.892
24170W        W83431  21.118  32.946   3.294
24171W        W83432  28.022  21.519  12.830
24172W        W83433   0.452  37.031   0.315
24173W        W83434  12.754   0.314  11.961
24174W        W83435  42.896  14.290  14.390
24175W        W83436   2.300  42.442   1.737
24176W        W83437  38.021  10.705   0.457
24177W        W83438   7.690   6.390   1.244
24178W        W83439  41.788  27.554  10.542
24179W        W83440  25.129  22.679  11.108
24180W        W83441   2.732   1.464   1.421
24181W        W83442  18.641  38.441   4.232
24182W        W83443  23.579   6.803  13.966
24183W        W83444  21.524   0.409   2.251
24184W        W83445  19.743  39.420  12.517
24185W        W83446  31.485  17.077  13.903
24186W        W83447  21.670   7.327  14.013
24187W        W83448  34.017  32.595   0.799
24188W        W83449  20.632   0.353   4.737
24189W        W83450   7.287  41.304  14.341
24190W        W83451   6.195   6.337   3.316
24191W        W83452  19.181  16.092   2.184
24192W        W83453  24.518  26.966   3.325
24193W        W83454   5.746  18.142   2.185
24194W        W83455  32.519  11.250   1.702
24195W        W83456  26.537  32.903   2.883
24196W        W83457  16.279  31.403   0.745
24197W        W83458   6.763  10.774  11.491
24198W        W83459  39.045  15.250   1.223
24199W        W83460  28.657   7.749   3.384
24200W        W83461  42.475  28.437  12.919
24201W        W83462   0.348   4.396   3.652
24202W        W83463   3.864  15.597   2.181
24203W        W83464   7.199  24.147  11.010
24204W        W83465  35.980  14.732   3.854
24205W        W83466  15.123  39.454  10.413
24206W        W83467  26.488  32.569   3.856
24207W        W83468  22.678   7.717  11.441
24208W        W83469   0.275  32.562   0.385
24209W        W83470  32.616  23.014  14.508
24210W        W83471  24.596  34.471  14.835
24211W        W83472  16.075  24.161   2.681
24212W        W83473   4.292  39.933   2.190
24213W        W83474  36.589   7.251   2.374
24214W        W83475  19.597  10.756  12.920
24215W        W83476  37.014  27.183   4.697
24216W        W83477  20.535  16.666  11.081
24217W        W83478  34.509   9.804  11.110
24218W        W83479   4.892  23.104   3.366
24219W        W83480  41.307  11.822  14.284
24220W        W83481  25.077  44.348  14.335
24221W        W83482  38.916  36.003   1.225
24222W        W83483  17.611  41.958  14.837
24223W        W83484  43.410  20.172   0.415
24224W        W83485  28.980  10.266  14.496
24225W        W83486  43.764   2.842   2.815
24226W        W83487  24.601  30.154   4.821
24227W        W83488  42.982  29.665   0.744
24228W        W83489   9.742  35.065   1.400
24229W        W83490  21.628  26.540  12.071
24230W        W83491   2.463   9.722  13.483
24231W        W83492  20.172  28.176  13.324
24232W        W83493  15.310   8.782   0.482
24233W        W83494  16.615  13.627  12.565
24234W        W83495  37.930  26.172  11.961
24235W        W83496  17.239  29.151   3.687
24236W        W83497  39.448   6.839   2.311
24237W        W83498  29.558  36.383   1.785
24238W        W83499  23.577  32.936  12.018
24239W        W83500  41.300  20.713   0.426
24240W        W83501  10.704   7.255  13.441
24241W        W83502   6.688   1.865   0.901
24242W        W83503  39.013  37.551  13.526
24243W        W83504  42.315  22.212   2.733
24244W        W83505  18.274  40.868  14.393
24245W        W83506   0.877  44.342   3.764
24246W        W83507  32.000   7.226   3.754
24247W        W83508  39.932  24.635   3.744
24248W        W83509  36.584  27.583   2.253
24249W        W83510  28.025  23.590  12.013
24250W        W83511  20.120  28.617   1.751
24251W        W83512  25.198  37.079   1.293
24252W        W83513  19.685  21.518  13.367
24253W        W83514   0.987  20.751  10.502
24254W        W83515  37.540  15.132   1.217
24255W        W83516  21.225  11.718   5.260
24256W        W83517  13.650   3.886   1.714
24257W        W83518  16.657  44.466   2.793
24258W        W83519  28.146   9.679  10.017
24259W        W83520  15.164  36.964  10.922
24260W        W83521  24.622  28.503   2.352
24261W        W83522  24.723  42.445   1.224
24262W        W83523  38.452  15.680   3.861
24263W        W83524   7.377   3.819  10.520
24264W        W83525  38.443  20.262   2.866
24265W        W83526  12.344   8.300   2.732
24266W        W83527  40.418   2.449   0.384
24267W        W83528   4.767  27.525  13.848
24268W        W83529  10.650  40.402   3.734
24269W        W83530   9.172  38.462  13.952
24270W        W83531   4.280  31.922  13.938
24271W        W83532  33.041  31.564  12.400
24272W        W83533   4.799   5.299   1.925
24273W        W83534  17.160   4.942   4.688
24274W        W83535   5.427   5.277  10.626
24275W        W83536  29.145  24.642   2.333
24276W        W83537  14.677  40.474   2.346
24277W        W83538  23.184  15.658  10.054
24278W        W83539  12.676  17.564  11.891
24279W        W83540  29.580  36.408  14.306
24280W        W83541  29.618  25.623  13.496
24281W        W83542  14.674  19.752  11.066
24282W        W83543  36.571  34.572  13.401
24283W        W83544  21.220  42.488   1.750
24284W        W83545  42.910   9.373   3.283
24285W        W83546  36.479  43.021   2.716
24286W        W83547  32.902  28.532  11.523
24287W        W83548  29.036  28.079   2.285
24288W        W83549   7.804  38.493  13.327
24289W        W83550  35.544  39.964  13.462
24290W        W83551  41.975  23.534  10.612
24291W        W83552  33.014  30.437   4.220
24292W        W83553  38.547  23.712   4.309
24293W        W83554  18.190  22.720   0.397
24294W        W83555  10.372  12.825   1.862
24295W        W83556  30.013   5.363  12.890
24296W        W83557  14.730  10.724   1.252
24297W        W83558  41.390  19.223  12.075
24298W        W83559   2.945   2.274  11.485
24299W        W83560   0.256  20.210  11.917
24300W        W83561  25.498  20.151  13.316
24301W        W83562  24.646  24.186  10.912
24302W        W83563   4.315  14.628  13.004
24303W        W83564  23.549   6.739  12.065
24304W        W83565  32.583   3.918   0.245
24305W        W83566  42.986   0.883   2.213
24306W        W83567  40.022  44.906  10.582
24307W        W83568   9.150   7.874  12.949
24308W        W83569   8.254  24.098   2.224
24309W        W83570  23.641   4.900  10.910
24310W        W83571   8.364  25.657  10.526
24311W        W83572  13.645  39.528  14.773
24312W        W83573  12.742   8.243   3.709
24313W        W83574  32.915  41.368   1.301
24314W        W83575  41.309  40.409  13.799
24315W        W83576  43.475  37.979  11.961
24316W        W83577  26.501  34.417  14.454
24317W        W83578  33.886  12.648   1.284
24318W        W83579  16.750  27.941  14.431
24319W        W83580  21.255  22.742   5.256
24320W        W83581  16.148  16.621   0.251
24321W        W83582  13.274  32.993   4.342
24322W        W83583  38.358  14.231   2.791
24323W        W83584  44.356  10.306   1.226
24324W        W83585   2.278  24.202   4.702
24325W        W83586  10.870  39.458  13.376
24326W        W83587  25.580  10.301   2.374
24327W        W83588  19.120  35.867  12.389
24328W        W83589  42.361  20.651   2.396
24329W        W83590  38.878  21.141   3.647
24330W        W83591  16.573  25.485  13.384
24331W        W83592  43.807  14.122   0.420
24332W        W83593  20.053  37.960   3.738
24333W        W83594  39.028  25.564   1.215
24334W        W83595  37.468   4.208  13.475
24335W        W83596  37.840  30.953  14.970
24336W        W83597  18.581  20.748   4.279
24337W        W83598  42.817   0.464  12.503
24338W        W83599   6.349  27.033  11.078
24339W        W83600  41.389  42.920   3.350
24340W        W83601  26.166  28.587   4.115
24341W        W83602  14.132  35.480   0.919
24342W        W83603   7.909  14.151  13.422
24343W        W83604  27.088  12.290   0.340
24344W        W83605  31.581   0.263   3.709
24345W        W83606  20.221  31.067   0.953
24346W        W83607  33.489  15.232   5.662
24347W        W83608  31.575  17.713  12.962
24348W        W83609  17.082  11.821   3.747
24349W        W83610  33.013  21.154   3.152
24350W        W83611   0.813  34.584  13.320
24351W        W83612  15.284  19.720   4.734
24352W        W83613  22.628  13.234   4.669
24353W        W83614  26.484  11.662   0.942
24354W        W83615   0.852  15.714  13.992
24355W        W83616   8.311  37.476  12.943
24356W        W83617  13.295   4.850   5.191
24357W        W83618  29.504   3.871   2.367
24358W        W83619  14.684  19.762  14.433
24359W        W83620  16.767   6.208   3.362
24360W        W83621  33.957  37.469   1.298
24361W        W83622   1.803  31.943   0.412
24362W        W83623  42.019   0.433   1.929
24363W        W83624  32.015   6.366  13.312
24364W        W83625  21.184   5.714  11.508
24365W        W83626   1.329  34.116  14.836
24366W        W83627   2.943  36.949   4.299
24367W        W83628   2.791  38.415  11.086
24368W        W83629  15.274  10.820   0.928
24369W        W83630  39.841  12.159   1.338
24370W        W83631   2.748  11.214   2.380
24371W        W83632   4.832   1.434  12.368
24372W        W83633   2.825  23.678   2.354
24373W        W83634  42.827  17.164  12.542
24374W        W83635  26.524   5.695  10.083
24375W        W83636  16.737  24.128   2.374
24376W        W83637  44.813  10.150  10.159
24377W        W83638   6.331   0.894  11.077
24378W        W83639  21.245   8.812  12.455
24379W        W83640  28.966  13.646  14.462
24380W        W83641  35.004  17.150  14.929
24381W        W83642  36.904   9.723  13.327
24382W        W83643  25.624   2.296  13.498
24383W        W83644  35.083  26.685  13.310
24384W        W83645  28.488  27.145   4.740
24385W        W83646  20.160  17.621   2.846
24386W        W83647  23.232  34.496   3.216
24387W        W83648  10.384  12.285   0.871
24388W        W83649   1.419  24.534  12.024
24389W        W83650  22.033  29.026  13.472
24390W        W83651   5.239  38.430   3.222
24391W        W83652  15.767  23.102   1.907
24392W        W83653  22.641  40.919  12.879
24393W        W83654  31.586  29.550  14.859
24394W        W83655   4.360   0.306   1.932
24395W        W83656  24.485  24.102   4.655
24396W        W83657  36.591  13.271   1.780
24397W        W83658   9.644  27.059   3.762
24398W        W83659  26.088  40.821  12.966
24399W        W83660  33.114   8.182  13.923
24400W        W83661  20.610  28.111   3.207
24401W        W83662  30.616  29.918  11.455
24402W        W83663  25.673  37.535  10.062
24403W        W83664  18.123  16.598   3.726
24404W        W83665   4.214  24.555   4.227
24405W        W83666  21.715  39.916   3.259
24406W        W83667  16.172  30.614   3.698
24407W        W83668  39.978  31.909   4.831
24408W        W83669  22.226  13.632   1.733
24409W        W83670  43.805   9.759   0.870
24410W        W83671  14.592   7.909  12.445
24411W        W83672  26.458  27.557  13.821
24412W        W83673  21.120  10.203  10.577
24413W        W83674   8.807  12.310  11.453
24414W        W83675  13.619  35.010  11.971
24415W        W83676  14.647   8.694  11.558
24416W        W83677  25.597  11.194   4.665
24417W        W83678  20.051  24.034   2.297
24418W        W83679   6.254  35.050  14.986
24419W        W83680  35.463  27.645  13.333
24420W        W83681  15.209   2.931   9.456
24421W        W83682  32.137  42.021   5.711
24422W        W83683  31.512  15.307  11.533
24423W        W83684  36.540  43.008  13.426
24424W        W83685  29.592  39.377   4.597
24425W        W83686  28.145  17.186   3.724
24426W        W83687   5.421  14.702  11.532
24427W        W83688  22.579  10.856   4.324
24428W        W83689  41.407   3.375  11.590
24429W        W83690   0.859   7.229  10.518
24430W        W83691   1.732  42.963   4.166
24431W        W83692  41.310  35.045   3.730
24432W        W83693  32.615   7.416  11.518
24433W        W83694  35.452  13.698   4.177
24434W        W83695  19.131  30.552  12.872
24435W        W83696  16.687  34.990   3.820
24436W        W83697  24.682  24.032  12.047
24437W        W83698  22.176  36.948   1.862
24438W        W83699  39.964  31.526   2.262
24439W        W83700  33.124  18.676  13.542
24440W        W83701  28.042   8.335  11.100
24441W        W83702   4.435  15.228  14.873
24442W        W83703  13.826  24.680  12.054
24443W        W83704   6.223  20.150   4.623
24444W        W83705   6.842  40.515  14.358
24445W        W83706  10.241   1.875   2.746
24446W        W83707  15.188  32.486  11.530
24447W        W83708  25.035  33.928  14.446
24448W        W83709  41.950   1.287   0.273
24449W        W83710   0.456  26.170  11.969
24450W        W83711  43.334   3.293   3.798
24451W        W83712   7.895  14.813  11.577
24452W        W83713  30.646   0.819  14.778
24453W        W83714   7.247  33.097  11.552
24454W        W83715  20.625  28.076  11.992
24455W        W83716  19.047  18.123   1.887
24456W        W83717  24.179  17.236   9.988
24457W        W83718  20.176   5.789   2.197
24458W        W83719  14.219  18.184   4.826
24459W        W83720  39.036  25.668  11.377
24460W        W83721   8.837  19.743   1.387
24461W        W83722  40.041  35.992  11.873
24462W        W83723  23.212   2.422   4.281
24463W        W83724  21.558  33.947   4.790
24464W        W83725   2.321  26.127   4.807
24465W        W83726  43.299  36.070   3.685
24466W        W83727  44.484  43.304  10.986
24467W        W83728  21.083  16.273   2.184
24468W        W83729  16.194  30.653   1.933
24469W        W83730   1.886  37.052  11.497
24470W        W83731  15.768  14.236   0.895
24471W        W83732  27.679  39.989   0.941
24472W        W83733  19.636  18.580  14.395
24473W        W83734  33.516   7.852  12.425
24474W        W83735   0.976   9.849  12.556
24475W        W83736  36.460  43.966   0.897
24476W        W83737  21.145  44.263   1.748
24477W        W83738  39.976   1.759   2.251
24478W        W83739  38.500   1.827  14.378
24479W        W83740  10.723  34.426   1.834
24480W        W83741   5.201  32.049  13.521
24481W        W83742  39.385  14.664  13.817
24482W        W83743  43.513  35.469   3.779
24483W        W83744  12.288  16.745  12.872
24484W        W83745   6.705   0.845   0.771
24485W        W83746  36.580  43.018   2.218
24486W        W83747  26.701  18.727   0.776
24487W        W83748   7.345  28.133   4.187
24488W        W83749   0.953   7.765  13.345
24489W        W83750  34.898  36.035  13.403
24490W        W83751   7.176  36.916  12.075
24491W        W83752  11.197  34.546  12.570
24492W        W83753   2.268  27.675  14.983
24493W        W83754   1.260  33.385  11.444
24494W        W83755  10.802  19.574   0.919
24495W        W83756  39.375  31.069  14.818
24496W        W83757   0.825   4.439  10.439
24497W        W83758   7.843  28.129  10.154
24498W        W83759  42.440  29.127   4.703
24499W        W83760  19.628  36.971  14.879
24500W        W83761  28.574  26.480  13.422
24501W        W83762  27.133  13.608   1.333
24502W        W83763   3.395   8.690   3.297
24503W        W83764  10.343  19.040   2.872
24504W        W83765  38.418  29.129   3.667
24505W        W83766  30.152  22.222   3.839
24506W        W83767  12.290  36.877   3.150
24507W        W83768  37.078  24.176  10.572
24508W        W83769  41.839  38.452   4.635
24509W        W83770  32.958   7.774   2.725
24510W        W83771   1.760   9.384  11.560
24511W        W83772  21.134   1.315  13.434
24512W        W83773  34.426   7.338   3.324
24513W        W83774  32.895  44.266   4.312
24514W        W83775  27.055  34.119   2.317
24515W        W83776   3.839  40.484   1.298
24516W        W83777  12.804   6.412   0.937
24517W        W83778  31.646   7.843  14.831
24518W        W83779   9.829  26.021  13.366
24519W        W83780  33.101   3.934   2.288
24520W        W83781  34.593  31.435  12.831
24521W        W83782  36.955  20.273  12.441
24522W        W83783  43.442  16.633  14.990
24523W        W83784  39.343  25.091  14.932
24524W        W83785  41.472  22.527  12.997
24525W        W83786   1.335  23.637  12.907
24526W        W83787  44.803   8.334  10.973
24527W        W83788   7.752   6.377  14.764
24528W        W83789  44.402  20.062  12.068
24529W        W83790  30.528  44.853  13.426
24530W        W83791  25.170  21.558   3.860
24531W        W83792  20.567   0.976   3.784
24532W        W83793   3.411  16.611  11.496
24533W        W83794  23.543  23.575  10.136
24534W        W83795  25.695  23.129  14.907
24535W        W83796  16.628  11.764   0.875
24536W        W83797  21.243  17.212  14.329
24537W        W83798  28.176  27.473   4.299
24538W        W83799   4.442  13.232   1.851
24539W        W83800   6.270  27.966  11.517
24540W        W83801  32.993  36.449  10.420
24541W        W83802  24.047  16.695   3.203
24542W        W83803  38.980   5.860  13.985
24543W        W83804   5.779  28.436   4.271
24544W        W83805   4.809  24.053  10.929
24545W        W83806  27.197  41.423   3.299
24546W        W83807   6.767  42.397   2.386
24547W        W83808  22.574   0.901  14.994
24548W        W83809  16.253  15.761   4.229
24549W        W83810  42.007  32.104  11.436
24550W        W83811  28.077  35.995  11.879
24551W        W83812  43.884  14.699  10.608
24552W        W83813  41.432  18.181   3.691
24553W        W83814  21.086   4.888  11.571
24554W        W83815  14.133  13.193  12.940
24555W        W83816  13.109  11.152  12.014
24556W        W83817  13.745  42.925   3.373
24557W        W83818  14.633   5.884   0.932
24558W        W83819  33.582  28.624   1.793
24559W        W83820  20.152  37.338  13.050
24560W        W83821  21.533  34.113   1.236
24561W        W83822  20.734  39.392   0.778
24562W        W83823  11.731  13.655  13.361
24563W        W83824  12.701  34.388  13.846
24564W        W83825  17.660   2.293   1.251
24565W        W83826  17.246  19.731  14.358
24566W        W83827  12.313  15.245  11.018
24567W        W83828  42.801   1.339  14.377
24568W        W83829  24.177  14.225  10.985
24569W        W83830  39.906  28.615  13.865
24570W        W83831   6.348  23.123  11.513
24571W        W83832  14.705  36.549  13.413
24572W        W83833  15.749  18.084  11.087
24573W        W83834  35.584  26.028   0.262
24574W        W83835   9.829   1.736  11.036
24575W        W83836  25.528  44.830   4.219
24576W        W83837  12.709   9.171  10.618
24577W        W83838  21.197  24.151  13.922
24578W        W83839  31.489   6.279   3.694
24579W        W83840  25.104  39.370   0.366
24580W        W83841  43.303   7.727  14.317
24581W        W83842  12.271  32.467   0.963
24582W        W83843  21.112  37.446  10.051
24583W        W83844   7.736  18.743   0.333
24584W        W83845  34.084   6.690  13.916
24585W        W83846  36.423  16.072   3.277
24586W        W83847  27.482  22.153   0.383
24587W        W83848  14.747  25.670   0.902
24588W        W83849  43.848   3.859   0.466
24589W        W83850  13.659  21.179   1.226
24590W        W83851  39.016  32.900   9.966
24591W        W83852   6.708   6.358   0.905
24592W        W83853  26.469  22.156   3.173
24593W        W83854  24.496   1.282   0.808
24594W        W83855  33.916   3.715  11.088
24595W        W83856  42.951  12.200  14.350
24596W        W83857   1.374  29.026   0.902
24597W        W83858  42.508  39.061  12.920
24598W        W83859  19.272  18.662  12.942
24599W        W83860  43.472  23.640  12.950
24600W        W83861  21.246  14.741  10.636
24601W        W83862  33.435   9.744  13.851
24602W        W83863   7.752   1.807   2.663
24603W        W83864   6.788  35.932   4.227
24604W        W83865  20.595  29.008  14.947
24605W        W83866  32.109  17.235   2.729
24606W        W83867  32.914  44.757   1.806
24607W        W83868  13.208  12.753  12.556
24608W        W83869   5.222   8.228  13.855
24609W        W83870   3.306  24.632  10.593
24610W        W83871  19.286  43.295  12.927
24611W        W83872  16.680  10.179  11.072
24612W        W83873   9.283  38.465   1.700
24613W        W83874  34.059  10.194   2.351
24614W        W83875   4.897  38.509  14.457
24615W        W83876  17.709  30.419  11.023
24616W        W83877  14.705  40.030  10.454
24617W        W83878  33.575  21.106  13.979
24618W        W83879  42.793  36.584   1.371
24619W        W83880  19.126  38.926   2.401
24620W        W83881  39.977   1.868   0.944
24621W        W83882  28.100  16.309   4.171
24622W        W83883  27.940  38.527   3.869
24623W        W83884   2.882   2.428  13.906
24624W        W83885  38.869  27.050  14.764
24625W        W83886   6.749  39.028   3.165
24626W        W83887  21.053  34.941  12.567
24627W        W83888  42.346  11.223   4.179
24628W        W83889  21.721  13.215   4.170
24629W        W83890  19.722  38.478  12.011
24630W        W83891   8.656  19.186   4.287
24631W        W83892  20.159  25.513  12.832
24632W        W83893   3.431  40.969  13.409
24633W        W83894   6.801  29.120  11.530
24634W        W83895  41.039  38.345   1.365
24635W        W83896  33.002   1.447   4.668
24636W        W83897  26.502   8.195   0.299
24637W        W83898  42.453  20.721  13.901
24638W        W83899   6.885  24.043  13.430
24639W        W83900  25.529   3.269   1.716
24640W        W83901  29.939  23.011  11.016
24641W        W83902  15.087  33.908  12.565
24642W        W83903  24.512  13.221   2.838
24643W        W83904  35.904   2.340   3.719
24644W        W83905  25.584  22.600   1.391
24645W        W83906  36.086   1.366   0.959
24646W        W83907  14.601  16.687   4.127
24647W        W83908  34.105   8.199   1.360
24648W        W83909  30.920  17.628  12.530
24649W        W83910  29.442  11.670  11.046
24650W        W83911  31.923  14.754  14.327
24651W        W83912  32.134  43.392  11.533
24652W        W83913  31.129   1.376  12.559
24653W        W83914  17.606  19.262   2.355
24654W        W83915  18.668  11.778  14.413
24655W        W83916   7.807  28.548   0.940
24656W        W83917  38.328  28.627  12.089
24657W        W83918  31.989  21.024   3.809
24658W        W83919  38.928  31.912   1.878
24659W        W83920  44.278  19.055  12.361
24660W        W83921   3.449   0.327   1.278
24661W        W83922  24.075  24.687   2.799
24662W        W83923   6.328  29.113  12.470
24663W        W83924  24.171  11.706   1.903
24664W        W83925  15.700   5.272   1.346
24665W        W83926   0.748   2.309   3.762
24666W        W83927   1.879   3.813  11.871
24667W        W83928   0.886   3.725  13.370
24668W        W83929  18.190  19.137  14.978
24669W        W83930  15.744  10.153  14.370
24670W        W83931  21.119   9.176   0.373
24671W        W83932  42.393  41.500  11.533
24672W        W83933  31.072  25.657   3.338
24673W        W83934  35.876  31.517  14.856
24674W        W83935   9.395  28.637   3.792
24675W        W83936  34.037  20.087   3.830
24676W        W83937   0.876  28.950   0.781
24677W        W83938  39.390  20.200   0.360
24678W        W83939  39.462   4.352   2.701
24679W        W83940   1.256  12.170  12.366
24680W        W83941  21.712  14.624   0.417
24681W        W83942   3.330   7.306  13.977
24682W        W83943   6.791  22.996   0.307
24683W        W83944  15.095   8.803  14.508
24684W        W83945  26.565  30.495  10.493
24685W        W83946  14.714  40.334  13.003
24686W        W83947   0.394  21.600   2.801
24687W        W83948  33.021  28.964  11.524
24688W        W83949  19.573  25.119  13.373
24689W        W83950   5.396  12.220  14.024
24690W        W83951  11.258  26.533  10.943
24691W        W83952  35.100  35.490   4.646
24692W        W83953  10.244   1.795  10.585
24693W        W83954  31.099  15.617   3.325
24694W        W83955  24.002  10.786   4.715
24695W        W83956  42.523  34.010   9.647
24696W        W83957  43.772  42.918   2.839
24697W        W83958  36.437  21.207  10.951
24698W        W83959  12.793  25.566  12.887
24699W        W83960  16.211  21.180  14.866
24700W        W83961   6.680  10.831  10.016
24701W        W83962  23.020  38.839   3.829
24702W        W83963   8.886  24.498  11.890
24703W        W83964  30.154   0.284   3.243
24704W        W83965   5.235   5.719   2.686
24705W        W83966  30.976  38.977   0.796
24706W        W83967  25.589   3.823   0.881
24707W        W83968  13.734   1.747   4.678
24708W        W83969  14.210  24.705   4.786
24709W        W83970  12.731  36.373  11.536
24710W        W83971  42.467   0.888  12.527
24711W        W83972   1.908   6.873   2.326
24712W        W83973   5.845  44.407   3.227
24713W        W83974  12.839  42.319  13.968
24714W        W83975  21.049  14.675  13.930
24715W        W83976  29.633   3.333   0.810
24716W        W83977  21.606  35.925   3.256
24717W        W83978  19.650  26.137  13.356
24718W        W83979  30.581   5.832  14.864
24719W        W83980  30.421  18.570   0.462
24720W        W83981  31.154  38.917   2.716
24721W        W83982  35.468   6.325   3.172
24722W        W83983  12.792   5.338   5.203
24723W        W83984  18.103  14.806  14.317
24724W        W83985  28.037   1.452  11.912
24725W        W83986   8.230  17.286   1.909
24726W        W83987  32.023  11.659  12.929
24727W        W83988  37.409  10.145  13.889
24728W        W83989  28.605   6.372   3.330
24729W        W83990  41.960   5.820   0.946
24730W        W83991  15.823   6.837  13.480
24731W        W83992  33.534  20.659  11.576
24732W        W83993  30.047  33.481  10.473
24733W        W83994  17.203  36.501  12.857
24734W        W83995  30.033  41.890  14.374
24735W        W83996   6.700   9.781   1.737
24736W        W83997  30.565  41.984  12.468
24737W        W83998  11.822  15.110   2.755
24738W        W83999  22.635  37.903  12.963
24739W        W84000  18.746  25.704   0.957
24740W        W84001  27.942  14.271   5.250
24741W        W84002  44.305  34.051  12.380
24742W        W84003   2.404  27.520  10.906
24743W        W84004  30.570  36.059   1.270
24744W        W84005  30.965  17.712   0.759
24745W        W84006  36.478  27.683   4.297
24746W        W84007  14.322  28.944  13.031
24747W        W84008   7.769  41.513   5.125
24748W        W84009  41.500  34.556   0.304
24749W        W84010  37.488  14.736   0.746
24750W        W84011  39.926  12.737   1.864
24751W        W84012   3.217  35.557   2.746
24752W        W84013  12.188  40.352   3.296
24753W        W84014   7.888  20.065  14.014
24754W        W84015   9.339  20.211   1.848
24755W        W84016  32.504  21.656  14.827
24756W        W84017  15.252  40.527  13.061
24757W        W84018   1.908  20.654  10.634
24758W        W84019  20.600   2.374  14.406
24759W        W84020  44.784  34.460  14.462
24760W        W84021  17.683  44.894   0.929
24761W        W84022  15.601  31.563  13.024
24762W        W84023  26.677  37.895   3.216
24763W        W84024  15.720  19.051  14.424
24764W        W84025   3.419  11.358   3.702
24765W        W84026  23.136  24.158   3.242
24766W        W84027  18.611  16.591   3.642
24767W        W84028  41.499  37.066  10.964
24768W        W84029  40.457  11.692   2.766
24769W        W84030  39.998  25.700  14.494
24770W        W84031   5.404  36.347   3.263
24771W        W84032   5.340  33.523  14.921
24772W        W84033  40.050  35.530   2.790
24773W        W84034  25.675  20.717  11.095
24774W        W84035  33.563  39.973  10.120
24775W        W84036  29.523  40.004   0.401
24776W        W84037  24.543  10.710   3.752
24777W        W84038  28.964  25.193   2.359
24778W        W84039  24.080  41.404  13.806
24779W        W84040  35.506  26.569   4.837
24780W        W84041  26.954  17.172  11.910
24781W        W84042  14.327  23.634  12.061
24782W        W84043   5.932   9.725  14.349
24783W        W84044  33.884  44.296   3.147
24784W        W84045   1.808  42.371   1.854
24785W        W84046  30.591  37.547   3.278
24786W        W84047  40.540  26.040  13.400
24787W        W84048   9.784   4.440   1.425
24788W        W84049   6.854  13.127   2.262
24789W        W84050  32.956  27.129  13.492
24790W        W84051  43.847  34.099   1.798
24791W        W84052   7.865  19.708   2.195
24792W        W84053  40.532   2.796   3.661
24793W        W84054  26.693  11.639  13.421
24794W        W84055  24.227   8.203  11.518
24795W        W84056   2.869  38.400  12.841
24796W        W84057  27.503   4.263  10.971
24797W        W84058   2.276  39.983  14.815
24798W        W84059   4.212  18.176  14.769
24799W        W84060  39.314   5.911  11.039
24800W        W84061  23.622  32.486  11.571
24801W        W84062  43.780  22.521   1.383
24802W        W84063  27.648  10.754   4.130
24803W        W84064  15.662   8.693   0.257
24804W        W84065  32.626  17.187  11.403
24805W        W84066  30.997  14.213  14.880
24806W        W84067  43.840  30.954  14.511
24807W        W84068  28.602  42.521   2.249
24808W        W84069  39.549  21.701  12.539
24809W        W84070  14.638  39.417  10.962
24810W        W84071  43.960  21.053  10.031
24811W        W84072  36.047  42.334   2.317
24812W        W84073  26.666  14.305   3.682
24813W        W84074  20.735   5.302   1.742
24814W        W84075  39.055  33.115  11.383
24815W        W84076  29.498   8.818   0.337
24816W        W84077  42.430  29.983   1.328
24817W        W84078  32.979  20.152  14.798
24818W        W84079  31.497   4.444   3.198
24819W        W84080  16.079   6.800  14.952
24820W        W84081  19.568  40.513   1.445
24821W        W84082   2.250  18.244  13.505
24822W        W84083  17.712  14.160  11.931
24823W        W84084   8.743  19.729  12.532
24824W        W84085   9.262  38.067   2.402
24825W        W84086  39.558  11.304  10.477
24826W        W84087  10.375  10.804  10.569
24827W        W84088  35.958  14.225   2.823
24828W        W84089  44.471   8.215   2.866
24829W        W84090  25.663   2.226  13.937
24830W        W84091  35.052  12.269  13.020
24831W        W84092  17.709  19.118   1.271
24832W        W84093  36.950   7.174  11.522
24833W        W84094   9.777  30.065  14.321
24834W        W84095  22.581  15.730  14.467
24835W        W84096  18.623  40.544   3.331
24836W        W84097   4.786  42.827  11.910
24837W        W84098  13.181  35.421   4.601
24838W        W84099  32.118  30.420   0.361
24839W        W84100  14.248  11.295   0.735
24840W        W84101  37.855   8.706   0.256
24841W        W84102  14.168  34.375   3.859
24842W        W84103  43.821  29.640  13.449
24843W        W84104   7.327  14.148   5.320
24844W        W84105   5.426  23.135  11.102
24845W        W84106  26.108  32.575   2.178
24846W        W84107   9.337  36.505  13.547
24847W        W84108  34.025  18.096   4.194
24848W        W84109   0.430  12.835   0.949
24849W        W84110   0.369  29.076   1.340
24850W        W84111  18.067  38.012  13.415
24851W        W84112  12.197   3.819   1.785
24852W        W84113   7.853   1.389  13.505
24853W        W84114   8.364   1.896  10.956
24854W        W84115  10.662  27.166   4.315
24855W        W84116  19.712   5.805   2.737
24856W        W84117  31.115  18.768  12.056
24857W        W84118  11.737  17.793   4.291
24858W        W84119  35.992   5.353   3.753
24859W        W84120  36.939  20.685  11.395
24860W        W84121  44.477  34.920  13.513
24861W        W84122  43.860  43.965   2.699
24862W        W84123  11.175  12.190  14.408
24863W        W84124  44.405  37.062  10.919
24864W        W84125   8.278   4.279  12.520
24865W        W84126  35.944  11.136  12.421
24866W        W84127  12.206   3.747  13.826
24867W        W84128  22.596  32.619  13.489
24868W        W84129  13.690  14.242  14.516
24869W        W84130  23.658  19.559   1.303
24870W        W84131  27.970   0.384  10.639
24871W        W84132   4.876   1.850  10.424
24872W        W84133   5.425  33.001   4.316
24873W        W84134  13.614  36.353  10.602
24874W        W84135  17.216  22.203   2.871
24875W        W84136  14.804   9.874  10.975
24876W        W84137  33.993  35.470  11.575
24877W        W84138  24.005   5.772   3.214
24878W        W84139  38.964  33.898   0.452
24879W        W84140  20.064  27.122   1.809
24880W        W84141  33.508  36.433  14.366
24881W        W84142   8.825  12.729   3.839
24882W        W84143  43.815  17.620   0.850
24883W        W84144  34.606  19.709   1.267
24884W        W84145  29.172   2.966  13.932
24885W        W84146  34.980   9.889  10.015
24886W        W84147   5.884   1.345  13.807
24887W        W84148  23.221  29.144   1.787
24888W        W84149   5.867  40.925  13.440
24889W        W84150  17.160  16.737   3.778
24890W        W84151   6.373  14.732   1.701
24891W        W84152  13.635  30.416   3.376
24892W        W84153  24.701  36.530   2.266
24893W        W84154  27.975  43.312   2.835
24894W        W84155  38.358  42.928   3.660
24895W        W84156   9.666  30.989   2.892
24896W        W84157  22.538  36.064   4.156
24897W        W84158  13.279  25.501   2.810
24898W        W84159  18.182  23.100  12.830
24899W        W84160   1.736  27.012   4.677
24900W        W84161   2.262  38.550   3.684
24901W        W84162  41.857  19.745  14.888
24902W        W84163  23.588  18.268   0.906
24903W        W84164  36.433   5.417   0.351
24904W        W84165  44.392  19.561   3.633
24905W        W84166   7.731  44.386   0.914
24906W        W84167  24.663  27.546  10.156
24907W        W84168  24.646   4.368  12.414
24908W        W84169   4.308  19.774  13.031
24909W        W84170  35.854  18.763   2.678
24910W        W84171  14.312  43.368   1.734
24911W        W84172  35.476  20.174   1.732
24912W        W84173  28.018  12.359  13.499
24913W        W84174  12.633  21.162  12.560
24914W        W84175   2.287  35.366  10.888
24915W        W84176  28.511   3.342  12.015
24916W        W84177  35.512  22.159  14.453
24917W        W84178  28.034  19.222  14.764
24918W        W84179  35.555  12.139   0.369
24919W        W84180   7.335   4.309  11.473
24920W        W84181  25.688  24.509   2.326
24921W        W84182  23.598  24.503  11.908
24922W        W84183  24.122  27.676  13.541
24923W        W84184  34.012  18.746  13.407
24924W        W84185  32.139   0.416  13.866
24925W        W84186   5.331   1.271   0.742
24926W        W84187  13.638  33.997   0.854
24927W        W84188   1.798  16.252  11.014
24928W        W84189  18.702  19.758  11.082
24929W        W84190  10.262  22.588   5.258
24930W        W84191  36.509  44.485  12.554
24931W        W84192  14.105  37.933  11.571
24932W        W84193  43.507  29.052   1.879
24933W        W84194   5.880  40.519  14.424
24934W        W84195  34.488   8.229  13.390
24935W        W84196  14.589  42.413   1.730
24936W        W84197  43.767  38.881   1.856
24937W        W84198  35.406  41.003   1.395
24938W        W84199  26.994   6.862   1.420
24939W        W84200  17.709  19.706  12.997
24940W        W84201  41.957   1.297  11.460
24941W        W84202  40.303   3.837  13.980
24942W        W84203  38.445   7.870   0.829
24943W        W84204  27.681  23.662   2.279
24944W        W84205  19.109  10.805  12.937
24945W        W84206  29.515  41.453   3.742
24946W        W84207   6.922  41.493   0.883
24947W        W84208  23.065  17.680   0.259
24948W        W84209  17.183  32.505   0.819
24949W        W84210  26.471  24.091  13.806
24950W        W84211  16.598  34.516   4.658
24951W        W84212  34.896  18.204  13.495
24952W        W84213  25.574  28.935  12.432
24953W        W84214  27.635  18.740   1.272
24954W        W84215  17.179  34.521   4.769
24955W        W84216  24.605  36.354  14.471
24956W        W84217   1.399  32.616  10.636
24957W        W84218   0.383   0.765  14.507
24958W        W84219  40.009  21.164  11.060
24959W        W84220  43.916  10.829  14.860
24960W        W84221  41.364  12.703  13.916
24961W        W84222  42.910   3.863  10.620
24962W        W84223   2.735  38.505  14.432
24963W        W84224   0.424  15.237   2.360
24964W        W84225  15.326  30.149  13.383
24965W        W84226  38.495  29.647  11.556
24966W        W84227  40.816  34.556  11.913
24967W        W84228  14.780  33.598   4.774
24968W        W84229  26.634  21.227   2.373
24969W        W84230  22.170   9.248  10.980
24970W        W84231  23.998  37.336   4.745
24971W        W84232  13.680  29.545  11.537
24972W        W84233  14.299  14.833   1.863
24973W        W84234  10.647  12.296   4.631
24974W        W84235  20.713  17.219  14.444
24975W        W84236  14.632  12.156   4.756
24976W        W84237  33.434   4.819  10.445
24977W        W84238  37.012  40.951   9.473
24978W        W84239  44.434  43.007  14.930
24979W        W84240   4.217  18.263  10.419
24980W        W84241  19.192  18.187  11.474
24981W        W84242  15.742  22.506  13.847
24982W        W84243  16.574   7.905   0.423
24983W        W84244  28.486  24.974  14.337
24984W        W84245   8.307  15.284  10.090
24985W        W84246  22.120  14.761  14.812
24986W        W84247  32.021  24.016   2.849
24987W        W84248  41.470  12.790   4.114
24988W        W84249  14.101   3.260  12.569
24989W        W84250  38.924   9.219   3.704
24990W        W84251  43.925  33.447   0.760
24991W        W84252   3.879  27.165  14.482
24992W        W84253  38.338   5.833   1.425
24993W        W84254  32.453   4.826  13.915
24994W        W84255  27.512  12.774  13.869
24995W        W84256  27.945   5.753  13.875
24996W        W84257  12.740  39.476  13.831
24997W        W84258  40.038  42.918   1.317
24998W        W84259  22.542  33.880   1.708
24999W        W84260   8.785  32.608   3.368
25000W        W84261  14.763  44.430   1.842
25001W        W84262   3.214  40.382   1.417
25002W        W84263  10.684   8.369  12.349
25003W        W84264  43.832  23.670  11.399
25004W        W84265  34.594   7.839   0.437
25005W        W84266  11.664  41.517  14.974
25006W        W84267  22.699  10.749  13.412
25007W        W84268  42.485  28.108   0.931
25008W        W84269  16.628  33.029  13.454
25009W        W84270  19.081  35.034   2.419
25010W        W84271  38.430   7.381   1.695
25011W        W84272   1.276  30.053   2.831
25012W        W84273  16.123  10.687   1.312
25013W        W84274   8.283  27.646  12.570
25014W        W84275  28.628   0.289  13.816
25015W        W84276  29.078   2.276   4.787
25016W        W84277  20.539  19.234  13.351
25017W        W84278  37.483  27.634  12.387
25018W        W84279  15.662  25.649  11.456
25019W        W84280  37.385  33.983   2.398
25020W        W84281  31.941  16.232  12.465
25021W        W84282  27.019  11.810  12.044
25022W        W84283  30.918  12.148   3.161
25023W        W84284  40.537  38.454   1.917
25024W        W84285  25.525  20.058  11.946
25025W        W84286  12.133  14.136  14.279
25026W        W84287   2.902  25.665  10.578
25027W        W84288  27.978  30.656  12.870
25028W        W84289   8.730  21.526  13.984
25029W        W84290  20.659  37.499   0.764
25030W        W84291  25.599  39.033  12.418
25031W        W84292   9.846  35.907  14.828
25032W        W84293  30.949  12.766   1.349
25033W        W84294   1.866  11.323   0.920
25034W        W84295  15.209   1.348  12.468
25035W        W84296  42.839  12.338  10.420
25036W        W84297  41.465  34.994  14.772
25037W        W84298  36.520  10.174  13.543
25038W        W84299  31.910  12.328   3.228
25039W        W84300  12.142  10.257   2.813
25040W        W84301  12.332  37.514   3.200
25041W        W84302  13.801  10.372   2.664
25042W        W84303  33.011  42.290   2.415
25043W        W84304  43.951  17.713  10.970
25044W        W84305  11.773  22.677   0.950
25045W        W84306   3.299  33.597  13.847
25046W        W84307  26.508  31.962   1.444
25047W        W84308  38.973  34.871  10.094
25048W        W84309  18.060  36.562  13.888
25049W        W84310   4.869  24.218  10.507
25050W        W84311  17.605  20.641   3.285
25051W        W84312   7.848  19.690  12.525
25052W        W84313  24.512  21.532   2.215
25053W        W84314  32.395  23.531   0.363
25054W        W84315   5.765  35.445  14.924
25055W        W84316  22.625  16.079  13.496
25056W        W84317  11.272  43.871   0.459
25057W        W84318  20.045  14.605  11.865
25058W        W84319  26.565  18.615   1.337
25059W        W84320  11.744  24.005   3.699
25060W        W84321   3.882  24.543   4.225
25061W        W84322   8.201   4.252  11.871
25062W        W84323  28.543  40.330   3.168
25063W        W84324  39.439  33.913   0.401
25064W        W84325  33.550  21.135  11.518
25065W        W84326  44.405  39.534  14.795
25066W        W84327  14.696  17.178  13.005
25067W        W84328  19.139  41.396  12.478
25068W        W84329  38.556  31.101   2.342
25069W        W84330  41.461  31.085   4.337
25070W        W84331  36.855  13.142  11.465
25071W        W84332   3.435  39.402   4.801
25072W        W84333  10.729  20.675   4.223
25073W        W84334  14.100  11.185  10.051
25074W        W84335  28.027  20.619  14.462
25075W        W84336  22.252  21.164  12.480
25076W        W84337  22.616  32.537  14.340
25077W        W84338  32.888  20.647  10.489
25078W        W84339   1.839  25.474   2.755
25079W        W84340  40.005  23.550  14.762
25080W        W84341  13.796  38.518  13.429
25081W        W84342  27.678  31.103   4.643
25082W        W84343  34.547  24.038   2.747
25083W        W84344   8.166   1.288   3.332
25084W        W84345  36.576  40.809  14.865
25085W        W84346   3.433  25.097  14.493
25086W        W84347  22.558  21.188  11.942
25087W        W84348  25.478  34.564  11.439
25088W        W84349  29.950  29.592  11.397
25089W        W84350   0.834  33.955   0.401
25090W        W84351   5.741  35.015   3.217
25091W        W84352  30.023  33.985   3.282
25092W        W84353  11.349   1.415  12.844
25093W        W84354  21.168  17.194   3.781
25094W        W84355  15.092  24.052   0.867
25095W        W84356  12.752  34.503  10.453
25096W        W84357  24.117  26.588  12.366
25097W        W84358  11.285  28.964   0.337
25098W        W84359  10.855  19.219   1.402
25099W        W84360  24.078   7.772  13.912
25100W        W84361  21.601   1.437  13.928
25101W        W84362  41.438  25.596   2.766
25102W        W84363  15.103  39.412   1.892
25103W        W84364  36.377   1.972   4.788
25104W        W84365  20.048  28.109   1.434
25105W        W84366  18.138  11.232  14.788
25106W        W84367  11.210  25.698   0.305
25107W        W84368   6.699   5.756   1.443
25108W        W84369  21.617  10.646  12.939
25109W        W84370  25.205  10.318  12.564
25110W        W84371  35.863  12.150  11.502
25111W        W84372  33.554  21.629  12.506
25112W        W84373  12.815  16.633   0.741
25113W        W84374   0.853  37.883   1.330
25114W        W84375  10.272  40.038   5.109
25115W        W84376  40.018  34.879   0.880
25116W        W84377  30.952  19.544  10.950
25117W        W84378  33.047  31.425   1.314
25118W        W84379  38.860  15.699  14.347
25119W        W84380  22.584   6.777  12.480
25120W        W84381  24.986  36.976   4.651
25121W        W84382  12.237   4.426   2.371
25122W        W84383  36.997  34.579   3.808
25123W        W84384  26.575   4.382   1.854
25124W        W84385  11.688  25.079  12.096
25125W        W84386  29.653  11.864   4.657
25126W        W84387  19.063   2.947   3.804
25127W        W84388  34.918   8.799  11.589
25128W        W84389  36.041  33.443   1.858
25129W        W84390  24.078  32.140   3.234
25130W        W84391  13.241  10.699  13.991
25131W        W84392  21.754  38.371  14.506
25132W        W84393   2.420  19.073   1.843
25133W        W84394  27.583   9.329   4.168
25134W        W84395   6.322  10.186   4.199
25135W        W84396  24.087  14.638  12.537
25136W        W84397   5.196  37.997  13.458
25137W        W84398  10.863   3.243  12.488
25138W        W84399   8.655   8.225   4.274
25139W        W84400   2.451  10.273   2.390
25140W        W84401  11.281  17.622   3.671
25141W        W84402   9.256  35.018  13.320
25142W        W84403  35.936  35.065  11.528
25143W        W84404   3.943  24.712   3.752
25144W        W84405  39.558  10.368   1.273
25145W        W84406   6.388   5.343   1.440
25146W        W84407   0.787  14.600  12.898
25147W        W84408  41.428  16.629   3.166
25148W        W84409  40.541   3.384  10.136
25149W        W84410   0.417  26.986  11.589
25150W        W84411  38.350  36.437  13.451
25151W        W84412   8.296  41.350   2.363
25152W        W84413  31.043  33.509   4.827
25153W        W84414  16.251  20.245  13.875
25154W        W84415  15.167  14.704  10.598
25155W        W84416   7.236   0.439  14.295
25156W        W84417  11.196  12.711  13.321
25157W        W84418  43.325   3.733   2.880
25158W        W84419  11.736  43.304   4.808
25159W        W84420   0.833  13.350  13.909
25160W        W84421   4.903  44.972  11.949
25161W        W84422  41.957  36.529  14.479
25162W        W84423  26.976   0.814  14.469
25163W        W84424  41.978  15.767   2.304
25164W        W84425  40.449  33.100  14.029
25165W        W84426  14.208  29.989  14.026
25166W        W84427  36.004   4.259   3.715
25167W        W84428  15.086  41.463  12.489
25168W        W84429   6.208  21.638   0.837
25169W        W84430  27.954  40.962  12.529
25170W        W84431  13.671  18.113   2.396
25171W        W84432  11.782  30.909  14.030
25172W        W84433  40.812  23.240  14.008
25173W        W84434  27.633   6.186  11.902
25174W        W84435  14.741  29.426  11.603
25175W        W84436   1.954  20.056  13.937
25176W        W84437  38.347  15.622   4.816
25177W        W84438   7.180  26.508  11.534
25178W        W84439  37.553  16.086   4.706
25179W        W84440  28.599  23.581   0.880
25180W        W84441   3.720  38.487   3.193
25181W        W84442  12.342   6.735   1.753
25182W        W84443   8.269   7.749   4.798
25183W        W84444  37.026  38.364  14.022
25184W        W84445  19.154  44.344  10.593
25185W        W84446  28.441  19.597  10.442
25186W        W84447  42.794  13.782  11.105
25187W        W84448  40.021  18.576  14.382
25188W        W84449  35.098  41.917  13.970
25189W        W84450  20.177  29.114  14.506
25190W        W84451  36.876   3.452   0.328
25191W        W84452  17.751  32.509   5.221
25192W        W84453  37.462  19.251   4.751
25193W        W84454  33.388  43.982  12.034
25194W        W84455  43.360  24.691   2.681
25195W        W84456  11.218   1.811  12.519
25196W        W84457  13.267  38.067   0.339
25197W        W84458  22.152  41.008  13.366
25198W        W84459  19.718  31.997   1.258
25199W        W84460  12.353  37.887   1.347
25200W        W84461  39.383  23.102  11.411
25201W        W84462  22.037   9.840  11.079
25202W        W84463  43.956  26.099  14.766
25203W        W84464  31.546  22.051  11.900
25204W        W84465  22.708  38.467  14.896
25205W        W84466  23.999  24.571  11.039
25206W        W84467  20.052  44.321   3.166
25207W        W84468  44.432  39.379   4.320
25208W        W84469  14.635  36.365   2.745
25209W        W84470  43.343   2.372  14.473
25210W        W84471  40.819  35.543  10.109
25211W        W84472   4.798  25.032  13.521
25212W        W84473  33.025  25.517   1.374
25213W        W84474  34.877  43.003   1.913
25214W        W84475  16.285  27.095  10.060
25215W        W84476   6.256   6.394   3.699
25216W        W84477  20.722  19.048   4.736
25217W        W84478  31.643   4.859  10.535
25218W        W84479  16.673  28.982   2.791
25219W        W84480  41.025  17.231  12.452
25220W        W84481  30.980  36.042  11.031
25221W        W84482  21.127  34.585   2.311
25222W        W84483  35.044  32.049  12.556
25223W        W84484   8.869  30.514  14.791
25224W        W84485  23.553   4.779   1.890
25225W        W84486  22.504   7.216   3.289
25226W        W84487  22.200   7.867   1.798
25227W        W84488  40.500  41.869  12.089
25228W        W84489  33.553  16.271   2.716
25229W        W84490  15.685  44.466  12.473
25230W        W84491  38.951  26.652  10.038
25231W        W84492   9.679  35.883   3.717
25232W        W84493  43.818  21.178   2.178
25233W        W84494  18.126  43.959   0.311
25234W        W84495  43.503  38.326   1.747
25235W        W84496  13.133  23.208   2.667
25236W        W84497  42.932  10.274  12.998
25237W        W84498   7.860  37.992   1.295
25238W        W84499  12.265  12.616  12.514
25239W        W84500   7.836   3.281   4.785
25240W        W84501  12.286  32.577  11.062
25241W        W84502  43.992   9.675  13.061
25242W        W84503   8.401  31.502   3.700
25243W        W84504   4.812  26.075   2.220
25244W        W84505  17.293  41.014  14.429
25245W        W84506   4.700  12.252  10.979
25246W        W84507  34.036  12.672   5.738
25247W        W84508   7.222  31.575   2.815
25248W        W84509  16.702  39.477  11.905
25249W        W84510  14.151  29.555   1.714
25250W        W84511   2.760  38.009   2.896
25251W        W84512  22.582  26.618   0.881
25252W        W84513  20.190   4.205   1.910
25253W        W84514   6.735  27.079  13.970
25254W        W84515  13.842  39.974   3.382
25255W        W84516  16.788   2.229  10.496
25256W        W84517  13.702  12.162   1.800
25257W        W84518  31.966  38.345  13.454
25258W        W84519  38.364  22.725   4.309
25259W        W84520  39.343   1.367   0.281
25260W        W84521  35.583   3.383  14.843
25261W        W84522  22.730  28.569   2.816
25262W        W84523  39.002  34.056   4.178
25263W        W84524  41.016   0.900  13.802
25264W        W84525  42.029  22.738  12.995
25265W        W84526  21.569  19.714   2.328
25266W        W84527   4.735   6.823  14.450
25267W        W84528   9.217  23.027   0.375
25268W        W84529  38.355  23.592   3.773
25269W        W84530  39.316   5.852   4.659
25270W        W84531  19.708   1.481   2.342
25271W        W84532   6.840  26.970   3.370
25272W        W84533  37.908  17.628   3.254
25273W        W84534  28.971  22.679   2.271
25274W        W84535  25.552   8.360   1.704
25275W        W84536  29.068  34.020  14.429
25276W        W84537  12.842   3.737   1.429
25277W        W84538   8.389  30.005  10.446
25278W        W84539   7.807  42.009  13.863
25279W        W84540  34.525  18.766  13.401
25280W        W84541   2.467  35.432   1.844
25281W        W84542  19.740  11.812   1.709
25282W        W84543  13.706  13.817   2.260
25283W        W84544  19.762  23.596  13.450
25284W        W84545  37.936   3.242  10.577
25285W        W84546   3.371  14.752   0.303
25286W        W84547  29.616  31.032   3.323
25287W        W84548   2.778  16.262  12.956
25288W        W84549   0.770  39.980   3.757
25289W        W84550   5.295  34.475   2.699
25290W        W84551  21.177  32.920   9.988
25291W        W84552  43.825  31.009   4.788
25292W        W84553  15.141  43.509  14.886
25293W        W84554  19.108  11.195  11.970
25294W        W84555  28.505  37.048   0.795
25295W        W84556  12.686  31.991   0.816
25296W        W84557  16.572  22.607   3.820
25297W        W84558  26.671  26.683  10.996
25298W        W84559  30.062   7.795  14.403
25299W        W84560  26.581  35.601   4.716
25300W        W84561  36.589  40.938   1.443
25301W        W84562  34.405  39.424   2.896
25302W        W84563  26.678  44.932   4.832
25303W        W84564  24.189  24.154  11.867
25304W        W84565  29.601  39.050   3.693
25305W        W84566   2.345  42.367   4.250
25306W        W84567  23.149  35.077  11.595
25307W        W84568  29.640  14.734  11.376
25308W        W84569  12.305  32.031   3.719
25309W        W84570  18.151   6.410  12.484
25310W        W84571  26.642  37.855  12.935
25311W        W84572  39.978  17.117   2.277
25312W        W84573   0.851  21.129   4.619
25313W        W84574  17.246  18.654   0.888
25314W        W84575  36.031  12.742   4.165
25315W        W84576  42.922  33.049   3.866
25316W        W84577   4.912   0.489  14.305
25317W        W84578  33.016   8.893  10.980
25318W        W84579   2.886  27.028   2.662
25319W        W84580  41.002  42.312  14.896
25320W        W84581  39.978  31.433   0.746
25321W        W84582   2.741  33.575  12.085
25322W        W84583  36.949  39.051   2.778
25323W        W84584  32.555   4.794  11.857
25324W        W84585  40.005  11.742   3.712
25325W        W84586  37.504  22.177   0.314
25326W        W84587   6.765  27.185  12.894
25327W        W84588  13.252  42.490   3.854
25328W        W84589  31.042   5.301  12.857
25329W        W84590  41.977  28.558   1.854
25330W        W84591  24.160   3.271  12.911
25331W        W84592  14.624  40.512   3.202
25332W        W84593  16.711  28.983   0.420
25333W        W84594   8.658  35.499  11.482
25334W        W84595  12.813  27.483  10.159
25335W        W84596  19.101   0.297  10.431
25336W        W84597   8.330   0.946   3.674
25337W        W84598  33.388  17.103   1.745
25338W        W84599  24.174   4.894  11.479
25339W        W84600  30.613  42.465  14.026
25340W        W84601  44.309  26.659  14.336
25341W        W84602  10.830   0.947  14.388
25342W        W84603  25.605   3.433  14.343
25343W        W84604  19.131  31.089  11.897
25344W        W84605  16.752  16.104   4.322
25345W        W84606  28.488  15.222  11.919
25346W        W84607  32.082  25.018   3.158
25347W        W84608   1.453  20.257  11.889
25348W        W84609   2.863  30.639  11.398
25349W        W84610  25.102  33.431  11.120
25350W        W84611  24.008  28.442   0.802
25351W        W84612  16.113  32.519   1.302
25352W        W84613  18.779  18.266  13.512
25353W        W84614   2.732  35.926  11.576
25354W        W84615  12.784   4.438  14.496
25355W        W84616  26.079  13.773   4.117
25356W        W84617  22.544  15.209   4.661
25357W        W84618  13.800  38.895  12.969
25358W        W84619  11.825   9.349  13.535
25359W        W84620  14.225  11.189  10.531
25360W        W84621  40.464   5.694  10.429
25361W        W84622  14.122  41.530   3.746
25362W        W84623   0.261  23.023   2.226
25363W        W84624   3.919  40.471   0.815
25364W        W84625  23.202  30.513   5.263
25365W        W84626  17.129  21.235   3.214
25366W        W84627  24.596  17.062   4.174
25367W        W84628  29.162  27.567  10.510
25368W        W84629  23.682   4.858   4.149
25369W        W84630  19.126   3.352  14.895
25370W        W84631   4.888  32.091   4.241
25371W        W84632  34.978  29.443   3.185
25372W        W84633  22.048  17.166  10.908
25373W        W84634  34.430   5.861   1.925
25374W        W84635  29.648  13.224  12.422
25375W        W84636  11.810  20.617   2.689
25376W        W84637  12.176  14.627   2.870
25377W        W84638   8.357  33.525  10.555
25378W        W84639  43.452  27.961   2.234
25379W        W84640  11.634  27.038   0.741
25380W        W84641  43.499   7.707  11.477
25381W        W84642   4.343  23.093   4.617
25382W        W84643  20.251  22.508  14.880
25383W        W84644   8.342  44.453   2.289
25384W        W84645  19.535   0.436  14.433
25385W        W84646  19.141   0.944  11.430
25386W        W84647   1.909  43.874   1.449
25387W        W84648   7.801  11.253  13.394
25388W        W84649   4.450   5.255  13.919
25389W        W84650  32.632  23.180   1.287
25390W        W84651  40.491  15.714  13.512
25391W        W84652   2.895  27.056  11.944
25392W        W84653  20.555  12.613  13.457
25393W        W84654  31.516  23.589  11.554
25394W        W84655  10.218  20.625   4.234
25395W        W84656  31.901  28.934  10.085
25396W        W84657  44.308  42.422   3.730
25397W        W84658   7.784  12.791  12.887
25398W        W84659   5.394  42.829  11.083
25399W        W84660  36.551  10.172  10.995
25400W        W84661  21.575  32.400  14.819
25401W        W84662  21.684  10.161   2.676
25402W        W84663  30.914   1.960  10.512
25403W        W84664  20.261   4.723   3.158
25404W        W84665  18.198  40.325  14.803
25405W        W84666  11.196  24.996   2.760
25406W        W84667  37.913  26.508   4.737
25407W        W84668   8.351  21.643   3.324
25408W        W84669  38.957  21.142  14.340
25409W        W84670   6.772   8.176  14.787
25410W        W84671   8.681  31.094   5.308
25411W        W84672   0.928  34.975  10.603
25412W        W84673  38.392   8.380  13.847
25413W        W84674  13.699   8.747  14.843
25414W        W84675  25.971  13.289   1.799
25415W        W84676  43.401   5.354  10.474
25416W        W84677   5.816  44.952   1.718
25417W        W84678  42.284  12.635  12.494
25418W        W84679  42.800  31.942  12.520
25419W        W84680  32.419  13.112  13.477
25420W        W84681  28.970  43.391  10.530
25421W        W84682   2.814  19.283  10.447
25422W        W84683  28.061  41.314  13.802
25423W        W84684  25.560   9.885   2.858
25424W        W84685  18.195  26.468   2.217
25425W        W84686   3.786  43.374  13.944
25426W        W84687  26.519  27.477   3.243
25427W        W84688  28.025  20.064  10.611
25428W        W84689  32.490  18.060   0.877
25429W        W84690  14.103   2.370  13.841
25430W        W84691  30.552  35.961  11.503
25431W        W84692  35.907  33.102  13.518
25432W        W84693  16.777  31.150  10.894
25433W        W84694  29.103   4.865   2.892
25434W        W84695  39.063  38.561  10.442
25435W        W84696  34.099   8.323  12.448
25436W        W84697  33.539  15.181   0.909
25437W        W84698   1.427  22.237   4.761
25438W        W84699  19.165  43.495  12.064
25439W        W84700  26.004   8.343  14.365
25440W        W84701  38.358  39.974   4.249
25441W        W84702  34.918  13.722  11.512
25442W        W84703  25.506  14.591  12.433
25443W        W84704  13.723   7.774   5.158
25444W        W84705  15.311  11.234  14.376
25445W        W84706  41.295  31.536   1.315
25446W        W84707  16.637  14.795   4.123
25447W        W84708   7.872  24.553   3.229
25448W        W84709   5.419  21.737   2.739
25449W        W84710  22.692   7.354   0.305
25450W        W84711  27.495  39.819   3.631
25451W        W84712  15.673  22.121  12.937
25452W        W84713  22.007  30.043   2.363
25453W        W84714   1.374  38.819  14.330
25454W        W84715  33.989  28.492   2.246
25455W        W84716  38.385   2.250   4.259
25456W        W84717   7.879  32.611   3.838
25457W        W84718  16.768  37.463   2.232
25458W        W84719   6.420  37.551  12.887
25459W        W84720  24.708  15.595  12.895
25460W        W84721  37.438  23.574  12.993
25461W        W84722  11.259  26.682  12.378
25462W        W84723   2.419   8.831  13.950
25463W        W84724  33.461  30.131   4.334
25464W        W84725  32.049  31.114   2.843
25465W        W84726  12.639  33.970  10.496
25466W        W84727  38.537   2.902   4.693
25467W        W84728   2.933  31.031   3.152
25468W        W84729  39.836  16.726  12.022
25469W        W84730  32.540  13.229   4.200
25470W        W84731  22.598  18.123  12.898
25471W        W84732  21.133  20.623   0.956
25472W        W84733  18.133  40.908  11.967
25473W        W84734   1.385  24.618  10.920
25474W        W84735   3.367  29.174   3.177
25475W        W84736   5.860   3.437   1.283
25476W        W84737   3.280  30.913   2.258
25477W        W84738  20.250  15.819   4.786
25478W        W84739  13.714  40.349  12.857
25479W        W84740  12.208  11.276   5.777
25480W        W84741   3.338  16.673   0.374
25481W        W84742  30.075  36.488   1.804
25482W        W84743  38.356  21.690   2.685
25483W        W84744  24.519  28.112  14.509
25484W        W84745  37.440  30.018   3.376
25485W        W84746  44.917   0.397   3.339
25486W        W84747  16.219  18.232   3.671
25487W        W84748  39.363  27.098   4.706
25488W        W84749   3.803  23.622   2.725
25489W        W84750   3.821  22.184  12.533
25490W        W84751  39.420   0.418  12.836
25491W        W84752  43.923  36.876   1.392
25492W        W84753   8.816  42.870   1.228
25493W        W84754  14.133  27.076  12.437
25494W        W84755  11.243  41.533   4.291
25495W        W84756  11.232  22.673   4.782
25496W        W84757   9.250  26.549  13.954
25497W        W84758  13.744  24.672  14.316
25498W        W84759  14.806  17.145  10.156
25499W        W84760  28.569  24.664   0.427
25500W        W84761  30.517  36.966  13.809
25501W        W84762   5.891  33.053  13.325
25502W        W84763  35.538  26.542  14.979
25503W        W84764   6.290   5.220   1.883
25504W        W84765  41.487   0.825   3.811
25505W        W84766  25.026  39.058  12.531
25506W        W84767  14.833  33.113   0.402
25507W        W84768  37.034  15.726   1.312
25508W        W84769  19.604  39.435  13.357
25509W        W84770  29.664  23.495  10.896
25510W        W84771  22.687   6.333  14.808
25511W        W84772   5.241  17.108   2.322
25512W        W84773  21.740  20.088  10.974
25513W        W84774  14.821   9.760  11.510
25514W        W84775   9.834  38.468  11.073
25515W        W84776  26.680  28.601  13.386
25516W        W84777  12.298  39.463   3.803
25517W        W84778  37.396  42.475  12.837
25518W        W84779   6.225  33.925  10.084
25519W        W84780   9.184  11.241  13.794
25520W        W84781  34.368   2.914   3.266
25521W        W84782  37.952  40.515   2.264
25522W        W84783   3.883  24.562  14.501
25523W        W84784  24.978   1.469   0.269
25524W        W84785  18.261  15.272  14.992
25525W        W84786  41.517   9.793   3.162
25526W        W84787  44.456  43.499   4.724
25527W        W84788  21.077  39.032  14.925
25528W        W84789  38.990  18.141   1.748
25529W        W84790   3.308  14.142  13.972
25530W        W84791  12.809  35.961  14.022
25531W        W84792   6.301  12.648   2.759
25532W        W84793  29.943  18.784  11.450
25533W        W84794  39.030   9.241   0.406
25534W        W84795  24.104  32.455  13.009
25535W        W84796   6.200  24.499   1.783
25536W        W84797  29.575  40.531   0.402
25537W        W84798  24.988   6.347  13.836
25538W        W84799  16.133  32.546   0.378
25539W        W84800  26.193  23.204   4.616
25540W        W84801   7.268  17.693   0.869
25541W        W84802  25.123  30.497  10.522
25542W        W84803   3.221  12.730   2.354
25543W        W84804  15.209   1.916  11.866
25544W        W84805   7.204   9.741  11.385
25545W        W84806  35.057  39.985   1.262
25546W        W84807  16.072  10.356   3.684
25547W        W84808  41.917  44.315  10.459
25548W        W84809   2.409   7.220  11.473
25549W        W84810  44.824   9.693   3.239
25550W        W84811  13.334  33.091  12.833
25551W        W84812  23.162  34.374   1.816
25552W        W84813   3.411  19.660   0.878
25553W        W84814  40.413   4.765  13.838
25554W        W84815  17.184  17.167  12.398
25555W        W84816   1.855   5.251  13.845
25556W        W84817  31.020  29.569   0.290
25557W        W84818  40.873  42.002  14.317
25558W        W84819  22.599  10.216   5.099
25559W        W84820  15.763  26.162  12.940
25560W        W84821  29.559  38.854   0.424
25561W        W84822   5.914  29.943  11.976
25562W        W84823  26.656  21.190  14.804
25563W        W84824  27.553  24.532  10.049
25564W        W84825  22.141  18.100   3.368
25565W        W84826  10.750  40.854  13.971
25566W        W84827  15.200  35.027  11.532
25567W        W84828  30.943  16.236   0.369
25568W        W84829  44.884   6.373   1.339
25569W        W84830   3.427  33.028  13.998
25570W        W84831  43.458  19.164  13.834
25571W        W84832  32.556  31.559  12.096
25572W        W84833   1.260   3.757   2.772
25573W        W84834   9.824   4.332  12.093
25574W        W84835  21.203  11.165   3.261
25575W        W84836  12.700  35.536  10.558
25576W        W84837   0.821   9.222   1.408
25577W        W84838  23.586  30.533  13.387
25578W        W84839  43.914  15.630  10.037
25579W        W84840  19.256  16.729  13.453
25580W        W84841  10.381  42.963  11.995
25581W        W84842  23.173   8.681  14.388
25582W        W84843  33.066  31.012   1.873
25583W        W84844  22.154  44.434   4.748
25584W        W84845   6.386   1.472   1.809
25585W        W84846  23.037   2.861  10.593
25586W        W84847  40.018  40.916  12.065
25587W        W84848   6.698  22.168  12.457
25588W        W84849  35.015  20.675   0.331
25589W        W84850  31.514  19.196  13.912
25590W        W84851  14.757  34.574   3.314
25591W        W84852  18.284   7.793  10.587
25592W        W84853  34.479  20.082  14.469
25593W        W84854  34.017  40.880   9.635
25594W        W84855  30.035  42.485   1.401
25595W        W84856  36.539  34.531   0.344
25596W        W84857  40.526  37.890  13.062
25597W        W84858  32.481   6.304  12.992
25598W        W84859  41.502  18.622  12.922
25599W        W84860  28.602  13.648   0.253
25600W        W84861  10.293  20.726   0.459
25601W        W84862  31.542   9.261   4.641
25602W        W84863   5.808   7.754  12.555
25603W        W84864  20.767  43.966   0.865
25604W        W84865  23.090  15.271  14.982
25605W        W84866  39.981  41.951   1.934
25606W        W84867  15.615  44.491   3.282
25607W        W84868  36.011  40.359  12.926
25608W        W84869  24.108  23.569  13.007
25609W        W84870  42.903  10.318  12.382
25610W        W84871  26.995  25.596  11.998
25611W        W84872  10.311  18.100  13.800
25612W        W84873  39.554  32.606  12.982
25613W        W84874  14.269   3.790  11.559
25614W        W84875  41.320   6.909   4.801
25615W        W84876  37.934   3.894  11.611
25616W        W84877  30.028  42.937   3.867
25617W        W84878  11.317  10.200  11.550
25618W        W84879  18.616   4.860   0.935
25619W        W84880  41.879   5.821   2.675
25620W        W84881  37.380  33.057   4.176
25621W        W84882  33.964   7.749   1.771
25622W        W84883  15.809  37.340   0.748
25623W        W84884  20.173   9.317   4.736
25624W        W84885  22.618  27.034  12.878
25625W        W84886  28.656  44.375  12.354
25626W        W84887   1.914  28.152  11.954
25627W        W84888  31.098  38.395  14.295
25628W        W84889  33.941  42.362   0.315
25629W        W84890  34.005  42.336   0.757
25630W        W84891  10.269  13.727   0.812
25631W        W84892   1.337  34.928   2.830
25632W        W84893  38.984  36.081   2.363
25633W        W84894   4.306  44.291  11.406
25634W        W84895  29.548  42.869  10.484
25635W        W84896  42.847   6.749   4.726
25636W        W84897  17.120  44.396  14.003
25637W        W84898  20.595  14.630   0.298
25638W        W84899  34.527  22.121  14.997
25639W        W84900  35.373   9.729   9.664
25640W        W84901   2.724  26.662   1.387
25641W        W84902  34.523  22.025   4.180
25642W        W84903  42.451  14.130   2.697
25643W        W84904  20.099   9.304  14.813
25644W        W84905  17.202   4.772  11.612
25645W        W84906   8.854   3.924   2.847
25646W        W84907  26.149  42.790  13.402
25647W        W84908  32.920  26.702   3.164
25648W        W84909  27.015   8.855   0.304
25649W        W84910  32.511  31.032   1.295
25650W        W84911   1.424  25.538   0.823
25651W        W84912   3.745   9.311   3.745
25652W        W84913  32.006  28.443   1.395
25653W        W84914  27.546  31.412   2.776
25654W        W84915  36.488  24.084   4.293
25655W        W84916  36.351  17.661  14.305
25656W        W84917  18.555  44.372   1.337
25657W        W84918  31.138  25.665  10.619
25658W        W84919  25.489  18.262  10.460
25659W        W84920  40.352   6.406  12.999
25660W        W84921  10.140  13.258   0.312
25661W        W84922  11.268  19.595  10.438
25662W        W84923   1.930  17.217  12.078
25663W        W84924   0.353  20.583   3.366
25664W        W84925  37.468  42.421   9.581
25665W        W84926  31.008   5.838  13.060
25666W        W84927  20.530  29.070  10.430
25667W        W84928  15.616   8.887  11.879
25668W        W84929   1.753  33.467   3.657
25669W        W84930  25.701  28.574  13.433
25670W        W84931  19.132  30.152   2.419
25671W        W84932  31.131  37.018  11.585
25672W        W84933  11.629  39.025  10.616
25673W        W84934  23.239  17.283  10.541
25674W        W84935  33.069  36.498  12.445
25675W        W84936  29.145   5.195  12.358
25676W        W84937  28.514  11.831   1.267
25677W        W84938  17.113  36.500  11.058
25678W        W84939  28.506  40.993   4.335
25679W        W84940   1.807   0.351  10.461
25680W        W84941  43.461   0.793   1.744
25681W        W84942   8.710  28.674   2.899
25682W        W84943  43.430  11.686   4.121
25683W        W84944  15.198  22.551   2.724
25684W        W84945  23.241  20.745  12.447
25685W        W84946   6.390  37.512   1.707
25686W        W84947  10.694  25.555  12.894
25687W        W84948  36.434   8.164   0.751
25688W        W84949  38.903  11.648   1.829
25689W        W84950  37.008  38.980   2.183
25690W        W84951  39.988  16.807   3.318
25691W        W84952  44.362   1.314  12.488
25692W        W84953  26.047  10.746   4.822
25693W        W84954  31.406   9.816  13.514
25694W        W84955  41.930  33.006  14.786
25695W        W84956   8.824  31.951   0.260
25696W        W84957  15.728  38.970   1.445
25697W        W84958  21.576  32.019   0.465
25698W        W84959   9.305  44.859  11.026
25699W        W84960  33.031   4.838   0.383
25700W        W84961  39.935  32.435  14.436
25701W        W84962  23.670   1.934  13.859
25702W        W84963  27.663  12.626   3.869
25703W        W84964  11.295  28.141   3.231
25704W        W84965  23.511  34.052  11.999
25705W        W84966  35.028   4.212   4.802
25706W        W84967  37.023  33.038   1.309
25707W        W84968  30.434  24.587   0.877
25708W        W84969  41.006  12.351  10.888
25709W        W84970  21.674  20.598   9.664
25710W        W84971   2.395  40.336  12.074
25711W        W84972  26.685  19.555   4.826
25712W        W84973   1.249  36.929   3.762
25713W        W84974  21.137  17.239  14.796
25714W        W84975  11.321  16.080  11.025
25715W        W84976  11.646  33.513   3.739
25716W        W84977  33.583  37.058   1.695
25717W        W84978   4.700  19.541  12.476
25718W        W84979  11.303  22.066  13.964
25719W        W84980   3.798  20.077   3.738
25720W        W84981  27.013  31.477   4.707
25721W        W84982  38.325  34.516   1.247
25722W        W84983  35.956   6.277  12.073
25723W        W84984   7.906  11.798   1.724
25724W        W84985  25.552  15.173  13.953
25725W        W84986   9.784  14.213  12.408
25726W        W84987  26.657  39.878  12.486
25727W        W84988  23.609  26.544   3.268
25728W        W84989  43.012   7.253   1.902
25729W        W84990  28.571   5.687  14.998
25730W        W84991  33.067   4.289  12.935
25731W        W84992   9.666  24.189   0.761
25732W        W84993  28.134   4.310  12.394
25733W        W84994  24.612  32.595   4.705
25734W        W84995  39.425  32.061   9.468
25735W        W84996  24.048  27.602   2.258
25736W        W84997  28.023   6.192   2.419
25737W        W84998  39.979  21.097   4.804
25738W        W84999  40.934   6.758  11.396
25739W        W85000  11.290   0.907   3.197
25740W        W85001   5.839  19.636  13.478
25741W        W85002  43.979   3.897  12.555
25742W        W85003   8.703  30.476  10.639
25743W        W85004  29.012   9.340  13.060
25744W        W85005   9.824   5.246   0.847
25745W        W85006  36.442  11.625  11.434
25746W        W85007   7.722  11.307   1.824
25747W        W85008   7.274  26.605  14.434
25748W        W85009  34.524   4.255   3.807
25749W        W85010   5.225  28.112   2.206
25750W        W85011  12.837  40.922   1.924
25751W        W85012  25.639  31.459  10.509
25752W        W85013  12.693  37.577   4.200
25753W        W85014  34.533  42.432  12.502
25754W        W85015  33.007  27.017   3.340
25755W        W85016   5.813  43.783   0.450
25756W        W85017  26.657  21.217  13.386
25757W        W85018  44.989  39.560  11.576
25758W        W85019   0.958  14.244  10.941
25759W        W85020   6.307  41.498   2.874
25760W        W85021   2.256   2.949  14.489
25761W        W85022  29.143  40.025   0.307
25762W        W85023  26.150   1.903  14.312
25763W        W85024  42.294  15.244  14.407
25764W        W85025  40.442  42.827  13.041
25765W        W85026  35.527  34.500  13.926
25766W        W85027  35.580  29.974   0.923
25767W        W85028  15.159  28.147  13.380
25768W        W85029  27.600   5.822  10.481
25769W        W85030  15.646   7.334  14.822
25770W        W85031  32.897  29.579  11.880
25771W        W85032  16.109   3.411   1.382
25772W        W85033  23.003  35.079  14.925
25773W        W85034   2.277  14.152   2.730
25774W        W85035   6.791  29.980   0.315
25775W        W85036  14.255  16.080  13.049
25776W        W85037   2.765  19.773   0.858
25777W        W85038  39.415  37.505   3.370
25778W        W85039  21.621  25.624   2.279
25779W        W85040  12.196  31.031  12.400
25780W        W85041  43.767  39.002   3.667
25781W        W85042   8.893  21.140   3.811
25782W        W85043  26.956  21.112   0.730
25783W        W85044  23.502   7.323  13.902
25784W        W85045  23.573  19.272   4.131
25785W        W85046  32.974   4.712  10.568
25786W        W85047  31.083  31.613   4.720
25787W        W85048  34.576  30.093   1.842
25788W        W85049  38.328  12.750   2.382
25789W        W85050  38.825  39.451   1.284
25790W        W85051   1.796  42.977  12.044
25791W        W85052   8.275   9.330  13.968
25792W        W85053  15.723  30.083   4.689
25793W        W85054  39.002   4.922  12.374
25794W        W85055   1.327   3.842   3.708
25795W        W85056  10.284   2.750  11.981
25796W        W85057  11.629  37.387  12.390
25797W        W85058   6.910  38.511  10.554
25798W        W85059  30.508   9.285   1.719
25799W        W85060  40.803  24.685   1.270
25800W        W85061  23.109  24.181   9.508
25801W        W85062  26.637  30.616  14.486
25802W        W85063  41.514  35.037   2.844
25803W        W85064  19.536   4.291   2.749
25804W        W85065   2.319  26.657   4.209
25805W        W85066  19.157  29.139  13.047
25806W        W85067  32.494  15.305   1.918
25807W        W85068  26.951   8.238   2.832
25808W        W85069  41.476  43.893   4.207
25809W        W85070  24.136  11.736   9.989
25810W        W85071  29.054  22.686  14.471
25811W        W85072  43.270  25.673   1.830
25812W        W85073  18.290  14.154   0.781
25813W        W85074  36.408  21.633   2.237
25814W        W85075  31.422  37.543  13.546
25815W        W85076   2.450  23.180   1.712
25816W        W85077  29.978  32.887  14.979
25817W        W85078  20.630  30.608   4.784
25818W        W85079  19.605   8.371   2.216
25819W        W85080  14.691  16.584  14.448
25820W        W85081  25.006  14.215  10.506
25821W        W85082  31.932   6.260   1.801
25822W        W85083  23.218  18.244   4.134
25823W        W85084  20.029  14.331   9.995
25824W        W85085   3.356  26.209  12.579
25825W        W85086  20.075  24.084  12.515
25826W        W85087  23.703   5.909   0.897
25827W        W85088  20.524  33.611   3.671
25828W        W85089  35.400  25.469  14.856
25829W        W85090  40.429  37.993  13.951
25830W        W85091  35.103  24.699   0.348
25831W        W85092  10.185  37.523  14.880
25832W        W85093  11.799  17.639  10.905
25833W        W85094  41.302   8.406   2.776
25834W        W85095  25.503  33.996   4.161
25835W        W85096   0.984   2.838   0.290
25836W        W85097  31.960  43.972   1.736
25837W        W85098  17.072  41.004   2.411
25838W        W85099  10.158  35.022   1.768
25839W        W85100   9.753  25.572   1.244
25840W        W85101  34.615  10.321   3.318
25841W        W85102  40.971  31.972   2.274
25842W        W85103  17.625  38.062   0.351
25843W        W85104   2.830  31.117  14.420
25844W        W85105  23.492  12.640   2.372
25845W        W85106  40.054  32.599   2.292
25846W        W85107   7.902  12.781   3.235
25847W        W85108  19.715  25.618   4.624
25848W        W85109  32.886   9.735   1.916
25849W        W85110  19.616  16.248   1.818
25850W        W85111  28.979  40.317  14.860
25851W        W85112  12.335   9.260  11.953
25852W        W85113  20.196   2.934   4.240
25853W        W85114  12.731   6.777  13.827
25854W        W85115  22.217  24.038   4.301
25855W        W85116  10.232  22.622   3.306
25856W        W85117  44.985  21.198   4.186
25857W        W85118  23.106  20.676   1.935
25858W        W85119   5.411   1.924   3.659
25859W        W85120   6.758  10.365  11.878
25860W        W85121  12.631  14.803   4.750
25861W        W85122  43.938  35.017  14.832
25862W        W85123  26.153  38.519   0.901
25863W        W85124  12.139   1.936  12.940
25864W        W85125  13.619   3.421   0.297
25865W        W85126   3.359  17.101   4.679
25866W        W85127  21.601  19.629  11.491
25867W        W85128  30.639  35.536  10.971
25868W        W85129  20.218  20.535   0.799
25869W        W85130  30.021  11.738  11.408
25870W        W85131   0.820  34.545   0.461
25871W        W85132  20.767  42.994   4.245
25872W        W85133  37.017  16.731  10.442
25873W        W85134  22.076  15.690   0.962
25874W        W85135  43.790   4.702   2.691
25875W        W85136  23.235  23.201   3.157
25876W        W85137  37.473  26.540  13.907
25877W        W85138  18.713  15.166  13.015
25878W        W85139  30.006  43.271  13.987
25879W        W85140  12.164  15.629  10.892
25880W        W85141  42.295   6.830  14.449
25881W        W85142   5.420   5.865   3.656
25882W        W85143   5.868  16.183  11.957
25883W        W85144  19.083  33.111   3.337
25884W        W85145  27.657  42.851  14.938
25885W        W85146  35.487  28.513  12.554
25886W        W85147   4.252  22.153   3.234
25887W        W85148  14.790  37.481  12.962
25888W        W85149  28.140  44.465   1.841
25889W        W85150  29.511   7.889   0.874
25890W        W85151  37.464  14.795   0.389
25891W        W85152  23.147  32.906   2.867
25892W        W85153  25.181  10.846   3.361
25893W        W85154  44.466  37.927   3.794
25894W        W85155  31.915  42.972   1.341
25895W        W85156  11.175  11.234   0.258
25896W        W85157  28.930   3.725   3.756
25897W        W85158  38.544  24.613   0.853
25898W        W85159   2.809  19.728   1.241
25899W        W85160  34.920  15.127  13.985
25900W        W85161   6.699  33.080   0.758
25901W        W85162   4.390   9.226  14.974
25902W        W85163  34.383  12.806   0.276
25903W        W85164   2.782  24.018   4.624
25904W        W85165  24.082  13.791   1.737
25905W        W85166  18.108  29.084   1.280
25906W        W85167  33.591  16.779   0.281
25907W        W85168  11.843  18.710   3.272
25908W        W85169  11.787  41.398   5.194
25909W        W85170  33.008  34.033   3.697
25910W        W85171   9.327  44.945  14.786
25911W        W85172  11.748  24.500  14.973
25912W        W85173  15.086   9.694  11.911
25913W        W85174  14.725  26.648  11.446
25914W        W85175  44.440  40.007   3.821
25915W        W85176  22.067  34.397  13.395
25916W        W85177  19.763   0.419  14.982
25917W        W85178  32.454  13.268  13.913
25918W        W85179  35.906  42.464   0.777
25919W        W85180  15.192  29.151   1.739
25920W        W85181  37.988  20.174  10.596
25921W        W85182  44.427  18.687   2.229
25922W        W85183  17.769  17.161  14.895
25923W        W85184  19.586   1.934  13.413
25924W        W85185  40.427   9.877   3.845
25925W        W85186  24.596  31.071   0.304
25926W        W85187  34.937   3.413  14.012
25927W        W85188   7.675   7.675   4.127
25928W        W85189  29.520  34.607  14.895
25929W        W85190  27.975  27.454  10.966
25930W        W85191   0.476  42.280  12.343
25931W        W85192  11.669  14.708  14.007
25932W        W85193   7.417  33.110  10.542
25933W        W85194   2.790   0.843  13.466
25934W        W85195   1.818   9.704  12.351
25935W        W85196   4.340   0.250  14.275
25936W        W85197  29.156  11.202   9.584
25937W        W85198  14.687  27.527  11.504
25938W        W85199  30.943  18.186   1.905
25939W        W85200   3.420  21.751  14.008
25940W        W85201  40.504  38.453   9.987
25941W        W85202  17.580  11.629  10.558
25942W        W85203  38.932  24.157  12.496
25943W        W85204  27.632   7.793   1.935
25944W        W85205  33.902  27.107  11.500
25945W        W85206  16.645  24.665   4.308
25946W        W85207   3.876  34.409   1.834
25947W        W85208   6.904  10.788   9.453
25948W        W85209  31.435  13.220  10.621
25949W        W85210  36.046  42.907  14.416
25950W        W85211  34.903   8.273  14.299
25951W        W85212  39.344  40.000   1.737
25952W        W85213  36.075   6.842  14.979
25953W        W85214  28.018  26.193  10.542
25954W        W85215  12.216  16.758   3.815
25955W        W85216   3.796  27.188   3.674
25956W        W85217  39.452   0.822  10.638
25957W        W85218  30.021  37.071   2.301
25958W        W85219  31.491   5.196  13.327
25959W        W85220  12.789  20.067  12.355
25960W        W85221  39.861  40.918  14.462
25961W        W85222  37.519  33.600   4.127
25962W        W85223  14.135   0.336  11.923
25963W        W85224  10.748  34.094  10.953
25964W        W85225  10.176   0.275   2.208
25965W        W85226  29.547   6.703  13.973
25966W        W85227  24.059   1.376   3.185
25967W        W85228  31.618  31.560   5.591
25968W        W85229  24.522   9.155   2.682
25969W        W85230  26.632  35.499  10.459
25970W        W85231   3.931  10.249   1.337
25971W        W85232   7.877   0.870  13.832
25972W        W85233  30.118  18.609  11.925
25973W        W85234  21.586  25.056  12.449
25974W        W85235  16.284  34.511  13.457
25975W        W85236   8.741  20.584  12.454
25976W        W85237  40.401  29.076   0.741
25977W        W85238  41.787  33.002   4.180
25978W        W85239  29.029  12.684  10.444
25979W        W85240  14.106   9.283  13.804
25980W        W85241  26.111  28.153   4.124
25981W        W85242   7.285   6.828   0.760
25982W        W85243  44.763  39.388  12.043
25983W        W85244   3.245   1.756   0.809
25984W        W85245  10.297  31.111  14.941
25985W        W85246   4.938  36.855  13.985
25986W        W85247  33.981  16.601  13.446
25987W        W85248  23.611  16.811  14.916
25988W        W85249  11.667  42.518   4.206
25989W        W85250  21.019  22.622   1.276
25990W        W85251   1.947  42.020   0.866
25991W        W85252  37.457  28.649  11.007
25992W        W85253   9.819  30.007   2.837
25993W        W85254  32.633  41.328   1.427
25994W        W85255  36.419  10.377  13.966
25995W        W85256   1.388  33.597   0.400
25996W        W85257  16.671  22.740  13.512
25997W        W85258  24.146  28.954   1.226
25998W        W85259  39.421  15.194  11.378
25999W        W85260  14.648  28.108   1.402
26000W        W85261  41.004  13.616  10.489
26001W        W85262  25.179  21.263  14.921
26002W        W85263  35.480  24.988   2.870
26003W        W85264  23.601  21.240  13.378
26004W        W85265   1.867  37.528   0.924
26005W        W85266  13.254  34.487  12.555
26006W        W85267   3.363   7.403  12.836
26007W        W85268  18.730  31.542  13.529
26008W        W85269  25.512   1.811  11.467
26009W        W85270  13.134  25.616  11.407
26010W        W85271   3.452  39.917   4.714
26011W        W85272  10.182  13.764  13.991
26012W        W85273  11.825  21.714   4.760
26013W        W85274   5.801  11.183   3.661
26014W        W85275  33.086  18.702  14.331
26015W        W85276  27.118   7.762   1.850
26016W        W85277  23.687  18.684   4.735
26017W        W85278  10.713   0.818   3.214
26018W        W85279  32.610  14.156   0.930
26019W        W85280  25.616   7.387   0.895
26020W        W85281  19.621  42.340   1.856
26021W        W85282  44.772   2.880   3.309
26022W        W85283  18.249   6.234   1.798
26023W        W85284  36.925  17.258   3.354
26024W        W85285  39.956  13.190  12.886
26025W        W85286  28.076  13.236  14.403
26026W        W85287  23.142  36.044  13.854
26027W        W85288  29.109   5.220  11.587
26028W        W85289  38.024  21.726   0.748
26029W        W85290  40.891  22.086  10.635
26030W        W85291  24.155  21.579   1.826
26031W        W85292   6.381  25.155  10.450
26032W        W85293  11.149   2.226   2.802
26033W        W85294   6.865   3.934  13.808
26034W        W85295  33.052   6.344  11.916
26035W        W85296   3.455  10.830   2.353
26036W        W85297  28.467  25.166   3.696
26037W        W85298  34.871  41.323   0.306
26038W        W85299  11.851  41.358  13.488
26039W        W85300  36.536  32.896  13.963
26040W        W85301  35.904  43.981   1.798
26041W        W85302  23.227  29.539   2.303
26042W        W85303  19.189  29.964  12.387
26043W        W85304  18.676  40.902  13.420
26044W        W85305  38.956  20.597   4.646
26045W        W85306  30.638  41.960  11.109
26046W        W85307  19.740  26.013  12.472
26047W        W85308  44.406  27.958  11.032
26048W        W85309  13.810  18.211   1.736
26049W        W85310  14.109   3.413   0.793
26050W        W85311  21.037  44.884   1.878
26051W        W85312  42.011  18.707  12.872
26052W        W85313  21.521  18.184  13.497
26053W        W85314  26.955   3.436  11.563
26054W        W85315  13.806  18.742  12.062
26055W        W85316  35.465  37.922  14.366
26056W        W85317  29.175  36.932   1.895
26057W        W85318   7.280  19.678  14.959
26058W        W85319   1.435  19.545   1.311
26059W        W85320  19.281   6.341  14.965
26060W        W85321  26.173  37.849  13.919
26061W        W85322  40.545   0.833   3.177
26062W        W85323   8.219  42.935   2.774
26063W        W85324  40.431   3.872  10.970
26064W        W85325  36.867  25.198   2.810
26065W        W85326  22.047  44.289  12.373
26066W        W85327  27.502   0.858   1.378
26067W        W85328  28.995   8.276  13.341
26068W        W85329  26.678  26.961   2.284
26069W        W85330   5.875   9.779   2.296
26070W        W85331  43.494  17.242  11.061
26071W        W85332  42.340  22.032  11.524
26072W        W85333   0.263  14.322   2.259
26073W        W85334  24.545  37.025  13.041
26074W        W85335  11.305  43.457  11.427
26075W        W85336  24.070   0.891   2.283
26076W        W85337  21.228  14.333  14.898
26077W        W85338  16.653  16.635   3.668
26078W        W85339  10.802  18.209  13.860
26079W        W85340   4.906   0.266  11.381
26080W        W85341  43.771  26.989   4.179
26081W        W85342  28.665  42.307  10.580
26082W        W85343  28.185  16.575   2.829
26083W        W85344  28.960  35.000  14.010
26084W        W85345  42.507  26.122  14.809
26085W        W85346   2.327  37.036  11.900
26086W        W85347  37.920  31.927  14.883
26087W        W85348  19.606  21.201   0.403
26088W        W85349  17.103  17.202  12.951
26089W        W85350  22.576   3.253   0.475
26090W        W85351  26.660  41.935   2.204
26091W        W85352  28.478   0.822  10.985
26092W        W85353  32.030  43.391  13.910
26093W        W85354  30.051  15.784  13.317
26094W        W85355  33.915   0.285  10.436
26095W        W85356   4.326  23.153   3.654
26096W        W85357   2.914  13.624  12.427
26097W        W85358  18.636  42.782   4.731
26098W        W85359  27.197  25.481   2.214
26099W        W85360   0.445  23.536  11.957
26100W        W85361   2.751  15.791  11.498
26101W        W85362  34.516  23.210  10.455
26102W        W85363  14.592  13.635  11.951
26103W        W85364   6.246  32.533  10.447
26104W        W85365   8.697  40.422  11.092
26105W        W85366  27.040  22.073   0.884
26106W        W85367   6.727  16.653   3.774
26107W        W85368   7.880  15.620  12.904
26108W        W85369  41.959  18.168   3.865
26109W        W85370  12.799  33.092  12.953
26110W        W85371  36.041  27.636  11.471
26111W        W85372  27.667  42.425   1.740
26112W        W85373   5.297  35.480  13.444
26113W        W85374   9.275  28.016  12.916
26114W        W85375   0.457  34.440  10.412
26115W        W85376  28.997  13.741  12.549
26116W        W85377   1.854  41.807   4.713
26117W        W85378  29.427   1.246   3.778
26118W        W85379  28.156  18.092  14.801
26119W        W85380  30.142  35.954   2.336
26120W        W85381  21.577  10.753  10.572
26121W        W85382   6.827  10.671  14.402
26122W        W85383  29.012  41.503   0.892
26123W        W85384  13.313  40.036   4.323
26124W        W85385  28.095  26.136  13.469
26125W        W85386  14.150  39.380   2.802
26126W        W85387   1.302   5.719   4.733
26127W        W85388  11.812  32.523   2.760
26128W        W85389  37.559   4.891   1.407
26129W        W85390  14.668   8.709   0.839
26130W        W85391   8.225  20.089  12.383
26131W        W85392  32.941  29.654   2.268
26132W        W85393   8.337   0.409   3.688
26133W        W85394  17.761  18.763  14.481
26134W        W85395  40.464   1.469  14.455
26135W        W85396  37.526   0.273   3.218
26136W        W85397  28.041  32.412  14.447
26137W        W85398  27.643  31.508  13.980
26138W        W85399  44.305   0.257  10.142
26139W        W85400  19.164  20.757   2.390
26140W        W85401  15.137  25.198  14.763
26141W        W85402  22.718  10.138  11.576
26142W        W85403   3.361  29.551   2.811
26143W        W85404   2.299  35.944  13.480
26144W        W85405  38.992  41.930  13.796
26145W        W85406  41.034  29.460  10.533
26146W        W85407   0.827  37.429   3.853
26147W        W85408  22.177  15.710  10.973
26148W        W85409  36.558  31.986   3.745
26149W        W85410   7.691  24.997   1.776
26150W        W85411  26.054  35.901   1.710
26151W        W85412  23.497  16.652   3.681
26152W        W85413  31.123  39.477   4.139
26153W        W85414  37.563  24.488  13.537
26154W        W85415  35.983  33.030   3.657
26155W        W85416  23.591  17.155   4.800
26156W        W85417   0.747  24.090  12.922
26157W        W85418  40.392  29.171   4.236
26158W        W85419  36.015   6.689   4.759
26159W        W85420  23.098   8.203   2.732
26160W        W85421  43.011  28.048   1.320
26161W        W85422   2.964   5.329   4.288
26162W        W85423  20.129  14.248   2.860
26163W        W85424  14.106  15.166  12.062
26164W        W85425  43.270   7.271   2.325
26165W        W85426  43.403  10.211   4.787
26166W        W85427  18.596  38.392  13.962
26167W        W85428  26.144  14.824  14.840
26168W        W85429  12.697  28.603   5.672
26169W        W85430  40.900  24.182  12.387
26170W        W85431  18.600  35.417   4.631
26171W        W85432   1.246   0.880  14.311
26172W        W85433  33.460  21.603   0.835
26173W        W85434  15.735  29.992   1.873
26174W        W85435   1.367   8.397  12.059
26175W        W85436  30.056   7.670  10.491
26176W        W85437   1.875  35.034   4.146
26177W        W85438  38.074  43.006  12.463
26178W        W85439  13.799  14.679   1.410
26179W        W85440  14.125  22.509  14.926
26180W        W85441   3.789  30.057  11.511
26181W        W85442   0.483  32.436   4.191
26182W        W85443  18.073  10.173   1.290
26183W        W85444  11.279  36.348  10.956
26184W        W85445  43.872  32.080  13.386
26185W        W85446  33.427  37.913  13.467
26186W        W85447   4.333  14.221   2.315
26187W        W85448   1.420  25.557   4.610
26188W        W85449   0.805  25.096   3.250
26189W        W85450  18.696   2.241  13.947
26190W        W85451   9.827  27.108   4.836
26191W        W85452  22.078  29.167   0.325
26192W        W85453  44.307  28.468  10.494
26193W        W85454  31.004  34.558  12.454
26194W        W85455  41.984  12.847   1.451
26195W        W85456  43.857  28.977   1.337
26196W        W85457   8.656  36.466  13.476
26197W        W85458  34.943  15.592  12.093
26198W        W85459   8.725  31.591  14.771
26199W        W85460  14.686  32.589  10.950
26200W        W85461   7.171  20.232   2.417
26201W        W85462  12.788  32.002   4.211
26202W        W85463  19.136  20.046  13.447
26203W        W85464  28.529   9.792   3.351
26204W        W85465  30.072  39.471   0.368
26205W        W85466  40.364  24.528   4.720
26206W        W85467  16.262   6.879  13.456
26207W        W85468  12.304  21.675  13.346
26208W        W85469  43.944  27.460  12.004
26209W        W85470   8.735  43.976   4.171
26210W        W85471  28.542  36.465   0.434
26211W        W85472  13.271   4.213  14.505
26212W        W85473  26.647   1.384   0.887
26213W        W85474  43.834  25.705  11.551
26214W        W85475  42.934  44.295   5.256
26215W        W85476  16.740  42.822  11.928
26216W        W85477  44.853  29.920   2.209
26217W        W85478   0.289  11.646  11.399
26218W        W85479  27.020  17.110   4.696
26219W        W85480  13.226  37.352   2.404
26220W        W85481   0.790  20.044  10.592
26221W        W85482  17.696  29.063   1.248
26222W        W85483  19.703  40.887   2.313
26223W        W85484  37.970  36.558  11.057
26224W        W85485  36.579  16.113  10.418
26225W        W85486  39.333  39.967   2.893
26226W        W85487  19.568  27.088   4.179
26227W        W85488   3.340  35.574  13.477
26228W        W85489   0.904   6.833   2.834
26229W        W85490  15.258  14.267  13.801
26230W        W85491  21.531  16.593   3.843
26231W        W85492  33.960  39.901  13.536
26232W        W85493  33.591  23.001   2.799
26233W        W85494  10.802  24.229   3.318
26234W        W85495  41.472  23.078  14.814
26235W        W85496  24.546  21.101   3.175
26236W        W85497  11.346  30.609  14.786
26237W        W85498  38.990  32.945   0.734
26238W        W85499  43.497   5.841   3.222
26239W        W85500  12.820  19.753   1.299
26240W        W85501  23.138  27.645   1.301
26241W        W85502   2.338  21.092   0.250
26242W        W85503  13.787  36.034   2.693
26243W        W85504  16.755  21.629   3.727
26244W        W85505  26.026  21.062  10.465
26245W        W85506  30.529  26.589  14.787
26246W        W85507  24.125  17.571   0.326
26247W        W85508   4.271   8.161   0.352
26248W        W85509  21.536  24.105   1.225
26249W        W85510  18.077   6.386  11.387
26250W        W85511  30.152  17.296   3.146
26251W        W85512   7.307   3.898   2.881
26252W        W85513   6.300  35.371  13.940
26253W        W85514  43.769  15.105   4.122
26254W        W85515  42.926  25.567  14.759
26255W        W85516  41.293   4.909  12.943
26256W        W85517  18.663  29.571  13.494
26257W        W85518   0.815   3.855  12.989
26258W        W85519   0.322  25.524   2.349
26259W        W85520  32.036   4.368  13.425
26260W        W85521  33.473  15.654  10.455
26261W        W85522  10.197  28.088  10.410
26262W        W85523  15.233  18.705  13.523
26263W        W85524   8.826   1.758  11.537
26264W        W85525   2.922  33.562   4.753
26265W        W85526  14.633  11.637   2.288
26266W        W85527  28.068   7.301   1.907
26267W        W85528   3.427  39.002  12.575
26268W        W85529  21.055  18.290   0.370
26269W        W85530  40.362  23.212  11.938
26270W        W85531  23.681  30.924  10.531
26271W        W85532  14.658  42.344  10.595
26272W        W85533  34.411   0.833  11.861
26273W        W85534  34.095  28.528  11.386
26274W        W85535  33.898  16.674   3.325
26275W        W85536  18.257   9.685   1.227
26276W        W85537  22.661  39.405   1.319
26277W        W85538  15.177  29.609  14.991
26278W        W85539  31.131  37.519   2.901
26279W        W85540  32.942  23.556   1.399
26280W        W85541   5.729   1.343   0.361
26281W        W85542  22.725  34.503   1.282
26282W        W85543  30.162  20.741   3.348
26283W        W85544  36.589   6.908   2.414
26284W        W85545  34.886  34.927   2.359
26285W        W85546  26.017  40.040   4.768
26286W        W85547  14.096  36.026  12.455
26287W        W85548  24.221  35.427   2.694
26288W        W85549  44.887  14.601   3.159
26289W        W85550  12.329  31.076   1.305
26290W        W85551  26.487  25.030  14.341
26291W        W85552   2.255  43.981  11.005
26292W        W85553  44.828  44.933   3.174
26293W        W85554   1.975  37.570  14.394
26294W        W85555  10.873   7.359   5.149
26295W        W85556  40.405   8.659  13.459
26296W        W85557  36.379  44.280  11.872
26297W        W85558   8.238  27.061  13.802
26298W        W85559   6.334  44.868  14.901
26299W        W85560  39.954  11.630   0.895
26300W        W85561  24.131  32.448  10.529
26301W        W85562   6.218  33.922  12.943
26302W        W85563  37.041  15.642  14.415
26303W        W85564  39.920  30.454  14.827
26304W        W85565  37.844   5.282   4.349
26305W        W85566  30.064   5.379   4.307
26306W        W85567  34.457  18.204  11.922
26307W        W85568  25.674  33.945   3.839
26308W        W85569  19.737  20.676   0.830
26309W        W85570  41.294  12.678  14.992
26310W        W85571   8.814  30.985   4.790
26311W        W85572  38.563  43.370  10.451
26312W        W85573  31.457   4.441   1.370
26313W        W85574  14.818  15.182   2.240
26314W        W85575  21.645  12.346  14.366
26315W        W85576  35.509  19.775  10.563
26316W        W85577   4.882  29.120  13.888
26317W        W85578   4.374  18.778  12.962
26318W        W85579  34.881  17.203  13.971
26319W        W85580  39.320  39.885  14.477
26320W        W85581   6.904  39.461  11.907
26321W        W85582   2.242  17.600   2.695
26322W        W85583  19.082  13.342  13.889
26323W        W85584  14.831  19.766   4.624
26324W        W85585  28.187   4.878  12.086
26325W        W85586  31.404  33.400  10.938
26326W        W85587  36.510  32.948  14.330
26327W        W85588  43.967  41.493  10.519
26328W        W85589   3.871  16.212   2.294
26329W        W85590   9.190  30.926  13.894
26330W        W85591   8.857  43.466  11.956
26331W        W85592  20.583  29.933   9.455
26332W        W85593  39.055  16.124  14.386
26333W        W85594   4.722  25.194  10.052
26334W        W85595   5.392  32.993   4.642
26335W        W85596  35.002  37.037   2.752
26336W        W85597   5.816  41.326  12.836
26337W        W85598  35.995  13.246   5.663
26338W        W85599  15.312  12.208  12.938
26339W        W85600  39.029  25.211   2.288
26340W        W85601  10.254  13.262   4.201
26341W        W85602  15.763  19.613  11.929
26342W        W85603  19.141  23.524  14.811
26343W        W85604  42.360  30.098  12.004
26344W        W85605   0.288  16.728   3.261
26345W        W85606   9.292  43.920  11.921
26346W        W85607  17.204  35.517   2.186
26347W        W85608  21.138   4.309   1.427
26348W        W85609  42.030  22.555  13.863
26349W        W85610  10.343  40.013   0.841
26350W        W85611   1.370   6.313  12.915
26351W        W85612  20.100  33.938   2.237
26352W        W85613  14.809  44.492  11.048
26353W        W85614  36.581  21.109   2.222
26354W        W85615  13.792   9.244  11.029
26355W        W85616   9.725  21.712  13.390
26356W        W85617  13.659   9.322  12.960
26357W        W85618   4.893  38.864  12.057
26358W        W85619   7.876  42.801  14.328
26359W        W85620  25.632  17.769   2.295
26360W        W85621   7.408  34.101  14.334
26361W        W85622  34.425  34.380  13.915
26362W        W85623   4.728  35.362  13.428
26363W        W85624  37.551   7.787  12.040
26364W        W85625  25.486  14.751   1.350
26365W        W85626  33.039  12.666   0.847
26366W        W85627  33.905  29.950  11.872
26367W        W85628   2.373  21.560  11.954
26368W        W85629  13.749  16.636   0.786
26369W        W85630  34.426   2.409   2.345
26370W        W85631  41.501  37.524  10.579
26371W        W85632  18.618  14.751   4.627
26372W        W85633   6.377   0.851  12.540
26373W        W85634   6.783  18.774   0.327
26374W        W85635  18.784  16.739  14.989
26375W        W85636  17.102   8.748   3.310
26376W        W85637  19.252   6.415  12.354
26377W        W85638   7.235  31.472   4.309
26378W        W85639   8.185   8.365   3.680
26379W        W85640  39.957  37.905  10.112
26380W        W85641  43.873   3.887  11.524
26381W        W85642  22.023  12.834   1.361
26382W        W85643   4.400  44.777   4.303
26383W        W85644  44.388  30.034  13.477
26384W        W85645  17.202  39.976   2.816
26385W        W85646  17.240  34.519  13.542
26386W        W85647   9.323  15.222   0.754
26387W        W85648  26.568  10.362   3.294
26388W        W85649  28.103  26.509   2.277
26389W        W85650   5.198  30.120   4.329
26390W        W85651  14.619  32.561  14.301
26391W        W85652  31.564   3.314   4.197
26392W        W85653  26.089  16.648  13.368
26393W        W85654  34.110  25.702   2.337
26394W        W85655  29.944  12.829  14.845
26395W        W85656   1.353  30.577   3.834
26396W        W85657  41.501  30.986   3.237
26397W        W85658  13.655  38.972   1.359
26398W        W85659  10.729  37.365  11.901
26399W        W85660  27.955  41.815   4.196
26400W        W85661  19.667   4.389   1.235
26401W        W85662  10.722  15.720  14.457
26402W        W85663  22.723   7.228  13.375
26403W        W85664  18.730  17.639  13.337
26404W        W85665  19.166  29.116   5.182
26405W        W85666  15.215  13.203  13.039
26406W        W85667  12.643   0.351  13.341
26407W        W85668  43.306  15.195   4.176
26408W        W85669  37.867   6.711  11.396
26409W        W85670   9.366  11.733  12.535
26410W        W85671   6.888  25.671   3.728
26411W        W85672  44.358  40.960   4.718
26412W        W85673  32.416  25.581   2.221
26413W        W85674  24.058  34.965  11.464
26414W        W85675  35.503   9.645  11.044
26415W        W85676  41.829  43.767   1.778
26416W        W85677  27.462  30.025  10.536
26417W        W85678   8.691  33.929   1.222
26418W        W85679  35.481  27.616  12.862
26419W        W85680  43.989  37.953  14.930
26420W        W85681   2.842  19.560  14.423
26421W        W85682   6.905  31.070  10.611
26422W        W85683   2.274   1.823  13.935
26423W        W85684  15.781   3.856   3.249
26424W        W85685  31.603  33.068   3.792
26425W        W85686  26.111   7.687   0.745
26426W        W85687  16.316   4.783   3.714
26427W        W85688  31.413   3.266   4.648
26428W        W85689  33.943  30.921  13.913
26429W        W85690  30.632  35.419   2.210
26430W        W85691  42.513  32.914  13.891
26431W        W85692   5.797   7.782   1.721
26432W        W85693   6.230  17.776  11.082
26433W        W85694   6.376  15.145  14.433
26434W        W85695   5.889   7.874   3.214
26435W        W85696   5.908  42.790   0.429
26436W        W85697  30.087   6.768   0.349
26437W        W85698  21.630   6.418  14.989
26438W        W85699  34.491   2.271  14.474
26439W        W85700   2.728  17.723   4.292
26440W        W85701  27.028  23.511   4.715
26441W        W85702  12.321  23.503   2.820
26442W        W85703  40.924  20.574   3.220
26443W        W85704  10.309   2.931   2.671
26444W        W85705  23.996  40.343   4.739
26445W        W85706  13.771  24.976  12.427
26446W        W85707  24.503  14.340  13.946
26447W        W85708  30.571  31.615   3.796
26448W        W85709  35.064   0.446  14.953
26449W        W85710  12.614  16.233   1.831
26450W        W85711  43.910  19.233   4.226
26451W        W85712   2.912  17.279  10.536
26452W        W85713   9.647  11.671   2.330
26453W        W85714  26.485  40.001   3.762
26454W        W85715  18.235  44.321  12.992
26455W        W85716  10.208  23.184  13.336
26456W        W85717  35.453  28.932  14.978
26457W        W85718  26.467  26.023  13.869
26458W        W85719  23.162  19.046   2.409
26459W        W85720  21.175  11.723  13.033
26460W        W85721  18.074  14.589   0.477
26461W        W85722   2.258  31.560   0.772
26462W        W85723   9.286  41.513   2.792
26463W        W85724   7.229  32.397   1.862
26464W        W85725   6.720   9.183  14.503
26465W        W85726  18.547  12.349  11.875
26466W        W85727   5.328   4.780   0.833
26467W        W85728   2.377  31.475   4.170
26468W        W85729  22.505  13.812  12.831
26469W        W85730  37.543  24.674   0.910
26470W        W85731  44.462  18.110  14.467
26471W        W85732  13.739  19.736   1.232
26472W        W85733  19.691  20.183   0.798
26473W        W85734  32.482   5.196   3.661
26474W        W85735  36.006  14.622   4.718
26475W        W85736  13.143  33.550  10.508
26476W        W85737  34.089  29.020  10.932
26477W        W85738  30.007  22.546   0.751
26478W        W85739  36.576  12.240  13.351
26479W        W85740  40.868  29.015   4.239
26480W        W85741  16.159  27.490   1.215
26481W        W85742  39.390  22.115  13.968
26482W        W85743  10.140   3.813  11.080
26483W        W85744  40.005  13.795  13.053
26484W        W85745  15.118  43.867   0.405
26485W        W85746  32.054  24.496   3.342
26486W        W85747  35.001  36.584  13.883
26487W        W85748  14.174  12.297  12.521
26488W        W85749  40.333  12.840   0.824
26489W        W85750  37.911  10.261  12.845
26490W        W85751  21.584  35.513  13.338
26491W        W85752  31.967  24.658   0.759
26492W        W85753  41.335  11.813   1.919
26493W        W85754  35.000  18.739   3.805
26494W        W85755  20.605  28.621  14.347
26495W        W85756  30.633  28.529  13.543
26496W        W85757  14.154  13.293  11.473
26497W        W85758  21.752   1.860  11.857
26498W        W85759  12.754   8.708  13.010
26499W        W85760   1.238  42.291  14.813
26500W        W85761  29.972  40.892   5.683
26501W        W85762  18.778  18.095   2.721
26502W        W85763  14.329  18.167   1.379
26503W        W85764  40.899  42.933  12.075
26504W        W85765  43.924   5.843   3.734
26505W        W85766   3.727  42.446   4.646
26506W        W85767  39.066  29.602   2.219
26507W        W85768   0.965   9.804   3.156
26508W        W85769  35.908  34.559   0.857
26509W        W85770   8.727  41.969  10.439
26510W        W85771  39.034  16.256   2.222
26511W        W85772  30.091  43.780   0.299
26512W        W85773   3.884   4.943  11.978
26513W        W85774  11.763   2.301   4.271
26514W        W85775  14.320  20.542   4.146
26515W        W85776  35.444   8.199  14.398
26516W        W85777  34.887   2.853  14.352
26517W        W85778  32.082  25.030  11.078
26518W        W85779  35.947   3.392   0.370
26519W        W85780  25.699  41.956  13.799
26520W        W85781   0.397  23.102   1.424
26521W        W85782  15.746   9.232  13.311
26522W        W85783  31.581  12.316  13.818
26523W        W85784  14.632  25.584   2.819
26524W        W85785  25.144   0.823   1.904
26525W        W85786  10.750  38.358   4.197
26526W        W85787  24.069  41.475   2.281
26527W        W85788  40.458  29.029  11.036
26528W        W85789  12.233  14.229  12.823
26529W        W85790  35.975   3.451  13.465
26530W        W85791   6.875  21.646   0.782
26531W        W85792  18.634  38.851  13.963
26532W        W85793  10.279  43.961  12.434
26533W        W85794  44.803   8.362   4.298
26534W        W85795   7.853  41.405  11.021
26535W        W85796  36.532  21.200  13.497
26536W        W85797   1.241  29.456  11.977
26537W        W85798  30.074  32.528   3.318
26538W        W85799  16.205  20.153   0.324
26539W        W85800  14.216  13.336   5.672
26540W        W85801  24.204  17.279  13.879
26541W        W85802  20.621  37.065  11.073
26542W        W85803  31.997  25.024   1.432
26543W        W85804  39.351   7.349   2.284
26544W        W85805  19.144  20.535  10.027
26545W        W85806  27.024  23.025   0.965
26546W        W85807  28.994  12.241  11.027
26547W        W85808  32.064  23.682  12.356
26548W        W85809  44.780   1.771   0.465
26549W        W85810   6.699  15.108   2.382
26550W        W85811  38.464  14.705   2.279
26551W        W85812  35.879  33.499   3.214
26552W        W85813  41.365  25.620   1.212
26553W        W85814  20.573  19.601  13.381
26554W        W85815  13.759  32.977   0.293
26555W        W85816   6.831  34.928  13.909
26556W        W85817  14.281  27.958  14.948
26557W        W85818  37.394  30.641  10.013
26558W        W85819  11.813  44.459  11.373
26559W        W85820   3.323  34.601   3.809
26560W        W85821  43.927  15.242   1.897
26561W        W85822   9.329   3.285  13.457
26562W        W85823  30.503   9.154   1.421
26563W        W85824   5.379  37.580  10.421
26564W        W85825   1.359  14.669  11.879
26565W        W85826  31.587  37.924   3.794
26566W        W85827  21.153  34.402  10.134
26567W        W85828  37.937  31.556   0.753
26568W        W85829  32.533  44.973  13.509
26569W        W85830  31.015  40.972  14.918
26570W        W85831  17.730  11.744  14.014
26571W        W85832   7.833  32.589   4.733
26572W        W85833  28.987  43.313   0.862
26573W        W85834  22.742  17.592  12.407
26574W        W85835  36.871   2.785  10.554
26575W        W85836   7.208  11.723  11.018
26576W        W85837   5.837  18.652   0.862
26577W        W85838  36.880  25.663  11.908
26578W        W85839   8.337  14.326  13.540
26579W        W85840   2.288  13.178  12.941
26580W        W85841  17.760  26.953  10.949
26581W        W85842  38.563  36.427  12.349
26582W        W85843  17.571  12.168   3.381
26583W        W85844   7.220  37.559   5.260
26584W        W85845   9.780  41.791   1.733
26585W        W85846  42.282  39.969   1.704
26586W        W85847  23.204   9.215  12.043
26587W        W85848  34.894  44.440  14.496
26588W        W85849  15.600  11.236   4.175
26589W        W85850  28.535   7.363  14.910
26590W        W85851  20.525   1.850  14.943
26591W        W85852  42.396  30.466   0.409
26592W        W85853   9.186   6.410   0.439
26593W        W85854  35.373  26.594   4.321
26594W        W85855   7.889  41.478   2.765
26595W        W85856   0.772  26.979   0.899
26596W        W85857  35.409  24.604   1.374
26597W        W85858  10.812  37.027  12.435
26598W        W85859   2.320   1.277  12.000
26599W        W85860   2.413   6.822  10.975
26600W        W85861  12.236  32.457  11.403
26601W        W85862  42.777   7.668   3.315
26602W        W85863   0.923  37.487  10.890
26603W        W85864  17.623  37.495   0.342
26604W        W85865  23.160  11.365  13.996
26605W        W85866  17.727  34.984   4.710
26606W        W85867  41.485  37.002   0.330
26607W        W85868   7.839  33.914   3.692
26608W        W85869  14.804  20.633  10.518
26609W        W85870  15.767   8.801   2.843
26610W        W85871   6.683  17.081  11.562
26611W        W85872   8.672  10.317  12.428
26612W        W85873  26.014  27.652   1.834
26613W        W85874   7.834  26.551  13.348
26614W        W85875  23.192  24.664  12.000
26615W        W85876   1.321  38.547   4.237
26616W        W85877  26.072  20.682  14.312
26617W        W85878   4.829   0.395   3.703
26618W        W85879  24.635   1.966  13.388
26619W        W85880  36.910  38.522  12.395
26620W        W85881  12.194   3.266  13.473
26621W        W85882  26.670  41.477  11.480
26622W        W85883  26.178  22.147  13.918
26623W        W85884   0.829   0.918   4.623
26624W        W85885  24.127   9.753  14.388
26625W        W85886  15.207  20.050  10.522
26626W        W85887  15.818  27.648   0.293
26627W        W85888  35.534  41.812  14.962
26628W        W85889   0.396  33.973   2.358
26629W        W85890  27.190   3.722  10.547
26630W        W85891   6.799  31.074   4.753
26631W        W85892  34.549  42.965  11.883
26632W        W85893  37.576   2.893  10.624
26633W        W85894  24.568  36.929   1.752
26634W        W85895  35.960  26.966  13.874
26635W        W85896  30.595  42.328   0.901
26636W        W85897   1.414  17.145   3.786
26637W        W85898   3.738   0.875  11.466
26638W        W85899  16.813  16.120  13.930
26639W        W85900  39.861  22.067  10.557
26640W        W85901  39.466  27.579   4.791
26641W        W85902  29.132  29.470   3.633
26642W        W85903  29.563  33.614   1.289
26643W        W85904  30.010  19.256   1.753
26644W        W85905  25.062  32.952  14.828
26645W        W85906  19.193  32.942   1.781
26646W        W85907   8.820  16.132  12.895
26647W        W85908  38.537  16.628   3.794
26648W        W85909  36.490  37.952  13.920
26649W        W85910  43.880  14.608   0.460
26650W        W85911  32.597  28.123  10.445
26651W        W85912   3.913   6.286  13.936
26652W        W85913  11.219  22.641  12.499
26653W        W85914   2.360   7.389  14.936
26654W        W85915  11.176  23.604  11.978
26655W        W85916   9.653  38.515  11.484
26656W        W85917  32.099  38.370   3.725
26657W        W85918  42.966  18.127  13.451
26658W        W85919  19.665  14.284  12.017
26659W        W85920  19.623  37.547   0.452
26660W        W85921  12.278  21.238  12.896
26661W        W85922   3.288  30.103  13.440
26662W        W85923  42.389   8.866  11.991
26663W        W85924  38.466   5.222   0.899
26664W        W85925  12.227  17.675  14.340
26665W        W85926  35.550  35.985  13.803
26666W        W85927  37.073  16.632   4.346
26667W        W85928  22.089  38.866  14.917
26668W        W85929  27.139  22.019   3.387
26669W        W85930  24.113   2.244  14.392
26670W        W85931   3.370  27.185  11.921
26671W        W85932  18.733  29.652   2.866
26672W        W85933  21.712   3.945   3.307
26673W        W85934  25.210  33.004   3.235
26674W        W85935  41.822  26.115   3.257
26675W        W85936  40.379   8.818   3.761
26676W        W85937  34.559  17.657  13.533
26677W        W85938  42.907   3.252   1.793
26678W        W85939  29.151  16.142  11.119
26679W        W85940  21.590  37.460  13.353
26680W        W85941  18.709   8.828   3.344
26681W        W85942  27.075  18.603   1.887
26682W        W85943  22.212  41.835  13.951
26683W        W85944   0.883   2.741  11.065
26684W        W85945  23.508  38.950   2.178
26685W        W85946   6.769  40.367  11.984
26686W        W85947  30.413  33.004  14.975
26687W        W85948   6.749   0.374   3.167
26688W        W85949  28.063   6.299   4.748
26689W        W85950   5.279  26.040  10.929
26690W        W85951  34.965   1.778  13.914
26691W        W85952   8.731  29.473  10.945
26692W        W85953  20.216  42.924  11.003
26693W        W85954  40.797  30.562   0.246
26694W        W85955  25.591   8.174   3.764
26695W        W85956  36.057  18.624  13.312
26696W        W85957  32.087  19.606   1.802
26697W        W85958  22.016  17.187  12.981
26698W        W85959  15.653  13.231   3.193
26699W        W85960   2.896  31.612  11.417
26700W        W85961  26.169  23.100  14.346
26701W        W85962  43.514  15.100   3.839
26702W        W85963  17.764   4.912  10.574
26703W        W85964  43.503  37.448  12.369
26704W        W85965  31.426  29.137  14.778
26705W        W85966  38.896  31.407  10.060
26706W        W85967   6.860  39.379   1.710
26707W        W85968  35.964   5.410  12.978
26708W        W85969  12.267  43.317  10.609
26709W        W85970  18.687   3.724   4.663
26710W        W85971  30.141  34.446  12.524
26711W        W85972  21.178  27.940   0.430
26712W        W85973  24.215  34.606  10.430
26713W        W85974  12.763  13.622   2.854
26714W        W85975  12.657  17.674  12.568
26715W        W85976  27.980  10.292  14.402
26716W        W85977  11.679  42.418   4.655
26717W        W85978  22.197  14.662   0.945
26718W        W85979  15.291   0.923   3.272
26719W        W85980  44.401   7.702   0.355
26720W        W85981  26.696  36.375   1.935
26721W        W85982   7.901  21.533  11.418
26722W        W85983   8.732   2.470  10.536
26723W        W85984  39.467  39.397  12.857
26724W        W85985   3.928   1.347  11.544
26725W        W85986   3.878  14.789   3.223
26726W        W85987  27.970   7.769   3.766
26727W        W85988  27.454   8.730   2.265
26728W        W85989  22.599  37.057   0.480
26729W        W85990  11.801   3.952   0.471
26730W        W85991  15.102  18.081   4.718
26731W        W85992  39.984   3.282   4.221
26732W        W85993  31.054  41.987  12.890
26733W        W85994  13.324  26.038  10.411
26734W        W85995  19.739  15.098  12.347
26735W        W85996   0.866  27.505   2.818
26736W        W85997  24.204  42.351  12.343
26737W        W85998   7.261   5.926  13.819
26738W        W85999   4.734  37.846   2.201
26739W        W86000  27.175  27.651  13.345
26740W        W86001  38.004  31.087   0.386
26741W        W86002  27.589  34.551  13.999
26742W        W86003  31.606  11.862   1.262
26743W        W86004  41.019  21.093   4.337
26744W        W86005  23.186  42.805  14.452
26745W        W86006  29.042  24.496  14.929
26746W        W86007   0.304  40.517  13.836
26747W        W86008  32.555  18.171   3.815
26748W        W86009   4.704   6.689  12.852
26749W        W86010  23.089  31.095  10.537
26750W        W86011  30.524  27.073   0.267
26751W        W86012  30.957  25.482  11.052
26752W        W86013  22.118  38.443  13.992
26753W        W86014   5.384  20.708   1.231
26754W        W86015  41.858  33.473  11.478
26755W        W86016  15.745  32.580  11.541
26756W        W86017  10.298  40.869  13.356
26757W        W86018  11.626  22.134  14.360
26758W        W86019  24.592  37.925   1.783
26759W        W86020  19.243  36.404   3.364
26760W        W86021   8.856   6.219  11.066
26761W        W86022  35.870  29.483   2.392
26762W        W86023  17.679  25.468   3.714
26763W        W86024   1.959  20.035   3.370
26764W        W86025  30.638  42.976   3.675
26765W        W86026  26.683  13.599  11.881
26766W        W86027   9.349   7.712   2.715
26767W        W86028   2.323  17.299  11.555
26768W        W86029  10.802  24.058   3.729
26769W        W86030  26.510  40.855  13.467
26770W        W86031  32.613  43.848   2.354
26771W        W86032  18.751  35.526   3.150
26772W        W86033  42.931  26.022  13.428
26773W        W86034  35.603  19.745   5.316
26774W        W86035  39.883   4.393   4.664
26775W        W86036  24.599   8.331  14.855
26776W        W86037  42.459  21.709   4.822
26777W        W86038  38.352  39.019  13.830
26778W        W86039  12.803  33.445  12.025
26779W        W86040   4.337  40.943   3.675
26780W        W86041   4.377   0.279   0.867
26781W        W86042  35.036  20.111  12.404
26782W        W86043  14.834  22.701  12.443
26783W        W86044  16.736   0.752  14.875
26784W        W86045   1.239  22.010  11.576
26785W        W86046  41.989  21.709   4.267
26786W        W86047  34.929  41.875   3.313
26787W        W86048  11.344  19.265   3.858
26788W        W86049   9.841  34.920   3.695
26789W        W86050  34.484  20.719  12.093
26790W        W86051  20.104  43.416  12.049
26791W        W86052  25.585  30.922   4.321
26792W        W86053  41.963  20.719   2.206
26793W        W86054  42.361   3.907   0.395
26794W        W86055  36.918  40.430  12.955
26795W        W86056   5.290  24.545  11.610
26796W        W86057  35.507  15.625  10.462
26797W        W86058  35.546  32.142  11.122
26798W        W86059  29.613  10.374  11.957
26799W        W86060  21.636  15.118  10.916
26800W        W86061  15.204  16.212   3.787
26801W        W86062  14.799  35.465   2.410
26802W        W86063  17.217  27.579  11.976
26803W        W86064   6.375  39.944  11.422
26804W        W86065  33.506   7.350  14.880
26805W        W86066  30.064   1.878  14.350
26806W        W86067  21.631   0.891  12.054
26807W        W86068   7.736  37.412  10.147
26808W        W86069  41.336  43.363  12.514
26809W        W86070   7.361   2.964  13.801
26810W        W86071   5.411  20.148  14.329
26811W        W86072  11.359   6.774   3.673
26812W        W86073  31.628  11.657  12.366
26813W        W86074  15.768  24.637   4.653
26814W        W86075   4.233  37.416  10.620
26815W        W86076  27.576  15.626  13.966
26816W        W86077  44.428   3.857   1.794
26817W        W86078  44.349  27.691  10.920
26818W        W86079  22.717  20.668   3.830
26819W        W86080   1.386  32.070  10.437
26820W        W86081  38.466  36.021  11.529
26821W        W86082   8.287   5.832   2.331
26822W        W86083  10.146  24.197  12.578
26823W        W86084  29.957   6.419  13.486
26824W        W86085   0.464  40.453  14.948
26825W        W86086   7.835  16.267  14.297
26826W        W86087  28.656   8.233   1.909
26827W        W86088  29.970  35.024  14.972
26828W        W86089  15.270  26.207  13.935
26829W        W86090  38.066  18.568  14.350
26830W        W86091  18.675  27.665   0.818
26831W        W86092   1.273   6.696  12.030
26832W        W86093  17.214  16.789  11.002
26833W        W86094  16.634  13.299  11.951
26834W        W86095   1.775  15.778   3.640
26835W        W86096  12.639  10.849   5.177
26836W        W86097  14.306  15.299  11.500
26837W        W86098  37.960   1.813  12.420
26838W        W86099   5.424  40.482  14.928
26839W        W86100  34.045  10.642   1.404
26840W        W86101  35.102  23.529  12.552
26841W        W86102  26.564  31.635  11.556
26842W        W86103  42.309  29.501   2.693
26843W        W86104   6.739  37.555  12.933
26844W        W86105   4.385  19.736  14.286
26845W        W86106  34.513   6.298  11.986
26846W        W86107  14.794  43.809   2.802
26847W        W86108  43.311  10.285   0.801
26848W        W86109   7.889  30.935   0.844
26849W        W86110  27.591  44.268  12.401
26850W        W86111  10.796   9.218  12.832
26851W        W86112  44.497  27.608   9.966
26852W        W86113  28.484  19.252   0.255
26853W        W86114  16.797  26.552   5.237
26854W        W86115  43.990  44.425   1.339
26855W        W86116   0.365  34.481   4.239
26856W        W86117  12.746  42.437  12.396
26857W        W86118  26.564  44.265  14.509
26858W        W86119  12.751   6.714   4.305
26859W        W86120  35.868  29.161   4.238
26860W        W86121  27.100  23.647  12.081
26861W        W86122  33.057  39.045  14.027
26862W        W86123  15.264  22.010   0.823
26863W        W86124  16.795  44.929   2.277
26864W        W86125  33.576  40.817  13.436
26865W        W86126  14.101   8.867   3.676
26866W        W86127  16.307   0.810   4.328
26867W        W86128   3.847  36.036   2.289
26868W        W86129   3.767  44.875   1.846
26869W        W86130  40.389  31.087   1.893
26870W        W86131  27.526  36.874  10.504
26871W        W86132   9.675  34.524   2.753
26872W        W86133   2.792  18.557  14.333
26873W        W86134  24.555  26.016   2.325
26874W        W86135  16.572   1.436  14.029
26875W        W86136  35.867  22.529  12.912
26876W        W86137  11.221  39.399   0.813
26877W        W86138   6.415   3.906   2.216
26878W        W86139   5.724  26.161   2.257
26879W        W86140  21.521  24.981  12.062
26880W        W86141  22.039  13.280  14.447
26881W        W86142  43.901   5.901  12.345
26882W        W86143  10.257  34.372   0.289
26883W        W86144  41.913   3.727   3.175
26884W        W86145  31.941  37.067  14.891
26885W        W86146  39.465   9.151  12.982
26886W        W86147  14.216   2.390  14.435
26887W        W86148  11.361  20.141   2.266
26888W        W86149  27.008  37.882  11.069
26889W        W86150  24.131  25.592   0.272
26890W        W86151  12.822   1.304  12.423
26891W        W86152  42.869  43.963  11.514
26892W        W86153  15.322  18.686   0.460
26893W        W86154  37.032  17.694  14.024
26894W        W86155  38.436  39.404  10.628
26895W        W86156   8.888  33.131   3.162
26896W        W86157  21.153  10.677  14.813
26897W        W86158  10.646  24.141  10.500
26898W        W86159  40.522  37.982   3.824
26899W        W86160  40.925  36.031   1.899
26900W        W86161  22.139  38.367  11.058
26901W        W86162  26.647  18.140  10.116
26902W        W86163  26.180  19.269  11.006
26903W        W86164  22.698  14.317   9.924
26904W        W86165   2.730  11.726   0.255
26905W        W86166  14.105  27.169   0.337
26906W        W86167   5.313  11.168  13.808
26907W        W86168  36.440   5.709  11.422
26908W        W86169  29.931  11.357  10.048
26909W        W86170  41.826   2.412  12.059
26910W        W86171   5.853  29.029  11.408
26911W        W86172  22.067  38.528  13.030
26912W        W86173  30.972  10.383  12.866
26913W        W86174  38.945  33.108   3.804
26914W        W86175  20.554   8.352  11.035
26915W        W86176  31.560  26.522  14.988
26916W        W86177  25.213  28.634  11.516
26917W        W86178  10.837  15.113   3.238
26918W        W86179  17.254   8.700  11.933
26919W        W86180  26.504  39.535  14.430
26920W        W86181   7.237  43.791   1.736
26921W        W86182  33.410  17.572   3.302
26922W        W86183  29.520  42.808   2.836
26923W        W86184  39.537  12.756  14.872
26924W        W86185   5.733  15.117  13.403
26925W        W86186  14.591  22.571   0.760
26926W        W86187  35.360   1.283  12.380
26927W        W86188  41.935  39.417  14.479
26928W        W86189   8.801  13.237  14.295
26929W        W86190  39.390  29.076  14.451
26930W        W86191  13.712  27.176   1.714
26931W        W86192  38.482  23.127   3.174
26932W        W86193  43.300  25.967   1.868
26933W        W86194  37.078  12.326  11.500
26934W        W86195   9.355   5.839   0.824
26935W        W86196  33.020  23.693   3.707
26936W        W86197  10.148  11.677   2.781
26937W        W86198  17.767  32.050   4.758
26938W        W86199  35.970  26.513  10.595
26939W        W86200  31.504  34.990   2.721
26940W        W86201  13.739  26.650   2.193
26941W        W86202  25.176  32.503  14.879
26942W        W86203   5.192  21.600   4.605
26943W        W86204  11.841   7.700  11.048
26944W        W86205   8.178  13.707  12.495
26945W        W86206  16.726  13.630  12.900
26946W        W86207  13.110   8.724   2.184
26947W        W86208  18.580  40.473   0.789
26948W        W86209  26.529   0.964   3.654
26949W        W86210  18.617   6.290   0.741
26950W        W86211  24.702  34.465   3.282
26951W        W86212  17.797  18.098  10.085
26952W        W86213  13.778   6.848  13.876
26953W        W86214  18.255   0.966   3.288
26954W        W86215  18.184  27.505  12.085
26955W        W86216   8.680  38.895  10.517
26956W        W86217  24.707  36.560  13.014
26957W        W86218  36.051   6.331  12.991
26958W        W86219   4.729  43.881  14.890
26959W        W86220  29.089  43.409  13.377
26960W        W86221  16.272  16.634  13.043
26961W        W86222  42.345  36.383   2.202
26962W        W86223   8.196  38.021   3.640
26963W        W86224  25.699  34.993  13.452
26964W        W86225   6.320  19.757   4.196
26965W        W86226  43.965   0.870  14.387
26966W        W86227  33.529  18.205  10.632
26967W        W86228  27.992  34.893  13.828
26968W        W86229  15.090  20.628  13.308
26969W        W86230   7.748  23.643   4.606
26970W        W86231  39.052   8.332   4.274
26971W        W86232  42.791  28.494   4.662
26972W        W86233   2.788  42.903  14.971
26973W        W86234  22.688  44.836   3.380
26974W        W86235   6.282  10.266   3.758
26975W        W86236  20.221  29.974   2.851
26976W        W86237   4.771   3.836  11.035
26977W        W86238  25.170  17.288   0.731
26978W        W86239  23.096  23.634   4.643
26979W        W86240  22.033   8.274  11.599
26980W        W86241  23.131   0.759  11.056
26981W        W86242  31.433  17.654  11.889
26982W        W86243  10.666  40.406   3.169
26983W        W86244  43.798  35.952  13.548
26984W        W86245  31.142   3.877   4.765
26985W        W86246  35.033   8.741   0.820
26986W        W86247  15.600   3.745  11.502
26987W        W86248  20.102   2.426  11.027
26988W        W86249   9.787  30.556  14.026
26989W        W86250  14.594  43.845  10.551
26990W        W86251   0.879  41.900   1.384
26991W        W86252   7.716  18.139   4.737
26992W        W86253  29.987  37.570   1.783
26993W        W86254   8.686  14.199   1.825
26994W        W86255  22.167  25.594  12.436
26995W        W86256   8.330   6.383  12.403
26996W        W86257  14.835  43.874  11.014
26997W        W86258  16.271  21.718   2.900
26998W        W86259  41.451  36.509   3.307
26999W        W86260  37.043  38.991  14.488
27000W        W86261  20.584  10.672   4.605
27001W        W86262   8.727  17.081   4.122
27002W        W86263  25.052   5.361   1.451
27003W        W86264  10.172   7.307  10.051
27004W        W86265  35.077  11.650  14.333
27005W        W86266   0.380   2.386   2.258
27006W        W86267  13.322  19.060  11.388
27007W        W86268   1.802  24.188   2.211
27008W        W86269  41.441   3.950   0.835
27009W        W86270  41.846  26.125   2.319
27010W        W86271  10.758  30.120   1.221
27011W        W86272  21.741  41.403   2.812
27012W        W86273  18.100  29.557  14.938
27013W        W86274  36.560  11.832  14.850
27014W        W86275  36.964   1.304  11.866
27015W        W86276  13.293  21.681  13.975
27016W        W86277  44.978  27.086   0.365
27017W        W86278  41.410   3.770  13.309
27018W        W86279  15.219  43.995   0.798
27019W        W86280  27.974  14.680  14.821
27020W        W86281   8.665   5.922  10.623
27021W        W86282  14.657  14.673   1.880
27022W        W86283  31.460  21.047  14.998
27023W        W86284  39.327  43.962  10.609
27024W        W86285   3.929  39.944   5.285
27025W        W86286  43.383  42.989  14.361
27026W        W86287   9.385  13.733   0.776
27027W        W86288  35.907  31.091  11.589
27028W        W86289  13.334  29.141   2.402
27029W        W86290  20.034  27.542  13.949
27030W        W86291  35.448  31.587   2.275
27031W        W86292  34.080  38.563   0.894
27032W        W86293  15.581  34.609  11.558
27033W        W86294  12.177  28.527  10.501
27034W        W86295   3.222  22.617   4.676
27035W        W86296  21.610  13.202  11.560
27036W        W86297  14.813   2.807   3.150
27037W        W86298   3.378   2.375  13.925
27038W        W86299   0.989   2.280  14.418
27039W        W86300  39.869  38.357   3.689
27040W        W86301  15.155  37.379  14.467
27041W        W86302  10.810  43.367  14.804
27042W        W86303  20.640  31.455  11.503
27043W        W86304   4.873   4.425  13.511
27044W        W86305  23.723  34.408  11.423
27045W        W86306   5.360   1.407   1.285
27046W        W86307  32.542  14.787  14.875
27047W        W86308  36.878  27.095   2.741
27048W        W86309  19.261  24.513  10.973
27049W        W86310  23.130  44.850   4.644
27050W        W86311  35.603  30.087   3.721
27051W        W86312  36.517  11.171   1.293
27052W        W86313  44.321  42.815  11.570
27053W        W86314  37.013  26.170  11.080
27054W        W86315  28.179  39.380  15.000
27055W        W86316  32.103  41.484   9.487
27056W        W86317   3.853  12.144   3.706
27057W        W86318  44.416   0.251   4.704
27058W        W86319  20.614  33.012  10.943
27059W        W86320  22.626  12.363  11.046
27060W        W86321  36.843  35.107   3.229
27061W        W86322  42.398  27.673  10.413
27062W        W86323   5.391  10.232  13.951
27063W        W86324  18.600  18.612   3.809
27064W        W86325  11.277  41.006   2.819
27065W        W86326  11.744  43.465   2.334
27066W        W86327   5.243  43.865   1.264
27067W        W86328   5.776  22.716  13.486
27068W        W86329   8.168  30.549   4.301
27069W        W86330  15.603  39.365  14.439
27070W        W86331  23.632  17.199  11.878
27071W        W86332   0.774   3.914  11.857
27072W        W86333   7.335  43.384   4.167
27073W        W86334   7.344  29.974   3.740
27074W        W86335   9.670  32.449  10.535
27075W        W86336  26.563  27.482   1.373
27076W        W86337   8.882  11.272   3.178
27077W        W86338  37.004  13.835   0.296
27078W        W86339  25.648  34.914   1.921
27079W        W86340  23.050  42.334  13.910
27080W        W86341  10.141  40.018   3.755
27081W        W86342   2.951  29.625   4.690
27082W        W86343  37.007  34.048   5.774
27083W        W86344  40.854   5.770   0.464
27084W        W86345  15.272  12.759   3.866
27085W        W86346   0.342  25.659   1.859
27086W        W86347  42.368  23.616   0.872
27087W        W86348  25.028  17.745   4.700
27088W        W86349  11.660  28.128  11.119
27089W        W86350  34.448  35.900  12.444
27090W        W86351  11.739  35.408   0.912
27091W        W86352   8.337  14.663  10.469
27092W        W86353   6.186  20.656   3.751
27093W        W86354  36.960  14.820   4.185
27094W        W86355   1.372  29.617  12.554
27095W        W86356  19.650  16.271  11.464
27096W        W86357   7.400  22.145   0.909
27097W        W86358  31.110  22.725   0.805
27098W        W86359  10.329  31.004   4.650
27099W        W86360  22.022   1.851  10.966
27100W        W86361  17.247  30.485  12.040
27101W        W86362  43.440  27.089   4.711
27102W        W86363  18.577  11.698  11.026
27103W        W86364  37.406   3.837   3.326
27104W        W86365  25.097  13.765   2.842
27105W        W86366  38.530  28.142   1.392
27106W        W86367  22.155  17.735   0.454
27107W        W86368  26.174   8.244  13.527
27108W        W86369  23.159  43.357   0.402
27109W        W86370  25.491  24.576  10.012
27110W        W86371   1.895  36.082  12.931
27111W        W86372  27.643  39.993  12.355
27112W        W86373  26.037  27.648   3.197
27113W        W86374  10.345   5.868   2.247
27114W        W86375  25.580  23.131  12.348
27115W        W86376  38.000   3.399   5.149
27116W        W86377   1.308  27.041   0.821
27117W        W86378   5.234  24.184  11.379
27118W        W86379  41.420  32.552  13.368
27119W        W86380  36.432  16.276   1.215
27120W        W86381  38.458  11.215   4.793
27121W        W86382   3.346  23.608   2.409
27122W        W86383   4.835   6.399  10.041
27123W        W86384  27.020  18.606  11.896
27124W        W86385  34.044  18.739  10.993
27125W        W86386  30.416  43.920  11.599
27126W        W86387  33.914  33.518  14.504
27127W        W86388   8.782  31.123   2.746
27128W        W86389  44.798  10.751   0.920
27129W        W86390  29.600  32.029  11.948
27130W        W86391  22.043  25.690  14.798
27131W        W86392  22.011  27.639   2.394
27132W        W86393  20.643   8.798   4.157
27133W        W86394  25.175  38.519   0.412
27134W        W86395  18.113  24.689  12.467
27135W        W86396   7.198  39.881   3.713
27136W        W86397  39.063  10.653   1.292
27137W        W86398   4.700  29.056  14.983
27138W        W86399  30.645  26.039   0.287
27139W        W86400  38.944  12.177   0.789
27140W        W86401   4.435  19.282   1.810
27141W        W86402  31.145  17.126   0.474
27142W        W86403  43.368   4.216   3.246
27143W        W86404  14.327   9.335  11.060
27144W        W86405  23.011  36.940  12.471
27145W        W86406  10.374  22.624  12.551
27146W        W86407   1.801   1.748   4.659
27147W        W86408   1.368  40.835   2.851
27148W        W86409  28.497  39.813   0.830
27149W        W86410  10.373  21.706   4.170
27150W        W86411  18.769  34.109   0.889
27151W        W86412  42.450   6.851   1.257
27152W        W86413   4.704   6.240   3.667
27153W        W86414  19.602  40.915   3.649
27154W        W86415  44.355  16.114   4.643
27155W        W86416  42.441   1.455  11.939
27156W        W86417  20.686  18.764   1.720
27157W        W86418   8.346  30.581   3.641
27158W        W86419  33.956   8.777  10.550
27159W        W86420  43.364  33.396  14.916
27160W        W86421  39.014   7.731  14.365
27161W        W86422  44.278   4.796  12.472
27162W        W86423  25.011  25.618   2.336
27163W        W86424  28.146  39.481   0.729
27164W        W86425  23.181  19.180   1.876
27165W        W86426   9.289  31.450  11.961
27166W        W86427   6.687   7.256   2.837
27167W        W86428  15.249   9.255  12.961
27168W        W86429  34.570  41.806   0.265
27169W        W86430  28.672  32.892  12.545
27170W        W86431   0.825  41.426  11.911
27171W        W86432  41.811  36.056   1.280
27172W        W86433  23.084   1.388  10.921
27173W        W86434   9.758  21.543   4.788
27174W        W86435   8.681  26.962  13.962
27175W        W86436  40.421  18.138  13.545
27176W        W86437  33.005   8.802   4.341
27177W        W86438   8.845   1.786  10.922
27178W        W86439  10.685   8.810   0.436
27179W        W86440  10.718  44.347   2.741
27180W        W86441  16.212  38.549   0.951
27181W        W86442  11.722  22.634  14.769
27182W        W86443  22.658  22.696   0.417
27183W        W86444  10.145   2.880   5.304
27184W        W86445  24.163  31.004  13.497
27185W        W86446  36.078  13.696  12.954
27186W        W86447  18.069   3.825   1.737
27187W        W86448  16.585  19.589  13.835
27188W        W86449  11.211  29.064   4.134
27189W        W86450  41.996  14.784  13.438
27190W        W86451  35.971  22.072  10.460
27191W        W86452  14.830  44.435  13.933
27192W        W86453  44.936  12.325  13.870
27193W        W86454   7.786  43.987   4.652
27194W        W86455   3.420  35.912   1.300
27195W        W86456  22.094  21.587  14.339
27196W        W86457  32.608  22.631  11.002
27197W        W86458  12.306  37.988  14.463
27198W        W86459   9.670   4.835   3.266
27199W        W86460  28.643  38.396   1.265
27200W        W86461  35.062   0.976   5.215
27201W        W86462  39.519  28.574   2.269
27202W        W86463  26.533  10.200  15.000
27203W        W86464   7.692   6.703   3.282
27204W        W86465  39.359  25.035   2.849
27205W        W86466  30.024  39.865   2.752
27206W        W86467  27.476  20.741   3.692
27207W        W86468   4.905  25.646  12.362
27208W        W86469  36.921  23.648   2.379
27209W        W86470  24.114  33.612   1.281
27210W        W86471  27.186  24.134   2.234
27211W        W86472  13.234  12.782  14.495
27212W        W86473   5.917  20.197   3.782
27213W        W86474  21.228   1.737  12.943
27214W        W86475  42.975  19.650  10.460
27215W        W86476  22.731  15.776  11.551
27216W        W86477  33.591  25.219   2.812
27217W        W86478  14.328  34.011  11.433
27218W        W86479   0.890   5.436  12.355
27219W        W86480  24.051   8.319   4.598
27220W        W86481   0.858  28.078  11.465
27221W        W86482  38.950  26.061  11.939
27222W        W86483   0.439  12.188  10.927
27223W        W86484   7.227   0.774  11.969
27224W        W86485  39.815  20.568   3.839
27225W        W86486  33.476  26.519   0.840
27226W        W86487  25.214   8.861  11.037
27227W        W86488  44.300  20.091  11.470
27228W        W86489  44.468   5.406  14.512
27229W        W86490  36.922  17.125   4.628
27230W        W86491  39.512  39.974  12.549
27231W        W86492   7.372  21.191   3.765
27232W        W86493  20.722  16.651  13.323
27233W        W86494  41.957  14.804  11.957
27234W        W86495   2.932  28.522  10.504
27235W        W86496  22.535  32.574  11.600
27236W        W86497   9.870  29.435  11.111
27237W        W86498  29.099  20.248  10.476
27238W        W86499  17.771  12.805  11.064
27239W        W86500  17.643  21.055  12.484
27240W        W86501  10.319  32.620  14.930
27241W        W86502  34.468  15.220   3.661
27242W        W86503  13.603  44.478   4.799
27243W        W86504  20.662  42.494  13.482
27244W        W86505   3.380  26.045   2.277
27245W        W86506  12.151  39.476  14.360
27246W        W86507  22.623  38.972  14.363
27247W        W86508  24.675  31.088  12.007
27248W        W86509  37.560   2.461   5.148
27249W        W86510   0.889  25.503   1.265
27250W        W86511  27.588  35.858  13.477
27251W        W86512  26.514  43.937   2.702
27252W        W86513   8.329  39.966  13.390
27253W        W86514  23.708  38.031   3.306
27254W        W86515   1.974  19.589  12.358
27255W        W86516   7.362   2.267  11.984
27256W        W86517  19.153  14.126  12.445
27257W        W86518  33.065  27.195  11.121
27258W        W86519  24.566  27.616   5.093
27259W        W86520  20.226  32.008  14.843
27260W        W86521  37.413  34.088  13.899
27261W        W86522  39.051   7.272   0.845
27262W        W86523   7.716  35.929  12.456
27263W        W86524  36.370   3.867   2.882
27264W        W86525  30.982  19.588  12.963
27265W        W86526  24.152  32.016   3.848
27266W        W86527  30.027  28.598   4.623
27267W        W86528  25.215  13.719  14.829
27268W        W86529  30.626  33.904  11.121
27269W        W86530   5.241  21.136  11.077
27270W        W86531  29.538   1.931   2.865
27271W        W86532  44.304   7.854  12.395
27272W        W86533  21.211  29.955   2.289
27273W        W86534  20.550  42.510  14.282
27274W        W86535  35.595  12.331   1.228
27275W        W86536  37.948  38.058   2.764
27276W        W86537   5.327  25.704  12.508
27277W        W86538  34.105  28.525  10.600
27278W        W86539  24.657  30.921   4.746
27279W        W86540  13.734  44.966   1.854
27280W        W86541  12.760   3.442   2.724
27281W        W86542  20.714   5.857  14.790
27282W        W86543  30.637   1.832   0.249
27283W        W86544  11.740  40.918   0.923
27284W        W86545   3.713  36.563  12.537
27285W        W86546  26.079  17.700   4.698
27286W        W86547  21.693  17.612   0.262
27287W        W86548  31.044  22.233   1.328
27288W        W86549  44.825  24.987   3.210
27289W        W86550  42.285  27.024  12.021
27290W        W86551  27.520  36.046   2.691
27291W        W86552  18.609  16.117  13.388
27292W        W86553   4.894  18.207  12.454
27293W        W86554  27.148  34.863   1.306
27294W        W86555  43.910   6.397  11.476
27295W        W86556  12.276  36.010  12.428
27296W        W86557  29.465  18.204   2.740
27297W        W86558  24.138  33.513   0.312
27298W        W86559  15.764  31.063  12.419
27299W        W86560  30.420  24.092   2.864
27300W        W86561   6.245   0.442  14.914
27301W        W86562  27.518  34.460   9.528
27302W        W86563   7.804  26.092   2.852
27303W        W86564  30.949  15.614   5.168
27304W        W86565  17.771   2.817  12.936
27305W        W86566  32.051   4.240   1.899
27306W        W86567  34.883  22.691   4.140
27307W        W86568  11.147  38.397   0.274
27308W        W86569   2.741  31.472   1.709
27309W        W86570  18.783  40.414  11.993
27310W        W86571   5.313  16.097  13.940
27311W        W86572  30.981  14.716   0.434
27312W        W86573  41.976  36.432   1.873
27313W        W86574  39.501  34.376  12.364
27314W        W86575  30.454  38.994  13.968
27315W        W86576  25.512  39.415   1.444
27316W        W86577   1.250   8.793  10.592
27317W        W86578  35.377   8.836  12.093
27318W        W86579   9.763   3.922   2.275
27319W        W86580   6.786  33.009   1.801
27320W        W86581  25.980  26.080  10.486
27321W        W86582  18.592  26.700  10.961
27322W        W86583  26.691   5.782  13.043
27323W        W86584  38.955   6.269   3.353
27324W        W86585  13.265  41.358   4.607
27325W        W86586  17.202   5.904  13.502
27326W        W86587   4.830  23.114   3.707
27327W        W86588   3.227  29.037  12.925
27328W        W86589  44.006   4.728   2.405
27329W        W86590  27.068  11.807  11.061
27330W        W86591  23.610  10.334   3.685
27331W        W86592  10.875  12.336  13.042
27332W        W86593  19.114  33.977   0.252
27333W        W86594  17.794  38.469   2.195
27334W        W86595  43.945  19.653  12.970
27335W        W86596  34.602  26.140   1.278
27336W        W86597   7.791   9.793  10.474
27337W        W86598  37.027  18.131   1.797
27338W        W86599  20.099  10.860  14.030
27339W        W86600  21.161   8.793   3.297
27340W        W86601  39.990  41.841   3.778
27341W        W86602  27.503  24.554  10.631
27342W        W86603  31.135  35.864  12.554
27343W        W86604   5.305  39.515  13.802
27344W        W86605  11.708   0.338  12.437
27345W        W86606  23.594  24.672   1.791
27346W        W86607  22.535  12.262   3.749
27347W        W86608  42.978  29.976   1.861
27348W        W86609  21.096  30.568   1.221
27349W        W86610  34.443   9.268  12.502
27350W        W86611  30.433   7.691   1.387
27351W        W86612  30.488  36.938   0.365
27352W        W86613  42.859  41.407   1.822
27353W        W86614  35.366   6.185  10.486
27354W        W86615  23.660  28.482   0.442
27355W        W86616  14.744  40.851   4.209
27356W        W86617   4.308  32.136  12.452
27357W        W86618  10.228  39.347   2.831
27358W        W86619   8.232  16.773   4.674
27359W        W86620   9.161   9.700  12.892
27360W        W86621  15.258   9.727   1.859
27361W        W86622  25.076  44.334  14.837
27362W        W86623  10.763  24.070  11.943
27363W        W86624  18.757  30.110  11.980
27364W        W86625  29.543  38.005  13.388
27365W        W86626  38.013  36.098   1.766
27366W        W86627   5.423   3.811   4.615
27367W        W86628  25.676   1.900  12.920
27368W        W86629  41.012  25.971   1.278
27369W        W86630  18.759  25.511   3.752
27370W        W86631   2.779  37.492  11.581
27371W        W86632  31.906  34.990  14.877
27372W        W86633  12.156   4.780  11.024
27373W        W86634  42.809  30.152  11.071
27374W        W86635  15.795  38.421  12.428
27375W        W86636  14.309  40.458  10.565
27376W        W86637  29.140  40.827   0.841
27377W        W86638  33.969  31.639   4.332
27378W        W86639  38.529  32.554  12.927
27379W        W86640   3.412   7.205  12.385
27380W        W86641   2.227  18.121  14.438
27381W        W86642  31.612  12.845  14.383
27382W        W86643  41.037  28.026   4.671
27383W        W86644  38.392  41.825  11.957
27384W        W86645  10.312  30.958   1.312
27385W        W86646  23.202  11.662  11.470
27386W        W86647  13.259   6.852  12.947
27387W        W86648  37.013  38.923  11.994
27388W        W86649  16.581   8.268   0.741
27389W        W86650  20.135  32.021   2.252
27390W        W86651   2.416  20.207  12.884
27391W        W86652  13.808   3.947  13.409
27392W        W86653  37.466  10.808  13.412
27393W        W86654   2.902  39.535   3.205
27394W        W86655  32.035  19.584  14.491
27395W        W86656  20.752  40.423   0.758
27396W        W86657  16.172  28.599   1.281
27397W        W86658  25.074  31.961  14.834
27398W        W86659  36.057  35.859  13.835
27399W        W86660  18.127  36.027  12.949
27400W        W86661  41.831   3.220  12.573
27401W        W86662  21.735  36.566   0.285
27402W        W86663  37.492  31.591  10.104
27403W        W86664  22.734   6.421  12.485
27404W        W86665  18.101  37.957   3.685
27405W        W86666   7.399  24.516   2.798
27406W        W86667  17.711  12.703   3.237
27407W        W86668  18.690  12.272   1.313
27408W        W86669  13.338   1.290   4.128
27409W        W86670   6.916  27.025   0.894
27410W        W86671  37.850  27.974  11.590
27411W        W86672  41.863  16.621   3.193
27412W        W86673   8.847  36.944  14.848
27413W        W86674  42.954  42.911   2.753
27414W        W86675  34.459  26.554   2.847
27415W        W86676   8.341   0.412   0.350
27416W        W86677  23.697   7.272  12.842
27417W        W86678  17.197   6.363  13.854
27418W        W86679  25.639   4.262   4.682
27419W        W86680  26.163  44.993  14.452
27420W        W86681  31.061  11.353   9.974
27421W        W86682  12.716  29.965  11.989
27422W        W86683  32.609  14.823  10.495
27423W        W86684  25.213  22.533   3.840
27424W        W86685  43.766  43.997   4.683
27425W        W86686  43.445  40.457   1.874
27426W        W86687  20.076  25.568   2.289
27427W        W86688  34.905  44.444  11.479
27428W        W86689  32.559  21.731  11.002
27429W        W86690  16.313  22.122   0.729
27430W        W86691  20.753   4.880  13.444
27431W        W86692   7.740  24.112   3.711
27432W        W86693  39.319  16.672  12.964
27433W        W86694  29.016  25.525   1.924
27434W        W86695  19.237  10.306  13.339
27435W        W86696  29.165   1.288  13.401
27436W        W86697   8.685  40.922  11.609
27437W        W86698   4.905  44.811   0.268
27438W        W86699  39.461  15.694  11.609
27439W        W86700  27.948   4.443  10.125
27440W        W86701  15.279  31.049   4.274
27441W        W86702  10.848  19.086  11.570
27442W        W86703   0.801  27.014   1.306
27443W        W86704  32.623  34.041   4.195
27444W        W86705  35.471   5.799   4.334
27445W        W86706  16.296  12.672  10.603
27446W        W86707  41.415  17.236   4.750
27447W        W86708  43.986  19.617   4.832
27448W        W86709   8.888  35.496   0.960
27449W        W86710  18.684  41.821   1.361
27450W        W86711  24.682   3.312   4.631
27451W        W86712  26.997  21.087  13.909
27452W        W86713  12.769  14.613  11.893
27453W        W86714  14.699  25.074  14.760
27454W        W86715  29.119   1.243   2.828
27455W        W86716  17.182  44.404  10.504
27456W        W86717  30.007   4.939   4.155
27457W        W86718  28.053  17.143  12.010
27458W        W86719  40.367   9.689   2.253
27459W        W86720  44.004   9.874   3.223
27460W        W86721  11.156   9.691  13.024
27461W        W86722  42.781  39.470   0.385
27462W        W86723  12.186  17.777   3.266
27463W        W86724  13.748  40.007  10.510
27464W        W86725  12.632   8.191  11.536
27465W        W86726  16.293  39.913  12.971
27466W        W86727  10.714  32.434  12.363
27467W        W86728  18.717  20.091   3.644
27468W        W86729  15.654  30.540  13.809
27469W        W86730  25.171  31.110   2.343
27470W        W86731  31.416  12.177   3.698
27471W        W86732  38.053   1.901  13.872
27472W        W86733  15.238  29.523   2.236
27473W        W86734   0.826  22.726   0.416
27474W        W86735  11.637  33.916   3.838
27475W        W86736   7.757  40.026   2.841
27476W        W86737  14.835  23.603  12.417
27477W        W86738  18.256  36.530   0.320
27478W        W86739  43.393  13.633  11.555
27479W        W86740  14.149  29.041   2.763
27480W        W86741  22.560   1.846  11.864
27481W        W86742  31.529  15.700   1.215
27482W        W86743  15.289   5.296  10.442
27483W        W86744  42.991  17.569   1.307
27484W        W86745   7.764  42.311   4.208
27485W        W86746  40.483  18.190  13.886
27486W        W86747  38.834  36.905   0.948
27487W        W86748  42.799   7.678  13.369
27488W        W86749  19.733  34.039   3.379
27489W        W86750  25.563  33.600   2.795
27490W        W86751  37.962  24.523   3.384
27491W        W86752  29.616  14.663   0.867
27492W        W86753  22.504  19.111   0.307
27493W        W86754  40.816  23.632  12.077
27494W        W86755  35.981   7.830   3.304
27495W        W86756  33.580  12.656   5.760
27496W        W86757   7.397  44.300  13.467
27497W        W86758  42.914   6.748   2.417
27498W        W86759  41.368  23.595   2.871
27499W        W86760  39.052   0.882  10.585
27500W        W86761   2.438  40.841   0.258
27501W        W86762  12.807  19.050  13.468
27502W        W86763  20.135  19.695   0.468
27503W        W86764  36.380  34.553   5.149
27504W        W86765  24.054  32.068   5.087
27505W        W86766   4.746  15.599  14.924
27506W        W86767  12.247  33.435   4.301
27507W        W86768   8.359  36.989   2.865
27508W        W86769  22.075  19.111  14.513
27509W        W86770  43.492  41.500   0.285
27510W        W86771  11.353  39.971  10.445
27511W        W86772   5.726  18.226   1.720
27512W        W86773   7.711  14.153  11.494
27513W        W86774  40.371   3.897  14.318
27514W        W86775   0.395   6.201  12.083
27515W        W86776  40.540  15.240   0.934
27516W        W86777  26.571   1.313  11.101
27517W        W86778  19.741  26.622  13.410
27518W        W86779   9.351  22.197   3.802
27519W        W86780  44.953   9.222   2.854
27520W        W86781  18.081  40.827   2.372
27521W        W86782  25.521  36.894  14.026
27522W        W86783  32.537  32.493   0.741
27523W        W86784   1.902  11.370   1.905
27524W        W86785   5.835  38.409   0.308
27525W        W86786  27.497  12.186   3.764
27526W        W86787  29.967   6.812  12.941
27527W        W86788  38.914  35.490  10.629
27528W        W86789  27.505  10.736   0.792
27529W        W86790  31.482   0.839  11.527
27530W        W86791  40.423  37.373  11.487
27531W        W86792  23.502   5.422   0.907
27532W        W86793   2.304   0.467  13.534
27533W        W86794  20.074  38.898  12.367
27534W        W86795  24.567  18.053   0.930
27535W        W86796  24.079  11.135  12.023
27536W        W86797  44.274  34.112  13.905
27537W        W86798  27.005  21.577   4.215
27538W        W86799  18.674   5.900   4.649
27539W        W86800  20.719  17.271   4.695
27540W        W86801  29.009  20.561   2.342
27541W        W86802  14.133  26.126   3.811
27542W        W86803  10.282   5.823   2.664
27543W        W86804   8.709   5.410   0.328
27544W        W86805  37.948   7.364  12.506
27545W        W86806  38.361  17.703   1.447
27546W        W86807  22.569  16.803  11.612
27547W        W86808  34.091  12.247   2.809
27548W        W86809  11.836  44.416   3.233
27549W        W86810  17.117  37.518   1.886
27550W        W86811  40.388  27.622  12.919
27551W        W86812   7.876  40.851   3.312
27552W        W86813  18.203  42.017  11.482
27553W        W86814  26.097  22.049  12.524
27554W        W86815   2.830  14.239  13.467
27555W        W86816  14.764  40.399   0.363
27556W        W86817   4.291  16.733  11.374
27557W        W86818  19.164  27.186   1.323
27558W        W86819  22.643  22.636   0.865
27559W        W86820  34.608  33.390   3.791
27560W        W86821  41.460  13.727  10.435
27561W        W86822  32.064  21.067   0.741
27562W        W86823  21.041  15.206   0.379
27563W        W86824  21.091  21.685  11.528
27564W        W86825  43.782  34.592  13.840
27565W        W86826   9.309   7.822   0.477
27566W        W86827  29.985  17.770   2.317
27567W        W86828  26.505   7.384   0.332
27568W        W86829  30.985   6.714   2.377
27569W        W86830  17.586  23.198  13.511
27570W        W86831  34.425  39.008  13.309
27571W        W86832  13.700  38.473   3.791
27572W        W86833   8.797  24.649  11.454
27573W        W86834  33.557  32.912   0.817
27574W        W86835  30.566  39.963   3.230
27575W        W86836  31.567  14.312  10.889
27576W        W86837  30.003  35.056  12.406
27577W        W86838  30.558  43.918   2.776
27578W        W86839  27.569  13.697   3.774
27579W        W86840   4.369   6.364  11.913
27580W        W86841   3.794  25.588   0.858
27581W        W86842  13.697  39.489   4.334
27582W        W86843  40.891  39.866  13.977
27583W        W86844  16.596   1.286  11.572
27584W        W86845  29.636  26.046  12.545
27585W        W86846  31.982   7.779   4.142
27586W        W86847  34.601  25.589   3.689
27587W        W86848   6.404  22.611  13.846
27588W        W86849  21.657  26.994   3.839
27589W        W86850   0.946  17.073  13.430
27590W        W86851   7.313  37.853  14.302
27591W        W86852  10.733  16.244  13.453
27592W        W86853  29.604  42.366   4.280
27593W        W86854  39.013  42.437  10.538
27594W        W86855  38.492  18.188   2.407
27595W        W86856  41.501   5.326  12.406
27596W        W86857  32.077   8.331  11.096
27597W        W86858  17.079   5.337   0.842
27598W        W86859  24.172   7.327   0.455
27599W        W86860  27.190  26.983  12.372
27600W        W86861  23.217  41.946  12.014
27601W        W86862   8.721   6.299  14.878
27602W        W86863  35.054  43.922   1.246
27603W        W86864  39.809  22.210  12.450
27604W        W86865  12.855  17.662   0.966
27605W        W86866  10.286  15.797   9.662
27606W        W86867   7.299   7.671  13.332
27607W        W86868  13.325  21.176  13.522
27608W        W86869   0.969   0.935  12.339
27609W        W86870   0.352  21.600  11.374
27610W        W86871  29.661  42.306   1.912
27611W        W86872  29.669  41.404   0.442
27612W        W86873  27.064  32.027  10.936
27613W        W86874   2.363  40.896   3.710
27614W        W86875  32.930   8.851  10.557
27615W        W86876  40.936  20.244  10.582
27616W        W86877  41.938   1.871   4.210
27617W        W86878  13.619  30.440   2.341
27618W        W86879  44.937  20.587  12.966
27619W        W86880   1.974  42.422  13.862
27620W        W86881  40.470  43.942   0.819
27621W        W86882  39.478  26.163  11.600
27622W        W86883  23.110   4.792  13.875
27623W        W86884  15.712  11.711   1.282
27624W        W86885  18.191  16.274   4.833
27625W        W86886   2.368   3.420  12.831
27626W        W86887  16.620  40.415   4.652
27627W        W86888  22.031  33.544  13.316
27628W        W86889   9.782   0.439   4.607
27629W        W86890  21.514  32.404  13.827
27630W        W86891   2.426   4.214  12.562
27631W        W86892  24.548  23.234  12.013
27632W        W86893  13.774  10.713   1.223
27633W        W86894  31.518  43.964  14.864
27634W        W86895  13.284   6.386   3.853
27635W        W86896  28.474   4.944   2.290
27636W        W86897  34.525  34.978  10.148
27637W        W86898   6.795   7.329   1.866
27638W        W86899  27.689  14.734  13.977
27639W        W86900  34.982   7.238  11.570
27640W        W86901  44.756  14.635   4.203
27641W        W86902  24.698  11.325   3.328
27642W        W86903  25.633  35.025   2.759
27643W        W86904  12.748  28.050   4.204
27644W        W86905  22.548  28.061   4.222
27645W        W86906  34.075  16.284  14.414
27646W        W86907   4.944  29.484   4.279
27647W        W86908  31.572  35.889   0.811
27648W        W86909  19.721   1.402   3.644
27649W        W86910  39.967  44.382   1.865
27650W        W86911  21.522  26.693  14.413
27651W        W86912   8.223   3.244   3.151
27652W        W86913  41.435  11.169   1.703
27653W        W86914   1.901  32.521   1.333
27654W        W86915  35.107  28.140  13.977
27655W        W86916   2.879  21.599   3.839
27656W        W86917  24.205  33.500  14.758
27657W        W86918   4.901  16.114   0.803
27658W        W86919   2.907  24.979   3.160
27659W        W86920  31.065   3.768  14.297
27660W        W86921  35.418  42.884   2.355
27661W        W86922  18.277  44.790  12.382
27662W        W86923  38.494   3.453   4.235
27663W        W86924  33.069  27.576  10.423
27664W        W86925  27.528   6.789  14.292
27665W        W86926  10.244  15.325   2.895
27666W        W86927  27.095  14.658  13.429
27667W        W86928  17.180  36.528  12.446
27668W        W86929   1.441  37.338  11.926
27669W        W86930   2.913  35.020  14.335
27670W        W86931  11.238  39.338  11.906
27671W        W86932  19.640  23.635  14.791
27672W        W86933   8.831  36.909  13.837
27673W        W86934  33.559  25.099   0.484
27674W        W86935   5.767  21.531  10.906
27675W        W86936   9.702  29.592   3.314
27676W        W86937  24.700  39.543  13.334
27677W        W86938  29.108  36.923  12.907
27678W        W86939  32.959  28.621  13.469
27679W        W86940  32.914  22.629  13.533
27680W        W86941  34.530  28.589  12.470
27681W        W86942  44.938  10.852  14.296
27682W        W86943   9.731   3.359   0.798
27683W        W86944   3.778  39.875   4.618
27684W        W86945  12.259  20.718   1.841
27685W        W86946  43.020  42.912   3.369
27686W        W86947  31.941  36.370   1.706
27687W        W86948  11.321  23.565  13.395
27688W        W86949  38.556  20.659  12.846
27689W        W86950  23.713   7.224   4.695
27690W        W86951  24.627   6.817  14.939
27691W        W86952  21.183  22.144   3.280
27692W        W86953   1.878   7.202   3.214
27693W        W86954  36.570  13.661   1.237
27694W        W86955  41.480   8.308   4.258
27695W        W86956  16.655  25.656   2.260
27696W        W86957  10.169   6.740  12.955
27697W        W86958  14.766   9.286  11.381
27698W        W86959  16.084  36.057   2.804
27699W        W86960  35.592   1.372  13.027
27700W        W86961  39.020  35.363  12.573
27701W        W86962  41.346  25.620   0.866
27702W        W86963  20.579   8.234  12.523
27703W        W86964   8.324  21.118  14.321
27704W        W86965  16.685  41.314  11.412
27705W        W86966  26.146  30.618  14.779
27706W        W86967  11.167   5.724   3.359
27707W        W86968  16.763  28.648  13.331
27708W        W86969  24.686  17.698   3.288
27709W        W86970  23.603  27.962  10.503
27710W        W86971  42.459  16.271  11.994
27711W        W86972  29.635   0.766   4.808
27712W        W86973  23.239  36.872   0.435
27713W        W86974  16.254  41.959  13.945
27714W        W86975   4.307  44.963  14.490
27715W        W86976  21.030  25.492   1.257
27716W        W86977  29.067   2.957  10.442
27717W        W86978  23.192  23.111   5.308
27718W        W86979   2.874  43.820   0.442
27719W        W86980  14.663  27.510  14.313
27720W        W86981  19.273  42.001   1.312
27721W        W86982  21.126  34.526  13.470
27722W        W86983   0.404  26.562   4.788
27723W        W86984  36.426  22.055  11.507
27724W        W86985   1.884  10.356   1.438
27725W        W86986  29.456  26.501  12.550
27726W        W86987  21.754  43.414  14.421
27727W        W86988  25.036  29.534   4.782
27728W        W86989  41.409   8.367  11.578
27729W        W86990   0.342   6.269   2.831
27730W        W86991  35.514  34.931   2.734
27731W        W86992   6.877   0.988   3.754
27732W        W86993  42.327  39.540  13.852
27733W        W86994   0.751  40.848  12.843
27734W        W86995  31.113  42.792   2.851
27735W        W86996  18.086  42.448   0.353
27736W        W86997  39.423  25.667   0.746
27737W        W86998   1.967  22.630   3.808
27738W        W86999  29.109  30.001   3.338
27739W        W87000  34.885  14.710   3.266
27740W        W87001  37.918  24.142   4.711
27741W        W87002  40.403  29.517   0.825
27742W        W87003   3.935  25.049   2.246
27743W        W87004  38.041   3.747  11.056
27744W        W87005  40.869  13.834   0.755
27745W        W87006   4.765  10.723   2.812
27746W        W87007  21.593  40.423   3.633
27747W        W87008  11.186  42.515   0.951
27748W        W87009  11.730  35.398  10.457
27749W        W87010  37.442  44.380   0.801
27750W        W87011  36.387  31.101   1.818
27751W        W87012  30.419  15.144  12.877
27752W        W87013  23.101  26.083  14.789
27753W        W87014   0.276  15.152  12.873
27754W        W87015  24.188  31.996  10.504
27755W        W87016  30.927  43.963   2.244
27756W        W87017  31.519  38.476  13.865
27757W        W87018   3.906  13.241  12.483
27758W        W87019   7.392  32.046   2.773
27759W        W87020  14.336  31.147   3.750
27760W        W87021  16.650  35.912  11.884
27761W        W87022  25.514  15.191   4.206
27762W        W87023  16.156  37.505   2.798
27763W        W87024   4.754  43.310  12.941
27764W        W87025  41.410  15.752   4.672
27765W        W87026   4.409  33.986  10.489
27766W        W87027  35.533   0.484   3.861
27767W        W87028   7.866  17.270   4.205
27768W        W87029  17.285   7.874   3.207
27769W        W87030  21.691  21.034   5.082
27770W        W87031  12.761   7.196  13.030
27771W        W87032  14.148  23.048  11.542
27772W        W87033  32.576  22.097  10.907
27773W        W87034  37.436  35.457   9.985
27774W        W87035  31.952   9.370   3.357
27775W        W87036  20.600  27.174  11.865
27776W        W87037   1.408  27.691   4.811
27777W        W87038  40.878  29.009  13.476
27778W        W87039  42.432   2.899   4.612
27779W        W87040  17.166  27.625   3.228
27780W        W87041   2.267  40.818   4.117
27781W        W87042  18.589  21.569   5.578
27782W        W87043  16.806  17.772   2.743
27783W        W87044  42.930  43.900   1.709
27784W        W87045  13.689  35.431   0.267
27785W        W87046   7.208  29.115  14.474
27786W        W87047  44.980  17.583   4.798
27787W        W87048  23.519  25.134  14.760
27788W        W87049  42.822  42.318  13.932
27789W        W87050  24.646  24.078   0.290
27790W        W87051  29.498  44.471   0.841
27791W        W87052  24.140  32.535   2.292
27792W        W87053  36.448  43.462   4.155
27793W        W87054   7.388  21.586  10.476
27794W        W87055  19.613  29.524   4.211
27795W        W87056  40.952  36.095  14.401
27796W        W87057  14.286  23.122   0.329
27797W        W87058  27.687  21.204  10.497
27798W        W87059  32.079  13.189   4.722
27799W        W87060  33.566  31.056  14.286
27800W        W87061  17.102  44.477   3.236
27801W        W87062  28.504  43.952   4.242
27802W        W87063  10.792  33.446  14.817
27803W        W87064  15.175  24.032   1.825
27804W        W87065  41.313  36.905  14.451
27805W        W87066   4.405  27.970  11.073
27806W        W87067  33.475  14.130  14.305
27807W        W87068  20.529   6.728  13.798
27808W        W87069   0.895  30.955   1.281
27809W        W87070  23.608  41.966   3.326
27810W        W87071   7.671  41.350   0.353
27811W        W87072  22.056  16.644   4.824
27812W        W87073  22.646   4.942   3.696
27813W        W87074  39.885  35.015  12.048
27814W        W87075   2.280  16.288   2.373
27815W        W87076  35.563   7.703  11.057
27816W        W87077   7.206   7.712   4.213
27817W        W87078  21.630   7.716   1.342
27818W        W87079  24.706  21.032  11.440
27819W        W87080  30.625   1.311  12.388
27820W        W87081  13.147  25.541   1.839
27821W        W87082  25.677  25.630   2.815
27822W        W87083   2.427  28.515  14.446
27823W        W87084  15.192  38.077  12.053
27824W        W87085  31.415   6.422   3.162
27825W        W87086  17.066  21.199   2.896
27826W        W87087   0.783  44.937   3.718
27827W        W87088  11.771  31.998   3.752
27828W        W87089  43.360  40.518   0.292
27829W        W87090   6.875  24.037  13.906
27830W        W87091  42.408  14.599   2.192
27831W        W87092   1.780  23.155   0.377
27832W        W87093  10.850  34.982  13.832
27833W        W87094  10.246  20.652  14.456
27834W        W87095  10.653  19.041   1.727
27835W        W87096  15.320  32.021   0.245
27836W        W87097  39.323  36.531  12.444
27837W        W87098   8.789   5.716   1.883
27838W        W87099   5.736  12.171  14.423
27839W        W87100   8.309  37.924   0.439
27840W        W87101  25.520   3.828  14.954
27841W        W87102  42.984   5.415  12.092
27842W        W87103  21.254  18.088   4.706
27843W        W87104  12.345  23.513   3.299
27844W        W87105  28.597  35.388  14.351
27845W        W87106  29.644   4.775   4.190
27846W        W87107  24.152  25.554  12.910
27847W        W87108   1.277  31.487   4.762
27848W        W87109  32.581  19.702  10.968
27849W        W87110  11.326  28.501   1.389
27850W        W87111   9.195   8.762   1.696
27851W        W87112  11.766   5.254  12.412
27852W        W87113   4.920  26.468  14.848
27853W        W87114  20.249  41.395  13.913
27854W        W87115  31.923  34.538   3.155
27855W        W87116   7.712  13.242   0.741
27856W        W87117  30.553  29.518  12.474
27857W        W87118   8.362  15.300   9.627
27858W        W87119  39.028  34.604   4.315
27859W        W87120  44.949   5.329   1.717
27860W        W87121  18.157  11.250   3.789
27861W        W87122  14.691   9.828  14.843
27862W        W87123  23.695  39.987  12.395
27863W        W87124  40.943   6.318   4.630
27864W        W87125  40.485  43.806   0.261
27865W        W87126  20.556  28.167  13.922
27866W        W87127  25.593  40.397   4.718
27867W        W87128  44.856  15.635   1.300
27868W        W87129   2.272  39.056  14.291
27869W        W87130   6.717  11.673  13.328
27870W        W87131   0.912  16.154  12.509
27871W        W87132  25.989  24.206  14.493
27872W        W87133  34.043  38.842  11.535
27873W        W87134   9.266  33.408   2.746
27874W        W87135  34.093  23.577  13.961
27875W        W87136  33.436  29.158  11.893
27876W        W87137  40.872  26.952  13.860
27877W        W87138  39.934   7.727   4.806
27878W        W87139  39.890  31.527  14.363
27879W        W87140  11.771  22.018   0.322
27880W        W87141   1.358  42.976  14.015
27881W        W87142  40.928  40.983   0.940
27882W        W87143  29.510  18.244  13.541
27883W        W87144   8.765  31.494  13.981
27884W        W87145  10.371  36.036   2.687
27885W        W87146  16.170  28.629   4.328
27886W        W87147  36.373  31.132  12.021
27887W        W87148  40.537  11.224  13.911
27888W        W87149   2.787  37.972  10.971
27889W        W87150  24.653  20.172  13.805
27890W        W87151  42.413  39.915   4.170
27891W        W87152  30.008   7.326   2.254
27892W        W87153  18.644  14.592  11.608
27893W        W87154  43.321  12.734  12.483
27894W        W87155  10.359  40.490   0.867
27895W        W87156   0.859   8.323  12.551
27896W        W87157  41.819   2.847   2.805
27897W        W87158  28.471  23.594   1.344
27898W        W87159  33.603  23.733  12.962
27899W        W87160  20.061  38.334   2.763
27900W        W87161  11.262   4.231  11.600
27901W        W87162  32.496   7.850   3.648
27902W        W87163   2.303   4.787   1.258
27903W        W87164  41.455   3.845   3.195
27904W        W87165  12.681  40.996  11.994
27905W        W87166  19.687  29.562  12.919
27906W        W87167  30.149  41.991   4.635
27907W        W87168  40.900   2.426  14.856
27908W        W87169  35.856  35.472   2.240
27909W        W87170  31.113  13.619  13.393
27910W        W87171  35.427  44.485  11.885
27911W        W87172  25.188  29.950  11.506
27912W        W87173  10.698   2.748   3.260
27913W        W87174  20.722   5.746   3.263
27914W        W87175  12.676  19.174   1.708
27915W        W87176  12.296  40.865  13.036
27916W        W87177  23.615  25.613  12.447
27917W        W87178  13.767   5.209   1.893
27918W        W87179  14.295  28.436  11.893
27919W        W87180  13.730  26.092   4.804
27920W        W87181  37.532   8.676   1.317
27921W        W87182  20.645   3.878   4.701
27922W        W87183  29.983   1.791   2.187
27923W        W87184  30.152  28.053  11.105
27924W        W87185   1.856  44.886  13.937
27925W        W87186  35.382  21.148   3.242
27926W        W87187  39.047  16.678   2.211
27927W        W87188  39.517   7.896  11.123
27928W        W87189  11.732  19.615   3.673
27929W        W87190  26.576  22.612  12.077
27930W        W87191  23.158  44.440   2.711
27931W        W87192  32.538   2.256   0.831
27932W        W87193   9.282  24.107  11.986
27933W        W87194  26.997  28.163  11.027
27934W        W87195  33.990  18.560  12.534
27935W        W87196  30.564  16.575   2.784
27936W        W87197  31.004   5.416  14.765
27937W        W87198  32.137  17.215   4.312
27938W        W87199  10.367  11.306  14.467
27939W        W87200  36.404  22.566  14.372
27940W        W87201  44.357  14.257  10.918
27941W        W87202  10.338  26.172   0.258
27942W        W87203  25.051  29.580  10.594
27943W        W87204  36.030   5.428   4.302
27944W        W87205  22.092   1.465   2.809
27945W        W87206   9.269  14.201  14.451
27946W        W87207  18.215  26.141   3.738
27947W        W87208  15.745  41.484  12.897
27948W        W87209  30.462  26.199  14.840
27949W        W87210  27.588  40.354  11.422
27950W        W87211  37.357  44.347  12.531
27951W        W87212  26.022  31.451   4.743
27952W        W87213   6.412  24.531  11.892
27953W        W87214  33.069  15.171   3.782
27954W        W87215  20.088   2.252  11.602
27955W        W87216  13.346  25.064  12.424
27956W        W87217  28.013  25.198   2.745
27957W        W87218   9.886  33.895   1.281
27958W        W87219  26.584   6.297  14.929
27959W        W87220  34.542  10.874  14.028
27960W        W87221  25.575   3.257   3.363
27961W        W87222   2.945  29.455   2.694
27962W        W87223  20.631  43.288  12.356
27963W        W87224  34.569   9.186  13.977
27964W        W87225  31.454  42.377  14.509
27965W        W87226  18.275  25.702  13.324
27966W        W87227  15.245  34.521   3.847
27967W        W87228  43.785  37.936   4.781
27968W        W87229  43.997  10.341   4.697
27969W        W87230  17.235  25.588  12.087
27970W        W87231  40.911   6.270   4.351
27971W        W87232  24.711  27.474   1.829
27972W        W87233  31.421   5.916   1.443
27973W        W87234  19.209  25.037   1.882
27974W        W87235  34.463  14.627  13.377
27975W        W87236   9.686  30.456   0.459
27976W        W87237   5.913   6.187  11.905
27977W        W87238  33.992  29.524   0.905
27978W        W87239  29.667  27.643   3.284
27979W        W87240  26.626   6.334  12.002
27980W        W87241  29.554  16.644   3.176
27981W        W87242  28.091  41.360  11.481
27982W        W87243  29.058  17.753  10.925
27983W        W87244  42.895  22.595   4.284
27984W        W87245  18.249  17.114   0.332
27985W        W87246   7.334  11.654   1.235
27986W        W87247  39.460  14.214  14.823
27987W        W87248  43.290  44.764   4.719
27988W        W87249  36.576  19.238  13.008
27989W        W87250  27.006  25.980  10.499
27990W        W87251  21.540  28.627   2.361
27991W        W87252  36.958  14.693  14.999
27992W        W87253  10.772  15.175   2.248
27993W        W87254  39.019  13.753  11.085
27994W        W87255   3.825  11.728   4.253
27995W        W87256  20.685  14.155  11.578
27996W        W87257  23.658  17.100  12.861
27997W        W87258  40.515  43.021   4.629
27998W        W87259  21.128   0.290  10.968
27999W        W87260  10.345  22.651   1.370
28000W        W87261   6.215  29.026   2.272
28001W        W87262   5.845  33.900   0.452
28002W        W87263  42.335   0.923   2.313
28003W        W87264  25.531  43.008   3.827
28004W        W87265  18.208  33.404  10.102
28005W        W87266  41.938  37.044   0.416
28006W        W87267  38.337   7.685  13.445
28007W        W87268  40.007  37.570   5.616
28008W        W87269  26.139   7.207  12.543
28009W        W87270  21.262   3.333   3.248
28010W        W87271  22.500  43.810   1.798
28011W        W87272   3.383  22.117   3.788
28012W        W87273   4.450   5.767   0.248
28013W        W87274  12.199   0.765   2.731
28014W        W87275  42.331  38.388  12.063
28015W        W87276   9.166   1.429   0.396
28016W        W87277   9.166  16.809   4.666
28017W        W87278  16.692  12.261   1.438
28018W        W87279  13.803  21.121  11.413
28019W        W87280   1.327  23.706  14.011
28020W        W87281  23.110  32.030  11.994
28021W        W87282  25.506  24.177   9.923
28022W        W87283   7.841  29.570  14.296
28023W        W87284  28.443   2.388   2.788
28024W        W87285   2.323  41.490  13.865
28025W        W87286  18.069   5.295  12.361
28026W        W87287  43.516  19.721   1.715
28027W        W87288  13.765  34.085   0.275
28028W        W87289  13.764   7.709   0.367
28029W        W87290  24.713  23.995  10.509
28030W        W87291  26.104  14.752  13.048
28031W        W87292  16.103   2.847  14.963
28032W        W87293  39.032  30.442   4.232
28033W        W87294  26.572  33.594   2.395
28034W        W87295  31.139  18.215  10.449
28035W        W87296   9.187   1.269   2.730
28036W        W87297  23.558   4.903  10.495
28037W        W87298  30.960  12.216   0.329
28038W        W87299  22.097   8.402   0.966
28039W        W87300   1.902  15.211  11.577
28040W        W87301  41.038  22.533  12.350
28041W        W87302  20.059   3.292  14.015
28042W        W87303  40.869  14.774  11.939
28043W        W87304  38.946  10.698   2.744
28044W        W87305  44.337   0.745  13.514
28045W        W87306  28.135  21.544   2.351
28046W        W87307  35.067  36.936   1.807
28047W        W87308  31.120  41.840   1.880
28048W        W87309  37.421  33.962  14.813
28049W        W87310  41.035  26.540  14.812
28050W        W87311   6.763  29.051  14.007
28051W        W87312  16.594   3.722  14.452
28052W        W87313  33.893  36.468   1.340
28053W        W87314  27.148  13.723   2.365
28054W        W87315  44.432  34.035   4.239
28055W        W87316   3.813  28.520   1.727
28056W        W87317  14.336  32.625   3.203
28057W        W87318  24.532  18.054   2.711
28058W        W87319  36.876  15.779  14.929
28059W        W87320  33.513  28.015   2.265
28060W        W87321  17.085  17.228   2.333
28061W        W87322  18.546  15.681   0.478
28062W        W87323  23.496  22.101   3.786
28063W        W87324  42.284  40.958  10.500
28064W        W87325   5.292   8.841  11.414
28065W        W87326   1.749  14.753  11.113
28066W        W87327  25.510  16.613  13.821
28067W        W87328  15.314  19.044   0.906
28068W        W87329  34.387  34.500   3.151
28069W        W87330  26.688  34.906   4.137
28070W        W87331  35.359  36.872  12.571
28071W        W87332  14.787  15.173   2.718
28072W        W87333   0.491  16.089  13.404
28073W        W87334  30.479   7.381   2.385
28074W        W87335  12.191  12.657  13.873
28075W        W87336   3.215  39.527   0.332
28076W        W87337   8.247  39.866   0.832
28077W        W87338   8.881  33.013   1.360
28078W        W87339   4.374  36.897  12.375
28079W        W87340  43.012  24.124   1.883
28080W        W87341  10.373   9.374   0.883
28081W        W87342   9.740  20.549   1.898
28082W        W87343  11.165   1.433  12.000
28083W        W87344   6.222  32.934   2.841
28084W        W87345  31.595  40.459  14.809
28085W        W87346  41.536  23.006  13.351
28086W        W87347  44.833   9.848  12.440
28087W        W87348   2.730  30.452  13.004
28088W        W87349  26.641  38.512   2.830
28089W        W87350  16.746  21.592   4.244
28090W        W87351  22.221   2.947   0.936
28091W        W87352  37.864   7.284   4.626
28092W        W87353  41.980  17.120   4.759
28093W        W87354  34.893  21.238  11.381
28094W        W87355  24.486  17.195   2.847
28095W        W87356   2.466   7.312   0.346
28096W        W87357   0.796  13.209   1.834
28097W        W87358  18.056  29.084   0.362
28098W        W87359  35.550  37.574   4.814
28099W        W87360  28.170  34.403  11.099
28100W        W87361  26.202  29.136  13.849
28101W        W87362  36.919  13.606  14.351
28102W        W87363  31.911   4.306   0.942
28103W        W87364   3.360  34.924  11.477
28104W        W87365  16.217  38.887   2.277
28105W        W87366  13.177  36.959   2.289
28106W        W87367  15.141  30.609  13.513
28107W        W87368   3.302  37.415   2.693
28108W        W87369  36.564  33.985   2.195
28109W        W87370   8.871  41.833   2.869
28110W        W87371  22.593  13.657   3.826
28111W        W87372   9.747  40.847  14.495
28112W        W87373   5.289  29.560   1.353
28113W        W87374  42.912  22.659   2.698
28114W        W87375   9.768   8.672   4.149
28115W        W87376  12.333   5.888   1.246
28116W        W87377   3.849  36.016  11.611
28117W        W87378  21.171  41.012  10.515
28118W        W87379  22.094  31.121   1.274
28119W        W87380  17.666  23.229   2.309
28120W        W87381  33.582   0.774  14.450
28121W        W87382  12.168  13.772  10.593
28122W        W87383   7.753  12.239   0.402
28123W        W87384   4.816   2.864  13.316
28124W        W87385  37.416  35.510  12.863
28125W        W87386  30.462  40.956   2.683
28126W        W87387  12.816  25.492  12.425
28127W        W87388   8.747  25.966  12.911
28128W        W87389  38.866  15.093  12.530
28129W        W87390  34.985   8.282  13.005
28130W        W87391   0.446  12.783  13.890
28131W        W87392  42.478  44.795   2.214
28132W        W87393  32.074  34.456   1.737
28133W        W87394  43.806  41.499   1.329
28134W        W87395   2.864  35.522  13.898
28135W        W87396   8.269  14.177  10.630
28136W        W87397   5.377  17.166  13.802
28137W        W87398  26.001  44.821   4.258
28138W        W87399  34.993  37.900   0.883
28139W        W87400  20.084  34.590  14.984
28140W        W87401  20.135   1.847  11.884
28141W        W87402  25.179  26.700   0.272
28142W        W87403  37.550  41.530   0.299
28143W        W87404   9.880   3.300  14.849
28144W        W87405  35.604   0.320  14.974
28145W        W87406  17.224   9.716   2.315
28146W        W87407  15.098  13.133  10.908
28147W        W87408  19.286  11.128  11.570
28148W        W87409  28.656  23.732  14.915
28149W        W87410  33.988  15.651  14.900
28150W        W87411   8.852  10.840  12.406
28151W        W87412  26.206   7.800   1.397
28152W        W87413   4.879   7.674   3.223
28153W        W87414  10.807  38.502   1.794
28154W        W87415  29.997   1.432   0.331
28155W        W87416  33.992  39.389  12.054
28156W        W87417   7.216  18.116   2.269
28157W        W87418   2.267  38.519   4.734
28158W        W87419  20.725  27.131   2.337
28159W        W87420  11.864  35.540   0.415
28160W        W87421  30.600  19.083  14.367
28161W        W87422  18.214  44.491   1.934
28162W        W87423  36.573  38.343   1.931
28163W        W87424  39.395  28.025   1.252
28164W        W87425  41.321   2.257   3.349
28165W        W87426  24.141  10.278   2.810
28166W        W87427  15.780   1.239   0.338
28167W        W87428  35.071  27.521  11.400
28168W        W87429  40.530  14.610   1.284
28169W        W87430  42.876  36.072  11.494
28170W        W87431  15.127  39.534  11.098
28171W        W87432  23.119  21.622   4.224
28172W        W87433  34.979  43.853   4.697
28173W        W87434  19.247   0.294   3.663
28174W        W87435  26.112  39.894   2.815
28175W        W87436  16.177  36.012   4.221
28176W        W87437  30.156  20.033   0.930
28177W        W87438  33.036  30.479  13.810
28178W        W87439  27.486  18.284   1.378
28179W        W87440  10.850  24.989   1.443
28180W        W87441  37.549  35.403  10.622
28181W        W87442  25.176  33.099  13.981
28182W        W87443  17.736  41.983  14.007
28183W        W87444   9.189  33.122   3.797
28184W        W87445   1.872  31.986  11.987
28185W        W87446  16.306  20.112  13.510
28186W        W87447   2.937  20.711  12.464
28187W        W87448  31.438  22.596   4.824
28188W        W87449  27.526  28.977  13.463
28189W        W87450  10.305  13.715  13.520
28190W        W87451  28.608  20.563  10.958
28191W        W87452   3.826   5.854   5.101
28192W        W87453  30.499   0.831   3.703
28193W        W87454  22.698   0.456  12.525
28194W        W87455   2.761  25.096   1.781
28195W        W87456  13.279   6.813   3.808
28196W        W87457   3.729   6.898  13.408
28197W        W87458  26.976   9.842   1.892
28198W        W87459   1.330  14.298   4.163
28199W        W87460   5.821  43.357  10.999
28200W        W87461  10.188  29.175   4.300
28201W        W87462  19.255   9.849   0.884
28202W        W87463  20.708  15.151   4.801
28203W        W87464  44.265   8.284  12.008
28204W        W87465  34.381  26.184  13.490
28205W        W87466  37.972  33.499  13.369
28206W        W87467  12.805   3.409   1.755
28207W        W87468  28.967  34.538  11.915
28208W        W87469  12.811  34.468   4.256
28209W        W87470  22.190  21.153   4.242
28210W        W87471  33.078  35.369  13.382
28211W        W87472  18.664  12.223   2.189
28212W        W87473  44.451  29.484  11.889
28213W        W87474  24.609  16.298  13.042
28214W        W87475  44.815  21.072  14.854
28215W        W87476  25.583   0.280   1.867
28216W        W87477  20.194  11.245  10.141
28217W        W87478  42.871  23.093   4.701
28218W        W87479  15.150  44.375   3.826
28219W        W87480  12.713  18.700  14.282
28220W        W87481   5.242  25.666  14.760
28221W        W87482  26.456  24.013   1.820
28222W        W87483  11.220  13.174  12.964
28223W        W87484  15.120  14.303   4.723
28224W        W87485  19.595   2.253   0.398
28225W        W87486  14.667   4.209   3.250
28226W        W87487   9.258  19.242  10.909
28227W        W87488  25.639  40.534  13.335
28228W        W87489   2.739   0.482   2.411
28229W        W87490  18.789   8.837   2.850
28230W        W87491  31.571  42.474   0.823
28231W        W87492  10.375   4.308   0.407
28232W        W87493  35.887   2.258  14.295
28233W        W87494  32.542  37.532  13.014
28234W        W87495   4.796   8.783   3.276
28235W        W87496  22.567  43.478   3.688
28236W        W87497  18.696   0.313   2.319
28237W        W87498  28.154  13.641  11.379
28238W        W87499   6.922  33.520  11.983
28239W        W87500  32.555  22.658   1.852
28240W        W87501  28.494  22.046   4.346
28241W        W87502   4.385  39.007  14.921
28242W        W87503  10.174   1.334   1.249
28243W        W87504   8.261  41.375  10.572
28244W        W87505   0.912  30.091  10.453
28245W        W87506  20.240  24.651   1.873
28246W        W87507  40.420  40.870   0.826
28247W        W87508  41.799  32.141   1.238
28248W        W87509  27.673  41.513   3.245
28249W        W87510  11.729  19.658   4.174
28250W        W87511  32.555  23.041   4.831
28251W        W87512   2.354  19.076  13.472
28252W        W87513  21.017  11.231   4.769
28253W        W87514  10.266  38.878   0.894
28254W        W87515  35.022  30.049  13.002
28255W        W87516  41.846  35.411   5.240
28256W        W87517  35.059  31.582  10.484
28257W        W87518  19.101  23.198   3.184
28258W        W87519   5.396  34.098  13.538
28259W        W87520   9.193  18.745  10.502
28260W        W87521  25.193  39.892   4.179
28261W        W87522  12.725  20.742  11.537
28262W        W87523  21.174  32.964  10.644
28263W        W87524  23.561  39.438  12.542
28264W        W87525  26.149  27.102   2.388
28265W        W87526  35.385  44.796  14.385
28266W        W87527  41.503  17.654  12.414
28267W        W87528  23.016  42.797   4.755
28268W        W87529  33.387  24.219   3.844
28269W        W87530   4.715  26.634   0.940
28270W        W87531  12.332  24.636   4.691
28271W        W87532   9.257  24.125   3.655
28272W        W87533  20.067  27.496   0.265
28273W        W87534   0.961  12.795  11.018
28274W        W87535  23.147  23.204   3.834
28275W        W87536  36.007  35.436   3.149
28276W        W87537  41.431   9.322   4.733
28277W        W87538  34.000   9.648  10.922
28278W        W87539  27.134  35.889   5.231
28279W        W87540   4.417   0.901  14.767
28280W        W87541  40.534   2.420  12.043
28281W        W87542   1.900  20.128   0.441
28282W        W87543   9.845  21.666  11.932
28283W        W87544  22.581   1.362  14.507
28284W        W87545   9.712   9.677   4.324
28285W        W87546  30.928  36.023  14.406
28286W        W87547  29.955  43.402   1.702
28287W        W87548  18.665  28.973  12.067
28288W        W87549  20.259  37.465   2.662
28289W        W87550  36.890   0.934  14.937
28290W        W87551  23.670  17.768   1.330
28291W        W87552  15.179   6.744  12.525
28292W        W87553  19.644  14.635   0.963
28293W        W87554  41.840  12.320   0.829
28294W        W87555  12.334  38.418   2.662
28295W        W87556  12.767   4.285  11.864
28296W        W87557  23.512   0.479   1.718
28297W        W87558  40.943   4.340  12.563
28298W        W87559  16.705  12.807  10.621
28299W        W87560  27.653  19.739  10.472
28300W        W87561  29.441  13.117   2.842
28301W        W87562  18.572  44.439  11.015
28302W        W87563   6.233  42.431  13.452
28303W        W87564  12.269  33.088   4.650
28304W        W87565   6.214   4.940   2.275
28305W        W87566   2.883  15.673   3.285
28306W        W87567  32.517  12.747  14.901
28307W        W87568   9.850   2.365  10.412
28308W        W87569   1.246   6.916   0.943
28309W        W87570  32.415   3.820   2.275
28310W        W87571  17.210   3.856  12.457
28311W        W87572   3.308  31.950   2.759
28312W        W87573  15.672  33.516   5.212
28313W        W87574  28.650  21.526   2.273
28314W        W87575  22.634  15.316   2.261
28315W        W87576  16.142   1.259  12.363
28316W        W87577   5.338   3.894   2.302
28317W        W87578  36.999   0.920  14.019
28318W        W87579   1.408  22.513  12.852
28319W        W87580  13.309   3.955  11.459
28320W        W87581  26.658  24.688   3.310
28321W        W87582   5.930  20.646   4.653
28322W        W87583  40.424   2.337   3.338
28323W        W87584  35.602  21.693   0.899
28324W        W87585  37.038  17.735   3.843
28325W        W87586  26.974  16.604  11.481
28326W        W87587  25.151  34.526  12.551
28327W        W87588   1.343  26.981  11.498
28328W        W87589  37.019  32.995   4.273
28329W        W87590  25.021  43.839   4.710
28330W        W87591   1.430  24.503  13.983
28331W        W87592  25.553  29.013  13.321
28332W        W87593  36.057  11.143  14.803
28333W        W87594  25.095  19.081  14.465
28334W        W87595  16.778  25.972   3.710
28335W        W87596  17.269  27.100  11.536
28336W        W87597  39.482   5.215   4.134
28337W        W87598  34.097  23.538  10.890
28338W        W87599  38.933  25.044   9.928
28339W        W87600  41.834   0.251   3.376
28340W        W87601  42.976   6.753  12.487
28341W        W87602  27.479  20.095   3.796
28342W        W87603  36.946   6.396   3.792
28343W        W87604   7.336   1.318  10.432
28344W        W87605  26.481   8.868   4.185
28345W        W87606  16.117  30.449  12.960
28346W        W87607  24.710   7.359   1.814
28347W        W87608  43.462  22.545   3.312
28348W        W87609   6.821  43.770  14.295
28349W        W87610  13.703  38.961   1.864
28350W        W87611   8.219  38.929  12.887
28351W        W87612  35.097   7.309  12.084
28352W        W87613  22.500  39.042   5.097
28353W        W87614  40.935   9.310  12.955
28354W        W87615  12.618  28.020  14.806
28355W        W87616  22.102  24.631   0.345
28356W        W87617  31.014  25.014   0.739
28357W        W87618  41.329  38.825  13.365
28358W        W87619  36.000   8.883  13.366
28359W        W87620  33.426   8.699   2.366
28360W        W87621  15.595  26.016   1.332
28361W        W87622  43.987  34.070  12.967
28362W        W87623   5.785  32.905  13.827
28363W        W87624   5.350  41.902   3.151
28364W        W87625  30.521   8.876   4.743
28365W        W87626   0.291  37.506   0.358
28366W        W87627   6.300  10.797   3.228
28367W        W87628  14.255   4.904  13.533
28368W        W87629  16.127  39.553   1.410
28369W        W87630  36.985   0.899   1.249
28370W        W87631  24.098  32.395  11.092
28371W        W87632  43.336   3.831  13.002
28372W        W87633  34.908   2.354   0.962
28373W        W87634  15.292  14.177  11.912
28374W        W87635  26.200  25.162  13.540
28375W        W87636  38.935  29.488   3.159
28376W        W87637  43.987  21.606  14.372
28377W        W87638   2.444  44.832  12.351
28378W        W87639  35.041  13.728   4.780
28379W        W87640  38.435  15.166  14.904
28380W        W87641  18.163  39.518  12.003
28381W        W87642  15.214  22.611  11.867
28382W        W87643  17.586  42.997  10.618
28383W        W87644  18.622  19.186   2.236
28384W        W87645   5.762  35.076   4.630
28385W        W87646  36.907   5.725   0.856
28386W        W87647  34.580  24.605   3.284
28387W        W87648  40.016   8.343   2.244
28388W        W87649  27.184  37.549   3.192
28389W        W87650  36.420  11.752   0.749
28390W        W87651   4.710  15.600   0.929
28391W        W87652   3.857  29.642  11.865
28392W        W87653  23.074   9.250  14.461
28393W        W87654  44.429   9.245  11.521
28394W        W87655  39.819  28.520   0.751
28395W        W87656  18.590  16.290   4.616
28396W        W87657  30.992   0.816   9.947
28397W        W87658   8.881   9.644  10.476
28398W        W87659  24.184  30.551  14.784
28399W        W87660  42.516   8.788  12.367
28400W        W87661  23.161  27.087  11.474
28401W        W87662  30.163  16.260   2.285
28402W        W87663  35.447  44.439  12.880
28403W        W87664  10.244   2.399   4.347
28404W        W87665  33.470  29.507   4.835
28405W        W87666  17.791  43.290   3.829
28406W        W87667  14.130  31.584   0.445
28407W        W87668  13.841   5.919  12.914
28408W        W87669  39.011   4.282   1.716
28409W        W87670  28.487  13.627  13.907
28410W        W87671   8.385  35.388  14.937
28411W        W87672  42.487  32.104   4.118
28412W        W87673  39.371  14.105   1.236
28413W        W87674  43.511  18.121   1.327
28414W        W87675  24.044  25.041   2.357
28415W        W87676  42.788   5.329  10.925
28416W        W87677  10.836   5.865   3.759
28417W        W87678  13.251  34.935  12.498
28418W        W87679  29.574  28.511  14.283
28419W        W87680   0.826   4.379   0.288
28420W        W87681  11.643  12.144  10.149
28421W        W87682  37.912  17.182   3.150
28422W        W87683   2.762  25.023   0.272
28423W        W87684  23.212  28.622   4.209
28424W        W87685  31.032  41.472   3.241
28425W        W87686  14.595  29.081  13.507
28426W        W87687   9.775  25.186  14.373
28427W        W87688  16.624   5.358   4.787
28428W        W87689   8.749   5.854  13.814
28429W        W87690  13.759   0.466   2.738
28430W        W87691  21.054   8.375   5.243
28431W        W87692   3.347  34.878   4.700
28432W        W87693   3.306  35.989   1.750
28433W        W87694  18.165  30.594  13.481
28434W        W87695  38.913  40.820   0.247
28435W        W87696   6.718  38.889  13.795
28436W        W87697   0.744  43.867   4.267
28437W        W87698   1.834   0.913  11.070
28438W        W87699  34.589   1.788  11.076
28439W        W87700  15.318  11.259   0.306
28440W        W87701   8.402   8.874  11.886
28441W        W87702  35.912   0.957  14.029
28442W        W87703  22.998  25.117   1.770
28443W        W87704  26.183   3.379  11.388
28444W        W87705  15.761  43.938   3.781
28445W        W87706  15.084  41.485   0.438
28446W        W87707  42.402  18.646  12.879
28447W        W87708  31.635  35.582   2.216
28448W        W87709   3.253  41.406   4.212
28449W        W87710   9.186   7.397   9.475
28450W        W87711  38.525  30.088  13.493
28451W        W87712  26.533  34.556  10.134
28452W        W87713  24.628  27.460  11.086
28453W        W87714   6.331  43.859  14.445
28454W        W87715  20.657  32.130  10.517
28455W        W87716  39.985   3.735  12.828
28456W        W87717   1.805  43.978  11.124
28457W        W87718   9.751  23.170  14.031
28458W        W87719   8.253  14.193   4.606
28459W        W87720  26.633   4.403   2.403
28460W        W87721  41.827  21.721   0.784
28461W        W87722  34.096  40.882  12.890
28462W        W87723  35.884  42.486  13.975
28463W        W87724  40.345  43.375  10.584
28464W        W87725   5.840  22.214  12.567
28465W        W87726   3.238  15.628  14.847
28466W        W87727  37.059  34.428   3.255
28467W        W87728  24.139  13.667  14.456
28468W        W87729  42.397  13.245   2.703
28469W        W87730   2.334  30.589  14.376
28470W        W87731  13.261   4.257   0.755
28471W        W87732  19.242   5.273  11.942
28472W        W87733  17.251   9.300   3.781
28473W        W87734   2.816  25.529   2.741
28474W        W87735   2.723   0.946   3.670
28475W        W87736  18.735  37.520  10.455
28476W        W87737  13.269  24.709  10.477
28477W        W87738  15.212  39.532  12.911
28478W        W87739  26.673  38.373   4.785
28479W        W87740   2.452  38.457  11.596
28480W        W87741  43.781  21.063  10.428
28481W        W87742  20.125   0.353   5.183
28482W        W87743  38.492  27.031   3.252
28483W        W87744  38.432  18.631   1.746
28484W        W87745  11.693  26.081   1.707
28485W        W87746  23.702  10.286   2.407
28486W        W87747   0.858  33.050  12.951
28487W        W87748  44.768  15.708  13.490
28488W        W87749   3.874  16.568  12.018
28489W        W87750  39.370  26.126   4.603
28490W        W87751  24.615  29.062   3.808
28491W        W87752  36.871  13.766  14.767
28492W        W87753  15.782  17.103  11.401
28493W        W87754  10.229  36.537   2.736
28494W        W87755  17.753   3.749  13.419
28495W        W87756  36.942  39.001   3.833
28496W        W87757   0.810  21.531   0.871
28497W        W87758  30.936  18.697  12.344
28498W        W87759  19.684  11.699  11.965
28499W        W87760   4.417  25.027  11.026
28500W        W87761  38.851  30.452   3.666
28501W        W87762  10.153  34.602  11.888
28502W        W87763  23.497  25.152  13.460
28503W        W87764   3.719  20.552   4.611
28504W        W87765  32.574  39.372   3.160
28505W        W87766  34.986  31.015   1.933
28506W        W87767  39.437   1.459  11.454
28507W        W87768  35.104  33.029   3.335
28508W        W87769   2.395  43.900  12.044
28509W        W87770  26.697  31.495   0.804
28510W        W87771  16.611   6.221   1.713
28511W        W87772  20.189  42.475  10.900
28512W        W87773  43.826   8.337   2.825
28513W        W87774  13.313  42.957  13.375
28514W        W87775  19.267  24.485   1.253
28515W        W87776   2.922  14.826  13.514
28516W        W87777   3.388  23.195  13.932
28517W        W87778  17.131  34.424  12.365
28518W        W87779   1.439   0.762  11.560
28519W        W87780  39.477  27.691  12.415
28520W        W87781  16.708  42.440  11.099
28521W        W87782  32.518  33.124  11.543
28522W        W87783  21.598   3.425   0.379
28523W        W87784  30.138  35.882  12.417
28524W        W87785  42.354  23.082   3.755
28525W        W87786   4.751  25.981   4.276
28526W        W87787  33.571  39.383  13.062
28527W        W87788  35.034  31.415  13.795
28528W        W87789  15.114   6.338  11.472
28529W        W87790  33.077  20.181  13.980
28530W        W87791  18.112   7.197   0.760
28531W        W87792   8.213  10.269   0.397
28532W        W87793  29.524  12.778   2.808
28533W        W87794  43.516   5.735   2.285
28534W        W87795  35.009  41.885  14.278
28535W        W87796  19.241  35.603  13.338
28536W        W87797   8.683  21.723   4.276
28537W        W87798  23.184  29.430   0.278
28538W        W87799  40.899  41.940   1.930
28539W        W87800  37.386   3.251  11.582
28540W        W87801  38.534   6.821  12.513
28541W        W87802   6.778  17.685  14.888
28542W        W87803  18.115  22.069  14.764
28543W        W87804  30.655  26.196   4.316
28544W        W87805   9.204  35.562   3.152
28545W        W87806  31.110  42.961  14.328
28546W        W87807  27.564  11.192  12.535
28547W        W87808  20.198   6.193  10.516
28548W        W87809   6.374  41.972  12.501
28549W        W87810   3.371   0.462  10.056
28550W        W87811  11.326  26.470  14.509
28551W        W87812  13.228  10.843   5.174
28552W        W87813   7.187  17.273  10.641
28553W        W87814  20.130  11.817  14.939
28554W        W87815  35.936  36.478  14.780
28555W        W87816  11.686  17.062  10.126
28556W        W87817  38.941  10.152   5.215
28557W        W87818  11.755  22.143   3.745
28558W        W87819  33.071  31.404   2.281
28559W        W87820   3.845  38.063  14.509
28560W        W87821  30.976   7.406   0.275
28561W        W87822  40.511  10.704  11.986
28562W        W87823  34.061  12.353   0.367
28563W        W87824  26.681  16.139   2.313
28564W        W87825  19.117  35.026  13.368
28565W        W87826   0.492  32.017  10.064
28566W        W87827  20.540  15.646  11.396
28567W        W87828  18.244  39.468  10.988
28568W        W87829  19.084  31.502   3.800
28569W        W87830   1.805  17.167   0.822
28570W        W87831   7.784  11.829  14.028
28571W        W87832  16.741  39.941  13.479
28572W        W87833  24.507  15.244  10.999
28573W        W87834   7.751  35.107   4.278
28574W        W87835  41.869  36.349  10.977
28575W        W87836  37.453  18.735  11.481
28576W        W87837  23.166  19.675  14.025
28577W        W87838   9.266  44.772   4.147
28578W        W87839  25.605  22.179  12.415
28579W        W87840  42.469  25.100   0.804
28580W        W87841   4.393  29.039   4.139
28581W        W87842  32.931  43.908   0.450
28582W        W87843  13.170   2.418   1.709
28583W        W87844  27.507  38.027   0.781
28584W        W87845  25.597  26.697  10.906
28585W        W87846  10.340  28.589   1.278
28586W        W87847  42.285  32.633   0.364
28587W        W87848   8.360  14.784   4.180
28588W        W87849  24.206   9.154  12.951
28589W        W87850  19.147   0.860  13.540
28590W        W87851  21.135  42.779  11.441
28591W        W87852  30.555  18.148   1.806
28592W        W87853  27.153  29.919  13.314
28593W        W87854  39.038  18.101  11.537
28594W        W87855  21.188  40.895   3.841
28595W        W87856  41.479  12.771  10.888
28596W        W87857  31.406  13.840   0.263
28597W        W87858  38.880  15.635   3.733
28598W        W87859  27.060   1.303  13.437
28599W        W87860   6.200  19.558   0.475
28600W        W87861  13.599  40.503   2.285
28601W        W87862  16.308  14.280   1.444
28602W        W87863  28.089   7.348   4.198
28603W        W87864  25.512  14.310  13.060
28604W        W87865  43.393   8.885  11.120
28605W        W87866  25.665   7.686  14.860
28606W        W87867  44.910  24.669  10.618
28607W        W87868  38.823  27.077  10.891
28608W        W87869   9.738  17.594  13.972
28609W        W87870  37.484   7.711   4.761
28610W        W87871  10.720  34.440   2.889
28611W        W87872  25.121  10.198  14.301
28612W        W87873  33.070  23.508  14.842
28613W        W87874  39.966  17.194   0.750
28614W        W87875  38.978  31.609   1.327
28615W        W87876   2.227  30.514   4.161
28616W        W87877  30.442  17.670  13.923
28617W        W87878  26.086   3.750  13.873
28618W        W87879  29.087   1.452  12.902
28619W        W87880  10.753  12.725  10.015
28620W        W87881  15.180  38.819   4.823
28621W        W87882  37.944  35.524   2.806
28622W        W87883  34.474  30.526   3.633
28623W        W87884  31.624  27.094  10.966
28624W        W87885  13.321  15.698   4.180
28625W        W87886  19.169  17.645   1.901
28626W        W87887   4.231  41.412   2.776
28627W        W87888   0.301  28.942  14.976
28628W        W87889  13.282  41.393  11.378
28629W        W87890  14.748   5.345   2.866
28630W        W87891  23.071   5.398   2.398
28631W        W87892  10.686  26.506  14.309
28632W        W87893  29.939  36.869  11.600
28633W        W87894   2.881  15.678   0.429
28634W        W87895  27.013  12.354  11.870
28635W        W87896   9.193  37.068  14.413
28636W        W87897  34.453  11.273  13.809
28637W        W87898  26.495  10.158  10.907
28638W        W87899  18.741   5.859   3.337
28639W        W87900  11.639  39.333   3.237
28640W        W87901  30.612  38.987  12.527
28641W        W87902  39.842  40.002   0.328
28642W        W87903   0.374   1.346   0.877
28643W        W87904   8.375  23.551  14.496
28644W        W87905   9.811  31.585  14.826
28645W        W87906   2.271  37.959  14.853
28646W        W87907  30.626   2.943   2.760
28647W        W87908  31.950  24.977  14.006
28648W        W87909  30.419  31.484  10.922
28649W        W87910  25.968  13.323  11.872
28650W        W87911   4.379  19.070   3.631
28651W        W87912  21.567  16.811   1.801
28652W        W87913  25.518  25.127   3.676
28653W        W87914  29.572  35.869   0.740
28654W        W87915  25.116  17.683   2.217
28655W        W87916   7.729  37.555   4.833
28656W        W87917  42.984  44.845  12.487
28657W        W87918  36.966  10.275   3.723
28658W        W87919   2.429  21.713   3.671
28659W        W87920  25.135  43.312   4.603
28660W        W87921  19.253  18.767  13.816
28661W        W87922  30.545  18.102   2.816
28662W        W87923  22.035  26.040   2.891
28663W        W87924  43.770  40.331   4.353
28664W        W87925  13.274  42.976   0.293
28665W        W87926  23.658  28.476  13.037
28666W        W87927  19.200  12.773  12.419
28667W        W87928  15.204  34.607   4.636
28668W        W87929  18.546  24.658   3.662
28669W        W87930  38.031  40.957  12.489
28670W        W87931   8.333   9.708   2.837
28671W        W87932  30.650   2.931   2.235
28672W        W87933  23.512  41.787  12.976
28673W        W87934   8.870  35.542   0.408
28674W        W87935  32.440  28.661   1.878
28675W        W87936  13.669  41.309   1.846
28676W        W87937   6.717  11.224  13.974
28677W        W87938  35.018  38.840  12.383
28678W        W87939  28.461  19.242   1.353
28679W        W87940  17.713  38.961   2.272
28680W        W87941   8.304  38.445  13.819
28681W        W87942   8.405   8.362   0.377
28682W        W87943  30.595  15.327   3.827
28683W        W87944  28.553   1.823   3.258
28684W        W87945  40.434   8.766  14.290
28685W        W87946   7.352  20.635   3.763
28686W        W87947  12.832  42.811   4.732
28687W        W87948  30.470  26.134  11.956
28688W        W87949   4.816  30.105  11.938
28689W        W87950  39.939   6.357  12.872
28690W        W87951   9.670  27.608   2.686
28691W        W87952   8.270  17.640   4.244
28692W        W87953   0.293  38.844   2.807
28693W        W87954   9.245  20.248   2.898
28694W        W87955  25.086  20.163  11.085
28695W        W87956  29.027  27.663   4.738
28696W        W87957  30.912   6.878  11.086
28697W        W87958  30.005  25.566   1.831
28698W        W87959  15.712   1.266   4.674
28699W        W87960   3.805  38.371   1.410
28700W        W87961   3.216  30.011  12.359
28701W        W87962  21.571  34.543   1.922
28702W        W87963   5.710  13.823  11.939
28703W        W87964  18.180  34.060   2.288
28704W        W87965  36.890  14.296   0.296
28705W        W87966  22.533  34.910  10.482
28706W        W87967  35.459   6.857   0.811
28707W        W87968  44.771  42.776   0.447
28708W        W87969  42.504   0.947  13.373
28709W        W87970  36.950   2.915  14.856
28710W        W87971  12.283   0.971  10.915
28711W        W87972  22.571   9.834   2.733
28712W        W87973  32.621  20.052   4.743
28713W        W87974   9.756  11.346  14.354
28714W        W87975  16.590  24.200  12.397
28715W        W87976  43.494  17.601  12.996
28716W        W87977  20.162  37.494   4.713
28717W        W87978  29.036   0.457  14.874
28718W        W87979  14.100  35.078  12.003
28719W        W87980  35.415  19.153   1.253
28720W        W87981  38.931  19.234   1.741
28721W        W87982  33.130  21.712  12.855
28722W        W87983   6.306  12.298   1.216
28723W        W87984  25.704  11.198   1.376
28724W        W87985  31.600  18.548   2.691
28725W        W87986  30.461   1.300   3.836
28726W        W87987   6.740  21.111  14.767
28727W        W87988  31.447   8.365  11.106
28728W        W87989  31.088  26.114  10.533
28729W        W87990  37.063  34.375  11.025
28730W        W87991  16.195  43.953   1.933
28731W        W87992  35.999  42.413   2.815
28732W        W87993  19.720  40.905  11.512
28733W        W87994  29.121   3.808  10.624
28734W        W87995  40.523  34.570   2.901
28735W        W87996  24.034   0.824   4.136
28736W        W87997  10.663  11.770  12.444
28737W        W87998  22.707   6.301   1.442
28738W        W87999   7.857  30.610  14.941
28739W        W88000  26.584   1.738  14.968
28740W        W88001   0.391  11.666  11.052
28741W        W88002  38.020  43.859  10.549
28742W        W88003   5.387  16.615  11.111
28743W        W88004  38.506  12.849  12.053
28744W        W88005   4.734   6.725   1.839
28745W        W88006   6.829   2.244   4.275
28746W        W88007   9.351   1.946   2.216
28747W        W88008  36.575  14.817   0.482
28748W        W88009  15.656   5.746  13.816
28749W        W88010   7.277  32.559  13.011
28750W        W88011  11.259  17.772  11.099
28751W        W88012  19.069  29.933  12.084
28752W        W88013  37.894  12.719   0.889
28753W        W88014  14.336  14.304   2.688
28754W        W88015  27.451  25.019   2.324
28755W        W88016  44.344  42.790  12.528
28756W        W88017  17.701  41.312   3.276
28757W        W88018   8.404  29.503   2.813
28758W        W88019  40.924  22.698   2.818
28759W        W88020   8.225  44.433  12.864
28760W        W88021  15.125  20.670  14.008
28761W        W88022  20.577  17.570   5.156
28762W        W88023  42.020   7.795   0.925
28763W        W88024  23.113  37.960   1.271
28764W        W88025  15.201  23.221   2.347
28765W        W88026  36.375  37.982  11.380
28766W        W88027   2.303  39.920   1.775
28767W        W88028   2.413   4.744   3.164
28768W        W88029  14.261  33.055  12.414
28769W        W88030  34.449  25.713  13.405
28770W        W88031  40.840   1.441   4.701
28771W        W88032   0.420  22.591  12.865
28772W        W88033  28.029  30.440  14.409
28773W        W88034  33.439   2.844   3.192
28774W        W88035  35.069  36.457   3.741
28775W        W88036  43.966  33.399  14.964
28776W        W88037   8.759  41.358  13.523
28777W        W88038   1.400  38.394   0.455
28778W        W88039  24.018  25.009   3.667
28779W        W88040  17.153  38.865  14.281
28780W        W88041  28.650  25.484  10.925
28781W        W88042  12.723  40.423   1.788
28782W        W88043  40.807  23.551  10.447
28783W        W88044   2.748  43.856   1.725
28784W        W88045  20.065   2.233   0.788
28785W        W88046  36.578   6.910  11.607
28786W        W88047  23.075  28.452  12.003
28787W        W88048  23.103  31.437  14.934
28788W        W88049  31.606  22.031  11.126
28789W        W88050   7.300  10.689  11.018
28790W        W88051   4.785  14.324  14.832
28791W        W88052  24.095  44.357   3.690
28792W        W88053  29.088   9.718  11.018
28793W        W88054  18.723  12.142   1.924
28794W        W88055   0.919  40.832  11.969
28795W        W88056  42.900  43.805   0.900
28796W        W88057   7.707  14.752  10.922
28797W        W88058  41.514  32.579  11.914
28798W        W88059  37.889   8.183  11.906
28799W        W88060  31.623  31.624   4.805
28800W        W88061   5.288  27.041  10.983
28801W        W88062  23.644  15.787   3.293
28802W        W88063   7.387  39.448   4.131
28803W        W88064  41.813  20.150   0.783
28804W        W88065  30.490   1.845   2.861
28805W        W88066  23.605   5.794   4.130
28806W        W88067  39.061  44.809   1.725
28807W        W88068  43.016  10.749  11.927
28808W        W88069  31.025  17.201   5.240
28809W        W88070  37.017  11.337  10.955
28810W        W88071  30.512  34.376  14.007
28811W        W88072   9.652  32.624   3.154
28812W        W88073  38.411  15.615   2.666
28813W        W88074  41.872  42.343   0.896
28814W        W88075   4.240  30.602   4.804
28815W        W88076   1.853  41.025   2.856
28816W        W88077  41.470  22.693   0.737
28817W        W88078  14.757  29.437  14.839
28818W        W88079  18.151  33.392   2.882
28819W        W88080  27.151  18.579   3.363
28820W        W88081   8.342   1.386  14.989
28821W        W88082  38.411  12.681   0.422
28822W        W88083   8.687  38.344   2.852
28823W        W88084  37.453  38.430   9.943
28824W        W88085  33.451  25.985  14.452
28825W        W88086  39.466  44.313  13.419
28826W        W88087  44.376  27.676   2.297
28827W        W88088  27.678  14.216   0.775
28828W        W88089  28.660   7.727   4.329
28829W        W88090  26.997  13.731  14.907
28830W        W88091  24.612  14.624   2.253
28831W        W88092   6.720  31.424   1.849
28832W        W88093   4.784  40.029  14.420
28833W        W88094  44.440  44.384   2.677
28834W        W88095  32.991  20.109   3.329
28835W        W88096  26.578  38.425  10.997
28836W        W88097  14.123  32.512  14.405
28837W        W88098   0.855  24.542  13.808
28838W        W88099   8.714  18.268   3.800
28839W        W88100   2.807   4.450   3.652
28840W        W88101  10.180   2.455  11.043
28841W        W88102  28.121  11.205  11.105
28842W        W88103  40.870  39.907   0.727
28843W        W88104  15.114  35.895  12.528
28844W        W88105  44.948  20.669   2.214
28845W        W88106  37.065  33.044  13.481
28846W        W88107  28.580  29.441   0.388
28847W        W88108   0.872  16.590   3.352
28848W        W88109   2.773  41.486   2.252
28849W        W88110  43.330  26.989   3.654
28850W        W88111  20.606  32.998  13.018
28851W        W88112  33.892  22.236  13.947
28852W        W88113  23.534  25.213   0.766
28853W        W88114  15.682  23.995  10.477
28854W        W88115   8.804  32.955   2.700
28855W        W88116   5.892  21.023  10.108
28856W        W88117  14.689  44.961  12.053
28857W        W88118  25.714  22.633   3.280
28858W        W88119  33.042  19.588   1.404
28859W        W88120  36.490  30.115  11.125
28860W        W88121  42.474   8.736  14.293
28861W        W88122  38.437  35.479  12.545
28862W        W88123  35.468  29.449   2.891
28863W        W88124  18.592  26.168   1.726
28864W        W88125  24.164  29.029  14.901
28865W        W88126  41.803   9.216  11.939
28866W        W88127   1.778  34.101  14.359
28867W        W88128  40.984  34.999  12.579
28868W        W88129  18.282   5.369   4.321
28869W        W88130   8.168   0.869   2.687
28870W        W88131  16.783  31.427  14.410
28871W        W88132  32.008   9.865   3.657
28872W        W88133  34.972  24.506   3.679
28873W        W88134  24.615  20.608  13.382
28874W        W88135   6.859  30.486   1.855
28875W        W88136  40.533  44.504   3.275
28876W        W88137  11.333  15.629   2.778
28877W        W88138   6.878  19.049   4.779
28878W        W88139  43.946  26.100   1.221
28879W        W88140  24.185   7.400  12.490
28880W        W88141   6.763   0.261   1.799
28881W        W88142   3.406  26.060  10.040
28882W        W88143  21.043  26.185  11.965
28883W        W88144  14.755  14.648  13.897
28884W        W88145   3.333  13.655   0.783
28885W        W88146  16.286   1.307  13.874
28886W        W88147  26.649  21.109   0.772
28887W        W88148  36.398   7.829   0.405
28888W        W88149   0.893  36.950   0.928
28889W        W88150  11.645  28.037   1.348
28890W        W88151  35.086  16.769  13.444
28891W        W88152  35.006  28.929  14.329
28892W        W88153  28.581   8.171  13.830
28893W        W88154  38.970  21.540  14.782
28894W        W88155   5.418  12.194   1.774
28895W        W88156  38.398   5.886   1.843
28896W        W88157  31.073   1.422  13.513
28897W        W88158   6.182  36.406   4.222
28898W        W88159  12.657   2.826   0.382
28899W        W88160  18.716   9.839   4.832
28900W        W88161   2.910  39.467  13.005
28901W        W88162  19.205  39.958  14.881
28902W        W88163   8.380  32.103  11.000
28903W        W88164  24.027  14.319  14.293
28904W        W88165  36.440  10.209   1.875
28905W        W88166  16.158  19.076  12.443
28906W        W88167  33.531  31.109   0.465
28907W        W88168   0.763  15.156   0.856
28908W        W88169   8.747  33.053   0.346
28909W        W88170  41.894  30.020   1.931
28910W        W88171  10.653  28.970   1.808
28911W        W88172  37.434  31.555   4.656
28912W        W88173  31.896   9.365  11.506
28913W        W88174  44.334  14.832   0.275
28914W        W88175  21.021  25.038   1.319
28915W        W88176   4.370   3.335  12.439
28916W        W88177  26.056   6.317  14.394
28917W        W88178  40.421  25.576  13.519
28918W        W88179   8.227  42.783  13.955
28919W        W88180  42.872   7.272  12.456
28920W        W88181  35.025  35.518  14.986
28921W        W88182  19.106  11.783   2.193
28922W        W88183  23.199   5.306  12.988
28923W        W88184  15.669  23.023   1.252
28924W        W88185  16.756  35.443  12.933
28925W        W88186  22.059  16.577   3.757
28926W        W88187   0.490  40.327   3.196
28927W        W88188   2.817  17.759   0.375
28928W        W88189  18.089   9.389  11.907
28929W        W88190  29.972  19.166   1.432
28930W        W88191  22.640  11.681  11.589
28931W        W88192  31.430  19.772  14.022
28932W        W88193  32.570   0.950   3.301
28933W        W88194  24.702  42.798  14.922
28934W        W88195  25.006   1.459   0.868
28935W        W88196  12.616   8.752   3.238
28936W        W88197  15.753  29.436   2.742
28937W        W88198  13.288  34.953   2.376
28938W        W88199  43.506   9.159  13.538
28939W        W88200   3.293  26.954  14.448
28940W        W88201  32.887   0.474   4.822
28941W        W88202  38.402  40.805  12.459
28942W        W88203  33.413  28.504  11.878
28943W        W88204  35.525  12.174  12.971
28944W        W88205  13.207  19.585   2.896
28945W        W88206  37.924  38.875   2.225
28946W        W88207   4.731  29.586   0.394
28947W        W88208  19.778  28.608  13.929
28948W        W88209  26.040  36.971   4.240
28949W        W88210  33.988  28.679   3.383
28950W        W88211   2.408  33.564  13.494
28951W        W88212  14.803  36.363  14.491
28952W        W88213   3.242  30.544   4.215
28953W        W88214  13.717   5.861   2.417
28954W        W88215  15.728  22.517  12.986
28955W        W88216  34.465  36.357   0.362
28956W        W88217   8.671  40.829  14.819
28957W        W88218  36.869  43.278  13.434
28958W        W88219  21.096  18.718  13.893
28959W        W88220   1.316  37.460   1.225
28960W        W88221  44.789   6.294  13.485
28961W        W88222   1.339  34.066   2.711
28962W        W88223   8.265  33.587   1.888
28963W        W88224  38.974  31.015   3.661
28964W        W88225  28.565  15.669   0.759
28965W        W88226  44.783  38.520   1.264
28966W        W88227  20.060  31.521  10.602
28967W        W88228  23.582  44.778   0.838
28968W        W88229  29.658  24.480  10.520
28969W        W88230   7.707  13.309  14.765
28970W        W88231  27.584   1.301  12.966
28971W        W88232  14.317  18.113   2.686
28972W        W88233  38.891  13.157  13.052
28973W        W88234  26.101   0.874   3.377
28974W        W88235   9.245  16.634   0.242
28975W        W88236  39.853  16.125   2.197
28976W        W88237  27.143  12.760   1.909
28977W        W88238  38.904  21.693  12.979
28978W        W88239  20.243  19.597   2.734
28979W        W88240   5.319   3.787  12.905
28980W        W88241  33.882  12.709  10.964
28981W        W88242   2.316   9.824  11.091
28982W        W88243  21.604  19.257  14.890
28983W        W88244   7.330  28.613   0.305
28984W        W88245  23.579  17.273   1.848
28985W        W88246   6.338  35.056  11.040
28986W        W88247  26.965  35.406   3.823
28987W        W88248  29.047  20.693   3.693
28988W        W88249  26.671  42.405  11.455
28989W        W88250   3.938   3.771  13.990
28990W        W88251  15.766  30.632   1.390
28991W        W88252  33.884  11.711  13.051
28992W        W88253  28.029  35.511  12.882
28993W        W88254  24.093   8.752   0.455
28994W        W88255  18.722   0.473  11.392
28995W        W88256  38.520  14.323  12.485
28996W        W88257   9.208  41.915   3.228
28997W        W88258  19.163   9.766  14.930
28998W        W88259  33.118   3.879  10.927
28999W        W88260   4.835   1.408  11.587
29000W        W88261  19.140  42.338   4.815
29001W        W88262  23.015  13.726   1.416
29002W        W88263   4.829  17.729  11.094
29003W        W88264   0.275  22.168  12.345
29004W        W88265   1.451  27.680  14.025
29005W        W88266  21.532  27.678  11.371
29006W        W88267  43.375  16.266   4.786
29007W        W88268   1.346  40.839  11.116
29008W        W88269  26.164  18.609  14.810
29009W        W88270  25.549  38.972  10.127
29010W        W88271  42.009   4.223  13.359
29011W        W88272  13.154  22.098  11.439
29012W        W88273  44.277  29.641   2.739
29013W        W88274  31.961   7.417  13.409
29014W        W88275  43.835  40.397  10.493
29015W        W88276  25.477   4.313  14.500
29016W        W88277   9.313  31.926   2.268
29017W        W88278  13.805   4.699   3.359
29018W        W88279  40.869  15.657  14.352
29019W        W88280   5.269  21.157  12.370
29020W        W88281   9.242  40.516   2.816
29021W        W88282  29.539  11.135  11.125
29022W        W88283   3.849  33.510   3.765
29023W        W88284  39.314  40.019   4.150
29024W        W88285  43.776  39.319  11.455
29025W        W88286  39.443  35.601   3.372
29026W        W88287  14.296  14.110   3.732
29027W        W88288  27.678   7.708  11.895
29028W        W88289  15.818  44.883  14.501
29029W        W88290  31.618  41.502  14.998
29030W        W88291   6.852  14.769   2.752
29031W        W88292   7.871  30.492  12.576
29032W        W88293  35.548  42.360  13.064
29033W        W88294  32.994  20.215  12.417
29034W        W88295  26.681   6.918  12.081
29035W        W88296  32.094  44.268   1.883
29036W        W88297   6.197  42.399  13.965
29037W        W88298  28.577  44.942   0.365
29038W        W88299   6.228  26.562  14.507
29039W        W88300  34.941  35.382  11.942
29040W        W88301  39.940  29.919   2.405
29041W        W88302  14.107  44.292   2.358
29042W        W88303  39.942   7.180  10.626
29043W        W88304   7.718  28.061   0.445
29044W        W88305  31.015  35.369   1.834
29045W        W88306  22.037  44.780   0.807
29046W        W88307  23.526  22.031   1.245
29047W        W88308  15.605  14.186   2.416
29048W        W88309  15.319  16.315  10.994
29049W        W88310  26.683   6.308   3.714
29050W        W88311  16.297   3.923  14.456
29051W        W88312  28.972  16.266  13.861
29052W        W88313   5.694  23.135  10.526
29053W        W88314  23.111  44.874  13.821
29054W        W88315  26.089   1.828  11.909
29055W        W88316  19.741   2.775  10.469
29056W        W88317  44.938  44.292  12.418
29057W        W88318  17.115  26.059  10.087
29058W        W88319  29.491   5.268  13.476
29059W        W88320   4.870   5.284   9.955
29060W        W88321  34.977   2.854  13.414
29061W        W88322  44.285  11.180  14.908
29062W        W88323  34.540  29.961   1.361
29063W        W88324  30.989  32.114   3.653
29064W        W88325   4.408   1.304   4.227
29065W        W88326   1.389  16.207   2.758
29066W        W88327  20.040  12.714  14.796
29067W        W88328   2.232   3.720   0.290
29068W        W88329  16.731  25.109  11.485
29069W        W88330   0.935  12.321   4.652
29070W        W88331  22.139   7.301   3.374
29071W        W88332  33.474  37.457   2.822
29072W        W88333  18.210  39.845  12.002
29073W        W88334  38.418  31.514  14.970
29074W        W88335   4.255  37.455   3.675
29075W        W88336   8.339  34.387  14.449
29076W        W88337  26.076   9.334  10.932
29077W        W88338  39.452  35.034   4.198
29078W        W88339  40.952  39.951  10.539
29079W        W88340  17.260  34.894   2.276
29080W        W88341  41.816   6.840  14.009
29081W        W88342  35.364  23.623  11.889
29082W        W88343  20.037  33.080   3.324
29083W        W88344  34.444  22.601  14.794
29084W        W88345  40.879  41.537   4.141
29085W        W88346  21.697   8.406   1.307
29086W        W88347   6.704  19.125   2.672
29087W        W88348  24.033  39.888   2.698
29088W        W88349   3.858  39.952  11.881
29089W        W88350  27.106   2.928  11.445
29090W        W88351   7.252  42.464  14.000
29091W        W88352  34.069  33.087  12.834
29092W        W88353  15.129  22.514   0.727
29093W        W88354  32.082  16.739  14.283
29094W        W88355  41.300   7.759  13.816
29095W        W88356  40.024   0.397  10.996
29096W        W88357  22.248  19.174   3.226
29097W        W88358  34.075  26.180   4.213
29098W        W88359  16.215  13.650   4.655
29099W        W88360  16.176  33.440   3.837
29100W        W88361  28.142  39.436  10.594
29101W        W88362  11.228   4.857  12.965
29102W        W88363  20.757  15.262  11.944
29103W        W88364   4.218   5.705   3.864
29104W        W88365  36.955  44.816  14.276
29105W        W88366  22.714  35.566  14.425
29106W        W88367  27.143   8.683  12.343
29107W        W88368  33.500  29.976   1.729
29108W        W88369  29.514  42.921  14.292
29109W        W88370  27.525   4.924   0.314
29110W        W88371   9.757  26.591  11.856
29111W        W88372  34.466  39.414  12.545
29112W        W88373  14.801  20.028  13.340
29113W        W88374   0.763  11.794  11.437
29114W        W88375  23.200  18.090   1.720
29115W        W88376  42.359  10.245  10.471
29116W        W88377  42.509  17.063   1.921
29117W        W88378   0.454  18.598   1.368
29118W        W88379  11.128   4.853  12.090
29119W        W88380  32.965  25.164   2.902
29120W        W88381  39.515  17.796   1.305
29121W        W88382  42.032   0.809   4.632
29122W        W88383   5.330  32.944  11.006
29123W        W88384  33.930  25.492   0.355
29124W        W88385  27.027   9.753  11.602
29125W        W88386   4.865   6.847  13.842
29126W        W88387  27.601  13.680   2.843
29127W        W88388  23.068  40.363   4.710
29128W        W88389   9.885  22.111   4.615
29129W        W88390  37.441  31.575  10.607
29130W        W88391  43.310  24.088  10.455
29131W        W88392  39.344   9.887  13.438
29132W        W88393  34.394  11.739  13.012
29133W        W88394  30.489  43.770  14.816
29134W        W88395  11.762  36.036   0.419
29135W        W88396  27.496   7.874  14.477
29136W        W88397  35.035  37.058   4.181
29137W        W88398  16.635  43.506   0.899
29138W        W88399  34.114  32.067   4.684
29139W        W88400  22.030  38.953  10.509
29140W        W88401   6.383  15.181   4.115
29141W        W88402  29.078  18.564   0.305
29142W        W88403  36.050  24.017   3.174
29143W        W88404  26.523  44.837   4.173
29144W        W88405   8.684  14.726  13.989
29145W        W88406  37.844  18.669  10.420
29146W        W88407  37.528   2.268  11.606
29147W        W88408  23.597  28.976   3.198
29148W        W88409  26.544  18.167   4.649
29149W        W88410  40.303   5.803  10.991
29150W        W88411  43.973  23.558   2.344
29151W        W88412  12.187  42.472   3.267
29152W        W88413  14.779   2.955   5.297
29153W        W88414  40.876   6.818   4.624
29154W        W88415  23.567  17.708  13.473
29155W        W88416  11.814  31.966   1.443
29156W        W88417  31.485  37.522   1.720
29157W        W88418  40.841  42.833  14.892
29158W        W88419  22.034   3.363  12.016
29159W        W88420   6.383  39.846   0.385
29160W        W88421  17.072  41.961  10.022
29161W        W88422  12.827  40.443   4.221
29162W        W88423   6.681  23.078  14.901
29163W        W88424  24.107   1.830  10.009
29164W        W88425   6.719   0.790   4.605
29165W        W88426  19.580  23.655   2.292
29166W        W88427  32.431   8.376   0.365
29167W        W88428   4.775   8.888  14.864
29168W        W88429  43.982  30.014   2.299
29169W        W88430  15.292  17.104  10.536
29170W        W88431  30.541  38.944  10.435
29171W        W88432  36.469  43.499   0.243
29172W        W88433  14.188  29.004   0.269
29173W        W88434  18.089   0.772  14.925
29174W        W88435  17.601  38.360  13.812
29175W        W88436  39.857  11.143  11.906
29176W        W88437  43.352  12.285   2.790
29177W        W88438   3.886  25.515   1.289
29178W        W88439   8.381  44.796  11.548
29179W        W88440  12.756  23.604  11.891
29180W        W88441  31.504  42.908   4.780
29181W        W88442   8.217  15.717  13.434
29182W        W88443   8.664   7.704  10.101
29183W        W88444   3.910  34.490   4.178
29184W        W88445   6.829  28.182   3.711
29185W        W88446  31.985  15.309  12.878
29186W        W88447  37.852  38.554  12.906
29187W        W88448  25.655  19.575  10.974
29188W        W88449  15.776  24.636   1.707
29189W        W88450  18.641  35.988  14.302
29190W        W88451  30.605  37.967  13.461
29191W        W88452  27.464   1.950   3.157
29192W        W88453  32.126  43.399  12.987
29193W        W88454  14.191   3.270  11.876
29194W        W88455  14.164  19.747   0.300
29195W        W88456  27.174  17.627   3.763
29196W        W88457  16.812   1.946   4.774
29197W        W88458   3.735  15.705  10.486
29198W        W88459   0.390   2.789   2.777
29199W        W88460  40.890  28.153   0.438
29200W        W88461  12.131  36.845   1.362
29201W        W88462  40.845  38.383  10.952
29202W        W88463   6.217  30.991   4.253
29203W        W88464  20.086  21.184   1.715
29204W        W88465  37.016  20.215   2.279
29205W        W88466   6.731  23.594   1.238
29206W        W88467  30.425  15.629  11.028
29207W        W88468   2.767  15.652  11.060
29208W        W88469  22.612  11.806  14.451
29209W        W88470  17.615  20.616   1.260
29210W        W88471  35.921   4.795   0.282
29211W        W88472  42.328  36.846  10.500
29212W        W88473  44.469  22.693   4.801
29213W        W88474  17.768   8.787   2.312
29214W        W88475  13.612  19.152  13.805
29215W        W88476  43.470  18.239   3.205
29216W        W88477  33.047  16.144   3.272
29217W        W88478   4.287  43.340   2.741
29218W        W88479   2.915   6.708   0.379
29219W        W88480  19.586  44.968  11.532
29220W        W88481  14.774   1.396   1.756
29221W        W88482  27.963  33.001  11.392
29222W        W88483   0.765  29.502   0.258
29223W        W88484  34.021  36.853  12.945
29224W        W88485  19.233  20.095  13.032
29225W        W88486  42.503  30.581  13.895
29226W        W88487  16.769  31.490   1.820
29227W        W88488  27.040  20.669  14.414
29228W        W88489  20.674   7.876  13.536
29229W        W88490  32.094  38.884  13.032
29230W        W88491  27.544  11.847  13.327
29231W        W88492   2.231  31.057  12.354
29232W        W88493  30.912  42.927   1.361
29233W        W88494  40.372  41.448  11.527
29234W        W88495  42.886  29.930  13.391
29235W        W88496  17.739  24.535   4.331
29236W        W88497  35.604  44.857  11.445
29237W        W88498  20.630   9.865  12.580
29238W        W88499  23.639  27.082  14.871
29239W        W88500  32.528   0.414   1.410
29240W        W88501  12.646  40.939  14.315
29241W        W88502  24.978  15.131  13.868
29242W        W88503  29.505  36.066  13.823
29243W        W88504  26.671  39.313  10.923
29244W        W88505  33.931  15.589  12.825
29245W        W88506  20.638   7.909   4.722
29246W        W88507  20.254  20.683  13.391
29247W        W88508   9.685  39.504   1.373
29248W        W88509   6.891  16.704  13.001
29249W        W88510   9.337   9.841   4.774
29250W        W88511  28.479  43.837  11.870
29251W        W88512  35.994  15.791  10.644
29252W        W88513  26.023   1.283  14.772
29253W        W88514  12.156  43.996   2.797
29254W        W88515  25.618  36.479   2.242
29255W        W88516  35.434  12.739   0.314
29256W        W88517  17.648  41.467   1.902
29257W        W88518   5.305  15.671  14.410
29258W        W88519  15.789  21.602  12.387
29259W        W88520   9.697  40.510   2.294
29260W        W88521   2.325  44.357  12.538
29261W        W88522  31.538   2.724   1.867
29262W        W88523  33.601  37.023   4.833
29263W        W88524  36.563  29.556  11.016
29264W        W88525  24.695  18.676  11.118
29265W        W88526  18.739  43.330  12.518
29266W        W88527  29.565  11.729   3.821
29267W        W88528   7.762  42.963   5.170
29268W        W88529  36.578  15.718  12.928
29269W        W88530   7.696  18.266  13.954
29270W        W88531  44.356  37.933   1.415
29271W        W88532  38.039   9.850   0.450
29272W        W88533  23.565  41.458   3.651
29273W        W88534  36.538  16.672  11.122
29274W        W88535   3.835  36.089   5.297
29275W        W88536   4.914  32.615   2.384
29276W        W88537   8.384  11.172   1.210
29277W        W88538  11.845  21.247  13.807
29278W        W88539  40.902  30.987   4.207
29279W        W88540   9.281   9.735  13.440
29280W        W88541  10.685  22.722   3.269
29281W        W88542   7.895  21.045   1.704
29282W        W88543  25.537  23.608   4.281
29283W        W88544  21.167  11.260  12.867
29284W        W88545  11.330  32.414  13.798
29285W        W88546  10.812  23.212  12.965
29286W        W88547  13.226  19.084   0.288
29287W        W88548   7.710  36.015   9.989
29288W        W88549  13.209  32.438   4.173
29289W        W88550  42.846  29.036  12.384
29290W        W88551  24.121   6.215   3.792
29291W        W88552  36.862   4.267   1.375
29292W        W88553  12.822  31.017  10.457
29293W        W88554  40.328  26.460   4.768
29294W        W88555  42.479   1.759   4.323
29295W        W88556  11.766  20.562  11.502
29296W        W88557  18.126  35.448  13.395
29297W        W88558  40.862  31.592   1.273
29298W        W88559  15.793  40.916  11.054
29299W        W88560  31.014  17.291  10.546
29300W        W88561  22.590  10.335  10.517
29301W        W88562  26.066  43.442   0.336
29302W        W88563  43.514  42.785  13.481
29303W        W88564  44.415  24.142  13.962
29304W        W88565  23.720  38.842   1.740
29305W        W88566  21.515  17.160   2.401
29306W        W88567  29.506   8.725  14.301
29307W        W88568  40.966  20.540  13.431
29308W        W88569  12.765  34.600  14.394
29309W        W88570  26.030  26.674   1.337
29310W        W88571  24.723  43.947   2.405
29311W        W88572  30.086  33.939  11.895
29312W        W88573  41.469   8.664  13.910
29313W        W88574  18.588  18.263  13.990
29314W        W88575  25.691   7.279  11.094
29315W        W88576  21.602  20.587   3.745
29316W        W88577  25.518  25.203  12.981
29317W        W88578  11.844  27.492   2.179
29318W        W88579  35.397  28.075   0.302
29319W        W88580  25.186   3.848  12.533
29320W        W88581  36.013   4.766   2.849
29321W        W88582  12.160  24.230  11.388
29322W        W88583  27.508  25.069   4.353
29323W        W88584  17.159  36.501   1.731
29324W        W88585  22.652  27.501   0.788
29325W        W88586   9.286   3.220  11.592
29326W        W88587   0.438  23.027   0.905
29327W        W88588  16.778   3.250   2.265
29328W        W88589  40.809  16.577  10.963
29329W        W88590  14.131  27.608   1.705
29330W        W88591  39.534   1.473  10.640
29331W        W88592  40.344  21.537  10.557
29332W        W88593   6.776  14.276  14.919
29333W        W88594  42.997   8.376   0.794
29334W        W88595  31.435  31.509   0.298
29335W        W88596  17.614  29.432   2.728
29336W        W88597  25.038   1.828  12.445
29337W        W88598  12.190   1.752   5.243
29338W        W88599  41.411  29.083   4.624
29339W        W88600  21.644  24.095  12.071
29340W        W88601  19.541   6.360  10.641
29341W        W88602  29.942  44.886   2.778
29342W        W88603  29.051  15.746  12.029
29343W        W88604  32.991   8.841   1.257
29344W        W88605  38.036  26.618  14.350
29345W        W88606  10.651  32.925   0.752
29346W        W88607  37.391  41.857  11.966
29347W        W88608  16.201  25.162   0.353
29348W        W88609  26.045  16.709   4.217
29349W        W88610  30.937   7.361   3.793
29350W        W88611  10.225  14.116  11.971
29351W        W88612  35.411  33.553  12.441
29352W        W88613  36.354   1.895  12.367
29353W        W88614  28.088   3.875   1.771
29354W        W88615  28.649  22.593  10.450
29355W        W88616  22.545  43.428  13.520
29356W        W88617  40.945  40.842  12.029
29357W        W88618  23.589   4.873   2.405
29358W        W88619  15.767   4.824   3.308
29359W        W88620  40.803   0.412   4.601
29360W        W88621  29.467  16.760  12.044
29361W        W88622  16.089  34.996   1.813
29362W        W88623  19.044   3.846  10.897
29363W        W88624  20.267   0.349   3.153
29364W        W88625  17.215  17.249   0.847
29365W        W88626   6.240   6.722  13.024
29366W        W88627  36.876  39.962   0.464
29367W        W88628  36.016  35.103   5.262
29368W        W88629  36.094  20.752  11.372
29369W        W88630  33.942  15.694   1.308
29370W        W88631  22.031   7.284  12.446
29371W        W88632  20.113  14.296  11.963
29372W        W88633  18.284  29.526  12.850
29373W        W88634  19.755  43.375   2.197
29374W        W88635  41.494  34.103   0.897
29375W        W88636   8.855   5.232   5.106
29376W        W88637  33.610  32.489  10.014
29377W        W88638  31.014  40.518   3.285
29378W        W88639  42.777   6.262   2.717
29379W        W88640  34.605  34.480   1.874
29380W        W88641   1.772  23.657  13.999
29381W        W88642  20.164  31.475  12.520
29382W        W88643   9.712  15.677  11.919
29383W        W88644  36.410  37.480  11.985
29384W        W88645  10.281  13.132  14.962
29385W        W88646   1.373  16.187   3.802
29386W        W88647  23.715  17.300  14.415
29387W        W88648  40.798  42.946   3.671
29388W        W88649  15.182  24.707  11.438
29389W        W88650  21.202  15.185   0.828
29390W        W88651   7.193   0.442  12.495
29391W        W88652  14.819  14.662  12.919
29392W        W88653  23.132  36.518  13.833
29393W        W88654  34.940  25.683  10.477
29394W        W88655  39.399  13.650  11.391
29395W        W88656  10.635  16.235   1.283
29396W        W88657   6.680  26.525   0.291
29397W        W88658  43.969  21.048   2.876
29398W        W88659  27.494   9.230  11.543
29399W        W88660  15.097   9.242  10.974
29400W        W88661  24.138   1.943  12.905
29401W        W88662  37.912   1.246  14.376
29402W        W88663   2.464  16.314  11.892
29403W        W88664  16.608  43.781   4.123
29404W        W88665  34.903  29.062   2.397
29405W        W88666  22.136  11.268   1.396
29406W        W88667  35.975  10.729   4.731
29407W        W88668  21.688  15.663   0.858
29408W        W88669   4.267  26.632   0.470
29409W        W88670  23.632  41.441  14.942
29410W        W88671  13.282  17.172   3.317
29411W        W88672  26.653  15.298   4.141
29412W        W88673  29.165   7.282  11.114
29413W        W88674  30.514   3.910   3.803
29414W        W88675  42.448  28.460  13.391
29415W        W88676  43.432  21.654  10.432
29416W        W88677  28.605  34.960  10.102
29417W        W88678  26.205  42.861   1.428
29418W        W88679   7.242  25.533   3.765
29419W        W88680  13.202  25.700  13.318
29420W        W88681  37.449   1.774  13.926
29421W        W88682   5.321  36.020  11.909
29422W        W88683  21.111   8.268  14.477
29423W        W88684   2.888  21.736  13.346
29424W        W88685  31.016  44.495   4.671
29425W        W88686  31.094  12.641  12.394
29426W        W88687  19.714  43.331   0.929
29427W        W88688  39.005  19.647   1.839
29428W        W88689   7.293   5.726   1.353
29429W        W88690  38.052  35.877  14.401
29430W        W88691  15.191  34.603  11.575
29431W        W88692  24.033   0.874  11.898
29432W        W88693   1.859   5.687   1.828
29433W        W88694  10.189   0.873   1.870
29434W        W88695  34.499   2.920  11.604
29435W        W88696  15.589  36.001  13.331
29436W        W88697  20.209  29.921   3.639
29437W        W88698  39.827  38.037  11.999
29438W        W88699  14.740  20.116  14.487
29439W        W88700  26.686  22.638   3.166
29440W        W88701   5.732  10.746  13.959
29441W        W88702  26.498   2.404   5.303
29442W        W88703  13.707  35.416  12.419
29443W        W88704  40.495  27.165   0.316
29444W        W88705  29.144   1.247  10.524
29445W        W88706   8.859  26.180  10.603
29446W        W88707  27.016  11.767   3.853
29447W        W88708   4.710   0.257  14.920
29448W        W88709  43.013  44.964  12.041
29449W        W88710  22.703  37.379  11.112
29450W        W88711  14.145  30.477  13.933
29451W        W88712  10.284  32.436  11.403
29452W        W88713  21.720  16.310   2.287
29453W        W88714   4.305  43.417   4.203
29454W        W88715  29.066   0.786   0.755
29455W        W88716  23.231  14.306  11.109
29456W        W88717  38.012  27.511   2.389
29457W        W88718  34.968  42.291   3.220
29458W        W88719   5.366  26.184  14.378
29459W        W88720  35.909  25.048   1.815
29460W        W88721   5.755  42.880   0.866
29461W        W88722  24.207  35.417   3.645
29462W        W88723  12.347  17.780   0.772
29463W        W88724  35.104  28.082  13.488
29464W        W88725   2.919  23.163  13.548
29465W        W88726   1.296  26.474   1.272
29466W        W88727  40.442  18.196  14.405
29467W        W88728  15.798  27.576  12.000
29468W        W88729  11.640  31.073  14.937
29469W        W88730  43.414  28.559  14.968
29470W        W88731  34.503  35.099  13.308
29471W        W88732  22.179  26.050  13.309
29472W        W88733  36.486  15.727  13.336
29473W        W88734  36.526   8.237  14.312
29474W        W88735   3.313  17.563   4.327
29475W        W88736   8.807   5.416   1.319
29476W        W88737   0.396  42.421   1.829
29477W        W88738  44.423   2.244   0.771
29478W        W88739  32.491  12.225   0.410
29479W        W88740   8.345  36.366  14.490
29480W        W88741   4.759  31.534   3.172
29481W        W88742  22.531  42.425   4.286
29482W        W88743  16.238   1.911   1.785
29483W        W88744   6.701  11.854  14.016
29484W        W88745  16.213  33.085   3.867
29485W        W88746  37.427  33.460  12.435
29486W        W88747  19.535  10.190  11.528
29487W        W88748  11.639  17.137  11.419
29488W        W88749  14.151   1.416  13.395
29489W        W88750  26.688   7.239  13.391
29490W        W88751  19.094  44.865  14.976
29491W        W88752  27.189  19.728   3.206
29492W        W88753  25.159  43.880  12.377
29493W        W88754  32.034  30.070   0.482
29494W        W88755  28.599  31.631   2.386
29495W        W88756  34.947  39.373   4.693
29496W        W88757  13.786  27.041  14.889
29497W        W88758  27.593  18.081  10.565
29498W        W88759  42.989  12.640   3.220
29499W        W88760  29.964  10.844   0.400
29500W        W88761  44.772  24.482  12.958
29501W        W88762  17.138  10.315   3.756
29502W        W88763  38.013  23.569  13.821
29503W        W88764  44.409   9.666  13.428
29504W        W88765  31.089  42.010   1.240
29505W        W88766  17.061  40.511  14.788
29506W        W88767  21.019  36.092  14.939
29507W        W88768   1.473  22.229  14.281
29508W        W88769  41.005  33.587  12.855
29509W        W88770  41.413  28.102  13.376
29510W        W88771   5.319  14.238  12.472
29511W        W88772  22.045  18.572  14.879
29512W        W88773  28.646  35.443   1.737
29513W        W88774  42.958  10.243  14.428
29514W        W88775   1.426  35.997  11.551
29515W        W88776   9.171   1.271  11.411
29516W        W88777  36.453  12.728  12.014
29517W        W88778  19.663  17.252   1.328
29518W        W88779  12.706   6.914  10.916
29519W        W88780  40.015  26.547   2.272
29520W        W88781  27.029  44.355   1.263
29521W        W88782  32.589  11.674   4.291
29522W        W88783   2.804   6.736   4.705
29523W        W88784  33.433   6.380  10.065
29524W        W88785  33.989  41.382  13.897
29525W        W88786  43.781  39.352   2.687
29526W        W88787  38.476  34.865   1.902
29527W        W88788  39.823  17.619   0.323
29528W        W88789  35.042  21.740  13.061
29529W        W88790   6.402  12.698  10.422
29530W        W88791  18.674   9.287   4.348
29531W        W88792   2.906  38.381   2.218
29532W        W88793  27.132   1.933  11.955
29533W        W88794  35.924  44.417   2.316
29534W        W88795  30.485  28.551   1.424
29535W        W88796   2.731   7.853   1.333
29536W        W88797  16.081  27.668   3.750
29537W        W88798  19.102  34.954  10.944
29538W        W88799  22.534  34.064  14.016
29539W        W88800  40.963  36.540  11.125
29540W        W88801  13.757   9.318   3.189
29541W        W88802  12.846  17.682   0.312
29542W        W88803  36.587   1.323  13.485
29543W        W88804  44.782  23.674  11.556
29544W        W88805  22.104  21.101   4.640
29545W        W88806  22.612  33.590   4.785
29546W        W88807  18.656  44.948   2.264
29547W        W88808  16.609  40.362  14.894
29548W        W88809  38.829  12.341   5.107
29549W        W88810  16.187  17.584  11.046
29550W        W88811  26.546  27.978  10.975
29551W        W88812   0.802  31.494   3.788
29552W        W88813  32.043   6.764   1.267
29553W        W88814   4.401  13.815   0.366
29554W        W88815  39.519  17.176  11.458
29555W        W88816   4.883   0.801  10.922
29556W        W88817  15.800  34.421   1.345
29557W        W88818  43.856   3.832  13.452
29558W        W88819  29.430  21.646   1.922
29559W        W88820  13.783  31.494  14.869
29560W        W88821  30.499  35.438   2.879
29561W        W88822  27.500  22.656  11.090
29562W        W88823  30.097  39.361   3.282
29563W        W88824   1.314  39.487   4.346
29564W        W88825   6.923  17.780  11.002
29565W        W88826  15.629   7.362   0.945
29566W        W88827  17.665  30.548  11.432
29567W        W88828  24.598  33.949  12.090
29568W        W88829  17.125   2.380   4.696
29569W        W88830   0.929  15.281   1.922
29570W        W88831  24.145  17.193   5.094
29571W        W88832  16.725  42.802   3.160
29572W        W88833   2.878  17.240  12.439
29573W        W88834  42.923   5.197  12.939
29574W        W88835  41.299  19.615   1.248
29575W        W88836  10.858  33.130  11.613
29576W        W88837  20.151  41.829  13.868
29577W        W88838  29.631  22.563   0.294
29578W        W88839  17.222  17.618  13.925
29579W        W88840  29.448  31.057   1.813
29580W        W88841  33.563   9.215  14.914
29581W        W88842  25.668  30.425   3.263
29582W        W88843  32.920   9.808   3.222
29583W        W88844  10.179  16.771   1.215
29584W        W88845   4.330  17.606  13.332
29585W        W88846  28.583   7.412  11.415
29586W        W88847  26.022  26.990  11.460
29587W        W88848  39.421  20.764   4.821
29588W        W88849  19.594   8.825  13.324
29589W        W88850  11.789   1.815  14.912
29590W        W88851   6.226  43.433   3.675
29591W        W88852  30.142  37.927   0.483
29592W        W88853  24.041  30.149   4.344
29593W        W88854  10.752  16.236   1.734
29594W        W88855  34.025  25.700  11.963
29595W        W88856  36.045  16.227  12.973
29596W        W88857  37.871  24.489  12.372
29597W        W88858  39.345  28.568  14.369
29598W        W88859  18.255  18.674   9.635
29599W        W88860  29.114  21.681  12.342
29600W        W88861  37.575   6.218   3.670
29601W        W88862  26.011  16.632  11.505
29602W        W88863  21.720  17.587   4.255
29603W        W88864   3.336  18.122   2.672
29604W        W88865  44.373  42.947  14.002
29605W        W88866   7.851  36.405  13.908
29606W        W88867  29.575  13.651   5.697
29607W        W88868  37.412  11.260  13.467
29608W        W88869   5.260  38.360   3.678
29609W        W88870  37.545  35.428   0.408
29610W        W88871  26.007  24.063   4.152
29611W        W88872  25.502  43.016  12.487
29612W        W88873  17.694   6.736   1.921
29613W        W88874  15.202  16.733  13.354
29614W        W88875  17.158  19.178  11.001
29615W        W88876  36.017  17.659   3.263
29616W        W88877  12.765   8.334  10.517
29617W        W88878  29.494  44.324  11.975
29618W        W88879  39.859   9.278  12.447
29619W        W88880  44.821   3.742  12.389
29620W        W88881  13.710  28.599  11.938
29621W        W88882  20.040  17.157   1.762
29622W        W88883  18.611  18.607   9.937
29623W        W88884  19.726  44.410   0.848
29624W        W88885  16.210  36.421  13.962
29625W        W88886  15.818  14.322  14.317
29626W        W88887  34.502  16.156  11.964
29627W        W88888  16.235  15.760   5.132
29628W        W88889  38.962  25.069   0.851
29629W        W88890  35.967   2.365   4.346
29630W        W88891  13.181  28.136  12.411
29631W        W88892  41.835  32.085  14.774
29632W        W88893  41.841   9.370   0.470
29633W        W88894  31.638  25.127   3.679
29634W        W88895   7.717  20.183   4.755
29635W        W88896  18.641  26.654   0.911
29636W        W88897   5.395  35.963   1.279
29637W        W88898  28.462  38.071  13.908
29638W        W88899  39.941   2.892   0.278
29639W        W88900   5.913   8.673  11.569
29640W        W88901   6.721  20.059   4.239
29641W        W88902   0.365  12.145   3.818
29642W        W88903   7.300  12.120   2.203
29643W        W88904  38.985  35.087   4.655
29644W        W88905  23.541  35.061  10.899
29645W        W88906  23.626   3.881  12.076
29646W        W88907   8.720  19.255  12.399
29647W        W88908   6.265   6.324   0.947
29648W        W88909  39.000  11.325   4.746
29649W        W88910   0.791  25.074   4.174
29650W        W88911  25.066  34.042  14.880
29651W        W88912   5.405  14.743  14.286
29652W        W88913   0.958   7.790   2.355
29653W        W88914  25.183  28.595  11.039
29654W        W88915  33.397  10.695  12.560
29655W        W88916  44.375  27.105   0.731
29656W        W88917   8.350  15.587   0.897
29657W        W88918  36.487   7.835  11.506
29658W        W88919   7.248  28.060   1.798
29659W        W88920   6.370  13.653   1.746
29660W        W88921   4.440   6.384   0.862
29661W        W88922  40.897  34.546  14.405
29662W        W88923  16.229   3.403  14.441
29663W        W88924  41.451  34.374   2.316
29664W        W88925  22.672  28.932   1.336
29665W        W88926  24.551  32.026   1.739
29666W        W88927  36.867  12.669   4.773
29667W        W88928  16.143  37.014  14.931
29668W        W88929  27.487   3.388   4.653
29669W        W88930  11.759  14.677   2.664
29670W        W88931  22.050  30.613   0.762
29671W        W88932   5.748  44.815   0.479
29672W        W88933  20.143  41.454   0.817
29673W        W88934  14.115  11.683  14.493
29674W        W88935  22.041  11.745  14.895
29675W        W88936  40.427  36.922   1.259
29676W        W88937  13.164  41.848  14.996
29677W        W88938   1.378  15.631  10.113
29678W        W88939  15.238  20.713   0.744
29679W        W88940  24.670   5.708   2.287
29680W        W88941  34.406  12.357   3.634
29681W        W88942  26.505  19.226  11.921
29682W        W88943  35.576   2.245   1.389
29683W        W88944  17.754   0.975   1.735
29684W        W88945  42.892  34.942  13.485
29685W        W88946   9.796  22.715   0.893
29686W        W88947  35.975  22.121   3.153
29687W        W88948  27.504  35.970   4.712
29688W        W88949  14.745  12.156   0.804
29689W        W88950  30.027  38.371   1.274
29690W        W88951  30.045  30.540  13.976
29691W        W88952  14.168  13.804   2.194
29692W        W88953  18.553   8.860   4.727
29693W        W88954  14.828  41.933   4.264
29694W        W88955   6.764   5.424  11.988
29695W        W88956   3.901  20.235  13.473
29696W        W88957  17.791  29.585  13.823
29697W        W88958  44.263  16.183   2.340
29698W        W88959  31.599   6.909  11.582
29699W        W88960   6.361  14.720  13.417
29700W        W88961  30.147  36.451  11.506
29701W        W88962  12.841  44.297  12.856
29702W        W88963   2.301  33.113  13.039
29703W        W88964  35.416   4.359   4.786
29704W        W88965  15.802   6.795  12.474
29705W        W88966  27.571  26.958  11.564
29706W        W88967  34.577  31.117   1.327
29707W        W88968   1.967  41.028  13.379
29708W        W88969  24.705  44.883   0.785
29709W        W88970  24.134   4.218  12.450
29710W        W88971  40.322  35.020   1.876
29711W        W88972  20.112  40.336  12.483
29712W        W88973  16.298  26.100  11.509
29713W        W88974  28.001  10.715   4.773
29714W        W88975  32.000   2.740   4.133
29715W        W88976  10.272  23.597  12.537
29716W        W88977  42.800  41.951  12.522
29717W        W88978  35.911  15.602  13.815
29718W        W88979  35.522  12.617   1.731
29719W        W88980  20.660   8.177   2.216
29720W        W88981  41.364  35.013   3.305
29721W        W88982  39.900  38.037   4.822
29722W        W88983  27.589  36.366   2.375
29723W        W88984  41.492   7.340   4.737
29724W        W88985  31.563  40.525  10.891
29725W        W88986   9.354  22.655   3.192
29726W        W88987  13.274   0.906  10.131
29727W        W88988   9.250  30.645  13.874
29728W        W88989  28.013   1.776  12.393
29729W        W88990  44.466  11.199  14.344
29730W        W88991  25.572  27.620  12.480
29731W        W88992  21.617  14.677   2.255
29732W        W88993  35.518  26.076  12.354
29733W        W88994   5.884  38.904   1.324
29734W        W88995  17.115  44.831   3.340
29735W        W88996  11.130  36.888   2.739
29736W        W88997   7.777  10.278  14.983
29737W        W88998  37.459   4.823  10.410
29738W        W88999  40.514  31.461  10.911
29739W        W89000  35.855  33.434   2.197
29740W        W89001  29.075  23.111  14.761
29741W        W89002  12.320  28.086  10.456
29742W        W89003   1.471  10.661   4.701
29743W        W89004  41.027  25.658  12.475
29744W        W89005  37.898  25.642  11.091
29745W        W89006  41.004  29.071   2.757
29746W        W89007  20.121  20.056   0.849
29747W        W89008  39.952  33.935   5.626
29748W        W89009   1.957  44.811  10.532
29749W        W89010  27.177  13.190   0.774
29750W        W89011   0.467  14.697   1.302
29751W        W89012  24.590   7.779  13.003
29752W        W89013  37.072  30.422   4.736
29753W        W89014  33.087  19.246  13.950
29754W        W89015  44.919   2.392  13.443
29755W        W89016  36.938  33.562  14.401
29756W        W89017  37.349  43.840  11.960
29757W        W89018  33.572  37.547   3.279
29758W        W89019  40.895  21.244   3.302
29759W        W89020   6.711  15.270   4.205
29760W        W89021  34.965  18.726   1.705
29761W        W89022  30.056  31.634  13.512
29762W        W89023  19.636  35.475   1.706
29763W        W89024  41.840  31.915   0.279
29764W        W89025  13.255  42.366  11.561
29765W        W89026  26.591   5.887   1.752
29766W        W89027  20.658  20.036  12.857
29767W        W89028  26.990  32.511  11.875
29768W        W89029  15.277  28.663  13.830
29769W        W89030   9.833   0.922   1.363
29770W        W89031  43.915  32.998   1.363
29771W        W89032  24.998  28.002  11.456
29772W        W89033  42.927  36.404  12.902
29773W        W89034  25.177  27.016   2.676
29774W        W89035  35.592  31.628   3.674
29775W        W89036  22.121  43.270   3.832
29776W        W89037  20.240  12.211  11.511
29777W        W89038  33.622   3.285   2.786
29778W        W89039  32.440  32.966   1.278
29779W        W89040  17.266   6.336   5.274
29780W        W89041  29.502  44.925  12.418
29781W        W89042  43.874  38.402  12.357
29782W        W89043  22.128   5.760   2.201
29783W        W89044  20.234  24.649  14.994
29784W        W89045  30.024  33.071  12.997
29785W        W89046  23.615  23.191  13.017
29786W        W89047  34.956  38.047   3.660
29787W        W89048  10.756  18.596   0.347
29788W        W89049   9.161  41.455   1.387
29789W        W89050  22.504   3.376  10.537
29790W        W89051   6.847  36.573   3.381
29791W        W89052  28.639  17.731  13.396
29792W        W89053   0.292  39.544   2.285
29793W        W89054  28.045  40.434  14.515
29794W        W89055  13.752  13.217   0.367
29795W        W89056  41.450  10.745   1.224
29796W        W89057  15.175  22.180   3.811
29797W        W89058  43.317  21.184  12.022
29798W        W89059  17.175  41.443   2.901
29799W        W89060  24.066  31.581  12.393
29800W        W89061  34.088  41.918  13.387
29801W        W89062   9.347  14.137  12.446
29802W        W89063  19.181  23.715  11.547
29803W        W89064   2.951  43.936  13.448
29804W        W89065   3.915  40.971  11.374
29805W        W89066  32.946  18.573  13.859
29806W        W89067  33.625  32.090  10.942
29807W        W89068  27.132   4.698  11.509
29808W        W89069  17.798  37.859   4.276
29809W        W89070  31.470  15.653  13.479
29810W        W89071  20.095   6.419  14.394
29811W        W89072  14.708  40.811  13.007
29812W        W89073  33.511  24.182   1.858
29813W        W89074  16.103  29.173  14.919
29814W        W89075  11.715  30.112   1.714
29815W        W89076  11.175  30.503   4.764
29816W        W89077  42.024  17.280  12.550
29817W        W89078  40.478  25.699   0.921
29818W        W89079  43.294  37.393  11.018
29819W        W89080  15.307  43.347   4.152
29820W        W89081  28.130  15.744   4.787
29821W        W89082  25.553  15.109   0.846
29822W        W89083  21.537  22.103   2.708
29823W        W89084  18.644  36.451  10.946
29824W        W89085   8.838  15.290  11.927
29825W        W89086  29.549  30.080   0.435
29826W        W89087   7.278  36.938   2.891
29827W        W89088  13.810  37.974   0.484
29828W        W89089   6.682  24.525   1.816
29829W        W89090  20.750  42.441  10.997
29830W        W89091  41.936  24.569   3.308
29831W        W89092  22.025  20.034   0.856
29832W        W89093  31.112  40.004  10.549
29833W        W89094  36.917  11.715  14.389
29834W        W89095  44.292  39.447   1.872
29835W        W89096   4.213  44.340  12.086
29836W        W89097  31.970  15.246  14.912
29837W        W89098   3.758  18.613   2.344
29838W        W89099  30.964  39.560   0.889
29839W        W89100   0.487  19.563  11.892
29840W        W89101  39.546   3.400   5.295
29841W        W89102   3.263  16.616  12.888
29842W        W89103   4.314  20.571   1.419
29843W        W89104  12.753  21.532  11.897
29844W        W89105  23.038   6.806  11.950
29845W        W89106  13.221  40.427  12.485
29846W        W89107  17.121  24.499  11.053
29847W        W89108  10.311  37.060   1.852
29848W        W89109  30.049  15.219   0.905
29849W        W89110  33.034  37.012  13.395
29850W        W89111  35.438   0.331   2.335
29851W        W89112  15.593   5.777   3.158
29852W        W89113   2.409  15.219  10.566
29853W        W89114  22.531  37.574  13.495
29854W        W89115   8.776  33.567  11.055
29855W        W89116  36.854  21.119  11.031
29856W        W89117   1.452  33.074   2.237
29857W        W89118  22.544   1.800   4.176
29858W        W89119  27.606  43.388   4.804
29859W        W89120   9.762  33.427  11.926
29860W        W89121  18.087  41.371  14.288
29861W        W89122  22.164  30.032   3.265
29862W        W89123   6.367  31.525   0.480
29863W        W89124  27.063   0.845   4.790
29864W        W89125  31.404  32.074   4.651
29865W        W89126  11.749   4.383  14.513
29866W        W89127   0.870  27.485   0.421
29867W        W89128  37.501   2.839   2.753
29868W        W89129   2.235  28.940  12.942
29869W        W89130  13.257   6.359   1.225
29870W        W89131  39.390  17.620  11.021
29871W        W89132  37.027  42.448   5.710
29872W        W89133  41.514  10.275   4.213
29873W        W89134   7.674   0.867   2.316
29874W        W89135   8.702  40.428   2.846
29875W        W89136  13.693  33.517  14.768
29876W        W89137  32.471  39.540  13.847
29877W        W89138  16.302  27.621  11.029
29878W        W89139  44.758  26.042   4.213
29879W        W89140  36.389  43.016  11.460
29880W        W89141  33.908  11.851  11.976
29881W        W89142  41.398  29.670  13.916
29882W        W89143  31.984  17.595  14.944
29883W        W89144  15.771  38.014   3.366
29884W        W89145   2.468  13.767  13.807
29885W        W89146  32.464   9.772  13.520
29886W        W89147   8.868  13.824   2.198
29887W        W89148  26.466  34.907   0.847
29888W        W89149  10.867  33.943  12.434
29889W        W89150  34.026   4.378  10.586
29890W        W89151  21.565  30.504  10.634
29891W        W89152  24.024  22.098   4.331
29892W        W89153  32.904  31.549   2.712
29893W        W89154  10.273  28.494  10.464
29894W        W89155  17.256  32.997   4.639
29895W        W89156  32.461  20.270   2.289
29896W        W89157  30.931  18.572   0.766
29897W        W89158  39.906   9.870  13.338
29898W        W89159   0.485  22.678  14.779
29899W        W89160   6.276  29.041   0.873
29900W        W89161  44.277  21.262  13.502
29901W        W89162  35.502   0.747   3.189
29902W        W89163  38.328   0.413   3.687
29903W        W89164  31.122  20.689  12.451
29904W        W89165   2.232  34.556  13.397
29905W        W89166  34.926   7.227  10.619
29906W        W89167  28.041  32.439  14.912
29907W        W89168  30.511  34.548  11.559
29908W        W89169  33.078  14.759   1.372
29909W        W89170  20.526  38.028  11.971
29910W        W89171  34.377  10.764   1.375
29911W        W89172  11.140  37.831   1.386
29912W        W89173  27.623  12.678   1.334
29913W        W89174  15.741   1.811   4.215
29914W        W89175  32.422  19.099  14.787
29915W        W89176  10.834  12.171   2.731
29916W        W89177  12.791  16.658   4.150
29917W        W89178   8.735  30.623   3.236
29918W        W89179  17.127  23.089   2.387
29919W        W89180  32.126  31.581   1.923
29920W        W89181  18.557  20.173   0.750
29921W        W89182  16.141  34.009   3.334
29922W        W89183  16.657  37.935  13.429
29923W        W89184  34.943  36.957  12.988
29924W        W89185   2.728   4.801  11.917
29925W        W89186  24.686  27.479  11.552
29926W        W89187   0.487  14.785  13.014
29927W        W89188  29.082  44.947  11.866
29928W        W89189   9.872   9.888   0.437
29929W        W89190   3.728   6.285   4.303
29930W        W89191  43.883  20.741   1.794
29931W        W89192  44.851  16.174  12.522
29932W        W89193   7.264  30.441   4.311
29933W        W89194  43.852  23.647   4.775
29934W        W89195  11.281  23.235  13.794
29935W        W89196  29.124  19.546   1.314
29936W        W89197  11.747  33.904   1.442
29937W        W89198  25.154  20.713   1.260
29938W        W89199  42.790   9.689   1.394
29939W        W89200  12.691  16.272   2.888
29940W        W89201  22.595  22.157   4.629
29941W        W89202  28.591  36.480  13.864
29942W        W89203  26.967  33.551   4.701
29943W        W89204   9.267  34.391   0.423
29944W        W89205  28.106  12.218  11.012
29945W        W89206  35.080  25.993   2.366
29946W        W89207  30.925  25.651  14.401
29947W        W89208   5.261  18.161  10.462
29948W        W89209  21.096  18.620   1.435
29949W        W89210  25.183  10.792   2.367
29950W        W89211  27.565   4.214   3.239
29951W        W89212  23.191   2.800  13.011
29952W        W89213  28.515  38.568  10.516
29953W        W89214  40.976  33.397  14.504
29954W        W89215  21.682  18.680   1.771
29955W        W89216  40.819  26.109  11.064
29956W        W89217   0.928  10.665   2.680
29957W        W89218  43.849  44.951  10.629
29958W        W89219  11.848  28.938   3.219
29959W        W89220  38.538  12.631  11.014
29960W        W89221  43.799  26.616  11.940
29961W        W89222  23.531  43.974  11.443
29962W        W89223   9.263  23.584   2.331
29963W        W89224  37.016  40.502  11.537
29964W        W89225  10.710   1.263  14.865
29965W        W89226  41.524  38.951  14.307
29966W        W89227   6.872  26.527   0.733
29967W        W89228  11.838  37.934  12.420
29968W        W89229  22.141  37.865   2.294
29969W        W89230  32.029  22.064   0.473
29970W        W89231   9.875  40.886  13.839
29971W        W89232  33.969   7.225   4.711
29972W        W89233  16.676  10.331  11.535
29973W        W89234  24.698  10.814   4.237
29974W        W89235  23.016   6.740   1.231
29975W        W89236   3.433  12.829   1.794
29976W        W89237  24.665  15.219  10.636
29977W        W89238  29.662  10.148  14.994
29978W        W89239  43.956  41.827   0.475
29979W        W89240  10.685  20.694   0.399
29980W        W89241  38.541   3.800   1.348
29981W        W89242  10.821  40.360  14.784
29982W        W89243  32.592  40.837  13.356
29983W        W89244  32.991  15.091  14.800
29984W        W89245  20.181  23.995   3.362
29985W        W89246  27.020  11.647  13.922
29986W        W89247  34.044  34.883   2.292
29987W        W89248  16.654   4.398  13.450
29988W        W89249  33.907  43.311   3.663
29989W        W89250  15.136  29.121   1.371
29990W        W89251  13.217  38.008  12.878
29991W        W89252  13.759  40.304   1.886
29992W        W89253   3.278   2.773  13.522
29993W        W89254  18.791  19.194  11.117
29994W        W89255  35.078  44.347   4.148
29995W        W89256  23.588  30.961  14.337
29996W        W89257  32.631   6.182   0.465
29997W        W89258  25.039  20.263  12.937
29998W        W89259  29.448  26.516  11.411
29999W        W89260  23.494  24.716   4.156
30000W        W89261  41.442  44.790   3.275
30001W        W89262   0.261  38.856   1.737
30002W        W89263  28.138   8.826  10.538
30003W        W89264  18.183  37.960  14.936
30004W        W89265  35.919  35.388  12.339
30005W        W89266  34.021  31.463  13.006
30006W        W89267  13.714  21.087   0.906
30007W        W89268  35.049  43.388   3.365
30008W        W89269  21.094  11.171  10.411
30009W        W89270  34.572  31.963  13.479
30010W        W89271  21.744  19.535  14.915
30011W        W89272  16.791   1.873   0.826
30012W        W89273   6.841  24.111  14.805
30013W        W89274   0.252  30.625   2.251
30014W        W89275   1.903   1.910   3.309
30015W        W89276   2.296  28.046  11.059
30016W        W89277  35.104   4.411   4.155
30017W        W89278  34.442  18.289  13.538
30018W        W89279  31.005  12.729  10.489
30019W        W89280   7.827  27.112  12.464
30020W        W89281   3.907   7.396   5.254
30021W        W89282  15.303  24.204   2.284
30022W        W89283  38.531  20.204  14.387
30023W        W89284  39.451  41.394  13.476
30024W        W89285  41.441  31.942  10.897
30025W        W89286  10.666  27.080  13.047
30026W        W89287  44.413   2.253   1.757
30027W        W89288  11.332  17.767   1.759
30028W        W89289  17.724  15.636  12.022
30029W        W89290  39.957  20.630  11.005
30030W        W89291   9.697  33.574  14.378
30031W        W89292  23.703  20.052  13.957
30032W        W89293  44.370  32.889   2.244
30033W        W89294  34.975  33.875  10.494
30034W        W89295  22.014  17.583  11.975
30035W        W89296  11.177  14.324   2.296
30036W        W89297  18.241  33.459  11.061
30037W        W89298  43.330  23.121   3.355
30038W        W89299  38.024  18.175  14.865
30039W        W89300  31.478  10.681  12.082
30040W        W89301  44.294   4.698   5.119
30041W        W89302  24.644   6.827  11.912
30042W        W89303  15.771   9.320  11.446
30043W        W89304  10.793   6.793  14.012
30044W        W89305   0.262  24.084  11.086
30045W        W89306  22.690  33.106   0.898
30046W        W89307  21.635  16.104   0.859
30047W        W89308   8.699   9.865   4.678
30048W        W89309  10.175  17.617  11.961
30049W        W89310  33.587  15.661  14.784
30050W        W89311  31.015   0.386  10.591
30051W        W89312  30.513  26.691   3.799
30052W        W89313  20.692  33.592   0.892
30053W        W89314  24.523   0.840  12.959
30054W        W89315  17.779   4.300   0.460
30055W        W89316  24.639  16.617  10.443
30056W        W89317  20.592  38.516   1.928
30057W        W89318   5.814  25.568   1.821
30058W        W89319  42.323   1.307   4.670
30059W        W89320  41.358  20.672  10.635
30060W        W89321  38.414  38.946  10.055
30061W        W89322  20.261   6.895   0.484
30062W        W89323  34.004  32.044  11.393
30063W        W89324  28.528   2.422  11.944
30064W        W89325  23.711  36.349  11.371
30065W        W89326  16.177  19.594  10.449
30066W        W89327  24.535  31.143  14.880
30067W        W89328   8.734   3.278  10.556
30068W        W89329  37.464   3.283   4.217
30069W        W89330  35.530   5.771   3.824
30070W        W89331  28.062  32.971  13.844
30071W        W89332   5.734  40.431  13.792
30072W        W89333  38.483  24.171   4.695
30073W        W89334  41.928  22.150   1.382
30074W        W89335   8.810   3.302  12.530
30075W        W89336  34.507   4.836  11.549
30076W        W89337   8.785   4.915  13.956
30077W        W89338  10.636  28.935   3.182
30078W        W89339   8.785   0.278   2.396
30079W        W89340  41.786  35.428  11.102
30080W        W89341  31.456  41.005  13.041
30081W        W89342  33.401  40.497   2.414
30082W        W89343   9.787  21.191  11.106
30083W        W89344  18.647  39.378   4.621
30084W        W89345   3.282  10.316  12.511
30085W        W89346  26.500  18.594   1.885
30086W        W89347   1.447   7.724  13.545
30087W        W89348  32.121  25.175  12.840
30088W        W89349  28.635  41.916   1.810
30089W        W89350  35.062   0.298   3.634
30090W        W89351  23.592  31.494   1.429
30091W        W89352  38.459  23.151  10.417
30092W        W89353  41.411  39.502  14.377
30093W        W89354  14.781  19.123  14.345
30094W        W89355  40.832   2.947   3.774
30095W        W89356  29.549  31.912   1.400
30096W        W89357  23.728   6.192   4.801
30097W        W89358  36.913  27.022  13.423
30098W        W89359  44.370   9.886   0.360
30099W        W89360  17.071  31.108  11.518
30100W        W89361   6.683  27.127  14.300
30101W        W89362  31.584  27.671  14.419
30102W        W89363  44.943  44.756  10.611
30103W        W89364  16.801  14.171   1.750
30104W        W89365  39.342  33.115   1.245
30105W        W89366   6.380  28.115   3.776
30106W        W89367  10.287  34.065   1.373
30107W        W89368  10.320  15.712  11.114
30108W        W89369  28.634  11.227  12.061
30109W        W89370  10.790   0.287   3.291
30110W        W89371  42.288  33.067  13.416
30111W        W89372   1.404  12.722   4.195
30112W        W89373  43.338  18.679  10.500
30113W        W89374   3.798  41.316   0.288
30114W        W89375  27.586  42.864   4.234
30115W        W89376  33.113   1.840  14.285
30116W        W89377   8.361  15.148   3.680
30117W        W89378  16.744  30.085   3.243
30118W        W89379   7.698  17.593  12.879
30119W        W89380   8.763   2.732   4.740
30120W        W89381  15.175  14.700  11.532
30121W        W89382  43.432   8.753   4.274
30122W        W89383  44.931  15.774   1.932
30123W        W89384   4.430  13.130  11.881
30124W        W89385  18.686  15.719  14.275
30125W        W89386  35.902  33.446  10.453
30126W        W89387  11.784  37.569  12.080
30127W        W89388  17.594  13.617   3.321
30128W        W89389  11.172  13.666   2.856
30129W        W89390   2.961  42.929   3.687
30130W        W89391   6.860   1.295   0.295
30131W        W89392  20.580   9.737   3.357
30132W        W89393  12.610  25.997   3.727
30133W        W89394  31.064  16.137  14.306
30134W        W89395  23.519  18.749   3.386
30135W        W89396  11.268  13.237  12.050
30136W        W89397  40.834  36.009   2.726
30137W        W89398  36.084  34.072   2.342
30138W        W89399  26.182  39.347  14.515
30139W        W89400  22.636  29.440   1.372
30140W        W89401  34.555  39.838  14.857
30141W        W89402  37.913  40.392  11.427
30142W        W89403  11.708  38.932   0.410
30143W        W89404   8.350  31.013   3.275
30144W        W89405  15.717  21.567  12.875
30145W        W89406  31.045  10.285  14.910
30146W        W89407  37.016  34.902  14.346
30147W        W89408  16.237  10.378   4.721
30148W        W89409  26.105  32.405   1.875
30149W        W89410   4.789  25.543   3.336
30150W        W89411  35.054  31.450   3.164
30151W        W89412  41.462  37.029  13.938
30152W        W89413  35.498  42.322  12.539
30153W        W89414  14.785  19.162   0.883
30154W        W89415  23.705  13.742   4.746
30155W        W89416  41.370  11.369   3.298
30156W        W89417   6.207  17.076  14.823
30157W        W89418  20.640  32.535   3.640
30158W        W89419  40.901  34.095   2.407
30159W        W89420   4.234  11.751  12.019
30160W        W89421  27.088  41.890  14.020
30161W        W89422  28.961  32.599  12.936
30162W        W89423  19.159  26.607  12.439
30163W        W89424  21.022  35.552  12.957
30164W        W89425   3.368  10.659   3.368
30165W        W89426   8.658  42.496  12.831
30166W        W89427  34.404  32.624   0.962
30167W        W89428  24.595  28.499  12.447
30168W        W89429  29.085  39.415   2.297
30169W        W89430  31.563   5.296   2.832
30170W        W89431  17.104   2.817  10.453
30171W        W89432  15.764  10.664  14.351
30172W        W89433  18.258  24.688   5.201
30173W        W89434  23.214  18.764   2.350
30174W        W89435   0.931  37.570   1.770
30175W        W89436  21.619  37.369  12.021
30176W        W89437  11.282  15.223  13.482
30177W        W89438  16.269  10.140   4.170
30178W        W89439  31.422   2.344   2.873
30179W        W89440  41.955  26.701  10.044
30180W        W89441   0.867  30.435   5.095
30181W        W89442   6.290  34.554   0.770
30182W        W89443  35.049  41.907  14.921
30183W        W89444  43.418   8.706  14.448
30184W        W89445  23.190  30.642  14.774
30185W        W89446  32.598   2.957   2.314
30186W        W89447  39.547  24.560  12.356
30187W        W89448  37.372  17.253  10.553
30188W        W89449  24.009   5.336  11.107
30189W        W89450  13.675  42.913  11.889
30190W        W89451  14.311   9.168   0.290
30191W        W89452   8.364  38.437  11.053
30192W        W89453  20.035  42.318  12.975
30193W        W89454  40.928  41.820   3.283
30194W        W89455  42.014   0.764   3.160
30195W        W89456  18.594  24.134  11.908
30196W        W89457  31.646  24.642   4.773
30197W        W89458  29.164  44.298  13.938
30198W        W89459  14.675   3.443   0.359
30199W        W89460  34.064  30.449  13.340
30200W        W89461  19.236   3.802  10.565
30201W        W89462  35.603  13.635  11.072
30202W        W89463  31.958  11.788   2.669
30203W        W89464  11.278  26.990   1.821
30204W        W89465  11.676  36.396   3.147
30205W        W89466  44.999  13.724   1.914
30206W        W89467  10.299  13.825  11.911
30207W        W89468  13.649  19.681   3.803
30208W        W89469  23.233  15.621  11.964
30209W        W89470   5.405  22.737  10.522
30210W        W89471  40.953  22.687   2.390
30211W        W89472  24.522  38.343   0.726
30212W        W89473  44.850  13.190  12.852
30213W        W89474  36.444  14.285   2.229
30214W        W89475  25.131   6.722   0.319
30215W        W89476  44.304  16.228   3.160
30216W        W89477  16.304  30.122  14.460
30217W        W89478  18.245  16.080  14.773
30218W        W89479  21.135  12.666  13.517
30219W        W89480  42.376  17.218  14.317
30220W        W89481  36.558   8.292   2.886
30221W        W89482  36.481  21.542  14.021
30222W        W89483   9.337  28.012  13.317
30223W        W89484  20.525  15.653   1.784
30224W        W89485   1.786  22.666  13.855
30225W        W89486  33.478  16.172  12.018
30226W        W89487  43.955   0.838  12.522
30227W        W89488  44.485  23.672   4.164
30228W        W89489  18.213   3.950  13.797
30229W        W89490  23.600  20.125  14.922
30230W        W89491  38.917   0.810   0.827
30231W        W89492  40.869  29.089  10.539
30232W        W89493  11.231  28.617   3.665
30233W        W89494   1.885  43.485  11.912
30234W        W89495   3.272  28.555   2.280
30235W        W89496  12.739  27.149  11.094
30236W        W89497  17.767   8.767   1.298
30237W        W89498  21.242   5.400  10.564
30238W        W89499   2.249  36.484   5.260
30239W        W89500  13.258  34.021  14.827
30240W        W89501  41.923  24.049   0.768
30241W        W89502  14.164  41.969   1.703
30242W        W89503  29.138  42.894   1.347
30243W        W89504  22.526  10.811   3.643
30244W        W89505  21.096   8.857  13.897
30245W        W89506  40.433  30.595   0.265
30246W        W89507  17.091  20.262   3.214
30247W        W89508  34.399  43.862  14.389
30248W        W89509   9.878  30.643   3.316
30249W        W89510  37.505   3.288   0.891
30250W        W89511  29.997  36.886   1.397
30251W        W89512  28.543  35.474   2.699
30252W        W89513   6.740  43.454  14.766
30253W        W89514  21.637  25.024  12.922
30254W        W89515  10.336  11.368   2.700
30255W        W89516  33.887  31.127   4.196
30256W        W89517  15.745  38.501   3.769
30257W        W89518   1.285  22.679   4.191
30258W        W89519  37.012   4.374   1.720
30259W        W89520   1.976  31.018   1.875
30260W        W89521  27.120  30.609  12.827
30261W        W89522   4.241  37.847  12.929
30262W        W89523  28.964  42.500  12.438
30263W        W89524  33.397  33.887   3.784
30264W        W89525  16.728  27.010   1.926
30265W        W89526  37.835   3.756  12.955
30266W        W89527  27.653  21.669  13.508
30267W        W89528  15.614   2.861   0.950
30268W        W89529   8.208  12.211  10.492
30269W        W89530   8.390  14.785  14.819
30270W        W89531   1.916  24.665   1.388
30271W        W89532  31.449   1.448  14.928
30272W        W89533   1.975  28.653   0.268
30273W        W89534   7.789  38.920   1.330
30274W        W89535  23.588  24.621   1.378
30275W        W89536  34.417  16.106  14.005
30276W        W89537   9.828   9.339   4.228
30277W        W89538  35.371   1.804   3.258
30278W        W89539  23.094  19.581   2.694
30279W        W89540  35.581  39.825  11.872
30280W        W89541  26.145  32.973   1.428
30281W        W89542  33.469  12.268   2.806
30282W        W89543  25.625  33.568   4.170
30283W        W89544  42.942  23.612  11.920
30284W        W89545  22.735  31.008   4.626
30285W        W89546  34.867  22.529  11.856
30286W        W89547  43.803  34.426   0.894
30287W        W89548  44.359  32.097   9.968
30288W        W89549   1.819  43.282  12.444
30289W        W89550  26.548  31.046   5.167
30290W        W89551  29.988  20.223  13.891
30291W        W89552  34.890  15.723   1.843
30292W        W89553  37.830  24.097  13.912
30293W        W89554  21.058  35.904  14.468
30294W        W89555  32.915  21.166  11.534
30295W        W89556  32.505  34.036   1.299
30296W        W89557  16.602  21.110   0.323
30297W        W89558  27.107  41.852   4.797
30298W        W89559  39.384  30.540  13.517
30299W        W89560  12.707  19.657  14.382
30300W        W89561  14.299  24.014   1.926
30301W        W89562   2.366  29.644  13.953
30302W        W89563  44.276  31.415   0.826
30303W        W89564  10.226  20.550  13.975
30304W        W89565  17.173   5.743   0.308
30305W        W89566  19.548  18.674  12.952
30306W        W89567  19.676   6.870   4.293
30307W        W89568  19.042  23.154  12.415
30308W        W89569   7.896   0.425   1.825
30309W        W89570  22.527  22.211   3.741
30310W        W89571  23.517  33.020  11.127
30311W        W89572  14.125   6.371  11.116
30312W        W89573   4.777  37.890   3.846
30313W        W89574  34.416  33.056   0.444
30314W        W89575   8.659  21.020   9.926
30315W        W89576   0.270   3.374   4.272
30316W        W89577  28.492   9.845   2.874
30317W        W89578  20.523  44.933  14.854
30318W        W89579  19.255  43.330  12.443
30319W        W89580  34.609  31.491   3.740
30320W        W89581  35.546   9.277  12.995
30321W        W89582  40.413  26.483   1.351
30322W        W89583  17.563  26.518  14.378
30323W        W89584  40.926  43.346  14.797
30324W        W89585   2.867  24.620   4.227
30325W        W89586  10.271   1.238   2.328
30326W        W89587  10.851  32.510  13.881
30327W        W89588  12.634  27.103   2.256
30328W        W89589  41.844  19.079  11.092
30329W        W89590  38.460  38.048   3.328
30330W        W89591  31.000   6.403  11.975
30331W        W89592  22.089  10.286   4.246
30332W        W89593  34.072  34.882   3.277
30333W        W89594  36.031   9.365  14.776
30334W        W89595  40.434   5.371  14.843
30335W        W89596  40.433   5.215   0.893
30336W        W89597  14.635  38.454  11.530
30337W        W89598  34.541   6.856  13.835
30338W        W89599  30.075  11.662   3.636
30339W        W89600  38.566  42.973   2.364
30340W        W89601  23.156  19.276  14.872
30341W        W89602   5.793  10.810   2.795
30342W        W89603  15.659  25.139  13.391
30343W        W89604  24.061  16.691   1.359
30344W        W89605  10.178  27.000   3.829
30345W        W89606   5.751   9.653  14.806
30346W        W89607   2.780  40.952  13.898
30347W        W89608  12.698   2.955   5.104
30348W        W89609   2.406  14.250   1.779
30349W        W89610   7.353  31.905  10.909
30350W        W89611  38.378  24.039  10.957
30351W        W89612  28.163   6.696   3.800
30352W        W89613  30.524  23.101  14.995
30353W        W89614  21.697   1.406  12.397
30354W        W89615  14.815  30.647   2.828
30355W        W89616  23.210   4.851  11.935
30356W        W89617  37.503  24.188  11.570
30357W        W89618   7.182  12.622  12.482
30358W        W89619  36.080  44.384  12.506
30359W        W89620   9.811  13.773   1.904
30360W        W89621  36.991  44.973   0.384
30361W        W89622  37.913   5.777  13.867
30362W        W89623  34.493  37.841   0.751
30363W        W89624   9.643  44.965  12.425
30364W        W89625   9.873   6.274  10.995
30365W        W89626   2.820  11.824   1.236
30366W        W89627  31.064   0.814   2.674
30367W        W89628   9.658  15.815  13.498
30368W        W89629  22.035  39.868   2.326
30369W        W89630  39.060  20.632   2.850
30370W        W89631  30.624  23.069   1.434
30371W        W89632  39.903  20.056  13.918
30372W        W89633  10.782  27.684  10.474
30373W        W89634  24.619   5.419   4.825
30374W        W89635  20.755   2.252   2.858
30375W        W89636  16.605  24.678  14.964
30376W        W89637  27.071  39.812  12.457
30377W        W89638   5.248   2.316   1.857
30378W        W89639  34.599  11.830  11.378
30379W        W89640  36.400  30.589   4.125
30380W        W89641  38.409  41.430  13.314
30381W        W89642  32.599  24.012  12.073
30382W        W89643  34.105   8.160  14.794
30383W        W89644  43.003  35.532   1.855
30384W        W89645  16.698   7.859  11.018
30385W        W89646  11.165  26.585  12.872
30386W        W89647  37.936  31.507  11.938
30387W        W89648  44.457  42.293  11.516
30388W        W89649  30.965   2.250  12.495
30389W        W89650  18.192   1.426  14.339
30390W        W89651  15.688  41.296  10.591
30391W        W89652   5.806  39.477   1.869
30392W        W89653  38.070  40.039   0.445
30393W        W89654  14.299  16.653   2.371
30394W        W89655  10.276   4.249  14.365
30395W        W89656   0.833  32.576   4.131
30396W        W89657  17.229  33.089   0.806
30397W        W89658  31.451   5.721  13.368
30398W        W89659  43.014  24.086   3.289
30399W        W89660   0.425  17.709  13.483
30400W        W89661  41.848  12.737   4.655
30401W        W89662  14.607  10.651   4.264
30402W        W89663   4.797   6.871   0.958
30403W        W89664  16.079   9.693  14.470
30404W        W89665  26.019  25.203   2.789
30405W        W89666   7.730  43.437  11.013
30406W        W89667  34.492  21.708  13.997
30407W        W89668   6.720  36.928   2.716
30408W        W89669  28.545  16.174   2.313
30409W        W89670  18.269  12.191  13.359
30410W        W89671   9.219   8.355  12.436
30411W        W89672   6.191   3.843   0.888
30412W        W89673  20.534   2.932  11.998
30413W        W89674  15.817  34.395  13.541
30414W        W89675   0.895   9.177  11.466
30415W        W89676   7.360   3.240   2.183
30416W        W89677  24.191  21.682   1.391
30417W        W89678   0.795   0.286   3.646
30418W        W89679  10.150  10.202   5.298
30419W        W89680  35.949  24.632  13.322
30420W        W89681  27.960  34.882   1.799
30421W        W89682  17.593  12.762  11.581
30422W        W89683  28.474  31.039   1.254
30423W        W89684  10.858  10.219   4.315
30424W        W89685  18.690  33.444   3.641
30425W        W89686  16.677  26.206   4.782
30426W        W89687  43.433  35.027   1.326
30427W        W89688  19.279  29.118  14.958
30428W        W89689   9.704  15.735  12.834
30429W        W89690  21.043  42.927  11.859
30430W        W89691  37.519  16.752   2.414
30431W        W89692   3.902  34.530   0.385
30432W        W89693  18.671  25.105   3.373
30433W        W89694  29.004   3.921   2.327
30434W        W89695  12.131   4.916  10.558
30435W        W89696  33.450   5.201  12.345
30436W        W89697  33.580  32.052   5.310
30437W        W89698  29.155  40.885   3.789
30438W        W89699  44.274  20.191  10.018
30439W        W89700  19.106   8.333   2.278
30440W        W89701  42.348  14.274   4.807
30441W        W89702  22.597   4.398   3.357
30442W        W89703  12.646   6.428   2.296
30443W        W89704  35.980  11.784   3.703
30444W        W89705  13.618  21.105   4.641
30445W        W89706  30.611  24.665   3.668
30446W        W89707  22.112  44.987  14.780
30447W        W89708  35.378  13.221  12.012
30448W        W89709  30.467  15.296  11.385
30449W        W89710  40.007  17.085   3.781
30450W        W89711   1.907  39.929  10.627
30451W        W89712  30.480  28.592   4.726
30452W        W89713  19.096  33.381   1.294
30453W        W89714  10.737  26.482   1.269
30454W        W89715  30.079  10.671   2.321
30455W        W89716  35.929  33.999  13.961
30456W        W89717  34.385  38.338  12.526
30457W        W89718  26.680  44.487  14.950
30458W        W89719  44.898  35.461   4.801
30459W        W89720   0.752   3.272   4.718
30460W        W89721  16.740  21.243  11.444
30461W        W89722  24.152  12.732   4.821
30462W        W89723  30.583  12.647  11.075
30463W        W89724  39.368  13.264  11.466
30464W        W89725  35.966   8.318   3.155
30465W        W89726   6.835   1.744   4.261
30466W        W89727  36.437   5.792  10.942
30467W        W89728  41.356   3.411   2.853
30468W        W89729  21.728   6.712  12.429
30469W        W89730  12.161  33.439  10.464
30470W        W89731  31.088  22.171   2.900
30471W        W89732   0.289  25.517  13.869
30472W        W89733  10.771   7.877  11.451
30473W        W89734  41.930  16.297   3.777
30474W        W89735  13.703  13.676  12.004
30475W        W89736  19.744  19.592  11.980
30476W        W89737  22.081   3.896   1.268
30477W        W89738  21.553  19.187   4.714
30478W        W89739  30.521  25.672   2.347
30479W        W89740  16.105  27.022  10.895
30480W        W89741  20.631   6.187  13.045
30481W        W89742  31.926  19.724   2.842
30482W        W89743  21.578   1.849   0.481
30483W        W89744   7.286  20.043  14.960
30484W        W89745  33.079  40.537  14.343
30485W        W89746  43.425  20.198  12.491
30486W        W89747  33.938  29.032   3.863
30487W        W89748  18.644  10.329  13.803
30488W        W89749  28.099  33.066  14.834
30489W        W89750   7.690  38.842  10.892
30490W        W89751  43.269   5.736   4.729
30491W        W89752  17.283   4.384  13.308
30492W        W89753  34.059   1.401  10.556
30493W        W89754  12.141  32.075   2.253
30494W        W89755   7.890  31.620  13.542
30495W        W89756  37.046  26.542   1.845
30496W        W89757  37.558  17.249  12.469
30497W        W89758  27.977   6.703  11.952
30498W        W89759  20.747  40.970  14.817
30499W        W89760  31.465  32.939  14.826
30500W        W89761  14.826  38.855   1.335
30501W        W89762  16.574  27.184  10.946
30502W        W89763  15.793  18.706  13.383
30503W        W89764  12.651  19.774  12.427
30504W        W89765   5.389  38.505   2.809
30505W        W89766  16.700  33.409   2.761
30506W        W89767  11.267  11.681   2.821
30507W        W89768  39.936  34.018  13.454
30508W        W89769   8.223  41.526   4.215
30509W        W89770  43.390  44.848   0.319
30510W        W89771   0.279  20.622  11.457
30511W        W89772  29.431  38.401   0.825
30512W        W89773  16.180  33.558   1.889
30513W        W89774   7.391  41.507  12.027
30514W        W89775  11.625  14.637  12.380
30515W        W89776  11.334  42.935  11.419
30516W        W89777  13.158  29.969   1.432
30517W        W89778   2.339   0.368   1.699
30518W        W89779  40.003  24.539  10.988
30519W        W89780  42.946  28.437   2.211
30520W        W89781   1.839  32.534  11.425
30521W        W89782   4.365  34.446   4.133
30522W        W89783  43.315  37.845  14.763
30523W        W89784  19.262  44.903  12.378
30524W        W89785  21.646   8.259  11.066
30525W        W89786  16.763  16.108  10.569
30526W        W89787  35.386  27.558  14.906
30527W        W89788  39.915  42.303  11.440
30528W        W89789  33.437  35.498  11.532
30529W        W89790   0.258   3.437   0.732
30530W        W89791  40.867  41.314  11.412
30531W        W89792  39.915  35.037   2.691
30532W        W89793  14.186  25.980  11.376
30533W        W89794  33.519  29.982   2.848
30534W        W89795  32.433  14.800   3.381
30535W        W89796  15.684  43.276  12.568
30536W        W89797  34.574   2.334   3.240
30537W        W89798  36.484  21.213  11.908
30538W        W89799   8.267  20.143   3.816
30539W        W89800  23.521  44.857   3.191
30540W        W89801  36.910  15.327  13.348
30541W        W89802   5.278  42.828  10.090
30542W        W89803  29.929  18.655  14.476
30543W        W89804  42.025  26.070  12.900
30544W        W89805  36.545  20.178   4.675
30545W        W89806  36.003   6.400  12.423
30546W        W89807   8.270  41.380  12.945
30547W        W89808  23.702  15.600  14.005
30548W        W89809  12.843  23.586   3.320
30549W        W89810   6.676  28.032   0.880
30550W        W89811  31.036  22.632  11.064
30551W        W89812   7.223  19.191  14.279
30552W        W89813   2.900  15.592   1.431
30553W        W89814  34.998  14.129  10.412
30554W        W89815   2.241  41.790  14.283
30555W        W89816  15.219  19.727  12.944
30556W        W89817  35.059  11.226  12.045
30557W        W89818  28.518  37.073  11.083
30558W        W89819  26.039  44.297   3.827
30559W        W89820  43.977   5.789  12.072
30560W        W89821  26.013  19.155   1.252
30561W        W89822  34.535   4.300  11.385
30562W        W89823  13.166  38.424   1.854
30563W        W89824  20.213  33.610   2.867
30564W        W89825  33.520   1.883   3.772
30565W        W89826   6.756  18.238   2.305
30566W        W89827   6.382  28.998   3.855
30567W        W89828  40.396  21.018   0.936
30568W        W89829   2.394   2.423  12.965
30569W        W89830  18.689  44.419  12.018
30570W        W89831  18.737  23.034   2.386
30571W        W89832  19.542  18.296   2.363
30572W        W89833  17.180  32.890  12.841
30573W        W89834  32.027   9.717   1.861
30574W        W89835  31.945   2.329   5.128
30575W        W89836  42.857  11.862  10.985
30576W        W89837  14.681   8.768  10.580
30577W        W89838  44.362  20.234   2.376
30578W        W89839   6.277  32.068  10.059
30579W        W89840   1.364   7.666   1.746
30580W        W89841  39.527  35.861   5.663
30581W        W89842  34.068  23.685   0.475
30582W        W89843  38.005  37.556  11.088
30583W        W89844  38.464  29.653  14.775
30584W        W89845  43.402  10.244   5.196
30585W        W89846  36.864  10.361  14.293
30586W        W89847  15.753  16.712  12.876
30587W        W89848  17.263  33.441   0.752
30588W        W89849  19.248  44.360  10.963
30589W        W89850  17.735  40.870   4.274
30590W        W89851  28.185  15.782  13.893
30591W        W89852  20.589   3.228   2.180
30592W        W89853  16.668  27.486   5.277
30593W        W89854  13.625  31.973  13.064
30594W        W89855   3.755  23.115   4.135
30595W        W89856  12.708  37.410   2.762
30596W        W89857   4.744   2.767  11.573
30597W        W89858  34.003  40.981   0.309
30598W        W89859  38.565  43.993  10.525
30599W        W89860  29.922  28.022  13.872
30600W        W89861  39.958  23.518  12.369
30601W        W89862  20.183  44.804   4.215
30602W        W89863  43.317  30.626  10.958
30603W        W89864  27.588  41.291   2.762
30604W        W89865  41.425  38.045  14.761
30605W        W89866  20.231  14.800   2.802
30606W        W89867  12.265   2.876   2.729
30607W        W89868  39.461  19.751  11.894
30608W        W89869  25.495   3.749  11.514
30609W        W89870  40.406  27.120  12.557
30610W        W89871  43.348  12.214   1.776
30611W        W89872  12.637   6.315  11.612
30612W        W89873  12.774   5.835   2.727
30613W        W89874  24.055  20.224  13.501
30614W        W89875  11.268  40.941  14.329
30615W        W89876  14.670  44.956  13.865
30616W        W89877   9.246  37.991   1.433
30617W        W89878  39.326  41.322  14.017
30618W        W89879   7.674  14.747  12.003
30619W        W89880   1.848  16.713   4.154
30620W        W89881  44.003   4.925  13.960
30621W        W89882  10.266  12.171   2.230
30622W        W89883  26.075  38.566  12.047
30623W        W89884  26.626  35.937  12.485
30624W        W89885   4.339  35.579   0.410
30625W        W89886   5.302  31.930   3.323
30626W        W89887  15.678  15.784  11.439
30627W        W89888   4.813  20.111   0.890
30628W        W89889  36.498  21.110  14.426
30629W        W89890  26.112   6.344  14.934
30630W        W89891   6.309   6.847   1.352
30631W        W89892   6.367  13.110  14.471
30632W        W89893  32.433   4.929  11.477
30633W        W89894   9.787   5.908  11.388
30634W        W89895  36.528  25.547   2.243
30635W        W89896  16.785  39.372   4.165
30636W        W89897  14.589  33.059  13.806
30637W        W89898  35.375   5.895  13.392
30638W        W89899  27.011  24.006   3.319
30639W        W89900  27.516  24.611  12.887
30640W        W89901   8.675  38.525  11.052
30641W        W89902  29.546  41.437   1.929
30642W        W89903   6.740  25.110  14.318
30643W        W89904  24.138   2.899   2.314
30644W        W89905   3.751   5.700  13.421
30645W        W89906  25.163  21.716  14.336
30646W        W89907   8.803   2.766  10.113
30647W        W89908  10.196   3.875   2.868
30648W        W89909   5.374   1.311  14.401
30649W        W89910  36.568  17.228  13.378
30650W        W89911  14.177  29.566  12.886
30651W        W89912   6.380  40.537  12.979
30652W        W89913   7.689   5.367   2.391
30653W        W89914  21.072  43.490   2.766
30654W        W89915  32.093  33.923  13.814
30655W        W89916  42.798  15.270   4.212
30656W        W89917  43.507  16.197   4.203
30657W        W89918  29.649  28.954   1.359
30658W        W89919   7.686  31.939   2.203
30659W        W89920  17.781  23.040  12.470
30660W        W89921   6.682  16.203   4.614
30661W        W89922   0.881  22.614  13.449
30662W        W89923  38.006  28.184  10.140
30663W        W89924  40.543  24.007   2.697
30664W        W89925  40.822  15.139   2.832
30665W        W89926  24.669  17.615  11.437
30666W        W89927   8.244  22.606   1.729
30667W        W89928  20.163  28.173  14.761
30668W        W89929  15.582  44.845  14.878
30669W        W89930   6.254  32.950  11.935
30670W        W89931  17.231  31.020   4.246
30671W        W89932  26.017  12.198  12.039
30672W        W89933   2.304   1.832  13.468
30673W        W89934  32.452  18.292  14.317
30674W        W89935  41.960  34.378  13.496
30675W        W89936  27.185   6.250   3.673
30676W        W89937  44.008  13.168   3.301
30677W        W89938  40.883  27.483  10.541
30678W        W89939  15.623  35.436  13.355
30679W        W89940  36.989   0.980  10.538
30680W        W89941   9.649  33.109  13.307
30681W        W89942  11.305  40.041   0.457
30682W        W89943   6.316  24.159  12.968
30683W        W89944  19.072  11.622  11.107
30684W        W89945  17.093   5.405   2.860
30685W        W89946  29.022  20.569   1.926
30686W        W89947  26.006  17.092   0.777
30687W        W89948   9.351  43.513   4.324
30688W        W89949  19.726  27.586   2.675
30689W        W89950  39.926  23.114  11.379
30690W        W89951   7.760  34.552  14.852
30691W        W89952  12.616  26.542   3.198
30692W        W89953  16.165  43.887   4.337
30693W        W89954  32.098  22.566  14.988
30694W        W89955  27.961  44.903  12.823
30695W        W89956  38.402  23.602  14.785
30696W        W89957  15.307  23.204   9.516
30697W        W89958  13.324  43.278  14.968
30698W        W89959  13.223  23.001  13.795
30699W        W89960  13.823  39.932   3.755
30700W        W89961  18.683  31.520  13.951
30701W        W89962  27.977  39.924   2.204
30702W        W89963  16.264   9.378  11.536
30703W        W89964   0.939   5.210  14.965
30704W        W89965  18.766  25.118   4.116
30705W        W89966  42.845   0.744   1.354
30706W        W89967   1.852  30.022  14.920
30707W        W89968  19.732  34.429  14.808
30708W        W89969  18.751  28.186  11.587
30709W        W89970  33.045  43.770   0.825
30710W        W89971   6.274  11.727   4.675
30711W        W89972   8.375  25.095   4.725
30712W        W89973  29.040  11.159   3.804
30713W        W89974  32.995  10.204  11.898
30714W        W89975  15.790   4.707   0.462
30715W        W89976   5.217  20.606  13.803
30716W        W89977  11.143  33.437  13.867
30717W        W89978  43.789  22.541   4.676
30718W        W89979   5.426  12.697  14.816
30719W        W89980  28.478   0.295   1.901
30720W        W89981  12.197   9.393   0.325
30721W        W89982  11.211  34.115  12.020
30722W        W89983  14.165  19.171  11.403
30723W        W89984  33.947  40.496   5.719
30724W        W89985  20.628  42.025  10.906
30725W        W89986  24.987  28.042  11.977
30726W        W89987  26.181  38.358   1.393
30727W        W89988  19.158  11.197  12.568
30728W        W89989  18.257  38.933  10.508
30729W        W89990  22.714  20.216  13.346
30730W        W89991  31.966  37.872   0.308
30731W        W89992  12.224   2.246  10.963
30732W        W89993   9.193  18.193  10.486
30733W        W89994  33.622  28.679  12.543
30734W        W89995  20.571  13.174   1.329
30735W        W89996  38.003   1.240  11.076
30736W        W89997  26.616  12.135  10.609
30737W        W89998   3.905  27.066   4.619
30738W        W89999  26.583  44.775   2.900
30739W        W90000  34.052  29.539   3.770
30740W        W90001  16.219  20.180  11.917
30741W        W90002  31.536   1.439   0.308
30742W        W90003  29.128  33.990  12.457
30743W        W90004  26.696  34.592   5.201
30744W        W90005  27.077  25.551   0.804
30745W        W90006  42.020  19.591   3.671
30746W        W90007   5.225  28.636   0.377
30747W        W90008  36.496  14.340  12.351
30748W        W90009  18.651  23.134  12.888
30749W        W90010   9.304   6.799  12.016
30750W        W90011  19.581  37.074   3.313
30751W        W90012  24.629  20.581   3.770
30752W        W90013  26.477   6.677  11.552
30753W        W90014  27.954  28.524  12.392
30754W        W90015  41.031  25.156   4.762
30755W        W90016  36.398  29.053  11.992
30756W        W90017   9.221  30.587  10.614
30757W        W90018  31.447  43.364   2.419
30758W        W90019  11.268  26.165  12.541
30759W        W90020  31.954   7.764   1.354
30760W        W90021  35.888  31.957  14.828
30761W        W90022  31.601  26.548   5.297
30762W        W90023   7.404   0.256  13.945
30763W        W90024  24.489  12.117   2.334
30764W        W90025  31.447  25.213  13.937
30765W        W90026  18.106  30.080   3.237
30766W        W90027  20.535   1.750   1.856
30767W        W90028  20.537  35.897   0.849
30768W        W90029  18.116  31.044   4.195
30769W        W90030  17.297  10.730   0.880
30770W        W90031   6.304  36.054   4.196
30771W        W90032   8.726   8.333  11.997
30772W        W90033   7.898  41.449   1.257
30773W        W90034  34.952  18.551   4.746
30774W        W90035  10.191   4.910   5.118
30775W        W90036  20.750  24.050   3.802
30776W        W90037  13.307  44.991   0.797
30777W        W90038   6.318   8.175  13.515
30778W        W90039  41.027  13.105  13.386
30779W        W90040   3.780  25.092  13.382
30780W        W90041  23.706  12.627   4.676
30781W        W90042   2.903   0.877  12.549
30782W        W90043  12.742  33.538  13.976
30783W        W90044  15.191   1.274   1.302
30784W        W90045   4.883  30.477   5.130
30785W        W90046   3.448  39.823   2.747
30786W        W90047  21.599  25.001   1.870
30787W        W90048  25.530  38.540   3.845
30788W        W90049  39.320  20.101  12.396
30789W        W90050  32.893  40.007  10.551
30790W        W90051  18.561   7.868   2.767
30791W        W90052  32.085  29.164  12.473
30792W        W90053  27.656  34.487  13.412
30793W        W90054  39.432  24.513   2.337
30794W        W90055  21.595  16.567  11.103
30795W        W90056  30.965  26.164   0.814
30796W        W90057  29.448  23.090   0.728
30797W        W90058   6.334   9.381   2.418
30798W        W90059   6.309   5.716  11.410
30799W        W90060  39.813  12.174  14.473
30800W        W90061  41.298  12.818  14.405
30801W        W90062   6.744  23.220  12.997
30802W        W90063   3.951  14.638   2.200
30803W        W90064  42.414   3.428   4.332
30804W        W90065  38.882   9.173   1.818
30805W        W90066  37.052  21.734   3.347
30806W        W90067  20.606  25.541   4.785
30807W        W90068  14.803  18.626  11.461
30808W        W90069  21.672  22.037  14.872
30809W        W90070   6.365  13.184  10.902
30810W        W90071  33.518  43.398  11.004
30811W        W90072  26.057   9.262   0.442
30812W        W90073  42.799  11.797   3.179
30813W        W90074   4.859  22.099  10.518
30814W        W90075  10.702  15.684   2.713
30815W        W90076  35.084  19.719   4.800
30816W        W90077   8.857  20.579   0.944
30817W        W90078  15.206   2.454   0.739
30818W        W90079  41.940   5.724   0.318
30819W        W90080  37.042  14.241  10.965
30820W        W90081  30.487  37.916   0.420
30821W        W90082  10.297  25.534  10.940
30822W        W90083   1.453   6.283  10.976
30823W        W90084   2.799  23.526   1.271
30824W        W90085  43.306  10.176  12.904
30825W        W90086  44.921   2.338   3.786
30826W        W90087  22.176  10.662  13.407
30827W        W90088   9.224  25.204  13.498
30828W        W90089  34.070  20.529   2.362
30829W        W90090   0.951  18.080   0.774
30830W        W90091  36.413   6.717  14.486
30831W        W90092  44.283  22.668   2.269
30832W        W90093   4.332   9.171  10.630
30833W        W90094  34.422  12.742  14.379
30834W        W90095   4.284   7.874  12.435
30835W        W90096  34.587  20.551   4.621
30836W        W90097  40.849  27.973  12.470
30837W        W90098  38.041   0.481   0.740
30838W        W90099  31.976   1.773  12.483
30839W        W90100  43.378   7.895  14.873
30840W        W90101   2.289   4.401  10.597
30841W        W90102  34.097  24.144   3.818
30842W        W90103   2.334  41.346   1.707
30843W        W90104  23.205   4.760   3.804
30844W        W90105  29.098   5.354  10.570
30845W        W90106  39.010  34.999  14.925
30846W        W90107  44.872  16.765  11.541
30847W        W90108  30.163   1.770   1.864
30848W        W90109  39.425   5.313   1.279
30849W        W90110  29.582  26.035   1.232
30850W        W90111  29.645  10.823  13.820
30851W        W90112  13.218  21.554  13.007
30852W        W90113  33.988  32.985   3.362
30853W        W90114  27.987   1.953   0.842
30854W        W90115  27.108  28.084  14.917
30855W        W90116  38.520  21.651  12.063
30856W        W90117   3.829  10.637   3.315
30857W        W90118  34.416   0.821  11.564
30858W        W90119  22.252  13.210  13.390
30859W        W90120  40.915  33.945   2.803
30860W        W90121  11.269  43.794   4.694
30861W        W90122  34.389  28.114  13.051
30862W        W90123  39.500  28.648  12.403
30863W        W90124  37.069  29.579  11.998
30864W        W90125  32.029  38.570  12.039
30865W        W90126  41.317  18.075  12.847
30866W        W90127   8.749  44.395   2.686
30867W        W90128  42.950   1.269  11.573
30868W        W90129  19.043  26.094   1.806
30869W        W90130   9.329  26.071   3.288
30870W        W90131  14.313   2.354  11.929
30871W        W90132  13.212  30.420   0.335
30872W        W90133  34.081  36.919   9.480
30873W        W90134   7.338  16.666  10.562
30874W        W90135  18.602  25.610  11.939
30875W        W90136   8.348  16.189  12.917
30876W        W90137  16.227  44.320  12.430
30877W        W90138  13.277  10.209  12.984
30878W        W90139  19.158   7.220   3.779
30879W        W90140  31.488  25.971   4.635
30880W        W90141  16.180  38.916  11.511
30881W        W90142  41.957  33.380   1.326
30882W        W90143  11.651  25.580  11.603
30883W        W90144  31.113   2.811   2.373
30884W        W90145  12.731  26.037  13.987
30885W        W90146   3.440  14.143  11.488
30886W        W90147   3.866  24.629  11.406
30887W        W90148   9.348  22.207  12.918
30888W        W90149  17.664   7.843   0.900
30889W        W90150  38.412   6.804  11.565
30890W        W90151  11.209  22.660   0.825
30891W        W90152  37.027  10.167  13.819
30892W        W90153  17.686  42.385  13.959
30893W        W90154   1.383  28.976   3.350
30894W        W90155  44.447  36.582  12.952
30895W        W90156  22.642  21.151   1.786
30896W        W90157  38.401  36.460  10.468
30897W        W90158  33.116  22.565   4.203
30898W        W90159  26.633  28.668  10.912
30899W        W90160  11.804   4.874   5.083
30900W        W90161  27.118   3.305  14.836
30901W        W90162  26.520  15.329  12.364
30902W        W90163   8.279  12.747  14.831
30903W        W90164  13.731  30.040  14.354
30904W        W90165   4.852  32.124   2.814
30905W        W90166  20.216  43.332   3.809
30906W        W90167   6.311  39.034   2.256
30907W        W90168  37.337  23.105  14.291
30908W        W90169   8.162  27.024   1.328
30909W        W90170  41.370  37.546   3.218
30910W        W90171  33.380  36.478   1.356
30911W        W90172  39.827  28.093   2.674
30912W        W90173  13.175  25.213  11.977
30913W        W90174  34.038  41.010  14.505
30914W        W90175  29.591  36.481   3.794
30915W        W90176  44.360  41.364   0.751
30916W        W90177   3.242  42.305   4.143
30917W        W90178  43.325  24.149   1.921
30918W        W90179  36.011  18.634   3.174
30919W        W90180  33.510  24.196  12.400
30920W        W90181  26.036   2.404   0.344
30921W        W90182  42.520  39.327  10.997
30922W        W90183  11.634  33.543   4.137
30923W        W90184  42.946  16.785  10.057
30924W        W90185  40.311  22.602   5.299
30925W        W90186  13.119  38.355   0.418
30926W        W90187  22.026   9.753   3.776
30927W        W90188  17.678  31.490  10.966
30928W        W90189  41.375   5.725   2.388
30929W        W90190  14.096  39.808  13.473
30930W        W90191  27.981  27.069  14.908
30931W        W90192  11.289  38.947  11.856
30932W        W90193  10.841  18.156  12.455
30933W        W90194  39.338  24.092   3.808
30934W        W90195   8.836  17.117  12.026
30935W        W90196  12.264   0.867  10.000
30936W        W90197  41.349  24.057  14.346
30937W        W90198  25.610  14.141  11.582
30938W        W90199  28.011  16.612   1.431
30939W        W90200  33.532  37.353  13.836
30940W        W90201  12.222  34.035   4.740
30941W        W90202  30.588  28.080   1.731
30942W        W90203  39.880  15.188  12.445
30943W        W90204  31.954  17.160  11.001
30944W        W90205   9.155  35.078   0.857
30945W        W90206  14.272  41.347  12.850
30946W        W90207  27.049  11.208  14.498
30947W        W90208   8.243  36.460   4.147
30948W        W90209  16.258  37.531   4.311
30949W        W90210  24.667   8.199   4.820
30950W        W90211  29.954  18.600  11.045
30951W        W90212  30.147   1.734  12.849
30952W        W90213  21.650   4.816  14.851
30953W        W90214   3.796   9.376  13.445
30954W        W90215  29.623  22.019   1.228
30955W        W90216   7.299  20.243  13.388
30956W        W90217  25.676  22.728   1.858
30957W        W90218  34.947  39.537   3.286
30958W        W90219   7.383  33.433   1.846
30959W        W90220   2.886  39.965   4.745
30960W        W90221  38.350  44.924   2.307
30961W        W90222  44.997  30.013  10.631
30962W        W90223   1.736   9.179   1.424
30963W        W90224  20.182  12.618   3.363
30964W        W90225  19.610   1.951   1.305
30965W        W90226  19.539  27.505   9.663
30966W        W90227  29.586  25.999  10.428
30967W        W90228  35.558  32.023   4.720
30968W        W90229   9.839   0.797  10.615
30969W        W90230  43.496  36.497   2.693
30970W        W90231   9.328  39.528  11.575
30971W        W90232  13.125  26.474   0.803
30972W        W90233   4.338  10.317  12.393
30973W        W90234   5.343   0.386   4.136
30974W        W90235  21.675  35.037  12.568
30975W        W90236  16.167   0.749  12.068
30976W        W90237   6.365  27.631  12.967
30977W        W90238  20.174  36.422  10.979
30978W        W90239   0.351  25.596  11.945
30979W        W90240  41.447  19.572   4.340
30980W        W90241   1.271  23.583   2.201
30981W        W90242  29.464  25.511  10.966
30982W        W90243  21.130  37.893   0.833
30983W        W90244  16.073  29.570   0.798
30984W        W90245  21.088  34.571   1.351
30985W        W90246  19.100  17.781   5.183
30986W        W90247   2.962  22.690   4.760
30987W        W90248  42.031  11.302   1.856
30988W        W90249  35.080  16.759  12.554
30989W        W90250  12.845  44.382  13.826
30990W        W90251  18.783  20.741  11.482
30991W        W90252  36.905  15.766  12.457
30992W        W90253   9.783  13.183  10.107
30993W        W90254  44.959  38.442  14.320
30994W        W90255  35.452  13.728  12.914
30995W        W90256  30.601  32.418  14.285
30996W        W90257  41.888  42.944  14.769
30997W        W90258   9.778  18.593   1.891
30998W        W90259  22.558  41.940   3.699
30999W        W90260  10.188  30.122   1.821
31000W        W90261  26.551  24.084  11.445
31001W        W90262  30.612  42.816   0.247
31002W        W90263  20.654  31.555  12.912
31003W        W90264  10.818  27.534  12.832
31004W        W90265   2.407  14.289  13.439
31005W        W90266   8.750  36.031  12.480
31006W        W90267  10.666  34.914   1.927
31007W        W90268  44.385  32.097   2.778
31008W        W90269  31.028  17.763  11.886
31009W        W90270  40.921  32.066   4.748
31010W        W90271  37.410  22.108  10.627
31011W        W90272   1.933  26.536   2.748
31012W        W90273  23.650   6.411   1.350
31013W        W90274  24.642  11.221  12.931
31014W        W90275  17.792  27.162  14.296
31015W        W90276   1.411  43.952  14.300
31016W        W90277  10.648   8.868   2.359
31017W        W90278  30.506  24.225   1.881
31018W        W90279  23.594   1.778  12.505
31019W        W90280  21.026  36.085   0.867
31020W        W90281  13.733  37.343   3.721
31021W        W90282  39.014  29.664  11.587
31022W        W90283  26.658  39.473   2.895
31023W        W90284  16.101   0.464  13.469
31024W        W90285  39.355  24.121  10.407
31025W        W90286  44.338  22.039   1.721
31026W        W90287  24.131  39.427   1.357
31027W        W90288  23.619  41.522  13.928
31028W        W90289  31.537   9.845   4.783
31029W        W90290   1.775  32.455  10.644
31030W        W90291  23.715   9.186  12.357
31031W        W90292  10.806   3.755  14.015
31032W        W90293  18.681   6.241  13.020
31033W        W90294  18.569  11.258  14.935
31034W        W90295  15.687  29.148   0.753
31035W        W90296  18.087  19.141  10.529
31036W        W90297  22.128  16.758  12.840
31037W        W90298  41.898  33.405  14.919
31038W        W90299  25.538  35.438  12.892
31039W        W90300  23.625   8.836   0.753
31040W        W90301   8.676   8.899   4.824
31041W        W90302  38.425   3.841  13.806
31042W        W90303   7.348   2.465   4.280
31043W        W90304  21.669  43.988  11.934
31044W        W90305  17.221  42.402   1.298
31045W        W90306  17.766  26.626   2.731
31046W        W90307  27.961  10.247  10.929
31047W        W90308   7.732   1.791   3.286
31048W        W90309  44.438  44.788  10.441
31049W        W90310   5.384  34.067   2.234
31050W        W90311  37.945  27.145  11.085
31051W        W90312   2.879  26.585   1.792
31052W        W90313  43.967  13.688  11.439
31053W        W90314  23.097   2.254  12.869
31054W        W90315   6.363  15.100   3.291
31055W        W90316  39.497  36.039   2.192
31056W        W90317  22.686  16.736   0.859
31057W        W90318  28.606   1.444  13.889
31058W        W90319  38.370  16.091  14.805
31059W        W90320   5.413  27.460  13.010
31060W        W90321  15.788  13.199  13.021
31061W        W90322  41.370  40.357   2.229
31062W        W90323  24.176  19.264  14.823
31063W        W90324  34.067  15.785  10.917
31064W        W90325  22.067  40.001  12.082
31065W        W90326  36.439  44.320   4.655
31066W        W90327   6.317  36.988  11.397
31067W        W90328   7.701  11.265   2.378
31068W        W90329  39.986   4.250  12.505
31069W        W90330  36.083   0.457  12.356
31070W        W90331  13.115  41.502  13.460
31071W        W90332  43.423  44.277  14.982
31072W        W90333  41.942  17.647  13.864
31073W        W90334  15.661   5.708  14.900
31074W        W90335  18.659   7.357   5.206
31075W        W90336  22.209  44.371  11.052
31076W        W90337   6.326  43.972  11.017
31077W        W90338  20.096   6.761   4.706
31078W        W90339  42.471  37.362  12.050
31079W        W90340  44.935  24.481   1.236
31080W        W90341   6.308   7.890   0.890
31081W        W90342   1.303   7.700   4.305
31082W        W90343  18.605  18.269   4.757
31083W        W90344   8.182  38.902  13.467
31084W        W90345  39.492  10.351   5.264
31085W        W90346   9.292  37.831  10.433
31086W        W90347  30.479  27.953  11.583
31087W        W90348  36.525  32.564   0.248
31088W        W90349  28.156  30.565   2.876
31089W        W90350  20.229  20.269   2.840
31090W        W90351  18.254  31.530  11.913
31091W        W90352  17.225  27.128   1.276
31092W        W90353  23.170  24.681   3.358
31093W        W90354   4.876  38.534   0.427
31094W        W90355  14.692  41.491  10.475
31095W        W90356   0.436  28.646  11.466
31096W        W90357  20.684  21.143   4.836
31097W        W90358  38.436  42.326   1.289
31098W        W90359  23.239  44.888   3.165
31099W        W90360  31.059  21.100  11.558
31100W        W90361   3.360  15.725   0.389
31101W        W90362   0.352  25.994  14.492
31102W        W90363   4.714  41.846  14.440
31103W        W90364   7.229  11.820   0.454
31104W        W90365  25.077  20.587  11.999
31105W        W90366   1.791  30.964  13.474
31106W        W90367  20.561  25.566   4.349
31107W        W90368   4.350  37.066  11.432
31108W        W90369   9.817  24.528   4.774
31109W        W90370  22.528  10.805  11.546
31110W        W90371  12.831  42.980  13.395
31111W        W90372  39.034  35.536  14.388
31112W        W90373  35.392  37.966   9.565
31113W        W90374  38.071  37.481   5.736
31114W        W90375  17.638  23.095  13.912
31115W        W90376   3.387  17.753  11.989
31116W        W90377  14.662  32.117  14.504
31117W        W90378  34.066  24.641   0.863
31118W        W90379  34.082  43.873   1.799
31119W        W90380  16.662  39.877  13.064
31120W        W90381   7.769   8.748   3.843
31121W        W90382  30.427  36.001  13.023
31122W        W90383  43.811   3.313  14.485
31123W        W90384  44.963  13.646   0.728
31124W        W90385  30.492  14.260  11.995
31125W        W90386  39.441  44.363   0.354
31126W        W90387  12.653   0.312   2.301
31127W        W90388  17.709  30.072  12.065
31128W        W90389   5.818  27.034  12.355
31129W        W90390  43.318  32.018  13.812
31130W        W90391   5.399  12.755   3.297
31131W        W90392  12.297  39.928  12.039
31132W        W90393  24.980  16.154  13.959
31133W        W90394  21.204  26.197   1.832
31134W        W90395  29.591  22.210  13.376
31135W        W90396  25.474  21.070  11.420
31136W        W90397   1.846  19.583   0.404
31137W        W90398  25.706  17.273   4.778
31138W        W90399   7.373  15.086  11.897
31139W        W90400  10.738  37.980   1.248
31140W        W90401  39.008  34.381  14.434
31141W        W90402  43.379  28.638   2.349
31142W        W90403  17.691  18.181   1.861
31143W        W90404  34.035  37.386  10.026
31144W        W90405   0.910  17.612   1.419
31145W        W90406  42.339  33.622  10.541
31146W        W90407   4.396  17.691  12.409
31147W        W90408  41.450  34.102   4.341
31148W        W90409   4.242  29.588  14.809
31149W        W90410  31.104   7.735   0.380
31150W        W90411  44.008  36.907  12.537
31151W        W90412  40.888  42.504   1.446
31152W        W90413  26.099  22.088  11.894
31153W        W90414  41.334  25.702   2.319
31154W        W90415  25.105   8.664   0.957
31155W        W90416  13.306   6.726  13.411
31156W        W90417  15.307  37.503  10.511
31157W        W90418  31.512  27.447   2.687
31158W        W90419  36.992  27.052  10.940
31159W        W90420  27.684   7.398   2.697
31160W        W90421  29.050  18.679  12.417
31161W        W90422   0.489   0.881  12.404
31162W        W90423  41.302  20.222  10.920
31163W        W90424  22.224  11.197   0.418
31164W        W90425  26.592  42.312  10.509
31165W        W90426  18.686  36.383   3.769
31166W        W90427   2.737   0.797   0.373
31167W        W90428  11.341   7.330  12.827
31168W        W90429  21.146   1.944  11.880
31169W        W90430  13.689  24.597  13.922
31170W        W90431  36.398  10.756  12.958
31171W        W90432  36.576   5.707   3.344
31172W        W90433  39.977  40.521  11.917
31173W        W90434  32.450  39.026   1.763
31174W        W90435   5.805  10.160   3.721
31175W        W90436  19.127  41.034  10.972
31176W        W90437  37.976  25.181   1.792
31177W        W90438   3.862   4.394   0.447
31178W        W90439  16.253  18.181  12.842
31179W        W90440  28.986  44.326   3.712
31180W        W90441  26.163   6.781   1.918
31181W        W90442  31.087  37.023   0.738
31182W        W90443  41.987  26.694   2.686
31183W        W90444  39.046  19.655  11.081
31184W        W90445  12.168   2.250   9.605
31185W        W90446  31.040  21.593  13.515
31186W        W90447  12.159  41.839  14.286
31187W        W90448  40.996  40.498  14.760
31188W        W90449  44.914  36.392   0.951
31189W        W90450  28.648  38.956   2.311
31190W        W90451  14.312  19.241  13.456
31191W        W90452  12.178  10.331  11.504
31192W        W90453   7.280  35.553  10.414
31193W        W90454  17.635  33.527  11.946
31194W        W90455  26.678  26.110   4.619
31195W        W90456  44.867  33.084   2.709
31196W        W90457  11.645  10.755   3.341
31197W        W90458  27.141  42.912   0.748
31198W        W90459  17.737  42.889   0.849
31199W        W90460   4.837  11.313   2.181
31200W        W90461  12.261  20.220   0.256
31201W        W90462  11.625  20.082  14.011
31202W        W90463  20.640  25.082  10.102
31203W        W90464  34.998   8.181   0.384
31204W        W90465  35.604  22.190  11.974
31205W        W90466   3.824  39.850   0.284
31206W        W90467  28.652  11.717  13.822
31207W        W90468  26.983   2.358  11.070
31208W        W90469  31.579  29.997  13.350
31209W        W90470   2.934  43.816  12.396
31210W        W90471  14.127  21.118   3.682
31211W        W90472  40.808  19.584  12.573
31212W        W90473   2.242  23.023  13.969
31213W        W90474  21.603  32.594  10.524
31214W        W90475  36.093  14.119   2.181
31215W        W90476  15.165  20.170  10.089
31216W        W90477  34.048  41.432  12.857
31217W        W90478  30.118  22.522   0.419
31218W        W90479  35.399  13.308  14.831
31219W        W90480  23.177  32.959  11.475
31220W        W90481  33.987   9.245  12.476
31221W        W90482   6.397  17.303   0.369
31222W        W90483   4.444  35.462   4.794
31223W        W90484   1.409  19.743  10.469
31224W        W90485  17.302  28.594  11.962
31225W        W90486   4.728   1.306   2.696
31226W        W90487  39.510  34.431  14.957
31227W        W90488  28.619  33.030   3.374
31228W        W90489  38.894  15.684   4.743
31229W        W90490   5.832  25.711   4.224
31230W        W90491  37.471   4.855   3.223
31231W        W90492  35.589  37.903  10.073
31232W        W90493  40.004  17.172  12.885
31233W        W90494   7.250  22.018  10.451
31234W        W90495  44.336   8.384   3.775
31235W        W90496  25.616  32.568  14.309
31236W        W90497  13.119  11.643  12.843
31237W        W90498  14.818  37.000   3.870
31238W        W90499  12.677  42.834   2.400
31239W        W90500  30.938  13.127   0.287
31240W        W90501  26.980   5.775  14.818
31241W        W90502  36.950  11.324   3.763
31242W        W90503   2.454  42.980  10.477
31243W        W90504  14.325  14.697  14.382
31244W        W90505  15.326  39.812  11.442
31245W        W90506  29.461  30.476   9.950
31246W        W90507  29.964   4.733   1.378
31247W        W90508   8.696  26.973  12.356
31248W        W90509  19.255   4.709   2.893
31249W        W90510  24.714  26.116  14.364
31250W        W90511  12.754  27.558   4.342
31251W        W90512  12.325  40.414  11.532
31252W        W90513  11.208  44.755   1.438
31253W        W90514  39.831  43.318   0.248
31254W        W90515  21.653   4.209  11.978
31255W        W90516   6.756  43.768   4.302
31256W        W90517  39.385   8.871  14.469
31257W        W90518  35.093  21.069  13.924
31258W        W90519  12.264  19.073  14.943
31259W        W90520  15.267   2.419   0.317
31260W        W90521   4.234  33.395   4.602
31261W        W90522   3.709  17.218  11.452
31262W        W90523  14.149  11.135   1.799
31263W        W90524   3.319  15.084   0.441
31264W        W90525  41.329   3.459   3.691
31265W        W90526   8.717  42.493   0.479
31266W        W90527   0.882   1.893   4.341
31267W        W90528  43.474   4.253   1.791
31268W        W90529   1.768  31.626   0.478
31269W        W90530  14.827  32.042   2.392
31270W        W90531  42.431  29.029   0.295
31271W        W90532  35.078  37.083  14.021
31272W        W90533   5.257  32.555  10.982
31273W        W90534  26.968   8.317  14.800
31274W        W90535   7.711  33.610   2.230
31275W        W90536  25.661  29.950   2.181
31276W        W90537  33.497  35.380   5.637
31277W        W90538   3.749  13.338   3.849
31278W        W90539  37.524  32.542  11.612
31279W        W90540  33.415  22.690   4.282
31280W        W90541  34.908   9.793  13.859
31281W        W90542  15.311  39.357   3.691
31282W        W90543  12.144  44.936   2.788
31283W        W90544  12.260  26.596   3.641
31284W        W90545   4.760  27.180   0.911
31285W        W90546  37.074  21.529  11.407
31286W        W90547  34.531  17.224   0.803
31287W        W90548  41.029  22.101   4.688
31288W        W90549  25.688  14.829   1.913
31289W        W90550  13.322   5.348   0.401
31290W        W90551  39.457  25.114  12.853
31291W        W90552   8.845  13.149   9.981
31292W        W90553   4.856  44.944   1.345
31293W        W90554  34.016  33.408  11.491
31294W        W90555  39.503   0.328   2.703
31295W        W90556  38.838   4.298  10.592
31296W        W90557  15.167  34.369   1.817
31297W        W90558  22.067  17.284   2.849
31298W        W90559  16.181   3.431   3.776
31299W        W90560  19.613  43.476  14.856
31300W        W90561  22.620  31.941  10.055
31301W        W90562  11.815  34.445   4.353
31302W        W90563  27.532  25.663  11.920
31303W        W90564  22.084   5.423   0.297
31304W        W90565  18.240   8.883   0.469
31305W        W90566  10.378  11.812  13.346
31306W        W90567  30.114  29.664   1.934
31307W        W90568  23.064  31.616   2.783
31308W        W90569  29.141   3.440   3.263
31309W        W90570  41.034   3.439  12.070
31310W        W90571  10.663   0.920  10.052
31311W        W90572   6.322  30.421   4.245
31312W        W90573   7.369  16.090  10.601
31313W        W90574   4.365   5.908  11.126
31314W        W90575  41.331   3.409   4.153
31315W        W90576  15.747  37.339  14.958
31316W        W90577  35.035  37.553   2.884
31317W        W90578  32.629  35.857  13.798
31318W        W90579  40.446   3.296   5.102
31319W        W90580  21.712   2.400  14.511
31320W        W90581   2.848  34.952   0.904
31321W        W90582  42.966  41.391   2.805
31322W        W90583  24.535   9.831  10.898
31323W        W90584   7.686   3.438   0.750
31324W        W90585  11.749   8.797  10.060
31325W        W90586  19.615  10.854   0.294
31326W        W90587   7.808  26.635  14.870
31327W        W90588  37.359  17.307  14.784
31328W        W90589   8.354  26.191  10.430
31329W        W90590  26.178   3.409   1.252
31330W        W90591   6.283  43.282   0.370
31331W        W90592  16.223  27.100   3.146
31332W        W90593  24.197   9.295   3.288
31333W        W90594  14.656  27.667   0.325
31334W        W90595  13.248  31.897  12.057
31335W        W90596  32.030  40.955  11.994
31336W        W90597  10.305  33.476   3.740
31337W        W90598  12.164  26.100  12.947
31338W        W90599  13.835  37.500  11.612
31339W        W90600   3.849   4.713  11.432
31340W        W90601  26.161   5.242   2.405
31341W        W90602  21.062   5.785  10.486
31342W        W90603  27.545  41.456  11.024
31343W        W90604  38.537  15.660   3.203
31344W        W90605   9.831   2.956   0.763
31345W        W90606  13.302   8.785   2.805
31346W        W90607  29.967  32.432   3.753
31347W        W90608  21.742  14.274   0.762
31348W        W90609   0.742  38.567   4.153
31349W        W90610   9.771   9.757  10.904
31350W        W90611  34.108  29.449   4.782
31351W        W90612  42.507  21.572   0.734
31352W        W90613  41.450   1.263  14.470
31353W        W90614  30.945  19.581  14.797
31354W        W90615  19.130  27.019   2.201
31355W        W90616  18.623  24.529   0.426
31356W        W90617  41.819  43.004  13.960
31357W        W90618   5.901  42.884  10.987
31358W        W90619   1.415  24.039   1.320
31359W        W90620   2.889  31.633   4.719
31360W        W90621  38.451  24.542  10.531
31361W        W90622  10.250  23.511  14.784
31362W        W90623   6.798   0.327   3.795
31363W        W90624  11.183  27.056   2.200
31364W        W90625  29.108   3.366  11.018
31365W        W90626  30.931  39.424  13.898
31366W        W90627  44.998  34.895   2.411
31367W        W90628  26.184  44.370  13.821
31368W        W90629  33.610  11.177  12.486
31369W        W90630  18.054  28.941  12.965
31370W        W90631  43.785   2.453  12.940
31371W        W90632  21.223  24.671   1.831
31372W        W90633   4.795  17.169   0.315
31373W        W90634  34.596  28.003  10.467
31374W        W90635   2.301  44.942   0.292
31375W        W90636  27.462  33.090  11.518
31376W        W90637  25.559   5.731  13.488
31377W        W90638  12.343  32.457   1.792
31378W        W90639   9.871  41.011  11.016
31379W        W90640  22.170  17.212   0.416
31380W        W90641  11.372  15.210   1.913
31381W        W90642  17.670  43.430   0.767
31382W        W90643  16.716  44.831   3.306
31383W        W90644  44.878   1.315   1.446
31384W        W90645  36.458  16.742  13.315
31385W        W90646  18.550   8.219  11.884
31386W        W90647   2.945  11.745   0.740
31387W        W90648  41.362   7.378  11.443
31388W        W90649  18.726  35.074   4.801
31389W        W90650  35.358  28.088  12.455
31390W        W90651  13.832  16.225  13.336
31391W        W90652  10.210   7.908  11.103
31392W        W90653  10.771  27.063  11.122
31393W        W90654  10.183  21.230  13.488
31394W        W90655  34.065  21.189   2.216
31395W        W90656  18.551  17.692   9.983
31396W        W90657  28.470   2.283   1.250
31397W        W90658  11.293   1.896   0.959
31398W        W90659  44.854  44.313   9.962
31399W        W90660   9.653  43.450  12.851
31400W        W90661   6.380  43.853   1.435
31401W        W90662  23.526  43.994   3.336
31402W        W90663  41.464   0.385   1.851
31403W        W90664  15.697  27.041   3.191
31404W        W90665  25.697  22.710  12.858
31405W        W90666  19.581   4.903   2.691
31406W        W90667  34.051   5.752   0.351
31407W        W90668   8.399  39.496   3.168
31408W        W90669  36.372  18.237   4.718
31409W        W90670  23.680   6.393   3.333
31410W        W90671  15.182  29.459   3.254
31411W        W90672  20.698  43.317   4.766
31412W        W90673  18.678   1.812  12.366
31413W        W90674  21.623  44.856  10.487
31414W        W90675  40.036  29.579  10.951
31415W        W90676   5.397  15.122   2.178
31416W        W90677  23.695  38.053   2.788
31417W        W90678  41.465  38.876   2.837
31418W        W90679  24.483   6.277  13.487
31419W        W90680   4.887   9.887   2.672
31420W        W90681   5.864  36.909  14.848
31421W        W90682  15.162  23.070   1.761
31422W        W90683   2.863  12.673   0.251
31423W        W90684  16.155  30.947   1.307
31424W        W90685  26.006   4.742  13.509
31425W        W90686  32.907   2.281   2.800
31426W        W90687  15.613   8.160  11.054
31427W        W90688  38.944   1.813  10.611
31428W        W90689  22.563  25.079  14.386
31429W        W90690  22.612   3.392   4.652
31430W        W90691  20.252   6.791  12.966
31431W        W90692  29.041  19.546  10.548
31432W        W90693   5.704  24.487   4.659
31433W        W90694  21.064   8.811  10.601
31434W        W90695  18.229  33.421  13.539
31435W        W90696  39.448  12.853  13.323
31436W        W90697  29.165   0.343   3.646
31437W        W90698   6.334   4.900  10.941
31438W        W90699  15.266  25.498   1.450
31439W        W90700  24.676  14.185  10.534
31440W        W90701  27.484  10.837  11.460
31441W        W90702  13.678  15.644  11.401
31442W        W90703  33.515  26.610  12.547
31443W        W90704  42.411  10.785  11.583
31444W        W90705  18.751   3.400  11.541
31445W        W90706   1.266  22.165  14.951
31446W        W90707  38.066  12.729  14.458
31447W        W90708   6.373  40.850  12.053
31448W        W90709  27.195  26.555  14.897
31449W        W90710   3.415  39.865  10.443
31450W        W90711  21.099   1.755  11.556
31451W        W90712  27.192  31.459  14.318
31452W        W90713  36.418  40.466   2.348
31453W        W90714  29.105   6.725  14.423
31454W        W90715  13.622  17.088  12.480
31455W        W90716   8.757  26.519  11.961
31456W        W90717  34.052  25.618   3.792
31457W        W90718   2.822  26.540  10.099
31458W        W90719  22.718  41.009   1.388
31459W        W90720  38.909  36.043  12.970
31460W        W90721   7.817  29.425   4.811
31461W        W90722  22.600  42.451   0.901
31462W        W90723  21.595  15.122   1.732
31463W        W90724   3.413  38.017   1.750
31464W        W90725   0.416  16.123   2.858
31465W        W90726   9.157  25.502   2.265
31466W        W90727   8.873  35.046   5.266
31467W        W90728  18.150  11.718  10.972
31468W        W90729   5.239  23.120  12.838
31469W        W90730   3.352  15.816  10.994
31470W        W90731   0.803  31.579  10.413
31471W        W90732  14.768  11.708  11.123
31472W        W90733  37.563  32.886   0.386
31473W        W90734   2.376   8.768   1.745
31474W        W90735  19.071   3.232   2.800
31475W        W90736  41.036  20.241   3.691
31476W        W90737  15.655  32.956   1.710
31477W        W90738  41.875  15.661   4.145
31478W        W90739  16.227  28.592   2.330
31479W        W90740  18.173  30.924  13.533
31480W        W90741  29.116  43.845   0.925
31481W        W90742  19.182  38.460  11.406
31482W        W90743   1.359  44.354  13.515
31483W        W90744  24.023  43.941  12.966
31484W        W90745  28.963   5.354   3.714
31485W        W90746  38.956  13.647   2.661
31486W        W90747  21.177  22.684   2.871
31487W        W90748  30.446  15.279   0.892
31488W        W90749  44.417  39.426  11.565
31489W        W90750  39.016  33.528   0.479
31490W        W90751  27.154  37.071   1.935
31491W        W90752  21.588  34.429   3.722
31492W        W90753   9.168  15.123  11.059
31493W        W90754  41.038   3.275  14.890
31494W        W90755  40.475  11.144   4.806
31495W        W90756  24.675  16.661   0.838
31496W        W90757  37.058  42.843   0.308
31497W        W90758  19.247   5.873   0.314
31498W        W90759  22.038  10.318  12.080
31499W        W90760   4.765  29.507  13.386
31500W        W90761   6.757   6.847   1.244
31501W        W90762  39.537  17.211   0.933
31502W        W90763  42.458  41.921   1.931
31503W        W90764  17.081   7.272   1.304
31504W        W90765  22.012  44.877   2.800
31505W        W90766   3.410  19.155  13.874
31506W        W90767   1.276   2.871  11.900
31507W        W90768   8.791  30.059  13.540
31508W        W90769  21.193  37.014  12.912
31509W        W90770  32.633   0.438  14.807
31510W        W90771   5.246   2.273  11.074
31511W        W90772  42.951  31.405  14.992
31512W        W90773  11.831   4.205   0.824
31513W        W90774  12.307  29.143   1.444
31514W        W90775  29.425  17.711   0.783
31515W        W90776   6.405  29.046  14.453
31516W        W90777  39.886  30.106  14.344
31517W        W90778  22.705  44.348  14.915
31518W        W90779  39.964  18.167  13.337
31519W        W90780   5.806  17.738  11.431
31520W        W90781  39.980   9.181  13.541
31521W        W90782  32.391  16.785  13.878
31522W        W90783  17.625  13.641   4.234
31523W        W90784  32.031  35.388   2.710
31524W        W90785  22.106  12.303  11.857
31525W        W90786  18.777  18.772   1.365
31526W        W90787   2.329   2.838  12.993
31527W        W90788   9.877  34.973  12.529
31528W        W90789  27.636  23.654   4.663
31529W        W90790  20.743  12.147   3.650
31530W        W90791  11.326  30.467  12.084
31531W        W90792  33.547  26.625   1.767
31532W        W90793  25.167  33.914  10.582
31533W        W90794   0.484   3.715  12.890
31534W        W90795  37.082   4.365  14.987
31535W        W90796  13.815  25.659   4.256
31536W        W90797  39.002  29.104  11.977
31537W        W90798  14.296  31.437  10.511
31538W        W90799  31.921  23.222   0.480
31539W        W90800  17.596  17.793   4.346
31540W        W90801   0.298  35.934  14.315
31541W        W90802  29.658  29.436  14.363
31542W        W90803  27.505  25.490  13.060
31543W        W90804   4.835  34.464   4.158
31544W        W90805  39.974  40.007  14.308
31545W        W90806  32.442   6.395  14.404
31546W        W90807  20.062  37.879  13.464
31547W        W90808  35.020  33.453  13.964
31548W        W90809  25.550  31.054  10.428
31549W        W90810  44.002  43.285  14.415
31550W        W90811  26.989  29.024   4.655
31551W        W90812  13.785   0.789   4.185
31552W        W90813  32.491   9.202  10.598
31553W        W90814  20.546  26.693   2.374
31554W        W90815  29.468  18.091   3.360
31555W        W90816  17.242  13.127  11.987
31556W        W90817  41.951  44.276  13.918
31557W        W90818  35.891  26.640   4.748
31558W        W90819   0.344  25.093  11.586
31559W        W90820   1.245  27.179  13.490
31560W        W90821   6.911  20.210   4.630
31561W        W90822  41.036  22.544  13.335
31562W        W90823   2.776   1.882   1.935
31563W        W90824  39.938   0.387  14.025
31564W        W90825  23.525   5.812  14.280
31565W        W90826   6.823  38.871  12.079
31566W        W90827  21.094  13.704  13.891
31567W        W90828   4.743   2.394  14.932
31568W        W90829  14.099  31.594  11.042
31569W        W90830  20.695  30.442  10.473
31570W        W90831   4.807  40.392   2.874
31571W        W90832  15.705  26.654   2.829
31572W        W90833  18.257  34.504  13.936
31573W        W90834  38.519  40.309  10.987
31574W        W90835   1.293  11.645   0.274
31575W        W90836  32.115  29.922   2.745
31576W        W90837   3.715  19.041  12.399
31577W        W90838  28.641  39.495   4.608
31578W        W90839  15.659  16.258  14.944
31579W        W90840  31.945  40.854   0.403
31580W        W90841   7.695  28.667  12.985
31581W        W90842  43.923  27.976   2.214
31582W        W90843  24.011   3.461   0.805
31583W        W90844  16.811   8.779   3.321
31584W        W90845   3.831  17.129   1.714
31585W        W90846  20.669  28.671  10.514
31586W        W90847   2.448  20.565  14.279
31587W        W90848   5.301  22.052   4.138
31588W        W90849   6.306  40.328   0.950
31589W        W90850  44.468  24.982  10.419
31590W        W90851   9.816  11.154  11.935
31591W        W90852   2.350  19.540  12.854
31592W        W90853  27.168   8.335  10.637
31593W        W90854   4.326  12.646   4.229
31594W        W90855  12.788  26.681  11.611
31595W        W90856   2.325   4.791   4.285
31596W        W90857  19.135  18.601   4.293
31597W        W90858  36.012  10.684  12.014
31598W        W90859  40.383  28.619  14.959
31599W        W90860   1.975  37.869  13.528
31600W        W90861  30.098  41.835   3.152
31601W        W90862  33.979  22.097  10.909
31602W        W90863   7.900  43.969   2.676
31603W        W90864   4.941  11.344   5.316
31604W        W90865  44.365  14.593  13.332
31605W        W90866  11.134  21.574  11.906
31606W        W90867  17.091   9.679  14.838
31607W        W90868   2.359  35.539   0.463
31608W        W90869  35.443   8.713   0.770
31609W        W90870  20.103  18.088  12.057
31610W        W90871  33.451   5.370  13.390
31611W        W90872  13.170   9.279  12.845
31612W        W90873   8.341   6.356   0.343
31613W        W90874  38.842  24.033  14.758
31614W        W90875  33.907  21.562   1.724
31615W        W90876  11.145   8.331  10.927
31616W        W90877  16.581   8.263   4.145
31617W        W90878  19.254   5.257  12.374
31618W        W90879   8.212  16.254  14.294
31619W        W90880  36.426  32.394  13.418
31620W        W90881  24.139  17.105  11.011
31621W        W90882  40.328  13.659   1.232
31622W        W90883  21.541  23.166  12.884
31623W        W90884  16.659  15.168  13.014
31624W        W90885   1.893  16.635   1.781
31625W        W90886  41.952  42.445  11.857
31626W        W90887  33.418  36.062   4.196
31627W        W90888  20.036  33.590   0.937
31628W        W90889   0.805  39.032  11.450
31629W        W90890  38.451  29.000  12.949
31630W        W90891  21.531  15.657   1.315
31631W        W90892  24.695  10.318   1.282
31632W        W90893   2.391  16.650  13.541
31633W        W90894   5.851  19.091   2.353
31634W        W90895  13.829  10.313   3.699
31635W        W90896  42.023  13.340   0.280
31636W        W90897  25.711  35.543  14.442
31637W        W90898  13.831  36.563   1.759
31638W        W90899   4.214   1.845   3.226
31639W        W90900  13.730  31.031   9.615
31640W        W90901  36.003  20.707   4.219
31641W        W90902  19.566  27.468   0.365
31642W        W90903  35.862  22.075   2.401
31643W        W90904  24.100  25.120   0.338
31644W        W90905   4.318  14.711   3.693
31645W        W90906   9.751   9.220  13.967
31646W        W90907  16.119  42.467   3.703
31647W        W90908  29.556  41.352   4.275
31648W        W90909  31.082  19.125  10.642
31649W        W90910   6.802   5.921   3.786
31650W        W90911  20.047  29.428   3.241
31651W        W90912  16.657   7.399   4.772
31652W        W90913  33.063  28.507   0.823
31653W        W90914  30.594  37.024   3.740
31654W        W90915   8.700  30.164   2.287
31655W        W90916  12.847  15.156   0.484
31656W        W90917  36.866  32.487   1.742
31657W        W90918  23.572  18.632   0.868
31658W        W90919  37.041  29.529   1.348
31659W        W90920   6.789  25.513  14.788
31660W        W90921  21.208   2.877  11.069
31661W        W90922  20.177   4.856  10.466
31662W        W90923   9.381  35.958  12.859
31663W        W90924  25.983  26.086  13.839
31664W        W90925   7.291  36.434   2.887
31665W        W90926  33.626  29.441  11.075
31666W        W90927   0.774  44.009  13.325
31667W        W90928  32.116  35.537   2.336
31668W        W90929   0.986   9.813   2.240
31669W        W90930  18.282  43.492  11.534
31670W        W90931  43.941  15.254  10.531
31671W        W90932  12.683   2.918  13.403
31672W        W90933  44.866   6.844   0.354
31673W        W90934   0.280  23.649  12.960
31674W        W90935  20.177  21.225   4.812
31675W        W90936  35.549  23.133  13.437
31676W        W90937  13.298  10.849   4.140
31677W        W90938   8.339   7.726  12.835
31678W        W90939  13.235  15.645  10.044
31679W        W90940  18.671  21.259  10.490
31680W        W90941   2.758  34.417  13.996
31681W        W90942   0.837  17.287  12.917
31682W        W90943  32.551  11.727   3.153
31683W        W90944   3.324  20.530   2.726
31684W        W90945  20.551   9.869  13.951
31685W        W90946  12.175  30.114  10.609
31686W        W90947  42.837  38.923   1.376
31687W        W90948  20.038  32.075   4.815
31688W        W90949   1.912  18.085   2.729
31689W        W90950  42.407  27.116   0.439
31690W        W90951  29.935  28.178  12.930
31691W        W90952  41.355  19.712  10.421
31692W        W90953  39.943   4.445  14.925
31693W        W90954   1.952  20.685  14.444
31694W        W90955   5.220  30.038   1.360
31695W        W90956   5.422  14.739   1.290
31696W        W90957   6.273  44.884  11.543
31697W        W90958   2.894   4.341  12.941
31698W        W90959   5.385  21.184   0.759
31699W        W90960  18.220   1.924  14.826
31700W        W90961   9.246  15.639  12.826
31701W        W90962   1.743  11.296  13.476
31702W        W90963  32.045   2.347  10.459
31703W        W90964  31.557  21.216   2.395
31704W        W90965   5.695   8.807  10.639
31705W        W90966  30.971  27.564   3.331
31706W        W90967   8.885  40.986  13.879
31707W        W90968  23.195  35.392  13.996
31708W        W90969  25.171  30.003  10.408
31709W        W90970  37.346  22.614  11.052
31710W        W90971  33.874  19.132  11.974
31711W        W90972  35.508   2.855   3.780
31712W        W90973   0.321  27.461   0.326
31713W        W90974  21.229  34.120  14.455
31714W        W90975   7.743  30.918  11.446
31715W        W90976  43.425  27.091  13.926
31716W        W90977  22.079   3.329   0.842
31717W        W90978  18.672  42.501  14.014
31718W        W90979  34.592  41.518  13.026
31719W        W90980   8.404  15.662  14.938
31720W        W90981  44.986  40.333  12.341
31721W        W90982  40.867  23.698  13.308
31722W        W90983  39.838  19.711   2.776
31723W        W90984  32.475   9.172  12.345
31724W        W90985  25.497  10.655  13.929
31725W        W90986  22.188   6.686   4.347
31726W        W90987  28.585  17.701   3.868
31727W        W90988  34.373  21.554   3.182
31728W        W90989   3.928  40.307   3.729
31729W        W90990  21.576  42.478  13.803
31730W        W90991  28.985  33.589   3.776
31731W        W90992   8.799   1.972  12.510
31732W        W90993  39.458  23.571  11.572
31733W        W90994  22.237  37.536   3.668
31734W        W90995  32.029   1.818  13.024
31735W        W90996   8.305  38.928   0.296
31736W        W90997  34.470  25.619   0.357
31737W        W90998  41.385  44.276   0.779
31738W        W90999  37.983  14.661  12.053
31739W        W91000   1.407  29.426  10.949
31740W        W91001   3.844  35.035   0.434
31741W        W91002  11.232  42.285   0.403
31742W        W91003   6.302  12.165   0.900
31743W        W91004   9.726  41.378  12.918
31744W        W91005   7.180  24.618  13.938
31745W        W91006  24.111  15.662   5.159
31746W        W91007  22.720  14.255   2.415
31747W        W91008  19.642   3.911  14.288
31748W        W91009  25.212  43.969  13.933
31749W        W91010  37.448  38.880   1.831
31750W        W91011  39.370  12.633  14.457
31751W        W91012  25.529  23.543   0.866
31752W        W91013  13.607   6.340  14.027
31753W        W91014  35.503  10.637  10.925
31754W        W91015   6.198  36.530   2.201
31755W        W91016  39.030  40.851  10.528
31756W        W91017  27.148   5.384   4.142
31757W        W91018  26.155   0.331   4.249
31758W        W91019  16.102  41.301   4.144
31759W        W91020   6.677  16.270   4.188
31760W        W91021  32.982  20.714   3.716
31761W        W91022  38.831  17.670   1.875
31762W        W91023  29.625   2.840  11.117
31763W        W91024  30.026  20.740  12.576
31764W        W91025  24.500  26.088  11.074
31765W        W91026  23.193  10.190  13.393
31766W        W91027  32.419  22.180   0.843
31767W        W91028  10.155  26.973   5.167
31768W        W91029   4.821  12.348  14.445
31769W        W91030  24.566  13.700  14.277
31770W        W91031   3.804  13.660   0.830
31771W        W91032  14.281   8.265   1.397
31772W        W91033  34.120   9.820  13.916
31773W        W91034  37.882   6.417   2.214
31774W        W91035  33.984   0.305   2.747
31775W        W91036   5.731  12.166  13.049
31776W        W91037  33.490  27.545  13.857
31777W        W91038   4.814  23.191  14.316
31778W        W91039  28.670  13.630   2.819
31779W        W91040  38.847  23.722   3.708
31780W        W91041  11.718   7.340   1.866
31781W        W91042  22.012  39.419  11.555
31782W        W91043  32.102   7.356   0.912
31783W        W91044  23.220   6.754   2.366
31784W        W91045  36.483  25.691   2.892
31785W        W91046  11.187  28.981   0.907
31786W        W91047  37.943  16.134  14.792
31787W        W91048   9.172  12.807  12.839
31788W        W91049  12.739  24.984   1.715
31789W        W91050  11.648   7.830   4.659
31790W        W91051   0.887  38.926  13.461
31791W        W91052  25.656  12.332  10.972
31792W        W91053  38.850  13.214   4.273
31793W        W91054   3.440  34.077  11.856
31794W        W91055  37.394  39.861  11.068
31795W        W91056  16.746   3.252  13.425
31796W        W91057   0.433  23.188  12.976
31797W        W91058   2.941  19.283  11.374
31798W        W91059  19.191  31.568  13.416
31799W        W91060   5.399  11.369   1.837
31800W        W91061  32.023  37.542  12.562
31801W        W91062  27.688   0.330  11.401
31802W        W91063   6.334   7.382   4.286
31803W        W91064  27.604  44.953   0.847
31804W        W91065  39.026  32.894   4.831
31805W        W91066   6.391  40.950   2.723
31806W        W91067  33.475  17.630  10.518
31807W        W91068  18.589  10.857   0.286
31808W        W91069  16.267   8.254   4.599
31809W        W91070  19.219  15.126  12.995
31810W        W91071  34.021   8.846  12.075
31811W        W91072   4.704  14.624  11.863
31812W        W91073  14.716  26.990   0.351
31813W        W91074  22.556  42.959   2.229
31814W        W91075  21.597   9.285  14.402
31815W        W91076  22.504   5.754  12.412
31816W        W91077  24.081   1.273  12.379
31817W        W91078  36.593  20.185  12.070
31818W        W91079  10.352  40.389  12.847
31819W        W91080   5.742   0.414   0.402
31820W        W91081  26.014  42.881   2.797
31821W        W91082  26.136  18.643  12.390
31822W        W91083  13.261  35.081   3.165
31823W        W91084   6.414  28.014   0.940
31824W        W91085  20.177   0.790   1.330
31825W        W91086  10.360  14.339  13.410
31826W        W91087  12.816  15.272  13.488
31827W        W91088  28.522  37.545   2.269
31828W        W91089   8.659  13.139   5.705
31829W        W91090  12.670  34.517  14.927
31830W        W91091   0.913  10.775  14.873
31831W        W91092   4.409   1.897  13.363
31832W        W91093  18.056  38.417  14.491
31833W        W91094  22.513  26.602  12.915
31834W        W91095  34.453  19.567  11.980
31835W        W91096  32.108   2.253  14.811
31836W        W91097  13.838  24.502   2.758
31837W        W91098   6.912  42.816   4.671
31838W        W91099   4.431   7.206   0.850
31839W        W91100   6.815  43.876  12.895
31840W        W91101  12.186  27.445  14.940
31841W        W91102  10.140   6.815  12.351
31842W        W91103  13.665  23.615  14.954
31843W        W91104  41.986  19.588  10.944
31844W        W91105  22.102  15.309   2.256
31845W        W91106  36.384  44.314  14.019
31846W        W91107  38.877  13.716  14.866
31847W        W91108  39.000  18.269   3.848
31848W        W91109   1.969  14.604  14.471
31849W        W91110  43.937  18.735   0.471
31850W        W91111  28.038  40.492   3.673
31851W        W91112  42.337  38.369  14.987
31852W        W91113   7.725  15.813  12.405
31853W        W91114  39.882  14.127  12.383
31854W        W91115   9.786  21.261  13.803
31855W        W91116  39.951   2.293   4.643
31856W        W91117  11.331  30.421  14.473
31857W        W91118  42.364  12.304  12.378
31858W        W91119  27.004  20.082   0.783
31859W        W91120   4.278  17.175   0.323
31860W        W91121  37.084  42.906   1.240
31861W        W91122  22.574  43.492   2.887
31862W        W91123  21.750  42.019   0.928
31863W        W91124   4.211  32.497  12.578
31864W        W91125  27.516  27.479  13.396
31865W        W91126  30.981   1.750  14.944
31866W        W91127  35.582  18.667  14.306
31867W        W91128  38.994  35.863  12.433
31868W        W91129  17.760  14.782   1.366
31869W        W91130  15.177  33.945  10.587
31870W        W91131   0.972  35.877   1.778
31871W        W91132  13.829  34.456   3.662
31872W        W91133  21.545  35.959  10.452
31873W        W91134  44.284  30.627   3.146
31874W        W91135  27.662  20.739  14.515
31875W        W91136  13.286  33.464   4.156
31876W        W91137  14.307  41.800  10.561
31877W        W91138  10.252   6.888   3.775
31878W        W91139   4.339  28.081  11.530
31879W        W91140  24.101  20.668   1.791
31880W        W91141  22.730   9.265  13.923
31881W        W91142  13.291  16.244   0.259
31882W        W91143  12.323  40.477   1.250
31883W        W91144  32.090  10.726   4.153
31884W        W91145  24.709  38.944  12.497
31885W        W91146  24.708  39.849  14.848
31886W        W91147  25.583  38.551  13.528
31887W        W91148  27.974   6.237  12.559
31888W        W91149  41.415  28.996  11.978
31889W        W91150  26.189  36.513   2.282
31890W        W91151  42.954  25.994   1.803
31891W        W91152  30.655  39.863   4.673
31892W        W91153  40.822   7.850  14.443
31893W        W91154  40.350   5.914   1.893
31894W        W91155  42.516  28.615  13.869
31895W        W91156  26.951  43.017   1.921
31896W        W91157  12.143  25.140  11.576
31897W        W91158  30.969   6.422   1.249
31898W        W91159  21.564  35.580  12.063
31899W        W91160   1.431  11.362  10.639
31900W        W91161  14.637   3.849  12.927
31901W        W91162   6.379  10.779  14.461
31902W        W91163  32.110  40.845  12.871
31903W        W91164   7.265  14.295   2.753
31904W        W91165  38.446  10.773  12.868
31905W        W91166  42.853  10.765   3.351
31906W        W91167   2.231   0.331  10.645
31907W        W91168   4.305  20.526   3.653
31908W        W91169  16.788   3.800   1.922
31909W        W91170  35.861   7.765  12.937
31910W        W91171  15.704   3.906  13.007
31911W        W91172  31.111   7.222  10.618
31912W        W91173  28.045  35.874  10.126
31913W        W91174  33.516  20.264  10.912
31914W        W91175   3.835  16.587  13.800
31915W        W91176  23.163   5.858   2.198
31916W        W91177   6.347  17.195   0.955
31917W        W91178  26.001  16.723   0.919
31918W        W91179   1.448  10.286  14.307
31919W        W91180   7.770   9.218  11.916
31920W        W91181  29.013  42.971   0.794
31921W        W91182  38.946  14.104   4.303
31922W        W91183  18.587  24.139  14.791
31923W        W91184  26.066  33.385  14.773
31924W        W91185  34.466  31.905   2.347
31925W        W91186  27.024  19.143   4.246
31926W        W91187   0.280  29.617   1.798
31927W        W91188  36.389   0.935   5.142
31928W        W91189  11.714   2.793   3.382
31929W        W91190  42.008  31.110   0.841
31930W        W91191   0.776   2.812   3.722
31931W        W91192  10.827  25.065   0.275
31932W        W91193  16.185   7.404   1.323
31933W        W91194  14.639   2.301  12.456
31934W        W91195  27.524  33.527  10.628
31935W        W91196  30.076  25.564  10.445
31936W        W91197  22.184  32.098  12.028
31937W        W91198  32.524  35.982  11.899
31938W        W91199  15.241  41.790  11.597
31939W        W91200   7.289   1.857   1.363
31940W        W91201  43.986  19.768  12.465
31941W        W91202  23.707   5.876   4.635
31942W        W91203   8.890  38.070   1.790
31943W        W91204  16.149  42.989  14.308
31944W        W91205  28.545  31.577  11.612
31945W        W91206   6.833  16.310   2.840
31946W        W91207  13.770  27.469  14.392
31947W        W91208  11.817  13.826   4.341
31948W        W91209   3.835  17.564   1.820
31949W        W91210  28.649   7.763  10.583
31950W        W91211  33.956  26.687  12.831
31951W        W91212   0.804  27.646   2.186
31952W        W91213   3.820  32.547  11.589
31953W        W91214  13.790  12.795   3.843
31954W        W91215  17.204  18.266   3.185
31955W        W91216  42.337  25.570  13.959
31956W        W91217   5.793   2.756  11.402
31957W        W91218   5.354  13.151   4.684
31958W        W91219  37.033   6.304  12.369
31959W        W91220  31.623  21.605  13.509
31960W        W91221  28.076  38.528  14.020
31961W        W91222   2.419  43.778   3.805
31962W        W91223  36.389  22.018  14.880
31963W        W91224  24.166  31.456   2.734
31964W        W91225  22.653  32.562  12.060
31965W        W91226  38.947   7.181  14.802
31966W        W91227   2.274  28.460   0.856
31967W        W91228   7.308  27.057  13.900
31968W        W91229  43.342  25.122   9.952
31969W        W91230   4.763  23.988  14.973
31970W        W91231   8.377  23.058  11.517
31971W        W91232  23.227  16.304  12.445
31972W        W91233  37.473  37.433  14.870
31973W        W91234  34.938  40.314   1.343
31974W        W91235  23.518  30.922   2.263
31975W        W91236   1.859   9.738   2.408
31976W        W91237   7.698  41.336   0.779
31977W        W91238  13.243  10.793   2.789
31978W        W91239  18.656  31.902  12.841
31979W        W91240  20.545  14.775  12.951
31980W        W91241   2.291  11.623  11.505
31981W        W91242  28.974  33.428  12.927
31982W        W91243  23.619  27.170   0.774
31983W        W91244   8.342   0.269  14.777
31984W        W91245  35.359   0.955  11.579
31985W        W91246  11.805  41.027   9.980
31986W        W91247  20.716  17.709  13.967
31987W        W91248  28.030  34.077  10.554
31988W        W91249  27.056  16.084   0.894
31989W        W91250  16.749  40.353   3.696
31990W        W91251  33.426  29.129   2.347
31991W        W91252  16.193  33.390   4.207
31992W        W91253  15.690  27.163   0.765
31993W        W91254  35.395  31.119   3.852
31994W        W91255  29.490   0.276  14.498
31995W        W91256   2.227  18.242   4.185
31996W        W91257  37.472  13.749   2.271
31997W        W91258  40.927  39.399   1.367
31998W        W91259  14.662  17.110   1.927
31999W        W91260  38.844   1.750  11.964
32000W        W91261  12.339   0.305  13.995
32001W        W91262  29.928  19.145  14.515
32002W        W91263  34.417  13.689   3.290
32003W        W91264  10.212   1.348  14.005
32004W        W91265  22.570  34.067  12.381
32005W        W91266  16.722  17.260  12.482
32006W        W91267  41.460   7.219   0.360
32007W        W91268  31.144  20.670  14.862
32008W        W91269  27.678  34.498  14.483
32009W        W91270  12.799  38.026   1.342
32010W        W91271  20.693  40.526   3.251
32011W        W91272   7.206  25.504  14.836
32012W        W91273   1.447  32.415  11.495
32013W        W91274   4.881  12.821  12.452
32014W        W91275   4.894  33.927   0.889
32015W        W91276  41.007  11.209  12.868
32016W        W91277  17.702  35.878   4.802
32017W        W91278  19.103  42.863   4.315
32018W        W91279  27.944  38.429   0.464
32019W        W91280   4.790  15.692   3.292
32020W        W91281  11.736  16.317  10.495
32021W        W91282   5.919  19.080   3.827
32022W        W91283  42.010  26.555  13.895
32023W        W91284  30.455  34.536   4.269
32024W        W91285  44.441   0.780   3.811
32025W        W91286  41.892  15.662   4.714
32026W        W91287  32.073   1.741  14.980
32027W        W91288  40.811  29.466  12.411
32028W        W91289   0.852  22.181  10.472
32029W        W91290   5.820  37.069  11.994
32030W        W91291  39.949  37.985   3.860
32031W        W91292   8.177   5.253   0.342
32032W        W91293   0.912  16.568   4.748
32033W        W91294  19.278  32.003   2.399
32034W        W91295  11.154  30.036   3.768
32035W        W91296  44.352   5.695  10.583
32036W        W91297  29.125  15.284  13.816
32037W        W91298  40.391  24.494   0.916
32038W        W91299  41.292  37.863   4.120
32039W        W91300  13.626   6.365  10.524
32040W        W91301  25.699   0.454   4.756
32041W        W91302  31.643   7.275   0.480
32042W        W91303  16.082  39.434   0.730
32043W        W91304  39.812  20.635  12.472
32044W        W91305   5.360  14.267   1.321
32045W        W91306  42.368  43.930  14.409
32046W        W91307  27.993  29.603   3.216
32047W        W91308  32.066  32.132   3.857
32048W        W91309  15.222  11.242  11.532
32049W        W91310   8.810  12.323  14.870
32050W        W91311   6.914   5.721  13.034
32051W        W91312  10.197  32.504   3.208
32052W        W91313   5.824  10.150  13.874
32053W        W91314  32.938  41.522   3.299
32054W        W91315  40.540  10.357   2.293
32055W        W91316  12.616   7.393   4.761
32056W        W91317  30.944  25.698  11.604
32057W        W91318  32.082  22.090   0.802
32058W        W91319   0.390  12.326  11.431
32059W        W91320  18.179  34.412   1.259
32060W        W91321  36.570  27.092   2.770
32061W        W91322  31.928  14.758  11.483
32062W        W91323  39.473  34.422   0.768
32063W        W91324  28.605  38.820   3.261
32064W        W91325  14.614  26.158   5.725
32065W        W91326   7.331  40.871  11.399
32066W        W91327   3.409  41.534   2.776
32067W        W91328   5.896  29.605   0.305
32068W        W91329  43.931  13.330   1.381
32069W        W91330  13.231  24.043  12.357
32070W        W91331  12.316  19.641   4.208
32071W        W91332  40.394  33.970  10.486
32072W        W91333  33.120   0.896   1.881
32073W        W91334  21.078   6.690  12.840
32074W        W91335  10.273   2.915  11.409
32075W        W91336  15.270   2.783   3.153
32076W        W91337  10.154  38.566   0.887
32077W        W91338  30.097  25.219  11.378
32078W        W91339  11.355  27.025  11.089
32079W        W91340  22.161  12.617  10.976
32080W        W91341  19.169  16.614  14.409
32081W        W91342  24.687   1.375  14.316
32082W        W91343  26.582  36.589  11.031
32083W        W91344   7.228  32.452  12.454
32084W        W91345  42.499  19.605  12.868
32085W        W91346  25.617  33.010   1.298
32086W        W91347  23.042  17.306  14.463
32087W        W91348  10.160  43.891   0.276
32088W        W91349  24.623  29.618  10.567
32089W        W91350  15.720  38.387  11.911
32090W        W91351  13.350  36.033   4.770
32091W        W91352  16.205   2.278   2.294
32092W        W91353  39.347  20.596   0.858
32093W        W91354   2.352  22.533   2.243
32094W        W91355  32.552  27.570   3.721
32095W        W91356  37.895  28.138  11.864
32096W        W91357   4.220  12.669  14.451
32097W        W91358  44.892  29.983   2.854
32098W        W91359   0.923  37.451   3.201
32099W        W91360  35.373  38.891   0.270
32100W        W91361  37.561  12.309   1.825
32101W        W91362  20.038  26.639   0.308
32102W        W91363  23.128  25.159   1.289
32103W        W91364  24.646  16.721   1.227
32104W        W91365   6.791  23.161   2.768
32105W        W91366  11.733  22.618   1.910
32106W        W91367  26.695  11.846  13.953
32107W        W91368  12.299   0.874   5.112
32108W        W91369  26.493  38.001   0.421
32109W        W91370   7.815  37.951   4.704
32110W        W91371  12.809   1.285  11.563
32111W        W91372   1.927  27.500   1.905
32112W        W91373  33.103  38.867   3.380
32113W        W91374  19.612   2.347   1.387
32114W        W91375  11.647  30.541  13.030
32115W        W91376  27.588   7.403  13.325
32116W        W91377  44.900  42.286  13.480
32117W        W91378   6.857  41.416  12.982
32118W        W91379  12.647  29.091   3.870
32119W        W91380   6.695  40.473  12.896
32120W        W91381  17.254  39.890  12.031
32121W        W91382  19.250  16.248   4.706
32122W        W91383  41.885  38.515   4.126
32123W        W91384  37.929  41.386  13.983
32124W        W91385  28.558  44.914  11.537
32125W        W91386  35.552  24.541   0.378
32126W        W91387  23.115   3.285  14.391
32127W        W91388  35.406  10.234  13.508
32128W        W91389  40.054   0.885   2.253
32129W        W91390  33.440  27.154   3.219
32130W        W91391  37.060  11.195   0.327
32131W        W91392  32.541   1.315   1.359
32132W        W91393  18.284   0.366  13.937
32133W        W91394  31.597  41.029  12.503
32134W        W91395  11.158  35.054   4.215
32135W        W91396  32.948  17.100   1.859
32136W        W91397  10.266  11.200   1.267
32137W        W91398   4.795  44.429   1.283
32138W        W91399  22.117  32.050  11.438
32139W        W91400  43.372   6.788  12.029
32140W        W91401  33.996  20.068  13.462
32141W        W91402  20.177   2.808  11.861
32142W        W91403  37.869   7.236   5.306
32143W        W91404   8.305  42.933  14.947
32144W        W91405  10.218  26.544   3.837
32145W        W91406   5.412  15.682   0.850
32146W        W91407   7.841   6.805  13.807
32147W        W91408  18.604  42.001   0.797
32148W        W91409  44.962  25.701  13.019
32149W        W91410  18.600  32.533  11.922
32150W        W91411  32.018  29.971  13.435
32151W        W91412  39.423  15.629  14.457
32152W        W91413  33.428  34.587  14.465
32153W        W91414  35.961  40.826  11.444
32154W        W91415  17.625   9.861   1.437
32155W        W91416  42.827  14.594   1.246
32156W        W91417  17.796   6.831   1.216
32157W        W91418  12.182  11.236  14.000
32158W        W91419   1.388  23.655  13.318
32159W        W91420   7.305  22.593  10.893
32160W        W91421   6.333  30.106   0.364
32161W        W91422  40.885  43.370   2.228
32162W        W91423   1.880  29.577   0.783
32163W        W91424  13.152  38.415   3.329
32164W        W91425  40.899   1.959   1.412
32165W        W91426  33.967  37.463  11.896
32166W        W91427  15.646  19.678   3.174
32167W        W91428  42.436  33.092  14.831
32168W        W91429   3.298  23.189  12.957
32169W        W91430  35.560  10.747   4.278
32170W        W91431  24.149  34.505  11.400
32171W        W91432  22.627  30.067  13.812
32172W        W91433  24.087   2.407  11.129
32173W        W91434  12.810   3.935   2.731
32174W        W91435  25.083  32.587  11.013
32175W        W91436  22.563  26.579  11.076
32176W        W91437  39.944  15.227  14.024
32177W        W91438   2.381  32.005   2.363
32178W        W91439  10.750   4.774  13.897
32179W        W91440  28.622  40.384   0.443
32180W        W91441  29.077  34.509   1.805
32181W        W91442  29.919  18.265  12.402
32182W        W91443  30.599  21.193  13.405
32183W        W91444  14.175  25.702   0.357
32184W        W91445  33.455  19.198  14.800
32185W        W91446  20.685  42.936   2.300
32186W        W91447  29.475   3.808  11.011
32187W        W91448  34.975  22.096   3.697
32188W        W91449  13.253  22.026  10.634
32189W        W91450  11.669  44.461   3.688
32190W        W91451  21.247  33.126  12.861
32191W        W91452   4.304  34.443   1.278
32192W        W91453  35.077  16.279  14.458
32193W        W91454  41.326  11.696   2.862
32194W        W91455  27.654  17.267  12.346
32195W        W91456  13.291  38.996  12.477
32196W        W91457   0.811  31.621   0.243
32197W        W91458  20.168  31.444  13.316
32198W        W91459  42.831  30.572  11.986
32199W        W91460  16.718  10.375  13.926
32200W        W91461  16.589  12.228   0.735
32201W        W91462  16.148  15.306  12.996
32202W        W91463   4.251  21.600  10.454
32203W        W91464  34.534  15.684  14.378
32204W        W91465  24.160   7.884   4.180
32205W        W91466  44.985  34.560   4.602
32206W        W91467  30.532   6.860  10.404
32207W        W91468  37.505   9.242  13.925
32208W        W91469  14.142  25.507   1.754
32209W        W91470  31.548  39.000  11.527
32210W        W91471  39.974   8.296  12.370
32211W        W91472  12.232  36.456  11.521
32212W        W91473  44.390  13.190   1.387
32213W        W91474  16.257  34.555   4.658
32214W        W91475  20.659  37.363   1.884
32215W        W91476  18.700  26.046  12.096
32216W        W91477  33.574  16.658  13.825
32217W        W91478  11.780  20.166   4.785
32218W        W91479  37.040  28.066   4.336
32219W        W91480  22.157   4.807  10.935
32220W        W91481  13.656  33.453   3.291
32221W        W91482  31.459  30.596  13.940
32222W        W91483  41.814  43.380  14.873
32223W        W91484   0.884  19.108  14.995
32224W        W91485   1.872  36.533   4.334
32225W        W91486   0.817  36.894   3.645
32226W        W91487   1.864  16.226   3.271
32227W        W91488  35.556  25.657   3.200
32228W        W91489  43.000   8.712  13.401
32229W        W91490  23.221   8.857   3.197
32230W        W91491   2.928   2.866   0.792
32231W        W91492   5.899   8.728  12.341
32232W        W91493  25.076  37.452  13.331
32233W        W91494  15.800   6.221  13.888
32234W        W91495  34.938  44.873  13.337
32235W        W91496  24.047   2.905  14.790
32236W        W91497  42.027  29.649  12.976
32237W        W91498  32.440  12.798  11.387
32238W        W91499  11.672  23.993  14.813
32239W        W91500  19.214  39.459  10.888
32240W        W91501  42.288   4.217  10.452
32241W        W91502  13.178   7.846   3.313
32242W        W91503  12.634  13.147   1.426
32243W        W91504  11.714  24.208   2.246
32244W        W91505  15.700   7.268  13.330
32245W        W91506  18.658  16.243   2.755
32246W        W91507  44.832  27.451  11.872
32247W        W91508   7.262   3.391  11.471
32248W        W91509  13.185  32.135   4.301
32249W        W91510  30.910  20.736  13.997
32250W        W91511  14.749  32.047   5.317
32251W        W91512   7.299  33.122  10.916
32252W        W91513  40.453  13.294   4.790
32253W        W91514   2.938   2.860  13.464
32254W        W91515  24.527  13.215  12.843
32255W        W91516  26.702  23.682   1.416
32256W        W91517  22.069  40.482  14.802
32257W        W91518  21.134   4.398   2.839
32258W        W91519  40.417  35.522   2.794
32259W        W91520  36.943  16.603   0.351
32260W        W91521   1.853  27.516   3.823
32261W        W91522  10.633   1.402   4.143
32262W        W91523  13.206  25.962   1.781
32263W        W91524   7.698   0.306  14.977
32264W        W91525  23.236  28.518  12.424
32265W        W91526  36.455  11.749   1.849
32266W        W91527  22.036  31.468   3.748
32267W        W91528   1.933   4.294  11.382
32268W        W91529  34.556  41.786  11.502
32269W        W91530  11.252  30.913   0.834
32270W        W91531  11.340   9.682  12.527
32271W        W91532  40.417  18.212  10.537
32272W        W91533   2.279  38.501   3.361
32273W        W91534   4.897  10.643   3.843
32274W        W91535   8.670  17.730   3.752
32275W        W91536  24.014  36.359   3.698
32276W        W91537  13.231   6.794   2.401
32277W        W91538  19.072   6.203   0.817
32278W        W91539  35.066  21.195  10.056
32279W        W91540  29.588   9.337   1.248
32280W        W91541  21.615   5.227  14.313
32281W        W91542  17.688   8.214   3.724
32282W        W91543  17.119   4.908   3.237
32283W        W91544  37.405  31.407  13.430
32284W        W91545  41.848  39.461   4.225
32285W        W91546  21.039   4.719  13.440
32286W        W91547  27.509   7.833   3.653
32287W        W91548  29.529  44.414  14.830
32288W        W91549   1.406  20.128  12.834
32289W        W91550  35.455  13.279   1.723
32290W        W91551  30.604   9.371  11.903
32291W        W91552   2.364  19.707  13.512
32292W        W91553  12.287  34.988  12.459
32293W        W91554   2.393  17.678   1.299
32294W        W91555   4.440  35.481  12.057
32295W        W91556  16.123   4.407   0.329
32296W        W91557  18.063   6.730   0.784
32297W        W91558  22.589  43.779   1.421
32298W        W91559   2.927  35.494  11.494
32299W        W91560   7.386  33.011   0.292
32300W        W91561  12.165  13.267  14.840
32301W        W91562  38.020  15.104   3.761
32302W        W91563   9.317  13.347   2.793
32303W        W91564   0.978  11.715   0.831
32304W        W91565   3.373   3.253  13.846
32305W        W91566  22.134  29.986   1.353
32306W        W91567  16.764  11.324   0.452
32307W        W91568  19.123   6.274   3.805
32308W        W91569  22.731   2.351  12.890
32309W        W91570  38.868  23.639   4.729
32310W        W91571  12.676  34.117  11.865
32311W        W91572   3.852   7.183  12.436
32312W        W91573  41.480  27.040   2.400
32313W        W91574   3.851  28.625   3.681
32314W        W91575  10.339  31.965   0.923
32315W        W91576  26.670  29.034  12.933
32316W        W91577  25.479  39.365   4.815
32317W        W91578  20.196   7.814   2.869
32318W        W91579  34.401  18.652   0.252
32319W        W91580  15.309  44.869   1.935
32320W        W91581  21.199  23.674  10.473
32321W        W91582  42.315  19.556  11.510
32322W        W91583   7.700  15.170  14.456
32323W        W91584   2.436   5.329   4.221
32324W        W91585   3.750   3.861   1.225
32325W        W91586  37.371   7.874   3.313
32326W        W91587  18.217  13.273  14.356
32327W        W91588  35.369  38.513   3.851
32328W        W91589  20.745  10.356  12.386
32329W        W91590  37.987  25.038   0.425
32330W        W91591  18.549  35.398   1.921
32331W        W91592  19.264   7.726  12.558
32332W        W91593  37.357  18.762   1.318
32333W        W91594  32.554  43.799  13.542
32334W        W91595  26.508  29.494  10.408
32335W        W91596   3.954  35.942  12.487
32336W        W91597  39.446  42.502  10.544
32337W        W91598  12.851  27.001  11.423
32338W        W91599   7.669  12.310   2.824
32339W        W91600   0.964   3.736  13.795
32340W        W91601   0.930  26.600  11.489
32341W        W91602   2.411  23.045  10.947
32342W        W91603  31.642  16.758   3.218
32343W        W91604   5.741  43.930   1.887
32344W        W91605  36.046   0.363   4.198
32345W        W91606   4.768   5.720  10.444
32346W        W91607  41.419  13.636   4.717
32347W        W91608  22.065   7.389   4.353
32348W        W91609  13.240  31.095  10.891
32349W        W91610   9.204   2.922  11.540
32350W        W91611  28.943  41.463   1.400
32351W        W91612  41.372  43.331  14.282
32352W        W91613  23.685  31.585   1.859
32353W        W91614  38.826  10.866  13.412
32354W        W91615  18.275  33.584   2.292
32355W        W91616  15.733  40.467  13.802
32356W        W91617  42.340  39.951  13.378
32357W        W91618  20.122  28.022   0.318
32358W        W91619  39.935  30.143  13.999
32359W        W91620  44.912   3.388   0.752
32360W        W91621   0.849   8.886   2.401
32361W        W91622  42.312  13.663   1.887
32362W        W91623   2.306  39.514  11.398
32363W        W91624   9.253  35.406  11.536
32364W        W91625  28.580  13.655   0.860
32365W        W91626  22.694  28.579  11.959
32366W        W91627  20.670  43.827  13.402
32367W        W91628   9.826  23.048  10.604
32368W        W91629  20.571  17.660   3.748
32369W        W91630  12.712  29.107   1.446
32370W        W91631  36.349  14.120   4.687
32371W        W91632  33.024   6.753   4.200
32372W        W91633  17.604   0.957  14.775
32373W        W91634  23.113  31.639   4.778
32374W        W91635  12.185  17.727  14.962
32375W        W91636  30.571  26.051   3.737
32376W        W91637   8.724  44.412  12.443
32377W        W91638  15.318  36.475   0.376
32378W        W91639  21.552   2.229   4.177
32379W        W91640  21.167  40.463  14.805
32380W        W91641  29.987  11.310  11.032
32381W        W91642  42.440   4.304   2.827
32382W        W91643   4.731  18.709   2.380
32383W        W91644  28.451  30.476  13.379
32384W        W91645  38.908   0.871   3.264
32385W        W91646  28.502   3.907   4.619
32386W        W91647  34.874  22.655  14.423
32387W        W91648   9.153  10.329  10.892
32388W        W91649   3.284  19.057   2.846
32389W        W91650  32.142   0.318   1.793
32390W        W91651  30.973  31.645   4.208
32391W        W91652  12.798   5.901  13.420
32392W        W91653  22.143  14.822  12.529
32393W        W91654  29.545  21.091  11.396
32394W        W91655  39.841  42.871  12.510
32395W        W91656  11.139   0.383   2.327
32396W        W91657  35.409  11.775   2.413
32397W        W91658  28.640   7.804  12.052
32398W        W91659   2.837  20.258   0.348
32399W        W91660  32.435  18.130  10.429
32400W        W91661  18.548  31.120  14.400
32401W        W91662  16.270  24.678  13.856
32402W        W91663   3.780  15.642   0.891
32403W        W91664  14.644   6.761  13.997
32404W        W91665   4.232   6.297   1.427
32405W        W91666  38.024  20.685   3.675
32406W        W91667  18.290  44.777   0.964
32407W        W91668  42.324  18.643   2.677
32408W        W91669   9.151   7.759  10.026
32409W        W91670  22.056  39.350   1.341
32410W        W91671  38.966  19.745   2.201
32411W        W91672  15.638  30.127   3.241
32412W        W91673   1.257  26.674   0.475
32413W        W91674  13.145  25.082  10.601
32414W        W91675   1.474  13.836  11.002
32415W        W91676  27.002  38.967   1.349
32416W        W91677  28.482   9.199   2.855
32417W        W91678   3.249   3.774  11.610
32418W        W91679  34.037  24.996  13.917
32419W        W91680  12.145  40.898  11.501
32420W        W91681  15.328  11.787  14.859
32421W        W91682  26.585  31.002   4.610
32422W        W91683  31.011  30.420  10.141
32423W        W91684  27.619  41.403  12.959
32424W        W91685  21.597   9.358  14.834
32425W        W91686  12.281  38.559  10.927
32426W        W91687  43.358  36.586  12.066
32427W        W91688  21.218  35.929   3.839
32428W        W91689  42.475  33.518   2.879
32429W        W91690  35.566  16.750   4.209
32430W        W91691  21.097  39.394   2.231
32431W        W91692  30.148  40.808  11.989
32432W        W91693  39.932  25.178  12.862
32433W        W91694   6.805  36.953  10.432
32434W        W91695  34.023  22.191   3.741
32435W        W91696  37.856  41.846   1.768
32436W        W91697   1.445  34.029  11.475
32437W        W91698   2.796  40.452  10.477
32438W        W91699  39.036  43.272  11.870
32439W        W91700  38.952   9.311  10.625
32440W        W91701   5.900   5.403   1.234
32441W        W91702  27.060  44.428  10.636
32442W        W91703  19.639  10.720   3.377
32443W        W91704   1.410  15.775  10.939
32444W        W91705  22.996  10.870   0.339
32445W        W91706   1.374   6.805   4.792
32446W        W91707   8.659  19.224  12.939
32447W        W91708  35.915  21.074   2.788
32448W        W91709   2.780  33.989   2.866
32449W        W91710  26.084   8.387   3.296
32450W        W91711  27.983  22.106  11.402
32451W        W91712   8.371   6.722  13.932
32452W        W91713  37.392  24.659  12.880
32453W        W91714  40.327   8.726  12.534
32454W        W91715  40.453   5.275  12.437
32455W        W91716  19.056  10.768  10.583
32456W        W91717  44.985  17.220   4.710
32457W        W91718  31.075  36.486  11.491
32458W        W91719  12.306  28.082   4.773
32459W        W91720  22.733   8.382  11.923
32460W        W91721  24.503  24.650   0.901
32461W        W91722  14.302  25.574   3.383
32462W        W91723  13.612   8.717   1.821
32463W        W91724  36.959  43.802  11.931
32464W        W91725   1.245  10.636   1.712
32465W        W91726  22.637  22.711  12.360
32466W        W91727   1.751  42.910  10.640
32467W        W91728  23.235   7.401   4.180
32468W        W91729  39.863  11.823  12.539
32469W        W91730   4.330  39.050  14.031
32470W        W91731  28.003  43.010   4.827
32471W        W91732  26.692  12.318   2.321
32472W        W91733  37.546  10.639  10.492
32473W        W91734  37.534  10.821  11.119
32474W        W91735  31.120  40.415  13.461
32475W        W91736   6.848  36.369  12.406
32476W        W91737  44.762  24.526  13.911
32477W        W91738  40.500  13.770  11.582
32478W        W91739   3.785  19.218   2.802
32479W        W91740   9.301  15.602   0.483
32480W        W91741   6.873  41.816   0.389
32481W        W91742   0.323  13.720  14.414
32482W        W91743   3.790  30.119   3.652
32483W        W91744  26.657  11.318  13.444
32484W        W91745  16.103  14.665  13.845
32485W        W91746  43.447   7.256   1.348
32486W        W91747  42.431  33.052  11.959
32487W        W91748  11.170  32.507  14.909
32488W        W91749  44.957   3.394   1.771
32489W        W91750  32.416  20.675  13.315
32490W        W91751  10.215  19.760  13.459
32491W        W91752   0.924   6.873   3.229
32492W        W91753  18.280  43.300   2.668
32493W        W91754  35.957  13.291  14.911
32494W        W91755  28.511  23.085  14.323
32495W        W91756  25.534  16.177  11.976
32496W        W91757   0.967  17.071   2.324
32497W        W91758  15.609  33.877  11.864
32498W        W91759  21.686  24.088  14.805
32499W        W91760  37.913  20.660   1.281
32500W        W91761  28.148  18.259  11.049
32501W        W91762  13.700  42.951   0.745
32502W        W91763  31.581  23.507   1.344
32503W        W91764  32.981  35.073   1.789
32504W        W91765  34.089  38.491  14.801
32505W        W91766  25.632   8.260  13.807
32506W        W91767  26.494  27.623   2.270
32507W        W91768  32.564  19.541  13.464
32508W        W91769  20.618  12.657   3.189
32509W        W91770  36.425  28.986  13.477
32510W        W91771  11.210   3.950  14.017
32511W        W91772  25.589  24.975   0.965
32512W        W91773  39.487  23.181   1.787
32513W        W91774  32.618  27.142  13.544
32514W        W91775  24.625  40.946  14.018
32515W        W91776  27.979  18.712   4.676
32516W        W91777  13.821   9.228  10.464
32517W        W91778   2.306  33.084   3.651
32518W        W91779  26.032  31.519  12.041
32519W        W91780   8.320   5.232   4.334
32520W        W91781  20.123   1.978   3.249
32521W        W91782   8.877  24.076   4.193
32522W        W91783   5.263   9.805  12.938
32523W        W91784  43.288   6.296  13.437
32524W        W91785   6.332  44.366  10.056
32525W        W91786  35.552  19.183  14.459
32526W        W91787  22.130  14.766  14.290
32527W        W91788   6.704  43.490  11.888
32528W        W91789  28.494  41.029   0.800
32529W        W91790  24.222   2.275  12.465
32530W        W91791  20.030  23.685  12.062
32531W        W91792   5.795  36.354   4.732
32532W        W91793  10.807  39.911  12.931
32533W        W91794  35.014   3.427   0.954
32534W        W91795  35.533  40.361  14.025
32535W        W91796   4.943  13.219   4.714
32536W        W91797  31.004  21.061   4.228
32537W        W91798  34.487  25.476   3.224
32538W        W91799  36.544  34.442   3.156
32539W        W91800  23.051  32.073   2.383
32540W        W91801  42.876   0.915   2.900
32541W        W91802  24.152  32.629  13.958
32542W        W91803  22.124  19.610  11.520
32543W        W91804  35.095  26.670   2.698
32544W        W91805  21.673  38.907  11.506
32545W        W91806  19.735  18.652  10.581
32546W        W91807  25.586  18.280   2.749
32547W        W91808  27.513   0.949   0.766
32548W        W91809  29.639  36.975  14.768
32549W        W91810  30.658  38.501  12.344
32550W        W91811  35.583   9.195  12.037
32551W        W91812  29.129  33.006   1.809
32552W        W91813  32.902  24.057  13.850
32553W        W91814  13.817  12.668  14.281
32554W        W91815   9.851  22.612  14.994
32555W        W91816  10.374   4.783   2.305
32556W        W91817  18.071  12.319   2.799
32557W        W91818   5.213   4.885   4.309
32558W        W91819   8.338   2.871   2.246
32559W        W91820  37.542  32.068   4.344
32560W        W91821  26.000   9.360   0.945
32561W        W91822  20.130  31.644  13.992
32562W        W91823  22.138   7.912   1.445
32563W        W91824   9.393   3.299   4.125
32564W        W91825  20.079  39.986   0.759
32565W        W91826  16.788   8.894  12.830
32566W        W91827  13.787   9.848  11.878
32567W        W91828  13.240   9.714   0.264
32568W        W91829  44.377  26.017   0.303
32569W        W91830  19.726  22.543  13.947
32570W        W91831  17.149  13.247   2.355
32571W        W91832  36.959   3.878  12.983
32572W        W91833   3.756  43.412  11.021
32573W        W91834  20.720  20.160  12.554
32574W        W91835   4.699  29.630  14.479
32575W        W91836  41.903  18.249  10.532
32576W        W91837  19.140  32.140   4.338
32577W        W91838  15.662  44.397   1.764
32578W        W91839   5.863  28.964  11.081
32579W        W91840  25.036  17.704  14.932
32580W        W91841   9.339  17.170   0.803
32581W        W91842  20.161   0.961   4.718
32582W        W91843  16.593  22.142  14.954
32583W        W91844   7.794  15.592   5.109
32584W        W91845  11.832  41.381   4.159
32585W        W91846  14.645  11.809  11.999
32586W        W91847   1.805  34.601  10.427
32587W        W91848  15.224  27.100   4.318
32588W        W91849  27.498   2.364  14.847
32589W        W91850  30.563  31.984  14.410
32590W        W91851  26.469  27.606  11.573
32591W        W91852   5.260  39.829  10.507
32592W        W91853   6.753  23.032  12.497
32593W        W91854  22.045  24.001  11.968
32594W        W91855  20.205  25.679  13.513
32595W        W91856  25.995  29.655   0.377
32596W        W91857  32.484  19.230   0.762
32597W        W91858  39.055  13.599  13.865
32598W        W91859  12.853   4.717  13.328
32599W        W91860   1.875  10.308  13.943
32600W        W91861  15.628  18.100   1.333
32601W        W91862  42.413  42.994  14.367
32602W        W91863  43.894   0.417  10.570
32603W        W91864  41.380  27.578  11.099
32604W        W91865  18.707   1.273   2.879
32605W        W91866  20.751   4.911   0.397
32606W        W91867   5.785  35.936   1.373
32607W        W91868  12.325  15.715   0.783
32608W        W91869  23.668  39.059   0.848
32609W        W91870   9.830   7.287  14.934
32610W        W91871  25.114  11.177   0.465
32611W        W91872  22.169  11.657  13.859
32612W        W91873  13.722  18.234  14.301
32613W        W91874  38.549  16.096  10.588
32614W        W91875  24.647  12.313  13.346
32615W        W91876  41.521  25.152   4.306
32616W        W91877  43.347  34.474   4.822
32617W        W91878  30.015  14.630  10.967
32618W        W91879  37.509  43.331   2.835
32619W        W91880  20.630  29.077   0.424
32620W        W91881  34.093  37.424  14.431
32621W        W91882   4.867  12.812   3.794
32622W        W91883  27.624  16.616   3.354
32623W        W91884  33.092  33.941   0.949
32624W        W91885  32.510  43.465  12.868
32625W        W91886  12.707  44.272   3.727
32626W        W91887  39.523  23.127  12.860
32627W        W91888  16.143   7.748   1.304
32628W        W91889   8.341  21.235  11.480
32629W        W91890  40.838  25.677   0.763
32630W        W91891  29.546  40.394   1.445
32631W        W91892   6.806  37.978   3.185
32632W        W91893  36.881  30.621  11.551
32633W        W91894  30.011  27.184   3.263
32634W        W91895  26.528   2.838  12.443
32635W        W91896  36.904  39.051  13.032
32636W        W91897  40.532  21.148   9.931
32637W        W91898  43.403  14.737  12.436
32638W        W91899  18.602  19.202   4.114
32639W        W91900  10.778  27.480   0.960
32640W        W91901   5.194  40.402  10.920
32641W        W91902   3.325  40.923  11.021
32642W        W91903  39.403   1.898  10.635
32643W        W91904  23.501   2.959  10.522
32644W        W91905  20.194   2.427   2.342
32645W        W91906   9.650  36.050   3.274
32646W        W91907   0.406  15.792  14.932
32647W        W91908  31.029  17.258  10.938
32648W        W91909   9.700  42.361   2.758
32649W        W91910  38.344   2.245  12.556
32650W        W91911  21.614   8.728   5.149
32651W        W91912   1.876  28.482   4.814
32652W        W91913  29.167   5.821   1.349
32653W        W91914  12.753  10.366   3.638
32654W        W91915   7.350  25.598  12.482
32655W        W91916   6.783  31.566   3.845
32656W        W91917  39.055   3.833  14.363
32657W        W91918   1.810   5.358  13.436
32658W        W91919  39.971   3.775   0.253
32659W        W91920  40.488  39.361  13.380
32660W        W91921  22.178  16.236   0.293
32661W        W91922  18.054   2.271   2.902
32662W        W91923  20.597  40.414  11.872
32663W        W91924  44.786  14.163   4.655
32664W        W91925  19.653  11.137   2.275
32665W        W91926   5.790  25.530   0.421
32666W        W91927  41.510  33.915   3.196
32667W        W91928   2.810  25.179  14.885
32668W        W91929  11.732   2.881  13.897
32669W        W91930  18.162  27.651   5.206
32670W        W91931  26.459  18.658   2.724
32671W        W91932  26.147  10.724   0.774
32672W        W91933  35.525   1.751  10.621
32673W        W91934  27.600  18.770  11.080
32674W        W91935   1.872  38.426  11.912
32675W        W91936  13.199   9.243  13.530
32676W        W91937  29.075   6.384   2.385
32677W        W91938  12.682   8.659  10.947
32678W        W91939  34.419  40.511   1.266
32679W        W91940  34.563   0.817  13.409
32680W        W91941  19.190  15.673  10.558
32681W        W91942  14.128   8.176  13.905
32682W        W91943  33.022  10.788   2.383
32683W        W91944  34.119   9.754   1.362
32684W        W91945  31.593  22.596   1.755
32685W        W91946  25.577  15.780   5.321
32686W        W91947  24.153  20.040   0.776
32687W        W91948  41.792  23.162  13.820
32688W        W91949   1.313  12.682  13.514
32689W        W91950  42.452  38.482  14.345
32690W        W91951  31.953  31.144   0.448
32691W        W91952  25.178  30.085  12.452
32692W        W91953  39.547  24.213   1.410
32693W        W91954  11.625  16.224   0.750
32694W        W91955  25.205  30.928   5.239
32695W        W91956  24.148   9.240  14.348
32696W        W91957   2.914   5.373   2.892
32697W        W91958  40.549   5.211  11.030
32698W        W91959   2.464  15.222   1.775
32699W        W91960  26.182  30.047  14.017
32700W        W91961  36.996  10.866  13.974
32701W        W91962  18.165  23.159  14.514
32702W        W91963   5.345  30.649  14.426
32703W        W91964  16.591  23.123  13.492
32704W        W91965  11.847  22.073   2.407
32705W        W91966  13.840  41.302   4.747
32706W        W91967  22.512  32.636  14.997
32707W        W91968  17.271  11.832  10.506
32708W        W91969   0.472   4.869  11.941
32709W        W91970  20.035  39.060   9.986
32710W        W91971  21.525   0.385   1.399
32711W        W91972   0.351  10.643   2.773
32712W        W91973  26.594   6.306   1.347
32713W        W91974  35.859   7.224  14.844
32714W        W91975  31.456  42.448   4.171
32715W        W91976  33.041  43.469   3.285
32716W        W91977   9.694  24.166  13.985
32717W        W91978  40.018  23.179  14.870
32718W        W91979  19.578   1.365  12.950
32719W        W91980  17.087  16.143  14.962
32720W        W91981  35.893  11.738   2.844
32721W        W91982   6.281  41.826   2.772
32722W        W91983  14.203  17.148   3.657
32723W        W91984   5.928  22.724  12.390
32724W        W91985   6.398  35.095  12.348
32725W        W91986  22.567  34.865   3.297
32726W        W91987  28.577  40.436  14.853
32727W        W91988  27.534  43.958  12.058
32728W        W91989  27.002  10.872   3.325
32729W        W91990  11.252  17.749   1.391
32730W        W91991  13.804  25.492   1.225
32731W        W91992  24.618  32.522   3.227
32732W        W91993   7.375  14.329  12.889
32733W        W91994  30.154  32.603   2.331
32734W        W91995   7.716  12.153  14.836
32735W        W91996   8.391  28.930  12.353
32736W        W91997   9.182  36.067  11.534
32737W        W91998  42.827  13.800   2.187
32738W        W91999  33.965   2.450   0.410
32739W        W92000   6.426  16.774  13.048
32740W        W92001  14.693   7.172  12.967
32741W        W92002  25.013  12.297   2.185
32742W        W92003  11.348   9.784  11.072
32743W        W92004   9.272  19.738   1.385
32744W        W92005   3.221  33.931  11.555
32745W        W92006   6.203   7.279  13.351
32746W        W92007  10.245   5.696   0.812
32747W        W92008   6.833   4.305  12.847
32748W        W92009  19.266  26.193  11.033
32749W        W92010   7.362  30.929   3.701
32750W        W92011   9.832   5.334   4.178
32751W        W92012  39.380  21.553  11.911
32752W        W92013  43.448  42.402   3.217
32753W        W92014  34.000  14.760   2.781
32754W        W92015  27.019  43.903  14.482
32755W        W92016  21.757  39.062   2.396
32756W        W92017  27.662  26.951   5.749
32757W        W92018  26.997  38.002   1.904
32758W        W92019  31.012  31.151  11.858
32759W        W92020   9.216  44.948  14.009
32760W        W92021  31.586  36.463   1.705
32761W        W92022  39.373  28.627   4.252
32762W        W92023  34.457  15.642   4.705
32763W        W92024  43.399  36.059   3.194
32764W        W92025  31.015   8.189   2.855
32765W        W92026  36.906  24.080   2.736
32766W        W92027  24.590  35.024   2.180
32767W        W92028  26.673  17.682   4.133
32768W        W92029  43.407  16.675  13.322
32769W        W92030   3.228  10.753   2.867
32770W        W92031  11.169   7.912  12.523
32771W        W92032   3.889  29.976   0.397
32772W        W92033   2.403  12.821   4.678
32773W        W92034   0.906  35.477   0.478
32774W        W92035  37.429  41.406  11.960
32775W        W92036  37.377  42.446  14.991
32776W        W92037  37.072  38.424  12.999
32777W        W92038  23.237  28.679   0.385
32778W        W92039  44.894  35.426   1.271
32779W        W92040   3.374  42.401   2.357
32780W        W92041  15.158  23.231   3.803
32781W        W92042   1.938  37.900  11.373
32782W        W92043  32.907  29.434  11.390
32783W        W92044  27.173   6.728   2.822
32784W        W92045  42.906  24.073  14.943
32785W        W92046  28.541  31.933  12.395
32786W        W92047  24.550  34.528   4.296
32787W        W92048  41.509  29.427   0.743
32788W        W92049   3.808   6.428   1.261
32789W        W92050  31.082  40.914   4.673
32790W        W92051   9.851   3.797  14.342
32791W        W92052   1.428  36.408  14.424
32792W        W92053  27.956  11.764   1.903
32793W        W92054  18.195   9.764   0.858
32794W        W92055  27.627   8.701   3.167
32795W        W92056  38.332  35.881   4.763
32796W        W92057  41.926  43.505   2.261
32797W        W92058  26.670  28.578   4.194
32798W        W92059  27.480  17.688   1.931
32799W        W92060   1.244   9.664  12.565
32800W        W92061  37.346  29.149  10.118
32801W        W92062   3.880  28.104  13.530
32802W        W92063  13.605  22.569  10.532
32803W        W92064   8.165  37.081  14.900
32804W        W92065  36.407  27.148  11.958
32805W        W92066  24.182   9.311   2.225
32806W        W92067  18.596  18.116  11.553
32807W        W92068  32.535   1.409   2.393
32808W        W92069  37.946  20.630  11.606
32809W        W92070  31.511  11.767  14.422
32810W        W92071  24.181  42.919  10.488
32811W        W92072  30.077  29.058   2.697
32812W        W92073   0.949   0.760   5.317
32813W        W92074  30.103  44.445   3.666
32814W        W92075  20.068  29.646   5.301
32815W        W92076  21.239  14.118  14.355
32816W        W92077  21.192   5.397  13.843
32817W        W92078  32.399  27.008   1.872
32818W        W92079  19.757   0.864   3.832
32819W        W92080  15.310  43.008   1.361
32820W        W92081  38.910  37.965   3.842
32821W        W92082  12.167  11.241  14.312
32822W        W92083   8.296  39.038   0.918
32823W        W92084  29.592   1.353  12.958
32824W        W92085  33.015   4.449   3.683
32825W        W92086  26.608  17.189   1.424
32826W        W92087  32.009  30.922   4.700
32827W        W92088  13.205  35.945  13.512
32828W        W92089   4.388  28.977   3.735
32829W        W92090  22.241  35.523  11.892
32830W        W92091   7.881  14.111  13.922
32831W        W92092  19.557  35.064  14.929
32832W        W92093   2.832  23.695  13.471
32833W        W92094   9.680  14.774   4.710
32834W        W92095  11.250   7.395  11.866
32835W        W92096  13.788   9.347   2.724
32836W        W92097  33.454  32.069   1.851
32837W        W92098  16.201  19.205   2.698
32838W        W92099  30.082  44.450  13.492
32839W        W92100  43.900  40.875  12.488
32840W        W92101  26.059  29.118   4.249
32841W        W92102  28.030   3.284   0.329
32842W        W92103   8.164  32.471   0.413
32843W        W92104  20.252   6.911  14.349
32844W        W92105   0.983  32.633   2.369
32845W        W92106  41.408  23.134   0.878
32846W        W92107  39.530  13.117  14.962
32847W        W92108  31.964  41.820  12.954
32848W        W92109   3.407  37.531   0.933
32849W        W92110  26.117   2.375   3.197
32850W        W92111  42.522  25.995   1.795
32851W        W92112  16.697  32.141   0.454
32852W        W92113  34.059  22.249  10.574
32853W        W92114  16.298  18.289  12.573
32854W        W92115  26.517  44.395  11.534
32855W        W92116  41.862   2.857  10.564
32856W        W92117  35.525  43.831   4.251
32857W        W92118  20.252  18.284   1.298
32858W        W92119  15.639  35.584   3.764
32859W        W92120  43.817   0.292  11.910
32860W        W92121   6.709  40.955  14.803
32861W        W92122  26.475  32.896  10.421
32862W        W92123  35.080  10.800   4.616
32863W        W92124  11.835   9.241   2.766
32864W        W92125   0.374   9.797   2.310
32865W        W92126  24.112  13.771  10.976
32866W        W92127  17.747  13.204   2.215
32867W        W92128  28.033  26.486  12.492
32868W        W92129  26.121  43.993   3.206
32869W        W92130  14.803  26.063   2.742
32870W        W92131  36.400  17.292   2.360
32871W        W92132   1.369  23.512   1.784
32872W        W92133  32.480  34.998  13.314
32873W        W92134   6.200  37.424  10.469
32874W        W92135   4.406  40.531  11.459
32875W        W92136  31.083  30.630  13.404
32876W        W92137  10.659  21.052   4.238
32877W        W92138   3.722  27.984  10.944
32878W        W92139  37.343  11.374  11.404
32879W        W92140  10.206   7.206   3.786
32880W        W92141  10.277  39.475  13.793
32881W        W92142  35.102   3.252   3.183
32882W        W92143  37.004  41.467  11.032
32883W        W92144  25.181  27.469  13.359
32884W        W92145   0.893  36.065  11.437
32885W        W92146  36.052  37.952  10.594
32886W        W92147  41.988  13.331   3.763
32887W        W92148   0.267  40.937   4.756
32888W        W92149  35.537  24.105   4.784
32889W        W92150  19.153  11.199   2.399
32890W        W92151  24.183   6.348  11.920
32891W        W92152  34.903  23.015  14.403
32892W        W92153  24.197  37.337   4.244
32893W        W92154  14.234  20.126  13.819
32894W        W92155  36.025  36.592  11.411
32895W        W92156  25.973  31.063   3.764
32896W        W92157   5.765  21.666   2.271
32897W        W92158  40.351  40.329   1.240
32898W        W92159   8.668  18.627   4.758
32899W        W92160   7.783  32.116   4.714
32900W        W92161  14.712  22.055  14.958
32901W        W92162  10.214  39.438   1.437
32902W        W92163  24.613  34.049   3.245
32903W        W92164  15.720   5.403   2.227
32904W        W92165  19.773   0.947  11.568
32905W        W92166  28.164  31.623  14.369
32906W        W92167  13.685  34.483   0.402
32907W        W92168  28.476   1.283   2.310
32908W        W92169  10.165  16.632  11.556
32909W        W92170   2.759   4.716   2.196
32910W        W92171  19.737  38.022   3.779
32911W        W92172  25.087  31.014  12.403
32912W        W92173   2.396  43.462   3.340
32913W        W92174   9.691  38.839   2.419
32914W        W92175  18.588  27.182  10.499
32915W        W92176  16.614  33.116   0.407
32916W        W92177  34.421  27.148  10.623
32917W        W92178   0.452  27.129   3.215
32918W        W92179  19.182   5.802  12.540
32919W        W92180   0.478  38.969   3.822
32920W        W92181  39.389  15.716   2.903
32921W        W92182  11.763  18.190   1.306
32922W        W92183  24.680  29.173  14.990
32923W        W92184  43.950   0.281   1.406
32924W        W92185  16.141  41.508  14.414
32925W        W92186  18.576   1.862  10.012
32926W        W92187  40.399  18.633   5.096
32927W        W92188  17.675  14.158   2.732
32928W        W92189  22.627  35.004   2.282
32929W        W92190  33.562  28.467   3.348
32930W        W92191  16.720   1.410   4.220
32931W        W92192  44.980  12.332   2.227
32932W        W92193  13.829  29.983   0.288
32933W        W92194  23.205  39.007  13.466
32934W        W92195   9.239  21.058   3.231
32935W        W92196   3.774  43.494   3.368
32936W        W92197  14.789  13.781   3.324
32937W        W92198  19.233  37.368   3.744
32938W        W92199  23.223   1.942   2.199
32939W        W92200  38.446  25.606  13.991
32940W        W92201   1.426  26.491  12.466
32941W        W92202   0.751  15.328  10.908
32942W        W92203   3.267  18.159  14.286
32943W        W92204  27.565  41.010   0.290
32944W        W92205  27.028   8.349   3.649
32945W        W92206  20.652   1.765   1.255
32946W        W92207  16.720  32.889  14.485
32947W        W92208  40.802  26.040   0.420
32948W        W92209   5.742  44.955  10.644
32949W        W92210  26.173  37.070   2.375
32950W        W92211   6.704  41.872  13.911
32951W        W92212  10.375  39.816   2.726
32952W        W92213  32.910  17.784   4.622
32953W        W92214  25.633  12.829  10.912
32954W        W92215  18.638  38.996  14.932
32955W        W92216  27.997   0.854  14.509
32956W        W92217   2.899  27.106   2.241
32957W        W92218  31.054  36.399   0.402
32958W        W92219  43.427   3.297  12.932
32959W        W92220  19.077  14.634  13.043
32960W        W92221  36.058   7.293  11.421
32961W        W92222  37.003  37.049   0.287
32962W        W92223  19.670  12.250   0.782
32963W        W92224  39.963  11.201  14.873
32964W        W92225  26.179  12.283  12.503
32965W        W92226  28.936  19.179  12.456
32966W        W92227  44.407  12.784   9.998
32967W        W92228   9.831  27.962   1.874
32968W        W92229   7.285   3.756   2.269
32969W        W92230  13.107  17.137  11.417
32970W        W92231  17.159  38.913   2.212
32971W        W92232  13.630  24.979   0.856
32972W        W92233   7.704  30.034   0.852
32973W        W92234  24.055  13.350  11.557
32974W        W92235  43.994  33.443   3.759
32975W        W92236  42.842  34.060  12.477
32976W        W92237  30.481  30.027  14.478
32977W        W92238   6.411   9.737   5.156
32978W        W92239  32.444  32.395  13.834
32979W        W92240   5.322  10.381  10.591
32980W        W92241  22.155  31.515   3.239
32981W        W92242  38.452  42.877  11.935
32982W        W92243  20.709  27.544  12.522
32983W        W92244  39.354  12.339  12.002
32984W        W92245  26.686  15.679   5.137
32985W        W92246  37.525  39.944  11.383
32986W        W92247  23.070  39.850  12.472
32987W        W92248  33.054  36.502   1.871
32988W        W92249  31.930  13.157   1.391
32989W        W92250  27.673  39.833   0.476
32990W        W92251  42.379   6.876   0.920
32991W        W92252  13.617  34.902  11.381
32992W        W92253  26.525  38.839  10.588
32993W        W92254  38.035   2.352   3.314
32994W        W92255  33.606  15.728  14.469
32995W        W92256   5.759   9.858   0.774
32996W        W92257  35.498  30.106   0.317
32997W        W92258  10.857  35.600   4.765
32998W        W92259  34.049  13.319  13.008
32999W        W92260  30.621  28.523  10.409
33000W        W92261  16.677  20.707  14.916
33001W        W92262  38.395  18.226   0.952
33002W        W92263  35.900  17.620   0.825
33003W        W92264  37.580  31.488   2.730
33004W        W92265  16.196  33.411   0.784
33005W        W92266  42.316  39.340   0.480
33006W        W92267  36.448   6.779  10.912
33007W        W92268  10.721  22.097   3.774
33008W        W92269  14.750  29.164   1.411
33009W        W92270  42.844  34.519   0.955
33010W        W92271  41.014  27.576   2.781
33011W        W92272   9.845   5.771   1.336
33012W        W92273  30.470   8.281  11.958
33013W        W92274   2.319  15.187  14.474
33014W        W92275  22.026   5.352   3.825
33015W        W92276  41.498  36.931   4.254
33016W        W92277  40.964  10.214   4.661
33017W        W92278   2.749   4.207  13.824
33018W        W92279   5.692  21.626  12.015
33019W        W92280  40.911  32.506   4.214
33020W        W92281  13.670  39.423   3.387
33021W        W92282  28.038  32.620  13.041
33022W        W92283  10.699  21.746   4.250
33023W        W92284   8.384  23.518   4.804
33024W        W92285  34.079  37.352   2.379
33025W        W92286  30.619  31.638   0.424
33026W        W92287  35.919  32.115   2.773
33027W        W92288  44.839  12.789   2.799
33028W        W92289  25.613  25.997  12.359
33029W        W92290  33.599  34.476   4.237
33030W        W92291  23.506  36.989   0.404
33031W        W92292  15.215  33.083   3.763
33032W        W92293  40.314  31.083  10.496
33033W        W92294   4.905   2.305   2.900
33034W        W92295   7.338   5.841   2.891
33035W        W92296  27.493  10.771   2.371
33036W        W92297  12.202  25.706   0.307
33037W        W92298  31.009  40.495  14.354
33038W        W92299   8.863  14.156   0.446
33039W        W92300  25.574  24.586  10.952
33040W        W92301  30.095   4.342  10.592
33041W        W92302   7.204  39.912   2.748
33042W        W92303  21.031  26.008   2.903
33043W        W92304  18.157  31.928   3.371
33044W        W92305  36.963   5.244  12.981
33045W        W92306  25.000  19.552   3.683
33046W        W92307  16.291   8.886   2.264
33047W        W92308  34.034  36.081   3.650
33048W        W92309  21.745   7.319  14.315
33049W        W92310  43.908  27.568   3.190
33050W        W92311   6.910  33.606  14.019
33051W        W92312  26.983  13.617  13.846
33052W        W92313   7.777  16.605   4.808
33053W        W92314   9.852  39.464  13.835
33054W        W92315  28.479  18.555  14.465
33055W        W92316   7.377   5.837  11.477
33056W        W92317  22.125  36.899   4.752
33057W        W92318  42.441  32.544   3.300
33058W        W92319  22.112  38.402  13.392
33059W        W92320  13.690   4.242  14.302
33060W        W92321  20.740   5.294   1.443
33061W        W92322  43.503  10.640  13.801
33062W        W92323  29.005  12.620   2.841
33063W        W92324  18.570  10.244   1.345
33064W        W92325   6.278  15.183   0.941
33065W        W92326  37.392   6.420   4.321
33066W        W92327  29.922  17.563   3.170
33067W        W92328  37.043   0.941   2.739
33068W        W92329  31.405  27.537  12.035
33069W        W92330  43.955  39.330   1.840
33070W        W92331  40.933  43.888   4.816
33071W        W92332  28.160  39.383   1.395
33072W        W92333  21.155  41.912  11.479
33073W        W92334  19.169  27.018  10.580
33074W        W92335  34.950  33.971  10.953
33075W        W92336  31.510  39.384  13.024
33076W        W92337  40.964   9.351   0.784
33077W        W92338   4.264   7.732  13.312
33078W        W92339  18.216  24.521   1.277
33079W        W92340  34.465  15.742  11.473
33080W        W92341   5.284  14.629  11.980
33081W        W92342  14.315  20.661  10.502
33082W        W92343  33.624   9.889  14.402
33083W        W92344  29.162  31.927   3.260
33084W        W92345   2.255   2.312   3.823
33085W        W92346  10.776  28.990  12.365
33086W        W92347  39.008   4.760   5.083
33087W        W92348  11.816  38.938   3.368
33088W        W92349  38.874  44.300   5.155
33089W        W92350   6.724  28.971  14.339
33090W        W92351  29.668   8.365  12.363
33091W        W92352  25.211  12.694  12.546
33092W        W92353  15.636  19.085   3.173
33093W        W92354  43.281  13.346   3.866
33094W        W92355  28.138  37.063   4.250
33095W        W92356   1.860   2.822  12.994
33096W        W92357  36.862  17.097   2.247
33097W        W92358  32.516  16.100   2.291
33098W        W92359   5.926  21.708   4.236
33099W        W92360  19.697  29.062  11.453
33100W        W92361  19.685  42.835  12.024
33101W        W92362  32.637   8.230  10.613
33102W        W92363  28.612  35.879   4.630
33103W        W92364  24.508   1.879   2.691
33104W        W92365  11.637  36.532  13.391
33105W        W92366  12.850  34.073   0.945
33106W        W92367   0.403  27.471   2.322
33107W        W92368  44.266  15.163   2.297
33108W        W92369   5.737  38.913  12.855
33109W        W92370  28.181  34.570  14.762
33110W        W92371  12.658  31.146   4.165
33111W        W92372   7.675  25.115  12.484
33112W        W92373  30.471  38.843  11.388
33113W        W92374  27.007  25.688  12.467
33114W        W92375  13.135  44.485   0.329
33115W        W92376  26.576   3.725   4.807
33116W        W92377  11.233  10.682   1.418
33117W        W92378  40.361  23.017  14.444
33118W        W92379  35.390  23.618  10.944
33119W        W92380  24.192  23.091  11.113
33120W        W92381  19.157   7.209   1.712
33121W        W92382   4.724   3.931   1.297
33122W        W92383  42.936   5.710  10.455
33123W        W92384  11.823   8.660  14.960
33124W        W92385  22.237  29.032  13.939
33125W        W92386  32.070  43.336  13.407
33126W        W92387  37.384  12.158   2.393
33127W        W92388  25.041  42.374   0.808
33128W        W92389  28.638  31.565   3.364
33129W        W92390  17.181  39.379   1.913
33130W        W92391   5.224  19.636   3.813
33131W        W92392  25.649   9.395   0.807
33132W        W92393  29.988  39.963  13.367
33133W        W92394  22.561  16.803  11.944
33134W        W92395  35.947  19.283   3.229
33135W        W92396  35.977  37.426   1.301
33136W        W92397  30.992  15.823  14.498
33137W        W92398  35.103   7.815  13.475
33138W        W92399  36.416  21.122  13.943
33139W        W92400  16.091  28.008  12.467
33140W        W92401  44.879  16.160   0.815
33141W        W92402   6.858  11.743  10.892
33142W        W92403  10.298  12.775  14.862
33143W        W92404  21.180  39.443  10.444
33144W        W92405  39.503   4.325  12.382
33145W        W92406  19.162  32.985   2.411
33146W        W92407  29.508   3.399  12.852
33147W        W92408  18.590  33.087  14.375
33148W        W92409  27.088   5.790  12.340
33149W        W92410  11.657   9.830   0.888
33150W        W92411  44.976  44.293   1.358
33151W        W92412  16.568  22.526   3.293
33152W        W92413   9.693  26.551   3.865
33153W        W92414  28.114   4.258  11.592
33154W        W92415  41.416  41.883   5.274
33155W        W92416  23.196  33.997  14.350
33156W        W92417  21.034  28.158   9.933
33157W        W92418  36.477   0.848   0.945
33158W        W92419   0.848   2.776   3.183
33159W        W92420  35.921  20.163   2.383
33160W        W92421  23.667  12.130   4.694
33161W        W92422  40.888  43.779  14.486
33162W        W92423  10.335  11.222   0.305
33163W        W92424  24.602  33.983   3.832
33164W        W92425   1.385  32.535   0.395
33165W        W92426  13.768  35.878   1.345
33166W        W92427  21.523  43.845   0.729
33167W        W92428  43.984  42.900  12.409
33168W        W92429   0.830  43.842   2.785
33169W        W92430   1.331  11.366   0.353
33170W        W92431  34.529  33.576   1.886
33171W        W92432  32.073  38.058  12.014
33172W        W92433  40.341  31.441  12.985
33173W        W92434  23.189  42.384  12.017
33174W        W92435  29.530  26.696   0.862
33175W        W92436   5.215  39.335  13.427
33176W        W92437  20.086  10.223  12.345
33177W        W92438   7.184  37.971  11.974
33178W        W92439  34.049  20.165   2.405
33179W        W92440  18.745  20.207   5.109
33180W        W92441  35.359  16.657  14.957
33181W        W92442  22.665  35.918  11.860
33182W        W92443  23.550   7.241   0.388
33183W        W92444  42.878  11.193  12.890
33184W        W92445   4.248   1.932   1.720
33185W        W92446   5.830  32.916   3.173
33186W        W92447  13.148  15.266  12.443
33187W        W92448   7.407   7.736   4.694
33188W        W92449  10.730  37.527   2.755
33189W        W92450   3.778  30.035  13.057
33190W        W92451  28.498   2.792   4.601
33191W        W92452  39.849  35.520   9.968
33192W        W92453  22.578  40.888   0.288
33193W        W92454  42.879  41.310   4.158
33194W        W92455  30.014  33.398   4.279
33195W        W92456  44.286   4.888  11.909
33196W        W92457   9.275   3.765  14.499
33197W        W92458  18.778  19.672  10.569
33198W        W92459  25.482   9.375   4.337
33199W        W92460   9.832  23.666  11.512
33200W        W92461  24.164  42.508   1.772
33201W        W92462  41.438  40.385   0.289
33202W        W92463  40.359  12.200  13.852
33203W        W92464   7.790  41.497   2.288
33204W        W92465  21.084  33.507  13.439
33205W        W92466   1.974  28.064   1.260
33206W        W92467  43.975  41.822  11.058
33207W        W92468  11.651  31.993  14.949
33208W        W92469  34.601  32.133   5.218
33209W        W92470  39.522  37.899   5.133
33210W        W92471   5.429  17.639   1.217
33211W        W92472  18.184  37.073   3.815
33212W        W92473  34.082   6.922  12.379
33213W        W92474  12.668   2.341  10.413
33214W        W92475   9.231  27.100  13.931
33215W        W92476  34.044  11.136   2.884
33216W        W92477  44.407  23.113  13.471
33217W        W92478  31.007  13.281  11.420
33218W        W92479  14.239  31.958   2.719
33219W        W92480   8.252  18.172  10.605
33220W        W92481  23.074  13.130   0.919
33221W        W92482  20.629   9.249   0.836
33222W        W92483  41.299  35.360   9.548
33223W        W92484  19.588  34.408   4.284
33224W        W92485  15.120  25.605  10.929
33225W        W92486  15.634  25.550  14.787
33226W        W92487  20.725  20.057   3.799
33227W        W92488   5.211  19.735  12.090
33228W        W92489  10.765  39.992  10.409
33229W        W92490  36.876   6.350  14.474
33230W        W92491  19.652  19.280   2.775
33231W        W92492   8.729  38.472  12.346
33232W        W92493   8.374  21.691  13.816
33233W        W92494   9.841  36.013  11.945
33234W        W92495  14.745  16.681   2.182
33235W        W92496   2.832  14.631   0.950
33236W        W92497  19.554  37.370   3.663
33237W        W92498  44.420   1.382   3.347
33238W        W92499  30.525  25.709   4.115
33239W        W92500   4.358  18.276  14.373
33240W        W92501  19.654  32.101  13.345
33241W        W92502  40.502  29.545   3.772
33242W        W92503   9.866  23.715  14.833
33243W        W92504  10.810  11.790   0.330
33244W        W92505  43.412  12.842  11.865
33245W        W92506   4.895  32.550   3.642
33246W        W92507  34.894  41.797   1.250
33247W        W92508  43.298  20.652   3.829
33248W        W92509  36.375   8.759   0.244
33249W        W92510  23.043  42.948  10.583
33250W        W92511  26.634  31.608   0.281
33251W        W92512  21.530   3.292  14.501
33252W        W92513   2.820  19.724   2.258
33253W        W92514  21.200  38.945   0.945
33254W        W92515  28.510   0.934   0.462
33255W        W92516   2.797  13.169   1.757
33256W        W92517   4.709  25.170  14.839
33257W        W92518  29.632  14.593  13.426
33258W        W92519  42.306  28.070  11.887
33259W        W92520  28.042   2.912   3.307
33260W        W92521  14.257  44.388   0.464
33261W        W92522  28.475   8.815   5.189
33262W        W92523  29.038  29.168  10.483
33263W        W92524   5.918  30.464  13.409
33264W        W92525   7.889  27.139  11.904
33265W        W92526  33.051  23.674   4.344
33266W        W92527  37.006  41.937   2.771
33267W        W92528  25.582  40.045  13.514
33268W        W92529   1.377  28.668   1.776
33269W        W92530   5.267  32.514  12.884
33270W        W92531  34.514  31.422  12.452
33271W        W92532  44.772  38.988   3.260
33272W        W92533   6.232  17.213   3.365
33273W        W92534   7.387   9.663   3.357
33274W        W92535  14.780  41.007  11.085
33275W        W92536  10.177  33.553  13.516
33276W        W92537  10.713  42.485   0.300
33277W        W92538   7.672  17.189  12.869
33278W        W92539  39.479  14.787   3.687
33279W        W92540  16.695  29.145   2.355
33280W        W92541  32.952   8.704   4.723
33281W        W92542  34.962  35.047   0.273
33282W        W92543  31.153  22.741   3.667
33283W        W92544  39.501   7.692   1.831
33284W        W92545  31.126   5.327   2.338
33285W        W92546   2.859   1.891  12.447
33286W        W92547  25.188  37.009  14.903
33287W        W92548  33.130  16.304   2.311
33288W        W92549  23.621  23.217   4.817
33289W        W92550  39.335   4.371   0.829
33290W        W92551  31.436  28.136   1.358
33291W        W92552   6.818  21.096   0.889
33292W        W92553  15.089  21.540   4.804
33293W        W92554  27.615  41.461  14.325
33294W        W92555  35.409  27.051   0.334
33295W        W92556  25.039  26.656   1.731
33296W        W92557  35.994  12.243   4.148
33297W        W92558  22.239  15.670  14.929
33298W        W92559   8.303   2.745  14.388
33299W        W92560  44.773   4.872   2.271
33300W        W92561  38.943  19.691  10.059
33301W        W92562  11.255  21.708  11.039
33302W        W92563  33.109   2.815   0.444
33303W        W92564  34.975   8.664   1.902
33304W        W92565  36.966   4.262   2.330
33305W        W92566   1.245  13.644   4.290
33306W        W92567  20.610   5.695  11.389
33307W        W92568  19.713  10.260  13.978
33308W        W92569  31.642  33.955   1.839
33309W        W92570  33.493  17.115  13.475
33310W        W92571  27.196  40.535  14.376
33311W        W92572   1.307  15.170   2.259
33312W        W92573  18.085  12.648  14.806
33313W        W92574   7.752   4.287  12.040
33314W        W92575   8.797  42.832   0.409
33315W        W92576  21.175   2.470   4.215
33316W        W92577  26.207  35.582   2.761
33317W        W92578  19.222  36.467   4.147
33318W        W92579  30.495  42.920  12.012
33319W        W92580  39.345   4.781   4.783
33320W        W92581  23.564  14.758  12.842
33321W        W92582  30.466  27.505  11.493
33322W        W92583  16.271  41.319  12.964
33323W        W92584   9.888  18.194   1.927
33324W        W92585  16.151  34.475  11.387
33325W        W92586  18.642  15.184   3.363
33326W        W92587   4.366  14.199   1.755
33327W        W92588  12.139  22.620   1.216
33328W        W92589   5.320   2.921   1.377
33329W        W92590  40.038  13.734  10.924
33330W        W92591  26.982   4.340  13.057
33331W        W92592  34.422  40.912  11.987
33332W        W92593  16.794  12.646   2.674
33333W        W92594  24.580  17.219   4.775
33334W        W92595   7.395  14.751   3.682
33335W        W92596   2.940   8.778   1.330
33336W        W92597  19.535  15.659  12.044
33337W        W92598   9.166  13.694   1.312
33338W        W92599  34.389  32.044   0.251
33339W        W92600  12.810  35.106  13.891
33340W        W92601   1.394  20.687  13.538
33341W        W92602  36.089   2.950  11.996
33342W        W92603  21.734  29.076  11.373
33343W        W92604  22.560   9.662  10.408
33344W        W92605   3.783  33.976   1.446
33345W        W92606  22.506   7.763  12.341
33346W        W92607  20.527  18.663   3.228
33347W        W92608  10.322  12.757   9.622
33348W        W92609  18.712  21.049  14.016
33349W        W92610  10.335   4.809  11.955
33350W        W92611  18.246  32.396   1.240
33351W        W92612  36.080  15.730  10.903
33352W        W92613  38.558  11.182   3.633
33353W        W92614  32.140   7.877  10.515
33354W        W92615  43.854  27.096   3.754
33355W        W92616  13.244  10.708  13.399
33356W        W92617  18.694  21.070   1.297
33357W        W92618   8.331  40.378  13.929
33358W        W92619  11.638  16.247  14.983
33359W        W92620  23.499  36.366   2.234
33360W        W92621  41.372  27.959   2.215
33361W        W92622   2.309  14.670  14.957
33362W        W92623   5.282  26.616   4.150
33363W        W92624  25.702  28.554  14.993
33364W        W92625  29.535   1.954   2.288
33365W        W92626  43.967  36.487   4.636
33366W        W92627  36.079  25.076   2.866
33367W        W92628   4.304  42.954  10.593
33368W        W92629  17.591  25.157   4.142
33369W        W92630  18.695   0.836  14.337
33370W        W92631  32.495  25.024   2.899
33371W        W92632  36.425  12.667   3.190
33372W        W92633  38.958   3.349   1.921
33373W        W92634  18.781   5.813  14.832
33374W        W92635  17.140  23.523  12.086
33375W        W92636  30.042   5.234  11.890
33376W        W92637  28.080  32.134   2.890
33377W        W92638  42.367  27.499   2.880
33378W        W92639  41.372   2.411   3.723
33379W        W92640  38.368  37.549   3.336
33380W        W92641  27.137  36.900  12.064
33381W        W92642   5.316  39.454   3.176
33382W        W92643  41.915  38.488  12.065
33383W        W92644  40.005  13.218   3.372
33384W        W92645  44.779   2.882   0.729
33385W        W92646   6.284  16.199   0.439
33386W        W92647   9.832  38.938  10.984
33387W        W92648  10.159  10.181  10.516
33388W        W92649  26.519  31.521   2.816
33389W        W92650  31.024  29.085  13.330
33390W        W92651  40.036  14.613  11.913
33391W        W92652   2.342  24.633   0.265
33392W        W92653  38.901   3.361   3.275
33393W        W92654  20.259  23.136   0.300
33394W        W92655  33.031  33.070  13.821
33395W        W92656  28.471  10.725  13.525
33396W        W92657  17.076   0.484  14.419
33397W        W92658  40.410  39.851  14.494
33398W        W92659  32.595  42.450  14.946
33399W        W92660  31.034  13.215   1.316
33400W        W92661  14.653   9.725  13.016
33401W        W92662   6.841  37.426   1.299
33402W        W92663   2.293  13.226  14.942
33403W        W92664  28.977  14.260   9.969
33404W        W92665  34.074  14.196   3.671
33405W        W92666  12.753   5.295  12.920
33406W        W92667   2.457   7.906   0.849
33407W        W92668  43.347  16.800  12.852
33408W        W92669  41.933  42.445  13.442
33409W        W92670   4.437  13.245  13.825
33410W        W92671   8.788  39.914   0.793
33411W        W92672  38.407  37.926  13.040
33412W        W92673   6.848  23.038  10.613
33413W        W92674  36.568   2.349  13.822
33414W        W92675   9.767  38.394  10.486
33415W        W92676  16.148  12.740   9.920
33416W        W92677   6.319   6.292  10.888
33417W        W92678  39.911  40.900  10.973
33418W        W92679   7.275   8.883  13.494
33419W        W92680  40.875  43.856   4.224
33420W        W92681  34.068  36.905   5.597
33421W        W92682  20.547  28.088  13.336
33422W        W92683  30.496   7.752   1.739
33423W        W92684  18.280   0.931   2.683
33424W        W92685  40.885  10.701  11.984
33425W        W92686  29.629  25.469   1.861
33426W        W92687   1.934  36.433  10.585
33427W        W92688  41.407  39.899   1.245
33428W        W92689  40.484  20.156  10.628
33429W        W92690  12.322  44.360   1.715
33430W        W92691  27.007  36.439   5.254
33431W        W92692  25.075  39.816   2.781
33432W        W92693  35.098  44.800   0.392
33433W        W92694  27.966  19.617   0.927
33434W        W92695   6.218  31.648   3.691
33435W        W92696  41.349   3.773  10.620
33436W        W92697  42.960  21.703   1.930
33437W        W92698   2.255  39.955  12.038
33438W        W92699  41.443  32.027  12.976
33439W        W92700  34.960  19.150  11.084
33440W        W92701  21.646  26.182   4.120
33441W        W92702  10.713  26.002  14.313
33442W        W92703   6.329  26.585   4.170
33443W        W92704  22.249  11.303   2.740
33444W        W92705  38.489  36.983   4.764
33445W        W92706  16.158  40.992   0.332
33446W        W92707  10.301  27.171  11.393
33447W        W92708  33.966  37.552   1.695
33448W        W92709   2.234  24.026   4.115
33449W        W92710   1.239  38.068  14.941
33450W        W92711  27.979  20.098  14.028
33451W        W92712  21.712   3.259  12.023
33452W        W92713   4.877   6.831   2.206
33453W        W92714  20.685  42.453  12.992
33454W        W92715  11.257  14.214   0.933
33455W        W92716   8.750  43.417  12.457
33456W        W92717  32.417  41.410   0.381
33457W        W92718   1.289  34.388  14.441
33458W        W92719  25.624   7.401   2.242
33459W        W92720   1.329   3.452   2.358
33460W        W92721   6.685  31.581  14.434
33461W        W92722  39.515   4.931  11.115
33462W        W92723  36.439  10.728  14.964
33463W        W92724   2.966  44.390   2.885
33464W        W92725  39.453  13.610  14.375
33465W        W92726  21.714   4.376  14.936
33466W        W92727  21.702  11.241   1.782
33467W        W92728  42.954   0.338   2.719
33468W        W92729  10.138  25.973   2.756
33469W        W92730  36.870  29.515  10.960
33470W        W92731  17.698  12.344   1.442
33471W        W92732  10.284  19.090  14.775
33472W        W92733  44.445  36.584  12.018
33473W        W92734  19.727  28.480  11.988
33474W        W92735   8.749  28.960  10.478
33475W        W92736   6.783  37.854   1.376
33476W        W92737  19.161  24.220   4.714
33477W        W92738  34.921  20.039  11.862
33478W        W92739   1.748  42.849   5.151
33479W        W92740   9.365  34.988  12.973
33480W        W92741  41.821  16.144  14.277
33481W        W92742  16.114  43.944   4.698
33482W        W92743   4.368  15.241  12.051
33483W        W92744  20.722  35.509  12.861
33484W        W92745  25.981  23.133  13.516
33485W        W92746  22.236   8.896   3.713
33486W        W92747  43.878  37.891  11.107
33487W        W92748  16.630  40.908   3.676
33488W        W92749  32.960   9.655   4.668
33489W        W92750  39.930  23.547  13.380
33490W        W92751  19.205  14.761   3.324
33491W        W92752  22.080  18.288   0.917
33492W        W92753   8.203  21.645   0.798
33493W        W92754  44.858   9.759   4.809
33494W        W92755  32.942  31.985  10.429
33495W        W92756  31.109  31.443  11.867
33496W        W92757  16.682  17.305   1.833
33497W        W92758   4.222  18.144   2.239
33498W        W92759   6.188   2.454  11.906
33499W        W92760   2.926  43.439  10.899
33500W        W92761   5.698   2.789   2.668
33501W        W92762  19.277   6.868   3.204
33502W        W92763   2.778  16.295  11.060
33503W        W92764  20.638  30.024   2.821
33504W        W92765  16.131  26.049   4.178
33505W        W92766  25.471   0.446  13.046
33506W        W92767  24.598   0.836   0.332
33507W        W92768  13.121   0.296  10.115
33508W        W92769  38.905  26.595  11.465
33509W        W92770   7.803  13.173   3.702
33510W        W92771   3.882  33.053   0.351
33511W        W92772   7.685   5.896  13.398
33512W        W92773  35.380   9.211   2.696
33513W        W92774  14.189   5.293   4.194
33514W        W92775  26.001  36.945   1.292
33515W        W92776   8.295  22.173  10.524
33516W        W92777  15.138  24.680  12.549
33517W        W92778  28.082  10.185  11.575
33518W        W92779  30.073  22.073   1.724
33519W        W92780  29.028  37.037   5.644
33520W        W92781   3.755  12.787  14.960
33521W        W92782  42.524  32.125   5.143
33522W        W92783   8.227   0.406   3.284
33523W        W92784  16.669   4.259  12.954
33524W        W92785  17.144  39.341   4.795
33525W        W92786  41.433   9.818   2.292
33526W        W92787  32.044   4.851  11.046
33527W        W92788  29.112  15.269   1.738
33528W        W92789  40.841  36.014  11.123
33529W        W92790  25.514  37.087  12.844
33530W        W92791   1.311  40.010   1.437
33531W        W92792  27.652  22.048   1.392
33532W        W92793  44.876  41.360   2.395
33533W        W92794   4.312   5.828   2.284
33534W        W92795  12.326  19.246   4.126
33535W        W92796  16.210  44.794  12.918
33536W        W92797  43.856   6.315   1.436
33537W        W92798  33.414  43.014   4.658
33538W        W92799  24.222  26.551   4.828
33539W        W92800  43.806  13.277  13.403
33540W        W92801  42.015  10.795   3.175
33541W        W92802  23.100  43.877   0.759
33542W        W92803  16.128  37.567   2.345
33543W        W92804  33.508  19.221  11.560
33544W        W92805  18.717  24.048  10.486
33545W        W92806  43.279  19.094  14.917
33546W        W92807  37.476   0.970   1.273
33547W        W92808  16.221  42.997  12.064
33548W        W92809   2.243  28.524  14.799
33549W        W92810   8.701  24.537   2.248
33550W        W92811  32.957  22.612   0.384
33551W        W92812  27.450  18.632   2.378
33552W        W92813   4.762  21.632  14.370
33553W        W92814   9.388  38.560   2.766
33554W        W92815  43.018  38.931  12.089
33555W        W92816   7.184   2.284  14.294
33556W        W92817  21.246  36.029   0.365
33557W        W92818  29.923  37.054   0.372
33558W        W92819  33.433  41.835  11.901
33559W        W92820  31.444  23.510   0.803
33560W        W92821  24.170  16.782   0.342
33561W        W92822  42.285  10.850  14.403
33562W        W92823  39.884  17.604  10.471
33563W        W92824  13.837   4.734   1.930
33564W        W92825  21.256  15.620   1.926
33565W        W92826  13.345  29.593  13.528
33566W        W92827  42.916  11.843   4.675
33567W        W92828   0.370  20.718   2.332
33568W        W92829  30.058  39.368   0.964
33569W        W92830  40.500  17.702  11.920
33570W        W92831  32.637  29.445   2.281
33571W        W92832  31.082  27.514   2.785
33572W        W92833  13.670   6.270   4.790
33573W        W92834  12.306  16.726  11.611
33574W        W92835  22.165  26.525  13.988
33575W        W92836   1.396  26.989  11.091
33576W        W92837  25.659  43.791   2.783
33577W        W92838  33.925  30.557  14.846
33578W        W92839  44.305  21.535  13.040
33579W        W92840  14.686   0.873   1.418
33580W        W92841   7.212  29.561   4.255
33581W        W92842  39.323  42.893  14.493
33582W        W92843  10.673  40.927  14.336
33583W        W92844  29.961  21.179   1.254
33584W        W92845  13.816  25.159  10.538
33585W        W92846  30.446  25.695  14.482
33586W        W92847  29.147  12.362   2.670
33587W        W92848  13.255  38.897  14.801
33588W        W92849  12.648  25.490   0.253
33589W        W92850  30.499  24.488   1.918
33590W        W92851   9.876  26.063  10.602
33591W        W92852  35.574  20.589   3.757
33592W        W92853   0.343  32.014  13.991
33593W        W92854  30.420  11.769  11.997
33594W        W92855  24.650  35.872  10.905
33595W        W92856  30.110  10.212  12.075
33596W        W92857  30.101  20.250   4.288
33597W        W92858  13.663   6.760   2.855
33598W        W92859  25.700  37.849  10.981
33599W        W92860  21.098  44.500   4.205
33600W        W92861  25.203  23.984   4.828
33601W        W92862   0.923  29.658  10.048
33602W        W92863  11.640  28.615  14.351
33603W        W92864   9.670  24.134   3.786
33604W        W92865  23.573   4.942   3.217
33605W        W92866  27.952  19.147   4.627
33606W        W92867  18.208  21.607  12.481
33607W        W92868  36.947   8.363   1.718
33608W        W92869  31.590  21.522   1.415
33609W        W92870  25.562  24.195   1.868
33610W        W92871  36.054  41.798   0.427
33611W        W92872  41.996  19.246   4.317
33612W        W92873  10.272  13.314  13.966
33613W        W92874   4.223  40.002   1.710
33614W        W92875  25.202  28.942  14.393
33615W        W92876  20.527  12.627  11.056
33616W        W92877  32.048  34.465  13.860
33617W        W92878  40.919  17.679  14.855
33618W        W92879  17.734  34.536  13.354
33619W        W92880   3.880  17.159  12.893
33620W        W92881  31.503   7.838   2.409
33621W        W92882  27.520  27.456   2.663
33622W        W92883  20.151  20.231  12.533
33623W        W92884  44.470  33.429  12.096
33624W        W92885   5.702   7.250  10.445
33625W        W92886  40.807  41.456  11.010
33626W        W92887   8.400  23.071   4.225
33627W        W92888  44.918  33.021  12.522
33628W        W92889  37.496  20.208   0.386
33629W        W92890  10.360   8.296   2.711
33630W        W92891  14.104  35.498   4.296
33631W        W92892  14.813  17.649   1.211
33632W        W92893  24.027   2.893   0.792
33633W        W92894  28.108  44.490  14.297
33634W        W92895  27.095  41.471   0.956
33635W        W92896  40.474   7.715  13.448
33636W        W92897  11.338   3.368  11.396
33637W        W92898  31.002  30.442  12.085
33638W        W92899  34.930  24.987   1.440
33639W        W92900  41.943   7.224  13.467
33640W        W92901  30.642  23.182  12.074
33641W        W92902  18.130  21.251   2.183
33642W        W92903   4.228  27.488  12.945
33643W        W92904   1.744  21.682  14.490
33644W        W92905  21.601   2.829   1.895
33645W        W92906   7.912  14.239  14.311
33646W        W92907   4.255  10.770   3.275
33647W        W92908  33.897  29.655   4.222
33648W        W92909  41.793  35.976   1.733
33649W        W92910  14.108  13.605  12.464
33650W        W92911  19.180  27.568   2.369
33651W        W92912  20.623  41.031  11.894
33652W        W92913  22.185  26.118  12.558
33653W        W92914  33.582   1.972   1.836
33654W        W92915  21.022  21.654  14.275
33655W        W92916  18.050  16.128   2.204
33656W        W92917   4.224   1.737   0.888
33657W        W92918   3.746  43.464   3.831
33658W        W92919  24.635   9.834  13.795
33659W        W92920  22.539  40.454   5.210
33660W        W92921  19.683   5.268   4.184
33661W        W92922  24.567  23.510   3.853
33662W        W92923  15.623  43.935  11.989
33663W        W92924  30.555  20.193  14.816
33664W        W92925  39.053  31.990  12.986
33665W        W92926  18.123   6.378  14.869
33666W        W92927  26.039  20.729   3.203
33667W        W92928   6.395  23.112   2.255
33668W        W92929  13.638  13.809  13.531
33669W        W92930  17.558  39.904  13.969
33670W        W92931  17.292  38.024  11.129
33671W        W92932  24.159   5.252   0.742
33672W        W92933  31.542   2.404   0.799
33673W        W92934   9.179   0.979  14.361
33674W        W92935  38.967  39.415   0.422
33675W        W92936   9.371  17.118  13.479
33676W        W92937  17.280  31.588   2.769
33677W        W92938  19.615   9.187   2.829
33678W        W92939  33.561  14.773   1.325
33679W        W92940  20.139  42.982  12.849
33680W        W92941   7.727  12.778  13.408
33681W        W92942  29.484  29.994  14.019
33682W        W92943  41.962   3.444  14.303
33683W        W92944  25.496  33.063  11.003
33684W        W92945  18.160  43.879  14.976
33685W        W92946  37.374  18.573   2.665
33686W        W92947   8.819   2.818   1.815
33687W        W92948  24.506  21.157  14.779
33688W        W92949  39.003   3.839   0.829
33689W        W92950   9.190   7.778  14.951
33690W        W92951  31.522  16.205   4.792
33691W        W92952  41.813  13.620  12.047
33692W        W92953  14.104  22.160   1.906
33693W        W92954  20.754  18.149  14.830
33694W        W92955  27.684  44.895   2.874
33695W        W92956  37.056  23.637   3.695
33696W        W92957   8.315  43.429  13.867
33697W        W92958  15.306  13.615   0.885
33698W        W92959  21.553  36.464   1.712
33699W        W92960  12.636  37.083  11.465
33700W        W92961  22.673  27.106   4.174
33701W        W92962   8.292  13.700   3.180
33702W        W92963   1.324   7.196  12.058
33703W        W92964  20.124   6.230   9.922
33704W        W92965  17.588  11.745   0.363
33705W        W92966  44.934  30.572   1.239
33706W        W92967  23.159   0.341   2.302
33707W        W92968   8.828  20.067   4.721
33708W        W92969  14.112  12.813   1.890
33709W        W92970   5.788   1.966  11.976
33710W        W92971  25.679  38.357   1.898
33711W        W92972  23.236   1.904  13.338
33712W        W92973  44.416  36.391   2.291
33713W        W92974  20.642  16.118  11.531
33714W        W92975   6.918   3.310  11.973
33715W        W92976  39.863   1.755   4.661
33716W        W92977  31.441  10.811  13.978
33717W        W92978   1.914  43.863   0.947
33718W        W92979  13.226  12.152  11.427
33719W        W92980  10.294   4.212   3.186
33720W        W92981  32.888  31.405  11.114
33721W        W92982  19.060  13.808   0.366
33722W        W92983  22.185  32.395   1.401
33723W        W92984  14.245  35.481  12.485
33724W        W92985  17.105   0.826  14.011
33725W        W92986  19.151  42.414  13.400
33726W        W92987  27.013   6.291  14.277
33727W        W92988   4.330  25.014  11.970
33728W        W92989  29.980  18.271   3.766
33729W        W92990  40.395  16.695  11.911
33730W        W92991  24.137  27.002   9.533
33731W        W92992  19.658  25.601  11.026
33732W        W92993  30.024  14.645   4.200
33733W        W92994  13.285  18.734   3.673
33734W        W92995  19.653  10.816   0.782
33735W        W92996  34.034  21.656  13.458
33736W        W92997  22.560  10.867  11.970
33737W        W92998  31.518  44.312   0.884
33738W        W92999  13.285  37.580  12.859
33739W        W93000  41.837  31.593  10.978
33740W        W93001  28.963  13.803  13.890
33741W        W93002  38.845  19.727  11.510
33742W        W93003  23.657  28.080   4.237
33743W        W93004  35.014  44.397   2.401
33744W        W93005   4.803  37.405  10.562
33745W        W93006  10.705   8.782  11.511
33746W        W93007  28.141   2.803  14.384
33747W        W93008   9.873  11.162   3.825
33748W        W93009   8.405  19.764  12.931
33749W        W93010  20.629  42.464  14.851
33750W        W93011  32.413  17.568   2.693
33751W        W93012  42.908  40.417   1.431
33752W        W93013  30.095  14.799   1.930
33753W        W93014   2.883  31.143  10.450
33754W        W93015  28.523   6.717  12.518
33755W        W93016  11.842  23.652  11.926
33756W        W93017  14.293  39.917   4.814
33757W        W93018  42.803  33.997  14.932
33758W        W93019  34.879  22.709  13.806
33759W        W93020  11.655  26.690   2.261
33760W        W93021   2.904  31.920  14.842
33761W        W93022  27.193  37.923  12.372
33762W        W93023  19.142  44.501   2.776
33763W        W93024  12.116  20.063  10.421
33764W        W93025   4.707   5.345  11.082
33765W        W93026  37.535   9.681   3.810
33766W        W93027  27.119   3.238  12.052
33767W        W93028  18.661   0.775  11.989
33768W        W93029  39.403   7.826  11.968
33769W        W93030  13.166   2.733   4.340
33770W        W93031  17.562  15.683  11.070
33771W        W93032  20.125  17.170  10.021
33772W        W93033   1.464  13.335  12.882
33773W        W93034   5.337  24.631   2.381
33774W        W93035  43.389  29.964   3.642
33775W        W93036  15.111  39.434   4.780
33776W        W93037  16.674  14.218   2.186
33777W        W93038  21.106  10.821  12.895
33778W        W93039  40.515  33.972  13.540
33779W        W93040   6.823  26.143  11.001
33780W        W93041  41.874  14.766   2.418
33781W        W93042  38.361  44.866  11.586
33782W        W93043  11.129  38.399  10.472
33783W        W93044  27.647  28.163  10.028
33784W        W93045  44.008  30.980   3.256
33785W        W93046  16.269  26.623  11.467
33786W        W93047  15.584  18.660  13.976
33787W        W93048  10.826  12.801   0.951
33788W        W93049  26.108  36.090  11.609
33789W        W93050  22.078  20.664  11.978
33790W        W93051  43.296   5.701  14.825
33791W        W93052  34.586  10.839  12.473
33792W        W93053   7.311  16.264   3.307
33793W        W93054   0.925  20.119   0.369
33794W        W93055  26.131  39.938  14.369
33795W        W93056   8.710   3.753   5.242
33796W        W93057  11.315  13.697  14.000
33797W        W93058  34.388  18.651  14.315
33798W        W93059  44.419  13.726   0.361
33799W        W93060  42.484  20.683  14.465
33800W        W93061  35.974  23.561  14.895
33801W        W93062  44.296   1.860   4.815
33802W        W93063  10.209   2.283   0.879
33803W        W93064  19.688  20.670  10.969
33804W        W93065   4.900  35.411  13.928
33805W        W93066  21.166  22.556  12.000
33806W        W93067  11.191  35.065   3.269
33807W        W93068  41.853   7.269   4.741
33808W        W93069   8.846  12.695  10.510
33809W        W93070   6.784  29.552   2.725
33810W        W93071   6.891  20.220  11.014
33811W        W93072  18.709  10.647  12.858
33812W        W93073   8.228  33.449   0.929
33813W        W93074  35.945  26.022  10.581
33814W        W93075  35.930  19.769   0.437
33815W        W93076  18.100   1.955   4.707
33816W        W93077  12.838   0.761   0.753
33817W        W93078   2.464  19.186  14.449
33818W        W93079  39.009  19.165  11.949
33819W        W93080  42.795   9.301  10.908
33820W        W93081  30.512   4.309  13.879
33821W        W93082  16.627   7.395   0.366
33822W        W93083   1.446  43.340  12.385
33823W        W93084   0.921   4.862   1.303
33824W        W93085  29.120  12.721  12.044
33825W        W93086  38.467  24.660  13.441
33826W        W93087  34.399   2.230  13.900
33827W        W93088  44.399  23.669   1.926
33828W        W93089  35.506  12.629   4.672
33829W        W93090   0.319  20.055   2.238
33830W        W93091   0.491  42.509  11.000
33831W        W93092  37.029   1.889   3.707
33832W        W93093   0.346  36.447  12.987
33833W        W93094  34.474  38.823   3.860
33834W        W93095  17.286  30.623  13.379
33835W        W93096  20.182  33.910   2.730
33836W        W93097  37.056  11.183   0.941
33837W        W93098  18.758  14.185   4.143
33838W        W93099  33.030  26.005   2.347
33839W        W93100  11.202  36.432  13.906
33840W        W93101   8.783  11.130   0.854
33841W        W93102  27.453  35.390   4.833
33842W        W93103   7.265  28.558  12.531
33843W        W93104  12.712  29.466  10.996
33844W        W93105   3.391  42.015   5.292
33845W        W93106  36.931  20.151   1.926
33846W        W93107   9.854   1.328  11.020
33847W        W93108  38.442  44.934  14.980
33848W        W93109   0.405   7.251  10.897
33849W        W93110  12.625  23.005  14.990
33850W        W93111  34.582   2.951   0.460
33851W        W93112  39.890   1.474  14.284
33852W        W93113   3.946  44.451   4.708
33853W        W93114   4.418   0.810   1.819
33854W        W93115  10.691   2.422  10.437
33855W        W93116  21.167  44.377  14.887
33856W        W93117  38.015  28.127  11.011
33857W        W93118  22.151  31.918   9.987
33858W        W93119  36.376  40.020  14.470
33859W        W93120  31.019  18.576  14.971
33860W        W93121  10.644  25.040   3.378
33861W        W93122  12.229  40.831   0.294
33862W        W93123  26.577  40.342   2.719
33863W        W93124   2.926   8.250   1.319
33864W        W93125  33.585  27.121  14.032
33865W        W93126   4.772   7.357   0.313
33866W        W93127  33.904  40.398   1.412
33867W        W93128   9.229  27.636   3.635
33868W        W93129  18.564  13.709   3.147
33869W        W93130   7.355   2.752   4.754
33870W        W93131  27.119   1.742  14.470
33871W        W93132   1.836  21.523  11.565
33872W        W93133  42.504   0.256  10.504
33873W        W93134  44.940   6.382   4.197
33874W        W93135  42.356  33.032  10.945
33875W        W93136   6.772  21.619  11.907
33876W        W93137  25.532  24.705  12.454
33877W        W93138   2.335  19.594   3.729
33878W        W93139   1.916  40.512   5.317
33879W        W93140  28.041  16.716   3.696
33880W        W93141  10.791  19.116  12.351
33881W        W93142  32.446  33.058   3.806
33882W        W93143   6.411  20.066  12.365
33883W        W93144  41.021  36.937  11.906
33884W        W93145  39.550  31.139  14.357
33885W        W93146   3.401   6.759   3.169
33886W        W93147  44.459  22.532   3.262
33887W        W93148  12.248  35.470   0.852
33888W        W93149  17.233  24.110   4.719
33889W        W93150  37.458  27.000   4.353
33890W        W93151  10.299  11.205  14.019
33891W        W93152   1.343  17.291   4.177
33892W        W93153  39.438  22.661  11.063
33893W        W93154  28.670  43.848  10.996
33894W        W93155  25.695  27.093  12.471
33895W        W93156  11.665  25.669   1.794
33896W        W93157  24.073  42.945  14.320
33897W        W93158  29.494  28.042   0.355
33898W        W93159  39.557   4.739   2.374
33899W        W93160  24.086  13.301  14.999
33900W        W93161   8.663   5.246  10.085
33901W        W93162  36.587   0.439   2.322
33902W        W93163  12.195  37.831  10.551
33903W        W93164  13.198  28.634   2.698
33904W        W93165  40.427  41.533   0.851
33905W        W93166  36.047  15.736  11.395
33906W        W93167  34.514   9.266   2.834
33907W        W93168   0.392   5.912  14.031
33908W        W93169  35.433   5.785  14.924
33909W        W93170  35.564  39.432   2.207
33910W        W93171   9.297   1.299   4.752
33911W        W93172  10.260  29.571   2.206
33912W        W93173  19.589  22.561  12.432
33913W        W93174  25.182  27.030   1.291
33914W        W93175  20.745  43.008   3.812
33915W        W93176  33.876  32.511  14.012
33916W        W93177   3.864  38.546  11.069
33917W        W93178  23.016  43.486   0.756
33918W        W93179  39.471   8.322  12.578
33919W        W93180   7.211  25.973  14.483
33920W        W93181   4.765  35.989  11.034
33921W        W93182  12.723   9.764   0.346
33922W        W93183  32.546  31.605   0.801
33923W        W93184  32.894  30.934  13.390
33924W        W93185   7.897  42.795   2.771
33925W        W93186  22.716  17.067   1.914
33926W        W93187   9.732  42.783   2.188
33927W        W93188  30.145  13.823  13.821
33928W        W93189   7.735  28.540   2.350
33929W        W93190  32.618  20.065   4.186
33930W        W93191  21.703  34.580  10.535
33931W        W93192  17.643  15.143   4.134
33932W        W93193  37.419  23.156   4.741
33933W        W93194   2.961  38.444   0.345
33934W        W93195   1.965  25.698   4.122
33935W        W93196  10.262  39.555   4.758
33936W        W93197   7.376  26.605  10.423
33937W        W93198  14.599  38.869   3.790
33938W        W93199  40.360  43.509   0.755
33939W        W93200  32.442   5.343   4.194
33940W        W93201  17.198  41.007   2.798
33941W        W93202  27.594   2.798  12.048
33942W        W93203  29.085  12.214   0.894
33943W        W93204  29.619  12.277  11.008
33944W        W93205   3.349  24.497   1.804
33945W        W93206  20.068   6.774  11.384
33946W        W93207  16.100  41.807  14.972
33947W        W93208  29.469   4.254  14.942
33948W        W93209  20.065   5.404  12.979
33949W        W93210   2.280   3.220  13.792
33950W        W93211   2.344  12.246   2.383
33951W        W93212  20.266  17.249  14.959
33952W        W93213   4.257  17.117  10.537
33953W        W93214   0.257  16.798   3.662
33954W        W93215   7.417  36.438   3.848
33955W        W93216  13.830  41.924   2.749
33956W        W93217  13.632  11.794   2.691
33957W        W93218  10.247   2.771  14.925
33958W        W93219  24.584  19.073   4.833
33959W        W93220  34.416  31.553  12.091
33960W        W93221  26.049  40.357   4.133
33961W        W93222  27.098   4.718  14.939
33962W        W93223  16.086  21.563  12.996
33963W        W93224  29.924  32.990   9.588
33964W        W93225  15.156  40.896   3.207
33965W        W93226  37.531  41.885   1.294
33966W        W93227  38.856   5.281   1.856
33967W        W93228   4.371  36.454   1.349
33968W        W93229  35.552  25.131   3.226
33969W        W93230   2.405  10.786  11.424
33970W        W93231  32.092  37.456   2.752
33971W        W93232  31.003   5.273   2.819
33972W        W93233  40.016   2.799  10.507
33973W        W93234  38.825  21.122  10.558
33974W        W93235  21.059  41.953  10.444
33975W        W93236  37.973  33.923   3.386
33976W        W93237  26.516  29.127  12.472
33977W        W93238  32.478  37.397   2.863
33978W        W93239  43.913  39.551  12.051
33979W        W93240  10.313  20.082   0.470
33980W        W93241  16.261  29.505  10.099
33981W        W93242  16.239   8.357  11.046
33982W        W93243  21.209  11.338   1.311
33983W        W93244  14.160  24.976   0.359
33984W        W93245  26.156   1.458   4.248
33985W        W93246  14.809   7.223  13.974
33986W        W93247  33.545  35.524  11.004
33987W        W93248  17.100  38.523  11.459
33988W        W93249  23.568  38.542   1.260
33989W        W93250  32.489  39.327   2.823
33990W        W93251  13.261   8.162  12.980
33991W        W93252   5.712  36.916   1.431
33992W        W93253  17.556  11.668  14.924
33993W        W93254  10.294  44.848  13.361
33994W        W93255   4.442  20.084  14.018
33995W        W93256  23.595  43.780   2.240
33996W        W93257  29.548  32.616  10.463
33997W        W93258  33.096  13.265  14.983
33998W        W93259  11.675  42.956   1.920
33999W        W93260  31.544  14.675  14.291
34000W        W93261  18.689  35.572   2.347
34001W        W93262  29.479   8.170  12.926
34002W        W93263  22.719  24.213  11.601
34003W        W93264  44.461  31.948   3.634
34004W        W93265   6.876  26.621  12.907
34005W        W93266  43.777   5.769  11.547
34006W        W93267   3.303  12.317   0.247
34007W        W93268  34.371  43.453   1.882
34008W        W93269  18.751  10.140  12.367
34009W        W93270  34.927  24.682  12.383
34010W        W93271  35.924  27.083   3.295
34011W        W93272  27.071  11.652   1.269
34012W        W93273   9.327  30.933   1.922
34013W        W93274  34.930  41.799  13.526
34014W        W93275  23.576  21.582  13.853
34015W        W93276   4.856   7.294   1.262
34016W        W93277  15.672  22.583  11.453
34017W        W93278  19.632  10.831   3.750
34018W        W93279  20.132   5.386   3.781
34019W        W93280  40.537  16.284   0.458
34020W        W93281  26.513   5.366  12.482
34021W        W93282  27.663  25.184  12.380
34022W        W93283  16.187  11.238   0.297
34023W        W93284  19.646  36.536  13.875
34024W        W93285  32.975  16.647   0.471
34025W        W93286  28.972  30.022  14.365
34026W        W93287  21.223   4.316  13.000
34027W        W93288   8.203   3.866   0.381
34028W        W93289  11.195  12.350  12.359
34029W        W93290   7.373  37.523  14.808
34030W        W93291  28.172   7.397   0.251
34031W        W93292  12.317  28.591   0.440
34032W        W93293  31.476  41.325   3.383
34033W        W93294  34.961  36.947   2.238
34034W        W93295  37.356   0.305  12.931
34035W        W93296  10.807   3.370   0.309
34036W        W93297   8.803  30.432  11.873
34037W        W93298  25.013  31.978  10.952
34038W        W93299  23.216   2.891  14.398
34039W        W93300   4.450   8.704   2.675
34040W        W93301   4.327  28.943   0.364
34041W        W93302  43.396  14.604  13.380
34042W        W93303  11.627  13.720   1.392
34043W        W93304  36.097  39.485  14.435
34044W        W93305   8.182   8.721  10.033
34045W        W93306  33.429  27.554  13.386
34046W        W93307  24.978   9.387  12.339
34047W        W93308  11.685  11.849   4.658
34048W        W93309  20.275  12.758  10.135
34049W        W93310  26.176  34.942  12.434
34050W        W93311  25.101  39.826   3.713
34051W        W93312  34.036   2.841   0.429
34052W        W93313  27.042  43.900  12.040
34053W        W93314   1.923  27.113  12.410
34054W        W93315   6.186  18.716  10.589
34055W        W93316  43.780  11.288   1.436
34056W        W93317  23.684   0.888  14.497
34057W        W93318  35.417  43.011   1.244
34058W        W93319  44.413  29.548   0.839
34059W        W93320  30.603   5.218   3.800
34060W        W93321  17.127  25.489   3.839
34061W        W93322  18.774  26.158   2.814
34062W        W93323  24.660   5.850   3.853
34063W        W93324  41.490  43.399  13.897
34064W        W93325  32.016  40.936  10.127
34065W        W93326   8.248  38.393  14.415
34066W        W93327  30.148  17.683  12.023
34067W        W93328  20.676   4.262  13.041
34068W        W93329  17.758  34.866  11.090
34069W        W93330  19.659  35.040  11.545
34070W        W93331   4.907  12.192  12.046
34071W        W93332  13.709  21.534  12.999
34072W        W93333  15.620  26.008   2.686
34073W        W93334   1.477  41.890   1.362
34074W        W93335  41.928  18.210  11.480
34075W        W93336   6.411  24.691   4.746
34076W        W93337   5.253  14.772   4.221
34077W        W93338  27.574  42.285   2.702
34078W        W93339  17.658   5.414  10.475
34079W        W93340   2.855  42.289   2.195
34080W        W93341  43.327  40.799  13.533
34081W        W93342  23.012  10.841  14.408
34082W        W93343  41.399   9.383   2.852
34083W        W93344  28.977   7.305   4.610
34084W        W93345  34.531   9.734  11.440
34085W        W93346  19.234  34.940   4.254
34086W        W93347  39.360  15.163  13.037
34087W        W93348  38.918  35.513   1.895
34088W        W93349   5.778   1.806  13.798
34089W        W93350  13.339  40.520  12.828
34090W        W93351  21.719   2.385  14.797
34091W        W93352  13.189   2.903   3.179
34092W        W93353  15.727  29.600   5.237
34093W        W93354  32.982  18.622   1.389
34094W        W93355  31.077   5.931   4.733
34095W        W93356  11.179  31.018   3.859
34096W        W93357  29.497  19.770   3.776
34097W        W93358   4.217  41.876   0.329
34098W        W93359  36.499  18.726   1.397
34099W        W93360  38.455  14.115  14.497
34100W        W93361  38.940   8.380   3.167
34101W        W93362   3.281  34.095  13.425
34102W        W93363  38.821   8.386   2.791
34103W        W93364  18.244  29.000  14.900
34104W        W93365  12.205  43.277   4.800
34105W        W93366  14.204  32.529  14.828
34106W        W93367   5.361  38.520  14.759
34107W        W93368  34.044  40.838   5.082
34108W        W93369  34.989  30.013   1.893
34109W        W93370   2.361  30.565   3.370
34110W        W93371   8.796  21.582   2.400
34111W        W93372   0.328   0.361   0.849
34112W        W93373  25.175   4.753   4.615
34113W        W93374  17.617  41.496  10.420
34114W        W93375   7.855  14.300  13.001
34115W        W93376  40.361  44.398  14.865
34116W        W93377  18.745  35.964   1.401
34117W        W93378  21.701  38.977  14.794
34118W        W93379  21.714  44.780  10.913
34119W        W93380  38.044  41.323   5.135
34120W        W93381  19.095  39.505  14.509
34121W        W93382  35.980  35.101   3.737
34122W        W93383   0.466  39.009  11.027
34123W        W93384  35.053  11.332   1.861
34124W        W93385  32.540  26.535   1.927
34125W        W93386  30.067   0.983   0.818
34126W        W93387  21.221   1.277  13.918
34127W        W93388   3.415  34.946   3.738
34128W        W93389   8.711  25.148  12.489
34129W        W93390  40.368  17.065  14.326
34130W        W93391  19.105  22.626   1.395
34131W        W93392  44.814   9.793  10.936
34132W        W93393   3.877   8.176   2.729
34133W        W93394  34.545  17.625  14.886
34134W        W93395  40.330  17.155  10.888
34135W        W93396  19.141  19.114  12.464
34136W        W93397  19.570   1.751   4.221
34137W        W93398   7.306  29.006   2.732
34138W        W93399  40.853   4.330   1.880
34139W        W93400  22.658  35.058   2.837
34140W        W93401  35.467  42.943  13.965
34141W        W93402   3.948  42.427  11.903
34142W        W93403  24.079  16.082   1.283
34143W        W93404  18.090   9.721  13.058
34144W        W93405   7.881  20.741  10.465
34145W        W93406   6.677   7.757   0.296
34146W        W93407   7.667  19.701  13.969
34147W        W93408  33.382   2.745   2.287
34148W        W93409  17.106   8.313  11.568
34149W        W93410  32.490  16.086   4.748
34150W        W93411  29.040   7.854  12.998
34151W        W93412  15.702  15.151   4.175
34152W        W93413   7.171  21.668   1.306
34153W        W93414   6.372  25.498   1.408
34154W        W93415  42.853  35.107   3.745
34155W        W93416  43.882  20.147  14.029
34156W        W93417  13.733  31.455  11.062
34157W        W93418  25.971  12.165   2.400
34158W        W93419  32.397  23.031  12.924
34159W        W93420  13.127  25.114  14.820
34160W        W93421  11.172  41.329  11.868
34161W        W93422  32.553   3.864  11.897
34162W        W93423  29.919  29.583  11.108
34163W        W93424  13.111  31.404  11.124
34164W        W93425  20.766  26.618  13.973
34165W        W93426  21.754  38.456  11.578
34166W        W93427  34.549  29.154  13.013
34167W        W93428  15.222  34.403  12.359
34168W        W93429  10.655  17.220   2.682
34169W        W93430  27.620  30.025  11.540
34170W        W93431  18.589  41.888   1.754
34171W        W93432  34.037  37.513  14.978
34172W        W93433  10.310  20.528   1.768
34173W        W93434  16.116  15.672  10.147
34174W        W93435   2.929  12.170  13.318
34175W        W93436   4.381  24.620  11.078
34176W        W93437  10.779  33.918  12.973
34177W        W93438  27.114  27.953  12.899
34178W        W93439  27.128  24.149   0.408
34179W        W93440  17.570   6.349   1.241
34180W        W93441  12.707  18.211   2.287
34181W        W93442  32.481  41.853   0.250
34182W        W93443  13.681  33.082   4.232
34183W        W93444   0.827   8.332   3.733
34184W        W93445   8.335  30.942   4.648
34185W        W93446  10.639   2.822   2.195
34186W        W93447  31.620   4.860  12.863
34187W        W93448   3.844  27.104   1.823
34188W        W93449   9.388  41.411   4.182
34189W        W93450  29.548  40.447  13.483
34190W        W93451  27.164  23.559   3.865
34191W        W93452  20.654  25.967  11.030
34192W        W93453  27.947  10.270  12.920
34193W        W93454  11.703   5.251   2.408
34194W        W93455  28.004   4.374  13.856
34195W        W93456  10.733  27.094  13.994
34196W        W93457  30.657   8.366   2.374
34197W        W93458   5.719  32.024  13.993
34198W        W93459  35.600  10.865  11.880
34199W        W93460  24.102  38.355  11.884
34200W        W93461   3.866  16.787   0.426
34201W        W93462   4.763   1.415  11.007
34202W        W93463   1.358  32.039  14.346
34203W        W93464  28.000  37.025  11.950
34204W        W93465  27.623   6.846   2.832
34205W        W93466  10.855   1.918  12.028
34206W        W93467   1.962  41.398   2.291
34207W        W93468  43.396  41.448  12.521
34208W        W93469   3.939  28.464   3.281
34209W        W93470  20.602  20.742   2.226
34210W        W93471  33.126  28.503   1.393
34211W        W93472  40.912  27.950  14.806
34212W        W93473  31.921   5.882   0.409
34213W        W93474  22.741  15.596   4.324
34214W        W93475  34.415  31.957   1.858
34215W        W93476   9.651  36.468  13.506
34216W        W93477  17.091  14.762   1.833
34217W        W93478   6.205  33.457   1.212
34218W        W93479   5.357  20.246   4.653
34219W        W93480  29.023   5.775  10.448
34220W        W93481  17.790  14.739   1.933
34221W        W93482  24.133  35.031   4.155
34222W        W93483  16.214  13.166  14.782
34223W        W93484  27.510  12.754  14.469
34224W        W93485  37.868   8.194   3.698
34225W        W93486   6.313  44.494  10.530
34226W        W93487  30.113  31.432   4.681
34227W        W93488  34.087   3.815   3.850
34228W        W93489  36.508  24.718  11.513
34229W        W93490  26.463  17.647   1.867
34230W        W93491  25.214   0.913  10.938
34231W        W93492  29.605  36.062   2.259
34232W        W93493  37.996  29.556  10.079
34233W        W93494  19.103   2.410  12.049
34234W        W93495  11.135  21.692  14.317
34235W        W93496  43.397   3.926   0.467
34236W        W93497  24.042  21.108  13.446
34237W        W93498  30.485  27.078  11.384
34238W        W93499  17.661  14.808  12.433
34239W        W93500  16.596   1.441   1.751
34240W        W93501  20.543  34.882   1.729
34241W        W93502   8.763  22.012   1.723
34242W        W93503  21.541   5.389  12.893
34243W        W93504  13.172  28.457   0.775
34244W        W93505  32.035  32.023  11.520
34245W        W93506  24.163  19.772  12.897
34246W        W93507   2.458   2.463  11.482
34247W        W93508   2.771  28.618   0.917
34248W        W93509  25.057  31.151   3.680
34249W        W93510  40.312  20.235   2.748
34250W        W93511  34.428  35.895  11.914
34251W        W93512   1.935  28.095  11.089
34252W        W93513  20.657  12.777   4.123
34253W        W93514   0.323  15.136   4.691
34254W        W93515  22.574  37.873   1.360
34255W        W93516  37.926   4.398   4.698
34256W        W93517  18.265   5.438   1.274
34257W        W93518  40.522  10.762  13.816
34258W        W93519  31.000  31.482   0.910
34259W        W93520   9.767  15.606   2.662
34260W        W93521   4.281   9.688   2.242
34261W        W93522  39.353   2.791   0.378
34262W        W93523  32.917  12.255  14.420
34263W        W93524  26.960  36.016  13.923
34264W        W93525   6.409  32.051  14.762
34265W        W93526  13.789   8.321   2.348
34266W        W93527  21.097  31.098   1.746
34267W        W93528  41.824  27.670  14.325
34268W        W93529  24.592   0.759  14.786
34269W        W93530   9.650   1.843  12.057
34270W        W93531  24.119  34.464   0.448
34271W        W93532  37.026  44.421  12.489
34272W        W93533  38.525  38.487   0.462
34273W        W93534   0.763   4.777  10.161
34274W        W93535  41.832   8.896   5.147
34275W        W93536  28.031  30.989   0.823
34276W        W93537  31.612  37.420  10.018
34277W        W93538  18.756   7.904  12.849
34278W        W93539   5.739  28.064   4.255
34279W        W93540  41.854  31.598  12.508
34280W        W93541  37.513  38.417   2.874
34281W        W93542   3.828   0.345  12.525
34282W        W93543  42.804  12.691  12.541
34283W        W93544  23.124  20.084   3.668
34284W        W93545  24.710  19.082   4.153
34285W        W93546  30.443  34.108   2.321
34286W        W93547  31.897  32.023  14.494
34287W        W93548  28.008  32.021   3.175
34288W        W93549  21.257  44.455   2.895
34289W        W93550  43.338  38.349   0.811
34290W        W93551  26.119  22.209  11.485
34291W        W93552  21.179  40.518   1.271
34292W        W93553  43.892  37.526   0.966
34293W        W93554  42.919  17.573  13.869
34294W        W93555   3.379  39.351   3.745
34295W        W93556  21.031  12.173   2.769
34296W        W93557  33.091  19.593  13.335
34297W        W93558  15.750  31.127   3.710
34298W        W93559   0.303  11.315  14.454
34299W        W93560   2.864  41.889  10.448
34300W        W93561  36.561   9.849   2.343
34301W        W93562  16.708  42.481   0.376
34302W        W93563   3.819  21.726   0.764
34303W        W93564  25.196  11.203   1.351
34304W        W93565  13.329  40.833   3.385
34305W        W93566  16.148   0.750  11.573
34306W        W93567   5.791  19.264  12.914
34307W        W93568  22.044  20.090   1.905
34308W        W93569  20.696  40.367  12.459
34309W        W93570  22.249   6.290   3.248
34310W        W93571  36.571   8.871   4.761
34311W        W93572   5.887  30.094  12.541
34312W        W93573  38.931  33.517  11.409
34313W        W93574  40.800  15.163  10.424
34314W        W93575  39.019  23.024   5.212
34315W        W93576  11.206  41.040   2.214
34316W        W93577  13.104  30.606   4.202
34317W        W93578  22.706   1.386  13.796
34318W        W93579  26.049  38.344   2.295
34319W        W93580  21.558   8.762   3.770
34320W        W93581   1.743  25.085   1.759
34321W        W93582  23.001  21.536  11.900
34322W        W93583  32.979   8.663   0.323
34323W        W93584  39.539  13.677   0.431
34324W        W93585  17.629  18.275   5.082
34325W        W93586   5.860  44.755   4.214
34326W        W93587  26.168  16.807   1.341
34327W        W93588  32.945  32.508   0.730
34328W        W93589  14.323   7.745   1.238
34329W        W93590  23.194  23.552   5.777
34330W        W93591  15.800  21.660   2.681
34331W        W93592  29.653   6.385  14.761
34332W        W93593  40.483  17.771   0.354
34333W        W93594  14.203  35.003  13.970
34334W        W93595  11.130   5.848   1.304
34335W        W93596  13.770  17.293   3.230
34336W        W93597  20.617  11.261  10.585
34337W        W93598  37.865  31.129  13.955
34338W        W93599  37.832  38.930  11.899
34339W        W93600  12.808  16.655  14.767
34340W        W93601   7.799   2.891   0.931
34341W        W93602  28.019  44.856  10.594
34342W        W93603  37.450  24.230   4.833
34343W        W93604  43.376  42.848   2.208
34344W        W93605   7.222  15.224  14.488
34345W        W93606  42.450  34.083  14.510
34346W        W93607  10.674  12.705  13.436
34347W        W93608  42.817  37.394   4.246
34348W        W93609   3.261  25.180  12.441
34349W        W93610  26.157  23.605  10.964
34350W        W93611  17.147   0.309  12.075
34351W        W93612   1.797  38.451   3.772
34352W        W93613  42.508  15.298   4.279
34353W        W93614  18.563  28.169  10.006
34354W        W93615  11.793  33.489   3.190
34355W        W93616  44.404   8.270  10.408
34356W        W93617  16.254   1.285   2.724
34357W        W93618  41.025  15.322  13.341
34358W        W93619  38.384  30.616  12.943
34359W        W93620   1.862  10.355   2.675
34360W        W93621  43.439  35.396  11.012
34361W        W93622  15.167   0.877  14.508
34362W        W93623  44.008  24.123   1.287
34363W        W93624  33.514  13.753   4.627
34364W        W93625  13.174  43.462  13.851
34365W        W93626  42.783  18.672   3.842
34366W        W93627  20.266  24.701  10.548
34367W        W93628  34.104  24.081   0.916
34368W        W93629  15.692   9.879   3.208
34369W        W93630  34.104  38.014   1.701
34370W        W93631   7.889  40.904   1.795
34371W        W93632  32.458  44.272   2.692
34372W        W93633  26.471  41.857  10.481
34373W        W93634  22.036  17.270   4.722
34374W        W93635  36.001   4.871  12.955
34375W        W93636  22.036  41.808   3.194
34376W        W93637  10.290  26.150  10.506
34377W        W93638  25.708   7.777   4.319
34378W        W93639   8.757  33.516   5.285
34379W        W93640  19.146  33.948   2.767
34380W        W93641  32.522  32.055  11.070
34381W        W93642  35.023  21.148   1.866
34382W        W93643  26.608  22.737   5.109
34383W        W93644  20.152  14.829  14.832
34384W        W93645  17.741   6.848  14.428
34385W        W93646   6.285  11.209   1.816
34386W        W93647  11.734   6.750  12.080
34387W        W93648   2.403  31.988  14.445
34388W        W93649  10.874   4.270  14.912
34389W        W93650  28.560  42.410  12.413
34390W        W93651  36.571   9.389   2.732
34391W        W93652  14.284  30.643   2.773
34392W        W93653  38.348  34.372   4.126
34393W        W93654   2.808  38.963  13.918
34394W        W93655  10.648  25.021  11.539
34395W        W93656  24.001   6.389  14.321
34396W        W93657  34.988  15.135  12.411
34397W        W93658  24.608  22.614   1.861
34398W        W93659  34.885  40.433  11.973
34399W        W93660  28.988  19.684  14.415
34400W        W93661  24.157  40.897  11.998
34401W        W93662   2.905  44.902   1.415
34402W        W93663  22.736   7.330  12.467
34403W        W93664   4.397   5.832   0.779
34404W        W93665  35.559  22.149   3.635
34405W        W93666  40.525  17.738  14.869
34406W        W93667  14.687  18.293  14.455
34407W        W93668  10.309  30.076   2.811
34408W        W93669  31.060  21.198  11.859
34409W        W93670  33.904  41.439  12.075
34410W        W93671  12.300  39.331  10.559
34411W        W93672  40.812  22.097   0.865
34412W        W93673  13.625   5.309   4.299
34413W        W93674   8.385  43.396   1.922
34414W        W93675  13.155   2.947  13.848
34415W        W93676  43.864  34.863   3.330
34416W        W93677   0.280  20.729   2.774
34417W        W93678  17.556  22.041  12.934
34418W        W93679   4.311   6.368   3.690
34419W        W93680  30.590  27.659  13.405
34420W        W93681  21.223  16.708   4.243
34421W        W93682   0.987  25.116   0.269
34422W        W93683  29.558   3.460   2.251
34423W        W93684  24.194   8.748  14.340
34424W        W93685  24.629   2.341  12.023
34425W        W93686  11.287  42.789   1.892
34426W        W93687   3.859   2.408  11.520
34427W        W93688  41.895  13.694  13.020
34428W        W93689  40.461  27.544   1.446
34429W        W93690   0.918  38.068  14.388
34430W        W93691  35.098   2.328  13.419
34431W        W93692  37.952  44.405  14.395
34432W        W93693   1.862  25.064  14.862
34433W        W93694  18.689  41.440  12.401
34434W        W93695  13.309  44.324   1.807
34435W        W93696   7.304  31.512  12.904
34436W        W93697  17.653  44.927  14.294
34437W        W93698  15.319  18.083  12.895
34438W        W93699  42.499  42.849   2.303
34439W        W93700  25.185  31.089  11.917
34440W        W93701  42.385  28.991   3.724
34441W        W93702   4.728  14.200  10.145
34442W        W93703  41.409  28.096  13.921
34443W        W93704  27.691  23.049   2.759
34444W        W93705  32.487   6.720   2.662
34445W        W93706  44.886   8.184   0.777
34446W        W93707   8.234   2.928   0.870
34447W        W93708  22.251   1.339  12.918
34448W        W93709  12.839  18.159  13.875
34449W        W93710  41.806  10.144  12.562
34450W        W93711  36.053   4.831   5.133
34451W        W93712  25.704  44.790  13.431
34452W        W93713  41.484  16.208  14.389
34453W        W93714  37.528  20.737  12.487
34454W        W93715  18.721   3.851  11.037
34455W        W93716  28.089  14.750   3.385
34456W        W93717  21.247  20.664   5.159
34457W        W93718  32.550  35.381   0.741
34458W        W93719  33.417  14.639  13.055
34459W        W93720   0.865   6.227   3.266
34460W        W93721   2.912   9.830   1.924
34461W        W93722  43.355   8.744   1.260
34462W        W93723  11.833  21.115  14.899
34463W        W93724   9.158  21.583  11.984
34464W        W93725  10.791  41.038  13.438
34465W        W93726   2.304  36.914  13.939
34466W        W93727  14.228  34.548  11.529
34467W        W93728  30.058  14.831   0.310
34468W        W93729  35.985  19.555   4.260
34469W        W93730  10.707  24.990   5.300
34470W        W93731  16.129   6.915   3.156
34471W        W93732  10.187  37.415  11.094
34472W        W93733   5.860   6.347   2.767
34473W        W93734   9.823  22.065  12.022
34474W        W93735   7.900  10.350   2.308
34475W        W93736  31.985  30.104  13.873
34476W        W93737  36.954  23.670  10.408
34477W        W93738  20.029  18.613  11.009
34478W        W93739   3.791  44.385   1.377
34479W        W93740   2.898  42.870  11.507
34480W        W93741  19.054  12.351   2.729
34481W        W93742  26.032  13.154  13.945
34482W        W93743  24.132  30.116   1.772
34483W        W93744  25.106  19.777   2.331
34484W        W93745  29.555  43.379   1.263
34485W        W93746  41.314  22.725  11.101
34486W        W93747  37.870  31.461   5.268
34487W        W93748  15.320  21.021   0.304
34488W        W93749  35.086  20.145  14.794
34489W        W93750  38.865  40.937   4.140
34490W        W93751  28.959   8.674  14.295
34491W        W93752  27.598   3.909  12.549
34492W        W93753   5.866   2.365   3.723
34493W        W93754   3.248  23.215   2.336
34494W        W93755   2.385   8.312   1.218
34495W        W93756  19.135  34.456   4.836
34496W        W93757   7.416  18.158  14.472
34497W        W93758  36.592  25.627   4.745
34498W        W93759   4.925  27.597   2.818
34499W        W93760  31.035  22.584   3.209
34500W        W93761  17.184  31.970   3.660
34501W        W93762  40.045  31.462  13.059
34502W        W93763   4.844   3.352   2.794
34503W        W93764   1.875   4.263  12.488
34504W        W93765  30.573  39.451   4.184
34505W        W93766  28.989  14.773  13.036
34506W        W93767  31.065  41.406   1.267
34507W        W93768   4.920  29.651  12.859
34508W        W93769  29.641  44.921   0.939
34509W        W93770  32.510  15.606  14.799
34510W        W93771  28.650   5.764   4.737
34511W        W93772  40.351  13.326   2.899
34512W        W93773  38.429   3.364  12.046
34513W        W93774  30.634  10.842   3.218
34514W        W93775  35.046  24.542  10.512
34515W        W93776  43.312  28.176   4.198
34516W        W93777   1.296  31.446   0.831
34517W        W93778   4.728  44.394  10.526
34518W        W93779  18.726  35.861   5.168
34519W        W93780  30.636  31.094  13.912
34520W        W93781  40.911  26.697  13.043
34521W        W93782   0.904  30.984   1.710
34522W        W93783  40.345   6.335  12.530
34523W        W93784  35.002  17.559  14.997
34524W        W93785   9.710  20.157   1.870
34525W        W93786  28.541  42.907   3.379
34526W        W93787  39.393  10.718   2.379
34527W        W93788  33.599  15.252   2.739
34528W        W93789  24.697  25.515   3.258
34529W        W93790  29.578  37.891   0.434
34530W        W93791  16.075  16.261  12.025
34531W        W93792  26.563  13.681  12.341
34532W        W93793  34.980  38.998  14.930
34533W        W93794   3.238  14.804  11.979
34534W        W93795  32.966  20.162  11.056
34535W        W93796   3.866  13.690  14.817
34536W        W93797  19.083  44.314  12.976
34537W        W93798  39.873  22.131   4.185
34538W        W93799  10.209  18.124   3.262
34539W        W93800  14.756  41.938   2.394
34540W        W93801  21.534   5.305   3.696
34541W        W93802  19.568  25.015   0.335
34542W        W93803  33.381   2.862  10.576
34543W        W93804  20.659  39.377   3.729
34544W        W93805  35.964  40.020  11.466
34545W        W93806  35.869  38.000   1.841
34546W        W93807   4.815  21.739  10.456
34547W        W93808  16.316  29.431  11.555
34548W        W93809   7.783  27.982   3.834
34549W        W93810  12.724  38.883  12.521
34550W        W93811   3.338  31.431   1.384
34551W        W93812  44.409  36.528   3.727
34552W        W93813  14.145  26.690   1.268
34553W        W93814  13.693  38.542  12.850
34554W        W93815  20.037  37.513   3.668
34555W        W93816  40.019  22.116  13.030
34556W        W93817  36.352   5.316   3.219
34557W        W93818  33.956  32.139  13.946
34558W        W93819  21.048   6.876  14.016
34559W        W93820  32.435   8.338  11.474
34560W        W93821   1.873  24.714   0.851
34561W        W93822  41.881   7.817  11.375
34562W        W93823  40.376   0.961   0.869
34563W        W93824  23.724   4.277  10.583
34564W        W93825  35.982  14.193   1.424
34565W        W93826   3.846   6.781   0.384
34566W        W93827  16.634  13.780   3.648
34567W        W93828  27.478  13.219  12.873
34568W        W93829  44.357  28.009   5.276
34569W        W93830  43.889   0.874   0.880
34570W        W93831  11.854  31.422   2.235
34571W        W93832  29.544   4.412  14.460
34572W        W93833  16.650  17.269   2.706
34573W        W93834   3.296  11.703  12.008
34574W        W93835  15.723  27.625   1.340
34575W        W93836   5.247  29.004   4.700
34576W        W93837  43.819  21.562   2.826
34577W        W93838   0.426  18.685  11.096
34578W        W93839   2.920  27.056   1.878
34579W        W93840  15.647  15.585   0.255
34580W        W93841  10.836   8.740   2.896
34581W        W93842  14.744  31.405   2.801
34582W        W93843  22.692  38.441  12.021
34583W        W93844   5.425  17.176   2.679
34584W        W93845  28.057   4.445  14.279
34585W        W93846  21.121   0.476   2.213
34586W        W93847  41.348  20.537  13.350
34587W        W93848  38.053  42.284   3.193
34588W        W93849  30.957  34.420   0.877
34589W        W93850  24.654  24.981  13.381
34590W        W93851   2.725   1.246  11.125
34591W        W93852   1.762  12.703  11.913
34592W        W93853  23.619  12.655  13.910
34593W        W93854   2.922  39.407   1.395
34594W        W93855  10.647  19.250   2.900
34595W        W93856  18.578  12.202  14.406
34596W        W93857  25.134  15.214  11.597
34597W        W93858  11.798  42.844  11.116
34598W        W93859  11.315   4.307  12.884
34599W        W93860  24.156  32.887   1.733
34600W        W93861  38.050  32.020  13.815
34601W        W93862  40.528   0.784   0.362
34602W        W93863  31.438  19.106  13.496
34603W        W93864  31.577  32.557   4.713
34604W        W93865  34.917  42.859   2.412
34605W        W93866  29.454  40.871   2.313
34606W        W93867   9.284  39.332  14.027
34607W        W93868  33.981  21.593  13.820
34608W        W93869  19.129  10.759   3.293
34609W        W93870  11.208  16.220   3.757
34610W        W93871   8.245   8.315   0.890
34611W        W93872  26.489  40.918   3.723
34612W        W93873  18.239  41.335   3.684
34613W        W93874  19.251  38.350   1.720
34614W        W93875  15.125  17.061   0.301
34615W        W93876  31.114  19.716   5.133
34616W        W93877  30.644  30.507   3.818
34617W        W93878  29.960  15.327  13.484
34618W        W93879  19.069  28.056   0.252
34619W        W93880  27.450  33.048   2.730
34620W        W93881  41.365  43.975  10.937
34621W        W93882  43.894  13.828  12.443
34622W        W93883  27.460  41.786  12.526
34623W        W93884  30.575   1.873  12.852
34624W        W93885  40.325  22.122   3.845
34625W        W93886  13.800   7.821  10.560
34626W        W93887  41.960   0.928  12.549
34627W        W93888  16.220  18.611   4.235
34628W        W93889  14.120   4.273  12.342
34629W        W93890  12.199   7.303   0.484
34630W        W93891   2.760  37.047   2.858
34631W        W93892  18.179  20.207  12.903
34632W        W93893  11.276   4.388   3.809
34633W        W93894  13.752  30.425   1.849
34634W        W93895  33.478  14.723   5.230
34635W        W93896  11.278  18.224   2.205
34636W        W93897  15.083  40.921  12.914
34637W        W93898  16.792  22.744  12.017
34638W        W93899  25.045  32.141   4.651
34639W        W93900   6.905  14.238   0.315
34640W        W93901  26.173  17.792  10.608
34641W        W93902  30.482  26.576  11.603
34642W        W93903  23.163  11.771   4.234
34643W        W93904  17.648  21.249   3.331
34644W        W93905  32.917   9.657  11.069
34645W        W93906  11.853  16.204  14.425
34646W        W93907  18.690  23.629   4.729
34647W        W93908  16.707   8.298   2.851
34648W        W93909  26.669   7.864  13.894
34649W        W93910  41.799  22.565   9.957
34650W        W93911  43.404  42.976   1.832
34651W        W93912  38.850  32.552  14.023
34652W        W93913  30.474   4.889  13.380
34653W        W93914  18.768   4.760  14.768
34654W        W93915   1.390  26.182  13.911
34655W        W93916   2.748  38.337   4.683
34656W        W93917  26.168   8.883   3.803
34657W        W93918  32.614  44.437  11.580
34658W        W93919  42.812  19.720  11.478
34659W        W93920  34.022  43.352  14.474
34660W        W93921   5.858  10.701   3.147
34661W        W93922  23.581  35.358  14.848
34662W        W93923  25.490  38.542   0.447
34663W        W93924   8.362  12.196   0.944
34664W        W93925   4.412  31.597  13.391
34665W        W93926  11.150  25.965   4.181
34666W        W93927  43.878  11.230  13.441
34667W        W93928  27.462  32.071   0.405
34668W        W93929  11.300  14.665   2.201
34669W        W93930  37.017  29.926   1.809
34670W        W93931  24.632   1.385  10.631
34671W        W93932  19.773  33.877   3.763
34672W        W93933  11.751  16.223   1.268
34673W        W93934  27.575  42.395   2.378
34674W        W93935  30.491   5.790  13.537
34675W        W93936  15.287  22.501   3.341
34676W        W93937  14.176  16.290  13.332
34677W        W93938  44.323  12.243  13.015
34678W        W93939  26.978  41.804  14.922
34679W        W93940  40.536  21.041   2.415
34680W        W93941  30.617  43.501   4.710
34681W        W93942  38.022  36.868   1.253
34682W        W93943  34.532  21.079  14.814
34683W        W93944  22.997  34.868   1.849
34684W        W93945  37.395  19.095  14.337
34685W        W93946  17.721   7.845  12.395
34686W        W93947  25.704  43.821   2.220
34687W        W93948   0.817  23.607  10.101
34688W        W93949  16.222   4.935  14.775
34689W        W93950  28.642  26.581   2.675
34690W        W93951   6.347  10.648   1.232
34691W        W93952   4.378  12.681   1.343
34692W        W93953  34.866  40.877   2.256
34693W        W93954   7.248  21.747  13.960
34694W        W93955   3.261  40.028   0.956
34695W        W93956  35.859  32.397  13.548
34696W        W93957  12.828  19.096   3.308
34697W        W93958  41.490  35.918  13.016
34698W        W93959  17.680  20.245  12.555
34699W        W93960  31.077  26.665   1.211
34700W        W93961  18.685  41.467   4.116
34701W        W93962  26.087   4.431  13.512
34702W        W93963  18.627   4.212   3.670
34703W        W93964   1.460   8.376   4.638
34704W        W93965  20.078  34.003   3.827
34705W        W93966  11.359   1.814  13.036
34706W        W93967  36.970  36.980  11.440
34707W        W93968  28.107  15.751   5.084
34708W        W93969  14.317   7.194  12.843
34709W        W93970  35.010   6.338   1.782
34710W        W93971  35.484  13.683   1.803
34711W        W93972  43.939  10.863   3.154
34712W        W93973  20.082  35.900  14.967
34713W        W93974  26.997  35.887  12.049
34714W        W93975   5.770  12.847   3.808
34715W        W93976  24.686  29.478   3.774
34716W        W93977   5.370  28.545  11.572
34717W        W93978   0.344   9.163   2.322
34718W        W93979  14.611  26.666   1.712
34719W        W93980   1.308  40.922  10.630
34720W        W93981  32.032  15.681  13.020
34721W        W93982  22.727   3.774  13.957
34722W        W93983  15.300  40.878   1.816
34723W        W93984  42.460  21.635   1.413
34724W        W93985  22.704   2.358   0.740
34725W        W93986  10.772  36.360  12.096
34726W        W93987   9.269  22.034  11.983
34727W        W93988  44.298  14.271  12.826
34728W        W93989  43.325  38.917  14.915
34729W        W93990  31.988  21.648   2.206
34730W        W93991  28.510  20.121   3.815
34731W        W93992  35.963  14.277  12.914
34732W        W93993   4.869  28.969   4.644
34733W        W93994   6.317  19.626  10.073
34734W        W93995  40.886   7.872  12.984
34735W        W93996   6.411  18.713  12.559
34736W        W93997  15.787  12.197   1.699
34737W        W93998   2.448  21.253  10.936
34738W        W93999  30.653  12.690  11.397
34739W        W94000  22.714   5.369   1.228
34740W        W94001  15.711  19.723   1.910
34741W        W94002  10.678  34.954  11.556
34742W        W94003  22.193   8.820  13.517
34743W        W94004  43.923  11.776   3.320
34744W        W94005  43.484  41.331   0.758
34745W        W94006  40.331  23.079  13.316
34746W        W94007  24.011  21.221   3.766
34747W        W94008  29.070  36.365   4.767
34748W        W94009  28.502  20.710   4.681
34749W        W94010   6.727  29.047  11.995
34750W        W94011  25.558  24.180   4.655
34751W        W94012  30.637  17.612   1.234
34752W        W94013  24.688  13.633  11.124
34753W        W94014  35.084   4.936   5.287
34754W        W94015  16.200  20.242  11.483
34755W        W94016  23.725  21.259   1.260
34756W        W94017  42.032  38.953  14.831
34757W        W94018  14.680  30.052  14.404
34758W        W94019  15.786  12.671   5.570
34759W        W94020  30.132  25.059   0.473
34760W        W94021   5.323   5.928  11.990
34761W        W94022  37.557  32.922   3.641
34762W        W94023  22.056  20.611   2.784
34763W        W94024  10.785  20.724  10.945
34764W        W94025  37.002  25.532   0.453
34765W        W94026  44.763  43.906  10.603
34766W        W94027  23.694  27.027  14.342
34767W        W94028  33.055  20.087   0.864
34768W        W94029  22.714   6.273  10.423
34769W        W94030  30.909  41.894   3.269
34770W        W94031  39.893  27.956   1.298
34771W        W94032  37.022  21.698   0.814
34772W        W94033  14.337  19.067  10.632
34773W        W94034  31.065  14.619  11.407
34774W        W94035  19.552  28.031  11.601
34775W        W94036  25.210  44.980  13.816
34776W        W94037  22.249   6.350   1.888
34777W        W94038  40.367   2.775  10.469
34778W        W94039  30.069   8.329   4.211
34779W        W94040   9.755  34.585   0.739
34780W        W94041  28.153   1.789   1.449
34781W        W94042  27.951  22.215  10.594
34782W        W94043  15.207  36.032  10.929
34783W        W94044  40.037   1.882  13.327
34784W        W94045  34.029  29.007   0.268
34785W        W94046  29.658  40.007   1.833
34786W        W94047   9.731  13.253  11.951
34787W        W94048  36.420  27.570  11.417
34788W        W94049  37.005  21.614  14.427
34789W        W94050  20.624  23.143   0.312
34790W        W94051  19.540  43.916   0.791
34791W        W94052  17.582  38.942  11.993
34792W        W94053   1.463  30.100  14.910
34793W        W94054  38.369  25.102   2.892
34794W        W94055  34.395  11.716   0.947
34795W        W94056  17.713  16.314   2.294
34796W        W94057  39.808  22.065   3.160
34797W        W94058   4.789  26.130   3.632
34798W        W94059   8.834  39.491   0.352
34799W        W94060  18.777  40.545   2.346
34800W        W94061  18.774  44.427   3.820
34801W        W94062  39.952  25.066  14.777
34802W        W94063  38.543  22.501   2.212
34803W        W94064   4.698  24.205   3.285
34804W        W94065  18.060  40.337   4.636
34805W        W94066   0.366  32.079   2.873
34806W        W94067   0.983  33.986   2.389
34807W        W94068  12.689  16.785  12.925
34808W        W94069   4.724  32.955   1.716
34809W        W94070   9.855  34.938   0.873
34810W        W94071  26.666  20.697  13.385
34811W        W94072  29.533  44.491  10.599
34812W        W94073  15.138  16.582   3.280
34813W        W94074  13.813  22.110   0.762
34814W        W94075  22.524  22.680  12.013
34815W        W94076  13.722  30.519   0.461
34816W        W94077  41.316  38.489  12.970
34817W        W94078  31.076  35.415  12.442
34818W        W94079  25.112  33.047   3.823
34819W        W94080  15.751  18.109  11.462
34820W        W94081  11.163   6.703   3.167
34821W        W94082   6.705   3.363  11.556
34822W        W94083  36.083  15.316  11.038
34823W        W94084   4.782  42.886   3.788
34824W        W94085   5.853  28.056   2.677
34825W        W94086  28.047   6.685   0.408
34826W        W94087  35.600  36.989  12.882
34827W        W94088  31.501  30.008  13.921
34828W        W94089  28.672  22.209   0.301
34829W        W94090   5.434  19.736   2.882
34830W        W94091  30.564  25.201   3.763
34831W        W94092  40.810  11.862  13.805
34832W        W94093  32.969  34.374  13.398
34833W        W94094  10.206  26.467   1.793
34834W        W94095  25.538  39.436   1.900
34835W        W94096  37.083   8.366   4.663
34836W        W94097   9.243   8.231  13.543
34837W        W94098  13.761  33.077  11.104
34838W        W94099   4.801  22.561   1.236
34839W        W94100  17.715  39.461   2.223
34840W        W94101  37.978   6.769   4.153
34841W        W94102  43.350  14.151   4.799
34842W        W94103  36.381   1.746   1.876
34843W        W94104  11.820  41.359   3.314
34844W        W94105   1.840  24.023   4.282
34845W        W94106   5.796   6.413   5.636
34846W        W94107  22.151   1.977  13.359
34847W        W94108  16.754  31.406   3.754
34848W        W94109  21.048  23.656   0.272
34849W        W94110  27.514  14.301   0.449
34850W        W94111   3.808  40.448  14.911
34851W        W94112  15.183  12.664  11.932
34852W        W94113  32.434  29.644  14.980
34853W        W94114  35.887  34.390   5.229
34854W        W94115   8.205   6.868  11.456
34855W        W94116  28.555  42.295   0.421
34856W        W94117  41.935   3.278  11.103
34857W        W94118   1.801   9.330   1.794
34858W        W94119  37.575  20.109   1.417
34859W        W94120  25.056  29.631  11.892
34860W        W94121  35.939  17.278  13.863
34861W        W94122   2.735  42.355  12.500
34862W        W94123  40.537  23.219   3.385
34863W        W94124   8.283  16.175  12.422
34864W        W94125   1.916  39.323  12.012
34865W        W94126  38.459   0.459  13.848
34866W        W94127  16.715   7.888   0.946
34867W        W94128  10.744  24.612   3.278
34868W        W94129  41.026  12.191   0.335
34869W        W94130  40.834  43.366   4.831
34870W        W94131   1.292   3.938  11.500
34871W        W94132  20.092  44.400   3.711
34872W        W94133  31.485   8.375   0.280
34873W        W94134  37.976  29.968  11.428
34874W        W94135  21.744  23.570   0.930
34875W        W94136  15.148  33.442   4.636
34876W        W94137  23.028  43.006  13.371
34877W        W94138   4.852  44.373  13.479
34878W        W94139  23.993  28.014   1.324
34879W        W94140   6.839  27.475   2.400
34880W        W94141  33.609   7.671  11.448
34881W        W94142  20.260  21.105  14.995
34882W        W94143  32.538   7.777   0.329
34883W        W94144  42.331  37.444  11.043
34884W        W94145  38.556   4.328  14.803
34885W        W94146  24.209  31.139  14.393
34886W        W94147   8.384  26.658   2.340
34887W        W94148   2.313  15.183  12.438
34888W        W94149  21.245  16.729   0.336
34889W        W94150  18.658  24.010   2.792
34890W        W94151  37.405  12.265  11.524
34891W        W94152  19.054   4.748   0.401
34892W        W94153  12.795  20.640  10.551
34893W        W94154  26.122  23.720   0.749
34894W        W94155  36.846   5.714   2.775
34895W        W94156  20.261  15.705   1.912
34896W        W94157  29.562  33.466   5.129
34897W        W94158  10.819  38.999  14.896
34898W        W94159  18.714  25.525  13.001
34899W        W94160   0.457  40.473  11.985
34900W        W94161  31.646  18.231  10.465
34901W        W94162  10.875  10.738   4.665
34902W        W94163  31.602  27.461  13.356
34903W        W94164  10.209  30.525  11.382
34904W        W94165  15.308  20.548   1.800
34905W        W94166  20.099  22.714   2.234
34906W        W94167  17.174  34.869   0.364
34907W        W94168  26.005   0.825   1.246
34908W        W94169  30.062  31.087  12.981
34909W        W94170  24.031  16.201  12.564
34910W        W94171  37.438  44.793   4.184
34911W        W94172  22.664  23.081  12.905
34912W        W94173  37.052  10.767   4.821
34913W        W94174  33.508  28.163   0.820
34914W        W94175   9.715  41.988   3.792
34915W        W94176   8.694  33.940   2.223
34916W        W94177   4.800  14.291  12.533
34917W        W94178   3.271  37.022  13.973
34918W        W94179   7.228  19.643   1.825
34919W        W94180   0.804  33.127   1.710
34920W        W94181  30.474  13.748   1.798
34921W        W94182  43.927  21.118   4.267
34922W        W94183  34.903  23.057   4.612
34923W        W94184  14.754  43.307   1.749
34924W        W94185  41.888   8.304  11.049
34925W        W94186   2.353   6.870  13.469
34926W        W94187   8.230   1.473  13.502
34927W        W94188  12.649  24.136  13.009
34928W        W94189  37.998  36.422   0.272
34929W        W94190   8.735  39.318  13.913
34930W        W94191  40.948  38.068  13.821
34931W        W94192  41.427  30.532   0.284
34932W        W94193  21.125  10.234   3.819
34933W        W94194  39.054  11.214   1.818
34934W        W94195  11.701  34.991   1.785
34935W        W94196  27.065  22.713  14.345
34936W        W94197  33.106  10.283   4.738
34937W        W94198  16.162  27.152  14.302
34938W        W94199  22.049  32.394  11.531
34939W        W94200  21.102  22.127  14.995
34940W        W94201  32.510  26.057  11.405
34941W        W94202  11.790  16.742   0.467
34942W        W94203  11.358   8.371   0.442
34943W        W94204  26.662  24.492  12.550
34944W        W94205  29.623  31.436  11.066
34945W        W94206  32.617  44.368  13.452
34946W        W94207  19.275  18.572  11.946
34947W        W94208   4.412  31.492   2.861
34948W        W94209  39.900  35.597   3.352
34949W        W94210  13.247  13.743  13.817
34950W        W94211  10.777   3.234   3.678
34951W        W94212  30.073  17.712  12.867
34952W        W94213   6.294   5.860  12.980
34953W        W94214  17.153  40.991  12.438
34954W        W94215   8.314  36.558  11.519
34955W        W94216  40.928   8.688   1.760
34956W        W94217  13.644  31.454   9.632
34957W        W94218  10.334  38.343   4.187
34958W        W94219  12.731  17.735   3.713
34959W        W94220  12.128  34.567   2.844
34960W        W94221  28.625  26.608  11.426
34961W        W94222   4.232  10.784  11.939
34962W        W94223  39.473  32.955   3.215
34963W        W94224   8.220  36.409   0.872
34964W        W94225  40.547  15.690   0.772
34965W        W94226  10.768  40.828   0.308
34966W        W94227  34.959   0.847   4.285
34967W        W94228  12.142  27.566   4.796
34968W        W94229   9.258  41.009   1.265
34969W        W94230  41.925  21.119   0.379
34970W        W94231  41.955   1.391   1.431
34971W        W94232  34.613   6.393  14.424
34972W        W94233  15.626  40.911  12.863
34973W        W94234   2.248  24.500  14.999
34974W        W94235  31.607   3.453  12.017
34975W        W94236   3.730   7.246  14.827
34976W        W94237  28.659  28.637   0.319
34977W        W94238  13.846   6.367  13.326
34978W        W94239   3.936  10.209  12.429
34979W        W94240  37.482  28.076   5.145
34980W        W94241  41.517  22.999   3.210
34981W        W94242  20.668   5.244  13.362
34982W        W94243  33.895  42.922  13.386
34983W        W94244  36.586  15.230  10.968
34984W        W94245  35.416  26.534  10.449
34985W        W94246   4.245  42.358   1.408
34986W        W94247  32.540   9.192   4.727
34987W        W94248  29.130  39.953   3.764
34988W        W94249  31.609   6.706   4.151
34989W        W94250  41.477  22.719  13.412
34990W        W94251   8.753  32.015   4.687
34991W        W94252  36.497  37.972   2.214
34992W        W94253  33.387  16.567   9.975
34993W        W94254  41.929  40.478  12.040
34994W        W94255   9.765  12.774   4.708
34995W        W94256  36.406  30.543   2.661
34996W        W94257  33.412  26.682  14.916
34997W        W94258  44.955  19.746   0.951
34998W        W94259  44.436  26.140  13.343
34999W        W94260  12.704  25.057  12.039
35000W        W94261  31.082  15.249  13.829
35001W        W94262   7.680  13.331   2.799
35002W        W94263  38.855  26.473  14.505
35003W        W94264  15.732  33.934  12.865
35004W        W94265  35.499   3.713  13.331
35005W        W94266  41.982  13.762  14.509
35006W        W94267  12.180   8.749  11.080
35007W        W94268   6.884  40.003   4.314
35008W        W94269  40.864  38.432   2.417
35009W        W94270  39.454  26.471   4.687
35010W        W94271  13.759  28.016  10.036
35011W        W94272   3.756  18.118  14.418
35012W        W94273  18.216  10.788  12.835
35013W        W94274  19.678  18.676   3.302
35014W        W94275  43.407  33.578  12.381
35015W        W94276  18.287  36.046   0.327
35016W        W94277   9.256  44.364   2.242
35017W        W94278  44.986  13.717  11.464
35018W        W94279  31.446  41.918   0.423
35019W        W94280  37.368  32.394   2.729
35020W        W94281  42.342  21.594  14.313
35021W        W94282  38.454  34.084   9.927
35022W        W94283  44.260  27.124  10.423
35023W        W94284  19.666  29.648  13.401
35024W        W94285  10.803  11.221  13.895
35025W        W94286  10.836  18.283   0.395
35026W        W94287  44.306  34.114  10.975
35027W        W94288  38.496   5.785   3.730
35028W        W94289   9.850   5.301  12.826
35029W        W94290  11.694  19.678  10.918
35030W        W94291   1.457   7.360  12.957
35031W        W94292  21.542  12.711  10.436
35032W        W94293  36.930   4.255  11.572
35033W        W94294  40.383  19.043   1.385
35034W        W94295  41.919  18.772   1.825
35035W        W94296  28.184  21.017   0.346
35036W        W94297  18.236  25.970  10.946
35037W        W94298  23.195   8.756   1.223
35038W        W94299  42.413  37.523   4.732
35039W        W94300  25.171  25.474  11.562
35040W        W94301  31.641   6.251   1.295
35041W        W94302   5.855  44.436  10.557
35042W        W94303  41.392  40.040   3.812
35043W        W94304  19.641  43.850   4.771
35044W        W94305  38.903  35.999   3.238
35045W        W94306   2.953  28.678   3.742
35046W        W94307   7.837  33.042   2.753
35047W        W94308  37.501   6.891   2.702
35048W        W94309  14.308  13.304   3.685
35049W        W94310  27.098  11.268   4.262
35050W        W94311  13.661   2.240   3.229
35051W        W94312  21.582  14.664  13.467
35052W        W94313  37.019  30.119  10.445
35053W        W94314  22.640   2.736   0.269
35054W        W94315  15.319   8.691   3.681
35055W        W94316  35.013  31.574   0.477
35056W        W94317  44.880  14.095  11.612
35057W        W94318  23.105  36.924  10.605
35058W        W94319  44.002   2.398   3.387
35059W        W94320  37.911  10.862   3.315
35060W        W94321  32.417  18.782  12.497
35061W        W94322  25.582  18.219   1.266
35062W        W94323   5.815  37.957  11.536
35063W        W94324  10.266  16.576  12.480
35064W        W94325  31.544  36.892  12.834
35065W        W94326  40.000  11.704  14.773
35066W        W94327   6.799  12.236  14.961
35067W        W94328  24.576  23.632  12.396
35068W        W94329  22.721   1.892   1.779
35069W        W94330  42.473   8.686   2.717
35070W        W94331  17.638   9.336   0.455
35071W        W94332   9.852  29.076  12.845
35072W        W94333  21.029  43.313   3.745
35073W        W94334   1.265   3.813  14.418
35074W        W94335  26.996   1.906  13.502
35075W        W94336  25.533  43.487  14.012
35076W        W94337  15.106   7.366  11.992
35077W        W94338  34.042  41.430   5.235
35078W        W94339   0.783  43.405   2.870
35079W        W94340  35.388  35.540  10.980
35080W        W94341  41.971  26.175   1.721
35081W        W94342  19.216  32.060   3.762
35082W        W94343  20.056  11.814   2.893
35083W        W94344  11.247  23.112   2.248
35084W        W94345  27.180  22.184   2.903
35085W        W94346  31.133  26.072   1.272
35086W        W94347   9.664   9.172   3.151
35087W        W94348  37.085  35.586   2.210
35088W        W94349  17.761  43.471   2.803
35089W        W94350   9.289  28.545   0.924
35090W        W94351   0.422  35.584  14.370
35091W        W94352  39.914  24.706  13.421
35092W        W94353  38.890   1.897   5.157
35093W        W94354  18.283  40.326  11.919
35094W        W94355  24.118   9.885  13.905
35095W        W94356  28.581  37.016   4.337
35096W        W94357  30.563   4.775   4.828
35097W        W94358  35.993  28.670  11.422
35098W        W94359  28.968  22.093   4.183
35099W        W94360  42.410   4.850  11.402
35100W        W94361  35.561   8.202  11.985
35101W        W94362  28.559   2.731  11.934
35102W        W94363  38.393   0.800   0.802
35103W        W94364  40.303  16.302  12.075
35104W        W94365  34.969  34.066  11.575
35105W        W94366  31.613  10.348   5.705
35106W        W94367   2.393  28.948   0.965
35107W        W94368  26.169  31.127   0.284
35108W        W94369  13.657  36.425   1.407
35109W        W94370  29.030  28.001  14.295
35110W        W94371  24.617  27.116  14.505
35111W        W94372   1.872  12.355  14.403
35112W        W94373  37.385   7.186  14.960
35113W        W94374   1.329  36.927  10.525
35114W        W94375  27.941   1.809  11.925
35115W        W94376  12.318  12.683   4.147
35116W        W94377  30.506   3.723   2.695
35117W        W94378   6.711  21.046   0.366
35118W        W94379  13.259  11.321  14.486
35119W        W94380  41.033  32.583  12.467
35120W        W94381   6.282   1.898   0.415
35121W        W94382  24.175  36.448  13.532
35122W        W94383  26.116  17.644   0.794
35123W        W94384  12.835  25.024  14.291
35124W        W94385   3.257  35.006  11.941
35125W        W94386   0.909   4.297  14.336
35126W        W94387  42.393  20.708   0.934
35127W        W94388   1.427  21.146   4.130
35128W        W94389  39.554  30.427  10.483
35129W        W94390  32.493  33.109  10.935
35130W        W94391  33.401  26.977   3.629
35131W        W94392  33.418   3.400  13.497
35132W        W94393  10.833  24.018   4.195
35133W        W94394  30.027   2.841  11.997
35134W        W94395  20.596  23.508   3.704
35135W        W94396  10.314  43.930  11.428
35136W        W94397  30.515  16.787  14.821
35137W        W94398  31.147  40.414  12.981
35138W        W94399   3.437   0.758  11.937
35139W        W94400  23.143  21.596   2.226
35140W        W94401  22.250  29.616  12.016
35141W        W94402  14.188  12.121   2.710
35142W        W94403  40.415  35.596   5.576
35143W        W94404  10.195  15.206  12.427
35144W        W94405  31.605   6.220   0.923
35145W        W94406  20.216  34.426   2.692
35146W        W94407  25.566   3.877  12.480
35147W        W94408  41.949   4.380   4.134
35148W        W94409   2.810  37.890   3.852
35149W        W94410  16.645  43.991  12.572
35150W        W94411  33.504  37.034   3.857
35151W        W94412   9.293  22.248   1.875
35152W        W94413  38.025  21.580  12.971
35153W        W94414   6.399  15.091   1.233
35154W        W94415  17.241  38.354  11.056
35155W        W94416  27.621  40.537  12.960
35156W        W94417  16.788  14.147  13.538
35157W        W94418  39.534  28.967   2.781
35158W        W94419  31.570   9.260   3.720
35159W        W94420  10.223  44.844  11.089
35160W        W94421  17.565  39.383   4.171
35161W        W94422  40.810  27.604  13.862
35162W        W94423  41.451  39.003   1.874
35163W        W94424  20.179  32.016  12.837
35164W        W94425  13.184  38.064   4.114
35165W        W94426  34.054  42.775  10.028
35166W        W94427  42.801  22.109   4.697
35167W        W94428  11.312  29.107   1.419
35168W        W94429   3.955  33.102  13.905
35169W        W94430  13.842  14.099  12.097
35170W        W94431  39.416   3.884  10.462
35171W        W94432  34.423  19.231   2.735
35172W        W94433  29.568  38.502  14.780
35173W        W94434  10.843  23.665  12.343
35174W        W94435  44.904  19.136  14.974
35175W        W94436  42.883  15.159  10.434
35176W        W94437  24.625  11.204   1.763
35177W        W94438  23.692  25.053   1.447
35178W        W94439  15.253   0.349  14.425
35179W        W94440  15.303  20.267  10.958
35180W        W94441  29.648  23.541   4.635
35181W        W94442  39.511  36.491  13.342
35182W        W94443  34.931  22.116   4.333
35183W        W94444  24.980  15.777   3.242
35184W        W94445   9.763  22.626  12.001
35185W        W94446  28.539   9.281   3.321
35186W        W94447  21.741  37.437  11.127
35187W        W94448  43.978  39.435   0.398
35188W        W94449  34.571  27.121   0.303
35189W        W94450  21.196  29.486   0.390
35190W        W94451  42.290  35.440  13.823
35191W        W94452  27.089  20.272  13.545
35192W        W94453  16.691  30.492   1.909
35193W        W94454   8.205  30.947   2.885
35194W        W94455  33.910  18.288   0.816
35195W        W94456  34.474  38.494  11.116
35196W        W94457  11.671  40.916   3.349
35197W        W94458   9.209  38.906  14.917
35198W        W94459  26.509  31.418   1.795
35199W        W94460  44.478  20.593   2.888
35200W        W94461  32.550  32.971  13.990
35201W        W94462  24.596  43.842   2.770
35202W        W94463  31.114  24.165  13.450
35203W        W94464  35.376  11.229   9.631
35204W        W94465  25.216   2.798   3.298
35205W        W94466  31.407  41.361  11.862
35206W        W94467  23.709   5.913  13.040
35207W        W94468  15.817   5.334  13.466
35208W        W94469  18.122  19.198  12.505
35209W        W94470   4.906  29.166   4.224
35210W        W94471  16.318  18.724  12.339
35211W        W94472  28.613  27.195  12.464
35212W        W94473   8.711  36.515   2.344
35213W        W94474  33.481  39.387   2.706
35214W        W94475  38.036   2.331   4.818
35215W        W94476   6.283  22.030   0.364
35216W        W94477  17.176  21.155   4.204
35217W        W94478  40.803  36.431  13.443
35218W        W94479   7.285  42.396   2.861
35219W        W94480  29.575   8.398  11.532
35220W        W94481   1.361  34.095   3.676
35221W        W94482  24.164  39.003   2.256
35222W        W94483  20.202  10.865  10.948
35223W        W94484   9.817  10.864  13.468
35224W        W94485  15.696  31.126   0.444
35225W        W94486   1.766  35.952   1.288
35226W        W94487   6.862   6.370   2.340
35227W        W94488  20.170  42.448   2.233
35228W        W94489  25.699  33.072   1.756
35229W        W94490   0.878   5.331   0.871
35230W        W94491   5.792  20.665  14.358
35231W        W94492  29.013  32.006   1.296
35232W        W94493  34.601  38.049  14.012
35233W        W94494  29.646  12.224   3.382
35234W        W94495   5.747  15.634   3.153
35235W        W94496  17.065  26.594  10.068
35236W        W94497  28.661  21.106  10.431
35237W        W94498   4.301  32.142   3.704
35238W        W94499  37.580  15.816   4.353
35239W        W94500  41.916  23.677  11.537
35240W        W94501  18.549  12.341  12.515
35241W        W94502  37.393  20.538   2.353
35242W        W94503   3.278   9.356  10.430
35243W        W94504  24.516  43.956  13.038
35244W        W94505  17.102  22.037  14.393
35245W        W94506  25.049   3.752  14.344
35246W        W94507  31.457  37.568   4.711
35247W        W94508  43.443  40.362  11.417
35248W        W94509  22.618  23.235  12.006
35249W        W94510  10.724  39.903  12.051
35250W        W94511  10.303   9.835  14.492
35251W        W94512  25.707   5.752  12.071
35252W        W94513  17.577  36.538  13.841
35253W        W94514  22.195   3.448  11.574
35254W        W94515  39.475  43.953  11.101
35255W        W94516  14.665  13.816   2.391
35256W        W94517  35.054   9.765  14.295
35257W        W94518  25.083   1.300  12.489
35258W        W94519   7.404  19.577   0.247
35259W        W94520  23.024  19.780  11.546
35260W        W94521  14.123   0.250   0.776
35261W        W94522  29.577   0.482   2.763
35262W        W94523  14.178  10.765   3.733
35263W        W94524  16.216  30.907  11.460
35264W        W94525  21.616  37.907   0.813
35265W        W94526  26.147  17.151   4.626
35266W        W94527  16.705  11.857   4.308
35267W        W94528  33.397  42.820  12.054
35268W        W94529  39.816  29.560  14.421
35269W        W94530  16.717  37.949  13.007
35270W        W94531  41.429  24.034  13.878
35271W        W94532  28.647  32.131  13.032
35272W        W94533  20.046  12.346  12.387
35273W        W94534  10.176  19.658   2.210
35274W        W94535   3.423   9.844  14.987
35275W        W94536  44.322   4.412  11.491
35276W        W94537   4.354  28.657  12.051
35277W        W94538  21.022  21.191   1.711
35278W        W94539  31.043  44.913   4.161
35279W        W94540  42.962  14.728  11.402
35280W        W94541  34.043   2.445  12.374
35281W        W94542  41.031  42.850   0.370
35282W        W94543  44.356   2.865   2.838
35283W        W94544  22.158  44.330  14.996
35284W        W94545  27.688   5.744   3.238
35285W        W94546   2.438  29.553   2.284
35286W        W94547  27.154  42.804   4.695
35287W        W94548   4.295   0.922   0.772
35288W        W94549  33.580  40.309  14.450
35289W        W94550   4.796   0.770   1.695
35290W        W94551  23.580  34.535   3.372
35291W        W94552   9.743  37.514   1.848
35292W        W94553  12.145  14.691   4.155
35293W        W94554   0.932  43.904   1.829
35294W        W94555  34.115  31.036  11.515
35295W        W94556  35.576  32.407   3.159
35296W        W94557  34.869  11.286  14.473
35297W        W94558   0.965  26.640  12.978
35298W        W94559  27.989  11.198   3.202
35299W        W94560   2.855  13.136  14.823
35300W        W94561  34.014  29.594  12.380
35301W        W94562  10.695   2.350   2.366
35302W        W94563  10.202   8.789   3.666
35303W        W94564  39.417  12.148   2.717
35304W        W94565  10.385  41.809  14.427
35305W        W94566  14.766  25.999   9.539
35306W        W94567  32.637  11.292   0.834
35307W        W94568   2.939   3.412   3.287
35308W        W94569  33.906  21.249  13.496
35309W        W94570  35.528  38.418  11.008
35310W        W94571  16.114   5.747  14.936
35311W        W94572  14.595  42.425   2.191
35312W        W94573  33.881  22.553  14.781
35313W        W94574  19.760   4.749   1.270
35314W        W94575  25.157   7.857  12.517
35315W        W94576  32.629  41.478  14.429
35316W        W94577  23.060   9.832   4.732
35317W        W94578  43.776  42.426   2.340
35318W        W94579  22.252  27.665   3.267
35319W        W94580  28.520  26.525  14.955
35320W        W94581   1.475   8.684  12.951
35321W        W94582  31.441  26.540   0.377
35322W        W94583  37.039   7.727  12.392
35323W        W94584  22.223  27.117   1.821
35324W        W94585  36.847  33.905   4.331
35325W        W94586  39.863   4.432  11.006
35326W        W94587  13.305   5.895   2.822
35327W        W94588  28.145  44.880  14.907
35328W        W94589  33.565  10.812   4.717
35329W        W94590  29.965  37.577  11.023
35330W        W94591  33.107  21.067  12.394
35331W        W94592   0.889   1.902   3.196
35332W        W94593   6.746  17.135  14.002
35333W        W94594  29.005  11.197   3.154
35334W        W94595  10.254  42.909  10.555
35335W        W94596  42.435  42.822   2.853
35336W        W94597  30.078  12.626  12.053
35337W        W94598   0.844   3.851  10.156
35338W        W94599  27.195  11.287   2.675
35339W        W94600  34.916  14.638  13.798
35340W        W94601  22.110  41.833  13.314
35341W        W94602  25.170  11.710   4.692
35342W        W94603  28.679  27.678  12.412
35343W        W94604   3.319  20.072   4.305
35344W        W94605   9.838  44.756   0.917
35345W        W94606  13.190   4.345  13.874
35346W        W94607  44.931  24.130  14.335
35347W        W94608  26.587  44.263   0.917
35348W        W94609   9.303   3.327  10.950
35349W        W94610  34.081   0.976   4.155
35350W        W94611  17.306   1.391   0.733
35351W        W94612   3.736  38.517  13.334
35352W        W94613  23.629  40.919   1.434
35353W        W94614  34.398  11.738   5.658
35354W        W94615   4.798  31.499   4.758
35355W        W94616   0.344  27.175   1.790
35356W        W94617  39.400  40.967   2.737
35357W        W94618   6.369  15.793   5.183
35358W        W94619  20.748  35.089  11.585
35359W        W94620   9.835  44.313   3.288
35360W        W94621  37.474  43.851   2.417
35361W        W94622  39.060  39.378  13.828
35362W        W94623  15.631  32.536   4.121
35363W        W94624  35.583  11.786  10.583
35364W        W94625  41.862  41.024  13.444
35365W        W94626   7.261  14.305  10.524
35366W        W94627  20.238  24.706   2.388
35367W        W94628  34.408  21.581   3.663
35368W        W94629  28.955  18.195  14.340
35369W        W94630  20.644  32.544   2.880
35370W        W94631   7.732  17.635  10.942
35371W        W94632  43.814   5.394   4.612
35372W        W94633  18.660  30.639   4.180
35373W        W94634  21.113  41.514  10.458
35374W        W94635  12.287  31.557  11.516
35375W        W94636  23.566  19.128  11.414
35376W        W94637   8.761  28.110  11.600
35377W        W94638  18.147  14.202   3.336
35378W        W94639  13.651  22.655   0.859
35379W        W94640  29.984  32.885   2.879
35380W        W94641  15.187  27.083  14.367
35381W        W94642  21.608  32.947   1.820
35382W        W94643  17.163  29.594   1.396
35383W        W94644  16.767  33.530  13.939
35384W        W94645   4.391  15.147  13.865
35385W        W94646  22.618  11.195   2.721
35386W        W94647   4.904  26.020   4.697
35387W        W94648  18.591  15.244   2.803
35388W        W94649  13.769  17.581   4.307
35389W        W94650  34.891   2.874   1.781
35390W        W94651  17.602  38.491   1.704
35391W        W94652  34.571  34.427   3.846
35392W        W94653  20.121  10.351   4.223
35393W        W94654  42.345  41.032  13.846
35394W        W94655  34.369  10.335  14.768
35395W        W94656  21.243  28.015  13.473
35396W        W94657   3.898  26.039   2.204
35397W        W94658  11.660  43.832  14.784
35398W        W94659  37.068  31.638  11.542
35399W        W94660   9.675  30.640   0.731
35400W        W94661  20.110  22.594  13.440
35401W        W94662  22.687  23.985   3.235
35402W        W94663  42.517  39.434   0.896
35403W        W94664  12.833  30.574   4.730
35404W        W94665  25.136  39.910  11.093
35405W        W94666  25.512   6.814   3.672
35406W        W94667  30.974  26.185   3.828
35407W        W94668  28.055  24.118  10.097
35408W        W94669  25.963  42.391   3.285
35409W        W94670  12.648   4.940  12.522
35410W        W94671  20.030  36.881  14.821
35411W        W94672  30.920  26.559   3.352
35412W        W94673  37.006  23.062   0.413
35413W        W94674  19.684  40.842  10.602
35414W        W94675  13.681  28.620   5.127
35415W        W94676   5.407   0.811  11.402
35416W        W94677  15.748  44.770   0.917
35417W        W94678   3.251  29.467  14.331
35418W        W94679  28.187  28.077   2.760
35419W        W94680  12.220   2.458  13.313
35420W        W94681  34.510  35.388  12.828
35421W        W94682  11.289  41.984   0.892
35422W        W94683   2.463  13.270   5.320
35423W        W94684  18.591  22.121   4.172
35424W        W94685   0.469  30.548   0.433
35425W        W94686  23.994  13.734  12.024
35426W        W94687  23.007  22.192   9.613
35427W        W94688  40.535  12.693   2.279
35428W        W94689  16.125  34.490   3.320
35429W        W94690  28.105   3.801  13.346
35430W        W94691  33.524  14.199   1.336
35431W        W94692  37.018  27.178   2.195
35432W        W94693  11.127  23.224   3.285
35433W        W94694  31.942  28.576  11.881
35434W        W94695   8.756  43.349  11.593
35435W        W94696  36.543   7.886  13.484
35436W        W94697  20.684  33.553  11.994
35437W        W94698  32.045   7.777   0.273
35438W        W94699   5.338  10.856  14.997
35439W        W94700  31.420  21.186   3.843
35440W        W94701  30.646  33.615  10.419
35441W        W94702  21.201  43.422   2.379
35442W        W94703  35.572  32.553   4.144
35443W        W94704  36.389  14.102   2.824
35444W        W94705  24.065  22.611  11.558
35445W        W94706   0.277  10.750  11.568
35446W        W94707   2.418  34.457   3.822
35447W        W94708  41.339  29.137  11.377
35448W        W94709  35.461  44.810   9.937
35449W        W94710  39.818  37.505   0.851
35450W        W94711  12.321  24.157   2.253
35451W        W94712  32.019  18.120   2.880
35452W        W94713   3.316  37.359  13.881
35453W        W94714  43.515  40.983   4.613
35454W        W94715   2.728   5.402  13.914
35455W        W94716   3.773  28.552  10.987
35456W        W94717  38.970  28.096  14.346
35457W        W94718  25.671  42.845   9.968
35458W        W94719  14.773  24.613  14.412
35459W        W94720  20.673  16.169   3.326
35460W        W94721  39.473  31.610   5.131
35461W        W94722  20.692  12.263   0.461
35462W        W94723  26.570  17.732   3.827
35463W        W94724  30.597  35.872  14.461
35464W        W94725  36.378  32.400   0.921
35465W        W94726   7.721  35.924  13.540
35466W        W94727  30.553   0.846   2.406
35467W        W94728  29.148  11.168  14.988
35468W        W94729  37.035  13.723  12.449
35469W        W94730  20.705  36.956   3.358
35470W        W94731  26.493  33.081  14.366
35471W        W94732  16.810   0.954  12.470
35472W        W94733   0.318   6.715  13.824
35473W        W94734  11.182  19.736   1.871
35474W        W94735  40.906  37.415   2.307
35475W        W94736  31.974  12.651   2.307
35476W        W94737  42.015  23.574   1.834
35477W        W94738  39.426  22.161   1.892
35478W        W94739  32.478  27.052  14.821
35479W        W94740  19.779  36.910  13.905
35480W        W94741   0.762   2.738   2.827
35481W        W94742  42.299  11.689   4.670
35482W        W94743   3.777   5.729   4.810
35483W        W94744  15.588  21.652   1.811
35484W        W94745  39.413   1.741  14.376
35485W        W94746  11.227  21.211   2.225
35486W        W94747  33.055  27.473   2.379
35487W        W94748  19.284   2.909  14.484
35488W        W94749  44.287  11.624   0.415
35489W        W94750  15.229   4.249  12.853
35490W        W94751   5.353  15.609   1.741
35491W        W94752  39.366  36.011   0.328
35492W        W94753  13.676  12.665  13.541
35493W        W94754  20.639  38.545   3.268
35494W        W94755  28.501  10.699  11.436
35495W        W94756  18.564   4.888   1.756
35496W        W94757  35.922   0.818   4.734
35497W        W94758  20.183  13.704   0.775
35498W        W94759  43.429  26.459  12.911
35499W        W94760  26.528  20.188   4.685
35500W        W94761  21.097  41.888   2.194
35501W        W94762  44.828  14.742  13.803
35502W        W94763  31.440  37.351  10.590
35503W        W94764  21.195  25.175  14.829
35504W        W94765  42.380  31.472  11.009
35505W        W94766  39.349  15.781  10.124
35506W        W94767   9.200  15.129   9.587
35507W        W94768  33.078  36.887   3.685
35508W        W94769   8.284  19.631  13.338
35509W        W94770  25.188   3.394  12.895
35510W        W94771   0.439  37.420  11.610
35511W        W94772  31.599  20.566  10.613
35512W        W94773  34.073  34.091  12.454
35513W        W94774  34.991   3.825  12.571
35514W        W94775  13.124  30.919  10.516
35515W        W94776  22.707  11.626   4.228
35516W        W94777  40.462  43.449   4.311
35517W        W94778  11.325  40.384   1.327
35518W        W94779  19.641  24.168   0.808
35519W        W94780   4.803  30.557   1.420
35520W        W94781  32.027   6.410   0.726
35521W        W94782  34.952  36.409   1.817
35522W        W94783   1.943   2.429   2.194
35523W        W94784  36.441  30.423  11.910
35524W        W94785  29.434   2.396  11.867
35525W        W94786  15.817  28.974   2.885
35526W        W94787  37.560  12.260   3.718
35527W        W94788  43.884  19.212  14.284
35528W        W94789   4.422  39.363   1.695
35529W        W94790   0.304  30.057   1.274
35530W        W94791   8.233  28.978   3.300
35531W        W94792  40.014  37.391   4.801
35532W        W94793  36.021   2.337  13.916
35533W        W94794  31.516  26.038   2.809
35534W        W94795  24.576  16.767  14.003
35535W        W94796  24.511  34.969  11.551
35536W        W94797  12.172  31.064  12.918
35537W        W94798  43.999  37.871   2.787
35538W        W94799   1.309  11.646  14.501
35539W        W94800  23.494  26.681  14.806
35540W        W94801  12.133   0.434  11.100
35541W        W94802  21.685  15.185   2.296
35542W        W94803   6.774  16.609  11.446
35543W        W94804   7.197  24.113  10.541
35544W        W94805  34.369  20.105  10.452
35545W        W94806  19.246   0.750   2.306
35546W        W94807  41.470   9.347   1.444
35547W        W94808  42.025  16.105   1.778
35548W        W94809   6.303  26.126   4.312
35549W        W94810   8.692  41.377   2.279
35550W        W94811  33.461  28.121  10.599
35551W        W94812  10.214  27.556  10.112
35552W        W94813   3.272   2.391   5.281
35553W        W94814   1.363  18.765  14.003
35554W        W94815  44.828  37.418   1.801
35555W        W94816  39.844  32.401  12.097
35556W        W94817  35.591  38.463   4.127
35557W        W94818  15.327   4.261   3.647
35558W        W94819  27.088  44.265  10.973
35559W        W94820   6.183  26.474   3.282
35560W        W94821  18.678  12.125   4.667
35561W        W94822  33.984  23.494  12.035
35562W        W94823  32.140   9.651   5.274
35563W        W94824  32.902  24.695   0.345
35564W        W94825  42.480  19.656  13.792
35565W        W94826  32.525   2.317  10.619
35566W        W94827  10.378  28.109   4.186
35567W        W94828  10.295  23.501   2.869
35568W        W94829  27.947   3.796  12.545
35569W        W94830  41.466  32.614   4.279
35570W        W94831  20.213  13.786  11.068
35571W        W94832  10.240  42.856  13.034
35572W        W94833   2.248   7.341  12.505
35573W        W94834  27.999  14.246   1.932
35574W        W94835  19.240  38.045  10.424
35575W        W94836  18.555   9.269  14.881
35576W        W94837  12.724  28.488  14.770
35577W        W94838  26.682  40.425  11.451
35578W        W94839  16.181   1.266  11.434
35579W        W94840  39.920  10.760   2.876
35580W        W94841  30.963  15.708   0.433
35581W        W94842  43.950   5.731   1.932
35582W        W94843  22.562  25.473   1.878
35583W        W94844  18.267  28.512   1.908
35584W        W94845  20.054  31.638   0.255
35585W        W94846  12.238  38.047   4.752
35586W        W94847  37.437  38.493   0.948
35587W        W94848  16.141  37.983  11.095
35588W        W94849  44.839   9.300  12.887
35589W        W94850   3.219  33.533  12.496
35590W        W94851   0.866  31.967  13.475
35591W        W94852  30.011  17.576  11.588
35592W        W94853   1.299  13.772   1.798
35593W        W94854  38.880  41.806  13.478
35594W        W94855   1.778   2.848   3.355
35595W        W94856  35.601  41.987  13.924
35596W        W94857  41.526  37.891  11.893
35597W        W94858  43.470  21.194   0.340
35598W        W94859  34.419  31.480   4.737
35599W        W94860  40.026  34.560   1.732
35600W        W94861  35.942  28.053   1.444
35601W        W94862   0.291  42.500   2.209
35602W        W94863  26.951  24.998  13.386
35603W        W94864  20.209  43.852  11.099
35604W        W94865  21.201  31.472   4.271
35605W        W94866  43.920  21.717   0.803
35606W        W94867  13.722  41.002  10.576
35607W        W94868   1.481  12.788   3.722
35608W        W94869  19.576  24.168  10.904
35609W        W94870   2.331  42.868  10.103
35610W        W94871  12.341  15.314  12.920
35611W        W94872  30.508  43.347   2.372
35612W        W94873  10.212  22.247   2.314
35613W        W94874   3.914  13.297  13.374
35614W        W94875   8.172   9.774  14.911
35615W        W94876  37.519  41.851   0.327
35616W        W94877  26.695  18.169  13.403
35617W        W94878  32.912  42.307  10.061
35618W        W94879  35.859   4.447  14.834
35619W        W94880  32.936  41.837   2.885
35620W        W94881  37.373  29.566   0.844
35621W        W94882  30.011  26.616   1.854
35622W        W94883   2.431  22.048  10.959
35623W        W94884  43.280  21.522  13.375
35624W        W94885  24.085  11.218   0.381
35625W        W94886  11.794  40.523   1.224
35626W        W94887  28.964  33.514   0.365
35627W        W94888  30.621  39.404  10.506
35628W        W94889   2.782  39.454   4.167
35629W        W94890  28.530   0.879  11.568
35630W        W94891  31.409  41.918   2.729
35631W        W94892  42.511   2.790   0.731
35632W        W94893  44.371  33.973   4.820
35633W        W94894  11.296  36.546   4.750
35634W        W94895  31.123  42.987  12.514
35635W        W94896  25.078  17.285  12.867
35636W        W94897  44.487  24.640   2.328
35637W        W94898  35.495  39.970   3.258
35638W        W94899  30.095  30.939   1.762
35639W        W94900   5.222  16.662  13.422
35640W        W94901   9.867  29.991   3.631
35641W        W94902  18.687   0.319  14.760
35642W        W94903  28.170  42.862  11.917
35643W        W94904  11.742  34.929   4.697
35644W        W94905  23.529  29.632  13.376
35645W        W94906  12.854  30.075   1.427
35646W        W94907  42.876  35.064  10.425
35647W        W94908  43.307  17.174  11.582
35648W        W94909  28.936  36.401  12.923
35649W        W94910  24.720   0.832   3.782
35650W        W94911   4.422  16.594   0.276
35651W        W94912  38.013   7.859   0.276
35652W        W94913  24.130  34.037  14.862
35653W        W94914   5.847   0.412  12.984
35654W        W94915  31.044   4.442  11.987
35655W        W94916  21.643  11.828  12.873
35656W        W94917   5.238  23.203   2.852
35657W        W94918  26.481  42.862   0.465
35658W        W94919  12.189  20.697  13.456
35659W        W94920  13.636  23.148   3.267
35660W        W94921  41.506  16.220   4.616
35661W        W94922  19.258  27.191   4.779
35662W        W94923  19.682   3.895   0.248
35663W        W94924  39.394  21.053   2.417
35664W        W94925  28.521  14.181  11.979
35665W        W94926  29.669   3.863  12.494
35666W        W94927  41.941  37.018   4.644
35667W        W94928  41.019  13.664  13.888
35668W        W94929   2.288  20.752   4.713
35669W        W94930  14.741  28.033  13.367
35670W        W94931  15.720   5.835  12.039
35671W        W94932  23.503  22.247   4.680
35672W        W94933  42.421   0.443  12.932
35673W        W94934  18.759  24.566   2.764
35674W        W94935  29.157  16.138  13.437
35675W        W94936  21.021  29.156  12.404
35676W        W94937  10.785   1.256  13.870
35677W        W94938  26.150  38.984  14.031
35678W        W94939  29.656  34.865   2.758
35679W        W94940  19.691  44.281   1.434
35680W        W94941  20.094  26.060   0.444
35681W        W94942  17.256   3.830   4.628
35682W        W94943  26.181  35.038   3.305
35683W        W94944   2.442  25.164  13.421
35684W        W94945  20.757  18.648  14.442
35685W        W94946   3.905  11.230  13.374
35686W        W94947   6.300   3.228  11.611
35687W        W94948  39.990   2.286   2.721
35688W        W94949  34.885  25.200   0.782
35689W        W94950  17.142  34.498   3.716
35690W        W94951   1.417  26.456  14.776
35691W        W94952  40.868  43.276   0.813
35692W        W94953  23.611  10.320  12.549
35693W        W94954  29.047  44.447   4.748
35694W        W94955  39.314  34.420   2.329
35695W        W94956  28.540   0.430  14.427
35696W        W94957  16.801   1.439  12.955
35697W        W94958   8.244   0.302   1.368
35698W        W94959  31.544  32.128   3.860
35699W        W94960   8.846  41.823   5.090
35700W        W94961  20.615   8.252  14.445
35701W        W94962  33.935  28.943   4.159
35702W        W94963  22.551   4.363   0.745
35703W        W94964  42.508  18.786  10.434
35704W        W94965   2.264  27.080  12.872
35705W        W94966   3.932  42.361  13.391
35706W        W94967   0.984  24.605  10.422
35707W        W94968  24.575   8.356  10.580
35708W        W94969  19.078  44.297   4.729
35709W        W94970   5.255  19.177   2.894
35710W        W94971  41.945  29.482  12.577
35711W        W94972  16.153  40.474   3.229
35712W        W94973  29.174  12.670   3.640
35713W        W94974  33.980  36.346   0.405
35714W        W94975  17.240   7.756  10.161
35715W        W94976  29.557  13.770  11.908
35716W        W94977  40.325   6.198   5.172
35717W        W94978  41.452  36.500   1.719
35718W        W94979  14.210   4.398   2.844
35719W        W94980  25.640  27.073   2.836
35720W        W94981  30.652  37.949  12.997
35721W        W94982  37.924   9.745   3.324
35722W        W94983  42.811  31.074   4.602
35723W        W94984  18.230  14.621  10.891
35724W        W94985   0.446   1.435   0.441
35725W        W94986   8.867  34.904  13.020
35726W        W94987   4.823  43.403   4.284
35727W        W94988   4.263  36.470  13.346
35728W        W94989  10.764  30.967   0.463
35729W        W94990   2.308  10.298   4.234
35730W        W94991  19.119  15.090   4.783
35731W        W94992  10.742  43.395   4.315
35732W        W94993  28.081   5.283   9.930
35733W        W94994  43.377  14.262   1.867
35734W        W94995   2.366  22.202   0.376
35735W        W94996  14.324  19.627  12.382
35736W        W94997  28.112   8.735  14.801
35737W        W94998   8.831  44.782  10.983
35738W        W94999   2.741  24.216  14.789
35739W        W95000   1.335   5.206  10.517
35740W        W95001   7.384  14.116   3.658
35741W        W95002   7.229  18.600  10.589
35742W        W95003   1.887   4.727  14.885
35743W        W95004  40.969  31.401  11.004
35744W        W95005  31.448   0.260  12.927
35745W        W95006  15.770  40.878   0.869
35746W        W95007   4.937  21.032   3.801
35747W        W95008   4.941   6.763   1.265
35748W        W95009  29.539  28.090   4.662
35749W        W95010  31.439   3.383  10.932
35750W        W95011  31.964  20.699   2.310
35751W        W95012  44.916  35.489   3.713
35752W        W95013  10.199  18.266   9.946
35753W        W95014  12.219  10.768  14.816
35754W        W95015  37.418  19.209   3.688
35755W        W95016  42.823  13.156   1.396
35756W        W95017   7.773   7.815   2.271
35757W        W95018  44.390  24.020   4.325
35758W        W95019  30.519  15.777  10.545
35759W        W95020  27.169  36.868  12.437
35760W        W95021  33.988  17.075   2.698
35761W        W95022  44.011   4.867   3.286
35762W        W95023  18.172  15.582   3.157
35763W        W95024   7.752  16.179  11.526
35764W        W95025  38.441  22.628  14.423
35765W        W95026   9.798  21.032   4.266
35766W        W95027  39.423  39.850   3.270
35767W        W95028   5.753  17.217  11.575
35768W        W95029  36.353   2.913   2.727
35769W        W95030  23.636   4.246   4.652
35770W        W95031  17.765  37.835   1.236
35771W        W95032  18.193   0.900   1.730
35772W        W95033   9.257  13.267   3.851
35773W        W95034  41.960   0.350  14.976
35774W        W95035  43.794  30.494   3.725
35775W        W95036  37.515   8.265   3.813
35776W        W95037  19.690   8.266  13.937
35777W        W95038  35.885  21.659   1.857
35778W        W95039   5.848   5.309  11.392
35779W        W95040  11.821  37.354  14.325
35780W        W95041  28.095  40.913   1.927
35781W        W95042  24.586  31.557  14.788
35782W        W95043   0.328  32.399   2.220
35783W        W95044  15.271  25.584   2.411
35784W        W95045  19.660  42.447  12.560
35785W        W95046  32.898  39.357  12.949
35786W        W95047  43.919  23.172  14.302
35787W        W95048   5.401  25.069  13.411
35788W        W95049  31.424  16.103  11.936
35789W        W95050  13.641   8.346  11.544
35790W        W95051   5.733  35.433  12.931
35791W        W95052   9.298   3.879   3.181
35792W        W95053  20.272  41.930   0.805
35793W        W95054  16.690   5.708  11.891
35794W        W95055  19.273  18.591   0.379
35795W        W95056  10.173  11.863   3.212
35796W        W95057  41.445  36.906   1.234
35797W        W95058  12.157   6.297   4.811
35798W        W95059  14.730  15.138  10.590
35799W        W95060   1.950  23.597  10.540
35800W        W95061  17.181  12.712   0.888
35801W        W95062  37.061  34.094   3.794
35802W        W95063  17.570  18.088  12.031
35803W        W95064  26.127   2.807   1.707
35804W        W95065  15.320  22.165  12.478
35805W        W95066   4.794  16.712  14.399
35806W        W95067  31.611  14.096  12.070
35807W        W95068  35.552  29.472   4.200
35808W        W95069  25.005   0.296  14.320
35809W        W95070  26.517  20.034  13.462
35810W        W95071   3.253  19.062   1.220
35811W        W95072  20.691  34.596  14.417
35812W        W95073  18.217   6.382   4.672
35813W        W95074   2.963  38.437  10.438
35814W        W95075  13.201  27.128  13.503
35815W        W95076  34.943  37.943   2.336
35816W        W95077  21.706   0.422  10.952
35817W        W95078   1.969  18.610   4.280
35818W        W95079  40.816  26.597  12.577
35819W        W95080   0.301  32.524   1.825
35820W        W95081  29.643  15.795   4.266
35821W        W95082  43.858  16.289  11.447
35822W        W95083  32.407  38.951   0.939
35823W        W95084  29.091  15.782  12.426
35824W        W95085  44.936   6.274  10.556
35825W        W95086  37.954  11.780  11.514
35826W        W95087  40.523  33.115  11.125
35827W        W95088  34.880  37.845   1.919
35828W        W95089  35.009  36.994  14.306
35829W        W95090  25.500  29.537  11.108
35830W        W95091   8.190  39.322   4.255
35831W        W95092  16.722  11.788  14.276
35832W        W95093  16.764  34.399   3.856
35833W        W95094  21.560  20.102   4.792
35834W        W95095  30.512   8.658   1.827
35835W        W95096  14.722  32.557   4.196
35836W        W95097  34.875  30.914   3.658
35837W        W95098   1.466  37.953  13.489
35838W        W95099   8.876  11.242  11.439
35839W        W95100  28.610  41.306  14.773
35840W        W95101   4.918  13.635  12.374
35841W        W95102  22.154   6.207  11.109
35842W        W95103  39.509   9.823   1.914
35843W        W95104  31.406  34.394   0.964
35844W        W95105   5.235  35.568  13.822
35845W        W95106  22.661  27.091   1.851
35846W        W95107   3.788  34.900  14.029
35847W        W95108  19.249  34.612   0.360
35848W        W95109  37.035  14.238   4.832
35849W        W95110  37.951  26.086   3.230
35850W        W95111   6.789   5.839  12.484
35851W        W95112  23.018  24.137   0.942
35852W        W95113  40.428  11.765  14.977
35853W        W95114   0.936  26.457   3.271
35854W        W95115  38.366  39.872   1.336
35855W        W95116   9.659  34.996   2.675
35856W        W95117  31.434  33.423   4.736
35857W        W95118  29.104  44.985  13.895
35858W        W95119  43.350   6.689   3.635
35859W        W95120  30.554   8.810  14.499
35860W        W95121   9.682  26.076   4.622
35861W        W95122  17.079  25.994  12.435
35862W        W95123  41.376   1.879  13.517
35863W        W95124  35.484   1.930  13.437
35864W        W95125  11.257  20.726   3.232
35865W        W95126  26.153  44.451   2.779
35866W        W95127   7.336   6.727  14.025
35867W        W95128  19.068   7.334   3.261
35868W        W95129  14.318  38.990  14.337
35869W        W95130  31.064   0.745   3.367
35870W        W95131  38.552  12.139   1.749
35871W        W95132   8.751  41.296  12.519
35872W        W95133  10.240   1.429  13.403
35873W        W95134  34.393  31.016  13.062
35874W        W95135  39.380  15.704   5.285
35875W        W95136  24.572  10.871   3.239
35876W        W95137  41.993  27.061  13.900
35877W        W95138  34.420   0.973  12.882
35878W        W95139  10.867  39.339  10.470
35879W        W95140  44.364   4.432  12.570
35880W        W95141  38.030  16.123   3.351
35881W        W95142  14.824  37.035   4.759
35882W        W95143  26.478  28.018  13.462
35883W        W95144   4.937  35.380   0.289
35884W        W95145  43.963   9.778   1.707
35885W        W95146   4.793  16.134   1.726
35886W        W95147  14.788  26.651   0.339
35887W        W95148  27.083  43.882   0.327
35888W        W95149   1.875  42.903   0.298
35889W        W95150  16.127  23.177   2.834
35890W        W95151   4.911   2.250   3.706
35891W        W95152   4.732  25.169  11.045
35892W        W95153  44.342  35.482  13.818
35893W        W95154  39.341  38.997  12.459
35894W        W95155  23.648  13.323   0.294
35895W        W95156  34.961   5.195  11.011
35896W        W95157   5.277  25.487   4.614
35897W        W95158  26.592   3.304  14.823
35898W        W95159  12.851  30.500  13.976
35899W        W95160  27.093  30.475  12.524
35900W        W95161  43.395  14.770   0.469
35901W        W95162   7.818  28.116  11.462
35902W        W95163  40.317  42.523  13.854
35903W        W95164   8.762   6.203   1.258
35904W        W95165  25.041  32.118  14.008
35905W        W95166  22.573  11.166  12.082
35906W        W95167  12.144  34.949   0.961
35907W        W95168  37.836  31.545  13.944
35908W        W95169  20.086  25.695   2.812
35909W        W95170  26.189  41.338   2.212
35910W        W95171  12.625  37.865  10.623
35911W        W95172  44.505  20.070   3.163
35912W        W95173  18.768  10.644   0.824
35913W        W95174   9.836  38.342  13.996
35914W        W95175   5.365   1.272  12.894
35915W        W95176  11.819  44.285   2.213
35916W        W95177  11.681  18.065  13.968
35917W        W95178   7.174  28.982   4.149
35918W        W95179  28.444  22.592   2.406
35919W        W95180  41.298   7.260  13.883
35920W        W95181  21.683  20.571  14.448
35921W        W95182  28.140  41.317  11.855
35922W        W95183   4.355  36.423  12.875
35923W        W95184  26.126  26.024  12.941
35924W        W95185  23.702  40.377  10.960
35925W        W95186  17.274  36.996   2.414
35926W        W95187  16.082  38.517  11.936
35927W        W95188  16.182  13.105   0.290
35928W        W95189  23.543  23.019  12.369
35929W        W95190  14.179   6.750   0.364
35930W        W95191  13.257  41.838   0.283
35931W        W95192   4.330   8.175  13.922
35932W        W95193   5.286   0.943  12.529
35933W        W95194   2.824  40.407   4.790
35934W        W95195  24.060  22.110   2.326
35935W        W95196  35.465   3.231   9.982
35936W        W95197  19.099   5.346   0.351
35937W        W95198  24.026  14.695   2.295
35938W        W95199  39.478  26.486  13.002
35939W        W95200   5.705   7.907   0.417
35940W        W95201  12.830  27.643   3.309
35941W        W95202  25.693   8.812  11.576
35942W        W95203  28.970  11.141  11.452
35943W        W95204  15.603  17.577   3.780
35944W        W95205  14.751  17.777  13.511
35945W        W95206  28.441  42.483   3.374
35946W        W95207  38.932  25.674   0.388
35947W        W95208  32.001  12.345  13.926
35948W        W95209  43.886  38.381  11.558
35949W        W95210  41.363  41.978  12.883
35950W        W95211  37.536  19.175  10.514
35951W        W95212   3.226  23.242   4.248
35952W        W95213  40.955   9.733  13.405
35953W        W95214  33.615   1.877   0.773
35954W        W95215  40.471  14.262  13.020
35955W        W95216  32.993  41.857  11.887
35956W        W95217  41.488  37.453  14.290
35957W        W95218  21.700  39.894   1.788
35958W        W95219  18.618  18.120  10.616
35959W        W95220   7.904  18.082  10.903
35960W        W95221  41.524  20.576   3.837
35961W        W95222   9.704  15.777   1.694
35962W        W95223  36.587  28.159   4.745
35963W        W95224  43.959  44.835  13.519
35964W        W95225  27.947  24.532  14.841
35965W        W95226  24.716  21.697   0.429
35966W        W95227  17.680   5.883   0.841
35967W        W95228  28.002  21.125  11.557
35968W        W95229  13.716  40.869   0.305
35969W        W95230  36.347  26.058  11.932
35970W        W95231  12.362  20.092   2.277
35971W        W95232  17.719  10.706   2.663
35972W        W95233  12.778   9.755   3.375
35973W        W95234  30.651   0.482   1.230
35974W        W95235   0.794  39.450   1.386
35975W        W95236  13.165  10.877   1.314
35976W        W95237  14.235  10.235   0.444
35977W        W95238   8.363  12.684   5.161
35978W        W95239  31.551  24.224  14.451
35979W        W95240   0.800  11.202  13.414
35980W        W95241  15.264   8.177  14.991
35981W        W95242  36.990  15.738   2.310
35982W        W95243   1.966  12.684   3.748
35983W        W95244   4.339   3.316  13.868
35984W        W95245  42.885  38.037  12.859
35985W        W95246  37.392  40.035  13.991
35986W        W95247  26.109   5.826   1.299
35987W        W95248  25.477  26.536   0.372
35988W        W95249  38.339  39.436   0.262
35989W        W95250  44.770  36.477  12.083
35990W        W95251   2.319  12.755   4.354
35991W        W95252  30.074  36.524  14.824
35992W        W95253  25.520  33.489  10.520
35993W        W95254  23.609   5.849  12.520
35994W        W95255  35.053  14.740  14.311
35995W        W95256  13.152  40.961   2.823
35996W        W95257   5.216  30.995  13.375
35997W        W95258   3.275  31.571   2.299
35998W        W95259  31.605  23.023   1.214
35999W        W95260  31.963   3.254   0.762
36000W        W95261   5.258  30.525  12.940
36001W        W95262   0.804  15.207  14.486
36002W        W95263  29.609   9.780   2.268
36003W        W95264  12.130   2.722  12.896
36004W        W95265  17.258  37.881   2.301
36005W        W95266  33.016  35.867   2.884
36006W        W95267  41.882  15.704   5.211
36007W        W95268  16.226   6.301   4.830
36008W        W95269  41.393  27.025  11.891
36009W        W95270  24.560  15.096   1.410
36010W        W95271  40.352  33.583  11.987
36011W        W95272  11.182  21.202  11.859
36012W        W95273  25.691   9.240  12.544
36013W        W95274  23.176  10.350   1.224
36014W        W95275  25.616  14.141   4.298
36015W        W95276  15.814  24.126   0.376
36016W        W95277  14.201  36.414  14.481
36017W        W95278   3.840   5.834   3.265
36018W        W95279  27.635  14.622   0.767
36019W        W95280  25.486   2.243   0.441
36020W        W95281  29.664  32.427   4.736
36021W        W95282  42.454   9.354   4.217
36022W        W95283  12.317   1.777  10.003
36023W        W95284  25.477  19.634  14.328
36024W        W95285  29.429  43.798  12.374
36025W        W95286  28.527   2.774  14.902
36026W        W95287  35.909  35.436   1.325
36027W        W95288  27.636  13.720  14.012
36028W        W95289  27.196  14.213   2.766
36029W        W95290  42.976  26.570   2.350
36030W        W95291   8.855  36.887  10.605
36031W        W95292  40.410  12.714  12.017
36032W        W95293  43.350  18.135   0.426
36033W        W95294  18.064  20.719  13.039
36034W        W95295  16.250  41.829   2.749
36035W        W95296  16.250  21.238   1.330
36036W        W95297  41.879  11.810  13.808
36037W        W95298  26.115   6.847  14.943
36038W        W95299  42.004  25.061  13.042
36039W        W95300  37.442  26.612   0.869
36040W        W95301  41.019   0.975  10.950
36041W        W95302   4.747  27.142  13.827
36042W        W95303   9.662  42.430  12.025
36043W        W95304   1.480  16.751   1.850
36044W        W95305  13.144  12.647   2.335
36045W        W95306   8.320   4.904  13.516
36046W        W95307  24.197  41.466   3.216
36047W        W95308  39.431   7.754  10.561
36048W        W95309  42.920  16.638  11.551
36049W        W95310  38.568  10.195  12.383
36050W        W95311  35.560  41.813  12.067
36051W        W95312  22.093   7.809  11.052
36052W        W95313  25.058  25.013   1.324
36053W        W95314  36.022  38.327  14.516
36054W        W95315  16.246  14.816   3.337
36055W        W95316  29.512  12.248   4.656
36056W        W95317   6.905  13.758  14.482
36057W        W95318  43.823  33.535  13.544
36058W        W95319  17.680  15.127  14.850
36059W        W95320   8.789  41.293  13.957
36060W        W95321  14.123  10.362   3.243
36061W        W95322  44.893  22.572  13.875
36062W        W95323   7.357  18.763  14.953
36063W        W95324  17.218  24.072   2.261
36064W        W95325  42.458   8.712  12.845
36065W        W95326   9.185   4.357   0.734
36066W        W95327  32.568  43.953  14.018
36067W        W95328  21.101  12.776  14.779
36068W        W95329   6.717  18.116  12.487
36069W        W95330  34.984  26.701   0.729
36070W        W95331  23.032  22.167   0.744
36071W        W95332  31.548   4.874   2.898
36072W        W95333  38.483  33.451  10.066
36073W        W95334  22.692  40.455  11.584
36074W        W95335  28.050  16.580  10.517
36075W        W95336  29.964  32.092   3.317
36076W        W95337  16.660  15.294   1.333
36077W        W95338  43.851  34.427  11.049
36078W        W95339  43.859   8.812   1.407
36079W        W95340   7.802   3.319   2.865
36080W        W95341  30.097   1.311  13.365
36081W        W95342  18.140  12.170  12.957
36082W        W95343  26.975  27.135  10.572
36083W        W95344  31.536  16.187   3.813
36084W        W95345  33.480   0.444   0.358
36085W        W95346   9.799  41.336   0.325
36086W        W95347  15.789  22.638   3.352
36087W        W95348   4.295   6.769  14.030
36088W        W95349  26.064  42.316  14.896
36089W        W95350  25.065  11.859  11.023
36090W        W95351  31.603   6.257  10.893
36091W        W95352  25.530   9.366   1.259
36092W        W95353   4.323  27.534  12.062
36093W        W95354   4.742  16.125  12.468
36094W        W95355   9.247  12.233  10.971
36095W        W95356  42.432  14.627  12.918
36096W        W95357  34.084  19.285  13.942
36097W        W95358   6.301  33.983  14.942
36098W        W95359  15.142   6.783   4.708
36099W        W95360  17.074   8.819   2.716
36100W        W95361  14.654  21.685   4.289
36101W        W95362  40.320   9.844  14.434
36102W        W95363  41.416   1.275  11.973
36103W        W95364  37.560  34.531  13.327
36104W        W95365  22.541  32.459   1.781
36105W        W95366  19.178  43.871  14.859
36106W        W95367  44.845  11.343   4.304
36107W        W95368  12.197  34.070  10.512
36108W        W95369   8.400  26.988   0.367
36109W        W95370  21.238   1.872   2.217
36110W        W95371  39.436  23.127   1.273
36111W        W95372   5.853  35.904   4.303
36112W        W95373  13.779  33.020  12.559
36113W        W95374  27.950  44.396  13.392
36114W        W95375  33.618   7.261   1.290
36115W        W95376  27.626  16.702  11.418
36116W        W95377   2.425  20.636  12.464
36117W        W95378  33.570  15.158   3.361
36118W        W95379  19.743  18.544   0.296
36119W        W95380   7.806  42.976  14.837
36120W        W95381  26.620  25.618   3.320
36121W        W95382  18.589  30.933   4.132
36122W        W95383   3.743   2.451  13.457
36123W        W95384   4.263  12.750  14.910
36124W        W95385  19.534  39.558  11.001
36125W        W95386   2.240  28.455   3.867
36126W        W95387  16.158  34.920   3.635
36127W        W95388  16.172  31.991  14.973
36128W        W95389  39.922  26.509  11.380
36129W        W95390   3.923  35.068   2.770
36130W        W95391  22.169  22.517   0.394
36131W        W95392  10.329  37.524   3.191
36132W        W95393  20.086  28.536  10.907
36133W        W95394   1.445  16.234  11.985
36134W        W95395   0.958  11.849   1.433
36135W        W95396  11.729   5.257   1.344
36136W        W95397  19.572  25.475  14.401
36137W        W95398  10.847  27.099   3.686
36138W        W95399  38.940   3.729  11.127
36139W        W95400  44.489  18.550   4.227
36140W        W95401  15.139  18.590   2.180
36141W        W95402   0.315  23.204  14.013
36142W        W95403  13.192  23.560   4.191
36143W        W95404  29.596  43.501   0.339
36144W        W95405  14.672   9.849   2.245
36145W        W95406   2.463  18.607  14.888
36146W        W95407  40.408   1.482   4.631
36147W        W95408   4.431  31.149  12.408
36148W        W95409  33.962  15.625   1.874
36149W        W95410   4.219   3.862  14.403
36150W        W95411   8.245  23.172   0.285
36151W        W95412  17.204  40.861   4.835
36152W        W95413  42.870   9.802   0.269
36153W        W95414  14.600  27.660   2.892
36154W        W95415  31.953  28.535   5.297
36155W        W95416  10.180  42.828  10.923
36156W        W95417  35.531  33.510   1.803
36157W        W95418   9.752  25.568  14.425
36158W        W95419   8.666   2.461   0.335
36159W        W95420   6.287   6.875  13.980
36160W        W95421  39.013  16.769   0.286
36161W        W95422  39.955  10.748   4.745
36162W        W95423  20.628  38.945   4.748
36163W        W95424  44.290  39.886  13.497
36164W        W95425   5.439  17.768   4.320
36165W        W95426  40.864  23.069   0.418
36166W        W95427  19.133   9.259   0.862
36167W        W95428   4.794  39.955   0.831
36168W        W95429  42.854   0.942   5.139
36169W        W95430  29.059  22.542   4.722
36170W        W95431   4.856  35.551  10.572
36171W        W95432   9.646   4.945  13.984
36172W        W95433  15.779  38.069   3.783
36173W        W95434   5.926  43.283   2.707
36174W        W95435  23.173  29.535  13.908
36175W        W95436   8.883  37.533  14.870
36176W        W95437   4.441  20.732  14.448
36177W        W95438  36.517   8.891  14.454
36178W        W95439   6.757  42.839   1.886
36179W        W95440  18.627  32.510  12.571
36180W        W95441   3.258  35.544   2.381
36181W        W95442  19.157  25.977   4.622
36182W        W95443  20.695   3.333   2.761
36183W        W95444  20.590  39.934  12.047
36184W        W95445  11.624  34.092   4.725
36185W        W95446  20.230  43.317   4.641
36186W        W95447  17.194  22.071  11.440
36187W        W95448  10.255   8.857  10.588
36188W        W95449  15.291  22.539   4.653
36189W        W95450   8.897  15.821  13.863
36190W        W95451  37.853  40.826  10.440
36191W        W95452  39.967  41.893  12.085
36192W        W95453   6.280  37.879  11.552
36193W        W95454  37.052  34.102  13.864
36194W        W95455  22.075   7.203  13.505
36195W        W95456  37.046   9.392  14.006
36196W        W95457   6.839   6.739   2.413
36197W        W95458  30.063  27.154  12.944
36198W        W95459  40.531  35.852  13.407
36199W        W95460  24.665  31.480   2.335
36200W        W95461  22.566  31.993  13.992
36201W        W95462  41.487  18.645  13.491
36202W        W95463  41.907  21.132  10.048
36203W        W95464  40.804  18.606   1.905
36204W        W95465  27.574  17.117   4.257
36205W        W95466  16.145  16.600   1.767
36206W        W95467   0.881  25.161   2.343
36207W        W95468   2.287   7.829   4.128
36208W        W95469  28.951  43.780  14.974
36209W        W95470  37.532  12.764   4.346
36210W        W95471  14.763  14.206  12.825
36211W        W95472  19.618  12.705   2.193
36212W        W95473   1.824  40.342  11.992
36213W        W95474   5.927  41.529   4.247
36214W        W95475   4.834   2.441   2.269
36215W        W95476  33.108  37.938   4.668
36216W        W95477  16.085   7.389  11.380
36217W        W95478  22.041  15.243  13.330
36218W        W95479  15.641  40.394   3.744
36219W        W95480  27.527  38.541   0.471
36220W        W95481  40.853  12.352   3.378
36221W        W95482  33.558  44.780   4.288
36222W        W95483   9.217   0.949   3.342
36223W        W95484  36.976  17.295  13.848
36224W        W95485  40.965  38.923   4.216
36225W        W95486  37.461  11.180  14.871
36226W        W95487   8.882   9.728  11.017
36227W        W95488  39.530  31.960   3.743
36228W        W95489   7.785  23.129   4.726
36229W        W95490  39.508  23.143  13.350
36230W        W95491  32.086   4.317   1.362
36231W        W95492  42.964  23.492  13.794
36232W        W95493  10.735  33.034   4.653
36233W        W95494   3.294  35.554  11.012
36234W        W95495  42.386  43.414   4.830
36235W        W95496  17.743  26.474   1.391
36236W        W95497  13.648  33.454  11.421
36237W        W95498  37.496  39.829   0.296
36238W        W95499  16.289   6.269  12.410
36239W        W95500  17.772  18.063   4.659
36240W        W95501  29.120   9.293   2.299
36241W        W95502  40.868  13.794  11.463
36242W        W95503  17.301   6.195   1.259
36243W        W95504   2.412  40.476   4.822
36244W        W95505  14.720  34.899   0.759
36245W        W95506  27.449   2.231   3.740
36246W        W95507   2.756  41.492  13.402
36247W        W95508  36.898   7.821   1.762
36248W        W95509  26.030  21.591   0.395
36249W        W95510  32.891   4.445  11.394
36250W        W95511  34.020   7.860   4.116
36251W        W95512  38.876  28.681   4.124
36252W        W95513  36.417  24.594   3.818
36253W        W95514  21.070  23.006  14.410
36254W        W95515  32.569  40.024  11.943
36255W        W95516  12.227  33.073   1.229
36256W        W95517   4.419  41.996  10.611
36257W        W95518   3.236  21.649  12.435
36258W        W95519  12.338  26.528   1.225
36259W        W95520  37.987  29.655   3.645
36260W        W95521  37.870   8.393   2.292
36261W        W95522  15.146  38.023  14.923
36262W        W95523  37.002  23.012   0.736
36263W        W95524  12.221  12.811   1.772
36264W        W95525   9.643   1.289  11.951
36265W        W95526  12.199   3.794   2.748
36266W        W95527  33.548  24.112   3.351
36267W        W95528   3.827  25.564   2.811
36268W        W95529  30.445   1.974   3.226
36269W        W95530  21.535  21.248  13.916
36270W        W95531   5.221   3.391   2.248
36271W        W95532  39.366  44.912  12.086
36272W        W95533  31.082  10.688   3.684
36273W        W95534  25.499  36.514   3.688
36274W        W95535  42.439  39.866  10.956
36275W        W95536  43.411   4.774  13.037
36276W        W95537  34.426  13.338   0.898
36277W        W95538  39.378  30.087   2.278
36278W        W95539  14.792   4.754   5.312
36279W        W95540  34.544  12.314  12.350
36280W        W95541  38.463  23.639   2.282
36281W        W95542  15.255  18.121   1.716
36282W        W95543  22.130  15.604   9.963
36283W        W95544  15.148  42.834   0.327
36284W        W95545  16.733  32.463   1.216
36285W        W95546  41.485  33.621   2.862
36286W        W95547  31.958  27.614   5.267
36287W        W95548  23.685   0.426   0.754
36288W        W95549  36.062  32.454   3.386
36289W        W95550  42.002   7.370   0.383
36290W        W95551  36.351   0.833   4.769
36291W        W95552  36.493  12.619  12.462
36292W        W95553  12.671   8.847   0.877
36293W        W95554  10.226  19.606   2.762
36294W        W95555  15.088  20.606  12.095
36295W        W95556  10.380  27.621  14.345
36296W        W95557   1.879  15.311   1.742
36297W        W95558   9.200   5.371   0.461
36298W        W95559  26.586  21.559   2.198
36299W        W95560  13.721   8.830   4.203
36300W        W95561  41.934  33.477   3.301
36301W        W95562  37.843  27.589   2.728
36302W        W95563  28.059   5.437  13.023
36303W        W95564  44.834  28.106  11.978
36304W        W95565  16.803  10.741  13.956
36305W        W95566  16.085  39.990  11.534
36306W        W95567  16.084  12.726  13.854
36307W        W95568  10.694   3.926  14.396
36308W        W95569  24.501   0.783   4.720
36309W        W95570  13.151  17.106  10.426
36310W        W95571  12.183  33.451  14.024
36311W        W95572  19.127   3.436  12.891
36312W        W95573  40.957  30.590  11.918
36313W        W95574   9.850  31.558   1.323
36314W        W95575   7.404  25.543   2.716
36315W        W95576  20.603  43.808   2.725
36316W        W95577   8.660  44.430  13.969
36317W        W95578  41.530  34.949  11.563
36318W        W95579  14.316  19.605  11.957
36319W        W95580  18.693  15.604  12.378
36320W        W95581  28.502  36.478  12.457
36321W        W95582  44.881  21.234  11.411
36322W        W95583  41.789   9.158  13.015
36323W        W95584   1.468   4.249  11.386
36324W        W95585  42.518  20.079   2.318
36325W        W95586  24.501  31.927  11.419
36326W        W95587   4.415   8.281  14.878
36327W        W95588   0.483  36.477   2.762
36328W        W95589   8.699   4.815   0.287
36329W        W95590  24.481  19.221  11.402
36330W        W95591  33.975  41.907  12.404
36331W        W95592  44.453  20.073  10.605
36332W        W95593  26.069  23.186   3.804
36333W        W95594  22.997  24.484  13.903
36334W        W95595  10.143  11.200   3.264
36335W        W95596  36.975  29.531  12.874
36336W        W95597   1.309   6.777   1.451
36337W        W95598  28.479   5.435   3.287
36338W        W95599  31.119  44.339  12.400
36339W        W95600  23.097   1.786   3.809
36340W        W95601  35.533  28.970  13.875
36341W        W95602  40.020  36.989  13.404
36342W        W95603   9.365   8.733  11.025
36343W        W95604  19.609  38.014  13.804
36344W        W95605  30.513   4.782   3.841
36345W        W95606   0.964   5.688   2.233
36346W        W95607  22.707  30.161   2.891
36347W        W95608  25.009  37.878  11.928
36348W        W95609  18.156  27.102  12.982
36349W        W95610  34.511  34.569  12.093
36350W        W95611  24.478  11.720   1.895
36351W        W95612   4.805  44.866   0.753
36352W        W95613  10.283  33.503   3.325
36353W        W95614  22.534  26.109  10.146
36354W        W95615  32.516  13.270  12.079
36355W        W95616  32.029  26.684   3.714
36356W        W95617  43.968  22.621   2.842
36357W        W95618  37.900  44.259   1.876
36358W        W95619  12.614  37.919   1.766
36359W        W95620  36.093  35.564  13.354
36360W        W95621   6.895   3.955  10.930
36361W        W95622  41.028  15.660   3.281
36362W        W95623  24.103  11.147   2.811
36363W        W95624  22.746  22.500   1.272
36364W        W95625  25.992  18.544   1.722
36365W        W95626  25.101   1.896  13.313
36366W        W95627  33.522   0.794  13.003
36367W        W95628  36.563  34.603   0.794
36368W        W95629  20.605  26.128  14.854
36369W        W95630  34.064  19.596   0.381
36370W        W95631   3.792   1.918   3.238
36371W        W95632  32.046  22.055  13.320
36372W        W95633  19.714   8.330   1.749
36373W        W95634  14.792  16.666   2.851
36374W        W95635  14.828  32.119   1.907
36375W        W95636   2.245   1.464   4.664
36376W        W95637  27.502   6.197   3.707
36377W        W95638  37.512   4.245   2.369
36378W        W95639  36.005  26.656  14.828
36379W        W95640  38.489  35.993  13.943
36380W        W95641   9.205  27.456   1.401
36381W        W95642  30.047  14.264   4.332
36382W        W95643  22.671  42.927   1.398
36383W        W95644  10.790  24.493  11.990
36384W        W95645  23.502   2.228   2.713
36385W        W95646  43.912  29.576   1.214
36386W        W95647   2.339  15.661   1.916
36387W        W95648   3.954   1.311  11.001
36388W        W95649  21.593  38.392  12.050
36389W        W95650   9.649  38.494  12.496
36390W        W95651  20.031   5.879  12.929
36391W        W95652  30.569  28.105   3.699
36392W        W95653  19.238  38.008   0.817
36393W        W95654  39.931  39.823   0.767
36394W        W95655  27.487  41.465  12.457
36395W        W95656  42.957   1.900   3.734
36396W        W95657   1.820  23.019  11.443
36397W        W95658  13.725  14.106  13.989
36398W        W95659  24.195  29.093   1.703
36399W        W95660   5.216  44.963  11.022
36400W        W95661  20.155  43.896   0.881
36401W        W95662  38.833  34.958   4.191
36402W        W95663   1.279  13.231  10.896
36403W        W95664  42.440  33.041   2.805
36404W        W95665  13.317  42.850   3.300
36405W        W95666  43.356  44.778   4.276
36406W        W95667  28.672  24.085  13.394
36407W        W95668  13.132  29.033   3.822
36408W        W95669  28.029  23.727   1.392
36409W        W95670  39.809  26.975   4.115
36410W        W95671  16.679  12.348   0.401
36411W        W95672  34.888  30.963  12.499
36412W        W95673  28.159  17.575   4.292
36413W        W95674  39.027  24.666   1.304
36414W        W95675  32.049  41.442  13.003
36415W        W95676   5.886   3.732  11.381
36416W        W95677  18.193  27.949  14.391
36417W        W95678  23.734  43.436   1.397
36418W        W95679   0.438  18.216   3.757
36419W        W95680  41.822   9.717   3.184
36420W        W95681  36.355  24.224  13.936
36421W        W95682  16.750  23.658  14.841
36422W        W95683  26.167  41.961  12.397
36423W        W95684  22.603   6.371   2.225
36424W        W95685  19.074   1.373  14.488
36425W        W95686  34.923  31.413  12.409
36426W        W95687   3.909  10.815   5.600
36427W        W95688   2.746  44.000  11.120
36428W        W95689  14.094  37.509   9.923
36429W        W95690  22.023  20.726   0.260
36430W        W95691  18.620   5.257   4.186
36431W        W95692  13.656  21.061   3.799
36432W        W95693   7.314  35.553  11.032
36433W        W95694  41.382  31.994  12.032
36434W        W95695  35.531  15.118   2.324
36435W        W95696   4.815  22.532  14.375
36436W        W95697  34.989  25.036  13.960
36437W        W95698  32.025  35.874  12.427
36438W        W95699  26.511  29.018   4.237
36439W        W95700  35.043  23.152  13.866
36440W        W95701  43.851  36.531  10.641
36441W        W95702  37.378  13.171  14.977
36442W        W95703  41.484  24.504  11.879
36443W        W95704  22.182  26.457  10.424
36444W        W95705  36.907   1.879  14.322
36445W        W95706   6.208  34.937  13.491
36446W        W95707  37.949  37.560   3.387
36447W        W95708   0.748  37.902   1.774
36448W        W95709  16.670  36.877   1.850
36449W        W95710  38.441  42.805   4.616
36450W        W95711  36.373   1.276  14.952
36451W        W95712  10.234  29.562  11.935
36452W        W95713  39.339   0.469  14.477
36453W        W95714  23.157  29.075  13.360
36454W        W95715  40.358  12.224  11.953
36455W        W95716  17.213  11.154   1.762
36456W        W95717  36.039  44.365   3.295
36457W        W95718  15.230  19.192  12.421
36458W        W95719  15.283   9.762   4.659
36459W        W95720   7.848  24.206   3.226
36460W        W95721  30.037  22.073   2.784
36461W        W95722  35.427   1.282   3.371
36462W        W95723  25.585  26.043   1.299
36463W        W95724  42.503  17.145   4.779
36464W        W95725   0.254  32.130  13.434
36465W        W95726   8.874  41.040   4.634
36466W        W95727  42.308   6.735  14.794
36467W        W95728  30.155  38.999  13.402
36468W        W95729  44.863  33.450  10.506
36469W        W95730  32.112  15.250  11.959
36470W        W95731   6.819  28.437   0.778
36471W        W95732   4.755  32.556  12.367
36472W        W95733   4.875  18.145  13.865
36473W        W95734  27.679  27.452   1.429
36474W        W95735  26.196  38.349   3.301
36475W        W95736  20.110  32.994   2.332
36476W        W95737   0.746  18.212   2.743
36477W        W95738  44.836   0.783   0.957
36478W        W95739  26.562  32.017   0.911
36479W        W95740  24.016  36.997   4.810
36480W        W95741  24.977   7.410   2.820
36481W        W95742  31.630  24.065   4.180
36482W        W95743   5.344  22.223  12.410
36483W        W95744  13.206  33.968   1.723
36484W        W95745  37.953  39.919  13.802
36485W        W95746   9.323  34.042  11.598
36486W        W95747  38.442  25.473   2.739
36487W        W95748  27.981  41.020  12.859
36488W        W95749  25.149  20.679   0.798
36489W        W95750   1.325  29.166  10.418
36490W        W95751  16.770   6.783  10.890
36491W        W95752   7.235  11.680   0.840
36492W        W95753   9.214  27.613  11.493
36493W        W95754  28.169  18.052   4.708
36494W        W95755  44.302  37.936  13.517
36495W        W95756   0.881  23.179   3.234
36496W        W95757  28.543   4.316   3.230
36497W        W95758  40.534  22.995  12.832
36498W        W95759  23.028   1.968  10.898
36499W        W95760  38.567  39.544   3.840
36500W        W95761  27.566  34.906  10.497
36501W        W95762  16.606  17.678  13.805
36502W        W95763  29.588  21.572  13.797
36503W        W95764  22.009  11.265  11.568
36504W        W95765  33.519  44.495   4.257
36505W        W95766  14.144  17.203   4.198
36506W        W95767  34.906  26.547  10.118
36507W        W95768   7.873  30.134   3.340
36508W        W95769  26.143  24.195   3.150
36509W        W95770  15.219  36.451   1.414
36510W        W95771  32.504  40.444   0.468
36511W        W95772  40.052  11.788   1.709
36512W        W95773   0.454  29.140  10.969
36513W        W95774  39.449  20.747   0.342
36514W        W95775   1.873  37.391  14.812
36515W        W95776  20.237  17.598   2.291
36516W        W95777   5.903  12.634   1.925
36517W        W95778  38.372  19.132  11.938
36518W        W95779  33.015  38.522   4.637
36519W        W95780  16.263  12.715   4.115
36520W        W95781  42.941  25.090   1.431
36521W        W95782  19.118   0.433  10.970
36522W        W95783  34.960   4.758  10.451
36523W        W95784  33.079  44.316   3.678
36524W        W95785  10.687  34.108   1.838
36525W        W95786  29.936  28.059  11.964
36526W        W95787  16.777  17.183   4.611
36527W        W95788  23.723  44.287  13.443
36528W        W95789   2.880  26.699  12.046
36529W        W95790  28.008   2.747   1.222
36530W        W95791  11.213  19.190  11.114
36531W        W95792   2.837  41.464   3.649
36532W        W95793  16.074  42.362  14.838
36533W        W95794  11.157  24.478   4.335
36534W        W95795  29.586  33.046   4.153
36535W        W95796  32.026  37.953   1.334
36536W        W95797  11.236  29.089  11.989
36537W        W95798  41.827  23.204  13.417
36538W        W95799   1.868  34.530   4.720
36539W        W95800  18.619  22.208  10.449
36540W        W95801  17.177  22.661  13.528
36541W        W95802  16.276   0.747  11.040
36542W        W95803  30.549  13.274  12.993
36543W        W95804  32.139  19.096   1.925
36544W        W95805  16.703  29.126  10.982
36545W        W95806  27.617  27.523   1.721
36546W        W95807  44.825  38.950  13.972
36547W        W95808  31.944  18.728   4.215
36548W        W95809  26.976  15.125  11.610
36549W        W95810  31.447  30.117  14.872
36550W        W95811   2.435   8.811   2.798
36551W        W95812  16.660   0.978   1.773
36552W        W95813  28.035   9.243   2.370
36553W        W95814  16.790   2.878  14.344
36554W        W95815  12.786  19.107   1.249
36555W        W95816  40.025  11.169   4.658
36556W        W95817   3.815  37.853   1.850
36557W        W95818   3.246   9.864   3.827
36558W        W95819   4.761  44.875   3.668
36559W        W95820  29.919  40.991   3.841
36560W        W95821  25.200  31.994  10.599
36561W        W95822  28.172  36.410   1.814
36562W        W95823  37.413  25.599   2.386
36563W        W95824  44.985   8.875  12.964
36564W        W95825  27.482   4.317   3.822
36565W        W95826  42.524   8.799   5.190
36566W        W95827  19.236  27.584   1.383
36567W        W95828  39.468  43.879   0.849
36568W        W95829  19.164  22.723  10.016
36569W        W95830  40.540  21.701   0.320
36570W        W95831  25.107  34.037   0.300
36571W        W95832  25.582  33.551   1.697
36572W        W95833  20.151  14.125   0.756
36573W        W95834  10.872   3.814  13.377
36574W        W95835  30.023  31.904   4.823
36575W        W95836  39.365  36.355   4.278
36576W        W95837  15.206  16.110   4.265
36577W        W95838   1.239  30.575  12.094
36578W        W95839  31.048  23.491   1.917
36579W        W95840   3.382  27.999  11.394
36580W        W95841  23.096   4.776  14.312
36581W        W95842   0.265   4.904   1.413
36582W        W95843   8.850  23.043  10.552
36583W        W95844   7.855  33.031  14.807
36584W        W95845  13.328  39.878  11.972
36585W        W95846  31.622  41.516  12.442
36586W        W95847  37.574  34.895   2.755
36587W        W95848  16.720  26.655  13.407
36588W        W95849  31.586   6.886   4.662
36589W        W95850  30.619   2.415  14.783
36590W        W95851  30.584  16.203   1.729
36591W        W95852  16.165  32.898   4.676
36592W        W95853  10.668  36.964   2.805
36593W        W95854   8.288  26.558   2.903
36594W        W95855   9.321  43.765   0.417
36595W        W95856   3.304  26.980  12.443
36596W        W95857  44.268  28.177  10.542
36597W        W95858   4.882  12.362  14.902
36598W        W95859  31.004  42.005  11.516
36599W        W95860  43.807  30.495   1.374
36600W        W95861   3.755  17.151  10.020
36601W        W95862  38.342  32.921  14.484
36602W        W95863  35.950   7.806   1.775
36603W        W95864   8.667   4.879   4.178
36604W        W95865  37.370  16.732  14.902
36605W        W95866   5.241   1.850   4.195
36606W        W95867  30.593  41.502   0.400
36607W        W95868   1.789  24.601  14.378
36608W        W95869  30.930   8.889   4.319
36609W        W95870  17.134  37.909   3.820
36610W        W95871  12.701  29.953  10.558
36611W        W95872  37.546  24.141  12.858
36612W        W95873  17.228  42.900   2.289
36613W        W95874  38.836  13.260  13.445
36614W        W95875   7.411  23.127  14.025
36615W        W95876   4.309  26.665   0.899
36616W        W95877  16.104  21.165   5.247
36617W        W95878   8.817  26.485   1.746
36618W        W95879   3.350   0.427   2.783
36619W        W95880  18.245  36.013   2.823
36620W        W95881   2.375   6.415  13.415
36621W        W95882  21.123  31.473   4.727
36622W        W95883  36.895  15.772  13.503
36623W        W95884   8.294  19.648   0.734
36624W        W95885  29.119  43.452  14.767
36625W        W95886  32.472  40.001   1.432
36626W        W95887  44.475  27.610   5.273
36627W        W95888  20.640   4.398  10.421
36628W        W95889   8.302  32.573  13.044
36629W        W95890  35.027  11.312   9.633
36630W        W95891   7.685  17.154  12.409
36631W        W95892  30.534   5.225  13.818
36632W        W95893  38.367  40.932   4.625
36633W        W95894  28.609  32.488  11.051
36634W        W95895  16.185  15.742   0.259
36635W        W95896  32.590  20.706   1.840
36636W        W95897   0.947  19.184  12.995
36637W        W95898  40.889  23.700   1.405
36638W        W95899   7.798  38.879  12.076
36639W        W95900  44.278  15.145  11.439
36640W        W95901  26.528  36.589   2.354
36641W        W95902   1.420  28.494  11.931
36642W        W95903   9.269  32.890  13.328
36643W        W95904  18.194  18.204   2.224
36644W        W95905  14.721  32.511   3.636
36645W        W95906  44.842   7.665  14.351
36646W        W95907  21.627  15.158   2.790
36647W        W95908   4.717  35.016  14.915
36648W        W95909  37.947   4.383   1.792
36649W        W95910   4.859  28.044  12.348
36650W        W95911  10.306  13.650   1.350
36651W        W95912   8.826  38.056  11.597
36652W        W95913  36.480  14.779  12.491
36653W        W95914  24.554  43.432   3.636
36654W        W95915  43.918  27.459   1.293
36655W        W95916  28.060   6.284  10.466
36656W        W95917  24.208  37.009   1.864
36657W        W95918   0.857  11.278   4.605
36658W        W95919  29.031  14.603   1.865
36659W        W95920  27.043  36.469  10.479
36660W        W95921  27.948   0.416   2.320
36661W        W95922  39.056  24.664  10.908
36662W        W95923  40.050  42.944   0.418
36663W        W95924  42.913  32.557   0.365
36664W        W95925  29.139  11.224   1.222
36665W        W95926  41.368   4.785   0.929
36666W        W95927  37.551  28.557  11.411
36667W        W95928   8.674  36.559   2.722
36668W        W95929  15.640   1.449   1.769
36669W        W95930   0.305  41.009  14.877
36670W        W95931  35.018  37.384   2.254
36671W        W95932  23.037  30.443   0.788
36672W        W95933   5.283  41.528   3.645
36673W        W95934  23.621   8.302  13.491
36674W        W95935  13.654  18.086  12.941
36675W        W95936  28.460   9.364   0.406
36676W        W95937   7.192  16.299  12.964
36677W        W95938  24.123   1.444   1.696
36678W        W95939  27.108  30.923   0.934
36679W        W95940  42.889  33.420   0.263
36680W        W95941   3.836  21.227   1.756
36681W        W95942   1.314   5.292  13.823
36682W        W95943  38.875   3.796   0.266
36683W        W95944  30.117  10.723   4.149
36684W        W95945  36.410   1.253   2.736
36685W        W95946   5.782  31.415   2.870
36686W        W95947  43.455  40.400  11.029
36687W        W95948  28.481  41.292   0.897
36688W        W95949  21.749  36.951  12.570
36689W        W95950  27.692  19.612   1.740
36690W        W95951  40.945  27.127   0.404
36691W        W95952  34.043  12.257  11.925
36692W        W95953  24.712   4.841   3.316
36693W        W95954   7.280  44.961   2.361
36694W        W95955  43.423   9.298   2.365
36695W        W95956  18.676  24.648  11.915
36696W        W95957  42.385   9.852   2.773
36697W        W95958  17.201  18.229  11.978
36698W        W95959  34.580  32.891   2.392
36699W        W95960  23.676  24.575  14.861
36700W        W95961  11.657  30.985   0.351
36701W        W95962  24.084  32.477   0.940
36702W        W95963  17.670  27.556  14.972
36703W        W95964   1.753   5.307  11.486
36704W        W95965  32.517   9.300   2.351
36705W        W95966   1.281  27.550  11.964
36706W        W95967  41.823  32.887  13.499
36707W        W95968   1.479   3.268   0.933
36708W        W95969  37.049  39.477   0.786
36709W        W95970  19.762  27.558   1.702
36710W        W95971  30.927  26.481  12.019
36711W        W95972  13.321  20.743  14.826
36712W        W95973  10.316  15.261   1.291
36713W        W95974  32.987  33.383  14.415
36714W        W95975   1.865  32.530   3.189
36715W        W95976  20.585  21.157   1.843
36716W        W95977  27.461  28.021  13.826
36717W        W95978  39.877  24.671  10.413
36718W        W95979  22.506  19.536   4.227
36719W        W95980   8.654  22.611  13.470
36720W        W95981  29.478  16.774   0.457
36721W        W95982  12.177  43.883   4.128
36722W        W95983  10.347   5.280  11.494
36723W        W95984  16.677   0.311  12.420
36724W        W95985  24.088  35.032   5.274
36725W        W95986   2.782  27.566   1.819
36726W        W95987   3.258  13.205  12.891
36727W        W95988  23.666  31.039  13.417
36728W        W95989  36.546  24.087  14.920
36729W        W95990  18.236  35.058   2.821
36730W        W95991  34.094   4.716   2.390
36731W        W95992  14.716  24.577  10.953
36732W        W95993  37.859  40.410  11.032
36733W        W95994   4.789  35.523  12.977
36734W        W95995  39.451  20.242  13.990
36735W        W95996  26.040   2.791  14.833
36736W        W95997   5.356  42.500   2.754
36737W        W95998  35.005  33.998   3.831
36738W        W95999  32.044   5.846  10.939
36739W        W96000  22.677  12.686  13.464
36740W        W96001  32.902  16.188   1.428
36741W        W96002  31.988  14.127  12.432
36742W        W96003  26.580  25.998   5.175
36743W        W96004  31.067   4.945   4.238
36744W        W96005  15.675  22.671   1.821
36745W        W96006  15.273   0.389   0.459
36746W        W96007  25.132   9.270   4.834
36747W        W96008  35.974  37.911   2.393
36748W        W96009  37.439  23.078  14.946
36749W        W96010   0.808   9.846  12.073
36750W        W96011  17.768  11.852  11.517
36751W        W96012  27.069  33.518  14.760
36752W        W96013  37.849  20.254  12.921
36753W        W96014  38.872  40.348   0.917
36754W        W96015  17.266  18.754   1.442
36755W        W96016  22.192  14.164   2.884
36756W        W96017  27.551  20.209  13.951
36757W        W96018  18.122  25.009  14.313
36758W        W96019  11.233  10.186  10.900
36759W        W96020  10.309  11.630   0.415
36760W        W96021   6.199  11.147  13.054
36761W        W96022   7.358  19.699   1.443
36762W        W96023  14.177  21.718   2.262
36763W        W96024  21.130  27.509  12.996
36764W        W96025  21.513  34.119  12.537
36765W        W96026  12.129  31.973  14.386
36766W        W96027  29.439  43.505   2.715
36767W        W96028  28.053  18.621  10.931
36768W        W96029  28.527  41.919  10.470
36769W        W96030  31.977  23.094   0.776
36770W        W96031  16.225  12.801  13.058
36771W        W96032  41.307  41.841  10.476
36772W        W96033  18.259  32.931   3.210
36773W        W96034  44.806  18.654   3.760
36774W        W96035  38.904  37.956  11.075
36775W        W96036  15.684  18.747   1.381
36776W        W96037  21.244   1.759   3.368
36777W        W96038   1.732   7.398  11.943
36778W        W96039  32.104  16.152   4.706
36779W        W96040  23.516  10.183  11.465
36780W        W96041  44.401  34.465  14.008
36781W        W96042   9.155  43.004   1.920
36782W        W96043  13.160   3.776   4.666
36783W        W96044  35.577   0.407  13.391
36784W        W96045  34.908   4.859  14.439
36785W        W96046   4.374  19.221   4.241
36786W        W96047  37.404  44.261   1.854
36787W        W96048  39.511  24.629  12.015
36788W        W96049   8.791  39.918   2.671
36789W        W96050  27.557  28.539  10.598
36790W        W96051  11.634  20.184   1.874
36791W        W96052  39.509  35.465   2.790
36792W        W96053  34.999  32.071   1.770
36793W        W96054   4.293   7.679   1.860
36794W        W96055  16.758   0.458  13.386
36795W        W96056   4.263  28.004   0.317
36796W        W96057  34.599  16.157   2.875
36797W        W96058   7.248  34.906  13.865
36798W        W96059  44.367  38.062  11.552
36799W        W96060  19.599  35.411  13.853
36800W        W96061  12.733  20.674  12.370
36801W        W96062  10.870  23.120  14.446
36802W        W96063  29.958   4.778   4.777
36803W        W96064  29.030  22.245  12.071
36804W        W96065  12.208  17.283   1.434
36805W        W96066   2.312  20.647  13.540
36806W        W96067  31.609  42.507   3.811
36807W        W96068  17.096  21.049  12.450
36808W        W96069  22.221   7.677  13.324
36809W        W96070  15.127  10.286  14.781
36810W        W96071   3.803  41.375  13.313
36811W        W96072  21.138  38.402   0.757
36812W        W96073   1.810  24.128  14.313
36813W        W96074  36.356  20.577   2.897
36814W        W96075  16.670  12.755  12.919
36815W        W96076   8.368  15.235   1.333
36816W        W96077  24.660  12.792  11.020
36817W        W96078  15.661   4.237   1.425
36818W        W96079   3.460  14.658   4.696
36819W        W96080  41.932  34.103   3.760
36820W        W96081  28.039  10.854  12.515
36821W        W96082  32.112  31.962  12.073
36822W        W96083   4.924  15.616   5.231
36823W        W96084  10.229   7.270  11.409
36824W        W96085   0.381   2.796  13.031
36825W        W96086  18.672  35.385  11.966
36826W        W96087  11.691  40.951   1.320
36827W        W96088  20.560   2.316  12.392
36828W        W96089  39.417  39.541   0.423
36829W        W96090  28.068  24.679   1.802
36830W        W96091   8.792  22.149  11.949
36831W        W96092  30.516  27.940   5.156
36832W        W96093  25.587  15.689  14.870
36833W        W96094  44.281  26.068   3.710
36834W        W96095  12.292  24.183   3.808
36835W        W96096  22.537  19.663  12.574
36836W        W96097  40.458  39.939   1.302
36837W        W96098  20.632  14.135  11.874
36838W        W96099  40.333  44.890   4.303
36839W        W96100  24.020  25.600  14.446
36840W        W96101  40.438  11.349  12.825
36841W        W96102  34.890  14.628   0.383
36842W        W96103  42.946  36.005  14.342
36843W        W96104  23.614  29.980  13.054
36844W        W96105  20.200  21.258  13.012
36845W        W96106  14.137   5.891  14.963
36846W        W96107  10.373   0.425   1.749
36847W        W96108   0.946  40.396   0.932
36848W        W96109  16.119  22.518  14.861
36849W        W96110  25.646  36.890  10.527
36850W        W96111  15.247  18.207  14.878
36851W        W96112  35.876  32.035   3.775
36852W        W96113  26.582  24.618   9.526
36853W        W96114  19.053  12.693  12.937
36854W        W96115   3.750  30.570   2.838
36855W        W96116   8.160  33.594   3.721
36856W        W96117  18.077   4.788   1.246
36857W        W96118  16.806  12.152  12.475
36858W        W96119   4.753   9.733   3.264
36859W        W96120   7.273  30.658   3.788
36860W        W96121   1.805  27.654  11.114
36861W        W96122  34.887  28.511  11.443
36862W        W96123   8.720  40.844   1.845
36863W        W96124  26.659  41.934   3.763
36864W        W96125   0.461  13.804  11.479
36865W        W96126  37.378  17.618  11.871
36866W        W96127  11.347   7.405  11.471
36867W        W96128   5.397  18.227   0.952
36868W        W96129  25.002   3.344  14.973
36869W        W96130   5.360  34.565  14.863
36870W        W96131   2.952  15.676  12.923
36871W        W96132   1.411  29.991  10.964
36872W        W96133   6.230  36.486  11.587
36873W        W96134  44.933  19.578  10.936
36874W        W96135   2.965   3.432   2.771
36875W        W96136  34.076  33.022  14.918
36876W        W96137  40.818  19.205   1.737
36877W        W96138   0.815  38.476   0.309
36878W        W96139  27.004  11.264   1.328
36879W        W96140   1.755   1.273   4.130
36880W        W96141  27.677  28.092   4.168
36881W        W96142  14.120  34.061   0.949
36882W        W96143  36.864   7.768  14.840
36883W        W96144  11.305  40.327   0.474
36884W        W96145  24.980   3.935   1.332
36885W        W96146  39.048  12.658  10.038
36886W        W96147   2.761  39.969  11.085
36887W        W96148  18.658  29.579   2.207
36888W        W96149   9.274  32.142  13.003
36889W        W96150   9.848  21.561  12.845
36890W        W96151  18.132   8.324  11.871
36891W        W96152  40.355  36.912  12.494
36892W        W96153   2.740   0.289  14.343
36893W        W96154  20.081  43.322   0.802
36894W        W96155  37.431  17.587  14.886
36895W        W96156  18.608  13.166   1.322
36896W        W96157  41.828  39.437  13.931
36897W        W96158  28.975  32.016  10.936
36898W        W96159  40.304   0.436  14.313
36899W        W96160  26.558  29.961   0.866
36900W        W96161   2.811  19.223  13.953
36901W        W96162  33.575   9.378  10.915
36902W        W96163  29.617  34.446  13.523
36903W        W96164   0.870  35.472  14.788
36904W        W96165  21.685  13.822   3.629
36905W        W96166  40.973  22.632  10.545
36906W        W96167  28.438  27.541  10.449
36907W        W96168   4.443  26.951  11.577
36908W        W96169  24.657  27.519   0.801
36909W        W96170  42.290  28.175   0.414
36910W        W96171  44.365  19.570  14.366
36911W        W96172   4.327  30.613  12.013
36912W        W96173   9.764  44.363  12.855
36913W        W96174  27.603  15.715   1.823
36914W        W96175  31.120  40.990   1.346
36915W        W96176  44.437  22.199   0.780
36916W        W96177  20.656  43.837   3.342
36917W        W96178  23.569  15.689  13.543
36918W        W96179  30.162  13.701   0.841
36919W        W96180  24.006  16.171  12.010
36920W        W96181  42.895  12.302   2.294
36921W        W96182  12.698  28.010   3.361
36922W        W96183  11.242  23.225  14.360
36923W        W96184  16.728  27.160   5.691
36924W        W96185  16.785   5.410  11.579
36925W        W96186  31.976   1.384   1.911
36926W        W96187  38.428  19.282  14.026
36927W        W96188  41.346  42.349   3.191
36928W        W96189   4.388  40.989  14.937
36929W        W96190  13.142  40.548  14.955
36930W        W96191  24.985   4.795  12.075
36931W        W96192  22.581  38.972  10.499
36932W        W96193   6.246  17.259   3.765
36933W        W96194  22.567   4.802   5.174
36934W        W96195  41.300  17.221  13.367
36935W        W96196   6.727  35.597  11.505
36936W        W96197  24.158  10.802  12.944
36937W        W96198  39.039  30.047   1.929
36938W        W96199   3.423  36.427  13.915
36939W        W96200  24.710   6.710   3.353
36940W        W96201  42.954  35.052  11.514
36941W        W96202  44.261  14.250   0.267
36942W        W96203  15.254  13.681  11.898
36943W        W96204  35.956  32.546   3.654
36944W        W96205  44.366  38.820   2.817
36945W        W96206  37.406  14.678  13.357
36946W        W96207  30.517  15.230  10.436
36947W        W96208  10.199  10.864   1.729
36948W        W96209  43.408  12.810  14.342
36949W        W96210  16.795   4.761   4.169
36950W        W96211  29.925  18.126   1.752
36951W        W96212   4.439  40.847  11.864
36952W        W96213  42.321  29.504  12.442
36953W        W96214  42.513  18.708  14.327
36954W        W96215   9.267  24.609   4.655
36955W        W96216   5.704  42.999  14.898
36956W        W96217  42.330  32.630  13.992
36957W        W96218  16.211  19.755   2.307
36958W        W96219  23.037  12.157   3.255
36959W        W96220  37.077   1.429  13.897
36960W        W96221  16.722  23.204   2.670
36961W        W96222  15.673  18.636  12.544
36962W        W96223  42.803   4.281  13.485
36963W        W96224   8.808  14.221   3.309
36964W        W96225  32.016  29.465   0.314
36965W        W96226   6.898  37.445  13.319
36966W        W96227  32.911   8.262   2.317
36967W        W96228  35.946  21.110   0.851
36968W        W96229  23.723  18.138  13.428
36969W        W96230  19.185  35.507  11.096
36970W        W96231  23.076   1.472  11.934
36971W        W96232  21.048   9.209   2.778
36972W        W96233   7.231  14.760  12.423
36973W        W96234  31.640  38.880  10.111
36974W        W96235  10.669   9.843   0.852
36975W        W96236  36.407  17.211  12.050
36976W        W96237  10.727   0.296   3.705
36977W        W96238  36.553  26.635   1.342
36978W        W96239  18.717  40.344  12.839
36979W        W96240  37.473  38.958   4.184
36980W        W96241  35.926   8.360  13.484
36981W        W96242   6.724   4.366   3.183
36982W        W96243  35.421   6.845  12.403
36983W        W96244  12.644  24.997  10.442
36984W        W96245  39.524  18.635   0.480
36985W        W96246  37.834  36.071   3.177
36986W        W96247  32.567   1.879   0.739
36987W        W96248  44.953  22.119   1.377
36988W        W96249  30.000   3.416  11.564
36989W        W96250  27.969   9.658  14.414
36990W        W96251  39.943   3.363   0.943
36991W        W96252   2.332  36.910  14.514
36992W        W96253  10.839  22.246  11.040
36993W        W96254  19.223  23.666  14.322
36994W        W96255  19.548  37.982  14.440
36995W        W96256  26.575  29.140   1.400
36996W        W96257  14.652  17.282  13.436
36997W        W96258  34.524   8.862  13.895
36998W        W96259  27.590   6.293  10.520
36999W        W96260  19.071   1.903   1.859
37000W        W96261  44.917  24.682   1.698
37001W        W96262  11.852  36.066   3.369
37002W        W96263   8.718  40.465   2.414
37003W        W96264  29.539  37.498  14.428
37004W        W96265  21.145  12.730  11.063
37005W        W96266  31.154  23.146  12.367
37006W        W96267  27.114  32.987  10.977
37007W        W96268  16.753  43.408   3.803
37008W        W96269  15.105  23.586  13.815
37009W        W96270  27.085  31.587   0.939
37010W        W96271  37.044  38.030   4.119
37011W        W96272  24.104  18.748  10.428
37012W        W96273   3.793  31.561  11.082
37013W        W96274  35.051  29.571  13.870
37014W        W96275  30.124   9.827   2.243
37015W        W96276  41.483  28.602   2.220
37016W        W96277  25.057  34.479  14.927
37017W        W96278  27.170  12.724  13.514
37018W        W96279  38.987  10.702  10.899
37019W        W96280   2.235  27.178  13.848
37020W        W96281   4.810  32.107  10.541
37021W        W96282  18.136  25.620   2.255
37022W        W96283   7.795  17.631  11.409
37023W        W96284  28.086  33.490  13.529
37024W        W96285   6.236  13.744  12.964
37025W        W96286   7.801  14.276   2.395
37026W        W96287  21.734   2.342   3.253
37027W        W96288   5.884  22.675   2.298
37028W        W96289  27.562  12.758   4.783
37029W        W96290  17.772   0.777   0.260
37030W        W96291  26.690  33.461   1.876
37031W        W96292  39.880   8.667   0.850
37032W        W96293  35.512  42.487   2.800
37033W        W96294   0.898  44.981  11.112
37034W        W96295  28.620  11.280   3.347
37035W        W96296  43.495   9.269   0.437
37036W        W96297  24.666   1.405  12.836
37037W        W96298  28.993  12.198   4.765
37038W        W96299  12.815  17.181   0.267
37039W        W96300  15.765  11.716  10.601
37040W        W96301  24.695  21.181   0.456
37041W        W96302  18.093  11.725   4.223
37042W        W96303  27.173   7.395   2.364
37043W        W96304  43.981  44.306  12.479
37044W        W96305  43.436  42.807  14.834
37045W        W96306   4.252  11.232  11.565
37046W        W96307   9.736  33.468  10.570
37047W        W96308   2.724  32.468  12.405
37048W        W96309   8.659  26.677  12.492
37049W        W96310   6.236  13.706   4.301
37050W        W96311  12.739  15.328  11.931
37051W        W96312  33.532  38.951  11.016
37052W        W96313   1.384  43.337   1.886
37053W        W96314   2.454  44.464  10.495
37054W        W96315   6.342   0.981   5.318
37055W        W96316  11.689  10.697   4.801
37056W        W96317  23.066  21.750   0.889
37057W        W96318  37.420  25.639   1.799
37058W        W96319  44.957  43.364   0.814
37059W        W96320  16.200  43.320   4.347
37060W        W96321  37.980  20.755   3.313
37061W        W96322   3.445  44.438   1.404
37062W        W96323  12.258  36.397   1.820
37063W        W96324  34.422  19.757   1.924
37064W        W96325  28.064  36.848   1.379
37065W        W96326   3.461  17.702   3.207
37066W        W96327  10.349  38.917   2.330
37067W        W96328   7.400   7.848  12.446
37068W        W96329  14.143  28.681   0.733
37069W        W96330  25.490  13.758   4.194
37070W        W96331  22.581  34.387  14.428
37071W        W96332  17.067  14.332  11.913
37072W        W96333  27.495  42.478   0.874
37073W        W96334  11.637   4.920  11.955
37074W        W96335  34.999  29.987   3.790
37075W        W96336   7.379  31.063   2.843
37076W        W96337  39.027  32.949  14.890
37077W        W96338  25.574  21.030   4.253
37078W        W96339   1.277  25.015  14.907
37079W        W96340   3.743  16.261   4.611
37080W        W96341   7.746   4.278   4.651
37081W        W96342  25.014  20.733  14.280
37082W        W96343  28.475  29.175   2.761
37083W        W96344  24.506  19.222   3.647
37084W        W96345  30.063   6.326  11.601
37085W        W96346  31.112  30.060  14.283
37086W        W96347  41.794   1.377  11.070
37087W        W96348  29.659   8.287   4.265
37088W        W96349  40.381  10.819  12.413
37089W        W96350  37.506  30.473  12.974
37090W        W96351   3.332  30.575   2.897
37091W        W96352   4.904  34.098   5.233
37092W        W96353  21.234  38.989   2.213
37093W        W96354  22.237  31.441   0.413
37094W        W96355  28.068  13.839   0.753
37095W        W96356  23.499   2.853  11.408
37096W        W96357  13.304   2.266   1.438
37097W        W96358  41.317  30.011   2.409
37098W        W96359  34.910  26.524  14.761
37099W        W96360  16.615  28.174   3.735
37100W        W96361  17.774   7.690   4.827
37101W        W96362  14.103  26.979  11.382
37102W        W96363  39.442  31.909  14.986
37103W        W96364  43.316  30.161  11.419
37104W        W96365  35.482  28.472  13.849
37105W        W96366   6.414  16.695   3.775
37106W        W96367  23.132  31.995  13.003
37107W        W96368  39.539  21.155  13.931
37108W        W96369  31.015   8.865   0.743
37109W        W96370  15.241  36.448   2.302
37110W        W96371   3.259  31.936   3.712
37111W        W96372  44.457   5.281  13.864
37112W        W96373  42.435  13.213   4.166
37113W        W96374  29.641  41.882   3.662
37114W        W96375  21.195  34.596   4.253
37115W        W96376  25.571  24.554  11.550
37116W        W96377   3.238  34.027  12.416
37117W        W96378  37.373   6.246  13.889
37118W        W96379  37.877  38.335   2.682
37119W        W96380  11.131  10.765   9.653
37120W        W96381  35.388   2.896   4.830
37121W        W96382  19.698  33.031  13.390
37122W        W96383  16.307   7.858   2.210
37123W        W96384   0.248  25.112   4.163
37124W        W96385   6.419  27.650  13.906
37125W        W96386   9.169  18.688   0.305
37126W        W96387  25.200  24.105   1.309
37127W        W96388  21.609  29.530  13.487
37128W        W96389  22.068  30.148   0.363
37129W        W96390  32.441  33.914  12.371
37130W        W96391  39.379  42.502  11.589
37131W        W96392  40.346  44.279   2.313
37132W        W96393  34.475  13.666   3.787
37133W        W96394  18.675  15.795   4.838
37134W        W96395  19.706  24.117   5.699
37135W        W96396   4.251  43.005  14.341
37136W        W96397   5.841  21.608   1.856
37137W        W96398  34.475   7.240  12.069
37138W        W96399  13.237  36.000   2.815
37139W        W96400  29.173  27.051   1.702
37140W        W96401  25.641  35.489  14.889
37141W        W96402  10.711  42.935  14.942
37142W        W96403  20.535   7.394   0.777
37143W        W96404  29.559  23.029  14.294
37144W        W96405  36.459  19.040  10.616
37145W        W96406  38.901  19.107  11.494
37146W        W96407  31.617  22.676   0.888
37147W        W96408   9.334  19.274   1.703
37148W        W96409  43.858   2.386   1.423
37149W        W96410   6.895  24.139   2.236
37150W        W96411  33.916  26.635  12.471
37151W        W96412  41.791  14.770  11.379
37152W        W96413  20.596  41.915   3.798
37153W        W96414  38.334  13.215  14.381
37154W        W96415   7.242   1.285  13.352
37155W        W96416  31.961  13.778   2.671
37156W        W96417  15.705  31.484   1.716
37157W        W96418  40.844  36.526   4.254
37158W        W96419  34.022  33.594  12.364
37159W        W96420  33.429  28.664   4.207
37160W        W96421  11.362   4.391   5.202
37161W        W96422  26.493  20.549  12.535
37162W        W96423   7.848  24.527  12.538
37163W        W96424   4.785   7.182   2.762
37164W        W96425  41.536  15.768  13.451
37165W        W96426  19.188  22.575   1.814
37166W        W96427  27.096  37.953  13.944
37167W        W96428  28.139  27.627  14.031
37168W        W96429   4.276  31.022   2.826
37169W        W96430   8.862  43.836   2.675
37170W        W96431  23.694  31.974   1.914
37171W        W96432  19.575  37.877   0.314
37172W        W96433  33.389   6.278   0.481
37173W        W96434  40.949  38.499  14.343
37174W        W96435  40.965  19.167  14.465
37175W        W96436  43.489   7.407   4.616
37176W        W96437  41.493  42.312  13.011
37177W        W96438  29.937  34.413  12.994
37178W        W96439  31.551  37.396  14.926
37179W        W96440  28.437   2.958  11.032
37180W        W96441  13.644  19.228  13.467
37181W        W96442  22.738   5.925  12.944
37182W        W96443  24.490   0.397  14.441
37183W        W96444  39.423  22.543  14.449
37184W        W96445  10.372  13.267  13.315
37185W        W96446  17.206   9.270   0.838
37186W        W96447   8.293  33.396   2.326
37187W        W96448  19.685  33.482  14.854
37188W        W96449   8.350   1.962  11.514
37189W        W96450  19.216  19.207  13.937
37190W        W96451  32.943  23.000   3.264
37191W        W96452  39.858  10.268   3.322
37192W        W96453  36.075  28.488   4.284
37193W        W96454   7.738  37.839  14.773
37194W        W96455  39.025   8.280   2.315
37195W        W96456   6.230  14.709  13.000
37196W        W96457  31.612  38.072   0.357
37197W        W96458  10.183  32.961   1.272
37198W        W96459  44.844  33.943   0.249
37199W        W96460  38.901  39.997   0.421
37200W        W96461  16.118  37.373  14.452
37201W        W96462  41.495  42.451   4.739
37202W        W96463  25.161  10.731  14.917
37203W        W96464  41.414  15.255  11.070
37204W        W96465  41.898  38.501  13.344
37205W        W96466  11.166   8.362   4.259
37206W        W96467  31.486  37.363  14.417
37207W        W96468   1.932  38.849  14.382
37208W        W96469  28.503   7.391  14.289
37209W        W96470   9.877  43.433  14.950
37210W        W96471   6.769  27.171  11.488
37211W        W96472   2.257  32.983  14.287
37212W        W96473   6.349  11.798  11.891
37213W        W96474  28.671   7.227  12.436
37214W        W96475  24.149   8.797  14.954
37215W        W96476   9.735  37.394   0.922
37216W        W96477  13.239  34.558  11.450
37217W        W96478  43.981  41.855   3.635
37218W        W96479  19.040  42.995   4.703
37219W        W96480  18.059   3.822   0.423
37220W        W96481  24.049   6.415   2.327
37221W        W96482   6.819  31.929  12.828
37222W        W96483  21.613  16.589   2.407
37223W        W96484  34.557  33.609   1.271
37224W        W96485  31.012   2.898  11.372
37225W        W96486  15.672  36.900  12.923
37226W        W96487  33.399   2.782  10.925
37227W        W96488   1.755  42.031  14.991
37228W        W96489  35.556  38.546   0.398
37229W        W96490  27.151  25.096  12.356
37230W        W96491  32.596  15.258  12.889
37231W        W96492  41.394  41.412  14.275
37232W        W96493  16.599  33.964   4.774
37233W        W96494  30.427  27.673  10.933
37234W        W96495  35.104   0.319   2.191
37235W        W96496  12.356   7.197  12.936
37236W        W96497  27.639  32.506   4.202
37237W        W96498  41.881  29.142   0.914
37238W        W96499  37.059  13.230   3.648
37239W        W96500   1.351  19.599  13.828
37240W        W96501   6.750  24.706   0.313
37241W        W96502   7.778  11.847   2.419
37242W        W96503   9.879  13.255   0.317
37243W        W96504  16.300  35.959   0.877
37244W        W96505  41.838  23.576   0.288
37245W        W96506   1.830  41.890  11.879
37246W        W96507  11.347  21.732  13.852
37247W        W96508   9.764  24.027  10.887
37248W        W96509  34.086  19.604   2.194
37249W        W96510  42.512   2.782   0.445
37250W        W96511  28.169  31.911  14.862
37251W        W96512   3.304  41.825   3.306
37252W        W96513  14.730  34.062  12.460
37253W        W96514  30.448  40.375  14.322
37254W        W96515  16.078   8.163   1.275
37255W        W96516   3.767  28.562  13.327
37256W        W96517  13.110   8.193  11.491
37257W        W96518  19.736  26.658   0.809
37258W        W96519  31.942  40.350   2.874
37259W        W96520   0.758  36.062  11.932
37260W        W96521   1.312  34.486   2.184
37261W        W96522  42.810  31.500  11.411
37262W        W96523   8.715   2.920   2.750
37263W        W96524  36.912  35.875   1.243
37264W        W96525  16.106  35.862   3.344
37265W        W96526  30.513  12.223   5.230
37266W        W96527  30.529  20.550  11.880
37267W        W96528   4.272  29.046   0.927
37268W        W96529  11.820   3.790  13.056
37269W        W96530   2.231  19.237   4.212
37270W        W96531  33.987   2.832   4.830
37271W        W96532  40.397   7.743  14.772
37272W        W96533  16.152  25.613  10.570
37273W        W96534  20.173  41.412   0.364
37274W        W96535  43.389  43.844  14.389
37275W        W96536  32.127  38.377   0.320
37276W        W96537   7.326  21.547   0.419
37277W        W96538   0.335  16.584   4.136
37278W        W96539   7.682  27.059   2.832
37279W        W96540  38.899  12.254  11.522
37280W        W96541  13.826   8.710  12.090
37281W        W96542  37.839  29.173   3.641
37282W        W96543  27.130  24.148  12.063
37283W        W96544  30.616  36.972  13.531
37284W        W96545  33.089  44.484   3.199
37285W        W96546  13.351  40.852  12.079
37286W        W96547  12.684  39.951   4.323
37287W        W96548  14.149  43.000  13.534
37288W        W96549  40.815  38.887   1.342
37289W        W96550  12.816  13.785   3.365
37290W        W96551  42.309   0.768   0.915
37291W        W96552   9.700  12.773   0.758
37292W        W96553  10.777   5.302  10.584
37293W        W96554  27.480  25.695   3.243
37294W        W96555  37.434   8.399   3.239
37295W        W96556  42.355   9.315  10.539
37296W        W96557  35.083  27.651  13.357
37297W        W96558  19.223  39.374  11.561
37298W        W96559  24.116  19.584  10.442
37299W        W96560  17.171  26.972   0.904
37300W        W96561  17.760  14.629   0.782
37301W        W96562   4.735  32.516   0.315
37302W        W96563   7.863  44.308   4.702
37303W        W96564  19.223  30.539  11.392
37304W        W96565  33.043   3.272  14.945
37305W        W96566  35.566  15.210   0.773
37306W        W96567  39.500   7.679  14.783
37307W        W96568  30.008  33.455  12.965
37308W        W96569   5.905  33.950  12.532
37309W        W96570  32.107  33.497  13.891
37310W        W96571  36.084  13.197  12.374
37311W        W96572  11.285  43.387  14.838
37312W        W96573  32.923  26.601  12.954
37313W        W96574  22.999   7.796  14.468
37314W        W96575  20.764  18.070   4.269
37315W        W96576  37.401  29.166   0.770
37316W        W96577  21.666  21.535   3.164
37317W        W96578  36.399  20.064  11.457
37318W        W96579  44.424  41.882  12.951
37319W        W96580  33.924  27.599  11.945
37320W        W96581  12.153   5.711   1.834
37321W        W96582  32.103   7.878  11.973
37322W        W96583   6.424  30.569   3.868
37323W        W96584  39.386  21.261   1.368
37324W        W96585  31.924  44.478  14.338
37325W        W96586  43.919  23.717  13.491
37326W        W96587  39.931   2.455  11.106
37327W        W96588  29.515  29.998  11.875
37328W        W96589  16.683  37.362  14.013
37329W        W96590  20.719  11.230   3.691
37330W        W96591  36.590   8.352  11.072
37331W        W96592  16.704  21.125   5.233
37332W        W96593   8.296  27.956   2.772
37333W        W96594  39.947  19.050   3.769
37334W        W96595  27.187   1.299  13.850
37335W        W96596   6.829   9.826   0.805
37336W        W96597  22.208  20.725  14.004
37337W        W96598  35.545  33.042  13.053
37338W        W96599   2.427   0.299  10.932
37339W        W96600  35.070  21.708  14.908
37340W        W96601  21.254  27.131  11.031
37341W        W96602  38.548  10.343   3.655
37342W        W96603  11.205  38.394  13.547
37343W        W96604  33.546  28.051  12.028
37344W        W96605  36.584  15.221  11.567
37345W        W96606  11.632   1.847   4.233
37346W        W96607  10.783  30.981   3.810
37347W        W96608  19.105   8.265   3.156
37348W        W96609  29.946  41.894   0.255
37349W        W96610  40.979  41.029  11.440
37350W        W96611   4.753   5.896   3.720
37351W        W96612  10.214  42.911   3.311
37352W        W96613  39.377  19.051   4.177
37353W        W96614  15.775  29.521   0.752
37354W        W96615  13.254  36.530   0.382
37355W        W96616  12.343  18.290  13.495
37356W        W96617  15.625   6.406   1.299
37357W        W96618  17.280  36.419   2.377
37358W        W96619   1.949   7.247  11.065
37359W        W96620  30.575  13.676  12.944
37360W        W96621  37.851  10.148   3.182
37361W        W96622  11.867  30.513   3.250
37362W        W96623  11.697  14.143   1.280
37363W        W96624  31.100  31.063   1.861
37364W        W96625  43.898  40.485  12.976
37365W        W96626  35.391  39.339   1.389
37366W        W96627  41.922  32.458   0.285
37367W        W96628  41.856  19.764   3.324
37368W        W96629  34.591  15.768  13.048
37369W        W96630  11.662  23.015   2.782
37370W        W96631  42.028   1.870   2.771
37371W        W96632   4.763   3.331   5.238
37372W        W96633  37.373   5.227  11.566
37373W        W96634  21.696   9.388   1.210
37374W        W96635  12.227  12.245   0.757
37375W        W96636  44.486  10.146   5.315
37376W        W96637  11.792  16.168   3.381
37377W        W96638  10.649  30.108   0.380
37378W        W96639  41.334   2.724  13.883
37379W        W96640  40.504  15.308  11.859
37380W        W96641  31.492  41.309  14.444
37381W        W96642  36.586  19.734  11.896
37382W        W96643   5.314   6.359   2.364
37383W        W96644  33.997  35.963   9.624
37384W        W96645  10.330  34.501  12.468
37385W        W96646  28.569   8.706   1.824
37386W        W96647  29.947   4.242   4.763
37387W        W96648   6.813   9.202   9.576
37388W        W96649  39.061  24.159   5.175
37389W        W96650  40.307   7.719  12.407
37390W        W96651  43.350   3.234   3.328
37391W        W96652   2.352  25.574   0.310
37392W        W96653  31.579  30.561   4.138
37393W        W96654  32.636  43.016   1.854
37394W        W96655  23.731  41.946  14.331
37395W        W96656  40.544  38.919   1.805
37396W        W96657  19.218  33.940  12.829
37397W        W96658  43.910  14.744   1.409
37398W        W96659  26.542   6.717   2.267
37399W        W96660  41.022  40.948   2.804
37400W        W96661   2.372  15.633  11.493
37401W        W96662  40.900  29.521   1.326
37402W        W96663  38.868  26.496   3.334
37403W        W96664  31.516   3.937  11.075
37404W        W96665   4.395  17.256   2.413
37405W        W96666   8.204  18.707  12.064
37406W        W96667  41.031  27.663  12.429
37407W        W96668  21.150  14.231  13.850
37408W        W96669  30.113  13.140  13.947
37409W        W96670  28.079  15.766  10.057
37410W        W96671  35.923  41.893  12.825
37411W        W96672  13.806  38.428   0.362
37412W        W96673  13.212  43.291  11.590
37413W        W96674   8.701  27.976   5.098
37414W        W96675  11.339  16.581  14.427
37415W        W96676   3.393   4.855  13.483
37416W        W96677  34.588  36.525   3.209
37417W        W96678  23.081  39.415   1.697
37418W        W96679   2.424   7.298   3.218
37419W        W96680  15.596  41.491  14.961
37420W        W96681  44.773   5.283   2.724
37421W        W96682  16.758  14.646  12.081
37422W        W96683  39.410   2.471   2.418
37423W        W96684  43.771  36.460  13.496
37424W        W96685  36.031  41.913  13.807
37425W        W96686  15.239  28.028  13.040
37426W        W96687   4.931  37.891   0.420
37427W        W96688  41.854  34.440  14.886
37428W        W96689  39.320  24.006  12.928
37429W        W96690  31.585   0.853  13.020
37430W        W96691  26.965  36.419   1.310
37431W        W96692  21.172  22.143  12.950
37432W        W96693   6.344   2.897  10.952
37433W        W96694  44.457  31.499  13.803
37434W        W96695  31.630  15.695  12.515
37435W        W96696  28.606  32.007   0.963
37436W        W96697   1.418  17.681  10.610
37437W        W96698  34.481  39.007  12.563
37438W        W96699  17.283  11.314  12.538
37439W        W96700  28.026   1.439   0.396
37440W        W96701  39.417  23.111  14.362
37441W        W96702  21.638   6.225   2.772
37442W        W96703  32.125  18.578   1.268
37443W        W96704  25.640  15.223  11.462
37444W        W96705  16.779  41.852   2.824
37445W        W96706  44.829  17.672   0.925
37446W        W96707  20.767  25.577  13.507
37447W        W96708  14.153  12.845   3.372
37448W        W96709  40.470  24.062  10.895
37449W        W96710  39.055   8.232   1.720
37450W        W96711  32.398   7.245  13.966
37451W        W96712  21.076  42.291  13.343
37452W        W96713  41.040  32.015   0.847
37453W        W96714  35.513  29.050   4.752
37454W        W96715  34.552  29.637   1.924
37455W        W96716  29.127  40.942   2.832
37456W        W96717  42.894  31.146   5.289
37457W        W96718  38.882   9.171  10.103
37458W        W96719  19.770  33.999  12.847
37459W        W96720  26.468   1.943   2.845
37460W        W96721  11.624  13.152  13.542
37461W        W96722  28.541  24.193   4.145
37462W        W96723   2.328  27.026   0.941
37463W        W96724  39.879  13.639  12.030
37464W        W96725  31.086   6.376   2.695
37465W        W96726   2.781  20.219  11.412
37466W        W96727  36.589  23.105  11.020
37467W        W96728  28.994  26.040   4.693
37468W        W96729  34.543  35.020  13.816
37469W        W96730  22.199  38.834   4.813
37470W        W96731   6.723  35.926   3.769
37471W        W96732   7.285  12.807  13.491
37472W        W96733  10.234  35.519   1.327
37473W        W96734  43.769   3.947  14.480
37474W        W96735  35.582  25.963  11.061
37475W        W96736  41.003  11.361  11.970
37476W        W96737  30.534  30.114   3.717
37477W        W96738  16.773  26.495   1.901
37478W        W96739   4.779  17.623  14.025
37479W        W96740  43.916   5.863   3.164
37480W        W96741  21.210   0.948   1.720
37481W        W96742   8.177  17.653  11.968
37482W        W96743   3.421  22.223   0.327
37483W        W96744  41.490   4.701  14.447
37484W        W96745  21.169  34.894  11.032
37485W        W96746  43.013  12.273   2.822
37486W        W96747  28.132  32.055  12.455
37487W        W96748  44.381  37.357  14.784
37488W        W96749  21.157  22.014   4.335
37489W        W96750  24.605  31.942   3.836
37490W        W96751  41.814   8.290  11.884
37491W        W96752  21.197  35.550   2.691
37492W        W96753  31.911   0.976  14.436
37493W        W96754   0.377  19.766   3.830
37494W        W96755  31.507  44.263  12.565
37495W        W96756   3.908  39.433  11.910
37496W        W96757  39.922  39.496  14.366
37497W        W96758   8.889   3.425   3.375
37498W        W96759  29.147  30.456  11.596
37499W        W96760  27.573   1.754   0.898
37500W        W96761  13.181  37.959  13.828
37501W        W96762  11.348  42.883  12.569
37502W        W96763   5.807  37.070   2.392
37503W        W96764  43.013  18.605  12.433
37504W        W96765  30.926  39.062  11.969
37505W        W96766  12.747   5.787   1.430
37506W        W96767   0.450  37.549  10.458
37507W        W96768  42.988  43.891  12.559
37508W        W96769   0.436   0.431  14.888
37509W        W96770  31.568  35.502   2.703
37510W        W96771   5.806  22.141   1.278
37511W        W96772  27.156  43.365   2.816
37512W        W96773   1.366  21.526   4.314
37513W        W96774  19.071  41.896  14.021
37514W        W96775   1.973  42.792  13.461
37515W        W96776  24.724  18.120  11.537
37516W        W96777  34.038  21.172  10.513
37517W        W96778  40.972  23.227   2.685
37518W        W96779  36.392  37.005  13.461
37519W        W96780  34.483  16.726  14.418
37520W        W96781  24.664  22.155  14.365
37521W        W96782  37.861  26.183  13.461
37522W        W96783  19.173  33.459  14.466
37523W        W96784  12.348   1.259  12.080
37524W        W96785  18.565  28.149  14.425
37525W        W96786  29.548  25.111  10.087
37526W        W96787  24.512  43.489   0.791
37527W        W96788  13.662  28.623  10.527
37528W        W96789  10.697  40.456  11.035
37529W        W96790  14.810  38.048  10.600
37530W        W96791  28.988   5.263  14.511
37531W        W96792   6.339  23.115   2.885
37532W        W96793  17.761  15.208   1.424
37533W        W96794  13.782  17.727   2.846
37534W        W96795  22.521  44.449   3.646
37535W        W96796  14.679   6.403  10.956
37536W        W96797  21.216  26.957  12.015
37537W        W96798  14.759  11.834   3.378
37538W        W96799  34.036  20.243   1.896
37539W        W96800  29.518  40.803   3.647
37540W        W96801   5.247  16.763   1.696
37541W        W96802  12.240   6.199  13.409
37542W        W96803   7.293  29.538   3.826
37543W        W96804  13.241  36.088  14.420
37544W        W96805  22.712   5.867   4.217
37545W        W96806  28.437  30.970  12.368
37546W        W96807  25.113  28.681  12.467
37547W        W96808  40.468  12.340  14.327
37548W        W96809  16.805  38.493  14.348
37549W        W96810  26.699  28.459   0.372
37550W        W96811  34.445  34.077   4.816
37551W        W96812  19.115   1.296   3.260
37552W        W96813   3.948  30.096  12.027
37553W        W96814  28.658   6.753  12.917
37554W        W96815  34.892   0.320  10.136
37555W        W96816   8.196   8.768   4.767
37556W        W96817   8.162  43.780  14.817
37557W        W96818  39.397  20.075  13.026
37558W        W96819  21.114  22.504   3.782
37559W        W96820  30.653  27.055  14.455
37560W        W96821  15.111   9.231  12.520
37561W        W96822  23.139  11.269   0.910
37562W        W96823  33.925   1.478   4.614
37563W        W96824   6.360  43.994   0.900
37564W        W96825  28.125   1.337  13.845
37565W        W96826  32.922  23.656  11.017
37566W        W96827  33.407  39.909   9.667
37567W        W96828  22.650  39.014  10.909
37568W        W96829  16.316   4.428   9.456
37569W        W96830  37.531  11.221  10.623
37570W        W96831  24.082  17.570  10.954
37571W        W96832  31.501  34.880  13.509
37572W        W96833  32.898  18.765  12.898
37573W        W96834   3.405  33.909  13.018
37574W        W96835  16.083  13.128  13.465
37575W        W96836  19.146  13.837  14.883
37576W        W96837   2.859  38.469  11.404
37577W        W96838  36.486   3.713  14.024
37578W        W96839   2.383  17.659   0.334
37579W        W96840  22.221   8.184  11.901
37580W        W96841  21.198  39.957   3.374
37581W        W96842  28.107  41.474   0.787
37582W        W96843  22.092   0.405   4.612
37583W        W96844  40.015   8.394   3.840
37584W        W96845   5.268  31.544  11.564
37585W        W96846  26.524   6.266  12.942
37586W        W96847   7.329  38.463   2.381
37587W        W96848   3.269  25.031  13.848
37588W        W96849   3.936  37.064  14.946
37589W        W96850  14.290  33.068  14.887
37590W        W96851  16.636  39.486  10.526
37591W        W96852  13.114  19.100  10.929
37592W        W96853  34.437   5.804  11.881
37593W        W96854  31.578   9.669   0.271
37594W        W96855  22.124  17.148  14.983
37595W        W96856  11.716  24.207   5.188
37596W        W96857  41.816   3.281   5.163
37597W        W96858  24.161   9.272   1.856
37598W        W96859  22.537  34.064  14.275
37599W        W96860  31.558  15.642  10.049
37600W        W96861  40.548  38.969  13.948
37601W        W96862  15.084  40.987  11.906
37602W        W96863  41.507   3.941   2.253
37603W        W96864  24.698  13.744   0.394
37604W        W96865  32.076  33.983   1.295
37605W        W96866  29.113  35.375  13.412
37606W        W96867  36.981  39.043   4.168
37607W        W96868  18.272  31.476   0.887
37608W        W96869  26.526  21.748   1.744
37609W        W96870  21.734   7.727   2.183
37610W        W96871  11.138  30.913  12.092
37611W        W96872   1.754  29.920  13.493
37612W        W96873  26.961  25.996  14.030
37613W        W96874  38.003  25.587  13.539
37614W        W96875  29.668  37.519  11.887
37615W        W96876   1.374  20.662  14.900
37616W        W96877  24.982  39.493  14.314
37617W        W96878  40.346  26.992   0.933
37618W        W96879  43.419  35.092   4.638
37619W        W96880  22.034  28.155   1.752
37620W        W96881  16.809  23.539  13.943
37621W        W96882  15.089   0.850  12.950
37622W        W96883  18.284  22.142  12.031
37623W        W96884  31.065  20.206  13.501
37624W        W96885  38.352  35.087   3.762
37625W        W96886  26.585  10.142  11.570
37626W        W96887   0.418  13.274  12.083
37627W        W96888  16.276  16.235  11.458
37628W        W96889   1.440  32.910   0.406
37629W        W96890  25.141  12.198  13.967
37630W        W96891  19.264  13.278  11.063
37631W        W96892  20.632   4.913  11.418
37632W        W96893  32.070  34.057   2.365
37633W        W96894  40.912  39.390  13.923
37634W        W96895  10.380  35.876   0.902
37635W        W96896  23.505  37.402   3.807
37636W        W96897   6.408  15.128  11.537
37637W        W96898   4.863  31.485  11.400
37638W        W96899  12.627  29.951  12.836
37639W        W96900  39.380   4.438   3.178
37640W        W96901  27.594  16.614   2.248
37641W        W96902  30.422  42.963   1.932
37642W        W96903  38.542  14.139   3.320
37643W        W96904  41.419  24.033   3.176
37644W        W96905   8.224  23.547  11.855
37645W        W96906   5.811  24.484   1.405
37646W        W96907  20.136  32.406   1.739
37647W        W96908  27.543   7.248   1.849
37648W        W96909  44.896  25.610   4.665
37649W        W96910  31.449   8.393   2.806
37650W        W96911  18.585  14.756  13.887
37651W        W96912  41.847  38.428   1.418
37652W        W96913  32.005  22.179  10.551
37653W        W96914  16.199   6.738  12.008
37654W        W96915   4.715  29.540   3.784
37655W        W96916   5.736  23.610   1.420
37656W        W96917   5.699  22.558  11.448
37657W        W96918  38.876  28.523  11.979
37658W        W96919  30.433  33.950  13.393
37659W        W96920   1.454  15.781   1.730
37660W        W96921  17.677  28.153  14.905
37661W        W96922  11.721  19.170  13.382
37662W        W96923  11.304   2.826  12.490
37663W        W96924  43.902  21.629  13.995
37664W        W96925  38.985  17.757  13.794
37665W        W96926  18.158  23.602  10.421
37666W        W96927  44.758  24.570  11.471
37667W        W96928  41.418  20.114   1.237
37668W        W96929  12.672  32.446   2.822
37669W        W96930  14.634  27.004   4.219
37670W        W96931  41.432  39.434   0.348
37671W        W96932  29.641  39.474   0.794
37672W        W96933  25.167  20.523  14.983
37673W        W96934  13.307  12.137  10.439
37674W        W96935  22.093  35.084   3.630
37675W        W96936  30.040   1.479   3.244
37676W        W96937  42.982  10.242   3.288
37677W        W96938  37.453  26.696   4.727
37678W        W96939  42.479  35.976  14.391
37679W        W96940   6.678   3.357  11.033
37680W        W96941  16.140  11.318  13.507
37681W        W96942   6.914   8.343   2.740
37682W        W96943   9.275  35.543  13.547
37683W        W96944   1.782   5.899   2.810
37684W        W96945  24.559  33.892  11.390
37685W        W96946  32.621  40.496  13.805
37686W        W96947   7.675   1.917   2.350
37687W        W96948  28.643  42.967   2.687
37688W        W96949  13.217  11.213   3.813
37689W        W96950  14.320  39.442  11.032
37690W        W96951  11.866   0.416  10.055
37691W        W96952  24.151  26.681   3.202
37692W        W96953   3.422  44.385  12.913
37693W        W96954   8.385  28.577   2.889
37694W        W96955  31.070   7.800  11.989
37695W        W96956  32.394   3.806  10.494
37696W        W96957  38.935  19.751   0.884
37697W        W96958  40.376  29.148  13.837
37698W        W96959  32.475   2.929  13.849
37699W        W96960  27.540  44.825   3.208
37700W        W96961  24.048  27.989  11.028
37701W        W96962   0.399  37.531  14.345
37702W        W96963  32.099   2.419  10.905
37703W        W96964  17.730  12.129   4.642
37704W        W96965  17.099  25.072  10.041
37705W        W96966  19.180  27.074   3.750
37706W        W96967  39.999  24.673  12.995
37707W        W96968  29.576  30.069  11.543
37708W        W96969  25.642  31.928   4.342
37709W        W96970  20.097  21.643  11.049
37710W        W96971  17.719  20.717  13.950
37711W        W96972  44.786   7.877   2.351
37712W        W96973  29.647  40.052   4.783
37713W        W96974   6.890   9.821   3.260
37714W        W96975  14.727  38.011   2.375
37715W        W96976  34.400  31.116   1.906
37716W        W96977  10.153  32.104  12.945
37717W        W96978  32.590  44.849  14.862
37718W        W96979   7.863  22.726   4.251
37719W        W96980   4.429  23.130  11.381
37720W        W96981  20.050  42.338  14.438
37721W        W96982  44.897  13.188  12.471
37722W        W96983  30.490  39.005  12.003
37723W        W96984  19.776   5.422  12.513
37724W        W96985  15.236   4.271  14.868
37725W        W96986  10.252  13.257   3.296
37726W        W96987  29.034  28.568   2.703
37727W        W96988  29.531  23.987   0.383
37728W        W96989  43.288  12.233   0.768
37729W        W96990  42.292   7.899   1.280
37730W        W96991  13.180  42.322   2.349
37731W        W96992  12.619  12.239   1.437
37732W        W96993  40.450  43.980  13.476
37733W        W96994  36.357  26.700  14.802
37734W        W96995   2.304  24.142   2.692
37735W        W96996  40.041  42.476  14.345
37736W        W96997  39.455  12.159  13.402
37737W        W96998  39.814  15.653   3.788
37738W        W96999  16.800   6.753  14.802
37739W        W97000  10.204  25.677  12.832
37740W        W97001  15.130  21.083  11.533
37741W        W97002  12.783  15.613  10.628
37742W        W97003  20.556  40.512  14.371
37743W        W97004  19.758   2.822   0.763
37744W        W97005  16.812  36.912   2.232
37745W        W97006  23.605  35.572  12.966
37746W        W97007  36.556  19.232   3.256
37747W        W97008  25.008  11.201   4.203
37748W        W97009  30.585  11.837   3.671
37749W        W97010  38.840  28.639   0.412
37750W        W97011  28.012   1.390  14.515
37751W        W97012  22.716  36.461   0.937
37752W        W97013  41.034  31.583   1.868
37753W        W97014   2.240  29.005   2.319
37754W        W97015  11.343  25.554   0.766
37755W        W97016  16.305  29.039   0.891
37756W        W97017  24.999  31.126  10.588
37757W        W97018  25.557  14.808  10.418
37758W        W97019  44.852   3.260  12.437
37759W        W97020  23.539  23.117   3.262
37760W        W97021  37.479   6.401  11.943
37761W        W97022  44.302  40.375   2.194
37762W        W97023  33.916  31.041  10.942
37763W        W97024  12.794  29.938   2.662
37764W        W97025  33.609  15.741  11.481
37765W        W97026  42.881  30.525  12.430
37766W        W97027  15.283  43.957   4.793
37767W        W97028  30.634  31.607  12.492
37768W        W97029  43.822  31.083   4.267
37769W        W97030   0.913  16.188  14.338
37770W        W97031  33.050  39.942   2.400
37771W        W97032  25.682   1.262   1.853
37772W        W97033  11.626  14.309   3.315
37773W        W97034  30.012  15.778   1.910
37774W        W97035  43.326  28.589   3.168
37775W        W97036  31.552  29.592   4.633
37776W        W97037  23.676  33.084  11.524
37777W        W97038  25.108  43.792  11.422
37778W        W97039  36.407   1.248   0.416
37779W        W97040  32.589  21.163   0.778
37780W        W97041  16.246   3.297  13.385
37781W        W97042  38.021  44.444   3.715
37782W        W97043  37.079  44.362  11.459
37783W        W97044  27.519  29.489   1.391
37784W        W97045  41.867  41.921   1.756
37785W        W97046  28.978  30.605  12.506
37786W        W97047  32.916  43.461  12.890
37787W        W97048   8.385  13.175   3.260
37788W        W97049  12.853  12.174   5.107
37789W        W97050   6.916  19.063  11.006
37790W        W97051   4.858  32.564  11.539
37791W        W97052   6.391  18.229   0.820
37792W        W97053  16.701  15.792  13.383
37793W        W97054   7.316  25.489  13.478
37794W        W97055  24.194  14.170  12.980
37795W        W97056  31.433  24.611   0.903
37796W        W97057  37.405  44.757   3.818
37797W        W97058  37.002  35.976   4.700
37798W        W97059  10.168  35.550   4.659
37799W        W97060  17.217  32.470  10.549
37800W        W97061  35.090   6.847   4.115
37801W        W97062   1.369  32.476  13.848
37802W        W97063  35.367  18.546  10.426
37803W        W97064  21.513  34.588   1.414
37804W        W97065  18.610  37.354   3.363
37805W        W97066  19.132  35.604   1.933
37806W        W97067  25.670  41.328   0.476
37807W        W97068   9.165  21.541   1.915
37808W        W97069   9.794   8.698  11.013
37809W        W97070  27.180  36.352   4.736
37810W        W97071   1.764  23.108   3.808
37811W        W97072   6.303  32.053   1.304
37812W        W97073  23.530  10.743   4.616
37813W        W97074  42.313  43.431  10.571
37814W        W97075   1.351  13.348  12.361
37815W        W97076  40.546  40.425   2.663
37816W        W97077   0.257  31.497   0.303
37817W        W97078  32.102  14.209  10.970
37818W        W97079  22.548  17.656  12.868
37819W        W97080  12.844  16.082   1.441
37820W        W97081  36.891  22.232   4.260
37821W        W97082  13.789  19.071  11.866
37822W        W97083  23.021   9.869   3.331
37823W        W97084  13.313   1.762  14.453
37824W        W97085  38.403   9.814  10.613
37825W        W97086  33.418  13.769   2.843
37826W        W97087  19.747  22.117   4.303
37827W        W97088  32.072  13.338   0.365
37828W        W97089   8.214  10.778  11.579
37829W        W97090  23.673  11.658   3.219
37830W        W97091  22.036  14.635   1.390
37831W        W97092  15.640  17.140   2.237
37832W        W97093  13.117  34.937  10.639
37833W        W97094  44.327  11.345   2.867
37834W        W97095  23.631  11.827  12.497
37835W        W97096  22.674  34.103   4.148
37836W        W97097  22.676   3.825  12.564
37837W        W97098  39.972  40.811   0.798
37838W        W97099  32.951  32.047  14.869
37839W        W97100  13.311  11.249   1.306
37840W        W97101  21.583  26.068   2.903
37841W        W97102  33.380  42.899  14.411
37842W        W97103  37.408  16.161   1.696
37843W        W97104  32.136   1.750   4.830
37844W        W97105  32.470  37.360  14.008
37845W        W97106  23.678  41.328  10.555
37846W        W97107  25.200  39.333   4.155
37847W        W97108  26.627  12.190   0.735
37848W        W97109  40.883  19.742   5.265
37849W        W97110  16.594   6.828   1.210
37850W        W97111  22.045  41.025   0.318
37851W        W97112  23.634  16.203  10.626
37852W        W97113  37.929   8.247  11.500
37853W        W97114  30.513   9.343   3.844
37854W        W97115  22.668  26.698   0.378
37855W        W97116  26.200   5.849  12.898
37856W        W97117  13.668  15.684  11.118
37857W        W97118  17.753  33.919   1.364
37858W        W97119  13.764  15.785  14.020
37859W        W97120  38.866  22.105   3.784
37860W        W97121  42.390   5.248   0.935
37861W        W97122   9.775  15.797   0.838
37862W        W97123  16.706  11.325  11.477
37863W        W97124  33.898  21.758  12.445
37864W        W97125   9.213   2.282   4.271
37865W        W97126  25.469  23.124  13.859
37866W        W97127   7.761  20.069  10.937
37867W        W97128  16.596   6.757  13.023
37868W        W97129   2.727  32.929   4.113
37869W        W97130   2.925   2.472  11.061
37870W        W97131   5.822  44.275  11.575
37871W        W97132  40.047  40.391  14.407
37872W        W97133  20.564  12.215   1.816
37873W        W97134  44.920  22.241   2.367
37874W        W97135  32.447  24.046  14.836
37875W        W97136  36.979  14.733  12.040
37876W        W97137  30.114  29.637  14.828
37877W        W97138   7.681   3.880   0.837
37878W        W97139  43.471  30.101   1.305
37879W        W97140  32.418   4.797   2.707
37880W        W97141  22.643  41.977   1.257
37881W        W97142   2.436  11.366   3.280
37882W        W97143   6.315  39.386  12.343
37883W        W97144  26.208  37.042  13.440
37884W        W97145  12.759   1.341   2.297
37885W        W97146  30.594  23.090   1.908
37886W        W97147  25.148  23.032   3.218
37887W        W97148  35.444  28.496   1.345
37888W        W97149  30.427  10.688   0.291
37889W        W97150  40.445  23.580   0.413
37890W        W97151  44.876  43.015   3.329
37891W        W97152  27.117  30.453   1.764
37892W        W97153  41.948  19.097   0.361
37893W        W97154  23.025   6.415   3.804
37894W        W97155  16.210   8.688  13.852
37895W        W97156   9.769  36.061   1.314
37896W        W97157  22.621  16.260   0.475
37897W        W97158  44.797  33.457   3.289
37898W        W97159  24.602  20.543  14.288
37899W        W97160  25.672  29.047  11.520
37900W        W97161  24.106   8.292   1.222
37901W        W97162  24.997  39.977  14.795
37902W        W97163   0.844  40.900   0.473
37903W        W97164  21.193  37.358   0.918
37904W        W97165  41.970   1.414  12.063
37905W        W97166  16.151   1.904  13.467
37906W        W97167  15.593  38.820   4.637
37907W        W97168  14.233   7.323  14.767
37908W        W97169  41.483  11.732  13.884
37909W        W97170  35.381  14.778   0.311
37910W        W97171  11.661  22.239   3.382
37911W        W97172  27.110  15.805   4.697
37912W        W97173  17.669   3.381  14.400
37913W        W97174  34.932  13.684  12.977
37914W        W97175  42.799  10.366   5.092
37915W        W97176  37.561  18.557  13.808
37916W        W97177  34.608  13.789   0.964
37917W        W97178   3.752  36.550  12.967
37918W        W97179  26.674  31.917   2.880
37919W        W97180  20.570  33.505  10.488
37920W        W97181  40.542  40.950   4.228
37921W        W97182  42.463  12.327  10.633
37922W        W97183  12.347   1.762  10.514
37923W        W97184  38.857  19.708  11.866
37924W        W97185  40.337  21.737   2.903
37925W        W97186  31.980  40.982   5.774
37926W        W97187   0.774  39.063   4.245
37927W        W97188   6.816  21.633  12.944
37928W        W97189  30.543   4.767  12.496
37929W        W97190   0.877  17.152  11.602
37930W        W97191   6.353  25.044  14.830
37931W        W97192   2.831  14.648  10.463
37932W        W97193  20.539  37.569   4.205
37933W        W97194  39.045  44.446  12.438
37934W        W97195   2.241  42.336  14.005
37935W        W97196   3.897  14.207   0.873
37936W        W97197  17.688  13.302   0.968
37937W        W97198  40.537  30.159  14.943
37938W        W97199  24.068  42.293   0.458
37939W        W97200   4.316  43.441  11.078
37940W        W97201  19.757  31.034  10.965
37941W        W97202  34.473  35.036  12.048
37942W        W97203   3.300  27.547  11.906
37943W        W97204  23.597  25.587  14.830
37944W        W97205  11.348  35.918  13.045
37945W        W97206   9.354  36.023   4.624
37946W        W97207  38.899  35.096  13.436
37947W        W97208  41.525   6.837  14.809
37948W        W97209  12.671   3.272   3.274
37949W        W97210  27.100   4.412   0.366
37950W        W97211  30.095  36.525   3.843
37951W        W97212  10.381  41.388   0.818
37952W        W97213  26.067  11.641  14.817
37953W        W97214  11.750  29.033  12.473
37954W        W97215   9.232  33.902  10.526
37955W        W97216  34.877   6.328   3.763
37956W        W97217   3.225   5.881   3.251
37957W        W97218  29.030   0.781   0.383
37958W        W97219  34.528  26.614  14.354
37959W        W97220  39.007  20.558  13.960
37960W        W97221  27.549  25.610  10.452
37961W        W97222  14.290  22.253   2.780
37962W        W97223  38.397  19.222   1.395
37963W        W97224   3.380  41.902   3.723
37964W        W97225  19.590   4.713  10.549
37965W        W97226  29.154  30.074   4.806
37966W        W97227  20.589  39.346  13.984
37967W        W97228  16.173  41.366   2.716
37968W        W97229   0.400   3.816   0.793
37969W        W97230  26.169  17.577   3.331
37970W        W97231  11.339  32.045  13.053
37971W        W97232  22.578   6.315   2.763
37972W        W97233   5.233  12.123  11.926
37973W        W97234  16.791   3.299   3.297
37974W        W97235   9.178  25.070  13.967
37975W        W97236  20.269  38.062   4.698
37976W        W97237  11.661  15.227   0.847
37977W        W97238   7.700  42.784   1.767
37978W        W97239  39.355  26.975   1.323
37979W        W97240  36.503  20.524  10.955
37980W        W97241  30.477  42.890  11.529
37981W        W97242   0.443  14.618  11.379
37982W        W97243  11.154  20.141  12.936
37983W        W97244  13.792  17.704  11.525
37984W        W97245  44.957  25.975  12.904
37985W        W97246   7.847  15.744  13.484
37986W        W97247  36.020  28.531  14.875
37987W        W97248  30.460  34.613  13.447
37988W        W97249   8.229  18.222  14.394
37989W        W97250  23.497  21.735   0.862
37990W        W97251  24.714  16.708   3.284
37991W        W97252   5.205  20.668   4.181
37992W        W97253  26.974  37.427  14.313
37993W        W97254  10.676  18.764  12.443
37994W        W97255   6.305  20.705  11.512
37995W        W97256  40.317   0.979  11.067
37996W        W97257  28.943  14.772  11.095
37997W        W97258  39.933  16.611   1.865
37998W        W97259  10.829   8.167   3.372
37999W        W97260  24.633   4.768   2.842
38000W        W97261  44.888   8.376   1.382
38001W        W97262   9.267   5.927  14.953
38002W        W97263  34.889  12.119   1.773
38003W        W97264  16.270  37.509  11.062
38004W        W97265  12.692  15.813  11.059
38005W        W97266  31.575  34.976   3.650
38006W        W97267  13.112  34.430   2.321
38007W        W97268  19.260  17.196   1.716
38008W        W97269  18.126  37.022  11.463
38009W        W97270  32.022  33.610  12.489
38010W        W97271   3.216  25.050   0.911
38011W        W97272  12.741  14.093  14.498
38012W        W97273  36.503   5.286   4.666
38013W        W97274   8.894  27.480  12.827
38014W        W97275  34.454  41.004  14.927
38015W        W97276  38.499  33.459  11.005
38016W        W97277  26.069  15.686  13.879
38017W        W97278  10.858  38.033   0.480
38018W        W97279  37.568  25.562  12.074
38019W        W97280  28.002  41.835  13.964
38020W        W97281  42.897  24.547   0.346
38021W        W97282  34.878  29.504  12.937
38022W        W97283  35.071  32.082   0.768
38023W        W97284  16.613  29.428  14.843
38024W        W97285  39.403  11.334   1.429
38025W        W97286  44.764  23.081  11.486
38026W        W97287  35.554   8.780   1.851
38027W        W97288  33.954   9.305  10.422
38028W        W97289  43.278  20.714  10.495
38029W        W97290  14.684  33.565   3.160
38030W        W97291  31.566  28.113   3.641
38031W        W97292  10.686  38.464  12.910
38032W        W97293  29.639  17.191   0.737
38033W        W97294  10.201  21.628  10.041
38034W        W97295  15.613  20.736  14.771
38035W        W97296   4.776  11.659  13.356
38036W        W97297  39.930  14.296   2.850
38037W        W97298  21.036  14.160   0.306
38038W        W97299   8.180  12.694   4.158
38039W        W97300  12.687  14.779   0.417
38040W        W97301  22.207  19.232  13.848
38041W        W97302  30.457  32.132   0.966
38042W        W97303  29.665  20.181  11.376
38043W        W97304   0.438   4.902   0.367
38044W        W97305  32.511  32.128  11.896
38045W        W97306  21.185  34.899  10.526
38046W        W97307  39.014  13.680   0.779
38047W        W97308  27.112  16.089   1.786
38048W        W97309  33.129  10.206   3.164
38049W        W97310  23.638  41.341   4.658
38050W        W97311   2.318  36.965  14.855
38051W        W97312  11.210  18.606  14.311
38052W        W97313  20.731  42.397   4.828
38053W        W97314   7.276  17.581   1.878
38054W        W97315  15.779   4.292  14.472
38055W        W97316  31.498  40.929   2.703
38056W        W97317  13.845  17.134   3.689
38057W        W97318   6.743   5.201   3.166
38058W        W97319  28.004  18.143  11.912
38059W        W97320  31.433  15.801   2.788
38060W        W97321  26.022   6.252  11.993
38061W        W97322  40.443  12.282   2.334
38062W        W97323  26.479  42.329   2.333
38063W        W97324  38.069  24.544   3.642
38064W        W97325  28.607  18.643  14.996
38065W        W97326   3.905  33.502  10.494
38066W        W97327  23.499  18.284   1.792
38067W        W97328  38.948  14.234  12.561
38068W        W97329   8.700  21.663   1.754
38069W        W97330  15.175  16.612  13.929
38070W        W97331   6.877  11.316   4.799
38071W        W97332   2.749  25.695  11.874
38072W        W97333  37.521  31.588   3.243
38073W        W97334   1.291  34.022   4.348
38074W        W97335   0.358  16.609   2.863
38075W        W97336  32.496   1.474  11.092
38076W        W97337  33.061  13.816  13.349
38077W        W97338  40.500  16.227   3.261
38078W        W97339   3.446  31.460   4.113
38079W        W97340   4.860  13.665  10.472
38080W        W97341  15.580  10.767   9.951
38081W        W97342  38.969   4.419  12.076
38082W        W97343  25.091  22.692  14.474
38083W        W97344   3.838  29.633   4.753
38084W        W97345   6.364  41.350  10.603
38085W        W97346  26.582  20.103  13.996
38086W        W97347  23.551  42.804   3.674
38087W        W97348  43.463  37.414  11.430
38088W        W97349  16.137  15.155  14.931
38089W        W97350  22.562  35.927  10.435
38090W        W97351   2.285  20.124  11.996
38091W        W97352  44.456  27.018  11.894
38092W        W97353   3.424  34.957   3.321
38093W        W97354  30.415  38.386  13.897
38094W        W97355  16.232  15.132   2.785
38095W        W97356  17.740  19.554  14.004
38096W        W97357  21.042  22.052   3.731
38097W        W97358   0.789  21.151   3.631
38098W        W97359   7.709   4.315  10.947
38099W        W97360  34.593  17.659  11.413
38100W        W97361   0.430  31.903  12.948
38101W        W97362  11.225  20.054   4.734
38102W        W97363  41.853   3.725  11.601
38103W        W97364  43.984  21.674  11.455
38104W        W97365  14.100   1.827   2.888
38105W        W97366  27.584   9.699   3.794
38106W        W97367  12.233  26.095  10.601
38107W        W97368  25.519   8.267   3.319
38108W        W97369  41.804  27.026  12.564
38109W        W97370  43.847  18.717   4.679
38110W        W97371  15.323  17.738   0.452
38111W        W97372  20.683  18.629  14.868
38112W        W97373  38.933   7.709   4.814
38113W        W97374  15.804   1.960  13.820
38114W        W97375  32.925  22.584  12.983
38115W        W97376   3.367  20.570  12.547
38116W        W97377  33.485  25.669  10.555
38117W        W97378  37.984  32.908   2.853
38118W        W97379  15.171   5.729  14.825
38119W        W97380   3.260  21.626   1.708
38120W        W97381  42.865  40.318   4.118
38121W        W97382  23.033  18.547  10.935
38122W        W97383  23.019  16.694  10.642
38123W        W97384  33.382   6.839   0.392
38124W        W97385  39.481  25.482  14.334
38125W        W97386  33.106  35.880  13.809
38126W        W97387   4.432  24.999   1.301
38127W        W97388  36.420  32.009  12.982
38128W        W97389  40.379  43.814  14.924
38129W        W97390  38.552  10.831   1.887
38130W        W97391   7.294  21.259   1.327
38131W        W97392   4.285  11.801   2.857
38132W        W97393  38.839  20.075   3.212
38133W        W97394  21.543  34.395  14.322
38134W        W97395   1.427  39.395  10.539
38135W        W97396  21.689   7.370  12.824
38136W        W97397  31.022  17.711   1.787
38137W        W97398  28.147  10.662   3.745
38138W        W97399  40.328   3.358   0.252
38139W        W97400  34.515   4.256  13.840
38140W        W97401  41.427  32.491   1.280
38141W        W97402  23.093  31.911   4.157
38142W        W97403  35.391  27.144  13.913
38143W        W97404   3.902  43.781   0.387
38144W        W97405  20.247  30.584  12.511
38145W        W97406  35.912   6.774  12.035
38146W        W97407  43.508   4.909  12.521
38147W        W97408   2.940  10.727  13.471
38148W        W97409  26.503  38.052   1.405
38149W        W97410  17.602  44.006   4.153
38150W        W97411  27.618  22.568  11.487
38151W        W97412  26.564  33.427   4.658
38152W        W97413  37.076  24.101  13.818
38153W        W97414  44.774  41.036   1.925
38154W        W97415  35.023  11.330  11.028
38155W        W97416  22.636   2.418  11.462
38156W        W97417  27.636  31.452   1.866
38157W        W97418  31.460  17.290   2.271
38158W        W97419  35.923  22.197  14.795
38159W        W97420  28.568   9.152  13.928
38160W        W97421  42.990   7.908  14.795
38161W        W97422   8.251  23.518  11.593
38162W        W97423  27.008  15.789  13.461
38163W        W97424  14.304  42.930   3.221
38164W        W97425  40.844  35.858  10.612
38165W        W97426  39.936  43.331   4.354
38166W        W97427  12.663  24.536   2.209
38167W        W97428  36.399  11.763  13.369
38168W        W97429  23.557  40.935  14.953
38169W        W97430   2.273  15.647   2.794
38170W        W97431  21.083  29.467  13.028
38171W        W97432  31.975   6.923   2.259
38172W        W97433   2.758  38.023   4.665
38173W        W97434  43.408  17.287   1.916
38174W        W97435   3.869  33.981   4.138
38175W        W97436  43.335  37.440  13.308
38176W        W97437  24.524  40.831  14.315
38177W        W97438  30.464  29.923   2.178
38178W        W97439  19.683  27.051  12.490
38179W        W97440  43.279  13.161  13.382
38180W        W97441  24.188  33.522  14.338
38181W        W97442  15.582  13.831   0.895
38182W        W97443  12.610  12.117   2.837
38183W        W97444   9.693  17.216   4.349
38184W        W97445   6.284   0.884  11.933
38185W        W97446  44.450   8.784   4.608
38186W        W97447  18.571  29.499  10.611
38187W        W97448  14.116   2.757   2.666
38188W        W97449   4.703  22.538  11.932
38189W        W97450  26.124  34.475   1.702
38190W        W97451  42.459  29.470  14.420
38191W        W97452  44.809  11.202   3.271
38192W        W97453  24.627  38.548  13.822
38193W        W97454  33.041  35.008  12.474
38194W        W97455   4.915  28.574   5.313
38195W        W97456   3.444   7.875  12.840
38196W        W97457   2.339   1.394  13.805
38197W        W97458   5.694  26.607   2.260
38198W        W97459   9.371  20.613   1.355
38199W        W97460   7.797   4.905  14.289
38200W        W97461   2.830  26.616  13.018
38201W        W97462  16.248   0.830  12.347
38202W        W97463   1.388  29.933   2.265
38203W        W97464  35.942  37.481  13.804
38204W        W97465   6.705  29.435   1.734
38205W        W97466  25.054  13.108  13.444
38206W        W97467  43.465  22.662  13.482
38207W        W97468  19.770  37.878   1.335
38208W        W97469  14.295  33.018  14.405
38209W        W97470  15.294   8.781  14.976
38210W        W97471  33.926  34.980  14.395
38211W        W97472  19.187  27.686   0.471
38212W        W97473  44.903  20.155  14.900
38213W        W97474  43.425  13.623  10.512
38214W        W97475  36.024  21.596   2.231
38215W        W97476  12.680  33.108   4.325
38216W        W97477  22.213  44.439   0.404
38217W        W97478  30.009  27.949   0.272
38218W        W97479  23.132   5.347   3.856
38219W        W97480  28.527  16.740   0.830
38220W        W97481   0.407  43.931   2.349
38221W        W97482  15.702  42.923   1.807
38222W        W97483   0.800   6.697   1.322
38223W        W97484  28.114  28.593  10.419
38224W        W97485  20.568  42.470   2.203
38225W        W97486  41.377  44.948   1.818
38226W        W97487  24.179  33.065   4.784
38227W        W97488  43.805  22.644   0.743
38228W        W97489   6.377  22.575   9.928
38229W        W97490  31.055  40.858   4.250
38230W        W97491  30.969  44.503  11.561
38231W        W97492  25.054   6.900  12.875
38232W        W97493  32.472   4.866   9.955
38233W        W97494   0.389   2.916   3.766
38234W        W97495  26.117  25.207   1.210
38235W        W97496  42.989  16.687   1.215
38236W        W97497   2.945  43.382   1.300
38237W        W97498  15.756  24.125  11.552
38238W        W97499  19.588  44.375  13.415
38239W        W97500  36.844   5.342  11.865
38240W        W97501  32.541   7.350   3.729
38241W        W97502  42.463  32.928  10.031
38242W        W97503  43.848  25.985  10.602
38243W        W97504  16.181  36.021  12.962
38244W        W97505   1.969  13.767   2.696
38245W        W97506  13.844   1.330  13.434
38246W        W97507  40.944  17.767  11.921
38247W        W97508  44.440  25.567  14.498
38248W        W97509  29.535   3.774   1.927
38249W        W97510  22.006  21.663   9.499
38250W        W97511  26.974  40.917   1.301
38251W        W97512  27.598  26.647   3.329
38252W        W97513  40.026  30.046   2.705
38253W        W97514  21.584   2.727  11.873
38254W        W97515  34.965  34.893   2.750
38255W        W97516   9.293  14.141   3.721
38256W        W97517  27.051  20.243   2.854
38257W        W97518  10.358  20.180  12.032
38258W        W97519  15.609  24.067  14.770
38259W        W97520   6.886  15.118  11.116
38260W        W97521   6.854   3.765   4.697
38261W        W97522  44.402  31.529  10.422
38262W        W97523   0.804  39.478   0.934
38263W        W97524   9.701  41.789   0.290
38264W        W97525  21.728  23.161   3.282
38265W        W97526  31.967   9.346   4.794
38266W        W97527  36.559  20.082  11.123
38267W        W97528  37.474  21.530   1.435
38268W        W97529  15.152   9.692  12.373
38269W        W97530  19.264  13.180  14.435
38270W        W97531  43.483  38.978   2.790
38271W        W97532  20.656  42.424   3.175
38272W        W97533  32.636  11.727  12.011
38273W        W97534  43.937  10.328   0.259
38274W        W97535  29.959  44.826  12.470
38275W        W97536  29.115  13.697   4.275
38276W        W97537  34.929   9.844  12.869
38277W        W97538   9.331  19.549   1.843
38278W        W97539   5.883  11.838   4.293
38279W        W97540  27.541  40.050   1.745
38280W        W97541  32.555   2.428   1.711
38281W        W97542  23.120   4.215   0.317
38282W        W97543  29.495   0.821   3.311
38283W        W97544  35.995  42.913   1.411
38284W        W97545  14.752  16.216   2.708
38285W        W97546   0.453  19.539  13.458
38286W        W97547  30.423  25.047  12.506
38287W        W97548  29.981  37.376   5.187
38288W        W97549   1.308   7.825  11.391
38289W        W97550  16.740  35.898   2.404
38290W        W97551   0.465  18.668   1.836
38291W        W97552  36.382   9.376  14.378
38292W        W97553  37.480  31.508  11.112
38293W        W97554   2.904  15.161  11.979
38294W        W97555   1.800  16.670  11.887
38295W        W97556  24.206  20.085   3.207
38296W        W97557  10.766   1.779   2.187
38297W        W97558  28.611  41.427  11.864
38298W        W97559   5.834  12.213  10.959
38299W        W97560  31.632  19.641  12.444
38300W        W97561  38.865   2.283  11.443
38301W        W97562  22.170  26.192   3.204
38302W        W97563  20.178  42.946   3.271
38303W        W97564  31.428  43.993  14.296
38304W        W97565  28.035  30.466   3.819
38305W        W97566  35.565  26.512   1.321
38306W        W97567  30.607  33.120   1.287
38307W        W97568  10.846  42.909   4.808
38308W        W97569   5.928  23.648   3.295
38309W        W97570  30.076   4.371   2.323
38310W        W97571  30.102   3.392   0.775
38311W        W97572  23.576  44.487   1.414
38312W        W97573  42.863   4.763  10.498
38313W        W97574  21.085  42.835   2.297
38314W        W97575  43.910  18.122  12.522
38315W        W97576  10.830  13.283   0.959
38316W        W97577   9.254  10.826  12.898
38317W        W97578  43.005  27.538  10.936
38318W        W97579   5.902   3.863   1.887
38319W        W97580  39.515   7.752  11.390
38320W        W97581   5.305  36.032  14.281
38321W        W97582   9.698  17.691  14.819
38322W        W97583  20.732  36.046   3.832
38323W        W97584   2.287  42.514   1.430
38324W        W97585  10.802  36.347   2.757
38325W        W97586   9.208  18.689  13.484
38326W        W97587   5.693  37.562   2.764
38327W        W97588  16.760  39.458  13.402
38328W        W97589  35.509  43.389  12.542
38329W        W97590  29.424  41.309   4.615
38330W        W97591  31.422   8.776   4.740
38331W        W97592  28.962   8.830   2.842
38332W        W97593  30.048  42.452  14.765
38333W        W97594  14.796  34.937  12.492
38334W        W97595  38.461  11.771   0.405
38335W        W97596  19.270   0.982  12.496
38336W        W97597  11.324   0.771  13.506
38337W        W97598  33.981   3.291   2.738
38338W        W97599  35.545  13.764  13.319
38339W        W97600  35.070  13.749  13.824
38340W        W97601  23.502  13.810   2.832
38341W        W97602  13.310  44.854  12.403
38342W        W97603  24.495   9.292   4.189
38343W        W97604  44.410   5.842   4.734
38344W        W97605  20.205  41.972   4.126
38345W        W97606   8.341  39.325   3.814
38346W        W97607  34.574  12.224   3.278
38347W        W97608   7.343   1.843   4.783
38348W        W97609  27.561   2.238   2.862
38349W        W97610  18.764  21.736   1.756
38350W        W97611  11.245  37.993   3.675
38351W        W97612  23.681  35.041   0.366
38352W        W97613  15.254  41.879   4.731
38353W        W97614   3.412  11.155  11.408
38354W        W97615  20.549  27.055  12.427
38355W        W97616  23.141  37.440  12.030
38356W        W97617  35.468  12.644  12.539
38357W        W97618  32.133  18.576   3.317
38358W        W97619  39.022  31.906   3.823
38359W        W97620  13.800  40.530   0.826
38360W        W97621   9.392   6.263   2.248
38361W        W97622   5.439  33.054  12.892
38362W        W97623  12.128   6.346  11.606
38363W        W97624   9.865   8.279  11.129
38364W        W97625  36.593  33.509  14.011
38365W        W97626  42.291  33.615  14.398
38366W        W97627  33.408  43.827  12.366
38367W        W97628  29.503  29.613   3.300
38368W        W97629  15.102  11.197  11.942
38369W        W97630  24.020   2.433  11.510
38370W        W97631  30.532  21.044   4.273
38371W        W97632  28.173  14.793  11.385
38372W        W97633  40.931   0.316   0.255
38373W        W97634  18.293  40.443  14.293
38374W        W97635  27.485  13.663   4.317
38375W        W97636   8.689  16.570   2.721
38376W        W97637   6.204  19.209  13.820
38377W        W97638  43.802   2.913  12.913
38378W        W97639  14.673  26.551  12.379
38379W        W97640  14.774  13.803  11.609
38380W        W97641  11.795  42.025   1.408
38381W        W97642  39.895  22.136   1.871
38382W        W97643  37.434   4.338   2.901
38383W        W97644  23.125  37.472   4.644
38384W        W97645   2.269  31.053   0.823
38385W        W97646  17.692   2.240  12.531
38386W        W97647  31.058  39.889   4.746
38387W        W97648  10.721   9.702   0.365
38388W        W97649   3.956   3.933   0.912
38389W        W97650  24.020  30.985   1.866
38390W        W97651  23.576  32.443   3.173
38391W        W97652   5.367  29.088   1.900
38392W        W97653  15.642  41.379   2.841
38393W        W97654   1.902  32.439   3.705
38394W        W97655  25.986   0.412  14.398
38395W        W97656  25.687  37.548   3.737
38396W        W97657   3.756  14.603   3.725
38397W        W97658   2.919  33.993  14.484
38398W        W97659  36.033  43.917   3.344
38399W        W97660   9.248  38.541   3.863
38400W        W97661  20.154  30.146  11.519
38401W        W97662  21.215  31.546  14.355
38402W        W97663  13.314  44.291   2.267
38403W        W97664  12.820   1.395   4.198
38404W        W97665  32.032   2.339   0.732
38405W        W97666  35.514   8.800   1.366
38406W        W97667  35.488  18.292   2.861
38407W        W97668  16.805  25.677  12.340
38408W        W97669  34.400  24.518  14.893
38409W        W97670  16.812  15.089  13.458
38410W        W97671  26.669  30.542   0.912
38411W        W97672   0.754  33.494  13.387
38412W        W97673  24.181  40.923  11.484
38413W        W97674  23.655   8.192   1.849
38414W        W97675  30.440  33.109   2.747
38415W        W97676  41.955  23.511  14.363
38416W        W97677  31.969  19.660  12.515
38417W        W97678  33.539  15.823   2.412
38418W        W97679  16.747   1.844  14.426
38419W        W97680  38.499   0.299  14.469
38420W        W97681   5.893  24.224   2.392
38421W        W97682  23.539  14.129   3.727
38422W        W97683  26.083  12.220   4.243
38423W        W97684  11.816  40.020  11.937
38424W        W97685   8.298  18.248  12.416
38425W        W97686  21.576  18.251   2.714
38426W        W97687  38.555  21.110   1.430
38427W        W97688  41.861  26.569   0.798
38428W        W97689  22.559  13.792   0.740
38429W        W97690  25.048   1.261  10.964
38430W        W97691  41.345  20.524   1.413
38431W        W97692  35.439  13.653   4.609
38432W        W97693  28.107  11.783  14.337
38433W        W97694  24.550  14.597   0.780
38434W        W97695   0.804  15.582   1.367
38435W        W97696   7.702  13.635  13.949
38436W        W97697  32.543   6.214  10.944
38437W        W97698   5.828  29.506  11.117
38438W        W97699  42.353   4.210  14.282
38439W        W97700  26.101   3.871   4.796
38440W        W97701  16.130  22.603   1.340
38441W        W97702  34.923  36.416   0.293
38442W        W97703  40.020  27.051   3.167
38443W        W97704   1.959  13.662   0.944
38444W        W97705  29.659  34.569   3.313
38445W        W97706  27.947  12.225   2.814
38446W        W97707  14.154  30.134   2.198
38447W        W97708  44.430   3.783   2.793
38448W        W97709  15.660   1.803   4.704
38449W        W97710   9.210  40.443   2.318
38450W        W97711  21.711  30.923   4.239
38451W        W97712  32.015   7.836  11.005
38452W        W97713  25.666  16.312  11.503
38453W        W97714  31.048   5.227   0.797
38454W        W97715  22.616  11.152  11.593
38455W        W97716  19.565  12.338  10.895
38456W        W97717  43.943  14.612   2.194
38457W        W97718  44.463  11.705   5.108
38458W        W97719  42.811  28.152   5.260
38459W        W97720  35.534  20.731  11.478
38460W        W97721  20.044   0.850   3.761
38461W        W97722  32.575  37.994   1.450
38462W        W97723   4.778  37.574  11.541
38463W        W97724   8.237  34.921  13.537
38464W        W97725  21.655   3.739  12.976
38465W        W97726  38.408  44.316  12.858
38466W        W97727  12.649  14.614   2.869
38467W        W97728  12.248   0.905  11.431
38468W        W97729  17.294  25.183  10.982
38469W        W97730  12.781  25.026   0.431
38470W        W97731  16.753  37.084  14.449
38471W        W97732  33.471  16.172  12.384
38472W        W97733  19.769  44.928   3.356
38473W        W97734   1.237  34.015  11.862
38474W        W97735  32.394  31.461  11.430
38475W        W97736   9.272   8.847  12.948
38476W        W97737  42.807  18.789  11.877
38477W        W97738  16.710  29.610   0.446
38478W        W97739  14.094  38.531   2.779
38479W        W97740   0.376  23.155  12.009
38480W        W97741  38.863  13.342   1.876
38481W        W97742   2.435  16.809  14.776
38482W        W97743  18.178  43.322  12.422
38483W        W97744  36.367  21.046   2.662
38484W        W97745  35.519  13.804   0.738
38485W        W97746  43.363  18.132   3.860
38486W        W97747  13.846  16.170  11.968
38487W        W97748   7.758  29.171  12.966
38488W        W97749  39.983  34.403   2.229
38489W        W97750  41.995  40.036   0.279
38490W        W97751  26.158  41.876   1.445
38491W        W97752  37.398  42.802   3.321
38492W        W97753   5.326  23.218   1.929
38493W        W97754   3.415   5.244   0.268
38494W        W97755   0.271   7.700   0.878
38495W        W97756   0.911   8.665  12.488
38496W        W97757  37.991  14.225  14.807
38497W        W97758  19.749  39.040   1.323
38498W        W97759  35.587  30.004   1.783
38499W        W97760  23.705   5.879  10.982
38500W        W97761  10.285  31.031   9.962
38501W        W97762  42.452  41.835   1.313
38502W        W97763   2.725   4.903  14.949
38503W        W97764  41.514  24.514  14.291
38504W        W97765  33.404  22.739  11.922
38505W        W97766  11.762   7.406   9.938
38506W        W97767   6.346   8.331  12.427
38507W        W97768  28.063  39.060   2.773
38508W        W97769  22.708  44.337   4.123
38509W        W97770  42.440  30.422  11.374
38510W        W97771  21.652  20.109  10.603
38511W        W97772  28.008  39.513   3.201
38512W        W97773  37.914  39.977  12.903
38513W        W97774  43.394  24.992  10.541
38514W        W97775   6.720  34.428   3.820
38515W        W97776  21.724  18.608   4.661
38516W        W97777   7.299  37.430   0.399
38517W        W97778  34.370  27.105  14.807
38518W        W97779  38.061  31.990   3.157
38519W        W97780   0.742  32.139  10.489
38520W        W97781  13.681  40.955  11.491
38521W        W97782  38.386  35.903  10.137
38522W        W97783  30.031  39.950  11.930
38523W        W97784  34.554   6.366   4.332
38524W        W97785   7.833   1.324  10.910
38525W        W97786  42.450  13.834   4.119
38526W        W97787  22.110  21.159  12.995
38527W        W97788   8.235   0.854   1.299
38528W        W97789   0.822  32.975   1.261
38529W        W97790   1.387   5.787  11.098
38530W        W97791  11.811   2.408   0.310
38531W        W97792  44.449   4.287  11.038
38532W        W97793  44.009  14.199  14.320
38533W        W97794  25.701  39.920   0.279
38534W        W97795  40.497  42.846   2.238
38535W        W97796  32.042  11.826  14.900
38536W        W97797  10.835  23.653  12.093
38537W        W97798  22.605  37.529   1.285
38538W        W97799  10.188  26.113  13.506
38539W        W97800  36.492  36.530  10.544
38540W        W97801  32.590  28.540   4.718
38541W        W97802  29.166  37.478  11.553
38542W        W97803  25.180   3.355  14.482
38543W        W97804  20.708  14.762  12.466
38544W        W97805  21.729  42.470   4.672
38545W        W97806  44.372  34.983   5.206
38546W        W97807  31.128  35.424  11.585
38547W        W97808  28.034  17.793   1.349
38548W        W97809  30.049  36.894  12.089
38549W        W97810  36.091  31.018   2.790
38550W        W97811  32.510  18.723  14.506
38551W        W97812  12.668  23.554  13.994
38552W        W97813  30.945  43.329   4.148
38553W        W97814  33.588  25.692   1.879
38554W        W97815  31.453  19.183  14.968
38555W        W97816  14.227  21.116  11.003
38556W        W97817   3.322   7.332   4.776
38557W        W97818  41.984  16.088  12.894
38558W        W97819   7.740  18.110   3.858
38559W        W97820  20.233  17.160   0.337
38560W        W97821  34.921  32.593   1.223
38561W        W97822   2.966  20.694   0.847
38562W        W97823  44.831   6.771   1.430
38563W        W97824  16.166  39.840  10.506
38564W        W97825   9.226  18.785   0.932
38565W        W97826   4.909  11.645  11.859
38566W        W97827  37.348   8.685   4.731
38567W        W97828  17.759  32.526   4.705
38568W        W97829  40.026  24.162   0.448
38569W        W97830  36.382  23.135   1.911
38570W        W97831   4.318  37.486   2.372
38571W        W97832  21.126  13.298  11.440
38572W        W97833  13.705  28.125   2.321
38573W        W97834  28.562  18.192   0.308
38574W        W97835  13.107  41.846   3.381
38575W        W97836  42.492   0.402   3.303
38576W        W97837  18.093  26.466  11.394
38577W        W97838   6.755  39.952   4.716
38578W        W97839  33.467  43.355  14.305
38579W        W97840  38.547   1.286  10.936
38580W        W97841  13.700  10.803  11.935
38581W        W97842   8.211  30.016  13.508
38582W        W97843  31.031  29.633  12.445
38583W        W97844  37.450  38.995  12.023
38584W        W97845  41.025   6.806   2.182
38585W        W97846  27.091  19.767  12.346
38586W        W97847  38.371   3.371  11.023
38587W        W97848   4.294  35.483  13.061
38588W        W97849  28.982  26.047   2.797
38589W        W97850  10.275   5.838   1.751
38590W        W97851  17.676  38.012   4.787
38591W        W97852   5.222  21.535  14.833
38592W        W97853  25.112   0.329  11.879
38593W        W97854  24.506  23.731   4.624
38594W        W97855   9.349  32.115   2.708
38595W        W97856  35.361  37.419  13.476
38596W        W97857   5.217  25.181   2.409
38597W        W97858   6.286  42.825   3.151
38598W        W97859  15.108   7.866  14.837
38599W        W97860  35.867  30.467   0.320
38600W        W97861  18.138  41.828  12.877
38601W        W97862  17.715  15.144  11.575
38602W        W97863   9.222   1.475   4.204
38603W        W97864  21.702  19.534   3.711
38604W        W97865   8.389  12.120  12.506
38605W        W97866  15.627  36.947   1.396
38606W        W97867  42.935  19.152  14.924
38607W        W97868  35.500   5.883  13.866
38608W        W97869  32.478  44.884   1.212
38609W        W97870   3.921   7.728  14.784
38610W        W97871  15.721   3.353  10.013
38611W        W97872  31.409   3.307   2.274
38612W        W97873  13.230   2.310  10.992
38613W        W97874  38.568  23.232   0.907
38614W        W97875  12.306  28.178  13.895
38615W        W97876  20.547  22.601   0.386
38616W        W97877   2.278  10.811  11.980
38617W        W97878  18.560   8.658   1.764
38618W        W97879  33.026   2.401   4.304
38619W        W97880  18.626  41.876   4.630
38620W        W97881  37.848   7.849   3.780
38621W        W97882   3.461  18.244  12.541
38622W        W97883  21.073  31.418   1.756
38623W        W97884  29.960  41.882  14.028
38624W        W97885  37.011  34.565   0.345
38625W        W97886  43.873  25.079  11.543
38626W        W97887  22.737  12.836   3.752
38627W        W97888  21.046  31.046   0.959
38628W        W97889  33.420   2.936  13.955
38629W        W97890  39.383  40.838   2.232
38630W        W97891  41.321  43.408   4.205
38631W        W97892  42.874  22.563  14.479
38632W        W97893  10.176  32.005  10.012
38633W        W97894  28.010  38.387   2.302
38634W        W97895  14.331  14.297   2.409
38635W        W97896  26.592   9.692  13.971
38636W        W97897  11.830   0.266  14.313
38637W        W97898  18.266  18.091   5.571
38638W        W97899  42.467  22.675   4.743
38639W        W97900   1.926  39.457   4.262
38640W        W97901  36.395  25.019  12.900
38641W        W97902  35.388  11.136   4.745
38642W        W97903  24.148  30.499  14.298
38643W        W97904  41.895   3.252   3.652
38644W        W97905  32.960   4.223   1.889
38645W        W97906  43.869  24.139  14.329
38646W        W97907  27.191   1.969   4.829
38647W        W97908  41.377  25.995  12.409
38648W        W97909  41.877  30.589   1.269
38649W        W97910  12.619  25.978  11.106
38650W        W97911  13.644   8.182  10.940
38651W        W97912  23.230  26.666  12.011
38652W        W97913  44.891   0.302   2.337
38653W        W97914  17.254  35.580   3.335
38654W        W97915  29.529   6.892  12.499
38655W        W97916  28.007  21.144  13.044
38656W        W97917  35.549  24.985   0.750
38657W        W97918  41.331  38.043  13.033
38658W        W97919  23.201  40.310   2.372
38659W        W97920   4.256  17.755   0.741
38660W        W97921  39.999   0.259   3.764
38661W        W97922   9.887  40.920   0.292
38662W        W97923   3.782  44.781  13.469
38663W        W97924  28.062  29.020   1.736
38664W        W97925  30.476  21.017   9.998
38665W        W97926  26.663  24.073   4.772
38666W        W97927  16.584  32.437  10.556
38667W        W97928  38.040   3.836   3.640
38668W        W97929  39.029   0.942   4.680
38669W        W97930  30.922  18.270   2.285
38670W        W97931   2.781  39.950   2.323
38671W        W97932  38.869  34.078   2.218
38672W        W97933  42.007  14.680   4.337
38673W        W97934  22.103  13.135  14.781
38674W        W97935  13.351   0.892   0.745
38675W        W97936   6.870  22.531  13.803
38676W        W97937   0.344  34.399  11.111
38677W        W97938  36.495  12.272   4.222
38678W        W97939  40.913  33.937  14.759
38679W        W97940  12.710  23.711   0.849
38680W        W97941   4.824  39.478  11.572
38681W        W97942   4.361  38.038   1.368
38682W        W97943   8.199  27.572   2.253
38683W        W97944  34.552  34.413   0.832
38684W        W97945  36.478  22.146   3.800
38685W        W97946  22.128   0.252   2.690
38686W        W97947  29.986  34.541   0.814
38687W        W97948  30.546  28.063  12.389
38688W        W97949  29.539  44.920   0.287
38689W        W97950  18.219  39.943   0.424
38690W        W97951  18.758  42.920  13.524
38691W        W97952   1.261  11.716   4.185
38692W        W97953  32.481  37.545  11.603
38693W        W97954   2.891   3.417   2.403
38694W        W97955   8.771   5.338   4.258
38695W        W97956  43.302  25.635   2.378
38696W        W97957  41.040  20.755   1.873
38697W        W97958  21.530  33.490   3.793
38698W        W97959  35.389   7.898  13.309
38699W        W97960   9.153  13.319   2.315
38700W        W97961   3.756  41.948  11.933
38701W        W97962  28.067  44.425  11.498
38702W        W97963   6.804  24.604  10.557
38703W        W97964  11.809   2.818  14.908
38704W        W97965   8.662  16.688   1.323
38705W        W97966  44.269  16.700   4.192
38706W        W97967   0.451  40.462  14.409
38707W        W97968  28.076   5.416  10.580
38708W        W97969   4.366  36.948  13.798
38709W        W97970  10.698  18.202   2.382
38710W        W97971   4.876   0.842  14.963
38711W        W97972  37.042  32.098   2.764
38712W        W97973   9.311  42.941  14.307
38713W        W97974   0.849  33.445   1.740
38714W        W97975  27.652  26.175   2.231
38715W        W97976  38.543  37.041   1.764
38716W        W97977  12.266   5.864   0.301
38717W        W97978  18.575  25.639   2.861
38718W        W97979  29.154   0.782  10.488
38719W        W97980  30.584  39.034  13.051
38720W        W97981   9.644   7.776  11.518
38721W        W97982  25.551  15.274  13.513
38722W        W97983  18.170  19.598  12.475
38723W        W97984  12.714  18.102   1.866
38724W        W97985  30.915  36.372  10.950
38725W        W97986   4.398  23.028  12.087
38726W        W97987  38.914   5.718   1.376
38727W        W97988  17.081  30.140   1.278
38728W        W97989  38.355   5.774   4.146
38729W        W97990  29.173   9.704   2.883
38730W        W97991  31.992   8.727  12.361
38731W        W97992  12.806  42.788  12.884
38732W        W97993  36.876  28.040  13.794
38733W        W97994  14.618  25.120  13.511
38734W        W97995   5.370  40.908   3.709
38735W        W97996   3.838  42.312  11.440
38736W        W97997  34.494  44.897   0.952
38737W        W97998  10.273  14.653   4.827
38738W        W97999  20.651  41.797  12.461
38739W        W98000  24.119  15.236   1.439
38740W        W98001  29.989  30.044  13.866
38741W        W98002  38.045   2.726  11.120
38742W        W98003  43.005  36.433   0.473
38743W        W98004  11.140   7.912  11.613
38744W        W98005  27.567  20.747   1.864
38745W        W98006  21.214  43.351  13.444
38746W        W98007   4.289  22.179   0.390
38747W        W98008  33.428  39.391  13.410
38748W        W98009  41.889  20.080  10.466
38749W        W98010  19.226   4.338  11.108
38750W        W98011  43.933   2.730  14.955
38751W        W98012   1.432  27.654   4.332
38752W        W98013   1.801  11.355  10.903
38753W        W98014  24.999  26.964   4.146
38754W        W98015  25.125  12.676  11.936
38755W        W98016  39.885  16.695  13.505
38756W        W98017   8.309   3.216  11.480
38757W        W98018  12.355  21.735   2.407
38758W        W98019   2.241  34.985  14.807
38759W        W98020  26.587  32.394   2.760
38760W        W98021  31.491  22.576   0.452
38761W        W98022  20.739  15.578   3.246
38762W        W98023  24.581  28.572   4.619
38763W        W98024  30.136   6.235   2.879
38764W        W98025  38.426  29.027  12.350
38765W        W98026  42.971  19.681  12.459
38766W        W98027  13.245  37.872  10.627
38767W        W98028   9.732  38.878   1.303
38768W        W98029  25.483  24.999  13.920
38769W        W98030  15.181  41.933   3.162
38770W        W98031  24.511  13.704   1.909
38771W        W98032  29.465  17.580   0.460
38772W        W98033  38.496  19.744  14.512
38773W        W98034  31.469  35.891  13.423
38774W        W98035  27.465  18.718  12.531
38775W        W98036  25.002  30.057   4.797
38776W        W98037  34.987  29.552   0.377
38777W        W98038  41.918  21.021  14.381
38778W        W98039  27.968   7.827   0.826
38779W        W98040  28.497  31.485  12.550
38780W        W98041  27.193   4.274   3.289
38781W        W98042  42.920  18.251  14.311
38782W        W98043  23.226  35.552   0.783
38783W        W98044  30.992   2.851   4.674
38784W        W98045  33.914  43.376   0.895
38785W        W98046  41.371  32.085   2.737
38786W        W98047  37.375  39.874   3.866
38787W        W98048  20.710  12.217  12.907
38788W        W98049  18.166  25.502   2.795
38789W        W98050   5.223  10.164  14.853
38790W        W98051  40.988  44.998  11.882
38791W        W98052  29.429  33.447  14.486
38792W        W98053   2.356  39.454  10.610
38793W        W98054  17.564  32.953   1.421
38794W        W98055  27.514  18.285   2.334
38795W        W98056   8.864  22.653   3.173
38796W        W98057  32.119  28.086   3.327
38797W        W98058  36.034   4.367   1.714
38798W        W98059  22.069  14.331   4.169
38799W        W98060  41.925  10.213  14.910
38800W        W98061  35.025  32.406  10.994
38801W        W98062   8.870  15.176  13.032
38802W        W98063  21.736  43.307   3.821
38803W        W98064  15.186  27.656  13.340
38804W        W98065   5.842  24.681  11.556
38805W        W98066   8.241  43.939   4.203
38806W        W98067  14.312  16.785   3.294
38807W        W98068  28.606  11.252   5.727
38808W        W98069   9.687  12.273   0.294
38809W        W98070  43.385  22.550   3.637
38810W        W98071  36.862  13.226  14.498
38811W        W98072  19.176  13.242  11.982
38812W        W98073  33.624  41.822   1.353
38813W        W98074   5.314  31.111   0.428
38814W        W98075  18.729  15.823   3.689
38815W        W98076   6.299  18.053  14.958
38816W        W98077  24.068  22.709  11.873
38817W        W98078  21.127  29.524  12.382
38818W        W98079  24.176  30.573  11.112
38819W        W98080  36.585  27.477  11.952
38820W        W98081  25.570  28.655   4.310
38821W        W98082  14.102  14.724   4.768
38822W        W98083   0.752  16.075  11.479
38823W        W98084  15.113  23.175  11.995
38824W        W98085  27.635  13.165   4.668
38825W        W98086  28.178  26.525   1.824
38826W        W98087  20.259  11.140  11.610
38827W        W98088  40.834  32.621  12.949
38828W        W98089  42.406  22.089   1.322
38829W        W98090   4.277  11.351   0.415
38830W        W98091  32.554   4.224   1.220
38831W        W98092  37.045  18.189   3.647
38832W        W98093  26.205  17.562  14.942
38833W        W98094   6.237   4.287   1.719
38834W        W98095   3.404  40.850  12.858
38835W        W98096  42.415  37.405  14.506
38836W        W98097  25.692  21.709   3.357
38837W        W98098   5.407  27.072   2.682
38838W        W98099  22.566   2.264   1.906
38839W        W98100  14.185  36.866  14.807
38840W        W98101  15.779  43.795   2.184
38841W        W98102  42.002  38.013   1.373
38842W        W98103   2.326  40.867  13.892
38843W        W98104  36.569  12.764   4.792
38844W        W98105  13.705  14.147   0.817
38845W        W98106  11.144  31.118   2.275
38846W        W98107  16.592  16.644   2.209
38847W        W98108  30.945  16.763   1.277
38848W        W98109  16.800   5.795   4.623
38849W        W98110   6.801  29.981   1.737
38850W        W98111   6.856   9.705  14.029
38851W        W98112  16.139   8.816   2.669
38852W        W98113  36.468  15.125  10.568
38853W        W98114  21.171  27.633   1.912
38854W        W98115  43.897  19.564  13.889
38855W        W98116  28.171   5.875   0.341
38856W        W98117  43.327  44.460  13.892
38857W        W98118  33.415   6.212  11.393
38858W        W98119   0.847  37.028  10.047
38859W        W98120  25.566  20.565   0.380
38860W        W98121  28.448  32.967  11.459
38861W        W98122   9.200  39.396  11.859
38862W        W98123  28.627  14.107  14.908
38863W        W98124   6.839  20.561   1.361
38864W        W98125  39.005   2.952   1.868
38865W        W98126  40.975   8.759   3.683
38866W        W98127  12.233   2.471  12.858
38867W        W98128  10.810  20.145   3.635
38868W        W98129  30.112  31.628  11.506
38869W        W98130  22.054   8.277   3.358
38870W        W98131  35.508  38.823   4.275
38871W        W98132  43.514  12.206   1.399
38872W        W98133  23.656  33.416  11.979
38873W        W98134  30.622  29.004   3.374
38874W        W98135  40.371  17.574  12.906
38875W        W98136   4.831  35.048   5.189
38876W        W98137  30.598  42.359  10.567
38877W        W98138  31.102  40.497   0.352
38878W        W98139  42.950  29.143  11.447
38879W        W98140  13.114  33.039   4.804
38880W        W98141   8.889  22.058   4.810
38881W        W98142  31.907   3.950  14.493
38882W        W98143   1.871  33.507   1.886
38883W        W98144  19.682  27.540   4.149
38884W        W98145   3.924  19.545  11.373
38885W        W98146  27.575  37.417   0.933
38886W        W98147  12.698  36.877   2.751
38887W        W98148  25.106   5.209  10.533
38888W        W98149  39.501  42.369   0.829
38889W        W98150  31.576   4.832  10.955
38890W        W98151   5.227  40.996  10.572
38891W        W98152  44.489  10.787   4.634
38892W        W98153   1.443  12.722   2.409
38893W        W98154  16.306  22.205  11.548
38894W        W98155  40.329   8.665   2.736
38895W        W98156  36.926  12.154  11.986
38896W        W98157  13.122  16.592   4.325
38897W        W98158   2.921  13.626  10.908
38898W        W98159   4.364  20.138  13.003
38899W        W98160  31.414  19.765   4.828
38900W        W98161  19.129  31.973   2.841
38901W        W98162  32.992   7.863  11.879
38902W        W98163  31.086  17.197   1.450
38903W        W98164  33.126  41.346   1.744
38904W        W98165  37.946  36.526   2.849
38905W        W98166   3.784  11.650   0.903
38906W        W98167  28.075  30.659   4.306
38907W        W98168  43.931  10.161  13.384
38908W        W98169   0.443  43.383  12.455
38909W        W98170  28.114   3.239  10.526
38910W        W98171  33.128  34.590   2.727
38911W        W98172  36.889  15.092   2.281
38912W        W98173   0.446  10.681   0.736
38913W        W98174  19.655  26.082  10.890
38914W        W98175  17.611  33.954   3.679
38915W        W98176  34.920   9.343   2.295
38916W        W98177  11.839  27.621   2.715
38917W        W98178  27.983  40.391   5.315
38918W        W98179   5.836  36.972   4.325
38919W        W98180  43.020  20.708   4.786
38920W        W98181  36.899   1.765  11.961
38921W        W98182   4.857  17.184  11.529
38922W        W98183  28.098  30.420   0.342
38923W        W98184  35.461  13.225  13.791
38924W        W98185  34.071  10.854   0.791
38925W        W98186   4.252  15.648   1.766
38926W        W98187  32.394  32.411  13.058
38927W        W98188  30.152   3.904  13.937
38928W        W98189  27.070  22.526   2.344
38929W        W98190  12.295  32.632  13.825
38930W        W98191   3.846   8.849  12.896
38931W        W98192  40.940  30.502   2.322
38932W        W98193   9.806  41.025  10.567
38933W        W98194   2.340  13.806  11.068
38934W        W98195  20.522  11.152   4.195
38935W        W98196  16.736  19.750   1.394
38936W        W98197  36.567  28.638  11.473
38937W        W98198  40.956  24.560  13.824
38938W        W98199   3.914  10.827   3.702
38939W        W98200  26.656  17.761   0.867
38940W        W98201  34.054  16.126  11.428
38941W        W98202   6.794  19.065   0.391
38942W        W98203  22.047  22.095  13.048
38943W        W98204   7.900   6.774   2.193
38944W        W98205  33.596  20.110  10.579
38945W        W98206  16.148  29.073   1.378
38946W        W98207  30.418  14.256  10.077
38947W        W98208   4.335   4.839   4.183
38948W        W98209   7.907  16.781   2.778
38949W        W98210   8.246  23.568  12.856
38950W        W98211  24.178  14.639   4.674
38951W        W98212  26.583  30.124   2.786
38952W        W98213  43.832  20.069  10.502
38953W        W98214  34.907  11.286  12.342
38954W        W98215   9.817  25.114  14.919
38955W        W98216  29.433  26.600  12.896
38956W        W98217  15.675  43.890  10.491
38957W        W98218  26.521   6.230   2.669
38958W        W98219  37.459  23.083  12.836
38959W        W98220  12.820  13.105   2.711
38960W        W98221   5.238  33.960   0.458
38961W        W98222   4.781  30.573   4.341
38962W        W98223  21.141  27.972   4.624
38963W        W98224  43.866  23.202   1.726
38964W        W98225  10.270  40.051  13.795
38965W        W98226  12.282  12.740  11.915
38966W        W98227  11.136  24.698  11.089
38967W        W98228  27.999   2.770   1.855
38968W        W98229   5.712   6.825   2.768
38969W        W98230  33.434  41.313  14.439
38970W        W98231  28.139   2.818   0.833
38971W        W98232  26.206  21.080  14.873
38972W        W98233  17.128  17.258  14.841
38973W        W98234   4.336  34.881  12.423
38974W        W98235  28.105  12.161   1.874
38975W        W98236  41.002   9.210   2.187
38976W        W98237  43.447   1.449  11.024
38977W        W98238   3.371  31.520  12.553
38978W        W98239  29.954  20.550   1.882
38979W        W98240  16.621  20.740  14.488
38980W        W98241   2.297  40.988  11.071
38981W        W98242  13.143  26.037   3.794
38982W        W98243   5.417  27.020  14.026
38983W        W98244  13.642  16.799   2.217
38984W        W98245  40.910  29.593  13.513
38985W        W98246  19.163  43.829   1.721
38986W        W98247  33.612   6.729   0.843
38987W        W98248  35.424  38.037  11.534
38988W        W98249  27.082  24.170  12.347
38989W        W98250  27.682  16.099   4.798
38990W        W98251  20.606   2.398   0.315
38991W        W98252  23.678  15.768   2.720
38992W        W98253  34.956  14.268  14.367
38993W        W98254  37.051  37.389  13.815
38994W        W98255  41.814  11.691  14.930
38995W        W98256  18.743  42.508  10.939
38996W        W98257  12.723  29.638  14.888
38997W        W98258   4.923  21.744   3.257
38998W        W98259  17.083   1.898   1.440
38999W        W98260  31.476   7.354  14.438
39000W        W98261  21.130  39.062   3.338
39001W        W98262   0.744  33.395  11.868
39002W        W98263  29.941  27.487  10.603
39003W        W98264   0.300  25.011  12.052
39004W        W98265  13.307   0.817   4.681
39005W        W98266  16.756  27.561   4.602
39006W        W98267  16.077   7.745  11.494
39007W        W98268  31.154  33.895   0.318
39008W        W98269  20.066  22.697   2.758
39009W        W98270  13.771  42.328   3.796
39010W        W98271  42.397  19.119   3.755
39011W        W98272  10.699   3.365   1.399
39012W        W98273  36.368  15.210   3.859
39013W        W98274  41.442  35.938   1.870
39014W        W98275  10.192   4.797  10.069
39015W        W98276  21.712  23.223   0.929
39016W        W98277  11.363  44.373  14.439
39017W        W98278   2.315   8.828  12.941
39018W        W98279   2.403  42.858   4.139
39019W        W98280  12.278  39.060   1.308
39020W        W98281  38.537  42.023   2.290
39021W        W98282  24.154   1.447   4.675
39022W        W98283  24.543  30.451  13.445
39023W        W98284  35.961  43.847   2.728
39024W        W98285   5.315  43.440   2.875
39025W        W98286  40.356  17.570   1.420
39026W        W98287   9.199  43.383  10.493
39027W        W98288  41.459  37.413  12.519
39028W        W98289   8.272  44.402  12.059
39029W        W98290  33.410   2.784   1.242
39030W        W98291  16.577   8.217  13.456
39031W        W98292  30.100   5.858   3.262
39032W        W98293  39.505  23.037  13.988
39033W        W98294  26.696  35.955  11.506
39034W        W98295  12.629  44.491   4.205
39035W        W98296  13.296  11.768   4.260
39036W        W98297  36.502  25.467  12.387
39037W        W98298  11.779   9.188  12.840
39038W        W98299  35.470  35.473  12.855
39039W        W98300   3.712  14.672  13.817
39040W        W98301   3.428  39.848  11.029
39041W        W98302  37.882   7.325  11.070
39042W        W98303   7.229  22.514   2.890
39043W        W98304   9.742  40.413  11.478
39044W        W98305  37.854   9.207   0.821
39045W        W98306  34.040  30.020   4.760
39046W        W98307  27.038  36.889   1.343
39047W        W98308  25.189  35.593  13.358
39048W        W98309  15.671  36.985  13.475
39049W        W98310   3.801  14.207  11.012
39050W        W98311  21.723   8.729  12.836
39051W        W98312  19.230   5.919  12.084
39052W        W98313  27.063  10.368  10.908
39053W        W98314  35.065  40.452  14.292
39054W        W98315  44.287   8.344  13.996
39055W        W98316  35.560  14.686  10.615
39056W        W98317  13.189  29.996   4.188
39057W        W98318  19.092  32.994  11.928
39058W        W98319   9.230  37.885  11.429
39059W        W98320   7.276   9.373  10.983
39060W        W98321  36.938  42.386  12.988
39061W        W98322  36.354  26.586  11.122
39062W        W98323  15.627  39.974  13.504
39063W        W98324   4.939  11.135  10.469
39064W        W98325  10.247  34.389   4.114
39065W        W98326  23.137   9.168   1.295
39066W        W98327  39.851   5.691   0.375
39067W        W98328  14.608  39.425   0.932
39068W        W98329  16.275  14.760   0.810
39069W        W98330  38.467   2.299   3.699
39070W        W98331  38.890  43.004   3.857
39071W        W98332  10.746  10.655  14.994
39072W        W98333  23.130  26.969   1.763
39073W        W98334  38.926  24.215  11.572
39074W        W98335  15.795  42.785  11.992
39075W        W98336  15.241   3.915  12.854
39076W        W98337  31.054  25.061   2.822
39077W        W98338  18.147  42.361  14.959
39078W        W98339  29.129  29.601  14.465
39079W        W98340  43.965   8.299   0.483
39080W        W98341  16.295  27.473   2.361
39081W        W98342  39.859  22.168   2.680
39082W        W98343  18.767  20.764  10.605
39083W        W98344   6.916   8.785   1.336
39084W        W98345  36.086  11.170  11.556
39085W        W98346  35.551  18.707  14.884
39086W        W98347  18.657  31.497   3.722
39087W        W98348  38.824  22.563   4.646
39088W        W98349  31.424   5.298   2.187
39089W        W98350  34.562  27.089  13.513
39090W        W98351  35.976  43.501  11.387
39091W        W98352  22.651   2.747  14.861
39092W        W98353   5.831  39.378  14.882
39093W        W98354  10.292   1.978  14.957
39094W        W98355   3.257  42.310   3.757
39095W        W98356  16.718  28.122  12.578
39096W        W98357  38.982  27.621  10.478
39097W        W98358  20.169  29.438  14.782
39098W        W98359  37.950  19.187  14.354
39099W        W98360  29.590  17.100  14.031
39100W        W98361  29.567  13.192   1.797
39101W        W98362  25.171   3.931  14.903
39102W        W98363  18.706  21.164   3.705
39103W        W98364  37.923  19.627   2.393
39104W        W98365   2.758  26.514   2.701
39105W        W98366  10.816  30.593   0.861
39106W        W98367  38.833  21.734   1.799
39107W        W98368  34.495  41.350   1.896
39108W        W98369  11.624   7.369   3.164
39109W        W98370   6.399  19.203  11.440
39110W        W98371  15.815  37.361   3.314
39111W        W98372  14.751   9.716   4.254
39112W        W98373  37.471   7.404   0.335
39113W        W98374  18.555  25.178   1.285
39114W        W98375  42.784   8.684   2.864
39115W        W98376  37.982  37.975   0.954
39116W        W98377  41.841   9.373   2.714
39117W        W98378  16.284  18.235   2.682
39118W        W98379  31.458  40.329  10.510
39119W        W98380  18.142   6.338  13.964
39120W        W98381  26.967  31.964   2.273
39121W        W98382   8.175  16.610  10.599
39122W        W98383  43.875  32.492   2.275
39123W        W98384  44.931  33.965  14.769
39124W        W98385  19.252   6.685   2.816
39125W        W98386  17.090  12.323  11.119
39126W        W98387  26.682   5.407  13.968
39127W        W98388   8.285  27.650   0.326
39128W        W98389   5.281  24.144  11.011
39129W        W98390  38.831  10.710   3.380
39130W        W98391  12.686  28.663  12.881
39131W        W98392   3.851  24.494   2.901
39132W        W98393  37.406   9.718  13.401
39133W        W98394  27.135  30.022  10.470
39134W        W98395  25.052  29.602  11.533
39135W        W98396   1.834  34.513  13.916
39136W        W98397  32.014   5.813   0.885
39137W        W98398  24.696   2.417  14.293
39138W        W98399  24.001  44.403  10.004
39139W        W98400  32.075  24.202  14.953
39140W        W98401  33.617  35.603  14.908
39141W        W98402   4.363  22.083  14.972
39142W        W98403  29.536  32.101  10.642
39143W        W98404   5.899   1.340   2.264
39144W        W98405  31.003  20.696  10.941
39145W        W98406  31.592  36.916   4.779
39146W        W98407  11.294  33.532   0.409
39147W        W98408   1.861  33.948  12.549
39148W        W98409  22.711  24.201   5.252
39149W        W98410  14.736  39.340  13.822
39150W        W98411  34.911  34.070  11.997
39151W        W98412  21.563   7.231  10.492
39152W        W98413  30.478  24.696  11.466
39153W        W98414   1.264  21.232   1.899
39154W        W98415  13.302  25.121   4.329
39155W        W98416  32.911  14.199   2.392
39156W        W98417  23.042  31.922  11.606
39157W        W98418  27.529  14.179  14.796
39158W        W98419  31.501   9.202   5.204
39159W        W98420  15.601  21.524   3.828
39160W        W98421  26.486  16.072   4.346
39161W        W98422  17.765   5.711   3.765
39162W        W98423  17.617  40.008   0.338
39163W        W98424  35.884   4.751   1.289
39164W        W98425  37.563   7.260  11.990
39165W        W98426  37.582  42.323  12.385
39166W        W98427  33.010  31.036  11.016
39167W        W98428  15.196  35.451  12.954
39168W        W98429  18.779  32.106  13.881
39169W        W98430  30.652  10.349   0.797
39170W        W98431   7.180  20.583  13.337
39171W        W98432  33.069   9.721  13.439
39172W        W98433  43.969  22.689  10.978
39173W        W98434  27.500   9.187  10.470
39174W        W98435  33.491   0.789   4.234
39175W        W98436   1.368  36.354   3.787
39176W        W98437  34.119  29.007   1.309
39177W        W98438  24.503  16.267   0.477
39178W        W98439   7.672  44.804  12.042
39179W        W98440  16.299  14.311  12.991
39180W        W98441  22.510   9.365   0.861
39181W        W98442   5.281   2.304   2.856
39182W        W98443  13.260   9.266   0.309
39183W        W98444   5.201  16.609   0.928
39184W        W98445  34.569  39.559   1.885
39185W        W98446  37.855  13.800   2.403
39186W        W98447  33.405  15.818  13.349
39187W        W98448  32.463  38.344  11.016
39188W        W98449   5.921  22.219  12.088
39189W        W98450  42.973  32.104  10.452
39190W        W98451  40.450  36.881   2.743
39191W        W98452   5.388  23.237   4.174
39192W        W98453   7.277  36.499  11.580
39193W        W98454  38.353  39.810  11.520
39194W        W98455  35.498  43.396  14.376
39195W        W98456  14.718  27.169  13.830
39196W        W98457  29.468  15.729   1.266
39197W        W98458  30.555  21.633  11.483
39198W        W98459  18.243  28.028  13.037
39199W        W98460   7.880  30.932   4.131
39200W        W98461   8.324  13.304   2.301
39201W        W98462   6.297  28.472  12.561
39202W        W98463  22.654  41.027   4.705
39203W        W98464  25.995  32.034   0.445
39204W        W98465   1.466   7.685   2.302
39205W        W98466  36.080  13.600   3.661
39206W        W98467   5.771   0.926  12.405
39207W        W98468  22.648   3.333   0.901
39208W        W98469  27.586   4.779   2.749
39209W        W98470  43.955  38.918  12.538
39210W        W98471  44.490  40.986   9.959
39211W        W98472  37.466  44.373  14.793
39212W        W98473   5.423   9.873  12.493
39213W        W98474   8.891   7.314  13.364
39214W        W98475  14.264  20.115  14.890
39215W        W98476  17.161  17.579   4.629
39216W        W98477  26.464  12.726   3.253
39217W        W98478  40.391   8.218  11.039
39218W        W98479  15.821  32.914   5.307
39219W        W98480   0.823  42.816   4.823
39220W        W98481   4.757  15.664  14.458
39221W        W98482  13.668  11.768   3.227
39222W        W98483  13.719  25.675   0.874
39223W        W98484  41.031  19.062   4.826
39224W        W98485  33.404   5.287  10.556
39225W        W98486  43.005   6.361   3.227
39226W        W98487   1.792  11.355   2.860
39227W        W98488  35.375  30.938   3.264
39228W        W98489  13.715   7.181  14.796
39229W        W98490   3.417  25.647  13.337
39230W        W98491   1.901  29.453  11.066
39231W        W98492  11.714   0.853  12.004
39232W        W98493  24.713  28.162  13.941
39233W        W98494  17.728  36.383   0.794
39234W        W98495  13.221  39.401  12.089
39235W        W98496  44.400  25.645   2.770
39236W        W98497   0.882  43.320  12.445
39237W        W98498  24.703  13.639  11.945
39238W        W98499  15.202   5.326   1.833
39239W        W98500  12.262   7.281  11.888
39240W        W98501  17.753   0.277   2.363
39241W        W98502   5.214  24.572   0.771
39242W        W98503  17.196  41.942  13.961
39243W        W98504  43.498   6.262  11.373
39244W        W98505   8.669   0.788  13.914
39245W        W98506  11.265  36.877  13.381
39246W        W98507  19.093  13.305   1.243
39247W        W98508  19.664  19.180  14.475
39248W        W98509  42.436  22.162   3.793
39249W        W98510  26.481  19.617   4.157
39250W        W98511   9.678  29.632   0.855
39251W        W98512  29.934  34.011  12.927
39252W        W98513  37.365  20.544   1.896
39253W        W98514  44.879  25.624  12.052
39254W        W98515  38.941  18.604   3.763
39255W        W98516  33.562  38.569  10.618
39256W        W98517  22.672  10.766  10.511
39257W        W98518  27.649   6.256  14.898
39258W        W98519  37.873   4.425  13.465
39259W        W98520  14.655  36.576  11.488
39260W        W98521  42.946  23.607  13.435
39261W        W98522  19.624  22.535   5.113
39262W        W98523  29.953   6.850  13.804
39263W        W98524  12.630  19.110   2.828
39264W        W98525  28.550  23.140   1.216
39265W        W98526  11.696  43.414   1.392
39266W        W98527  44.426  32.934  14.410
39267W        W98528   2.258  17.254   2.216
39268W        W98529  40.432   3.367  13.371
39269W        W98530  44.985  38.506   2.383
39270W        W98531  16.636   3.747   3.148
39271W        W98532  36.951   7.839   0.295
39272W        W98533  26.632  15.715  12.037
39273W        W98534  36.859   0.973  12.364
39274W        W98535  32.552  30.619   2.725
39275W        W98536  37.470  13.681  12.043
39276W        W98537  23.080  33.524  14.998
39277W        W98538  35.994  23.087   4.201
39278W        W98539  13.621  31.623  12.467
39279W        W98540  30.990  29.585  14.902
39280W        W98541  32.133   1.810   2.205
39281W        W98542  34.933  10.783   4.120
39282W        W98543  22.035  36.559  14.282
39283W        W98544  42.993  31.137  10.502
39284W        W98545  21.587   1.861   5.219
39285W        W98546  35.947  24.710  13.916
39286W        W98547  24.600  15.196  13.535
39287W        W98548  41.496  10.380  12.982
39288W        W98549  29.580  25.973  14.495
39289W        W98550   0.803  26.017  13.459
39290W        W98551  26.460   1.863   2.278
39291W        W98552  15.137  15.805   0.735
39292W        W98553  24.607  42.283   0.364
39293W        W98554  17.090  17.147   0.437
39294W        W98555  27.638  11.662  10.452
39295W        W98556  32.106   2.381  14.336
39296W        W98557  14.324  22.564  10.582
39297W        W98558   9.226  19.534  14.380
39298W        W98559  24.052   9.715  12.538
39299W        W98560   8.388  12.637   1.838
39300W        W98561   3.859   0.399   0.306
39301W        W98562  37.880  16.163  10.946
39302W        W98563   1.939  41.330  14.456
39303W        W98564   8.264  19.206   0.419
39304W        W98565  29.646  18.064  10.957
39305W        W98566  42.300  41.446  14.298
39306W        W98567  38.551  29.087   3.203
39307W        W98568  32.101  33.539  10.911
39308W        W98569  41.414  28.576  10.499
39309W        W98570  16.718  11.238   4.695
39310W        W98571  38.049   1.957   2.884
39311W        W98572  37.029   9.275  14.932
39312W        W98573   9.879   7.317   0.861
39313W        W98574  28.562  14.697  12.473
39314W        W98575  28.680  14.731   0.833
39315W        W98576   4.863  26.123   1.250
39316W        W98577  25.613   8.258  10.959
39317W        W98578  37.005  33.619   2.897
39318W        W98579  32.923   1.930  11.913
39319W        W98580  28.434  27.516   2.842
39320W        W98581  36.403  35.583   2.786
39321W        W98582  40.828  37.523   0.930
39322W        W98583  27.023  44.335   4.712
39323W        W98584  18.131  32.570  12.824
39324W        W98585   7.867  32.472  12.364
39325W        W98586   9.750  43.315   0.967
39326W        W98587  22.603  37.971  10.523
39327W        W98588   3.777  42.870  13.420
39328W        W98589  34.945  13.328   4.243
39329W        W98590  28.454  31.975   9.955
39330W        W98591  22.039  32.066   5.089
39331W        W98592   0.303  41.434  11.880
39332W        W98593  41.414  41.315   2.247
39333W        W98594  26.161  20.573  14.817
39334W        W98595  39.867  14.687   3.376
39335W        W98596  44.449  38.027  12.854
39336W        W98597  44.984  41.340  10.959
39337W        W98598  40.938  18.231  13.873
39338W        W98599  37.547   3.722  12.950
39339W        W98600   2.770  21.533   4.728
39340W        W98601  21.214  37.839   2.730
39341W        W98602  44.979  28.052  13.807
39342W        W98603   7.344  32.895   0.745
39343W        W98604  19.626  24.685   2.751
39344W        W98605   6.420   8.279   1.852
39345W        W98606  16.309   4.261  14.024
39346W        W98607  20.093   9.760  14.393
39347W        W98608  17.624  16.090  14.774
39348W        W98609  29.546   0.252  14.959
39349W        W98610  40.852  20.246   0.253
39350W        W98611  10.767  43.314  11.479
39351W        W98612  10.705   6.373   3.165
39352W        W98613   8.264  24.180   2.829
39353W        W98614  22.543  36.472   3.358
39354W        W98615  24.040   8.664  11.600
39355W        W98616  28.457  16.704   2.335
39356W        W98617  17.772   4.863  13.979
39357W        W98618   2.374  16.596  13.043
39358W        W98619  26.019  11.234  13.376
39359W        W98620  40.957  14.591   3.701
39360W        W98621  41.895  13.192   0.961
39361W        W98622  29.664  16.309  14.887
39362W        W98623  17.798  16.291  13.912
39363W        W98624   8.836   2.404   2.698
39364W        W98625  12.772  42.482  11.477
39365W        W98626  38.891   3.919   4.130
39366W        W98627  36.348  24.075   0.773
39367W        W98628  33.561  41.476  13.973
39368W        W98629  21.721  20.727  10.976
39369W        W98630  28.051  33.394   2.388
39370W        W98631  40.986   0.475   3.162
39371W        W98632  22.549  16.623   0.362
39372W        W98633   0.304  44.311   3.657
39373W        W98634  12.691   2.898  11.114
39374W        W98635  24.054  41.341   4.692
39375W        W98636  20.575   2.387  14.825
39376W        W98637  25.657  32.608   2.663
39377W        W98638  42.781  39.476   4.264
39378W        W98639  39.459  26.653  11.876
39379W        W98640  19.184  27.509   2.780
39380W        W98641  15.318  27.677  13.919
39381W        W98642  23.717  22.707   2.767
39382W        W98643  13.743  15.768  14.868
39383W        W98644  34.097  27.130   4.156
39384W        W98645   0.882  20.076  13.799
39385W        W98646  34.958  40.506  13.926
39386W        W98647  36.371   4.273   4.244
39387W        W98648  30.956  23.997   1.874
39388W        W98649  35.384  28.599  10.578
39389W        W98650   5.409  31.560  13.007
39390W        W98651   1.449  19.262   4.318
39391W        W98652   2.409   3.395   3.382
39392W        W98653  34.458  43.503   2.779
39393W        W98654  39.883  16.267   1.254
39394W        W98655  12.156  14.186  10.562
39395W        W98656  14.289  11.762   2.333
39396W        W98657  11.289  41.924   3.797
39397W        W98658  24.167  28.132   0.884
39398W        W98659  41.312  27.478  10.478
39399W        W98660  12.753  31.911   2.315
39400W        W98661  11.289  19.132   1.708
39401W        W98662  29.619   9.768   4.824
39402W        W98663  35.046  40.419  10.017
39403W        W98664  22.620   6.788   4.266
39404W        W98665  24.116  44.893  13.327
39405W        W98666  36.852  16.099  13.344
39406W        W98667  39.446  10.173   0.425
39407W        W98668  21.659  13.284  14.795
39408W        W98669  43.438  19.667  11.947
39409W        W98670  10.687  41.786  10.573
39410W        W98671   7.847  24.127  12.485
39411W        W98672  23.548  38.426  12.020
39412W        W98673  25.142  39.447   4.803
39413W        W98674  40.823  35.010  12.888
39414W        W98675   1.392  38.846   1.380
39415W        W98676  22.170  24.616  10.451
39416W        W98677  14.221  36.361  13.826
39417W        W98678   9.660  32.977   1.910
39418W        W98679  33.593  32.928   4.187
39419W        W98680  32.083  34.009   1.791
39420W        W98681   8.765  18.192  11.506
39421W        W98682   3.375  21.231   2.248
39422W        W98683   6.308  18.183   0.441
39423W        W98684   5.413  18.211  13.418
39424W        W98685  12.314  27.541  12.035
39425W        W98686  20.528  28.960  13.035
39426W        W98687  32.569  44.438  13.966
39427W        W98688   8.834  43.778  10.890
39428W        W98689  26.504   6.915  10.580
39429W        W98690  30.572  11.225   1.441
39430W        W98691   3.300  13.176  12.460
39431W        W98692  41.524  43.511  10.590
39432W        W98693  11.292  27.196  13.031
39433W        W98694  32.967  29.134  13.938
39434W        W98695  24.583  35.584   1.721
39435W        W98696   9.197  26.485  11.474
39436W        W98697  12.721  13.654  12.861
39437W        W98698  31.066  31.495  13.798
39438W        W98699  33.079   2.927  13.926
39439W        W98700  12.830  26.027   2.678
39440W        W98701  18.755   8.759  12.346
39441W        W98702  20.621  26.509  12.840
39442W        W98703  44.954   4.914   0.755
39443W        W98704  34.395   9.298  12.973
39444W        W98705  33.456   2.261  11.890
39445W        W98706   4.323  27.075   2.797
39446W        W98707  21.688  38.006   1.744
39447W        W98708  20.170   7.836   4.698
39448W        W98709   3.877  14.266  13.494
39449W        W98710   9.331  11.745  11.420
39450W        W98711   6.834  34.116  12.086
39451W        W98712  28.157   7.751   1.359
39452W        W98713  43.355  23.122  14.971
39453W        W98714  10.176  19.723   0.272
39454W        W98715  22.548  30.427   1.236
39455W        W98716   5.912  24.046  14.500
39456W        W98717  19.751  39.977  10.957
39457W        W98718  27.990   0.760   1.294
39458W        W98719  15.620  15.139   2.221
39459W        W98720  20.103  30.137   1.389
39460W        W98721   8.838  34.511  14.778
39461W        W98722   3.861  12.634   3.661
39462W        W98723  12.661  15.750   5.099
39463W        W98724  16.133  18.760  13.059
39464W        W98725  19.697  23.067   9.447
39465W        W98726  28.475  21.237  14.280
39466W        W98727  36.443   6.831   4.599
39467W        W98728  36.846  10.821  14.306
39468W        W98729  20.224  16.728   3.777
39469W        W98730  40.872  39.408  11.055
39470W        W98731   5.435  44.769   1.900
39471W        W98732  34.924   3.947  11.069
39472W        W98733   9.375  36.370   4.315
39473W        W98734  41.953   4.323   4.600
39474W        W98735   5.225  14.110  12.090
39475W        W98736  24.633  14.263  14.839
39476W        W98737  42.473  38.838  11.484
39477W        W98738  29.123  29.595  11.501
39478W        W98739  12.640  11.348  12.472
39479W        W98740  15.160  26.038   4.686
39480W        W98741  33.413  39.549   4.247
39481W        W98742   0.486   9.739  11.096
39482W        W98743  33.572  10.316   0.424
39483W        W98744  39.061  17.101  13.006
39484W        W98745  37.473  18.737   4.192
39485W        W98746  11.358  28.154  12.360
39486W        W98747  28.124  16.803  13.410
39487W        W98748  41.798  43.413  12.084
39488W        W98749  20.672   9.866  10.556
39489W        W98750   5.377  31.062   3.743
39490W        W98751  30.503  36.863   1.808
39491W        W98752  30.991  38.340   4.223
39492W        W98753  40.452   4.821   2.736
39493W        W98754  27.054   1.328  14.425
39494W        W98755  33.966  28.055  14.276
39495W        W98756   5.402  29.538   2.195
39496W        W98757  27.594   2.770  11.606
39497W        W98758  32.103  25.651  14.888
39498W        W98759  44.921  39.513   3.686
39499W        W98760   4.287  35.035   3.341
39500W        W98761  32.033   0.929   3.268
39501W        W98762  10.878  25.633   1.789
39502W        W98763  33.919  36.036   4.192
39503W        W98764   1.874  38.391   4.830
39504W        W98765   1.299  43.510  11.015
39505W        W98766   7.361   8.782  12.041
39506W        W98767  25.988  23.591  14.399
39507W        W98768  21.515  12.703   3.329
39508W        W98769  18.763  23.123   0.248
39509W        W98770   4.260  44.954  10.616
39510W        W98771   6.879   4.810   2.689
39511W        W98772  20.081  24.663   4.811
39512W        W98773  12.803  11.231   3.823
39513W        W98774  26.605  44.284   4.671
39514W        W98775  26.535  35.522  14.396
39515W        W98776  43.509  33.034   1.747
39516W        W98777  39.415  12.276   0.815
39517W        W98778  28.057   2.448  10.500
39518W        W98779  29.057  20.601  10.989
39519W        W98780  20.178  41.340   4.131
39520W        W98781  29.964  40.385  11.519
39521W        W98782   8.173  35.875  10.546
39522W        W98783  43.319   0.859   2.179
39523W        W98784   3.431  15.715  14.414
39524W        W98785  32.068   8.226  11.953
39525W        W98786  43.421  42.921   3.811
39526W        W98787   9.738  30.548   1.734
39527W        W98788   6.824  39.389  13.938
39528W        W98789  21.042   9.860  14.338
39529W        W98790  24.524  32.964   1.352
39530W        W98791   5.803  38.020  10.534
39531W        W98792  18.574  37.055  12.528
39532W        W98793  19.094  29.527   2.254
39533W        W98794  39.061  20.536  14.859
39534W        W98795  19.250  42.370  11.947
39535W        W98796   7.809  44.890  11.477
39536W        W98797   4.775  10.674   1.766
39537W        W98798  13.654  27.458  12.524
39538W        W98799  13.812  22.109   4.284
39539W        W98800  41.519   6.756   1.436
39540W        W98801  35.032  38.495   5.210
39541W        W98802  28.546  23.555  13.372
39542W        W98803  37.536  31.939  14.822
39543W        W98804  22.572  36.095  12.843
39544W        W98805  30.531  38.039  14.962
39545W        W98806  14.831  24.563   0.371
39546W        W98807  23.147  30.979   2.873
39547W        W98808  35.034  30.524   3.842
39548W        W98809  42.891  39.965  12.883
39549W        W98810  11.132  10.350  11.905
39550W        W98811  25.197  18.711   2.857
39551W        W98812   0.282  20.120  14.020
39552W        W98813  23.046   4.850  10.972
39553W        W98814  31.615  43.279   1.780
39554W        W98815  10.760  35.087   2.785
39555W        W98816  28.144  39.891   0.278
39556W        W98817  19.078  35.903   0.927
39557W        W98818  25.079   3.930   2.273
39558W        W98819  19.543  13.815  12.942
39559W        W98820   3.925   8.234  14.792
39560W        W98821   4.818   9.364  14.373
39561W        W98822  19.595   9.237  12.979
39562W        W98823  43.013  26.691   4.329
39563W        W98824  27.183  16.196  12.363
39564W        W98825   7.896  44.893   4.654
39565W        W98826  28.071  27.533   3.843
39566W        W98827  43.838   8.695   3.780
39567W        W98828  15.135   5.439   3.340
39568W        W98829   0.909  28.128  14.907
39569W        W98830  12.142  22.560   3.284
39570W        W98831  36.349  40.880   1.743
39571W        W98832  24.661  31.001  11.587
39572W        W98833   6.418  41.380  11.971
39573W        W98834   7.328  17.223   1.703
39574W        W98835  36.409  14.222  10.590
39575W        W98836   1.948  44.276   2.179
39576W        W98837  22.186  38.032   1.774
39577W        W98838  15.634  40.407   1.704
39578W        W98839  15.088  32.035  12.579
39579W        W98840   6.688   3.365   0.772
39580W        W98841   0.973  23.608   1.390
39581W        W98842  33.612  19.054  13.417
39582W        W98843  37.493  44.937   1.406
39583W        W98844  17.172   6.900   2.724
39584W        W98845  35.945  21.521   4.626
39585W        W98846  30.529  24.131  12.384
39586W        W98847   9.749  14.790  14.473
39587W        W98848  17.789   0.413   1.819
39588W        W98849   6.854  32.890  14.949
39589W        W98850  36.448  38.505   2.219
39590W        W98851  40.851   8.210   3.767
39591W        W98852   4.768   1.861   3.337
39592W        W98853  14.702  17.125   1.223
39593W        W98854  34.422  17.219  14.287
39594W        W98855   4.719  28.556  11.863
39595W        W98856  23.015  19.639  13.312
39596W        W98857   1.290   6.762  11.015
39597W        W98858  34.485   5.753   4.794
39598W        W98859  16.306  43.502  11.385
39599W        W98860   0.748  34.576   3.274
39600W        W98861  22.599  40.046   3.731
39601W        W98862  33.480  15.288   0.266
39602W        W98863  13.133  36.908   3.761
39603W        W98864  43.484   9.833  11.015
39604W        W98865  26.471  21.669   2.711
39605W        W98866  15.823  35.382   1.711
39606W        W98867  26.088   9.708  10.946
39607W        W98868  14.721  38.446  12.837
39608W        W98869   6.359  29.497   2.776
39609W        W98870  39.410  36.061   4.718
39610W        W98871  26.129   2.434   4.117
39611W        W98872  18.069  44.840  14.891
39612W        W98873  43.341  20.546  11.121
39613W        W98874  29.619   4.805   5.234
39614W        W98875  20.161  10.186  11.587
39615W        W98876  21.226   7.841   4.781
39616W        W98877  17.183  21.539   4.196
39617W        W98878  16.619  19.719   4.784
39618W        W98879  37.534   8.319   0.949
39619W        W98880   6.386  16.090  10.526
39620W        W98881  22.045  26.136  12.081
39621W        W98882  14.683  21.567  13.029
39622W        W98883  12.741  31.534  11.514
39623W        W98884  24.027  31.612  12.896
39624W        W98885  10.286  28.621  11.551
39625W        W98886   3.813  10.691  13.003
39626W        W98887  14.710  23.225   0.283
39627W        W98888  21.211  13.669  11.427
39628W        W98889  29.434  13.720   2.236
39629W        W98890  12.341  19.089  10.970
39630W        W98891   5.841  32.447  13.953
39631W        W98892  13.282  23.993   0.926
39632W        W98893  21.116  26.083  12.564
39633W        W98894  22.682   1.741   3.199
39634W        W98895   5.852  37.445  10.903
39635W        W98896  19.074   4.805  12.354
39636W        W98897  40.826   6.298  14.762
39637W        W98898   2.754   3.869   3.262
39638W        W98899  44.941   2.741  13.999
39639W        W98900  18.246  13.672   1.239
39640W        W98901  43.277  15.154   0.427
39641W        W98902  30.918  10.788  14.312
39642W        W98903  36.078  41.958   2.777
39643W        W98904  41.357   8.191  13.413
39644W        W98905  29.166  11.766   0.886
39645W        W98906  34.551  40.966   2.872
39646W        W98907  27.188   3.339  14.506
39647W        W98908  11.846   6.832  10.438
39648W        W98909   5.759  33.528  10.458
39649W        W98910  19.728  32.501  13.047
39650W        W98911  32.441  37.931   3.280
39651W        W98912  44.393   1.932  11.107
39652W        W98913  33.124  38.370   1.261
39653W        W98914   0.808  28.617  10.959
39654W        W98915  35.537  31.451  12.517
39655W        W98916   5.313  28.664  10.614
39656W        W98917   0.872  17.700   2.858
39657W        W98918  37.434   8.842   2.865
39658W        W98919  28.011  18.278   3.341
39659W        W98920  22.685  11.627  13.479
39660W        W98921   6.332  22.223  12.018
39661W        W98922   7.753   8.898   1.225
39662W        W98923  15.724  23.026  14.424
39663W        W98924   1.456  10.741   4.142
39664W        W98925  19.746   5.278  12.056
39665W        W98926   0.986  35.380   1.705
39666W        W98927  33.092  39.898   1.702
39667W        W98928  12.151  37.362  13.969
39668W        W98929  16.289  34.901   0.264
39669W        W98930  17.658   5.705   0.449
39670W        W98931  26.620   5.422   4.149
39671W        W98932  32.110  13.720  14.957
39672W        W98933  10.215  34.015  12.535
39673W        W98934  27.022  28.562   0.256
39674W        W98935  11.284  16.750  11.016
39675W        W98936  14.664  25.547  12.853
39676W        W98937  18.139  27.559   0.243
39677W        W98938  35.559   1.946  11.019
39678W        W98939  19.074  24.491  11.950
39679W        W98940   8.357  23.166   2.813
39680W        W98941  17.079   7.888   0.735
39681W        W98942  15.163   0.487  13.953
39682W        W98943  23.175  30.964  13.448
39683W        W98944  34.093  15.153  14.408
39684W        W98945  36.365  29.115  14.778
39685W        W98946  41.481  41.398   4.606
39686W        W98947  15.731  30.941   1.441
39687W        W98948  42.005  33.425  11.954
39688W        W98949  23.684   9.669   0.933
39689W        W98950  27.467  35.985   5.117
39690W        W98951   3.794   4.264   3.298
39691W        W98952  43.294  36.495  10.534
39692W        W98953  13.739  10.198   4.757
39693W        W98954  37.436  26.073   0.449
39694W        W98955   2.873  20.134  14.490
39695W        W98956   9.312  44.331  11.563
39696W        W98957  18.753  19.270  12.468
39697W        W98958  24.529   8.798  12.364
39698W        W98959  15.659  25.492  13.032
39699W        W98960  29.128  27.461  13.399
39700W        W98961  28.070  11.173  14.955
39701W        W98962  34.479   0.828  14.801
39702W        W98963   9.202  41.519  12.931
39703W        W98964  11.346  26.612  14.839
39704W        W98965   8.739  42.521   3.177
39705W        W98966  22.092  21.598  14.767
39706W        W98967  12.662   4.729  11.872
39707W        W98968  32.923   5.854  12.377
39708W        W98969  11.778  35.017  10.898
39709W        W98970   3.809   5.716   1.281
39710W        W98971  22.629   4.338  13.369
39711W        W98972   3.900   9.681   3.237
39712W        W98973  32.609  21.679   4.131
39713W        W98974  25.211   9.665   3.773
39714W        W98975  35.983  16.287   4.608
39715W        W98976  36.375   4.902  14.941
39716W        W98977  22.231  16.736  10.526
39717W        W98978  17.615  11.130  13.970
39718W        W98979   5.346   5.407   2.275
39719W        W98980  44.414  17.603  12.461
39720W        W98981  10.670  13.794  12.984
39721W        W98982   4.864  15.287  10.947
39722W        W98983  38.549  44.404   1.225
39723W        W98984   1.360   9.881   1.294
39724W        W98985  27.069  19.145  10.499
39725W        W98986  21.041  26.054  14.289
39726W        W98987   2.922  10.204   2.818
39727W        W98988  28.647  11.718   2.776
39728W        W98989  43.969  22.625  13.797
39729W        W98990  17.608  19.733  12.093
39730W        W98991  22.073   6.341   0.295
39731W        W98992  38.845  41.519  12.491
39732W        W98993  43.860  24.129   0.955
39733W        W98994   1.823  19.046   4.804
39734W        W98995  21.578   7.829  14.815
39735W        W98996  37.535   9.199   4.696
39736W        W98997   8.198  26.583  13.972
39737W        W98998  12.771   6.299   1.812
39738W        W98999  28.487  22.124   3.700
39739W        W99000  31.465  14.719  12.380
39740W        W99001   3.741  39.513  10.574
39741W        W99002   8.656   9.224  12.017
39742W        W99003  43.868  21.548   4.626
39743W        W99004  12.354  24.169  12.096
39744W        W99005  25.172  23.625   3.697
39745W        W99006  11.209  32.897   4.119
39746W        W99007  40.421  41.860   3.219
39747W        W99008  20.161  19.070   2.705
39748W        W99009  15.149  41.828  14.980
39749W        W99010   1.277  22.555   3.680
39750W        W99011  11.658  36.484  10.969
39751W        W99012  11.741  25.077  14.384
39752W        W99013  10.177  18.050   4.281
39753W        W99014  22.237  37.342   0.375
39754W        W99015   7.798  30.587   3.169
39755W        W99016  11.805  15.780   1.369
39756W        W99017  34.068  28.164   2.799
39757W        W99018  44.826  37.030   2.889
39758W        W99019  19.122   0.777  11.073
39759W        W99020   9.866  41.897   1.406
39760W        W99021  20.570  37.485   2.832
39761W        W99022  40.938  42.287  10.615
39762W        W99023  30.140  23.515  11.605
39763W        W99024  29.655   9.751   2.727
39764W        W99025  25.166   5.203  14.894
39765W        W99026  37.566  44.335  14.511
39766W        W99027  31.002  34.601   1.929
39767W        W99028  34.391  14.187   1.399
39768W        W99029   2.260  10.711  14.404
39769W        W99030  31.946  15.091   2.746
39770W        W99031   8.342  14.110  12.975
39771W        W99032  10.833  27.488   4.115
39772W        W99033  39.027  30.498  11.569
39773W        W99034  19.135  17.751  11.467
39774W        W99035   0.415  32.131   4.278
39775W        W99036   8.734  13.345   0.478
39776W        W99037  34.038  13.840   3.364
39777W        W99038  14.166  43.991  14.444
39778W        W99039  31.138  13.181  11.930
39779W        W99040  21.742  41.941  10.600
39780W        W99041  14.098  17.285   0.447
39781W        W99042  12.214  24.156  10.927
39782W        W99043  36.034  35.067  12.352
39783W        W99044  43.439   6.730   0.434
39784W        W99045  37.499   1.289  14.395
39785W        W99046   0.775  44.267  14.328
39786W        W99047  18.227   5.889  13.875
39787W        W99048  16.608   1.810   1.873
39788W        W99049   5.307  23.612   0.870
39789W        W99050  40.325  12.149   4.316
39790W        W99051  35.955   0.862   0.336
39791W        W99052  18.590  35.394   0.399
39792W        W99053  25.980  21.022  12.976
39793W        W99054  30.510  34.039   1.417
39794W        W99055  31.914  21.683   4.751
39795W        W99056   2.784   3.274   4.199
39796W        W99057  42.988  14.327  13.874
39797W        W99058  18.131  28.953   2.193
39798W        W99059  33.610  27.628   2.179
39799W        W99060   4.265   1.784  11.531
39800W        W99061  19.113  35.859  11.858
39801W        W99062  35.916  18.128   0.799
39802W        W99063  11.807  19.701   5.312
39803W        W99064  25.563  44.286   3.337
39804W        W99065   7.303  41.509   0.888
39805W        W99066  42.941  15.621  14.927
39806W        W99067  29.029  17.267  13.053
39807W        W99068  28.993  10.669  10.433
39808W        W99069  41.981  33.484  12.371
39809W        W99070   5.787  38.036   3.865
39810W        W99071  14.592  41.536  12.484
39811W        W99072  22.666  40.009  14.767
39812W        W99073  42.355   3.871  13.432
39813W        W99074  28.504  27.034   2.258
39814W        W99075  19.179  20.740  14.979
39815W        W99076  10.787  12.698  12.558
39816W        W99077   2.732   5.870  13.535
39817W        W99078  30.455  13.235  12.568
39818W        W99079  24.153   7.370   1.414
39819W        W99080  33.089  42.856   5.177
39820W        W99081  24.165  26.564  11.953
39821W        W99082  30.940   6.225  13.399
39822W        W99083  26.483  20.186  11.472
39823W        W99084  11.827  19.725  11.485
39824W        W99085  42.864  19.764  14.327
39825W        W99086  21.082   9.159   3.209
39826W        W99087  37.563  31.944   4.651
39827W        W99088  32.074  11.832  12.066
39828W        W99089  35.391   4.828  13.478
39829W        W99090  15.655  12.827  14.956
39830W        W99091  43.861  15.287  13.377
39831W        W99092  11.254   7.225   0.307
39832W        W99093  42.878  23.641  12.917
39833W        W99094  44.263  18.146   2.236
39834W        W99095   0.263  44.966  14.891
39835W        W99096  26.577  22.247  10.409
39836W        W99097  40.966   3.806  14.278
39837W        W99098   9.705   4.431  12.832
39838W        W99099   0.396  41.979  14.306
39839W        W99100  24.641  20.245   4.777
39840W        W99101  39.507   0.757   0.941
39841W        W99102  27.573  32.416  14.971
39842W        W99103  15.117  13.709  14.887
39843W        W99104  29.568  16.716   9.964
39844W        W99105  28.570  35.999   0.314
39845W        W99106  37.372  24.061  14.501
39846W        W99107  15.196  40.494  11.563
39847W        W99108   3.354   2.900  11.984
39848W        W99109  18.273  30.140   1.281
39849W        W99110  39.325  24.503   3.723
39850W        W99111  27.135  17.564  13.410
39851W        W99112  27.451  25.173   1.443
39852W        W99113  36.094  23.729  13.520
39853W        W99114  30.159  16.084   4.341
39854W        W99115   6.851  19.220  12.823
39855W        W99116  12.207  18.241   2.223
39856W        W99117  43.931  31.567   1.360
39857W        W99118  24.602   7.815   1.790
39858W        W99119  13.311   9.772  12.556
39859W        W99120  43.859  43.350   0.290
39860W        W99121  37.048  35.511  14.305
39861W        W99122  38.888  15.134  13.958
39862W        W99123  30.566  19.224  13.887
39863W        W99124  25.160   5.690   2.898
39864W        W99125  24.520  30.013   1.882
39865W        W99126   2.863  22.241   0.959
39866W        W99127   7.309  43.401  14.927
39867W        W99128   5.866  26.106   3.315
39868W        W99129   9.316  37.365  10.594
39869W        W99130  36.472  16.640   3.727
39870W        W99131  34.455  13.716  13.879
39871W        W99132  37.899  30.021  10.545
39872W        W99133   9.320  22.660  12.971
39873W        W99134  39.885  26.056  13.336
39874W        W99135  38.867  29.657   1.869
39875W        W99136  15.762  39.030  14.895
39876W        W99137   1.965   1.768  14.474
39877W        W99138  24.052  42.990  13.459
39878W        W99139  18.275  18.121   2.681
39879W        W99140  21.660  44.491   1.790
39880W        W99141  18.188  28.150   2.226
39881W        W99142  13.157  22.638  11.448
39882W        W99143  41.984  41.908  11.414
39883W        W99144  13.634  20.164   0.360
39884W        W99145   5.817  27.195  14.013
39885W        W99146   3.232  10.715   1.386
39886W        W99147  32.597  38.982  14.498
39887W        W99148  32.930   9.881  12.339
39888W        W99149  44.846  13.756   4.678
39889W        W99150  13.305   7.381   0.751
39890W        W99151  42.010  27.944  13.041
39891W        W99152  26.997  29.937  13.056
39892W        W99153  41.522  27.978   4.631
39893W        W99154  43.411  44.971  11.031
39894W        W99155  26.657  28.000   5.229
39895W        W99156  15.305  33.084   1.721
39896W        W99157  14.681  23.147  12.471
39897W        W99158   8.200  42.977   0.332
39898W        W99159   7.721  38.917   0.309
39899W        W99160  33.972  22.058   4.288
39900W        W99161  40.461  21.043  11.608
39901W        W99162   5.274  37.452  12.423
39902W        W99163  34.118  37.399   3.645
39903W        W99164   2.814   4.772   2.707
39904W        W99165  33.018  39.023   1.824
39905W        W99166   4.339  12.227   0.745
39906W        W99167  28.610  33.528  10.637
39907W        W99168  44.884  22.196   1.888
39908W        W99169  24.977   9.689  11.902
39909W        W99170   8.387  25.122   3.235
39910W        W99171  31.980  33.952   0.372
39911W        W99172   6.295   9.388  14.314
39912W        W99173  30.554  34.051   4.150
39913W        W99174  25.683  28.161   0.939
39914W        W99175  28.186  41.446   2.735
39915W        W99176  24.058   9.735  10.580
39916W        W99177  20.527   7.417   1.757
39917W        W99178  37.488  13.670   4.744
39918W        W99179  29.612   6.354  13.458
39919W        W99180  32.538  35.977  13.467
39920W        W99181  25.521  10.250  10.995
39921W        W99182  38.914  22.997   1.397
39922W        W99183   8.656  31.021   3.733
39923W        W99184   2.899  27.550   0.345
39924W        W99185  25.640  39.002  10.524
39925W        W99186  10.234  39.440  14.316
39926W        W99187  39.876  28.613   4.793
39927W        W99188  37.989   7.722   2.409
39928W        W99189  31.593  29.645   1.429
39929W        W99190  15.753  33.551  12.406
39930W        W99191  11.229   8.859   4.302
39931W        W99192  28.474  26.523  10.930
39932W        W99193  26.092  17.800  12.502
39933W        W99194  37.941   3.360  14.458
39934W        W99195   3.885  15.212   4.632
39935W        W99196  39.004  31.919  13.356
39936W        W99197  15.116   1.847  14.771
39937W        W99198   6.722  37.354  14.336
39938W        W99199  40.885  11.777   2.350
39939W        W99200  21.165  16.166  13.868
39940W        W99201  43.878  17.668   2.231
39941W        W99202  41.317  36.917   2.839
39942W        W99203  32.933  38.327   5.567
39943W        W99204  33.985   1.758   1.933
39944W        W99205  43.494   7.339  13.430
39945W        W99206  29.597  31.947   3.850
39946W        W99207  38.935  35.462   3.357
39947W        W99208   1.874   0.923   4.334
39948W        W99209  24.990  26.069  13.456
39949W        W99210  15.716  14.159  13.540
39950W        W99211   9.817   1.731  14.414
39951W        W99212  14.628  12.133  13.979
39952W        W99213  28.516  33.129  11.994
39953W        W99214  12.744  21.647   1.697
39954W        W99215   4.263  16.191   4.754
39955W        W99216  25.058  32.627  11.498
39956W        W99217   7.849  31.437   0.899
39957W        W99218  20.657  32.013   3.366
39958W        W99219  33.875  10.644  13.343
39959W        W99220  27.567  39.515  14.011
39960W        W99221  44.462  43.505  10.544
39961W        W99222  38.503   6.338   0.314
39962W        W99223   7.233  39.057   1.916
39963W        W99224   4.902  41.475   3.330
39964W        W99225  36.462  15.278  13.497
39965W        W99226  30.994  14.168  11.989
39966W        W99227  27.682   3.348  14.929
39967W        W99228  13.170  41.816   1.853
39968W        W99229  24.122  31.934   0.246
39969W        W99230   5.322  44.345   2.816
39970W        W99231  44.761  39.055   1.217
39971W        W99232  42.445  16.714  11.939
39972W        W99233  40.052  43.866  13.824
39973W        W99234   5.746  16.158   0.821
39974W        W99235  19.647  27.142   1.423
39975W        W99236  17.122  41.032  11.602
39976W        W99237  34.379  10.344  12.430
39977W        W99238  11.254   2.859  14.964
39978W        W99239  20.575   4.801  14.027
39979W        W99240  36.095  31.590  11.116
39980W        W99241  10.292  15.801  10.594
39981W        W99242  30.105  34.039  13.511
39982W        W99243  14.213   6.256   3.350
39983W        W99244   9.802  16.100   3.829
39984W        W99245  17.078  32.927   2.194
39985W        W99246  26.121  32.081  11.085
39986W        W99247  39.334  17.138  10.428
39987W        W99248   3.245  27.117   4.327
39988W        W99249   6.279  30.521   5.218
39989W        W99250  22.616  16.266  10.440
39990W        W99251   6.187  20.536   1.434
39991W        W99252   1.882  31.000  11.426
39992W        W99253  24.985  39.560   2.707
39993W        W99254  28.522  38.954   4.353
39994W        W99255  24.043  14.199  12.386
39995W        W99256   3.797  39.874   3.253
39996W        W99257   4.784  24.036  14.296
39997W        W99258  42.872  28.679  12.829
39998W        W99259  37.348  22.214   3.215
39999W        W99260  11.859  14.752   0.252
40000W        W99261  21.519  15.185  10.603
40001W        W99262  43.273  10.203   4.248
40002W        W99263   8.871  28.047   3.362
40003W        W99264  41.359  26.501   4.718
40004W        W99265  13.284   6.231   4.799
40005W        W99266  38.410  40.509  12.569
40006W        W99267   0.300   4.366  11.473
40007W        W99268  33.385  11.371   1.270
40008W        W99269  20.169   7.365   1.274
40009W        W99270  22.079  31.059   3.308
40010W        W99271  15.191  11.232   1.724
40011W        W99272  16.714   4.802  10.061
40012W        W99273  43.279  39.034  14.343
40013W        W99274   8.711  19.561   4.113
40014W        W99275   2.967   2.897   1.300
40015W        W99276  20.065  44.397  10.152
40016W        W99277   4.901  11.172   1.332
40017W        W99278  11.290   3.409  14.900
40018W        W99279  44.429  27.497   1.720
40019W        W99280  18.764  24.024  12.454
40020W        W99281   8.780  22.087   2.865
40021W        W99282   6.712   8.869  12.969
40022W        W99283  40.358  15.805  10.632
40023W        W99284  44.827  31.571  10.483
40024W        W99285  21.053  27.620   0.815
40025W        W99286  25.173  18.783  12.868
40026W        W99287  25.645  28.182  11.930
40027W        W99288   4.353   0.966   0.337
40028W        W99289  21.080  31.030  14.353
40029W        W99290  15.270  39.909  13.367
40030W        W99291  15.142   2.388   1.886
40031W        W99292  25.093  38.961  12.978
40032W        W99293  21.048   5.708   0.877
40033W        W99294   4.755  14.693   1.411
40034W        W99295  32.623  10.287  14.333
40035W        W99296  23.561  38.949  11.034
40036W        W99297  17.070  29.168  14.492
40037W        W99298  25.070  37.432   1.292
40038W        W99299  31.600  18.181  12.437
40039W        W99300   9.197  33.055   1.330
40040W        W99301   2.893  42.869  12.574
40041W        W99302   3.442  26.595   0.887
40042W        W99303   0.982  25.044  12.858
40043W        W99304  39.026  10.806   4.660
40044W        W99305  24.525  24.708  12.567
40045W        W99306  20.738   7.670   4.215
40046W        W99307  22.507  42.935  11.591
40047W        W99308  30.628  16.578   4.606
40048W        W99309  24.190  40.979  12.353
40049W        W99310  17.745  35.446   3.669
40050W        W99311  13.816  31.473   2.789
40051W        W99312  41.829  30.141   3.757
40052W        W99313  38.983  25.984  13.417
40053W        W99314  42.444   7.889   0.750
40054W        W99315  34.941   3.952   4.814
40055W        W99316  32.921   9.750  12.061
40056W        W99317  12.743  41.791   0.423
40057W        W99318  16.751  22.085  12.472
40058W        W99319  42.939   8.721  11.554
40059W        W99320  43.865  42.800  11.937
40060W        W99321  37.487  30.103   1.217
40061W        W99322   7.294  27.095  11.548
40062W        W99323  37.565  16.767  12.427
40063W        W99324  42.420   3.938   1.890
40064W        W99325  24.069  38.066   1.366
40065W        W99326  12.219  44.780  10.475
40066W        W99327   8.159  44.298  12.479
40067W        W99328  25.565  16.776   4.135
40068W        W99329  17.110   1.801   4.813
40069W        W99330  38.421  18.072   1.710
40070W        W99331   3.943  17.273   1.430
40071W        W99332   3.839   3.337   1.878
40072W        W99333  15.209  24.190  13.534
40073W        W99334  35.884  43.317  11.015
40074W        W99335  20.687   8.861  11.501
40075W        W99336  35.578  22.104  11.518
40076W        W99337  30.049  38.047  12.426
40077W        W99338  25.467  41.014  14.927
40078W        W99339   0.839  32.003  12.984
40079W        W99340  36.430  20.609  14.320
40080W        W99341   8.681   9.183  12.471
40081W        W99342  12.304  14.320   1.815
40082W        W99343  32.418  39.417  11.967
40083W        W99344  22.061   5.335  14.327
40084W        W99345  10.265   3.888  10.515
40085W        W99346  36.049  28.596  10.961
40086W        W99347  31.504  21.531  10.927
40087W        W99348  33.560  26.963   4.735
40088W        W99349   4.278  34.557  10.461
40089W        W99350  18.705  10.342  14.839
40090W        W99351   4.943  35.063   0.329
40091W        W99352   4.381   5.293   0.874
40092W        W99353   1.776  35.092   2.300
40093W        W99354  22.594   0.475  14.985
40094W        W99355  20.084  36.550  14.316
40095W        W99356  11.822  40.464   0.290
40096W        W99357   0.324  16.788   1.358
40097W        W99358  17.264  36.880   0.861
40098W        W99359  29.138   3.266  14.393
40099W        W99360  40.010  30.415  14.280
40100W        W99361   6.291  11.287   0.916
40101W        W99362  37.483  10.307  12.024
40102W        W99363  27.516  44.943  10.411
40103W        W99364  31.125  42.353   4.341
40104W        W99365  13.706  34.511  13.988
40105W        W99366  14.708  26.133  12.478
40106W        W99367  11.195  42.367  11.531
40107W        W99368  24.629  44.477  11.438
40108W        W99369  38.069  31.066  10.467
40109W        W99370  20.678  34.573   2.828
40110W        W99371  37.391   4.218   4.628
40111W        W99372  24.694  24.013  14.481
40112W        W99373   3.732   4.428  13.361
40113W        W99374  20.078  12.156  14.842
40114W        W99375  12.331  35.965  14.891
40115W        W99376  13.800   6.297   9.919
40116W        W99377  14.112  19.159  12.843
40117W        W99378  10.676   8.882   4.796
40118W        W99379  22.095  25.207   2.298
40119W        W99380  18.186  23.561  11.429
40120W        W99381  34.866  33.566   5.118
40121W        W99382  29.628  28.485  11.870
40122W        W99383  11.786  15.283  11.888
40123W        W99384  19.196   7.810  13.445
40124W        W99385  24.036  13.664   3.847
40125W        W99386  21.094  42.472   2.879
40126W        W99387  21.079  28.101  13.044
40127W        W99388  14.766  21.689   1.852
40128W        W99389   6.699  21.578   1.856
40129W        W99390  25.074  21.068  11.572
40130W        W99391  12.846  26.629   3.645
40131W        W99392  31.415  25.634   3.271
40132W        W99393   5.821  37.007   2.717
40133W        W99394  20.688   8.665  12.858
40134W        W99395  39.053  11.366  14.348
40135W        W99396  31.899  40.338  11.931
40136W        W99397  25.202  11.357  13.983
40137W        W99398  36.446  14.120   1.223
40138W        W99399  34.564   7.906  10.408
40139W        W99400  19.710   1.295  13.483
40140W        W99401  21.646  10.331   4.290
40141W        W99402  19.235  21.566  13.064
40142W        W99403  34.469  36.390   4.704
40143W        W99404  35.892  26.138  12.916
40144W        W99405  41.965  39.857   4.276
40145W        W99406  19.229  41.939  14.455
40146W        W99407   3.413   4.816  12.032
40147W        W99408  36.850   3.286   3.263
40148W        W99409  36.583  25.637  13.509
40149W        W99410   7.194  34.907   0.467
40150W        W99411  20.060  41.889   2.417
40151W        W99412  15.727  43.828  11.400
40152W        W99413  42.385  42.505   1.449
40153W        W99414  37.939  42.329  13.841
40154W        W99415  13.797   1.293   0.859
40155W        W99416  34.547  39.828   5.285
40156W        W99417  32.405  41.869   3.682
40157W        W99418  35.062  27.453   1.878
40158W        W99419  44.978  21.263   3.706
40159W        W99420  15.206  19.548   9.991
40160W        W99421  32.023   7.839  11.379
40161W        W99422   9.204   8.700  14.019
40162W        W99423  14.627  10.862  13.884
40163W        W99424  12.208  31.616   0.461
40164W        W99425  40.417  38.400  12.348
40165W        W99426  23.558  14.642  11.004
40166W        W99427  27.154  29.161  12.922
40167W        W99428  38.335   5.906   4.691
40168W        W99429  40.807  13.326   0.368
40169W        W99430  38.339  34.036  10.979
40170W        W99431  22.248  14.205  11.575
40171W        W99432  36.561  24.040  10.476
40172W        W99433  11.289  27.194  11.945
40173W        W99434  37.831  23.141  14.282
40174W        W99435  35.443  20.100  14.394
40175W        W99436  30.592   4.305  14.852
40176W        W99437  22.710  25.008   3.231
40177W        W99438  23.633  28.163  10.941
40178W        W99439  35.914  26.106  11.423
40179W        W99440   0.925   5.732  11.413
40180W        W99441  26.690  38.867  12.408
40181W        W99442   1.428   2.780   3.709
40182W        W99443  34.875  37.364  14.348
40183W        W99444  15.089  44.764   2.408
40184W        W99445  33.934  42.501   4.129
40185W        W99446  43.399  24.714  10.609
40186W        W99447  14.221  16.729  12.906
40187W        W99448  37.368  16.195  13.987
40188W        W99449   9.299  33.482  10.148
40189W        W99450  13.208  28.609   9.558
40190W        W99451   9.250  43.382  14.971
40191W        W99452   1.951  15.165   2.701
40192W        W99453  36.001   4.737   3.194
40193W        W99454   4.374  26.187  12.081
40194W        W99455  31.966  43.967   3.787
40195W        W99456   4.323  14.291  13.859
40196W        W99457  12.161   1.808  14.923
40197W        W99458  41.952  26.955   2.197
40198W        W99459   0.766  43.812   4.712
40199W        W99460  31.567   4.777  13.886
40200W        W99461  42.993  39.860   4.728
40201W        W99462  42.803  24.723  12.022
40202W        W99463   8.349  43.488  12.407
40203W        W99464  24.209  22.574  13.964
40204W        W99465  34.891  38.839   3.836
40205W        W99466  15.776  34.047   1.881
40206W        W99467  15.771   2.954  13.465
40207W        W99468  42.521  40.459  11.501
40208W        W99469  38.398  26.984   0.263
40209W        W99470  25.540   6.310  14.495
40210W        W99471  24.565  14.702  10.454
40211W        W99472  24.517  27.161  14.984
40212W        W99473  37.990  35.928   4.640
40213W        W99474  11.698  35.580   4.181
40214W        W99475  16.202  21.044  12.549
40215W        W99476  23.653  32.972   4.144
40216W        W99477  20.138  42.452   0.273
40217W        W99478  25.502  29.091  14.369
40218W        W99479  20.659  29.662   4.328
40219W        W99480  37.404  17.139   1.847
40220W        W99481   3.875  39.052  12.578
40221W        W99482  10.248  33.390  10.602
40222W        W99483  28.093   1.266  14.988
40223W        W99484  33.006  12.815  11.411
40224W        W99485   3.710  19.552   3.324
40225W        W99486  26.087  15.122   1.822
40226W        W99487  29.571  26.954  11.009
40227W        W99488  18.217  14.176   4.186
40228W        W99489  11.632  32.904   1.845
40229W        W99490   2.397  42.361  10.894
40230W        W99491  18.080  27.189  11.587
40231W        W99492  13.803  39.372   4.678
40232W        W99493  22.631  35.982  12.437
40233W        W99494  43.882  21.109   1.799
40234W        W99495  12.327  41.409  14.023
40235W        W99496  39.010   8.830   2.852
40236W        W99497   4.330  42.887   1.439
40237W        W99498   5.296  40.016   3.732
40238W        W99499  12.673  25.519   0.797
40239W        W99500   4.258  17.765  11.385
40240W        W99501  22.642  13.266  13.443
40241W        W99502  39.856  37.482  14.462
40242W        W99503  33.937   1.808   4.760
40243W        W99504  13.246  30.528  10.036
40244W        W99505  20.224   4.724  13.378
40245W        W99506  44.826  43.798  12.360
40246W        W99507  31.030  18.682   3.376
40247W        W99508  23.530  22.084   1.906
40248W        W99509  31.611  27.056  12.989
40249W        W99510   2.926  35.522   0.397
40250W        W99511   2.843  32.126   4.635
40251W        W99512  39.333  40.868  12.450
40252W        W99513  14.820  37.018  13.363
40253W        W99514   3.357  37.582   4.327
40254W        W99515  21.692  31.455  14.351
40255W        W99516  14.783   5.932  13.466
40256W        W99517   7.356  30.076   2.213
40257W        W99518  25.477  15.279  10.895
40258W        W99519  43.388   1.931   5.171
40259W        W99520  26.107  36.851  11.975
40260W        W99521   9.806   6.847   4.743
40261W        W99522  43.421  11.747   3.780
40262W        W99523  34.960   9.393  11.014
40263W        W99524  19.592  15.180   3.770
40264W        W99525  25.202  29.567   1.733
40265W        W99526  18.703  36.908  14.031
40266W        W99527  41.344  11.697  11.914
40267W        W99528  39.423  20.759  14.984
40268W        W99529  11.197  39.062   4.662
40269W        W99530  34.393  43.949  11.540
40270W        W99531  30.081  39.321  11.100
40271W        W99532  12.739  26.569  10.589
40272W        W99533  27.170  25.006  10.550
40273W        W99534  38.846   1.384  14.280
40274W        W99535  29.463  36.538   0.907
40275W        W99536  42.909  33.480  13.418
40276W        W99537  13.772  15.657   1.394
40277W        W99538   1.299  42.389  11.875
40278W        W99539  37.932  15.125   4.811
40279W        W99540  41.524  30.550  14.997
40280W        W99541   1.363  23.505  14.781
40281W        W99542   5.794   8.665  12.859
40282W        W99543   8.873  32.494   3.794
40283W        W99544  24.215  29.962   4.799
40284W        W99545  23.060   6.886  14.349
40285W        W99546   1.850  40.458   0.763
40286W        W99547  21.576   8.795  10.472
40287W        W99548  10.188  23.984  14.803
40288W        W99549  18.695  13.279   5.238
40289W        W99550  29.620   0.282   3.208
40290W        W99551   4.833  10.363  13.494
40291W        W99552  39.026   9.811  13.038
40292W        W99553  14.608   5.798   1.276
40293W        W99554  14.600  34.979   4.226
40294W        W99555  38.851  33.972   4.719
40295W        W99556  33.990   3.757  11.576
40296W        W99557  27.034  13.791   0.347
40297W        W99558  27.090   0.941   1.239
40298W        W99559   0.425  37.046   1.391
40299W        W99560  35.581   5.406   3.804
40300W        W99561  15.724  10.242   2.296
40301W        W99562  29.923  17.091  14.296
40302W        W99563  27.166   7.345   0.763
40303W        W99564  43.903  25.634  13.808
40304W        W99565   0.254  10.211  10.891
40305W        W99566  34.440  11.694  13.342
40306W        W99567  44.479   2.746   0.438
40307W        W99568  42.846  33.085   2.902
40308W        W99569   7.336   6.381   0.421
40309W        W99570  33.453   6.833   4.820
40310W        W99571  44.825   3.453  13.436
40311W        W99572  25.086   2.329   2.292
40312W        W99573  38.857   4.282   3.803
40313W        W99574  16.198  20.614  13.925
40314W        W99575  44.890   4.851  11.502
40315W        W99576  42.385   7.416  14.327
40316W        W99577  37.432  21.614  10.419
40317W        W99578  11.743  18.589  14.775
40318W        W99579  31.487  41.025  10.460
40319W        W99580  16.298  13.133   4.636
40320W        W99581  27.595  22.057  14.371
40321W        W99582  43.303  18.619   2.674
40322W        W99583  42.514  25.471   3.257
40323W        W99584   4.825  25.507   4.809
40324W        W99585  12.723  16.223   5.157
40325W        W99586  33.424  11.296   2.396
40326W        W99587  30.572  14.775   0.752
40327W        W99588   0.885  19.675  10.569
40328W        W99589  38.830  41.794  14.833
40329W        W99590  32.391  40.866   5.299
40330W        W99591  17.789  33.080   4.751
40331W        W99592  22.086  22.175   4.339
40332W        W99593  31.117  14.638  13.420
40333W        W99594  25.991  19.189  10.498
40334W        W99595   9.366  21.703  10.990
40335W        W99596  27.665  39.362  13.538
40336W        W99597  39.998  41.037   1.403
40337W        W99598  29.985  37.342   3.823
40338W        W99599  13.238  16.595   9.965
40339W        W99600  37.486  31.048   0.435
40340W        W99601  41.402  39.539  11.892
40341W        W99602  43.932  16.252   1.933
40342W        W99603  38.466  11.779   4.719
40343W        W99604  35.033   2.759   3.235
40344W        W99605   8.712  30.914   0.785
40345W        W99606  18.056  27.598  11.467
40346W        W99607   5.904  25.598  13.019
40347W        W99608  30.596  30.011   3.152
40348W        W99609  36.539  29.617   3.789
40349W        W99610   8.167  42.462  14.835
40350W        W99611  29.954  16.120  12.036
40351W        W99612  22.531  22.091   2.751
40352W        W99613  13.693   0.359  13.041
40353W        W99614  30.920   1.240   4.745
40354W        W99615  21.648  22.152  12.922
40355W        W99616  44.838  15.624   0.439
40356W        W99617  19.112   3.919  13.402
40357W        W99618  15.646  26.677   5.643
40358W        W99619  34.058   4.720   4.713
40359W        W99620  24.485  15.594   4.771
40360W        W99621   3.382  22.658  11.415
40361W        W99622  38.488  41.422  11.377
40362W        W99623   7.903  30.146   0.256
40363W        W99624  37.077   7.731   3.335
40364W        W99625   2.412  33.115  11.027
40365W        W99626  33.520  31.025  12.456
40366W        W99627   3.849  40.388  12.422
40367W        W99628   8.678  19.639   1.920
40368W        W99629   6.239  22.204  12.415
40369W        W99630  17.214  25.523   4.604
40370W        W99631  17.765  16.741   2.773
40371W        W99632  40.945  19.591  14.345
40372W        W99633  12.354   1.479  10.551
40373W        W99634  24.093  19.189   3.153
40374W        W99635  33.113  13.821   5.292
40375W        W99636  17.761   6.362   0.897
40376W        W99637  23.062  32.549  11.924
40377W        W99638  23.709  24.546   0.268
40378W        W99639  12.180  10.176  13.818
40379W        W99640  23.669  30.515   4.817
40380W        W99641  38.868  12.786   1.386
40381W        W99642   6.263  27.091   4.804
40382W        W99643  22.621  11.257   4.210
40383W        W99644  18.553  32.055  11.115
40384W        W99645  37.507  41.518   3.811
40385W        W99646   2.429   3.931   1.229
40386W        W99647  33.459  41.999  14.904
40387W        W99648   6.802  11.207   4.213
40388W        W99649  16.291   7.784  10.607
40389W        W99650  13.154  20.144  13.921
40390W        W99651  15.171  30.582  12.392
40391W        W99652  13.661  24.082   3.787
40392W        W99653   3.729  24.075  11.064
40393W        W99654  35.537  10.679   0.479
40394W        W99655   1.840  41.444   3.195
40395W        W99656   7.192  24.681   1.922
40396W        W99657  19.729   5.215   0.925
40397W        W99658  35.080  18.784   4.231
40398W        W99659  17.624  25.220   1.883
40399W        W99660  19.637  11.196   0.918
40400W        W99661  29.031  20.191   4.830
40401W        W99662  18.251  15.644   0.462
40402W        W99663  44.495  27.949  11.552
40403W        W99664   3.714  12.618   1.314
40404W        W99665  16.588  19.172  13.995
40405W        W99666  20.623  25.609   9.578
40406W        W99667  13.844  29.478   3.708
40407W        W99668  38.449  13.803  10.561
40408W        W99669  30.526  20.127   2.367
40409W        W99670  37.928   9.260  10.537
40410W        W99671  22.546  31.442   4.654
40411W        W99672  32.989  32.456   0.391
40412W        W99673   5.403  24.072   2.226
40413W        W99674  43.765  16.102   2.373
40414W        W99675  21.218  21.756   2.880
40415W        W99676   4.803  34.412  13.508
40416W        W99677  40.452   1.833  12.078
40417W        W99678   2.305  30.518  12.989
40418W        W99679  35.951  31.072   3.244
40419W        W99680  34.522  16.615   1.361
40420W        W99681  13.826  24.182   4.320
40421W        W99682  32.595   2.842  10.508
40422W        W99683  15.320  43.928  14.845
40423W        W99684   0.946  11.641  11.017
40424W        W99685   4.366  19.561   0.827
40425W        W99686   0.456  28.501  13.854
40426W        W99687  18.203  37.524  13.849
40427W        W99688  32.562  21.229   1.226
40428W        W99689   5.923  14.099  12.017
40429W        W99690  35.048  39.394  12.013
40430W        W99691  27.081  17.229  10.534
40431W        W99692  35.056  32.002   1.233
40432W        W99693  17.133  15.675   2.883
40433W        W99694  36.900  13.845   4.248
40434W        W99695   2.363  34.868   0.481
40435W        W99696  39.828   3.767   2.757
40436W        W99697   2.898   9.809   5.745
40437W        W99698   8.893  11.852   5.216
40438W        W99699  20.081  43.014  14.434
40439W        W99700  19.125  20.614   1.450
40440W        W99701  12.358  33.901   3.660
40441W        W99702   1.446  13.700  13.882
40442W        W99703  10.224  43.323   3.676
40443W        W99704  41.497   5.784  10.937
40444W        W99705  21.638  33.919   3.193
40445W        W99706  30.472   0.819  13.037
40446W        W99707  20.234   2.349   1.283
40447W        W99708  37.426  16.574  13.436
40448W        W99709  38.384   8.359  14.467
40449W        W99710  41.791  15.196  10.936
40450W        W99711  26.056   7.729  13.541
40451W        W99712  43.373  39.326  12.995
40452W        W99713  35.944  14.675  12.916
40453W        W99714  22.716  22.660  10.134
40454W        W99715  15.118   4.261   0.308
40455W        W99716  14.244   4.289   9.926
40456W        W99717  24.101  26.953  11.998
40457W        W99718  42.900  36.356  13.418
40458W        W99719  38.457  32.121   3.384
40459W        W99720  41.496  14.808  11.475
40460W        W99721  34.987  21.719   2.381
40461W        W99722  23.569  34.055   1.731
40462W        W99723  35.007   7.347   0.257
40463W        W99724  13.633  16.786  13.520
40464W        W99725   0.742  24.179   4.630
40465W        W99726  19.121  32.994   0.869
40466W        W99727  23.006  31.992  11.049
40467W        W99728   0.923   8.165  12.960
40468W        W99729   7.885   7.415   3.225
40469W        W99730  24.995  34.042   1.847
40470W        W99731  44.991  40.413   1.363
40471W        W99732  28.487  44.970   3.736
40472W        W99733  16.140  40.500   4.609
40473W        W99734  41.831  30.081  14.809
40474W        W99735  18.688  11.766  13.455
40475W        W99736  13.747   4.876  12.972
40476W        W99737   8.699   4.807   1.723
40477W        W99738  41.443   6.368   3.309
40478W        W99739  18.597  30.609  13.879
40479W        W99740  26.055  20.263   1.244
40480W        W99741  39.324  38.331   2.674
40481W        W99742  33.565  12.313   1.284
40482W        W99743  14.161  31.011   0.770
40483W        W99744  11.134  26.472  11.538
40484W        W99745  22.248  10.328  10.598
40485W        W99746   0.386  26.118   1.384
40486W        W99747  21.052  43.513   3.282
40487W        W99748   4.921  40.485   2.386
40488W        W99749  10.141  44.803   3.189
40489W        W99750  31.418   8.194   5.197
40490W        W99751   4.701  23.526  11.386
40491W        W99752  32.081  31.460  14.791
40492W        W99753  35.100  32.445  10.493
40493W        W99754  22.527  30.043   1.264
40494W        W99755  41.918  42.994   3.868
40495W        W99756  18.061  35.500   1.713
40496W        W99757  43.902   3.415  11.602
40497W        W99758  37.358  17.089   4.147
40498W        W99759  38.002  21.167  12.544
40499W        W99760   5.402  20.600  12.944
40500W        W99761  37.484   4.881  11.914
40501W        W99762   5.374   4.753  14.400
40502W        W99763  28.050  37.865   2.268
40503W        W99764   4.328  32.507   3.293
40504W        W99765  44.975  19.040   0.386
40505W        W99766  33.060  35.916   2.288
40506W        W99767  34.109  26.150  13.485
40507W        W99768   3.267  44.415  13.986
40508W        W99769  22.599  19.719  14.832
40509W        W99770  14.097  38.900   2.708
40510W        W99771   7.255  14.240  13.542
40511W        W99772  12.801  18.627   1.324
40512W        W99773  24.507  28.539   3.238
40513W        W99774  42.985  10.309  12.056
40514W        W99775   8.846  44.981  13.377
40515W        W99776  41.892  17.215   0.881
40516W        W99777   5.323  27.131  11.427
40517W        W99778  43.795  36.519   2.230
40518W        W99779  43.010  21.708   2.758
40519W        W99780  25.034  31.986  11.922
40520W        W99781   2.791  36.869  12.552
40521W        W99782  34.478   2.867   2.781
40522W        W99783  17.774   2.764   0.782
40523W        W99784  34.971  26.134  14.998
40524W        W99785  32.449  31.030   2.246
40525W        W99786  11.680  11.271  11.015
40526W        W99787  38.340  41.902  10.523
40527W        W99788   3.779  15.653  14.808
40528W        W99789  27.623   3.779  12.036
40529W        W99790   8.778  22.528  12.886
40530W        W99791   8.839  12.670   1.846
40531W        W99792  23.497   1.821   2.788
40532W        W99793  17.101  14.129  14.935
40533W        W99794  13.798  19.177  12.446
40534W        W99795  23.028  33.401   3.769
40535W        W99796  13.737  16.155  12.566
40536W        W99797   7.866  12.136  13.004
40537W        W99798   1.385  31.029   0.323
40538W        W99799  20.746  26.581  11.432
40539W        W99800  15.095   8.833   1.719
40540W        W99801  40.432   5.267  13.038
40541W        W99802  27.168  42.302  12.833
40542W        W99803  16.231  22.096  12.957
40543W        W99804  37.428  35.896  10.028
40544W        W99805  13.259   2.433   5.675
40545W        W99806   9.279  40.458   4.278
40546W        W99807  14.118   4.811   1.234
40547W        W99808   2.461  29.954   0.436
40548W        W99809  39.505  37.447  10.898
40549W        W99810  27.121  34.526  10.405
40550W        W99811  43.485  11.792  13.915
40551W        W99812  34.562  17.117   3.236
40552W        W99813  16.249   2.832  12.024
40553W        W99814  40.446  27.052   1.445
40554W        W99815  17.785  44.432   4.800
40555W        W99816  28.608  16.255  11.393
40556W        W99817  34.523   7.830  13.351
40557W        W99818  19.570  24.069  10.549
40558W        W99819  34.886  14.745  10.156
40559W        W99820   7.224   8.259   3.726
40560W        W99821   9.880  42.512  13.457
40561W        W99822   0.929  28.081   0.327
40562W        W99823  37.985  22.221  11.499
40563W        W99824  17.081   5.354   5.298
40564W        W99825  24.141  35.573  10.457
40565W        W99826  12.345  32.422   4.764
40566W        W99827  36.573   2.380   2.262
40567W        W99828  44.361   5.244   1.765
40568W        W99829  21.731  26.474  14.899
40569W        W99830   9.678  40.435   3.308
40570W        W99831   6.737  23.226   3.663
40571W        W99832  28.977  27.195   2.365
40572W        W99833  35.535  26.516   1.880
40573W        W99834  44.368  22.130   1.349
40574W        W99835  37.527  31.016   5.246
40575W        W99836  39.923  30.091  14.810
40576W        W99837  28.177  43.781  11.563
40577W        W99838   1.877  37.037   4.198
40578W        W99839   5.231  43.467   2.367
40579W        W99840  29.586  18.659  14.845
40580W        W99841  26.037   6.388   1.380
40581W        W99842   8.324  41.349   3.242
40582W        W99843   1.781  39.377   3.265
40583W        W99844  41.926   0.768  13.533
40584W        W99845  30.446  35.530  14.434
40585W        W99846  20.231   0.318  10.440
40586W        W99847  11.338   7.328  10.974
40587W        W99848   1.876  40.817   3.672
40588W        W99849  28.044   6.741  10.045
40589W        W99850  34.380  24.490   3.829
40590W        W99851  42.458  33.515   3.194
40591W        W99852  32.122  13.795   3.690
40592W        W99853  44.385  30.600  14.877
40593W        W99854  24.657   5.727  10.573
40594W        W99855  20.134   1.873  12.446
40595W        W99856  42.383  35.424   4.830
40596W        W99857  21.018  38.974   1.409
40597W        W99858  40.992  37.922  12.930
40598W        W99859  36.462  35.521  14.020
40599W        W99860   3.801  41.370   2.377
40600W        W99861  39.864   7.772  13.340
40601W        W99862  26.532  33.993  13.348
40602W        W99863  31.464  35.894  14.859
40603W        W99864  36.386   7.357   3.733
40604W        W99865  32.414  37.345   2.213
40605W        W99866  18.695  24.649  14.018
40606W        W99867   9.816  38.908  13.878
40607W        W99868  34.485  25.560  11.015
40608W        W99869   3.316  27.050   2.203
40609W        W99870  29.670  12.684   4.834
40610W        W99871   5.194   3.884   3.383
40611W        W99872  34.448   5.305  11.950
40612W        W99873  22.564   8.772   4.315
40613W        W99874  33.610  25.500   2.743
40614W        W99875  42.422  35.025   2.872
40615W        W99876  11.761  12.790  11.593
40616W        W99877   7.694   0.419   4.790
40617W        W99878   8.187   6.384   4.158
40618W        W99879   0.781  29.987  12.421
40619W        W99880  24.094  42.521   2.198
40620W        W99881  25.633   0.922   0.432
40621W        W99882   1.943  16.597   0.379
40622W        W99883   9.737  43.272  10.473
40623W        W99884  12.745   8.787   2.381
40624W        W99885  19.733  29.970  13.876
40625W        W99886  24.096  43.992  13.342
40626W        W99887   8.351   7.806   5.153
40627W        W99888   6.350   3.756  11.467
40628W        W99889   3.406  41.964   1.422
40629W        W99890  12.793   1.741  11.046
40630W        W99891   4.763  11.847  14.440
40631W        W99892   0.833   1.855  11.563
40632W        W99893  29.598  19.722   4.159
40633W        W99894  30.438  16.803  10.438
40634W        W99895  22.725  14.176  11.599
40635W        W99896  36.912   5.428   1.748
40636W        W99897  41.530  16.189  12.908
40637W        W99898  33.971  32.951  14.425
40638W        W99899   1.970   5.860   4.715
40639W        W99900  10.142   4.900   4.814
40640W        W99901  41.866  36.053   4.214
40641W        W99902  12.308   0.489   0.885
40642W        W99903  29.974  27.047   3.820
40643W        W99904   3.863  10.179   4.710
40644W        W99905  41.787  26.976   0.369
40645W        W99906  31.576  16.678  12.358
40646W        W99907  31.133  11.159   5.593
40647W        W99908   5.770  39.414   3.814
40648W        W99909   3.746  29.155   1.889
40649W        W99910  28.621   5.764   3.293
40650W        W99911  18.557  39.953  11.464
40651W        W99912  36.097  39.893   0.476
40652W        W99913  43.468  32.483  11.424
40653W        W99914  27.081  18.583   0.465
40654W        W99915  21.050  34.497  13.990
40655W        W99916   8.728  29.654   0.780
40656W        W99917  21.512  26.584  12.489
40657W        W99918  15.140   7.278   3.846
40658W        W99919  28.975  41.996  11.976
40659W        W99920  39.460  30.613   2.219
40660W        W99921  40.975  39.048   0.880
40661W        W99922   4.362   8.883  14.857
40662W        W99923  41.384  23.669   0.891
40663W        W99924   6.263  31.613   4.770
40664W        W99925  41.395  32.431  12.875
40665W        W99926  19.572  32.447  12.350
40666W        W99927  38.872  18.772   1.753
40667W        W99928  25.098  42.949   4.646
40668W        W99929  38.450  35.041   0.380
40669W        W99930   3.325  39.528  13.002
40670W        W99931   7.901  42.504   0.818
40671W        W99932  22.204  25.593   1.381
40672W        W99933   8.214   9.735   2.409
40673W        W99934   0.785   3.369   5.129
40674W        W99935  13.326  35.868  13.940
40675W        W99936  44.966  24.592   0.944
40676W        W99937   3.278   3.933   2.345
40677W        W99938  23.187  27.008   1.276
40678W        W99939  27.189  44.917   1.440
40679W        W99940  23.666  36.492  12.087
40680W        W99941  25.700  40.326   2.272
40681W        W99942  42.332  21.090   4.219
40682W        W99943  25.545  14.116   5.097
40683W        W99944  38.384  43.811  13.343
40684W        W99945  37.963  30.568   0.780
40685W        W99946  27.670   4.365  13.821
40686W        W99947  35.864  26.608  14.278
40687W        W99948  17.766  29.145   0.245
40688W        W99949  27.969  39.993   2.762
40689W        W99950  43.886  11.181   4.827
40690W        W99951  35.105  32.929   4.792
40691W        W99952  26.174   9.200  11.578
40692W        W99953  21.018   1.387   3.709
40693W        W99954  40.468  32.543  12.520
40694W        W99955  15.183  11.369  14.811
40695W        W99956  38.334  20.160  11.886
40696W        W99957  15.725  44.984  13.417
40697W        W99958  40.417   0.829  10.491
40698W        W99959  32.599   3.780  13.430
40699W        W99960  30.583  26.094  14.467
40700W        W99961   4.934  19.594  12.094
40701W        W99962  44.007  37.850   1.800
40702W        W99963  11.231   3.810   0.360
40703W        W99964  44.444  38.355   3.303
40704W        W99965   3.818  23.638  13.380
40705W        W99966  26.528   3.258   0.479
40706W        W99967  31.527  44.796  13.913
40707W        W99968  34.502   2.284  13.000
40708W        W99969  33.461  29.571   1.290
40709W        W99970  40.427  41.945  11.059
40710W        W99971  13.767  30.049   1.273
40711W        W99972   1.811   1.975   1.738
40712W        W99973  21.128  10.372   2.716
40713W        W99974  36.364   6.254   1.284
40714W        W99975   6.679  24.662  11.929
40715W        W99976  38.948  34.918  12.514
40716W        W99977  32.612  27.477   2.722
40717W        W99978   2.387  13.806   1.755
40718W        W99979  38.835  42.005  10.538
40719W        W99980  37.348  11.755   4.777
40720W        W99981  12.339   6.393   3.151
40721W        W99982  32.118  36.488  14.831
40722W        W99983  14.595  14.184  12.385
40723W        W99984  38.358   3.403   5.181
40724W        W99985  36.466  27.020  13.987
40725W        W99986   7.861  26.554  10.889
40726W        W99987  13.165   2.341   4.304
40727W        W99988  31.983  26.115  12.865
40728W        W99989  37.548   4.385  14.293
40729W        W99990  16.164   5.242  14.473
40730W        W99991   5.843  31.950   3.288
40731W        W99992  26.172  20.177   4.312
40732W        W99993  21.124  41.534  11.428
40733W        W99994  21.552  44.798   3.657
40734W        W99995  41.816  30.949  14.437
40735W        W99996  40.010   5.367  12.836
40736W        W99997   3.883  30.136   1.297
40737W        W99998  31.980  43.927   4.321
40738W        W99999   0.768   2.921  13.959
40739W        W    0  33.538   6.773  14.946
40740W        W    1  43.840   1.886  11.043
40741W        W    2  34.997   9.658   1.920
40742W        W    3   8.348  21.646   2.708
40743W        W    4   9.394  30.657   1.924
40744W        W    5  21.177  19.055  11.915
40745W        W    6  12.146  40.873  13.321
40746W        W    7   0.270  18.777  13.874
40747W        W    8  32.488  31.642  11.086
40748W        W    9  19.657   3.774   1.395
40749W        W   10   7.907  31.937  12.861
40750W        W   11  19.751  41.474  11.484
40751W        W   12  12.294  13.251  10.624
40752W        W   13  38.002   3.785   1.798
40753W        W   14  38.063  20.107   4.137
40754W        W   15  40.971  36.540  10.575
40755W        W   16  17.232  12.836  13.796
40756W        W   17  35.979  31.072  14.375
40757W        W   18  39.945  35.602  14.513
40758W        W   19  11.691   7.226   4.624
40759W        W   20  18.141  43.423  10.427
40760W        W   21  43.513  23.146   2.266
40761W        W   22  24.044  12.253  11.392
40762W        W   23  36.867   4.922   0.386
40763W        W   24  32.938   3.891  12.340
40764W        W   25  30.038  41.406  11.495
40765W        W   26  39.898  24.602   0.904
40766W        W   27  35.524  25.102  10.424
40767W        W   28  11.336  35.570   1.916
40768W        W   29  29.011  41.930  13.418
40769W        W   30  23.161  32.624  14.858
40770W        W   31  37.339  40.366   1.798
40771W        W   32  44.904   9.232   1.882
40772W        W   33  43.917  36.993  13.372
40773W        W   34  38.460  37.403   0.270
40774W        W   35  28.013  29.966  11.022
40775W        W   36   2.887  13.770   1.219
40776W        W   37  23.588  24.128   4.606
40777W        W   38  31.965  33.059  14.437
40778W        W   39   3.374  25.612   3.252
40779W        W   40  11.721  31.577   3.245
40780W        W   41  33.611  33.022  13.315
40781W        W   42  42.995   2.880  13.884
40782W        W   43  20.101  44.452   1.339
40783W        W   44  34.072  43.880  10.546
40784W        W   45  43.824  30.992   1.760
40785W        W   46  23.134  31.050   1.875
40786W        W   47  38.978   5.796  14.884
40787W        W   48  31.032  40.524  14.810
40788W        W   49  38.830  26.545  14.851
40789W        W   50  31.589  17.221  12.898
40790W        W   51  18.720  16.576  14.344
40791W        W   52  20.532  12.761  14.416
40792W        W   53  20.271  10.296   0.909
40793W        W   54  23.177   0.291  14.833
40794W        W   55   8.357  31.919   0.763
40795W        W   56   4.736  24.480   4.170
40796W        W   57  30.044  43.936  14.768
40797W        W   58   0.774  39.425  14.819
40798W        W   59  36.407  17.119  13.821
40799W        W   60  43.777  24.635  13.931
40800W        W   61   5.933  16.139   1.731
40801W        W   62  22.686   3.272  13.409
40802W        W   63  10.703  12.325   3.247
40803W        W   64  11.712  16.658  14.495
40804W        W   65  20.154   0.979  10.122
40805W        W   66  11.724  12.241   2.308
40806W        W   67  15.120  26.980   0.930
40807W        W   68  21.146  33.909  10.905
40808W        W   69  42.378   9.295   1.694
40809W        W   70   8.886   7.371  14.781
40810W        W   71   5.439  33.894  13.995
40811W        W   72  15.238  21.630  13.384
40812W        W   73  14.304  25.183   2.299
40813W        W   74  15.740  34.526   0.852
40814W        W   75  11.302  19.100   4.307
40815W        W   76  40.835  36.516  12.528
40816W        W   77  27.946  23.610  12.943
40817W        W   78  40.449  39.904   4.183
40818W        W   79  36.517   7.321  11.995
40819W        W   80  44.953   7.816  13.986
40820W        W   81  44.753   8.787  13.933
40821W        W   82  17.739  36.418   3.145
40822W        W   83  11.345  33.458  12.532
40823W        W   84   8.211   2.896  11.555
40824W        W   85  30.607  11.809  12.457
40825W        W   86  20.766   0.437   1.833
40826W        W   87  32.002   6.231  11.868
40827W        W   88   0.942  18.200  11.966
40828W        W   89  41.948  13.646  10.988
40829W        W   90  27.103  30.997  13.527
40830W        W   91  28.482  14.773   1.799
40831W        W   92  17.768   1.444  11.012
40832W        W   93  22.500  28.434   3.173
40833W        W   94  39.980  44.273   1.258
40834W        W   95   6.187  11.356  11.553
40835W        W   96  10.850  17.711   0.363
40836W        W   97  38.856  23.056  13.973
40837W        W   98   5.907  41.786  11.949
40838W        W   99  10.212   2.924   4.199
40839W        W  100  22.215   2.964   3.817
40840W        W  101  13.801  33.559   1.781
40841W        W  102  44.261  44.283  13.440
40842W        W  103   3.421  19.610  11.473
40843W        W  104   5.843  41.338  12.356
40844W        W  105  23.205  37.510  13.427
40845W        W  106   5.693  40.548   0.806
40846W        W  107  25.481   3.260  11.955
40847W        W  108  41.314  16.663  10.944
40848W        W  109  28.982  18.063   4.687
40849W        W  110   0.334  18.719   3.757
40850W        W  111  38.460   4.827  14.891
40851W        W  112   9.373   4.794   2.254
40852W        W  113  37.022   0.904   1.870
40853W        W  114  42.514  12.122   1.440
40854W        W  115  29.114  38.859  14.294
40855W        W  116  27.596  26.159   9.548
40856W        W  117  38.908  31.511  11.449
40857W        W  118  27.096  35.402  11.874
40858W        W  119  26.539  29.002   3.301
40859W        W  120  36.575  23.055  11.581
40860W        W  121  10.224  11.867  14.935
40861W        W  122  44.908   7.791   4.321
40862W        W  123  10.836   8.396   3.645
40863W        W  124   0.831  33.997  14.421
40864W        W  125   9.881  42.949   4.299
40865W        W  126  44.918  24.685  14.313
40866W        W  127  32.520  23.692   3.340
40867W        W  128  15.122  32.078  11.117
40868W        W  129   5.209   2.420  12.010
40869W        W  130   2.282  36.097   0.426
40870W        W  131  42.448  34.962  13.893
40871W        W  132  21.591   0.477  13.884
40872W        W  133  10.780  18.226   4.289
40873W        W  134  32.942  35.579  13.832
40874W        W  135  19.655  34.548  13.874
40875W        W  136  32.557  39.357  11.567
40876W        W  137  44.311  20.601  12.343
40877W        W  138  14.835  42.947  12.411
40878W        W  139  28.148  19.239   1.271
40879W        W  140  18.214   0.811  13.051
40880W        W  141  37.582  40.866  12.868
40881W        W  142  27.561   9.341  14.876
40882W        W  143   9.154  12.617  14.365
40883W        W  144   6.785  13.618  13.325
40884W        W  145  13.187  41.392  10.414
40885W        W  146  26.602  41.498   1.799
40886W        W  147  44.935   6.369  13.901
40887W        W  148  23.233   3.357  13.352
40888W        W  149  18.767  19.617  14.346
40889W        W  150   9.164  19.746  12.906
40890W        W  151  11.829  36.922  14.458
40891W        W  152  19.113  18.738  14.841
40892W        W  153   7.895  39.558  13.434
40893W        W  154  16.593  21.219  10.504
40894W        W  155  27.974  44.833   3.316
40895W        W  156  43.289  21.151  13.882
40896W        W  157   9.324   0.451   1.820
40897W        W  158   4.318  32.100   4.161
40898W        W  159  19.643  18.791   1.320
40899W        W  160  36.076   9.812  14.808
40900W        W  161   5.835  15.284   3.824
40901W        W  162  35.517  10.743  12.947
40902W        W  163   8.267  33.936   2.327
40903W        W  164   8.742  39.972  13.949
40904W        W  165  17.240  10.329   2.771
40905W        W  166  36.024  23.060  11.578
40906W        W  167   2.343  19.250  12.019
40907W        W  168  33.536  41.948   3.361
40908W        W  169   4.429  40.922   4.666
40909W        W  170  39.814  42.819  12.914
40910W        W  171   4.758  28.144   2.708
40911W        W  172  30.591  32.614  12.356
40912W        W  173  11.863   4.214  14.978
40913W        W  174   8.807  26.200   3.782
40914W        W  175  27.538  31.095  13.799
40915W        W  176  19.229  17.250  11.608
40916W        W  177   1.936  29.438   4.131
40917W        W  178  42.484   9.746  12.499
40918W        W  179  28.526   5.386   3.719
40919W        W  180  28.614  18.586   3.224
40920W        W  181  34.517   6.299   4.778
40921W        W  182  24.656   3.756   4.770
40922W        W  183   3.327  37.883   4.683
40923W        W  184  19.089  29.668  14.292
40924W        W  185  17.603  29.047   2.891
40925W        W  186  27.999   0.782   2.356
40926W        W  187  22.717  11.241  13.547
40927W        W  188  11.635   9.768   3.784
40928W        W  189   7.894   0.827   3.379
40929W        W  190   5.846   0.954  14.305
40930W        W  191  11.805  29.526  14.014
40931W        W  192  20.151  41.883   2.778
40932W        W  193   9.850   1.421   4.836
40933W        W  194  29.619  18.790  11.872
40934W        W  195  31.916  43.324  14.974
40935W        W  196  29.487  18.618   4.206
40936W        W  197  19.285  22.230  14.975
40937W        W  198   7.750   1.927  14.501
40938W        W  199  14.129  33.013  13.461
40939W        W  200  26.166  38.425  14.291
40940W        W  201   0.316  17.691  11.554
40941W        W  202  15.754  20.652  11.901
40942W        W  203   5.438   3.266   1.350
40943W        W  204  22.524  14.770   0.940
40944W        W  205  38.543  40.490  14.940
40945W        W  206  15.330   8.714   3.324
40946W        W  207  30.061  18.559  13.411
40947W        W  208  15.243  40.852  12.433
40948W        W  209  21.524  34.462  12.030
40949W        W  210  11.148  12.294   3.334
40950W        W  211  33.546   0.817   3.862
40951W        W  212  39.488  40.043  13.819
40952W        W  213  40.497  24.087   0.935
40953W        W  214  26.661  25.153   9.973
40954W        W  215  30.509  38.985   5.231
40955W        W  216  17.156  39.895  13.326
40956W        W  217  18.754  10.240   0.858
40957W        W  218  40.496  44.888  14.928
40958W        W  219  34.491  18.544   3.321
40959W        W  220  28.546  18.149  14.361
40960W        W  221  11.321  24.176  13.320
40961W        W  222  37.546  35.979  14.328
40962W        W  223  12.325  39.533  11.600
40963W        W  224  12.829  18.721   4.636
40964W        W  225   4.433  34.565  14.380
40965W        W  226  39.520  20.732   1.749
40966W        W  227  11.340  19.634   0.737
40967W        W  228  10.359  26.591  11.546
40968W        W  229  17.605  28.085  13.401
40969W        W  230  20.730   5.343  11.585
40970W        W  231   2.864  31.518  13.968
40971W        W  232   2.409  36.072   1.901
40972W        W  233  19.710  21.089  13.444
40973W        W  234  27.103   9.727  12.887
40974W        W  235  10.212  28.038   0.401
40975W        W  236  35.444  16.224   1.754
40976W        W  237   4.935  17.718  13.513
40977W        W  238   8.162  32.516  14.790
40978W        W  239  32.463   0.454   4.306
40979W        W  240  22.031  16.588  14.320
40980W        W  241  11.827  44.877   1.887
40981W        W  242  23.597   4.303  14.965
40982W        W  243  14.787  39.034  13.507
40983W        W  244  36.058  25.993  12.470
40984W        W  245   4.372  21.040   3.776
40985W        W  246  23.132   5.930   1.279
40986W        W  247   9.201   2.788   5.578
40987W        W  248  39.560  39.435  10.498
40988W        W  249  19.277  34.589  14.897
40989W        W  250  18.692  37.513  11.861
40990W        W  251  11.671  42.410   0.317
40991W        W  252  16.284   0.314  10.945
40992W        W  253   5.372  24.045   0.337
40993W        W  254  31.573  11.674   3.371
40994W        W  255  18.655  32.985  11.894
40995W        W  256  22.150  13.819   2.796
40996W        W  257  42.951  14.231  11.591
40997W        W  258  10.292   9.202   3.782
40998W        W  259   9.280  13.182   0.949
40999W        W  260  15.651   8.160   0.772
41000W        W  261  17.214   1.786  12.915
41001W        W  262   4.828  21.168   2.235
41002W        W  263  29.456  25.598   4.154
41003W        W  264  39.427  27.978  11.916
41004W        W  265  23.121  40.506  14.502
41005W        W  266  10.244  24.627   2.339
41006W        W  267   1.861  17.239   4.177
41007W        W  268  37.452  28.013  10.458
41008W        W  269  43.481   9.354  11.578
41009W        W  270   0.394  19.133  14.331
41010W        W  271  26.692  38.343   3.284
41011W        W  272  29.130  40.393   4.118
41012W        W  273  20.668  24.132  13.457
41013W        W  274   1.429  31.072  13.989
41014W        W  275   2.239  17.202   1.764
41015W        W  276  10.873  31.914   0.877
41016W        W  277  18.126   0.377  10.927
41017W        W  278  38.498  13.216   2.401
41018W        W  279  16.602  32.544   2.827
41019W        W  280  30.161   4.889  13.875
41020W        W  281  16.643  38.977   4.670
41021W        W  282  35.870   3.233  14.931
41022W        W  283   1.796  18.719   2.790
41023W        W  284  29.453   9.866   3.279
41024W        W  285  22.637  40.325   0.403
41025W        W  286   0.754  21.602   3.185
41026W        W  287   5.331  36.888   0.344
41027W        W  288   5.305   4.301  14.308
41028W        W  289  16.267  20.556  13.006
41029W        W  290  39.923  10.692   3.232
41030W        W  291  10.829  43.359   0.414
41031W        W  292   5.932  21.076  11.001
41032W        W  293   8.770   9.350   0.422
41033W        W  294  23.736  25.091   2.801
41034W        W  295  24.059  20.274   2.738
41035W        W  296  36.019  24.186   1.754
41036W        W  297  18.107   6.716  13.490
41037W        W  298  40.011  16.306  13.887
41038W        W  299   9.717  18.260  13.795
41039W        W  300  18.734  34.445   2.695
41040W        W  301  34.091  35.498  12.373
41041W        W  302  36.545  34.036  12.384
41042W        W  303  32.942  43.385  12.561
41043W        W  304  23.217  14.183  14.287
41044W        W  305  32.931  25.502  14.380
41045W        W  306   9.741   5.367  10.447
41046W        W  307  15.240  21.133  13.843
41047W        W  308  44.818  20.754   0.776
41048W        W  309  36.433  31.095   1.407
41049W        W  310   4.710  13.201   1.355
41050W        W  311  43.377  30.451   1.735
41051W        W  312  28.111  20.750  12.545
41052W        W  313  34.924   3.250   1.414
41053W        W  314   4.424   3.820   2.771
41054W        W  315  31.938   1.293  11.568
41055W        W  316  21.239  44.883  12.454
41056W        W  317  40.018  24.027  13.310
41057W        W  318  39.048  18.107   0.265
41058W        W  319  30.954  24.204   4.759
41059W        W  320  41.899  33.464  13.419
41060W        W  321  25.138   4.313   1.328
41061W        W  322  44.326  23.132   2.306
41062W        W  323   5.243  29.135  11.919
41063W        W  324  10.201  16.231   0.389
41064W        W  325  31.051  29.924  11.907
41065W        W  326  25.467  43.986   3.367
41066W        W  327  32.621  43.511   3.313
41067W        W  328  22.679  36.509  11.966
41068W        W  329  16.629  27.943  13.998
41069W        W  330   3.745   9.375   2.756
41070W        W  331  43.937  20.651  12.081
41071W        W  332  24.690  30.919  11.125
41072W        W  333  14.633  11.169   9.934
41073W        W  334  42.443  44.376   1.871
41074W        W  335  23.105  34.932   4.727
41075W        W  336  35.556  34.953  10.111
41076W        W  337  23.136  35.072   2.697
41077W        W  338  12.254  18.235  13.019
41078W        W  339  28.461  15.614  11.075
41079W        W  340  11.815   9.679   4.655
41080W        W  341  28.013   8.296   3.323
41081W        W  342   2.446   0.825   4.749
41082W        W  343  12.361   7.241   3.633
41083W        W  344  34.424  39.432   3.253
41084W        W  345  33.107  19.270   2.258
41085W        W  346  15.702  25.661   2.877
41086W        W  347  15.243   7.241   1.267
41087W        W  348  30.997  26.085   2.779
41088W        W  349  28.674   7.864  11.487
41089W        W  350  18.657   6.373  12.019
41090W        W  351  25.477  16.237   1.744
41091W        W  352  18.119  44.501  14.437
41092W        W  353   8.789  19.692  10.568
41093W        W  354  25.045  33.877  13.340
41094W        W  355  11.856   9.815  10.474
41095W        W  356  38.469  43.419  10.944
41096W        W  357  25.036  17.613   0.847
41097W        W  358  18.158  17.566   1.327
41098W        W  359  32.594  14.254  14.989
41099W        W  360  22.248  39.524   3.348
41100W        W  361  31.978  23.731   3.832
41101W        W  362  23.233  23.111   1.245
41102W        W  363   2.419  32.634   0.452
41103W        W  364   3.766  43.427  14.941
41104W        W  365  31.084  18.092   4.350
41105W        W  366  24.029  18.576   0.260
41106W        W  367  26.206  27.943   1.322
41107W        W  368  11.864  22.627   4.315
41108W        W  369   1.898  15.672   2.199
41109W        W  370  22.621  43.854  14.842
41110W        W  371   5.244   4.878   1.366
41111W        W  372  23.095  18.263  12.469
41112W        W  373  34.062  25.015   0.267
41113W        W  374  42.369  16.260  12.436
41114W        W  375  44.375  20.075   3.778
41115W        W  376  23.073   8.167  11.448
41116W        W  377  21.681  34.009   1.784
41117W        W  378  26.012  39.063   3.313
41118W        W  379   3.223  31.902  11.883
41119W        W  380  21.217  43.973   0.963
41120W        W  381  14.333  34.066   3.820
41121W        W  382  33.094  38.919  13.064
41122W        W  383  29.427  30.033   4.307
41123W        W  384  17.114  35.509  12.961
41124W        W  385  42.492   6.391  10.474
41125W        W  386   1.342  41.368   4.676
41126W        W  387  19.060  31.058   0.743
41127W        W  388  30.633  37.408  14.987
41128W        W  389  23.641  28.064   3.181
41129W        W  390  24.043  38.005   3.211
41130W        W  391  25.505  18.545   4.253
41131W        W  392  14.790  31.966  13.451
41132W        W  393  12.268  41.475  11.088
41133W        W  394  23.516   6.740  12.900
41134W        W  395  23.225  32.076   1.245
41135W        W  396   3.217  19.551   2.215
41136W        W  397  30.536   9.799   2.346
41137W        W  398  14.600   7.288   0.284
41138W        W  399  22.111  41.943   2.743
41139W        W  400   1.366  43.821   1.892
41140W        W  401  34.891  26.172   3.172
41141W        W  402  39.336   1.482  13.959
41142W        W  403  21.527  27.178  13.388
41143W        W  404  34.871  36.551  14.307
41144W        W  405  29.062  10.644  14.843
41145W        W  406  26.113   5.262  13.325
41146W        W  407  43.798  22.085  10.593
41147W        W  408   4.750   2.917  12.017
41148W        W  409  25.548  42.320   4.142
41149W        W  410  28.948  13.227  12.447
41150W        W  411   3.302   0.324  12.074
41151W        W  412  29.046  12.142   4.162
41152W        W  413   9.186   4.352  13.965
41153W        W  414   1.301  25.545   2.706
41154W        W  415  14.198  36.418   4.334
41155W        W  416  16.678  26.639   0.925
41156W        W  417  21.601   1.816  11.128
41157W        W  418  17.713  21.652  11.040
41158W        W  419  42.896  11.670  13.992
41159W        W  420  22.646   6.820  10.483
41160W        W  421   7.235  20.087   1.379
41161W        W  422   5.210   2.788  11.958
41162W        W  423  14.706  22.250  11.063
41163W        W  424  34.898  30.648   3.227
41164W        W  425  34.906  33.880   9.947
41165W        W  426   4.901  11.326  13.888
41166W        W  427  19.105   3.243  11.388
41167W        W  428  14.158   0.313   4.834
41168W        W  429  21.751  25.508  13.917
41169W        W  430   1.295  14.315   2.332
41170W        W  431  21.590  27.001  12.456
41171W        W  432   5.898  24.167   0.403
41172W        W  433  14.599  32.097   3.253
41173W        W  434  43.785  25.055   3.170
41174W        W  435  10.855   6.749  13.509
41175W        W  436   2.827  12.680  14.931
41176W        W  437   3.266  14.828  14.961
41177W        W  438  10.252   3.456  13.010
41178W        W  439  13.177  12.648  13.532
41179W        W  440  29.564  13.118  12.947
41180W        W  441   3.945  34.415  11.129
41181W        W  442  24.677   6.325   3.840
41182W        W  443   5.391  23.509  13.520
41183W        W  444  40.395  31.601   2.675
41184W        W  445   6.874  27.184  12.486
41185W        W  446  12.617  38.547   4.212
41186W        W  447  18.093  29.548   2.873
41187W        W  448  34.483  36.425  14.871
41188W        W  449   8.766   0.744  12.876
41189W        W  450  42.347  42.979  11.128
41190W        W  451  31.053  30.636  14.368
41191W        W  452   6.188  35.383  12.887
41192W        W  453  12.662  11.313   4.172
41193W        W  454  37.455  14.316  12.998
41194W        W  455  25.564  25.594   0.889
41195W        W  456   5.872  17.572  14.014
41196W        W  457   7.188   8.660   3.802
41197W        W  458   0.476  35.501   1.372
41198W        W  459  37.363  42.827  12.444
41199W        W  460  44.321  16.187  11.884
41200W        W  461   3.869   2.918  12.529
41201W        W  462   6.280   9.393  12.555
41202W        W  463  41.004  25.053  13.796
41203W        W  464  37.083   2.958  11.008
41204W        W  465  33.389   0.473  10.013
41205W        W  466  19.595  38.994   4.317
41206W        W  467  12.637  21.742  12.558
41207W        W  468  34.085  39.895   4.193
41208W        W  469  12.797   2.422   2.232
41209W        W  470  22.200  13.341  12.357
41210W        W  471  23.545  23.532  13.962
41211W        W  472   0.945  29.455   3.156
41212W        W  473  37.997  15.642   0.406
41213W        W  474  16.730  16.751  13.895
41214W        W  475  33.131  42.004   3.244
41215W        W  476  26.028  17.273  14.914
41216W        W  477  15.214   0.391   4.171
41217W        W  478  26.001  40.543   2.805
41218W        W  479  17.142  28.092   3.163
41219W        W  480  12.128   0.354   1.450
41220W        W  481  12.293  29.073  11.514
41221W        W  482  37.870   5.872  14.372
41222W        W  483  19.615  24.533   1.913
41223W        W  484  27.043  31.478  14.819
41224W        W  485   3.763  40.020   0.866
41225W        W  486  10.679   7.814  12.886
41226W        W  487  37.473  21.537  12.909
41227W        W  488   7.391  18.171  12.940
41228W        W  489  11.179  22.637  12.005
41229W        W  490  33.495   7.798   9.957
41230W        W  491  27.630  39.811  11.879
41231W        W  492  29.560  30.569  11.891
41232W        W  493  27.168   0.490   0.434
41233W        W  494  37.853   9.270  14.799
41234W        W  495  11.290  34.069   1.757
41235W        W  496  26.973  15.246  14.515
41236W        W  497  41.814  10.365  11.907
41237W        W  498  15.814  16.707  10.951
41238W        W  499  19.155  24.695  14.829
41239W        W  500  38.448   0.444   4.634
41240W        W  501   7.358  10.827  14.983
41241W        W  502  35.098  40.355  13.373
41242W        W  503  29.030  13.161  14.841
41243W        W  504  40.852  35.444  13.827
41244W        W  505  12.812  29.508  13.797
41245W        W  506   2.333  13.685  12.433
41246W        W  507  18.273  16.177  10.524
41247W        W  508  32.089  14.177  10.552
41248W        W  509  25.055  23.532  12.500
41249W        W  510  16.745  44.401  10.634
41250W        W  511  25.178  28.608  11.960
41251W        W  512  36.926  33.877   2.683
41252W        W  513  24.708  16.791  13.513
41253W        W  514  13.123  16.613  14.010
41254W        W  515  14.807   8.359   0.354
41255W        W  516  42.822  25.506   0.263
41256W        W  517  26.561  40.929  14.759
41257W        W  518  34.864  26.127   1.867
41258W        W  519   2.825  20.635  10.913
41259W        W  520  35.563  43.872  12.391
41260W        W  521  39.885  41.517   3.861
41261W        W  522  28.611  34.011  14.981
41262W        W  523  37.375   5.886   3.672
41263W        W  524  28.091  23.575   4.313
41264W        W  525  16.093   9.223   1.794
41265W        W  526  37.942  27.448  14.857
41266W        W  527  40.326  43.934  14.013
41267W        W  528  44.455  24.573   3.343
41268W        W  529   9.208   9.738  10.101
41269W        W  530  26.628   2.342   4.181
41270W        W  531  15.097  27.686   2.897
41271W        W  532  38.893  28.522  12.985
41272W        W  533  38.454   8.703   4.118
41273W        W  534  12.847  19.130  10.552
41274W        W  535  10.804   6.346   2.897
41275W        W  536  36.067  40.441   3.230
41276W        W  537  38.072  16.669   3.660
41277W        W  538   0.391  13.256  12.461
41278W        W  539  18.081  19.082   0.936
41279W        W  540  12.727  38.537  13.854
41280W        W  541   9.172  28.171   2.392
41281W        W  542  23.035  26.597   1.336
41282W        W  543  42.444  35.602  14.449
41283W        W  544  42.853   1.459   3.245
41284W        W  545  10.668   3.368   2.348
41285W        W  546  22.035  14.274  13.971
41286W        W  547  28.501  15.691  13.451
41287W        W  548  30.986  19.164  11.981
41288W        W  549  23.651  41.856  13.878
41289W        W  550  18.627  21.719   4.161
41290W        W  551  23.614  37.947  11.553
41291W        W  552  25.580  35.580   3.220
41292W        W  553  17.711  27.558  12.858
41293W        W  554  15.255  36.379   2.868
41294W        W  555  34.591  38.487   4.287
41295W        W  556  11.200  27.449  13.968
41296W        W  557  31.961  20.076  10.638
41297W        W  558   3.418  22.697  14.480
41298W        W  559  30.117  41.039   4.676
41299W        W  560   1.397  27.967  13.513
41300W        W  561   5.410  13.697   3.275
41301W        W  562  19.600  14.144  13.389
41302W        W  563  13.821  14.169   4.160
41303W        W  564   8.658  14.782   3.242
41304W        W  565   3.713  39.342  11.044
41305W        W  566  39.850   1.744  12.412
41306W        W  567   3.864  36.369  14.415
41307W        W  568  25.681  32.597   3.721
41308W        W  569  15.791  42.411   4.176
41309W        W  570  21.704  23.113  12.577
41310W        W  571  36.982  29.949   2.345
41311W        W  572  37.540   2.364   1.829
41312W        W  573  40.314   7.373   4.126
41313W        W  574  37.554  29.029   4.212
41314W        W  575  24.097  12.306  14.905
41315W        W  576  20.677  16.714  14.839
41316W        W  577  32.604  12.794  10.534
41317W        W  578  24.145  35.387  11.553
41318W        W  579  41.991   2.951  14.486
41319W        W  580  35.397  25.980   4.155
41320W        W  581  38.954  17.587  12.947
41321W        W  582  29.013  43.834  14.492
41322W        W  583  23.703  37.999  14.933
41323W        W  584  42.808   4.714  11.571
41324W        W  585  27.456  10.163  12.019
41325W        W  586  20.635   0.935  10.585
41326W        W  587  33.051  34.378   1.781
41327W        W  588  28.089  15.102   1.292
41328W        W  589  28.937  42.450  11.960
41329W        W  590  35.002   8.703   2.682
41330W        W  591  42.947  33.600  14.805
41331W        W  592  18.739   6.337   3.225
41332W        W  593  16.088   5.348   2.276
41333W        W  594  25.670   5.735  13.003
41334W        W  595  38.401   0.868   1.390
41335W        W  596  25.045   6.396  12.561
41336W        W  597  31.113  30.979   4.272
41337W        W  598  40.339   8.166  10.508
41338W        W  599   0.468  39.553   0.955
41339W        W  600  20.599  37.509  10.550
41340W        W  601  19.578  11.273   4.337
41341W        W  602  27.049  38.820  10.410
41342W        W  603   4.438  40.327  11.915
41343W        W  604  44.930  31.440  13.530
41344W        W  605   1.328   9.251  14.495
41345W        W  606  31.068   7.858   5.169
41346W        W  607  12.751   1.974   1.402
41347W        W  608  18.239  25.712   4.618
41348W        W  609  13.629   3.734  11.944
41349W        W  610  29.586  33.021   0.952
41350W        W  611   3.233  43.378   3.216
41351W        W  612  38.485  28.490   2.848
41352W        W  613  43.431  24.524   4.791
41353W        W  614   3.259  26.103  13.023
41354W        W  615   4.334   4.336  11.589
41355W        W  616  30.635  28.583   4.234
41356W        W  617  43.319  44.834  14.415
41357W        W  618  41.438  43.950  13.310
41358W        W  619   4.220  13.674  14.920
41359W        W  620  26.012  21.192  11.540
41360W        W  621   5.343  12.691  10.515
41361W        W  622  11.331  17.222  14.028
41362W        W  623  33.904  27.653  10.528
41363W        W  624  19.041  27.681  14.481
41364W        W  625  24.005   6.251   4.661
41365W        W  626  26.090  44.988   1.375
41366W        W  627  43.917   2.822   1.915
41367W        W  628  22.747   1.754  10.531
41368W        W  629  37.953  27.537  13.008
41369W        W  630  15.741  25.538  10.896
41370W        W  631  39.061  35.887   2.878
41371W        W  632  26.474   5.235   5.303
41372W        W  633   0.957   1.932  11.012
41373W        W  634   9.686   2.358  12.447
41374W        W  635  25.190  44.501  11.445
41375W        W  636  17.634  42.476  10.443
41376W        W  637   1.436   4.370   4.807
41377W        W  638  26.072   1.454   1.251
41378W        W  639  17.657   0.768  10.615
41379W        W  640   4.901  15.283   2.752
41380W        W  641   0.335  38.905  11.566
41381W        W  642   4.798  42.293   3.255
41382W        W  643  41.317  42.418  14.821
41383W        W  644  12.800  41.843   1.240
41384W        W  645  13.300  35.058   2.788
41385W        W  646  39.941  14.197   1.425
41386W        W  647  11.272  14.127   0.391
41387W        W  648  16.641  41.800  10.512
41388W        W  649   5.779  21.192  10.635
41389W        W  650  39.011  38.975  10.454
41390W        W  651   5.881  14.590   3.711
41391W        W  652  26.480   6.850   3.821
41392W        W  653  39.547  43.411  12.998
41393W        W  654  39.849  20.221  14.417
41394W        W  655  20.587  23.509  10.160
41395W        W  656  20.055  25.580   3.699
41396W        W  657   2.757  35.490  14.930
41397W        W  658  32.489  24.633  12.515
41398W        W  659  30.075  27.690   3.802
41399W        W  660  29.130  29.127   3.744
41400W        W  661  10.689  23.510   2.714
41401W        W  662  16.778   2.407   4.649
41402W        W  663  10.671  30.917   4.678
41403W        W  664  14.123  38.475  12.524
41404W        W  665  34.007  26.699  10.516
41405W        W  666  23.226  12.170   2.269
41406W        W  667  36.540   8.751  12.831
41407W        W  668  35.448   8.260  11.568
41408W        W  669  37.072  13.276   1.325
41409W        W  670   3.302   3.936  13.946
41410W        W  671  21.719  25.184   2.324
41411W        W  672   6.730  42.831   1.445
41412W        W  673  25.686  27.557   1.384
41413W        W  674   6.895  16.723  10.614
41414W        W  675   5.363  29.131  12.501
41415W        W  676  22.115   8.342  10.438
41416W        W  677  15.796  28.532  13.427
41417W        W  678  19.094  26.470   3.203
41418W        W  679  43.330  29.515   4.788
41419W        W  680   8.713  15.690  10.427
41420W        W  681  17.269  20.551  13.536
41421W        W  682  34.943  35.965   5.159
41422W        W  683  30.147  28.081   4.814
41423W        W  684  24.530   9.219  11.066
41424W        W  685  28.987  32.074   2.688
41425W        W  686  15.136   4.325   3.278
41426W        W  687  14.150  35.052  13.489
41427W        W  688   0.915   4.446  11.104
41428W        W  689  40.956   3.352  12.870
41429W        W  690  29.468   9.194   3.733
41430W        W  691  35.035  30.462  13.475
41431W        W  692  11.664  28.446  11.610
41432W        W  693  27.138  20.588   4.774
41433W        W  694  29.477  13.770  14.853
41434W        W  695  36.397  40.844  13.825
41435W        W  696  30.054  17.739   4.156
41436W        W  697  29.955   5.215   4.816
41437W        W  698  26.546   9.182  12.962
41438W        W  699  37.878   1.739   4.312
41439W        W  700  12.253   8.669  11.965
41440W        W  701  39.370  21.143   2.794
41441W        W  702  41.309   0.876   2.879
41442W        W  703  32.538  42.872  14.434
41443W        W  704   0.803   7.878  12.987
41444W        W  705  22.122  24.507   2.767
41445W        W  706  33.450  43.427  14.797
41446W        W  707  17.637  31.006   5.205
41447W        W  708  12.144  36.554  12.370
41448W        W  709  39.032   9.744   2.787
41449W        W  710   7.219   1.419  12.835
41450W        W  711   2.278   0.326  14.016
41451W        W  712   0.801   8.382  14.792
41452W        W  713   6.884  42.517  14.784
41453W        W  714   6.244  30.064  14.957
41454W        W  715  30.091  36.518  14.488
41455W        W  716  35.552   6.813   2.775
41456W        W  717  20.578  15.786   2.389
41457W        W  718  15.685  27.509  12.341
41458W        W  719   3.391  23.653  10.458
41459W        W  720  29.627  34.919   2.223
41460W        W  721  12.318  27.027   3.844
41461W        W  722  36.547  40.924   4.161
41462W        W  723  27.616   8.676   5.283
41463W        W  724  24.218   9.799   0.258
41464W        W  725  18.566   9.698  12.365
41465W        W  726  26.535  14.148   1.297
41466W        W  727  43.503   9.772   3.196
41467W        W  728   4.768  17.786   3.205
41468W        W  729  42.967  20.752  10.531
41469W        W  730  19.669  44.894   2.372
41470W        W  731  22.195  19.680  12.384
41471W        W  732  36.990  13.751   4.698
41472W        W  733   3.350   2.381  13.532
41473W        W  734  33.496   4.356   3.363
41474W        W  735  29.048  30.147   3.781
41475W        W  736  30.151  16.185  11.069
41476W        W  737   0.914  41.792  11.072
41477W        W  738  22.205   8.709   1.257
41478W        W  739  14.790  20.095   0.351
41479W        W  740  18.643  18.214   5.185
41480W        W  741  40.485  32.128  12.070
41481W        W  742  11.808  15.713   4.222
41482W        W  743  41.860   6.219  11.080
41483W        W  744   6.747  18.284  13.918
41484W        W  745  22.107  28.573   1.316
41485W        W  746  36.952  23.116  14.987
41486W        W  747  32.992  28.106  11.403
41487W        W  748   3.222  33.585   4.712
41488W        W  749  21.174  34.962   2.697
41489W        W  750  23.722  24.152   3.330
41490W        W  751   4.419  43.356   2.325
41491W        W  752  34.532  10.817   3.680
41492W        W  753  43.015  20.587  13.529
41493W        W  754   8.871  33.611   2.705
41494W        W  755   6.301  21.174  12.958
41495W        W  756  37.872  41.291  14.414
41496W        W  757  22.592  39.991   3.174
41497W        W  758  22.077  43.810   3.792
41498W        W  759  43.900  29.034   2.390
41499W        W  760  35.467  12.146  11.046
41500W        W  761  22.503  21.714  12.944
41501W        W  762  38.870   3.225   1.345
41502W        W  763   1.388  12.682   1.420
41503W        W  764   6.250  41.422   4.718
41504W        W  765  19.744  21.675   0.792
41505W        W  766   5.422   0.268  14.906
41506W        W  767  44.306  18.602   3.771
41507W        W  768  29.944  18.737   4.201
41508W        W  769  36.427  43.458  13.479
41509W        W  770  10.173   4.313  14.949
41510W        W  771  38.570  36.429   0.422
41511W        W  772   1.463   2.804  13.903
41512W        W  773   5.354   9.733   4.666
41513W        W  774  36.917   7.258   1.813
41514W        W  775  23.090  13.154   1.812
41515W        W  776  36.361  23.687  12.002
41516W        W  777  44.487  43.842  10.534
41517W        W  778  33.390  25.975   0.861
41518W        W  779  39.376  24.606   3.336
41519W        W  780   1.787  31.535  11.027
41520W        W  781  25.660  13.331  11.054
41521W        W  782  28.676  34.471   3.784
41522W        W  783  11.322  23.687  10.494
41523W        W  784  42.471  27.535   3.295
41524W        W  785   0.863  33.014   0.427
41525W        W  786  13.640  38.541  12.537
41526W        W  787  36.044  34.572  14.868
41527W        W  788  33.445  35.058   1.711
41528W        W  789  24.545   1.382  11.432
41529W        W  790  43.932  23.084  11.553
41530W        W  791   8.221  36.945  13.340
41531W        W  792  43.922  40.463   4.764
41532W        W  793  37.937   8.785  12.395
41533W        W  794  18.707   5.241  14.311
41534W        W  795  25.043  32.961  13.457
41535W        W  796  20.621   5.848   0.412
41536W        W  797   1.838  36.850   4.757
41537W        W  798   0.951   6.417  14.802
41538W        W  799   2.314  40.461   0.381
41539W        W  800  17.589  41.438  12.876
41540W        W  801   9.180  16.251  11.547
41541W        W  802   0.360  13.283   4.663
41542W        W  803   2.444  43.374   4.308
41543W        W  804  25.110  20.655  12.982
41544W        W  805   7.415  28.512   1.385
41545W        W  806  23.148  24.017   4.756
41546W        W  807  14.151  10.314  10.407
41547W        W  808   7.329  13.111   4.723
41548W        W  809  42.902   4.823  13.383
41549W        W  810  44.355   8.405  14.393
41550W        W  811  26.665  28.072  14.449
41551W        W  812  26.026  30.955  12.089
41552W        W  813  24.587  11.341   3.650
41553W        W  814  18.215  35.509  14.847
41554W        W  815  11.240  37.867   2.816
41555W        W  816  33.914   6.846   1.270
41556W        W  817   5.341  34.953  12.841
41557W        W  818  34.988   6.238   4.278
41558W        W  819  37.538  42.990   5.793
41559W        W  820  38.540  44.478  11.886
41560W        W  821  25.169   0.252   0.416
41561W        W  822  22.683  39.868  12.831
41562W        W  823  35.884  40.331   4.693
41563W        W  824  32.890  18.201   0.774
41564W        W  825   3.945  32.098   4.740
41565W        W  826  19.755  29.533  11.596
41566W        W  827  35.443  11.849   3.800
41567W        W  828  16.264  42.987   2.246
41568W        W  829  35.909  12.158  11.978
41569W        W  830  38.872  20.140   4.240
41570W        W  831   0.300  20.134   4.247
41571W        W  832  44.460  32.427  10.439
41572W        W  833  17.088  19.762  12.580
41573W        W  834   4.877  23.535   4.125
41574W        W  835  18.738   8.211   0.842
41575W        W  836  44.843  10.180   3.212
41576W        W  837   1.379  38.478  12.855
41577W        W  838  34.977  29.958  14.908
41578W        W  839  21.530  28.064   2.743
41579W        W  840  23.526  14.704   2.890
41580W        W  841  25.204  34.870  14.473
41581W        W  842  32.594   4.739   5.122
41582W        W  843   5.925  38.493   1.256
41583W        W  844  30.070  18.188  14.880
41584W        W  845  31.467   5.200  14.446
41585W        W  846  16.094  42.491   0.764
41586W        W  847  22.219   1.368  14.960
41587W        W  848  22.570  41.338   1.260
41588W        W  849  33.948   9.267   0.890
41589W        W  850  11.851  13.183   2.392
41590W        W  851  40.525  13.317  13.890
41591W        W  852  35.074  17.091  12.845
41592W        W  853   3.360  31.596   4.793
41593W        W  854  12.349  31.406   3.148
41594W        W  855  34.100  43.988   9.578
41595W        W  856  38.860   0.367   0.759
41596W        W  857  28.453  22.107   1.244
41597W        W  858   1.277  24.520  13.535
41598W        W  859  27.133   0.840  10.621
41599W        W  860  38.867  26.988  14.003
41600W        W  861  42.852  36.061   3.327
41601W        W  862  14.592  24.511  13.958
41602W        W  863  24.014  36.555   1.829
41603W        W  864  36.403   9.395   3.790
41604W        W  865  40.890   5.932   2.328
41605W        W  866  37.850  32.555   1.827
41606W        W  867  34.475  20.731  11.521
41607W        W  868  44.475  38.361   1.791
41608W        W  869  29.057  40.436   3.289
41609W        W  870  43.885  22.640   4.116
41610W        W  871  28.977  24.169  14.943
41611W        W  872   1.256  22.547   2.741
41612W        W  873  11.706   6.208   0.922
41613W        W  874  11.830  23.132   3.302
41614W        W  875  22.596  42.789   4.143
41615W        W  876   2.419  25.696  12.096
41616W        W  877  12.758  34.553   4.835
41617W        W  878  36.381  31.641  12.372
41618W        W  879  11.343   9.224   3.728
41619W        W  880  27.137  27.680   2.418
41620W        W  881  13.228  14.319   1.860
41621W        W  882  13.270   5.924  14.883
41622W        W  883   9.683   2.332  11.927
41623W        W  884  27.034  37.947   0.475
41624W        W  885   3.253  31.418   3.176
41625W        W  886   8.672   2.773  13.965
41626W        W  887  14.112  38.337   0.918
41627W        W  888  25.977  44.906  11.400
41628W        W  889  42.290   1.261   1.292
41629W        W  890  30.471  15.253   2.178
41630W        W  891  34.111  10.344  12.574
41631W        W  892   9.709  26.117   0.304
41632W        W  893  15.193  32.912  13.370
41633W        W  894   3.746  17.740  11.041
41634W        W  895  15.602  10.717   2.841
41635W        W  896  19.596   8.321  14.358
41636W        W  897  32.444  21.080  13.034
41637W        W  898  14.162   3.444   1.821
41638W        W  899  41.930  38.024  14.007
41639W        W  900  40.537  24.188  12.891
41640W        W  901  13.217  15.319   1.420
41641W        W  902   3.835  22.524  11.088
41642W        W  903   0.898  14.109  10.427
41643W        W  904  22.707  44.484   0.903
41644W        W  905  29.075   8.317   4.749
41645W        W  906  39.412  44.798  12.573
41646W        W  907  28.152  29.015  13.970
41647W        W  908  17.157  32.942  12.478
41648W        W  909  27.010   4.739  14.319
41649W        W  910  18.569  44.927   4.678
41650W        W  911   0.964  11.835   1.757
41651W        W  912  29.941  12.225   0.952
41652W        W  913  14.258  42.919   1.369
41653W        W  914  41.383  36.989  11.869
41654W        W  915  14.096  25.592  12.860
41655W        W  916  38.515  33.593   2.755
41656W        W  917  17.721  19.779  12.573
41657W        W  918  16.669   4.266  10.889
41658W        W  919   7.814  35.459   2.279
41659W        W  920  23.189  13.249  12.346
41660W        W  921  44.380  11.819   1.259
41661W        W  922   5.427  29.921  10.953
41662W        W  923   4.369   5.900   4.652
41663W        W  924  25.493  44.370   4.625
41664W        W  925  29.175   0.873  11.600
41665W        W  926  19.604   7.395  14.461
41666W        W  927  42.297   3.440   1.719
41667W        W  928  15.790  20.128  13.406
41668W        W  929   8.657  26.187   4.728
41669W        W  930  34.462  11.363  11.435
41670W        W  931  18.258  25.684  11.542
41671W        W  932  29.131  16.720   4.225
41672W        W  933  27.047   0.809  14.949
41673W        W  934  18.147  43.498   3.167
41674W        W  935   0.397  32.006  12.032
41675W        W  936   3.909  22.559  14.281
41676W        W  937  14.324  31.517   4.657
41677W        W  938   4.918   0.948  13.527
41678W        W  939   7.697   6.350  12.091
41679W        W  940  16.615  16.199   1.397
41680W        W  941  17.280  12.135   3.832
41681W        W  942  16.689  38.431  11.378
41682W        W  943  14.335  19.244  12.355
41683W        W  944  43.867   9.831  12.038
41684W        W  945   5.859  22.721   4.157
41685W        W  946  43.865   3.817   1.703
41686W        W  947  43.478  23.631   4.223
41687W        W  948  15.205  27.644   3.662
41688W        W  949  34.594  34.011   2.717
41689W        W  950  32.400  11.790  12.874
41690W        W  951  23.727  42.813   4.168
41691W        W  952  37.980  34.967   3.343
41692W        W  953  18.625  42.812  14.390
41693W        W  954  33.079   6.293   3.274
41694W        W  955  27.533  26.571  12.080
41695W        W  956  44.333  10.747  11.100
41696W        W  957  38.013   5.892   4.700
41697W        W  958  10.714  40.903  11.440
41698W        W  959  37.941  30.079   2.393
41699W        W  960   0.397  13.825  14.776
41700W        W  961  35.407  29.583   1.865
41701W        W  962  24.167  36.069   1.769
41702W        W  963   5.792  24.005  12.558
41703W        W  964  36.983   3.263   2.209
41704W        W  965  19.661   7.684   5.146
41705W        W  966  36.561   0.842  14.407
41706W        W  967  44.935   1.969   3.856
41707W        W  968  30.104  40.019  10.453
41708W        W  969  12.210   4.212   1.229
41709W        W  970   5.383   2.863   0.395
41710W        W  971  25.626   6.923   2.894
41711W        W  972  22.010  43.993   3.326
41712W        W  973  15.670  40.303   0.917
41713W        W  974  27.591  10.738   1.922
41714W        W  975  18.057   5.345  14.497
41715W        W  976  25.019  42.481   3.293
41716W        W  977  17.254  34.518   2.711
41717W        W  978  44.813  35.086   1.877
41718W        W  979  25.477  18.070   1.818
41719W        W  980  26.630  20.523   4.716
41720W        W  981   0.744  42.300   4.786
41721W        W  982  41.038  41.874  12.929
41722W        W  983  22.009  41.907   0.942
41723W        W  984   7.399  42.392  13.436
41724W        W  985  34.533  43.380   0.857
41725W        W  986  14.321   8.735   2.737
41726W        W  987  30.500  28.113  14.302
41727W        W  988  24.133  25.618  13.393
41728W        W  989   0.854   9.286   3.777
41729W        W  990   0.466   1.416  14.986
41730W        W  991  21.567   9.691  11.565
41731W        W  992  10.260   9.794   3.686
41732W        W  993  40.341   7.760   3.714
41733W        W  994  30.983   0.924  11.557
41734W        W  995   9.280  39.822   2.237
41735W        W  996  27.648   2.871   4.156
41736W        W  997  40.910  17.779  11.385
41737W        W  998  19.221   1.890  11.915
41738W        W  999  12.678   3.854  14.393
41739W        W 1000  44.801   3.241  10.927
41740W        W 1001   1.362  38.450  11.102
41741W        W 1002  16.223  10.667   3.262
41742W        W 1003  24.715   8.315   2.811
41743W        W 1004   4.445  43.422  13.506
41744W        W 1005  38.466  40.531  10.517
41745W        W 1006  18.054  34.934   4.728
41746W        W 1007  41.857  36.851  14.771
41747W        W 1008  16.309  39.556  10.610
41748W        W 1009  13.843  18.606   3.342
41749W        W 1010  14.699  14.282   2.832
41750W        W 1011  25.550   5.926   4.131
41751W        W 1012  43.270  38.342  12.353
41752W        W 1013  11.725  19.195  10.634
41753W        W 1014  33.021   1.791   0.322
41754W        W 1015  13.255   5.378  14.367
41755W        W 1016  14.677  25.066   1.751
41756W        W 1017  10.671  24.648  12.892
41757W        W 1018   8.831  16.720   4.279
41758W        W 1019  16.754  38.997   2.866
41759W        W 1020   7.712  32.397  13.316
41760W        W 1021  41.918  32.456   3.755
41761W        W 1022  25.517  26.548  13.337
41762W        W 1023  34.868   8.891  12.473
41763W        W 1024  42.334  39.006   9.960
41764W        W 1025  18.082   8.357   2.340
41765W        W 1026   4.240  30.138   3.287
41766W        W 1027  25.163  28.647   2.336
41767W        W 1028  28.534   2.264  13.007
41768W        W 1029  12.158   2.468  10.452
41769W        W 1030  14.241  32.071  11.093
41770W        W 1031  24.075  27.538  14.022
41771W        W 1032  35.888   4.361  13.417
41772W        W 1033   3.392  31.941  13.524
41773W        W 1034   5.394  17.706   0.362
41774W        W 1035  31.099  31.143   1.287
41775W        W 1036  19.538  37.961  13.417
41776W        W 1037  19.621   0.952   1.303
41777W        W 1038  12.117  42.463  14.337
41778W        W 1039  44.337  14.103   3.707
41779W        W 1040  27.449   5.881  11.383
41780W        W 1041   6.748  22.226   3.208
41781W        W 1042  16.803   9.697   1.744
41782W        W 1043   0.812  37.427   0.897
41783W        W 1044   1.894  34.966  12.443
41784W        W 1045  38.905  11.161   4.342
41785W        W 1046  21.725  44.895   2.238
41786W        W 1047  38.377  12.201  10.974
41787W        W 1048  18.161   2.876   4.668
41788W        W 1049  44.959  26.624   2.867
41789W        W 1050  12.161  42.904  11.856
41790W        W 1051  17.170  31.900   4.279
41791W        W 1052  12.713   1.896   5.597
41792W        W 1053  35.400  42.920  13.505
41793W        W 1054   6.217  22.540  13.003
41794W        W 1055  11.745  27.162  12.497
41795W        W 1056  39.950  22.198   0.272
41796W        W 1057  41.879   2.755   3.718
41797W        W 1058   7.272   4.235   1.267
41798W        W 1059  25.558  24.665  13.871
41799W        W 1060  34.471  29.001  11.542
41800W        W 1061  36.440  17.710  12.339
41801W        W 1062   3.253  24.999  11.000
41802W        W 1063  41.314   4.699   2.828
41803W        W 1064  22.703   7.279   3.680
41804W        W 1065  10.378  39.829  11.968
41805W        W 1066  32.450  42.399   0.856
41806W        W 1067  40.400  35.541   3.352
41807W        W 1068   7.739  10.699   1.836
41808W        W 1069  40.805  22.633   0.859
41809W        W 1070   5.767  34.422   0.393
41810W        W 1071   5.251  37.517  13.865
41811W        W 1072  37.900  43.964  14.853
41812W        W 1073  31.402  30.950   0.314
41813W        W 1074  35.972  11.622  11.961
41814W        W 1075  21.061  30.626  10.590
41815W        W 1076  25.505  12.854  13.819
41816W        W 1077  28.077   5.732   3.785
41817W        W 1078  25.139   2.331  14.775
41818W        W 1079   1.909   2.300   2.869
41819W        W 1080  27.997  37.952   1.732
41820W        W 1081  21.687  40.054   2.377
41821W        W 1082  33.903  19.693   3.631
41822W        W 1083  27.101  37.019   0.810
41823W        W 1084  44.848   9.722  12.067
41824W        W 1085  14.774  36.076  12.862
41825W        W 1086   8.236   1.926  13.366
41826W        W 1087  37.529  35.437   4.782
41827W        W 1088  34.001  33.925   9.556
41828W        W 1089   4.228  34.956  10.993
41829W        W 1090   6.325  23.078   4.799
41830W        W 1091  12.665  18.230   4.679
41831W        W 1092  15.230  37.364   4.206
41832W        W 1093  33.390  15.215   5.313
41833W        W 1094  23.208  29.083   4.347
41834W        W 1095  25.511  28.066   3.228
41835W        W 1096  29.017  15.696  10.500
41836W        W 1097  24.135   7.401   1.889
41837W        W 1098  28.137  43.332   0.383
41838W        W 1099   4.803  38.823   1.827
41839W        W 1100  29.044  11.675   4.743
41840W        W 1101  12.662  44.276   1.286
41841W        W 1102  33.482  15.621   1.935
41842W        W 1103  28.969  15.779   1.858
41843W        W 1104  23.700   5.762  11.883
41844W        W 1105  24.666  39.003   2.408
41845W        W 1106  35.037  34.071   4.118
41846W        W 1107  16.153  43.803   3.741
41847W        W 1108  22.071  10.857   3.720
41848W        W 1109   5.719  18.131   4.219
41849W        W 1110   7.891  42.490  10.947
41850W        W 1111  14.696   7.297  13.412
41851W        W 1112  41.340  31.426  11.879
41852W        W 1113  38.979  31.983   4.127
41853W        W 1114  13.127  27.497  10.971
41854W        W 1115  16.317  36.982   2.878
41855W        W 1116  24.533  33.540  14.344
41856W        W 1117  39.859   9.691   4.764
41857W        W 1118  25.691   5.331  11.909
41858W        W 1119  44.795  16.592   3.744
41859W        W 1120  40.807  27.983   1.244
41860W        W 1121  29.977  26.562   4.195
41861W        W 1122  19.561  17.162  11.885
41862W        W 1123   0.910  23.075  11.531
41863W        W 1124   8.326  27.086   4.116
41864W        W 1125  32.011   6.810   2.807
41865W        W 1126  22.704  18.070  14.490
41866W        W 1127  21.599  11.818   0.737
41867W        W 1128   8.331  27.112   3.308
41868W        W 1129  37.445  43.770   4.603
41869W        W 1130  16.713   0.366  12.991
41870W        W 1131  25.523   4.737   3.317
41871W        W 1132  30.940  28.563  13.420
41872W        W 1133  44.760  23.621   3.274
41873W        W 1134  15.246  20.106   2.224
41874W        W 1135  37.369  14.811  11.396
41875W        W 1136   5.712  10.363  14.440
41876W        W 1137  41.002  40.853  10.887
41877W        W 1138  23.231  11.227   4.285
41878W        W 1139   9.186   5.220  14.931
41879W        W 1140  19.685   2.351   2.845
41880W        W 1141  25.493  19.282  12.390
41881W        W 1142  23.050   0.341   3.264
41882W        W 1143   1.741   1.320   2.237
41883W        W 1144  35.541   9.847  12.963
41884W        W 1145  33.128  16.758   4.730
41885W        W 1146  27.042  39.919   1.380
41886W        W 1147   5.801  31.429  10.986
41887W        W 1148  39.867  10.845  10.426
41888W        W 1149  42.469  37.445   1.226
41889W        W 1150   4.827   4.795   3.268
41890W        W 1151  40.390  12.317  11.116
41891W        W 1152  19.062  24.557   3.268
41892W        W 1153  11.175  15.195  12.535
41893W        W 1154   7.336  44.003   0.341
41894W        W 1155   1.749  11.746  11.384
41895W        W 1156  12.233  37.388   1.417
41896W        W 1157   6.803  24.522   3.362
41897W        W 1158   6.820   7.875  14.822
41898W        W 1159  31.429   0.355   1.791
41899W        W 1160  44.910   6.416   2.404
41900W        W 1161  41.837  10.243   1.314
41901W        W 1162  31.907  17.259  13.399
41902W        W 1163  19.659  16.581   0.396
41903W        W 1164  30.623  42.801   0.875
41904W        W 1165  44.968  27.683  12.867
41905W        W 1166  20.234  34.938  11.431
41906W        W 1167  28.139  31.626   3.692
41907W        W 1168  15.689  32.606  12.936
41908W        W 1169  28.995  20.568   1.380
41909W        W 1170   1.479  19.650   2.406
41910W        W 1171  40.023   3.779   1.360
41911W        W 1172  43.798  11.806   3.866
41912W        W 1173  20.555   2.801  13.500
41913W        W 1174  21.731   5.384   0.730
41914W        W 1175  42.021  13.284   2.768
41915W        W 1176   3.778  28.133  11.576
41916W        W 1177  26.988  41.337   1.427
41917W        W 1178  22.602  28.441   0.809
41918W        W 1179   3.775   2.288   2.343
41919W        W 1180  22.007  21.168   3.647
41920W        W 1181  19.049  23.509  12.357
41921W        W 1182  33.608   0.458  13.414
41922W        W 1183  36.480   7.666   0.831
41923W        W 1184  23.722  31.035   0.383
41924W        W 1185  43.832  34.046   2.416
41925W        W 1186  25.059  18.774   3.241
41926W        W 1187  23.152  40.502  12.963
41927W        W 1188   7.413  37.524  10.554
41928W        W 1189   2.322   5.790  14.835
41929W        W 1190  17.182  10.157  13.911
41930W        W 1191   6.347  29.585  13.944
41931W        W 1192   5.719   2.398  13.023
41932W        W 1193  20.681  19.263   4.293
41933W        W 1194  40.818  42.871   5.183
41934W        W 1195  27.594  20.219   4.692
41935W        W 1196   2.944  11.722  11.416
41936W        W 1197  17.287  32.951   2.896
41937W        W 1198  17.230   8.328  13.969
41938W        W 1199   6.768  35.963  12.829
41939W        W 1200  40.416  14.742  11.966
41940W        W 1201  30.133  32.406  14.992
41941W        W 1202  35.970  34.932  14.376
41942W        W 1203  17.705  39.034  14.514
41943W        W 1204  12.664  30.454   4.126
41944W        W 1205  31.508  34.076  12.968
41945W        W 1206  44.840  27.482   3.224
41946W        W 1207   2.748  26.095   4.308
41947W        W 1208  37.000  12.353  10.921
41948W        W 1209  17.068  40.335  12.375
41949W        W 1210   1.333  19.221  13.925
41950W        W 1211  22.602  45.000  11.981
41951W        W 1212  21.716  33.481   1.311
41952W        W 1213  43.982   3.434   1.921
41953W        W 1214  39.485  44.494  11.476
41954W        W 1215  38.821   3.430  14.934
41955W        W 1216   1.784   3.739   1.430
41956W        W 1217   9.885  18.604   3.232
41957W        W 1218   3.287   7.669  12.044
41958W        W 1219  38.941  11.160   1.353
41959W        W 1220  20.686  33.482  11.429
41960W        W 1221  43.995  39.500   3.714
41961W        W 1222  36.952  11.365  13.487
41962W        W 1223  24.997  35.562  13.907
41963W        W 1224  14.650  14.257   9.933
41964W        W 1225  14.658  26.176   4.267
41965W        W 1226  35.083  31.550   2.889
41966W        W 1227   9.357   1.814  14.015
41967W        W 1228  19.606  42.346   0.806
41968W        W 1229  16.807  34.605   3.333
41969W        W 1230  38.432  37.391  11.053
41970W        W 1231  42.813  20.674   3.248
41971W        W 1232  10.668  41.787  13.468
41972W        W 1233   2.354  39.381  11.037
41973W        W 1234  24.524  26.557   0.444
41974W        W 1235   7.829  14.713   0.734
41975W        W 1236   8.843  26.098  14.362
41976W        W 1237   9.780  20.272  14.477
41977W        W 1238   0.924  28.468  14.497
41978W        W 1239  40.479  44.904  13.805
41979W        W 1240   4.804  23.652  12.012
41980W        W 1241  29.922  33.012   0.433
41981W        W 1242   4.272  20.098   4.304
41982W        W 1243  37.546  16.112  14.908
41983W        W 1244  12.779  39.494   2.333
41984W        W 1245   5.700  31.441  12.035
41985W        W 1246  37.922   5.863   1.926
41986W        W 1247   7.219  23.661  12.447
41987W        W 1248  29.925   6.859   1.779
41988W        W 1249  31.922  22.033   2.850
41989W        W 1250  32.057  24.035  12.976
41990W        W 1251  18.090  21.670  13.513
41991W        W 1252  26.505  23.017  13.465
41992W        W 1253   3.410  33.389  14.469
41993W        W 1254  18.086  13.249  12.489
41994W        W 1255  29.585  22.245  14.348
41995W        W 1256  44.300  38.328  11.898
41996W        W 1257  37.028   9.779   1.793
41997W        W 1258   6.829  37.527  13.986
41998W        W 1259   7.863  34.001  12.920
41999W        W 1260  26.665  10.683   4.263
42000W        W 1261   6.711  30.123   1.428
42001W        W 1262   9.701  17.102   3.717
42002W        W 1263  21.610  22.744  11.399
42003W        W 1264  10.828  25.102  14.285
42004W        W 1265   0.811  28.041   2.689
42005W        W 1266  34.114  28.175  14.796
42006W        W 1267   7.883   1.456   3.849
42007W        W 1268  42.852   5.406   1.401
42008W        W 1269  35.947   9.241  11.579
42009W        W 1270  21.198  38.894  10.041
42010W        W 1271  12.824   9.358  13.032
42011W        W 1272   7.708  30.648   1.391
42012W        W 1273  15.768  31.636  10.592
42013W        W 1274  39.385  38.908   0.344
42014W        W 1275  25.068   5.734  14.008
42015W        W 1276   2.375  26.479   5.201
42016W        W 1277  40.914  21.163   4.611
42017W        W 1278   7.887  26.038   0.821
42018W        W 1279   0.408   4.810   3.864
42019W        W 1280  14.656  39.939  13.005
42020W        W 1281  29.102  11.219  13.817
42021W        W 1282  19.200  41.971   1.727
42022W        W 1283  33.109  15.762  11.424
42023W        W 1284   2.389  42.408  13.405
42024W        W 1285  12.140  12.127  13.389
42025W        W 1286  23.668  26.956  11.565
42026W        W 1287   9.792   5.719   4.830
42027W        W 1288  32.547   6.229   4.124
42028W        W 1289   0.778  40.967   3.665
42029W        W 1290  10.327  18.193   5.211
42030W        W 1291   4.219   6.400  11.047
42031W        W 1292  44.915  20.136  10.503
42032W        W 1293  24.628   3.407  12.439
42033W        W 1294  31.638   0.393  13.475
42034W        W 1295  20.045  38.955   2.777
42035W        W 1296  37.073   1.760  12.990
42036W        W 1297  38.881  22.504  12.408
42037W        W 1298  32.491  28.632   0.767
42038W        W 1299  19.644  39.426   2.240
42039W        W 1300   8.676   9.239  13.817
42040W        W 1301   4.436  42.896   2.676
42041W        W 1302   9.180  37.345   0.753
42042W        W 1303  18.680  16.175   0.788
42043W        W 1304  33.423   8.856   3.815
42044W        W 1305   5.889   0.474   1.828
42045W        W 1306   3.794   0.472  13.378
42046W        W 1307  28.499  28.614  10.895
42047W        W 1308  24.698  18.697   0.250
42048W        W 1309  32.958  19.630  14.024
42049W        W 1310  43.485  26.985  12.839
42050W        W 1311  33.972   9.835  13.036
42051W        W 1312  25.207  36.480   1.432
42052W        W 1313   7.254   7.301   2.818
42053W        W 1314  39.354  16.091  12.452
42054W        W 1315  13.113  28.647  11.583
42055W        W 1316  28.577  30.088  11.887
42056W        W 1317  34.999   9.330  11.427
42057W        W 1318  15.112  30.078  10.945
42058W        W 1319  27.551  38.895  14.873
42059W        W 1320  32.456  33.041  12.056
42060W        W 1321  25.531  30.100  12.537
42061W        W 1322  40.917  30.970  13.473
42062W        W 1323  43.884  23.168   3.855
42063W        W 1324  30.634  39.388   3.305
42064W        W 1325  15.778   4.870   2.203
42065W        W 1326  32.532  29.614  13.808
42066W        W 1327  40.921  42.919   0.782
42067W        W 1328   0.959  12.328   1.211
42068W        W 1329  21.707  29.061   0.962
42069W        W 1330  16.684  18.212   2.367
42070W        W 1331  44.910  12.235  11.563
42071W        W 1332  20.166   0.895   1.921
42072W        W 1333  35.462  39.439  12.907
42073W        W 1334  40.049  27.183   1.732
42074W        W 1335  35.466   9.841   9.922
42075W        W 1336   2.455  25.096   0.261
42076W        W 1337  11.844   4.710  12.412
42077W        W 1338   1.342  39.918   3.679
42078W        W 1339  16.312   7.886   4.333
42079W        W 1340  32.482  18.223   0.376
42080W        W 1341  12.193   1.900   4.195
42081W        W 1342  39.556  34.544  12.084
42082W        W 1343  17.150  32.547   2.203
42083W        W 1344  12.190   6.833  10.896
42084W        W 1345  37.484  37.471  12.876
42085W        W 1346  21.233  10.238   1.855
42086W        W 1347  10.253   9.173   5.133
42087W        W 1348  27.657  35.089   9.969
42088W        W 1349  39.966   9.699   2.371
42089W        W 1350  12.299   4.336   2.843
42090W        W 1351  33.598  39.043   1.423
42091W        W 1352  25.536  25.484  14.008
42092W        W 1353  30.609  28.037  12.880
42093W        W 1354   0.783  39.909  10.135
42094W        W 1355  43.437   0.310  13.801
42095W        W 1356  12.335  42.337   0.890
42096W        W 1357  22.508  14.602  12.571
42097W        W 1358   5.278   8.181   0.733
42098W        W 1359  28.486  27.478   0.859
42099W        W 1360  11.640   8.696   4.824
42100W        W 1361  43.484  42.481  11.888
42101W        W 1362  40.460  10.171   1.830
42102W        W 1363   4.833  30.022  12.827
42103W        W 1364  39.338  36.853  10.596
42104W        W 1365  39.547  35.565  13.815
42105W        W 1366   3.719  23.120  11.034
42106W        W 1367  41.338  17.286   3.155
42107W        W 1368  15.726  41.934  12.904
42108W        W 1369  29.061  37.976   0.826
42109W        W 1370  33.535  13.201  12.904
42110W        W 1371  24.622   1.806   1.288
42111W        W 1372  10.779   7.407  14.360
42112W        W 1373  14.235  24.192  12.034
42113W        W 1374  44.960  30.048  12.952
42114W        W 1375  14.660   9.807  12.415
42115W        W 1376  30.125  32.953  10.027
42116W        W 1377   6.768  44.277  14.353
42117W        W 1378  26.537  26.202   2.878
42118W        W 1379  26.045  27.572   2.405
42119W        W 1380  24.152   0.436  10.087
42120W        W 1381  19.617  26.200  14.340
42121W        W 1382  37.978   1.465   0.803
42122W        W 1383  27.081   4.866   2.215
42123W        W 1384  15.251  17.639  12.974
42124W        W 1385  22.008  36.897  12.519
42125W        W 1386  20.149  10.795   4.175
42126W        W 1387  25.104  19.261  11.530
42127W        W 1388  23.663   7.182  12.006
42128W        W 1389  18.139  33.498   0.919
42129W        W 1390   9.694  40.009   3.686
42130W        W 1391   3.755  24.997   4.122
42131W        W 1392  12.614  10.821   2.283
42132W        W 1393  25.197  16.711  13.324
42133W        W 1394  12.697   1.926  10.085
42134W        W 1395  30.634   4.350  13.547
42135W        W 1396   1.328  27.074   2.414
42136W        W 1397  16.707   5.274  11.033
42137W        W 1398   9.644  33.520   3.635
42138W        W 1399  33.431  42.293   0.783
42139W        W 1400   4.809  44.838  12.533
42140W        W 1401  43.313   4.763   4.644
42141W        W 1402   1.858  26.687   1.767
42142W        W 1403  23.025  41.811   0.798
42143W        W 1404   8.369   5.305  14.825
42144W        W 1405  34.041  27.183   3.360
42145W        W 1406  33.043  26.158  14.372
42146W        W 1407  41.481  28.000   3.727
42147W        W 1408  42.519  26.590   1.375
42148W        W 1409  42.474  30.455   3.801
42149W        W 1410  18.787  18.058   1.914
42150W        W 1411   2.733  30.958  12.982
42151W        W 1412  20.272  23.120  13.007
42152W        W 1413  15.717  39.491   1.872
42153W        W 1414   8.813   1.971  13.384
42154W        W 1415  41.423  34.561  10.532
42155W        W 1416  40.843  36.587   3.352
42156W        W 1417  26.021  32.139  12.986
42157W        W 1418  44.783  37.375  12.569
42158W        W 1419   9.802  21.122  12.883
42159W        W 1420  16.270  15.584   4.648
42160W        W 1421   6.683  25.586  11.970
42161W        W 1422  30.564  12.122  14.980
42162W        W 1423  34.556  43.843   4.314
42163W        W 1424  11.785   8.842  10.952
42164W        W 1425  23.653  29.061  12.972
42165W        W 1426  33.039  17.586  13.863
42166W        W 1427  39.500  16.620  11.927
42167W        W 1428  18.745  43.990  11.395
42168W        W 1429  29.114  33.119  13.400
42169W        W 1430   5.794  14.645   2.876
42170W        W 1431  21.253  43.393  11.570
42171W        W 1432  27.547  37.078   4.835
42172W        W 1433  23.593  39.431   3.759
42173W        W 1434   7.330  13.722  11.519
42174W        W 1435   6.203  16.200  11.891
42175W        W 1436  11.309  18.160  10.503
42176W        W 1437   7.281  37.420  11.031
42177W        W 1438  10.785   6.341  14.390
42178W        W 1439  13.173   9.825   4.676
42179W        W 1440   5.376  22.098   3.161
42180W        W 1441  20.232  43.828   3.242
42181W        W 1442   6.396  19.110  10.926
42182W        W 1443   7.311  34.538   1.399
42183W        W 1444  23.636  31.515  10.586
42184W        W 1445   1.938  42.473  14.859
42185W        W 1446  39.058   3.239   3.663
42186W        W 1447   7.726  29.146   4.320
42187W        W 1448  24.515  39.937  14.415
42188W        W 1449   1.836  18.133  14.402
42189W        W 1450  18.677  21.250  13.493
42190W        W 1451   7.288  18.632  12.975
42191W        W 1452  19.186  25.568   4.819
42192W        W 1453  26.128  27.969  14.402
42193W        W 1454  24.041   7.404   4.767
42194W        W 1455  35.969  43.803  13.998
42195W        W 1456  39.919   7.200  10.951
42196W        W 1457  24.624  14.656  14.407
42197W        W 1458  34.429  25.061   0.933
42198W        W 1459  44.354   3.887  13.860
42199W        W 1460   6.374  13.680  12.542
42200W        W 1461  30.027  42.984  10.506
42201W        W 1462  24.525  39.420  10.987
42202W        W 1463  15.251  10.703   2.675
42203W        W 1464  33.998  21.583  12.963
42204W        W 1465  23.698  13.141  13.892
42205W        W 1466  20.589  15.729   4.831
42206W        W 1467  27.451  24.696   0.392
42207W        W 1468  26.052   8.291   4.204
42208W        W 1469  18.273   2.332  11.464
42209W        W 1470   1.360  35.398  14.977
42210W        W 1471  28.533  28.154  12.444
42211W        W 1472  35.414  30.943  13.329
42212W        W 1473  42.466  24.566  14.465
42213W        W 1474  10.671  12.638   5.120
42214W        W 1475  13.201  22.206  14.894
42215W        W 1476  30.494  30.110   0.284
42216W        W 1477   7.344   5.205   0.866
42217W        W 1478   6.706  20.698  13.365
42218W        W 1479   8.674   5.704  10.919
42219W        W 1480  38.549  10.165  11.507
42220W        W 1481   4.445  37.856   4.295
42221W        W 1482  31.445   0.431   0.901
42222W        W 1483  29.111  27.688  11.954
42223W        W 1484  29.561  19.055   4.815
42224W        W 1485  12.830  22.667  11.883
42225W        W 1486   0.844  19.561   2.733
42226W        W 1487  43.973  27.996  13.819
42227W        W 1488  19.270   7.690  12.923
42228W        W 1489  35.480   3.864   4.706
42229W        W 1490  17.123   2.271  13.057
42230W        W 1491  28.666  18.052   2.731
42231W        W 1492  20.591  26.597   4.218
42232W        W 1493   6.813  31.451  13.441
42233W        W 1494  44.345  24.016  13.308
42234W        W 1495  32.952  10.686  10.958
42235W        W 1496   0.295  10.294   3.178
42236W        W 1497  39.349   2.331  14.386
42237W        W 1498  11.278  18.578  10.918
42238W        W 1499  26.648   4.944  12.515
42239W        W 1500  33.884  39.907  10.015
42240W        W 1501  12.239   1.839  13.913
42241W        W 1502  42.027   2.913  13.488
42242W        W 1503  23.222  22.670  12.939
42243W        W 1504   3.435  42.795   4.218
42244W        W 1505   3.819  39.901  12.416
42245W        W 1506  22.091  36.054  12.838
42246W        W 1507  34.407  32.585  10.577
42247W        W 1508   3.875  21.086   2.219
42248W        W 1509  41.889  17.579   1.316
42249W        W 1510  26.112   6.289   4.171
42250W        W 1511  27.516  29.162  14.961
42251W        W 1512  18.597   4.298  10.952
42252W        W 1513  10.246  15.288   0.408
42253W        W 1514   9.341  29.484   0.848
42254W        W 1515   7.190   1.346  11.043
42255W        W 1516  32.039  11.258   1.381
42256W        W 1517   6.389  29.657   3.244
42257W        W 1518  13.775  40.411  13.339
42258W        W 1519  35.589   7.295   4.598
42259W        W 1520  10.306  28.136   0.795
42260W        W 1521  19.251  35.590  14.006
42261W        W 1522  26.991  40.817  13.451
42262W        W 1523   1.428  44.761   1.826
42263W        W 1524  30.143  25.532  13.450
42264W        W 1525  35.025  32.960  12.358
42265W        W 1526   3.435  15.770   4.838
42266W        W 1527  14.708  36.471  14.908
42267W        W 1528   1.760  13.783  11.542
42268W        W 1529   4.873   4.791   2.233
42269W        W 1530  26.093  13.179  12.851
42270W        W 1531  39.498   1.470   3.832
42271W        W 1532   0.899  37.070   4.158
42272W        W 1533  26.016  37.383  12.936
42273W        W 1534  27.969  11.783   2.670
42274W        W 1535   8.178  17.108   0.413
42275W        W 1536  16.592  29.146  12.887
42276W        W 1537  10.834  31.605   1.747
42277W        W 1538  43.837   1.446   3.231
42278W        W 1539  18.771  42.391   1.703
42279W        W 1540  40.817  26.560  11.605
42280W        W 1541  37.839  32.580  14.329
42281W        W 1542  24.580   0.918   3.217
42282W        W 1543  17.181  38.536   2.334
42283W        W 1544   4.375  30.470   2.728
42284W        W 1545   3.918  29.634   0.950
42285W        W 1546   1.795  34.961  13.956
42286W        W 1547  32.106   4.745  13.916
42287W        W 1548  44.376  42.830   4.765
42288W        W 1549   5.698  32.929   4.791
42289W        W 1550  25.156  32.119  13.024
42290W        W 1551  16.798  11.235   4.342
42291W        W 1552  34.548  28.605   0.758
42292W        W 1553   9.368  31.911   1.278
42293W        W 1554  30.419  19.044   4.142
42294W        W 1555  28.000  32.024  12.007
42295W        W 1556  30.658  27.594  12.510
42296W        W 1557  32.456  21.220  13.365
42297W        W 1558  29.642  38.476   4.258
42298W        W 1559  35.999  39.849  11.945
42299W        W 1560   7.676   1.740  13.506
42300W        W 1561  16.677  20.664   2.222
42301W        W 1562  20.248  26.090  12.995
42302W        W 1563  18.262   8.170  10.492
42303W        W 1564  10.159  39.876  14.899
42304W        W 1565  44.436  30.061   3.684
42305W        W 1566  43.305  39.838  14.795
42306W        W 1567   7.845  22.624   3.208
42307W        W 1568  21.128  40.380   3.788
42308W        W 1569  42.432   9.201   3.758
42309W        W 1570  40.822  11.862  11.373
42310W        W 1571  43.855   6.425   1.699
42311W        W 1572  19.604  35.024  12.946
42312W        W 1573  34.117  22.718  13.005
42313W        W 1574   6.804  35.376   0.316
42314W        W 1575  11.334  37.396   3.683
42315W        W 1576  35.931   3.432  12.850
42316W        W 1577  23.181  34.414  10.546
42317W        W 1578  24.210  24.567  11.469
42318W        W 1579   7.336  41.827  14.867
42319W        W 1580  18.570   3.451  12.858
42320W        W 1581   8.670  35.944  12.047
42321W        W 1582  27.685  26.664  13.496
42322W        W 1583  31.491  29.425   3.214
42323W        W 1584   1.743  23.115  11.056
42324W        W 1585  27.121  44.333   3.243
42325W        W 1586  34.095   2.789  14.471
42326W        W 1587  12.783  44.867   2.206
42327W        W 1588  26.494  39.532   4.323
42328W        W 1589   7.771  28.969  14.508
42329W        W 1590  40.820  38.405  11.975
42330W        W 1591  31.030  17.624  11.549
42331W        W 1592  12.626  10.721   0.746
42332W        W 1593  20.595  23.003  13.544
42333W        W 1594   9.868   7.190  13.036
42334W        W 1595   3.844  24.088  12.872
42335W        W 1596  24.723  17.581  14.766
42336W        W 1597   9.727  28.526   4.649
42337W        W 1598   4.261   7.689  10.078
42338W        W 1599  43.938  24.186   2.347
42339W        W 1600  38.460  38.954   4.211
42340W        W 1601  36.498   2.793   2.251
42341W        W 1602  27.501   9.367  11.929
42342W        W 1603  17.645  15.100  11.058
42343W        W 1604  37.832  30.628  10.974
42344W        W 1605  37.364  43.384   9.998
42345W        W 1606  30.436  43.431   0.736
42346W        W 1607  41.348  31.922   2.378
42347W        W 1608  42.898   0.353   4.144
42348W        W 1609  41.469  44.907   4.794
42349W        W 1610  36.384  29.979   2.715
42350W        W 1611   4.302   3.451   1.403
42351W        W 1612  20.252  36.567   0.362
42352W        W 1613  22.647  17.741   3.270
42353W        W 1614   4.918  33.435  10.478
42354W        W 1615   5.822   0.983  13.885
42355W        W 1616  12.125  21.092  13.460
42356W        W 1617   5.868   5.434  10.460
42357W        W 1618  22.184  19.207   0.353
42358W        W 1619  39.337  34.111   2.783
42359W        W 1620  33.102  32.923  11.088
42360W        W 1621  29.952   0.918  14.508
42361W        W 1622  24.977  12.146  14.779
42362W        W 1623  34.106  26.646   0.381
42363W        W 1624   6.730  34.063  11.488
42364W        W 1625  22.154  36.010   2.309
42365W        W 1626  38.996   5.227  11.440
42366W        W 1627  19.055   0.843  10.460
42367W        W 1628  31.046  10.175  13.538
42368W        W 1629  24.559   9.194  10.555
42369W        W 1630  12.255   8.752   3.293
42370W        W 1631  26.966  25.168   0.871
42371W        W 1632   6.826  11.186   0.309
42372W        W 1633  39.455  42.952   1.428
42373W        W 1634  19.076  13.153   4.727
42374W        W 1635   7.228  23.558   3.654
42375W        W 1636  32.109  39.840   1.225
42376W        W 1637  42.939   3.377  13.500
42377W        W 1638  36.499  19.264  12.350
42378W        W 1639   2.901  35.085   1.411
42379W        W 1640  14.588  42.307  11.393
42380W        W 1641  29.563  43.858   4.656
42381W        W 1642   4.807  25.672  11.029
42382W        W 1643   3.930  41.334   3.697
42383W        W 1644  39.989   7.715   3.293
42384W        W 1645  35.932  44.922  10.079
42385W        W 1646  18.232  32.094  11.530
42386W        W 1647  36.926  34.902   2.286
42387W        W 1648  26.556  27.118  10.478
42388W        W 1649  12.250  25.012  13.474
42389W        W 1650   8.323  34.112  13.992
42390W        W 1651   8.309  29.137  10.457
42391W        W 1652  29.601  37.865   2.833
42392W        W 1653   8.193   7.892   4.207
42393W        W 1654  21.579   2.815   2.178
42394W        W 1655  36.945  40.963  12.912
42395W        W 1656   2.376   9.201  13.941
42396W        W 1657   9.883  11.337   5.115
42397W        W 1658   9.864  28.570  14.839
42398W        W 1659  13.717  42.323   1.282
42399W        W 1660  12.241   2.421   4.831
42400W        W 1661   4.442  36.952   0.382
42401W        W 1662  14.650  28.652  11.925
42402W        W 1663  25.478  29.170   0.877
42403W        W 1664  43.844  13.145   4.720
42404W        W 1665  35.003   6.730   3.326
42405W        W 1666  18.746   6.391   1.856
42406W        W 1667  37.923  37.538  12.091
42407W        W 1668  15.768   6.881   1.765
42408W        W 1669  28.967   4.397   0.256
42409W        W 1670  28.079  44.263  12.915
42410W        W 1671  23.014  34.969  11.876
42411W        W 1672  15.121  24.662  14.867
42412W        W 1673  34.892  11.635   1.345
42413W        W 1674   4.262  30.470   1.703
42414W        W 1675  37.377  13.781  12.491
42415W        W 1676   8.263   8.264  11.102
42416W        W 1677  17.138   1.260   3.812
42417W        W 1678  19.754  12.273   3.674
42418W        W 1679  20.574  35.513   0.330
42419W        W 1680  16.251  13.788  11.129
42420W        W 1681  11.642  26.977  13.868
42421W        W 1682  29.977  23.997   4.722
42422W        W 1683  16.612  29.452  11.959
42423W        W 1684   1.364   0.804  12.858
42424W        W 1685  32.107  42.359  12.401
42425W        W 1686  12.666  36.856  13.402
42426W        W 1687  21.521   5.718   3.692
42427W        W 1688  14.666  44.935  14.281
42428W        W 1689  10.260  31.597   0.912
42429W        W 1690  28.581  43.406  10.929
42430W        W 1691  36.379   0.846   4.139
42431W        W 1692   9.851   6.887   1.802
42432W        W 1693  32.936  17.647  11.473
42433W        W 1694  27.145  15.764  13.804
42434W        W 1695  33.569  23.585   1.388
42435W        W 1696  18.242  22.544   4.618
42436W        W 1697  11.759   3.410  14.018
42437W        W 1698   7.898   4.375  14.497
42438W        W 1699  44.372  12.209   1.871
42439W        W 1700  30.418  37.375   2.663
42440W        W 1701  12.831  25.146   0.752
42441W        W 1702   4.858  33.589  12.840
42442W        W 1703  38.869  18.550  11.580
42443W        W 1704  38.890  21.217   0.730
42444W        W 1705  44.429  15.322   1.886
42445W        W 1706   3.900  12.204   1.433
42446W        W 1707  29.091  14.755  11.950
42447W        W 1708  37.382  10.639   0.297
42448W        W 1709  44.868  20.036   1.821
42449W        W 1710   7.843  40.961  12.033
42450W        W 1711  22.179  29.467  11.127
42451W        W 1712   3.254  20.034   2.839
42452W        W 1713  18.634  36.579   2.877
42453W        W 1714  26.038  11.707  11.571
42454W        W 1715  43.884  11.688   2.305
42455W        W 1716   4.421  22.589  13.041
42456W        W 1717  20.244   5.297  11.500
42457W        W 1718  37.870  25.505  12.901
42458W        W 1719  31.583  25.975   4.167
42459W        W 1720  19.537  31.153   9.484
42460W        W 1721   9.658  27.068  10.636
42461W        W 1722  21.135   6.748  11.067
42462W        W 1723  37.555   6.846   4.237
42463W        W 1724  31.931  21.250  14.411
42464W        W 1725  34.005   3.370   0.803
42465W        W 1726   0.908  15.604  13.419
42466W        W 1727  38.483  12.307   2.764
42467W        W 1728   2.423  10.326  13.410
42468W        W 1729   9.373   0.871   1.843
42469W        W 1730   7.832  29.079   2.851
42470W        W 1731  40.440  36.390   0.814
42471W        W 1732  17.764  16.615   9.505
42472W        W 1733  14.746  40.834  12.032
42473W        W 1734  43.766  37.423  13.866
42474W        W 1735  26.499  19.114   0.965
42475W        W 1736   3.868  18.162   4.633
42476W        W 1737   2.921  18.661  10.605
42477W        W 1738  14.596  30.043  13.024
42478W        W 1739   4.705  30.509   0.300
42479W        W 1740  39.843   3.713  11.408
42480W        W 1741  35.988  25.694   0.935
42481W        W 1742  23.670   4.833   4.640
42482W        W 1743  38.424  42.502  12.499
42483W        W 1744   7.266  32.095   1.339
42484W        W 1745  18.695  21.564   2.389
42485W        W 1746  11.840  39.950  13.470
42486W        W 1747  44.378   5.793  13.461
42487W        W 1748  14.164   9.304   4.139
42488W        W 1749  27.603   2.799   0.785
42489W        W 1750  33.906  12.704   9.973
42490W        W 1751  30.017  24.589   2.210
42491W        W 1752  39.909  43.991   2.201
42492W        W 1753  32.470  27.475   0.320
42493W        W 1754  29.141  11.249  10.052
42494W        W 1755  33.028  30.563   1.854
42495W        W 1756  38.857  13.269   2.395
42496W        W 1757  12.633   7.700  11.435
42497W        W 1758  16.270  24.679   2.396
42498W        W 1759   0.427  40.896   1.364
42499W        W 1760  14.186  41.299  12.417
42500W        W 1761  28.531   6.362   2.869
42501W        W 1762  10.676  11.308  11.510
42502W        W 1763  14.096  29.532  10.454
42503W        W 1764  14.642  27.609  10.433
42504W        W 1765  32.042   6.745   3.756
42505W        W 1766   8.675  37.546  10.512
42506W        W 1767   1.370  39.913   0.943
42507W        W 1768  12.760  35.060  10.511
42508W        W 1769   8.829  38.345  13.959
42509W        W 1770  23.726  35.568  14.404
42510W        W 1771   5.329  32.450  13.514
42511W        W 1772   5.209  34.004  14.907
42512W        W 1773   3.391  29.169   4.801
42513W        W 1774  37.975  36.984   4.300
42514W        W 1775  14.170  33.071   4.606
42515W        W 1776   0.480  11.168  12.346
42516W        W 1777  32.485  37.486  14.333
42517W        W 1778  34.613  34.002  12.041
42518W        W 1779  18.657   9.383   1.429
42519W        W 1780   5.195  40.024  11.439
42520W        W 1781  39.833  22.689  15.000
42521W        W 1782  39.029   3.285  13.332
42522W        W 1783  30.531  42.320   4.139
42523W        W 1784  27.154  34.488   1.880
42524W        W 1785  31.623  26.680   3.170
42525W        W 1786  41.335   3.396   5.286
42526W        W 1787  32.559  44.844   2.185
42527W        W 1788  40.451  19.755   2.693
42528W        W 1789   3.867  38.476   4.168
42529W        W 1790  13.318  39.501  12.995
42530W        W 1791  29.953   5.778   0.407
42531W        W 1792  12.248  44.401  13.496
42532W        W 1793  40.970  25.207  14.831
42533W        W 1794  39.548  18.726  13.063
42534W        W 1795  11.674  14.292   3.649
42535W        W 1796  31.625  19.644   1.873
42536W        W 1797  33.402  33.968   2.198
42537W        W 1798   4.945  33.956  14.493
42538W        W 1799  14.810   0.272  13.867
42539W        W 1800  41.887  18.123  14.776
42540W        W 1801  40.857   8.392   4.681
42541W        W 1802   7.367  27.634  14.291
42542W        W 1803  33.113  37.983  12.002
42543W        W 1804  39.901  38.432  14.853
42544W        W 1805  26.146   0.310  10.412
42545W        W 1806  36.473  44.378   4.294
42546W        W 1807  37.555  36.023  11.995
42547W        W 1808  15.196  22.538  14.295
42548W        W 1809  40.915  38.521  12.549
42549W        W 1810  43.805  23.633  14.920
42550W        W 1811  35.108  13.337  11.594
42551W        W 1812  40.480  36.855   3.707
42552W        W 1813  30.612  13.611   2.394
42553W        W 1814   3.896  44.971   0.783
42554W        W 1815  23.516  27.583   0.458
42555W        W 1816   1.738  13.820  14.956
42556W        W 1817  14.690  31.934   4.823
42557W        W 1818   7.880  27.522  14.014
42558W        W 1819  31.644  31.605   1.219
42559W        W 1820  19.180  40.377  10.521
42560W        W 1821  39.903  21.045   1.441
42561W        W 1822  30.030  29.532  12.899
42562W        W 1823  44.316  10.234   2.899
42563W        W 1824   1.461  29.045  10.952
42564W        W 1825  29.431  15.665  13.956
42565W        W 1826  31.598  38.540  14.357
42566W        W 1827  43.860  39.039  11.012
42567W        W 1828   2.383  12.840  10.113
42568W        W 1829  42.884  15.319  13.049
42569W        W 1830  20.548  29.475   0.339
42570W        W 1831  27.684  43.782   2.250
42571W        W 1832   2.447  18.745   0.387
42572W        W 1833   4.241  28.982  12.827
42573W        W 1834  38.943  21.641   0.737
42574W        W 1835  17.241  22.659   3.816
42575W        W 1836   9.246  38.364  14.493
42576W        W 1837   4.426  33.129  13.330
42577W        W 1838  41.889  16.284   2.789
42578W        W 1839  12.729  36.431  13.963
42579W        W 1840  44.994  40.349   0.919
42580W        W 1841  15.602  11.165  10.917
42581W        W 1842  12.163   8.698  13.312
42582W        W 1843  34.110   0.796   5.085
42583W        W 1844  40.016  41.814  10.541
42584W        W 1845  30.950  39.859   2.194
42585W        W 1846  35.084  25.105   4.728
42586W        W 1847  32.636   1.889   1.771
42587W        W 1848  21.590   2.871   3.732
42588W        W 1849  26.074   4.746   3.779
42589W        W 1850  18.612  27.954   5.139
42590W        W 1851  23.499  21.262   2.324
42591W        W 1852  21.604  22.133   0.742
42592W        W 1853  36.026  34.074  14.324
42593W        W 1854   9.671  20.251   3.362
42594W        W 1855  33.550   7.402  10.063
42595W        W 1856   7.699  27.519  14.787
42596W        W 1857  30.441  37.400   1.334
42597W        W 1858  24.167  40.827  13.463
42598W        W 1859   6.248   2.936  14.948
42599W        W 1860   7.715  16.719   1.345
42600W        W 1861  33.574   9.374   0.850
42601W        W 1862  14.317  29.928   4.736
42602W        W 1863  27.607   5.304   0.794
42603W        W 1864  13.264  12.357  11.896
42604W        W 1865  14.147  24.718   2.756
42605W        W 1866  35.901  42.952  12.349
42606W        W 1867  27.049  28.083   0.360
42607W        W 1868  27.573   9.778   2.371
42608W        W 1869  27.030  39.331  11.491
42609W        W 1870  17.183   0.878   1.443
42610W        W 1871  13.205   4.816   2.183
42611W        W 1872  25.160  25.126   1.892
42612W        W 1873   0.788  40.416  14.283
42613W        W 1874  31.969  41.414   3.256
42614W        W 1875  27.085   1.331   3.786
42615W        W 1876  38.504  10.342   1.236
42616W        W 1877   4.891  22.696   2.716
42617W        W 1878  22.027  18.739  11.896
42618W        W 1879   1.755  18.689  14.446
42619W        W 1880  17.785  39.496  12.522
42620W        W 1881  35.051  40.419   1.864
42621W        W 1882  28.178  15.254  12.541
42622W        W 1883  18.087   9.822  12.023
42623W        W 1884   4.750   4.809   0.389
42624W        W 1885  30.135   0.870   3.383
42625W        W 1886  27.035  11.624   3.324
42626W        W 1887   0.914  14.339  12.378
42627W        W 1888  35.360  26.618   2.200
42628W        W 1889   2.938   0.984   3.322
42629W        W 1890  25.590  13.176  12.991
42630W        W 1891  34.421  27.508   3.221
42631W        W 1892  37.411  39.524  10.956
42632W        W 1893  33.881  33.600   2.260
42633W        W 1894  10.774  17.802   1.353
42634W        W 1895   7.173  42.415   0.798
42635W        W 1896  43.509   7.862   2.733
42636W        W 1897  32.391  33.877  10.116
42637W        W 1898   3.878  21.668  10.418
42638W        W 1899   9.380  33.077   3.331
42639W        W 1900  39.866  36.076   2.854
42640W        W 1901  38.842  32.409   9.984
42641W        W 1902  11.857   5.913   2.799
42642W        W 1903  16.599  30.145  13.892
42643W        W 1904   0.871  41.524  12.491
42644W        W 1905  20.627  25.015  13.467
42645W        W 1906   2.917  26.153   0.409
42646W        W 1907  43.776  22.122   4.325
42647W        W 1908   5.758  34.593   1.770
42648W        W 1909  29.533  35.440   3.321
42649W        W 1910   3.734  40.319  10.943
42650W        W 1911  34.110  36.414   4.238
42651W        W 1912  19.630  38.489   1.444
42652W        W 1913  29.940  25.631   4.194
42653W        W 1914   8.773  30.437   1.776
42654W        W 1915   1.932  16.233  13.822
42655W        W 1916   7.882  12.709  11.487
42656W        W 1917  12.299  26.987   2.331
42657W        W 1918   3.223   9.807   2.835
42658W        W 1919  12.122  39.932   0.835
42659W        W 1920  42.009  34.522   9.964
42660W        W 1921  40.533  19.161  13.889
42661W        W 1922  30.484  43.841   3.774
42662W        W 1923  13.123  29.987  11.443
42663W        W 1924  24.552  41.932   0.451
42664W        W 1925  37.014  10.320   0.732
42665W        W 1926  43.881  19.144   2.382
42666W        W 1927  15.646  23.673   1.820
42667W        W 1928   8.174  26.457   4.287
42668W        W 1929  26.540   1.842  11.982
42669W        W 1930  21.213   0.855  11.391
42670W        W 1931  29.919  24.502  11.050
42671W        W 1932  29.160   8.831   2.400
42672W        W 1933  41.483  33.036   3.706
42673W        W 1934  28.617   9.178   4.179
42674W        W 1935  13.159  32.134  14.961
42675W        W 1936  29.138  29.145  13.496
42676W        W 1937  17.199  24.132  10.523
42677W        W 1938  26.050  44.290  11.918
42678W        W 1939   6.357  26.085   2.307
42679W        W 1940  40.027  11.355  13.949
42680W        W 1941   3.319  41.367  11.579
42681W        W 1942   8.804  34.529   4.808
42682W        W 1943  15.277   6.275  11.904
42683W        W 1944  20.580  29.428   2.385
42684W        W 1945   9.384  40.482  13.875
42685W        W 1946  15.722  31.991   9.982
42686W        W 1947   7.812   8.348  13.439
42687W        W 1948  12.314  17.084  11.021
42688W        W 1949  33.446  27.002   1.898
42689W        W 1950  24.039   6.823   0.748
42690W        W 1951  44.832  34.984  10.574
42691W        W 1952   3.742  16.154   0.409
42692W        W 1953  23.514  35.080  13.307
42693W        W 1954  13.345  33.586   2.195
42694W        W 1955  21.671  13.332   0.730
42695W        W 1956  30.487  24.085   5.131
42696W        W 1957  38.393  24.982  11.980
42697W        W 1958  20.238  25.084  13.514
42698W        W 1959  28.537  34.937   1.732
42699W        W 1960  39.928  14.665   1.279
42700W        W 1961  23.608  20.602   2.842
42701W        W 1962  28.164   2.946   2.862
42702W        W 1963  27.161  43.319  13.942
42703W        W 1964  16.303   9.682  13.796
42704W        W 1965  15.298  34.969  10.984
42705W        W 1966  35.404  21.744  12.076
42706W        W 1967  13.704  40.861   2.371
42707W        W 1968  41.937  41.484  13.322
42708W        W 1969   4.881   2.737  13.804
42709W        W 1970   8.212  21.526   4.810
42710W        W 1971  23.575   4.412  13.844
42711W        W 1972  36.058  44.762   1.739
42712W        W 1973  25.579  15.650   4.606
42713W        W 1974  32.977   2.794  11.082
42714W        W 1975   3.294   2.746   4.663
42715W        W 1976   7.224  28.174   2.847
42716W        W 1977   4.381  22.635  13.837
42717W        W 1978  10.683  28.175  14.830
42718W        W 1979  40.046  36.047  13.484
42719W        W 1980  26.656   9.762   2.737
42720W        W 1981  10.688   5.836   1.341
42721W        W 1982  20.715   2.896  11.436
42722W        W 1983  39.328   9.385   0.960
42723W        W 1984  25.620  19.281   1.910
42724W        W 1985  32.015  24.069  11.996
42725W        W 1986  25.092  18.219  12.078
42726W        W 1987  30.142  31.452   9.563
42727W        W 1988  10.316  30.545   3.753
42728W        W 1989  13.255  20.029   4.148
42729W        W 1990  12.747   5.897  11.025
42730W        W 1991  11.232  21.117   5.255
42731W        W 1992  27.131  10.211  10.616
42732W        W 1993  14.665  16.788  10.047
42733W        W 1994  19.213  24.990   3.344
42734W        W 1995  27.130   6.364  12.381
42735W        W 1996   9.201   0.874  10.023
42736W        W 1997  16.720  42.404  13.861
42737W        W 1998  14.830   8.247   4.602
42738W        W 1999  26.129  34.924  11.453
42739W        W 2000  13.111   1.448   1.247
42740W        W 2001  44.856  18.236   2.754
42741W        W 2002  23.711  38.359   3.200
42742W        W 2003  35.524  32.428   2.693
42743W        W 2004  32.580  12.209   2.386
42744W        W 2005  44.936  41.538  11.512
42745W        W 2006   4.368  36.525  11.068
42746W        W 2007  41.958  28.453   2.337
42747W        W 2008  34.955  29.625   0.915
42748W        W 2009   5.405  35.032  10.639
42749W        W 2010   5.917   4.425   3.291
42750W        W 2011  41.957  34.608   2.326
42751W        W 2012  28.604  14.609  10.556
42752W        W 2013  44.900  41.530  14.432
42753W        W 2014  26.043  35.870  13.003
42754W        W 2015  24.010  11.646  12.088
42755W        W 2016  23.490  42.330  12.883
42756W        W 2017  15.781  16.297   0.372
42757W        W 2018  12.243  23.213  14.456
42758W        W 2019  19.704  23.131   1.895
42759W        W 2020   4.792  15.747  13.908
42760W        W 2021   6.216  21.058  12.083
42761W        W 2022  21.717  28.657   4.608
42762W        W 2023  43.499   3.445  13.381
42763W        W 2024  29.535   0.486   2.327
42764W        W 2025   8.669   6.265  11.862
42765W        W 2026  28.471  25.622   2.799
42766W        W 2027  31.145  10.641  11.106
42767W        W 2028  40.826   3.387   0.741
42768W        W 2029   6.794  32.885  10.925
42769W        W 2030  35.106   1.311   3.295
42770W        W 2031   3.277  25.202   3.313
42771W        W 2032  23.998  28.518  12.056
42772W        W 2033  24.631  18.665   4.805
42773W        W 2034  21.587  33.951  14.026
42774W        W 2035  27.470  40.372   3.761
42775W        W 2036  32.467  39.951   3.185
42776W        W 2037  27.983  40.328   3.369
42777W        W 2038  11.336   1.889  11.529
42778W        W 2039  37.988   4.252   0.929
42779W        W 2040  10.146  23.187  13.974
42780W        W 2041  37.435  28.957  13.333
42781W        W 2042  27.521  36.472   4.126
42782W        W 2043  15.809  35.933  10.580
42783W        W 2044  34.457  41.294   0.375
42784W        W 2045  40.893  26.168  14.006
42785W        W 2046  13.313  23.618   4.783
42786W        W 2047  24.220  21.048  14.795
42787W        W 2048  29.168  38.436  14.459
42788W        W 2049   0.797  22.076  12.463
42789W        W 2050  29.154   1.838   0.912
42790W        W 2051  24.538   7.362   2.848
42791W        W 2052  38.824  40.545  14.803
42792W        W 2053   6.717  27.014  13.413
42793W        W 2054  42.952  26.542   0.293
42794W        W 2055  27.544  21.151   2.742
42795W        W 2056  19.641   6.827   2.278
42796W        W 2057  18.646  32.061   3.822
42797W        W 2058  23.016  20.611  13.880
42798W        W 2059  37.473  34.897   2.225
42799W        W 2060  13.643  31.544   3.792
42800W        W 2061  14.594  32.973  14.441
42801W        W 2062  41.404   6.722  11.555
42802W        W 2063  29.035  29.560  14.964
42803W        W 2064  30.506  38.539  11.080
42804W        W 2065  28.448  42.354   4.160
42805W        W 2066   8.246  39.408  12.427
42806W        W 2067  21.039  18.266  14.302
42807W        W 2068  41.415  31.951  14.966
42808W        W 2069  24.023  43.452  13.800
42809W        W 2070  21.706   8.387   3.339
42810W        W 2071   4.446  41.528  12.041
42811W        W 2072  10.839  36.455  11.499
42812W        W 2073   8.340  39.861   3.855
42813W        W 2074  29.056  37.350   4.277
42814W        W 2075   2.734  31.111   1.359
42815W        W 2076  31.125  38.349   4.733
42816W        W 2077  32.105  38.916   4.167
42817W        W 2078   6.774  13.602   0.330
42818W        W 2079  15.621  26.165  12.403
42819W        W 2080   2.784  25.040  12.485
42820W        W 2081  15.111   4.357   2.272
42821W        W 2082  13.208  28.104  11.905
42822W        W 2083   0.459  32.109  10.431
42823W        W 2084  33.478  38.022   2.220
42824W        W 2085  17.208   1.406  11.535
42825W        W 2086  34.011  13.801  11.060
42826W        W 2087  12.237  39.824   2.411
42827W        W 2088  18.766   5.370   0.839
42828W        W 2089  42.384  12.178   3.262
42829W        W 2090   7.295  19.054   3.632
42830W        W 2091  24.014  30.026  13.884
42831W        W 2092  30.139  31.118  11.032
42832W        W 2093  40.401  13.758  11.061
42833W        W 2094  35.041  20.218  14.480
42834W        W 2095  27.529  34.436   0.953
42835W        W 2096  20.106   7.727   0.817
42836W        W 2097  34.036  13.619   2.404
42837W        W 2098  16.082  19.621  13.360
42838W        W 2099  37.467  22.632  12.375
42839W        W 2100  25.677  17.102  14.359
42840W        W 2101  26.024  25.126  14.829
42841W        W 2102  35.512   2.360  14.828
42842W        W 2103  13.315  18.272  13.791
42843W        W 2104   2.728  22.170  11.517
42844W        W 2105  34.533   6.395  11.608
42845W        W 2106   1.811  12.765  14.477
42846W        W 2107  32.454  40.845   0.372
42847W        W 2108  11.706  11.335   3.802
42848W        W 2109   2.288  44.400   0.365
42849W        W 2110  32.464  44.976  12.909
42850W        W 2111   3.857  41.451  12.344
42851W        W 2112  16.243   2.320   4.666
42852W        W 2113  26.511  11.844  10.950
42853W        W 2114  28.645  12.847   1.260
42854W        W 2115   4.771  39.359   3.807
42855W        W 2116  16.794  16.157  13.049
42856W        W 2117   2.407  11.275   2.805
42857W        W 2118  23.086  30.531   4.197
42858W        W 2119   4.362  35.954   4.116
42859W        W 2120  20.114  26.133  12.564
42860W        W 2121  30.990  40.529  11.521
42861W        W 2122  35.520   7.907   3.640
42862W        W 2123  38.512  38.334   2.239
42863W        W 2124  21.571  30.467   4.304
42864W        W 2125  11.304  31.979   3.675
42865W        W 2126  14.755  30.148   4.693
42866W        W 2127   6.325  13.742   3.283
42867W        W 2128  39.408   6.418   3.761
42868W        W 2129  22.527  34.993   4.226
42869W        W 2130  31.127  33.043   4.156
42870W        W 2131  42.293  32.095  12.456
42871W        W 2132  24.554  19.590   4.698
42872W        W 2133  43.957  15.300  12.836
42873W        W 2134   8.890  38.387   0.423
42874W        W 2135  12.805  36.963  14.378
42875W        W 2136  12.338  16.134  13.490
42876W        W 2137  13.197  41.019  13.530
42877W        W 2138  14.140   9.295  11.500
42878W        W 2139  32.924  23.027  14.400
42879W        W 2140  16.221  18.687   2.835
42880W        W 2141  18.707  22.142  11.083
42881W        W 2142  11.859  30.647   0.818
42882W        W 2143  25.202  22.644   0.346
42883W        W 2144   6.757   7.239  13.310
42884W        W 2145  23.106  35.945  13.331
42885W        W 2146   3.953  29.958   3.284
42886W        W 2147  42.812   8.221   3.296
42887W        W 2148   9.846  22.151  14.495
42888W        W 2149   7.761  14.627   1.783
42889W        W 2150  41.043  16.725   2.211
42890W        W 2151  33.438  31.053  13.419
42891W        W 2152  29.430  42.345   1.384
42892W        W 2153  28.499  38.486  14.437
42893W        W 2154  34.893   5.328  13.478
42894W        W 2155  15.617  31.627   3.677
42895W        W 2156  21.627  13.675  12.537
42896W        W 2157   1.398  11.341   3.767
42897W        W 2158  23.080  19.545  13.004
42898W        W 2159   7.705  10.266  14.390
42899W        W 2160  33.419   3.773  10.466
42900W        W 2161  15.596  29.036   3.379
42901W        W 2162  39.961  14.310  14.320
42902W        W 2163  33.616  10.815   4.262
42903W        W 2164  31.994  11.128  14.426
42904W        W 2165   6.328  38.829  12.580
42905W        W 2166  16.633   6.910   3.202
42906W        W 2167   5.272  11.703   4.123
42907W        W 2168  35.563  10.802   3.787
42908W        W 2169   9.865  41.370   2.838
42909W        W 2170  16.651  20.647   0.255
42910W        W 2171  15.691   6.235   0.472
42911W        W 2172  32.916  29.453   3.151
42912W        W 2173  34.510  15.811   1.880
42913W        W 2174   9.656  10.868   0.797
42914W        W 2175  41.837  14.106  12.968
42915W        W 2176   0.440   8.207   1.395
42916W        W 2177  23.641  23.593   5.108
42917W        W 2178   1.394  14.275   2.752
42918W        W 2179  29.938   0.314  10.901
42919W        W 2180  39.498  18.547   2.867
42920W        W 2181  24.024  12.208   0.449
42921W        W 2182  33.422  31.015   2.258
42922W        W 2183  24.682   3.339   3.293
42923W        W 2184  19.263  18.069   0.390
42924W        W 2185  12.637  32.550  13.832
42925W        W 2186  16.195  35.519  12.906
42926W        W 2187  40.030  22.663   4.216
42927W        W 2188  26.144   5.354  12.044
42928W        W 2189   7.838  29.919   2.868
42929W        W 2190  30.421  26.695  14.362
42930W        W 2191  36.515  39.342  13.024
42931W        W 2192   0.887  42.324   1.405
42932W        W 2193   8.230  26.670   0.252
42933W        W 2194  29.069  29.085  11.000
42934W        W 2195  43.858   4.376  13.509
42935W        W 2196  23.006   5.883   0.800
42936W        W 2197  29.075  29.955   0.771
42937W        W 2198  16.800  31.931   4.736
42938W        W 2199   9.878  33.444   0.473
42939W        W 2200  11.235  33.068   1.443
42940W        W 2201  36.854  41.451   2.804
42941W        W 2202  35.379  27.017   4.829
42942W        W 2203   9.648  33.405   4.834
42943W        W 2204   2.240  23.065  12.947
42944W        W 2205  16.800  39.314   0.882
42945W        W 2206  17.788  43.506   4.797
42946W        W 2207   2.884   2.429   3.662
42947W        W 2208  16.209  13.184  10.561
42948W        W 2209   0.416   0.307   2.223
42949W        W 2210   2.816   0.752   4.318
42950W        W 2211  36.038  12.322   1.892
42951W        W 2212  29.437   7.362   1.779
42952W        W 2213  22.691   1.805  12.544
42953W        W 2214   8.720  44.999   1.433
42954W        W 2215  34.577  41.848  12.997
42955W        W 2216  28.554  28.044  13.407
42956W        W 2217  17.665  44.772  13.413
42957W        W 2218  37.481  18.212  14.964
42958W        W 2219  35.980   0.815  12.394
42959W        W 2220  25.112   9.187   0.835
42960W        W 2221  30.536  18.709  13.027
42961W        W 2222  39.401  39.443  13.401
42962W        W 2223  26.496   9.865  11.033
42963W        W 2224  31.533  21.107   2.880
42964W        W 2225  38.436  22.015   3.202
42965W        W 2226  14.251  15.645   1.276
42966W        W 2227  15.605  31.094   0.915
42967W        W 2228  25.511  24.072   0.850
42968W        W 2229  30.607   0.490   0.262
42969W        W 2230  26.678  36.966   3.235
42970W        W 2231  33.888  43.829  12.442
42971W        W 2232   6.877  15.823  14.999
42972W        W 2233  21.729  13.218   2.259
42973W        W 2234  14.309  34.890   4.160
42974W        W 2235   4.362  13.117   2.871
42975W        W 2236   0.884  27.536  10.909
42976W        W 2237   6.422  40.334  14.791
42977W        W 2238  41.937  19.133   2.370
42978W        W 2239  30.088  12.752   2.332
42979W        W 2240  34.928  33.522  11.982
42980W        W 2241  18.085  44.983  13.385
42981W        W 2242   1.317  19.536  14.925
42982W        W 2243  39.957  26.493   1.443
42983W        W 2244  36.933  44.931   1.356
42984W        W 2245  13.296  40.991   1.331
42985W        W 2246  16.580   2.758  14.965
42986W        W 2247  38.828  42.004   5.085
42987W        W 2248   3.248  39.926  14.012
42988W        W 2249  37.007  15.146   0.893
42989W        W 2250  34.449  34.463  11.412
42990W        W 2251  13.305   5.713  11.442
42991W        W 2252  23.709   8.860   2.853
42992W        W 2253  35.050  25.056   5.225
42993W        W 2254  21.738  31.109   1.827
42994W        W 2255  27.606   6.702   3.310
42995W        W 2256  40.805  17.738  14.448
42996W        W 2257  39.459  29.478  11.378
42997W        W 2258  17.300  31.143  12.515
42998W        W 2259  11.310  18.151   0.809
42999W        W 2260  31.520  32.623  13.383
43000W        W 2261   1.758   8.379  14.875
43001W        W 2262  28.046  13.111  13.427
43002W        W 2263  34.378  40.959   3.307
43003W        W 2264  44.959  39.355   1.308
43004W        W 2265  14.781  32.111   0.248
43005W        W 2266  10.235  15.161   3.828
43006W        W 2267  16.686  17.651   2.341
43007W        W 2268  40.520   0.957   1.721
43008W        W 2269   1.739   3.433  11.955
43009W        W 2270  18.672  19.661   3.227
43010W        W 2271  21.653   9.166   2.222
43011W        W 2272  36.957   5.236   2.319
43012W        W 2273  42.358  35.950   2.297
43013W        W 2274  24.652  35.924  11.473
43014W        W 2275  43.984  29.983   1.278
43015W        W 2276  29.081  15.240  12.844
43016W        W 2277  24.172  44.979  11.039
43017W        W 2278  13.126  25.547   4.230
43018W        W 2279  36.457   2.863  13.506
43019W        W 2280  37.566  41.920  12.901
43020W        W 2281  34.053  27.465   1.350
43021W        W 2282  19.088  18.136  13.896
43022W        W 2283   6.230  17.611   2.339
43023W        W 2284  31.145  44.790  13.910
43024W        W 2285  43.862  28.493   3.762
43025W        W 2286   8.341  37.027  13.843
43026W        W 2287  10.792  31.900  11.863
43027W        W 2288  28.027  27.117   0.288
43028W        W 2289  21.056  36.906  12.412
43029W        W 2290  38.512  23.500  10.603
43030W        W 2291   6.211  16.713  13.902
43031W        W 2292  12.771   4.708  14.289
43032W        W 2293  23.513  15.137   4.666
43033W        W 2294   8.821  21.710  14.799
43034W        W 2295  35.455  39.421   3.766
43035W        W 2296  39.950  33.453  13.033
43036W        W 2297  10.823  22.553  13.424
43037W        W 2298  33.129  38.045   0.780
43038W        W 2299  22.007  24.183   2.327
43039W        W 2300  31.434  11.742   0.306
43040W        W 2301  14.161  42.797   3.730
43041W        W 2302  16.747  23.067   3.829
43042W        W 2303  17.773  10.170  10.542
43043W        W 2304  40.307  39.853  13.542
43044W        W 2305   2.254  38.043   2.241
43045W        W 2306  22.072  18.293  13.494
43046W        W 2307  29.499   3.727  13.928
43047W        W 2308  32.023  25.982   3.363
43048W        W 2309  26.054  23.202   0.777
43049W        W 2310   8.848   1.850  14.455
43050W        W 2311  28.133  34.524   9.441
43051W        W 2312  16.132  16.802   0.953
43052W        W 2313  18.749  30.106   4.225
43053W        W 2314  34.431  34.045  13.864
43054W        W 2315  22.532  34.037   4.725
43055W        W 2316  38.466  17.106  14.328
43056W        W 2317   2.858   5.821   3.837
43057W        W 2318   5.832  27.154   0.756
43058W        W 2319  25.173   7.674   3.238
43059W        W 2320  42.887  20.219  10.603
43060W        W 2321  32.467  31.455   2.696
43061W        W 2322  24.008   8.399   4.307
43062W        W 2323  33.985  32.001   4.192
43063W        W 2324  27.093   9.720  12.032
43064W        W 2325  25.481   3.372   0.328
43065W        W 2326  19.543   7.334   0.425
43066W        W 2327  19.179  36.052  13.932
43067W        W 2328  42.492  25.102  10.445
43068W        W 2329  32.058  17.661   0.481
43069W        W 2330  34.086   9.772   3.171
43070W        W 2331  22.198   7.737  13.005
43071W        W 2332  15.126  43.783  11.553
43072W        W 2333  13.823   5.780  12.078
43073W        W 2334  41.937  28.956  10.584
43074W        W 2335  26.490  23.085   1.928
43075W        W 2336   1.804  23.167   0.764
43076W        W 2337  18.143  43.368  14.915
43077W        W 2338  19.545  36.962   0.411
43078W        W 2339  42.029  13.815   3.231
43079W        W 2340  14.130   2.882  11.885
43080W        W 2341  37.913  44.489  14.943
43081W        W 2342  39.474  38.040  10.555
43082W        W 2343  39.838  38.557   0.922
43083W        W 2344  13.244  24.602  13.430
43084W        W 2345   8.397  31.140  13.006
43085W        W 2346  14.328  13.753  13.794
43086W        W 2347  33.600   0.974   0.279
43087W        W 2348   4.901   9.363  12.084
43088W        W 2349  23.570  18.608  10.449
43089W        W 2350  20.251  33.065   1.431
43090W        W 2351  21.249  38.827   5.100
43091W        W 2352  42.502  31.088  14.407
43092W        W 2353  33.384   1.839  11.957
43093W        W 2354  43.836  43.816  12.960
43094W        W 2355  26.979   3.426   1.803
43095W        W 2356  20.639  26.072   4.693
43096W        W 2357  36.906  43.933  13.805
43097W        W 2358  19.543   9.343   2.225
43098W        W 2359  39.334  43.469   3.381
43099W        W 2360  25.690   3.424   1.341
43100W        W 2361  12.225  25.570   1.857
43101W        W 2362   6.693  35.373   0.956
43102W        W 2363  17.134   2.914   5.204
43103W        W 2364  37.539  41.313  10.470
43104W        W 2365  16.271  43.458   1.229
43105W        W 2366  31.970   6.912  10.910
43106W        W 2367  42.813  11.811   2.363
43107W        W 2368  10.695  29.562   4.792
43108W        W 2369  23.531  40.045  12.962
43109W        W 2370  11.194  15.661   0.401
43110W        W 2371  11.628  19.208  12.943
43111W        W 2372  19.718   7.275  12.048
43112W        W 2373  38.333  35.973  13.031
43113W        W 2374   0.359  27.491  14.978
43114W        W 2375  44.788  36.995  10.963
43115W        W 2376  44.450  35.046   2.296
43116W        W 2377   7.832  27.062   1.842
43117W        W 2378   9.376   0.784  12.376
43118W        W 2379  32.893  27.186  14.513
43119W        W 2380  24.679   1.913   3.717
43120W        W 2381  44.264  20.524   3.337
43121W        W 2382  42.511  25.613  12.489
43122W        W 2383  35.463  10.295  12.466
43123W        W 2384  21.626  14.170   1.722
43124W        W 2385   6.283  25.211   3.318
43125W        W 2386   9.877  11.354  12.919
43126W        W 2387  24.660  31.068  10.543
43127W        W 2388  42.926  21.653  12.459
43128W        W 2389  16.308  31.944   2.735
43129W        W 2390  37.567  37.551   1.246
43130W        W 2391  23.017  35.031   1.263
43131W        W 2392  15.175  19.077  13.324
43132W        W 2393  30.657   5.324  11.930
43133W        W 2394  32.044  12.848  13.846
43134W        W 2395  41.924  26.515   3.690
43135W        W 2396  28.511  44.277  13.896
43136W        W 2397  38.837  24.698   3.352
43137W        W 2398  26.201  13.676  11.899
43138W        W 2399  40.317  10.281   1.288
43139W        W 2400  41.407  22.568   0.347
43140W        W 2401  29.529   2.901   1.389
43141W        W 2402  36.453  43.296  13.034
43142W        W 2403   2.790  34.953   4.767
43143W        W 2404   4.800   0.928   5.219
43144W        W 2405  23.491  43.409  10.520
43145W        W 2406  33.096  15.223   4.342
43146W        W 2407   7.882  44.398  13.401
43147W        W 2408   9.812   5.197  13.992
43148W        W 2409  12.705  19.601  14.978
43149W        W 2410  44.420  42.860   0.833
43150W        W 2411   6.858  38.973  12.341
43151W        W 2412  25.017   7.287   3.743
43152W        W 2413  31.929  26.531   2.686
43153W        W 2414  38.990  21.226   4.665
43154W        W 2415  14.317  44.933  12.545
43155W        W 2416  29.481  31.017  13.007
43156W        W 2417  28.076  32.026   2.213
43157W        W 2418  29.659  15.134  13.521
43158W        W 2419  29.145  32.914  11.421
43159W        W 2420  11.362  42.398  12.568
43160W        W 2421  41.295   5.353   0.863
43161W        W 2422   3.457  26.021   3.309
43162W        W 2423  27.671  28.158  11.061
43163W        W 2424  31.632  16.095  10.425
43164W        W 2425  38.015  41.372   3.318
43165W        W 2426  14.213   8.394  13.313
43166W        W 2427  18.220  33.043  13.539
43167W        W 2428  28.520   3.835  11.110
43168W        W 2429  35.032  34.540  10.538
43169W        W 2430   2.865  42.968   4.261
43170W        W 2431  38.553  31.605   0.856
43171W        W 2432   4.380  36.870  12.016
43172W        W 2433  25.191  19.554   4.245
43173W        W 2434  25.636  20.256   2.755
43174W        W 2435  12.139  40.898   1.437
43175W        W 2436   4.884  23.077   2.895
43176W        W 2437  19.634  36.490   2.350
43177W        W 2438   2.726   2.410  12.993
43178W        W 2439  36.990   4.411   4.116
43179W        W 2440  39.907  43.379   1.277
43180W        W 2441   2.300  40.396   3.225
43181W        W 2442  18.137   7.322   3.665
43182W        W 2443  39.912   0.983  12.831
43183W        W 2444  40.415  41.901  13.334
43184W        W 2445  13.622  24.638   4.643
43185W        W 2446  26.991  16.780  10.923
43186W        W 2447   0.419   6.820   1.898
43187W        W 2448   5.889  30.016  13.905
43188W        W 2449   9.706  39.385   0.273
43189W        W 2450  35.011   2.467  13.933
43190W        W 2451  28.452  22.114  10.561
43191W        W 2452   5.867  22.206  10.408
43192W        W 2453  44.762   4.802  13.942
43193W        W 2454  17.249   9.774  12.354
43194W        W 2455  20.266  17.130   1.302
43195W        W 2456  25.536  28.946  10.085
43196W        W 2457  26.660  13.601   2.212
43197W        W 2458  28.031  12.810  12.512
43198W        W 2459   7.376  26.613  14.850
43199W        W 2460  37.363  17.239   2.297
43200W        W 2461  35.000  42.986  13.935
43201W        W 2462  24.576  15.237  14.973
43202W        W 2463  44.455  31.563  11.561
43203W        W 2464  16.142  33.573   2.771
43204W        W 2465  34.108  13.701   0.299
43205W        W 2466   1.874  18.253   0.773
43206W        W 2467  16.798  24.019   0.956
43207W        W 2468   2.234  16.591  10.434
43208W        W 2469  37.339   7.899   2.316
43209W        W 2470  19.046  44.358  13.907
43210W        W 2471   2.923  30.991  14.841
43211W        W 2472   8.894  21.564  12.963
43212W        W 2473  16.163   8.664  10.064
43213W        W 2474  25.045  26.016  13.050
43214W        W 2475   3.276   1.450   1.296
43215W        W 2476  22.010  10.358   0.957
43216W        W 2477   8.742  28.949  12.096
43217W        W 2478  26.506  25.594   0.735
43218W        W 2479  11.766  41.323   4.830
43219W        W 2480  17.150  15.696   3.330
43220W        W 2481  17.578   9.792   0.372
43221W        W 2482  12.165  39.513   2.844
43222W        W 2483   6.868  32.907  13.038
43223W        W 2484   1.402  11.262  13.035
43224W        W 2485  17.075   7.259   4.264
43225W        W 2486  44.374  16.805  14.337
43226W        W 2487  26.571  42.823  11.972
43227W        W 2488  42.334  11.790   2.269
43228W        W 2489  33.532   0.962   0.953
43229W        W 2490  20.736   7.857   1.304
43230W        W 2491   4.435  43.468  11.601
43231W        W 2492   0.359   9.794   4.241
43232W        W 2493  20.208  37.516   1.250
43233W        W 2494   5.398  18.707   0.884
43234W        W 2495  34.458   2.814   0.847
43235W        W 2496  42.024  29.088  11.494
43236W        W 2497  34.015   3.440   1.338
43237W        W 2498   8.295  10.161  13.432
43238W        W 2499  44.800  27.049   1.429
43239W        W 2500  25.201  23.688   0.343
43240W        W 2501   1.399   4.834  13.880
43241W        W 2502  36.535  11.821  14.318
43242W        W 2503   4.414  29.053   2.390
43243W        W 2504  23.063  27.941  10.631
43244W        W 2505  28.077  17.585  14.278
43245W        W 2506   8.238  15.198   2.840
43246W        W 2507  14.736  39.883   9.937
43247W        W 2508  19.680  34.028   1.772
43248W        W 2509  34.866  18.651   0.314
43249W        W 2510   5.355   9.731   0.775
43250W        W 2511  44.397  37.022  13.485
43251W        W 2512  29.024  42.455   0.319
43252W        W 2513  33.611   8.172  10.544
43253W        W 2514   0.877  39.857  12.982
43254W        W 2515  21.724  32.906   0.370
43255W        W 2516   0.284  14.806   2.386
43256W        W 2517  25.129  21.710  13.882
43257W        W 2518  24.030   5.205   2.695
43258W        W 2519  25.161  18.717  12.360
43259W        W 2520  11.838  43.409  14.435
43260W        W 2521  25.562  13.278   0.879
43261W        W 2522  40.008  39.965  13.024
43262W        W 2523  38.063  23.591  12.055
43263W        W 2524   9.731  19.081   0.821
43264W        W 2525   9.808  28.994  11.543
43265W        W 2526   7.385  28.957   0.450
43266W        W 2527  27.576  43.963   1.704
43267W        W 2528   2.327  39.860  12.841
43268W        W 2529  44.919   1.449  11.927
43269W        W 2530  25.617  29.983   4.639
43270W        W 2531  30.072  29.580  14.379
43271W        W 2532   5.357  11.722  12.563
43272W        W 2533  16.277  14.668   2.209
43273W        W 2534  19.173  12.285   1.413
43274W        W 2535  32.621  35.566  13.992
43275W        W 2536  44.370  29.643  13.533
43276W        W 2537  28.526  36.977  10.480
43277W        W 2538  33.953  28.168   3.839
43278W        W 2539   2.731  16.312  14.002
43279W        W 2540  42.526  14.266   1.409
43280W        W 2541   2.282  32.971   3.211
43281W        W 2542  12.645  13.132  14.424
43282W        W 2543  21.674  26.087  11.552
43283W        W 2544  18.264  23.177   1.921
43284W        W 2545  15.586  19.122  12.953
43285W        W 2546  39.536  28.643   2.673
43286W        W 2547  16.656  15.115  12.377
43287W        W 2548  18.062  25.024  11.091
43288W        W 2549  19.276  44.994  14.331
43289W        W 2550  24.026  19.108  14.433
43290W        W 2551  44.934   5.861   2.381
43291W        W 2552  21.630  21.738  13.461
43292W        W 2553  22.100  38.922  11.493
43293W        W 2554  38.990  26.520   4.128
43294W        W 2555   3.916  43.797   3.786
43295W        W 2556   2.442   3.768   3.230
43296W        W 2557  24.130  35.599  14.783
43297W        W 2558  43.464   2.346  10.467
43298W        W 2559  43.914  28.054   0.885
43299W        W 2560  19.696   2.757   4.242
43300W        W 2561  13.175  13.246  13.980
43301W        W 2562  27.611  36.916  14.490
43302W        W 2563  30.511  13.292  11.038
43303W        W 2564  35.552  28.533  13.332
43304W        W 2565  31.493  28.664  10.937
43305W        W 2566   7.677  25.055   3.765
43306W        W 2567  43.916  39.382   4.638
43307W        W 2568   6.710   2.397  12.008
43308W        W 2569   0.462  36.432   1.723
43309W        W 2570   4.288  21.729   4.319
43310W        W 2571  24.151  40.348  14.018
43311W        W 2572   8.376  38.447  10.470
43312W        W 2573   6.393  37.987  14.322
43313W        W 2574  19.733  34.915  12.443
43314W        W 2575  23.083  15.326  13.472
43315W        W 2576   7.231   7.822   5.321
43316W        W 2577  18.767  28.502   3.259
43317W        W 2578  25.027   7.294  13.427
43318W        W 2579  21.039  21.255  12.993
43319W        W 2580  42.785  10.860   2.682
43320W        W 2581  34.576  29.964   0.353
43321W        W 2582   2.965  42.343   0.309
43322W        W 2583  29.454  37.343   2.847
43323W        W 2584  16.245  44.981  10.913
43324W        W 2585  39.505  15.128   0.452
43325W        W 2586  27.104  41.352  13.997
43326W        W 2587   6.225  43.897   4.127
43327W        W 2588  44.997  11.299  11.070
43328W        W 2589  17.611  18.564   4.782
43329W        W 2590   2.321  30.931  12.885
43330W        W 2591  38.010  23.678   3.686
43331W        W 2592  39.509   9.832   1.239
43332W        W 2593  44.762  22.127   0.926
43333W        W 2594  16.623  21.654  14.506
43334W        W 2595  17.193  22.607  12.552
43335W        W 2596  40.050  18.618  12.548
43336W        W 2597  43.504  26.462  11.575
43337W        W 2598  12.698  43.784   0.898
43338W        W 2599  31.480  31.969  14.837
43339W        W 2600  41.825  17.206  12.875
43340W        W 2601  37.066   8.767  14.820
43341W        W 2602  19.752  26.507   3.715
43342W        W 2603   5.712  38.383  14.493
43343W        W 2604  24.633  19.106  13.338
43344W        W 2605  44.397  24.086   1.884
43345W        W 2606  40.431  24.122  13.461
43346W        W 2607  43.451  33.475  13.956
43347W        W 2608  14.103  33.478  14.472
43348W        W 2609   8.779  20.229  14.323
43349W        W 2610   8.263  22.585  14.435
43350W        W 2611   1.931  39.981   2.359
43351W        W 2612  38.057  30.643   4.293
43352W        W 2613   4.747  29.541   2.295
43353W        W 2614  42.795   6.828   4.314
43354W        W 2615  35.600   4.870  11.092
43355W        W 2616  25.051  39.368  12.415
43356W        W 2617  41.003  28.092  11.559
43357W        W 2618   1.852  43.509   1.834
43358W        W 2619  11.310  40.484  10.908
43359W        W 2620  36.008   9.331  10.922
43360W        W 2621  16.225  30.970  13.850
43361W        W 2622  25.989  16.218  13.949
43362W        W 2623  31.525  21.205   1.912
43363W        W 2624  30.068  13.773  11.900
43364W        W 2625  15.812  17.573  11.520
43365W        W 2626  31.989   6.190  12.904
43366W        W 2627   2.231  28.456   1.275
43367W        W 2628  36.091  12.749   3.853
43368W        W 2629  33.548  33.066   1.859
43369W        W 2630  27.032  30.539   2.335
43370W        W 2631  20.711  24.653   3.698
43371W        W 2632  28.539  26.462   1.788
43372W        W 2633  37.408   0.837   4.697
43373W        W 2634  17.717  26.501   4.610
43374W        W 2635   6.811  23.082   4.222
43375W        W 2636  38.377  37.411   2.715
43376W        W 2637   9.796  19.675   2.743
43377W        W 2638  16.143   0.825  14.851
43378W        W 2639  38.045  38.954  12.351
43379W        W 2640  11.299  39.435   1.386
43380W        W 2641  37.968  33.087  13.063
43381W        W 2642  39.914  44.009   4.665
43382W        W 2643  28.627  24.177  13.941
43383W        W 2644  39.934   8.196   3.328
43384W        W 2645  29.540  12.291  13.888
43385W        W 2646  36.481   3.951   4.648
43386W        W 2647  35.996  18.738   1.256
43387W        W 2648  14.161  12.123  11.032
43388W        W 2649  23.065  17.613   4.623
43389W        W 2650  24.622  42.488  11.606
43390W        W 2651  29.035   2.944   1.740
43391W        W 2652  20.750  33.601  11.038
43392W        W 2653   9.219   7.407   4.262
43393W        W 2654  39.458   8.313  14.441
43394W        W 2655  42.327  27.449   0.736
43395W        W 2656  35.463  40.054  11.050
43396W        W 2657   8.346  33.421   2.806
43397W        W 2658  33.913  44.755   2.687
43398W        W 2659  33.604  23.120  11.047
43399W        W 2660  23.132   7.894  11.857
43400W        W 2661  28.537  19.257   3.225
43401W        W 2662   1.326   5.388   2.895
43402W        W 2663   8.353  14.818   0.779
43403W        W 2664  14.817  26.193   3.632
43404W        W 2665  39.892   5.739  10.543
43405W        W 2666  15.300   8.200  12.004
43406W        W 2667  31.994  23.712   0.847
43407W        W 2668  38.507  28.681   4.698
43408W        W 2669  27.518   1.839  14.309
43409W        W 2670  24.169  10.828   1.244
43410W        W 2671   8.275  21.111  10.918
43411W        W 2672  39.544  38.059  14.855
43412W        W 2673  10.879  36.509   4.280
43413W        W 2674  14.688   6.786   3.170
43414W        W 2675  31.541   8.354  12.951
43415W        W 2676  20.126  19.127   4.615
43416W        W 2677  16.215   6.264  11.992
43417W        W 2678  16.670  34.530  14.294
43418W        W 2679  32.430  22.233   2.238
43419W        W 2680  31.574  16.691  10.450
43420W        W 2681  21.750  24.626  13.384
43421W        W 2682  10.242  12.828  11.054
43422W        W 2683  12.348  22.527   3.755
43423W        W 2684  17.643  16.157  10.625
43424W        W 2685  13.324  28.543  12.512
43425W        W 2686  15.302   7.680  12.029
43426W        W 2687   0.962   5.905  14.297
43427W        W 2688   3.246  16.721  14.413
43428W        W 2689  24.651  23.652  11.440
43429W        W 2690  20.150  18.594   0.788
43430W        W 2691  19.261  14.171   2.716
43431W        W 2692   8.181  20.202   0.281
43432W        W 2693  16.111  43.874   0.967
43433W        W 2694  19.716  33.521   0.908
43434W        W 2695  19.279  44.947  10.447
43435W        W 2696  23.512  26.514  10.986
43436W        W 2697  31.030   8.659  14.280
43437W        W 2698  25.027   5.849  13.358
43438W        W 2699  24.137  27.122   1.922
43439W        W 2700  20.755   3.947   4.148
43440W        W 2701  28.681  32.393  13.824
43441W        W 2702   3.385  34.994   2.763
43442W        W 2703  26.167  15.250   4.198
43443W        W 2704  42.854  29.630  11.858
43444W        W 2705  32.114  12.730  12.391
43445W        W 2706   1.252  27.047   3.192
43446W        W 2707  29.582  44.923   4.689
43447W        W 2708  39.041   5.423  14.956
43448W        W 2709  33.417  36.502  12.476
43449W        W 2710  34.081  34.372   4.802
43450W        W 2711  21.661  10.311  12.557
43451W        W 2712   7.747  38.443  10.516
43452W        W 2713  28.476  37.372  13.364
43453W        W 2714  29.126   6.806  10.484
43454W        W 2715   6.421  12.662  13.991
43455W        W 2716   7.762  40.807   3.742
43456W        W 2717   8.259  44.811   3.645
43457W        W 2718   5.341  22.590   4.173
43458W        W 2719  14.814  21.119  13.930
43459W        W 2720  25.986  16.603   2.238
43460W        W 2721  33.529  21.222  12.002
43461W        W 2722  39.374  16.164   3.659
43462W        W 2723   3.351  37.866  14.813
43463W        W 2724  19.215  39.411   2.824
43464W        W 2725  43.276  37.500   3.726
43465W        W 2726  17.761  18.736   0.748
43466W        W 2727  39.347   6.355  14.510
43467W        W 2728  25.647  10.776  12.958
43468W        W 2729  24.489  41.505   4.744
43469W        W 2730  19.554  13.716   3.839
43470W        W 2731  19.720  25.582  12.957
43471W        W 2732  34.431   3.418  12.953
43472W        W 2733   0.460  13.651   3.839
43473W        W 2734  28.528   0.822   4.666
43474W        W 2735  30.550  33.916   5.689
43475W        W 2736   6.230  44.005   2.340
43476W        W 2737   9.803   0.813  13.365
43477W        W 2738  10.677  27.633   4.617
43478W        W 2739   7.345  38.392  11.529
43479W        W 2740  33.911   8.171   4.836
43480W        W 2741  23.647   7.367  14.796
43481W        W 2742  30.972  20.631  14.467
43482W        W 2743  20.035  19.124   4.266
43483W        W 2744   0.769  42.516   3.220
43484W        W 2745   8.304   7.859  13.313
43485W        W 2746  19.071   7.757  10.574
43486W        W 2747  44.000  22.213  10.987
43487W        W 2748   8.225  42.411   3.286
43488W        W 2749  23.169  19.168  10.440
43489W        W 2750  12.761  18.775  10.944
43490W        W 2751  30.643  21.169   5.309
43491W        W 2752   7.306  16.186  12.520
43492W        W 2753  32.513  21.560  11.438
43493W        W 2754  26.656  37.560   4.174
43494W        W 2755  38.845  44.439   2.669
43495W        W 2756  11.767   6.254  11.975
43496W        W 2757  43.970  28.608   1.756
43497W        W 2758  21.723   6.394  13.018
43498W        W 2759  24.662  11.804   4.768
43499W        W 2760  10.239  23.566  14.449
43500W        W 2761  27.618  12.825   2.351
43501W        W 2762   0.748  34.938  11.593
43502W        W 2763  32.536  15.789   3.634
43503W        W 2764  31.634  18.725   4.757
43504W        W 2765  28.176   4.289  11.051
43505W        W 2766   1.444  17.571  12.979
43506W        W 2767   0.318  35.446   2.777
43507W        W 2768   6.391  15.778  14.021
43508W        W 2769  35.506  30.973   1.707
43509W        W 2770  19.567  30.111  13.018
43510W        W 2771   3.809   5.342   4.836
43511W        W 2772  17.587   1.421   0.919
43512W        W 2773  39.413   6.312  10.904
43513W        W 2774  30.941  31.993   1.804
43514W        W 2775  35.937  23.092  11.966
43515W        W 2776   4.206   8.738   3.791
43516W        W 2777  38.328  16.575   3.235
43517W        W 2778   4.363  36.904   2.868
43518W        W 2779  41.892  13.247   2.192
43519W        W 2780  14.812  24.994   4.625
43520W        W 2781  21.712   3.743  12.454
43521W        W 2782  24.723   3.907  14.946
43522W        W 2783  30.459  32.987  11.910
43523W        W 2784  42.867  27.688  13.545
43524W        W 2785   4.781  30.030  12.539
43525W        W 2786  29.945  38.911  10.559
43526W        W 2787  13.738   1.374   2.358
43527W        W 2788  12.276  37.019   1.906
43528W        W 2789  30.654  37.457  14.420
43529W        W 2790  26.559  13.132  14.792
43530W        W 2791  21.256  37.907  13.496
43531W        W 2792   4.244  13.238   4.261
43532W        W 2793  17.777  43.871  12.842
43533W        W 2794  34.521  21.686  14.420
43534W        W 2795  43.427  21.047   4.752
43535W        W 2796  13.177  27.125  10.032
43536W        W 2797  21.538  39.058   3.718
43537W        W 2798   7.367   8.897   3.215
43538W        W 2799  43.276  16.142   1.298
43539W        W 2800  41.368   1.864  11.461
43540W        W 2801  34.510  14.117   3.309
43541W        W 2802  18.758  40.411  10.416
43542W        W 2803  44.269  41.486  11.497
43543W        W 2804  14.599   5.843   2.229
43544W        W 2805  13.319  27.535   9.650
43545W        W 2806  17.157   0.419   3.216
43546W        W 2807  16.688  19.780   2.828
43547W        W 2808   8.255  40.999   1.860
43548W        W 2809  34.446  39.375  11.575
43549W        W 2810  35.586  18.083  11.513
43550W        W 2811  38.054  40.995   2.303
43551W        W 2812  25.094  37.852   4.761
43552W        W 2813   5.265  26.099  11.912
43553W        W 2814  29.628   7.340   2.223
43554W        W 2815  28.476   7.742  14.009
43555W        W 2816  19.664  29.512  14.458
43556W        W 2817  22.174  43.356  11.048
43557W        W 2818  21.186  38.404  11.443
43558W        W 2819   6.252  13.109  10.559
43559W        W 2820  35.928  39.824   1.273
43560W        W 2821  26.630  34.544   1.878
43561W        W 2822  26.478  16.254  10.429
43562W        W 2823  29.450  10.670  13.528
43563W        W 2824   6.851  27.095   2.894
43564W        W 2825  22.191  30.449  12.488
43565W        W 2826   8.680   9.381  11.402
43566W        W 2827  30.923   4.335  13.385
43567W        W 2828  14.103  21.178   4.661
43568W        W 2829  19.275  23.640   0.401
43569W        W 2830  39.868  29.172  13.802
43570W        W 2831  32.997   5.708  10.553
43571W        W 2832   1.866  19.126  13.807
43572W        W 2833  12.770  20.540  14.515
43573W        W 2834  29.991  44.497   0.298
43574W        W 2835   3.826  38.458   0.820
43575W        W 2836  36.587  30.568  10.632
43576W        W 2837  33.059  23.119   1.932
43577W        W 2838  17.677  24.133  12.973
43578W        W 2839  12.351  10.816   4.610
43579W        W 2840  36.895  19.144  10.530
43580W        W 2841  39.828   6.693  12.478
43581W        W 2842  13.282  17.638  12.826
43582W        W 2843  28.036   9.703   2.728
43583W        W 2844  29.476   1.783   4.748
43584W        W 2845  35.506  30.640  12.033
43585W        W 2846   4.431  44.482  13.393
43586W        W 2847  13.107   3.837   4.284
43587W        W 2848  17.610  32.541   3.722
43588W        W 2849  25.488   2.956  13.420
43589W        W 2850  33.620  31.451   4.329
43590W        W 2851  18.197  14.259   0.307
43591W        W 2852  28.976   8.749  10.957
43592W        W 2853  14.594   6.414  14.831
43593W        W 2854   6.872  30.555  14.455
43594W        W 2855  34.004  34.455   3.767
43595W        W 2856  25.530  12.841   4.329
43596W        W 2857   8.777   4.410   2.216
43597W        W 2858   0.981  15.097   4.345
43598W        W 2859  24.616  11.661  11.047
43599W        W 2860   2.301   8.724  11.608
43600W        W 2861  20.104   8.668   4.293
43601W        W 2862  34.374  12.693   2.693
43602W        W 2863  31.952  27.572   2.195
43603W        W 2864  37.445  36.583   0.807
43604W        W 2865  22.053  12.203  11.544
43605W        W 2866   6.328   8.853  14.404
43606W        W 2867  27.001  16.278  12.048
43607W        W 2868  43.289  33.960  11.449
43608W        W 2869  41.304  18.264   0.251
43609W        W 2870   0.876  12.241  11.585
43610W        W 2871   2.374  43.943   0.421
43611W        W 2872  38.511  42.793   1.887
43612W        W 2873  14.746  15.802  11.038
43613W        W 2874  21.155  22.042   2.751
43614W        W 2875  40.854  23.029   1.894
43615W        W 2876  31.516  30.629  13.318
43616W        W 2877  15.179  16.665  13.042
43617W        W 2878  32.615   8.677  11.036
43618W        W 2879  38.964   5.289  13.990
43619W        W 2880  41.379  35.950   0.761
43620W        W 2881  16.298  25.473   2.407
43621W        W 2882  24.525   9.731   1.873
43622W        W 2883  25.505  34.376  12.348
43623W        W 2884  26.530  29.614  12.965
43624W        W 2885  28.009  18.286  13.520
43625W        W 2886   9.809  43.003   0.863
43626W        W 2887   9.343  41.963   1.350
43627W        W 2888  21.515   9.282  13.037
43628W        W 2889  42.423  39.442   1.742
43629W        W 2890  14.276  40.447   4.611
43630W        W 2891  27.474  11.304  13.897
43631W        W 2892  32.112   5.214   0.816
43632W        W 2893  12.709  18.605  10.507
43633W        W 2894   6.885  15.682   3.252
43634W        W 2895  39.452   5.339  12.572
43635W        W 2896   6.784   4.218  12.411
43636W        W 2897   9.667  18.663  13.541
43637W        W 2898  12.782  32.566  13.495
43638W        W 2899  13.749  44.285   3.750
43639W        W 2900  17.622  31.494   2.347
43640W        W 2901  35.016  32.972  12.923
43641W        W 2902   1.962  15.711   4.671
43642W        W 2903  26.199   7.737  13.826
43643W        W 2904  15.814  33.012  13.033
43644W        W 2905  20.250   6.346   3.715
43645W        W 2906  22.685  13.722  13.816
43646W        W 2907  11.638  26.111  11.104
43647W        W 2908  11.196  28.970   3.849
43648W        W 2909  13.141  32.438   0.352
43649W        W 2910  43.387  43.996  14.962
43650W        W 2911  30.147  15.167  12.824
43651W        W 2912   2.754  12.764  14.366
43652W        W 2913  21.078  26.626   0.958
43653W        W 2914  14.589  26.059   2.361
43654W        W 2915  30.552   3.436  10.443
43655W        W 2916  10.286  19.534   4.730
43656W        W 2917  26.557  36.963  11.458
43657W        W 2918  32.585  10.314  12.578
43658W        W 2919  26.601  12.266  14.916
43659W        W 2920  20.739  26.100   1.339
43660W        W 2921  12.179  17.773  13.802
43661W        W 2922  41.889   0.324  10.482
43662W        W 2923  14.265   0.927   1.828
43663W        W 2924  23.545  43.270   0.875
43664W        W 2925   7.228  18.784   3.308
43665W        W 2926  31.086  43.790  14.849
43666W        W 2927  32.961   0.763  13.370
43667W        W 2928  25.122  34.046  11.584
43668W        W 2929  37.516  16.237  12.442
43669W        W 2930  23.512  15.754  12.055
43670W        W 2931   8.334  27.589  13.483
43671W        W 2932   1.947  20.584  12.842
43672W        W 2933  42.785  21.650  11.108
43673W        W 2934  37.033  31.631   1.897
43674W        W 2935  26.661  23.558   4.214
43675W        W 2936  35.422  11.868   5.295
43676W        W 2937   8.836   2.763  12.935
43677W        W 2938  40.866  41.912  10.910
43678W        W 2939  13.788  25.183  14.811
43679W        W 2940  14.191   7.807   3.841
43680W        W 2941  21.542   3.913   4.684
43681W        W 2942  42.826  22.092   4.178
43682W        W 2943  18.771  11.775   4.124
43683W        W 2944  43.271  21.079  14.380
43684W        W 2945  33.003   3.337  11.046
43685W        W 2946  24.092  17.175  13.486
43686W        W 2947  20.738  32.067  14.295
43687W        W 2948  27.472  37.436  12.438
43688W        W 2949   0.977   3.250   0.908
43689W        W 2950  29.037  39.905   1.701
43690W        W 2951   4.905  43.433   2.781
43691W        W 2952  26.592   5.328   0.746
43692W        W 2953  27.121  28.073   1.699
43693W        W 2954   2.734  37.034   0.819
43694W        W 2955  14.733  26.699   2.244
43695W        W 2956  44.371  30.014   3.216
43696W        W 2957  14.717  29.459   1.373
43697W        W 2958  18.637  19.245   2.859
43698W        W 2959   5.775  29.589   2.763
43699W        W 2960  43.979  10.854  10.469
43700W        W 2961  32.888   2.360   4.601
43701W        W 2962  23.100   3.721   4.330
43702W        W 2963  16.720   7.204   2.243
43703W        W 2964  22.129  33.616   1.824
43704W        W 2965   2.330  24.106  11.475
43705W        W 2966   5.425  17.063  11.491
43706W        W 2967  34.960  44.397  10.627
43707W        W 2968  24.600   6.769  13.915
43708W        W 2969  44.816  42.007   2.408
43709W        W 2970  14.701  30.536   4.269
43710W        W 2971  39.031  30.931  10.587
43711W        W 2972   3.723  32.932  12.921
43712W        W 2973  30.485  16.597   1.791
43713W        W 2974  36.028  44.808  12.953
43714W        W 2975  11.713   8.163   0.864
43715W        W 2976   7.225   5.841   4.800
43716W        W 2977  29.456  12.645   5.083
43717W        W 2978  27.631  23.055  12.842
43718W        W 2979   1.785  42.008   3.651
43719W        W 2980  32.487   9.264   4.349
43720W        W 2981  19.052  26.660  11.431
43721W        W 2982  39.393  19.261  11.054
43722W        W 2983  12.330  16.716   0.371
43723W        W 2984  21.753  43.871   1.931
43724W        W 2985  33.414  38.462  12.058
43725W        W 2986  12.148  20.716  14.914
43726W        W 2987  11.747  38.483   3.712
43727W        W 2988  25.129  34.884  13.966
43728W        W 2989  44.478  12.161  14.329
43729W        W 2990  22.541  39.936   1.442
43730W        W 2991  24.689  37.905   0.269
43731W        W 2992  35.902  10.306  14.869
43732W        W 2993  33.087  32.956  14.300
43733W        W 2994   6.784  41.314  10.473
43734W        W 2995  21.735  40.035   5.188
43735W        W 2996  26.534   7.374  11.517
43736W        W 2997  36.866  14.779  13.328
43737W        W 2998  23.163  43.962   3.839
43738W        W 2999  34.093  42.513   4.774
43739W        W 3000  27.065  33.412  13.972
43740W        W 3001  27.996  43.463  13.004
43741W        W 3002  24.514  29.003  12.874
43742W        W 3003  27.502  42.843   0.425
43743W        W 3004   6.773  23.701  11.426
43744W        W 3005  13.202  40.802   4.299
43745W        W 3006  41.406   2.909   4.609
43746W        W 3007  44.893  41.376   3.818
43747W        W 3008  40.547  27.120  14.966
43748W        W 3009  32.944   3.834   3.834
43749W        W 3010  43.387   1.325   2.849
43750W        W 3011  25.566  31.602  14.338
43751W        W 3012  15.308  30.059   4.220
43752W        W 3013  29.121  10.725  11.091
43753W        W 3014   2.776  40.350   0.768
43754W        W 3015  38.951  36.387   0.826
43755W        W 3016   4.344   5.399  11.520
43756W        W 3017  39.537  22.581   4.179
43757W        W 3018   8.345  39.979   4.805
43758W        W 3019  28.666  25.179   4.656
43759W        W 3020  36.476  20.647   2.345
43760W        W 3021  40.380   1.851   4.296
43761W        W 3022  27.561  15.212   3.348
43762W        W 3023  39.527  40.429   1.833
43763W        W 3024  24.714  42.011  12.475
43764W        W 3025  23.193  39.021   4.796
43765W        W 3026  14.188   1.249  10.893
43766W        W 3027  42.357   4.212   2.331
43767W        W 3028  20.733   0.839  14.497
43768W        W 3029   9.193   7.685   4.769
43769W        W 3030  30.146   1.422  10.636
43770W        W 3031   7.241   1.472   4.332
43771W        W 3032  20.267  43.958   1.396
43772W        W 3033  30.484  35.456  13.373
43773W        W 3034  16.791  43.460  14.964
43774W        W 3035  44.326  26.565  10.924
43775W        W 3036  40.029  24.107  14.391
43776W        W 3037   1.407  37.020  14.894
43777W        W 3038  43.500  31.972  12.576
43778W        W 3039  18.668  25.642   1.226
43779W        W 3040  39.020   2.360  13.851
43780W        W 3041  34.091  44.990   2.296
43781W        W 3042   2.852  30.936   2.697
43782W        W 3043  15.266  28.157   2.741
43783W        W 3044  10.691   8.843   3.346
43784W        W 3045  13.615   8.294   2.881
43785W        W 3046   9.345  41.951  12.945
43786W        W 3047  17.087  39.552   1.211
43787W        W 3048   5.270   2.897   4.808
43788W        W 3049  11.754   3.726   3.352
43789W        W 3050  26.206   9.827  13.884
43790W        W 3051  20.145  33.490   0.253
43791W        W 3052  20.158  16.257  12.007
43792W        W 3053  21.540   4.750  12.960
43793W        W 3054  23.517  40.868  11.057
43794W        W 3055  17.245   9.392   1.737
43795W        W 3056  28.497  42.777  13.005
43796W        W 3057  22.719  43.319  14.399
43797W        W 3058  26.561  19.739   2.406
43798W        W 3059  13.678  34.089   1.790
43799W        W 3060  32.071   9.671  10.513
43800W        W 3061  31.945  15.659   5.228
43801W        W 3062  23.226  35.869   0.337
43802W        W 3063  19.723   9.884  11.480
43803W        W 3064  15.160  16.169   0.449
43804W        W 3065  30.025  20.105  11.120
43805W        W 3066   5.904  44.986  11.056
43806W        W 3067  20.211  26.542   1.335
43807W        W 3068  18.556   3.895   4.188
43808W        W 3069  41.300  42.421  12.068
43809W        W 3070  18.692  38.942  13.538
43810W        W 3071  13.764  27.487   1.845
43811W        W 3072  18.113  42.970  11.942
43812W        W 3073   8.774   7.672   9.595
43813W        W 3074  35.417  38.999  13.472
43814W        W 3075  42.784  12.735  13.045
43815W        W 3076  28.677  28.988  13.974
43816W        W 3077  28.503  39.866   3.281
43817W        W 3078   8.227  10.813  13.474
43818W        W 3079  34.608  35.897  10.921
43819W        W 3080  31.592  18.608   3.188
43820W        W 3081  36.043  34.894  12.912
43821W        W 3082  28.134  42.510   5.196
43822W        W 3083  20.148  28.505  14.881
43823W        W 3084  21.742  39.851   0.411
43824W        W 3085  18.775   7.841  14.343
43825W        W 3086  15.281  37.411  12.940
43826W        W 3087  32.441   9.239  13.871
43827W        W 3088   8.826  10.235  12.980
43828W        W 3089  17.292  38.014   4.676
43829W        W 3090  17.183  39.506  12.529
43830W        W 3091  11.689  17.639   1.781
43831W        W 3092  42.438  21.023   1.811
43832W        W 3093  12.759  40.489  11.054
43833W        W 3094  12.241  15.172   3.804
43834W        W 3095  34.020  21.060  14.290
43835W        W 3096   2.912  38.970   1.768
43836W        W 3097  12.199  33.932  13.940
43837W        W 3098  24.979  13.700   1.796
43838W        W 3099  41.335  35.514  13.507
43839W        W 3100  41.429  41.007  14.870
43840W        W 3101  21.702  29.988  10.907
43841W        W 3102  21.122   9.737  11.044
43842W        W 3103  24.664  35.856   0.413
43843W        W 3104  17.564  28.616  14.376
43844W        W 3105  39.470  25.212   3.808
43845W        W 3106  25.529  41.395  14.946
43846W        W 3107  15.626   4.715   2.680
43847W        W 3108  27.109  26.616  11.543
43848W        W 3109  21.018  15.805   3.696
43849W        W 3110   5.873  25.703  11.032
43850W        W 3111  16.300   8.762  11.114
43851W        W 3112   6.887  10.787   1.923
43852W        W 3113   0.283  13.175   2.783
43853W        W 3114   6.281  26.954   1.248
43854W        W 3115  16.298   4.376   0.887
43855W        W 3116  12.178   4.714   1.320
43856W        W 3117   7.703  19.090   0.371
43857W        W 3118  31.431  29.635  11.606
43858W        W 3119  15.158  34.022  13.525
43859W        W 3120  43.341  37.418   3.347
43860W        W 3121   3.235   5.773  10.052
43861W        W 3122  20.203  12.160   0.940
43862W        W 3123  19.763  11.311   1.857
43863W        W 3124  37.078  33.906  14.821
43864W        W 3125  28.118  33.555  14.858
43865W        W 3126  37.976  23.507   0.827
43866W        W 3127  38.443  28.010   1.735
43867W        W 3128  25.189  23.021  12.032
43868W        W 3129  25.057  34.488   0.749
43869W        W 3130   7.686   4.421  12.958
43870W        W 3131  25.046  31.477   0.385
43871W        W 3132  43.385  29.135   1.215
43872W        W 3133   1.978  27.975  12.405
43873W        W 3134  35.923  24.196  13.879
43874W        W 3135   7.698  22.704  14.440
43875W        W 3136  28.664  20.204   2.352
43876W        W 3137  19.191  19.239   0.739
43877W        W 3138  34.424   2.326  10.523
43878W        W 3139   7.375   4.887   1.730
43879W        W 3140   8.731  27.682  14.943
43880W        W 3141  27.186  40.413  10.531
43881W        W 3142  23.582  12.197  14.766
43882W        W 3143  36.557  26.651   2.773
43883W        W 3144  44.280   0.984   1.358
43884W        W 3145  15.662   5.307   0.895
43885W        W 3146  31.637  24.124  13.546
43886W        W 3147   0.288  35.955   2.296
43887W        W 3148  31.120  10.212  13.908
43888W        W 3149  38.539  17.247  11.434
43889W        W 3150  30.536  24.671  14.001
43890W        W 3151  27.578  25.590   2.740
43891W        W 3152  39.043   3.882   1.349
43892W        W 3153  19.066   8.771  12.463
43893W        W 3154   2.967   2.229  14.452
43894W        W 3155  31.933  38.465  10.161
43895W        W 3156   7.223  27.603  13.479
43896W        W 3157  16.715   8.280  11.904
43897W        W 3158  32.408  15.311  10.979
43898W        W 3159  33.503  12.349   3.766
43899W        W 3160  39.952  26.502  13.333
43900W        W 3161   5.287   2.381   0.337
43901W        W 3162  39.320  16.250   3.247
43902W        W 3163  31.095  29.020  14.414
43903W        W 3164  35.984  23.692   0.317
43904W        W 3165  44.979  35.929   2.888
43905W        W 3166  31.074  44.777  11.903
43906W        W 3167  14.288   5.309  14.822
43907W        W 3168   8.349  21.596   2.224
43908W        W 3169   5.688   5.267  12.856
43909W        W 3170   5.256   4.283   4.331
43910W        W 3171  30.947   5.767   0.352
43911W        W 3172  15.738  29.596  14.330
43912W        W 3173  23.698  20.166  11.025
43913W        W 3174  41.004  25.481  11.051
43914W        W 3175   2.313  23.660   0.735
43915W        W 3176  18.230   3.433   0.399
43916W        W 3177  44.836   3.817  13.980
43917W        W 3178  31.559  17.602  10.997
43918W        W 3179   4.762  34.500   0.482
43919W        W 3180   8.262  17.610  13.850
43920W        W 3181  32.104   5.381   0.337
43921W        W 3182  21.729  26.685   0.459
43922W        W 3183  23.055  15.686  13.530
43923W        W 3184  39.487   8.396   0.859
43924W        W 3185  33.877  24.137  13.526
43925W        W 3186  44.495   7.356  13.989
43926W        W 3187  40.485  41.415  10.079
43927W        W 3188  40.463   8.235  14.821
43928W        W 3189  43.838  14.739  12.855
43929W        W 3190  39.902   1.389  13.945
43930W        W 3191   6.890   8.739  14.311
43931W        W 3192  37.940  19.706   0.861
43932W        W 3193  30.655  16.724   0.358
43933W        W 3194  41.445  15.156  14.406
43934W        W 3195  15.182  36.938  12.005
43935W        W 3196  40.834  30.040   4.275
43936W        W 3197  31.478  39.840   3.304
43937W        W 3198   8.675  13.751   3.679
43938W        W 3199  25.009  37.840  11.413
43939W        W 3200  19.153  40.901  12.361
43940W        W 3201  27.662  22.626   1.218
43941W        W 3202  12.266  13.762  11.426
43942W        W 3203  37.501   4.711   3.812
43943W        W 3204  19.653  44.972   4.244
43944W        W 3205   5.374  15.312  13.012
43945W        W 3206  27.447  14.693   1.239
43946W        W 3207   6.311   1.902   2.379
43947W        W 3208  10.239  41.863  13.528
43948W        W 3209  42.787   8.825   4.261
43949W        W 3210  44.009   8.347   3.167
43950W        W 3211  16.696  33.399  11.423
43951W        W 3212  21.088  29.070   1.311
43952W        W 3213  23.184  38.450   0.324
43953W        W 3214   9.771  44.915   4.676
43954W        W 3215  43.784  35.382   0.415
43955W        W 3216  27.968  37.895   0.443
43956W        W 3217  18.593  39.865   0.743
43957W        W 3218  17.144  20.556   2.416
43958W        W 3219  20.531  30.517  12.350
43959W        W 3220  21.573   8.163   4.700
43960W        W 3221  39.449   0.957   2.342
43961W        W 3222  16.207  34.004   1.395
43962W        W 3223  44.976  30.538  13.936
43963W        W 3224  11.304  30.152  11.499
43964W        W 3225   5.245   5.365   1.922
43965W        W 3226  24.040   1.295  10.489
43966W        W 3227  39.344  13.818   3.783
43967W        W 3228  21.124  40.350   2.386
43968W        W 3229   8.338  11.660  12.927
43969W        W 3230  24.221   2.241   4.815
43970W        W 3231  41.526  16.147  14.854
43971W        W 3232  34.391  38.008  13.376
43972W        W 3233   9.867  31.472  11.530
43973W        W 3234  10.852  44.475  10.959
43974W        W 3235   9.301  19.246  12.863
43975W        W 3236  33.530   2.785  14.366
43976W        W 3237  30.145  42.283   3.161
43977W        W 3238  37.525  22.734  12.963
43978W        W 3239   5.797  14.675  11.102
43979W        W 3240  44.996  14.154  12.385
43980W        W 3241  12.637  41.884  11.979
43981W        W 3242   1.742   6.330  10.412
43982W        W 3243  44.895  14.780   2.903
43983W        W 3244  35.949   2.470  13.518
43984W        W 3245  23.682   6.743  14.969
43985W        W 3246  27.638  16.258  10.582
43986W        W 3247  26.006  17.074   4.195
43987W        W 3248  37.399   1.448  12.543
43988W        W 3249  12.324  27.954  14.996
43989W        W 3250  36.481  14.178   5.143
43990W        W 3251  27.656  16.295   0.883
43991W        W 3252   4.267   4.861  10.601
43992W        W 3253  14.754  15.306  13.023
43993W        W 3254  20.152  16.613  11.391
43994W        W 3255  13.606   1.406  14.002
43995W        W 3256   9.811  28.136  12.082
43996W        W 3257  32.926  44.809  13.402
43997W        W 3258  22.213  33.101   0.840
43998W        W 3259  19.152  39.930  12.991
43999W        W 3260  33.023  22.617  11.597
44000W        W 3261  20.637  34.530   2.211
44001W        W 3262  38.556  12.223  14.988
44002W        W 3263  44.283  32.031   4.268
44003W        W 3264  29.573  14.756   4.256
44004W        W 3265  26.088  18.217   3.838
44005W        W 3266  36.051  17.274  11.124
44006W        W 3267  32.094  25.165  14.501
44007W        W 3268  15.329  42.313  11.602
44008W        W 3269  17.219   5.226  10.158
44009W        W 3270   4.430  39.511   2.796
44010W        W 3271  10.838  15.718   0.324
44011W        W 3272  18.591  36.066   1.845
44012W        W 3273  31.013  27.680  13.056
44013W        W 3274   9.689  31.060   4.682
44014W        W 3275  40.828  42.865  12.548
44015W        W 3276  33.477  16.087  11.511
44016W        W 3277  25.200  40.350  13.866
44017W        W 3278   2.826  31.541   1.302
44018W        W 3279   8.695  10.150   1.898
44019W        W 3280  37.984  31.016   1.753
44020W        W 3281  38.026  42.873  13.519
44021W        W 3282  21.118  29.549   5.307
44022W        W 3283  30.470  38.996   2.675
44023W        W 3284  44.466  13.234   0.331
44024W        W 3285  32.632   0.962  10.486
44025W        W 3286  16.666  43.807   3.359
44026W        W 3287   1.410  30.947   4.322
44027W        W 3288  29.064  23.193  14.435
44028W        W 3289  19.148  31.616  11.001
44029W        W 3290  18.270  30.096   0.391
44030W        W 3291  17.290  13.827   0.743
44031W        W 3292  34.565  27.016   0.844
44032W        W 3293  23.554  40.835  13.344
44033W        W 3294  15.258   5.924  10.486
44034W        W 3295   5.318  42.030  14.782
44035W        W 3296  27.449  35.560  11.411
44036W        W 3297   1.793   2.358  10.991
44037W        W 3298  34.936   5.775  12.893
44038W        W 3299   8.818  24.213  14.945
44039W        W 3300  28.186  14.725  13.955
44040W        W 3301   7.836  41.016   4.310
44041W        W 3302  40.512   6.713  14.427
44042W        W 3303   6.788   0.443  11.409
44043W        W 3304  39.881  18.674  13.982
44044W        W 3305  30.079  23.537  12.401
44045W        W 3306   6.201  33.592   0.425
44046W        W 3307  14.320  23.661   2.328
44047W        W 3308  14.305   6.337   4.352
44048W        W 3309  42.916  40.012   1.321
44049W        W 3310  12.767  26.032  12.979
44050W        W 3311   7.833  20.760   2.682
44051W        W 3312  19.742  33.073  12.489
44052W        W 3313  41.313  35.457   0.389
44053W        W 3314  33.395   3.301  10.480
44054W        W 3315  10.824   9.200  14.875
44055W        W 3316  28.098  23.564  11.445
44056W        W 3317  24.094   3.303  12.011
44057W        W 3318  34.550  41.327   2.863
44058W        W 3319   5.219  34.053   2.727
44059W        W 3320  36.877  34.018  11.381
44060W        W 3321  38.894  32.929  12.023
44061W        W 3322  26.531  14.636   4.598
44062W        W 3323  10.765   9.368   2.374
44063W        W 3324   3.947   0.774   2.306
44064W        W 3325   0.298  11.807  14.022
44065W        W 3326  22.106   4.342  13.795
44066W        W 3327  18.749  11.307   0.455
44067W        W 3328  13.141  16.220   2.848
44068W        W 3329  28.957  34.489  13.546
44069W        W 3330  42.488  22.727   3.745
44070W        W 3331  42.293  37.867  11.454
44071W        W 3332  34.481  32.062   3.688
44072W        W 3333  14.317  34.460  14.023
44073W        W 3334  37.528  30.581   4.696
44074W        W 3335   1.382  32.614   0.863
44075W        W 3336  22.574  33.936   3.239
44076W        W 3337  12.761  14.629   5.208
44077W        W 3338  40.026  40.484   2.351
44078W        W 3339   3.741  29.067  12.917
44079W        W 3340   1.896  14.699   3.762
44080W        W 3341  29.444   6.389  14.502
44081W        W 3342  22.179  15.319   1.342
44082W        W 3343  19.693   9.781   1.714
44083W        W 3344  13.722  43.813   1.411
44084W        W 3345  28.627  42.434  11.099
44085W        W 3346  27.474  43.412  11.607
44086W        W 3347  11.289  18.164   3.706
44087W        W 3348   9.273  39.954  11.950
44088W        W 3349  33.590  29.931   1.435
44089W        W 3350  17.195  34.909   3.247
44090W        W 3351  20.613  27.505  12.072
44091W        W 3352  33.479  32.601   0.909
44092W        W 3353  29.609   2.721   2.779
44093W        W 3354  39.422  16.089  13.496
44094W        W 3355  35.459  33.967   3.802
44095W        W 3356  30.607  26.533   4.284
44096W        W 3357  28.081  20.689   2.332
44097W        W 3358  39.406  11.854  14.469
44098W        W 3359   3.734  22.232   4.625
44099W        W 3360   6.784  41.820  12.341
44100W        W 3361   5.819   3.775   2.677
44101W        W 3362  14.745  42.946   4.781
44102W        W 3363  30.658  23.552  11.922
44103W        W 3364   8.781   6.721   3.167
44104W        W 3365  28.076   8.818  11.984
44105W        W 3366  30.157  15.649   5.150
44106W        W 3367  20.095  25.688   4.651
44107W        W 3368  26.588  43.876  10.577
44108W        W 3369  19.095  19.596   0.375
44109W        W 3370   7.817  26.152   4.173
44110W        W 3371  24.152  40.518  12.508
44111W        W 3372  27.104  38.428   1.841
44112W        W 3373  21.586   1.902   0.777
44113W        W 3374  16.231   0.762   3.810
44114W        W 3375  33.131  22.660   1.750
44115W        W 3376  30.441  20.604  13.412
44116W        W 3377   0.946   6.798   3.778
44117W        W 3378  32.908  44.996  13.920
44118W        W 3379  28.658   6.285  11.073
44119W        W 3380  15.583  19.254   2.251
44120W        W 3381  16.772  32.033   3.807
44121W        W 3382  43.308   1.308  13.479
44122W        W 3383  39.529  41.309  10.972
44123W        W 3384  36.474  36.953   4.341
44124W        W 3385   0.966  42.026  13.411
44125W        W 3386  42.949  28.021  11.431
44126W        W 3387  25.182  18.234   1.782
44127W        W 3388  11.293  43.773   1.711
44128W        W 3389  13.805   2.356   1.857
44129W        W 3390   7.697  11.665   2.792
44130W        W 3391   4.929  31.945   9.943
44131W        W 3392  16.182  31.153  12.096
44132W        W 3393  11.281  13.109  13.353
44133W        W 3394  14.754  43.939  11.400
44134W        W 3395  19.229  20.605  10.907
44135W        W 3396   3.848   3.307  14.007
44136W        W 3397  36.469  32.603  14.760
44137W        W 3398  33.030  16.590  13.495
44138W        W 3399  41.036  44.451   2.329
44139W        W 3400  21.589  21.211  13.348
44140W        W 3401  18.620   9.269  12.873
44141W        W 3402  21.095  36.843   3.191
44142W        W 3403   5.764  15.248   4.716
44143W        W 3404  42.452  30.156   1.821
44144W        W 3405  21.134  29.656   4.227
44145W        W 3406  20.745  28.113   4.830
44146W        W 3407  10.826  27.674   3.244
44147W        W 3408   6.271   8.691  10.637
44148W        W 3409  43.471   1.900  11.472
44149W        W 3410  34.551  33.972   0.931
44150W        W 3411  27.122   1.255  13.062
44151W        W 3412  37.980  11.333   4.217
44152W        W 3413  30.650  41.369   4.176
44153W        W 3414  38.848  41.378   5.151
44154W        W 3415  35.518  29.558  11.421
44155W        W 3416  41.006   1.916   2.301
44156W        W 3417   8.852  43.892   1.213
44157W        W 3418  20.532  20.618   1.250
44158W        W 3419  18.574  30.456  11.555
44159W        W 3420  11.769  11.145  11.430
44160W        W 3421  26.649  41.821  11.880
44161W        W 3422   6.327   8.400  12.861
44162W        W 3423  21.726   8.378  14.024
44163W        W 3424   8.306  32.468  11.981
44164W        W 3425  40.016   1.354   4.793
44165W        W 3426  22.048   4.221   0.783
44166W        W 3427  30.992  15.586   3.792
44167W        W 3428  15.221  16.115  12.541
44168W        W 3429   4.204   7.357   2.187
44169W        W 3430  17.583  18.565   2.379
44170W        W 3431  12.836  37.458  11.477
44171W        W 3432  28.503  16.574   4.217
44172W        W 3433  11.359  17.647  13.487
44173W        W 3434  24.600  43.427  13.040
44174W        W 3435  38.905  16.643  13.840
44175W        W 3436  37.350  39.323   1.416
44176W        W 3437  42.000   3.334   1.928
44177W        W 3438  43.855  21.726  10.948
44178W        W 3439  30.489  25.150   1.728
44179W        W 3440  16.750   5.318  10.450
44180W        W 3441  31.529  24.172   3.334
44181W        W 3442  44.911   6.305   4.632
44182W        W 3443   7.910  44.436   3.317
44183W        W 3444  37.448  32.885  13.918
44184W        W 3445   3.948   1.307   2.761
44185W        W 3446  38.985  38.551   2.670
44186W        W 3447  32.018  13.236  11.906
44187W        W 3448  43.941  36.477   1.352
44188W        W 3449  33.126  16.245  12.531
44189W        W 3450  41.943  41.999  12.516
44190W        W 3451   9.385  31.938  11.064
44191W        W 3452  22.516  43.353  11.001
44192W        W 3453  27.669  26.958  13.467
44193W        W 3454   5.403  13.246  11.461
44194W        W 3455  35.054  35.546   1.848
44195W        W 3456  36.051  10.205  11.439
44196W        W 3457   5.207   5.843   0.742
44197W        W 3458  42.013  12.250  11.903
44198W        W 3459  29.588  18.755  13.854
44199W        W 3460  10.767  25.515   3.227
44200W        W 3461  37.053  35.876   0.904
44201W        W 3462  19.176  35.083  14.351
44202W        W 3463  35.505  23.721   2.698
44203W        W 3464  33.557  23.202   4.126
44204W        W 3465  22.168  15.160  14.433
44205W        W 3466  28.616  38.905   1.379
44206W        W 3467  21.035  22.063   4.777
44207W        W 3468   0.744   2.392  11.898
44208W        W 3469  20.183   2.863   2.221
44209W        W 3470  40.012  30.940  13.056
44210W        W 3471  14.237  33.456   4.828
44211W        W 3472  34.064  24.170   1.891
44212W        W 3473   9.656  37.517   3.686
44213W        W 3474   7.393   4.731   2.211
44214W        W 3475  10.184  35.442   1.904
44215W        W 3476  24.544  27.137   4.309
44216W        W 3477  19.537  15.701  14.285
44217W        W 3478  16.087  42.827  13.412
44218W        W 3479  38.053  15.731  11.075
44219W        W 3480  43.914   2.355   4.231
44220W        W 3481  31.037  32.467  13.877
44221W        W 3482  13.185   6.804  12.473
44222W        W 3483   3.938  29.918  13.323
44223W        W 3484  41.932   0.363   1.383
44224W        W 3485  35.414  32.899   1.435
44225W        W 3486  10.749  32.026  12.561
44226W        W 3487  38.010  38.993   3.330
44227W        W 3488  41.865   1.791  12.092
44228W        W 3489  41.021  21.079   3.765
44229W        W 3490   0.317  31.128   2.708
44230W        W 3491  12.663  25.163   4.687
44231W        W 3492   8.762  36.025  14.921
44232W        W 3493  43.315  23.055  12.553
44233W        W 3494  44.926   1.751  13.347
44234W        W 3495   6.375   5.230   9.962
44235W        W 3496   8.376   9.887  13.928
44236W        W 3497  36.041  30.050   4.329
44237W        W 3498  44.278  43.454  13.519
44238W        W 3499   8.168  22.617   2.184
44239W        W 3500  22.070  11.815   4.834
44240W        W 3501  31.000  32.031   4.352
44241W        W 3502  36.417  19.179  13.478
44242W        W 3503   3.303  13.845  11.427
44243W        W 3504  19.603   2.459   4.225
44244W        W 3505  23.055  13.223   4.294
44245W        W 3506  36.395  24.139   4.679
44246W        W 3507  21.528  10.326  11.115
44247W        W 3508  42.879  24.647   3.869
44248W        W 3509   0.451  20.154  14.836
44249W        W 3510  13.316  37.894   2.819
44250W        W 3511  37.892   6.280   4.234
44251W        W 3512  19.573  30.050   4.610
44252W        W 3513  27.467  22.612   1.864
44253W        W 3514  31.108  28.069  11.528
44254W        W 3515   1.461  39.410   1.721
44255W        W 3516   9.203  13.678   4.681
44256W        W 3517   9.297  27.159  10.607
44257W        W 3518  17.726  24.134   1.705
44258W        W 3519  13.710  20.117  14.411
44259W        W 3520   6.824   0.882   1.233
44260W        W 3521  16.660  15.804   4.721
44261W        W 3522   2.472  18.566  11.522
44262W        W 3523   0.472   1.322  13.379
44263W        W 3524  32.398  25.092  14.508
44264W        W 3525  44.394  19.064  14.857
44265W        W 3526  12.620   3.264   2.226
44266W        W 3527  15.181  31.040   1.845
44267W        W 3528  33.955   1.864   4.114
44268W        W 3529  42.359   7.716  14.284
44269W        W 3530  33.003  19.559   2.302
44270W        W 3531  17.686  40.800  11.926
44271W        W 3532  37.510  10.140   4.813
44272W        W 3533  36.924   4.877   3.175
44273W        W 3534   1.371   7.793   0.942
44274W        W 3535  12.255  21.653  10.462
44275W        W 3536  21.720  36.943   0.853
44276W        W 3537  36.081  39.014   2.762
44277W        W 3538  15.793  19.276  14.910
44278W        W 3539  33.405  40.465  11.877
44279W        W 3540  16.731   0.348  13.890
44280W        W 3541  20.737  17.149  12.427
44281W        W 3542   7.359  34.552  11.063
44282W        W 3543  37.414   5.804   4.694
44283W        W 3544  16.202  32.027   4.703
44284W        W 3545  37.420  29.060   1.243
44285W        W 3546  25.522  22.225  14.342
44286W        W 3547  44.301  30.456   0.827
44287W        W 3548  25.032   5.395  13.383
44288W        W 3549  30.949  26.592  11.554
44289W        W 3550  40.363  10.141  13.001
44290W        W 3551  44.819  25.611   2.411
44291W        W 3552  35.938   4.708  13.414
44292W        W 3553   8.669   1.288  10.587
44293W        W 3554  44.457   6.206   2.876
44294W        W 3555  44.910  31.540   2.827
44295W        W 3556  27.452  23.007  10.468
44296W        W 3557  34.559  20.762   0.934
44297W        W 3558  26.121  12.252  10.940
44298W        W 3559  30.019  42.480  11.099
44299W        W 3560  35.374  35.478  14.442
44300W        W 3561  31.024   5.272   3.295
44301W        W 3562  17.279  19.056  14.830
44302W        W 3563  34.458  42.813   2.387
44303W        W 3564  42.947  21.513   0.884
44304W        W 3565  16.675  44.363   1.800
44305W        W 3566  32.105  41.370   1.314
44306W        W 3567  14.697  40.354  13.353
44307W        W 3568  11.713  16.187   9.516
44308W        W 3569  37.074  35.572   5.179
44309W        W 3570  15.608  40.353  11.115
44310W        W 3571  36.023  32.890   1.264
44311W        W 3572  28.952   0.757  14.467
44312W        W 3573  22.606  17.729   3.854
44313W        W 3574   3.738  44.429   0.316
44314W        W 3575  15.747   7.847  14.878
44315W        W 3576  31.478   4.898  13.330
44316W        W 3577  33.508  33.427  12.951
44317W        W 3578   6.704  21.684   4.673
44318W        W 3579  41.945  28.035   0.932
44319W        W 3580  22.080  10.676  13.010
44320W        W 3581   2.886   0.251   3.644
44321W        W 3582  35.515   9.161   3.643
44322W        W 3583  41.810   0.777  14.504
44323W        W 3584  23.532  43.811   2.700
44324W        W 3585  28.976  37.065   0.951
44325W        W 3586  26.496  12.359   0.312
44326W        W 3587  34.479  11.256  10.594
44327W        W 3588  30.618  25.110  10.980
44328W        W 3589  26.549  20.267  10.498
44329W        W 3590  36.483  37.549  13.801
44330W        W 3591  44.363   4.216   1.816
44331W        W 3592   3.420  41.400   3.203
44332W        W 3593   2.775  35.477  12.339
44333W        W 3594  38.562  13.728   0.884
44334W        W 3595  25.714   3.217   4.293
44335W        W 3596  20.614  25.072   3.668
44336W        W 3597  20.734   3.752  11.912
44337W        W 3598   6.381  30.099  11.942
44338W        W 3599  37.057  40.360  11.110
44339W        W 3600  11.367  12.776  14.856
44340W        W 3601  39.349  39.836   1.299
44341W        W 3602  34.045  37.880  12.057
44342W        W 3603  22.642  14.682  13.011
44343W        W 3604  10.173  30.084   4.691
44344W        W 3605  23.585  34.491  14.871
44345W        W 3606  19.612  16.250   4.307
44346W        W 3607  24.548  13.601  13.875
44347W        W 3608  30.439   2.855   4.154
44348W        W 3609  18.229   6.286  13.485
44349W        W 3610  17.754   3.952   0.428
44350W        W 3611  33.513   1.942   4.252
44351W        W 3612  13.160  37.523   0.943
44352W        W 3613  26.659  15.303  14.336
44353W        W 3614  20.142  16.602   0.871
44354W        W 3615  12.713  24.980  14.030
44355W        W 3616  20.105  43.802  14.417
44356W        W 3617  19.284  41.349  10.955
44357W        W 3618  33.617   4.902   1.364
44358W        W 3619  43.276  19.617   3.712
44359W        W 3620   3.458   9.307  13.006
44360W        W 3621  28.077  44.273   4.756
44361W        W 3622  23.125  11.338  10.988
44362W        W 3623  41.862  30.553   3.353
44363W        W 3624  33.579  18.226   9.971
44364W        W 3625   8.349  22.044   4.731
44365W        W 3626  18.140  29.103   5.765
44366W        W 3627  13.308  29.969  12.961
44367W        W 3628  38.365  38.826   1.398
44368W        W 3629  27.666  26.481  12.442
44369W        W 3630  19.760  13.239   1.862
44370W        W 3631   4.744  42.452   0.323
44371W        W 3632  21.575   1.405   1.444
44372W        W 3633  23.224  37.551   2.352
44373W        W 3634  15.665  31.147   4.257
44374W        W 3635  37.514   4.717  14.424
44375W        W 3636  43.433  35.474   2.678
44376W        W 3637  16.616  32.012  12.458
44377W        W 3638   3.779  35.482   3.365
44378W        W 3639  13.632  11.655  12.345
44379W        W 3640   2.399  32.097  12.507
44380W        W 3641   8.828   0.463  13.924
44381W        W 3642   6.790  26.010   0.743
44382W        W 3643  38.397  40.896   2.777
44383W        W 3644  35.042   2.761   3.698
44384W        W 3645  18.114  30.650   1.923
44385W        W 3646  41.887  16.570  10.448
44386W        W 3647  25.616  32.591   1.886
44387W        W 3648  39.426  14.104   2.388
44388W        W 3649  26.660   4.266   2.832
44389W        W 3650   7.857  29.589  13.473
44390W        W 3651  34.604  36.483  11.869
44391W        W 3652  33.982  15.317   4.783
44392W        W 3653   3.323  24.180  11.579
44393W        W 3654  32.043  40.501  14.495
44394W        W 3655  34.379  19.092  12.445
44395W        W 3656  36.051   1.244  12.029
44396W        W 3657  19.252  22.584   0.764
44397W        W 3658   0.363  25.196  12.880
44398W        W 3659  39.853  31.080  13.332
44399W        W 3660   6.352  28.176   1.289
44400W        W 3661  12.686  11.294   1.310
44401W        W 3662   8.331   6.287  10.919
44402W        W 3663  33.015  32.409  13.990
44403W        W 3664   0.929   4.385   1.701
44404W        W 3665   7.396   5.412  12.888
44405W        W 3666  21.154  19.185  13.990
44406W        W 3667  43.828  27.008  11.865
44407W        W 3668  44.367  31.419   3.258
44408W        W 3669  20.149  32.589   3.210
44409W        W 3670  26.494  18.761   2.335
44410W        W 3671  42.812  22.732  10.500
44411W        W 3672   9.868  40.349   1.301
44412W        W 3673   7.317  15.147   0.905
44413W        W 3674   5.420   8.837   1.390
44414W        W 3675   2.470  38.995  13.361
44415W        W 3676  19.679  41.394   4.648
44416W        W 3677  30.524   0.461  10.576
44417W        W 3678  26.580   3.863   2.310
44418W        W 3679  18.578  20.028  14.788
44419W        W 3680  36.353  40.491   2.673
44420W        W 3681  43.796  44.843  11.919
44421W        W 3682   5.703  12.820  10.960
44422W        W 3683   6.404  42.304  14.345
44423W        W 3684  24.136  43.840   3.772
44424W        W 3685  13.620  36.384   2.336
44425W        W 3686  32.123  38.369  10.908
44426W        W 3687   2.425  41.823   4.661
44427W        W 3688  43.838  10.816  11.947
44428W        W 3689  15.806   5.243  14.470
44429W        W 3690   4.442  39.371  10.497
44430W        W 3691  32.889   5.742   4.830
44431W        W 3692   0.295  34.477   3.366
44432W        W 3693  42.383  35.484  10.608
44433W        W 3694   2.862  34.546  12.915
44434W        W 3695  16.581  38.493  13.872
44435W        W 3696  34.562  24.977   2.275
44436W        W 3697  31.624  41.538   3.832
44437W        W 3698  31.920  32.049   0.356
44438W        W 3699  26.103  41.480   2.806
44439W        W 3700  22.610  21.545   5.235
44440W        W 3701   1.898  37.511   2.892
44441W        W 3702   5.879  36.968  10.535
44442W        W 3703  12.646  17.704   1.898
44443W        W 3704  22.746  30.642  12.475
44444W        W 3705  10.867  13.633   1.351
44445W        W 3706  42.492   7.340  11.119
44446W        W 3707   5.352  32.459   4.622
44447W        W 3708   0.781  11.764   0.352
44448W        W 3709  13.819  28.987  12.957
44449W        W 3710  23.575  20.660   3.250
44450W        W 3711  42.813  13.210   2.395
44451W        W 3712   7.888  16.272   2.228
44452W        W 3713  32.545  26.550  13.532
44453W        W 3714  15.273  43.906  13.485
44454W        W 3715  15.643  29.547  12.992
44455W        W 3716  31.922  38.067   4.836
44456W        W 3717   4.784  17.099   1.822
44457W        W 3718  36.970  40.821   5.710
44458W        W 3719  37.045   1.322   4.128
44459W        W 3720   9.672  21.048   0.816
44460W        W 3721  42.337  40.449   2.871
44461W        W 3722  14.178  12.837   1.417
44462W        W 3723  23.065   2.826  13.413
44463W        W 3724   7.793  38.870   4.782
44464W        W 3725  31.926   3.348   1.357
44465W        W 3726  30.437  31.526   4.781
44466W        W 3727  26.140  20.052   0.756
44467W        W 3728   3.368   7.857  10.433
44468W        W 3729  25.668   9.671  12.547
44469W        W 3730   9.274  23.610  13.042
44470W        W 3731  43.379  35.895  11.882
44471W        W 3732  10.710  35.893   4.748
44472W        W 3733  37.469  13.200  12.440
44473W        W 3734  30.940  41.535  13.356
44474W        W 3735   2.918  42.003  12.543
44475W        W 3736  39.514  32.138   4.626
44476W        W 3737  37.432  19.568  14.435
44477W        W 3738   8.284   9.235   1.448
44478W        W 3739  26.094   8.865   0.465
44479W        W 3740   4.260  30.589  13.468
44480W        W 3741   8.405  28.986  14.448
44481W        W 3742  11.185  15.813   0.953
44482W        W 3743   1.465  20.141  12.372
44483W        W 3744   8.658  39.015  12.883
44484W        W 3745   3.762  29.169   4.336
44485W        W 3746  15.721  17.632   0.384
44486W        W 3747  37.832  10.173  11.993
44487W        W 3748  42.295   5.407  11.072
44488W        W 3749  36.854  10.301   2.692
44489W        W 3750   1.772  35.481   0.947
44490W        W 3751  26.094   0.437   4.786
44491W        W 3752   9.772   3.827   1.716
44492W        W 3753   8.815  20.211   3.269
44493W        W 3754   4.708  26.549   3.660
44494W        W 3755  31.011  16.303   0.841
44495W        W 3756  41.334  22.095   3.680
44496W        W 3757  42.349  44.873  11.981
44497W        W 3758  44.010  12.720  13.435
44498W        W 3759  10.759  44.450  12.426
44499W        W 3760  40.331  14.254   2.742
44500W        W 3761  23.539  22.605   1.836
44501W        W 3762  41.939   1.931  12.910
44502W        W 3763  17.747   5.227   0.279
44503W        W 3764  35.411  35.924  11.014
44504W        W 3765  15.579  32.576   0.751
44505W        W 3766   4.327  17.675  12.031
44506W        W 3767  41.912  16.614   0.913
44507W        W 3768  14.196  42.956   0.252
44508W        W 3769  33.975  21.234   3.302
44509W        W 3770  10.352  17.703   4.813
44510W        W 3771  42.339  31.105  10.899
44511W        W 3772  16.689  26.664   0.271
44512W        W 3773   4.716  27.619   3.317
44513W        W 3774  25.628  37.087  11.121
44514W        W 3775  30.636   4.261   4.638
44515W        W 3776  20.559  30.013   3.728
44516W        W 3777   3.829  26.680   0.824
44517W        W 3778  24.975  28.606  14.780
44518W        W 3779  38.460  26.009  12.543
44519W        W 3780  42.010  20.074  11.007
44520W        W 3781  41.487  30.161  13.384
44521W        W 3782  41.416  44.394  14.372
44522W        W 3783  16.661   5.271   5.220
44523W        W 3784  26.062  28.560  13.979
44524W        W 3785  26.168  12.837   4.708
44525W        W 3786  41.930  14.783  13.846
44526W        W 3787  17.643  40.855  12.886
44527W        W 3788  23.100   1.856   4.797
44528W        W 3789  25.117  17.623   4.167
44529W        W 3790  26.000  40.357   2.419
44530W        W 3791  16.576  27.055  13.935
44531W        W 3792  34.610   4.334  13.346
44532W        W 3793  37.501  24.558   3.267
44533W        W 3794   5.283  17.680   0.841
44534W        W 3795  25.093  12.126  12.957
44535W        W 3796  36.939  31.023   1.254
44536W        W 3797  38.443  31.407  12.957
44537W        W 3798   0.872  36.364  11.427
44538W        W 3799  31.436  29.174   4.613
44539W        W 3800  28.029  13.268   0.360
44540W        W 3801   3.838  28.586   4.804
44541W        W 3802  22.215   3.730   0.933
44542W        W 3803  35.978  37.024   1.406
44543W        W 3804  25.999  32.972  10.458
44544W        W 3805  41.362   3.438   4.799
44545W        W 3806   4.374   6.343   0.265
44546W        W 3807  33.983   1.842   0.400
44547W        W 3808   5.334   3.902  12.572
44548W        W 3809  31.966   5.691  12.474
44549W        W 3810  37.890  44.838  11.595
44550W        W 3811  12.817  40.338  10.451
44551W        W 3812  20.092  40.377  12.006
44552W        W 3813  22.108  26.548   0.803
44553W        W 3814  44.403  12.289  11.552
44554W        W 3815  32.894  14.327  14.958
44555W        W 3816  13.189  40.922  10.971
44556W        W 3817   3.422  12.690   3.359
44557W        W 3818  36.424  32.622  11.016
44558W        W 3819   9.652  38.367  11.872
44559W        W 3820   0.407   7.864   4.632
44560W        W 3821  35.927  22.141  13.485
44561W        W 3822  23.647  11.340   4.621
44562W        W 3823  17.140  25.652   0.947
44563W        W 3824  32.513  34.981   0.403
44564W        W 3825  38.834  36.878   5.198
44565W        W 3826  43.911  13.613   4.741
44566W        W 3827   2.966  35.562   2.876
44567W        W 3828  23.122  14.641  12.826
44568W        W 3829   3.418  28.178   0.369
44569W        W 3830  30.123  22.113   4.275
44570W        W 3831  19.610   1.383   2.826
44571W        W 3832  26.185   0.925  10.906
44572W        W 3833  22.020  33.433  14.027
44573W        W 3834  26.471   5.932  13.316
44574W        W 3835  44.977  28.614   2.195
44575W        W 3836  44.424  43.373  11.541
44576W        W 3837   2.949  41.889  14.292
44577W        W 3838   7.800  35.090  11.072
44578W        W 3839   1.966  10.209  10.080
44579W        W 3840  18.761   4.434  12.417
44580W        W 3841  19.627   8.685   0.929
44581W        W 3842   1.781  23.553  13.364
44582W        W 3843  30.601  40.871   1.352
44583W        W 3844  41.816  42.346  10.555
44584W        W 3845  25.660  33.102  11.959
44585W        W 3846  41.850  38.947  10.051
44586W        W 3847   4.725  26.951  13.486
44587W        W 3848  22.093   7.260   4.648
44588W        W 3849   8.792   7.260  11.926
44589W        W 3850  32.527  33.006  12.546
44590W        W 3851   8.166   9.260   4.202
44591W        W 3852   2.870  14.670   3.647
44592W        W 3853   6.289   1.962  11.113
44593W        W 3854  30.605  31.549  13.931
44594W        W 3855   5.893  34.910   2.847
44595W        W 3856  10.211   1.771  10.990
44596W        W 3857  25.558  17.171   2.260
44597W        W 3858  26.068  16.314  11.476
44598W        W 3859  33.392  25.965   2.267
44599W        W 3860  40.503  35.075   3.212
44600W        W 3861  44.440   9.180   0.953
44601W        W 3862  35.099  44.843  11.579
44602W        W 3863  32.006   2.859   1.327
44603W        W 3864  26.191  35.900  13.835
44604W        W 3865   8.170  21.554   0.459
44605W        W 3866   4.913   6.237   1.786
44606W        W 3867   8.206  19.701   3.764
44607W        W 3868  20.113  10.713  11.558
44608W        W 3869  25.069  26.109   5.799
44609W        W 3870  34.525  38.431   2.674
44610W        W 3871  29.072  36.509  12.047
44611W        W 3872  23.520  40.957   4.787
44612W        W 3873   8.740  30.029  11.467
44613W        W 3874  26.981   1.380   4.352
44614W        W 3875  25.104  29.634  13.962
44615W        W 3876  15.273   7.371   1.788
44616W        W 3877   7.857   2.849   0.470
44617W        W 3878  41.341   5.864   4.622
44618W        W 3879   0.924   5.809  11.075
44619W        W 3880  36.009  14.786  10.481
44620W        W 3881  38.929   1.237   2.198
44621W        W 3882  32.096  10.171   0.787
44622W        W 3883  30.924  34.024  10.945
44623W        W 3884  33.419   8.224   4.348
44624W        W 3885  27.517  27.112   5.245
44625W        W 3886  29.595  37.482  12.982
44626W        W 3887  42.381  26.698  12.960
44627W        W 3888  25.020  36.372  10.469
44628W        W 3889  43.351  31.067   1.348
44629W        W 3890   2.257  23.612  14.443
44630W        W 3891  28.989   9.234  11.450
44631W        W 3892  36.390  42.308  13.526
44632W        W 3893  24.222  25.515  14.980
44633W        W 3894  13.125  34.100   2.196
44634W        W 3895   3.952  21.230   0.953
44635W        W 3896  41.834  10.800   1.881
44636W        W 3897  41.303  42.280   3.803
44637W        W 3898  30.527  11.633   9.513
44638W        W 3899  20.082  12.223   3.156
44639W        W 3900  44.857  27.125   0.871
44640W        W 3901   2.302  12.751   3.367
44641W        W 3902  22.202  11.349  14.964
44642W        W 3903   4.428  27.128  11.121
44643W        W 3904  23.555  18.550   0.337
44644W        W 3905  15.276  11.366  10.620
44645W        W 3906   7.781  32.077  12.064
44646W        W 3907  16.084   4.846   2.350
44647W        W 3908  12.286   7.736  14.826
44648W        W 3909  14.722   6.234   0.308
44649W        W 3910  17.065  13.168   4.209
44650W        W 3911  30.977  31.554   0.286
44651W        W 3912  28.174  28.007  12.365
44652W        W 3913  19.175  21.624   3.756
44653W        W 3914  27.541  32.614   2.799
44654W        W 3915  35.898  19.583   3.259
44655W        W 3916   1.309  30.071  13.926
44656W        W 3917   0.388  28.059   1.372
44657W        W 3918  37.411   6.265   3.358
44658W        W 3919   9.704  25.989  12.373
44659W        W 3920  13.232  32.953  10.565
44660W        W 3921  41.335  44.325   3.676
44661W        W 3922  36.059  25.580   1.222
44662W        W 3923  27.494  25.005   2.804
44663W        W 3924  18.171   3.239   0.874
44664W        W 3925  41.975   3.434  13.817
44665W        W 3926  14.734  37.380   2.328
44666W        W 3927  24.566  32.622  13.385
44667W        W 3928  25.159   8.226  14.483
44668W        W 3929   7.207  25.515   1.249
44669W        W 3930  36.058  18.770  11.103
44670W        W 3931  40.436  25.517  14.357
44671W        W 3932  23.633  38.499  11.543
44672W        W 3933  38.897   7.828   3.311
44673W        W 3934  37.502   8.225   2.294
44674W        W 3935  37.495   1.907  14.913
44675W        W 3936  11.839  41.477   0.749
44676W        W 3937  33.938  16.291   3.640
44677W        W 3938  38.383  29.918   1.395
44678W        W 3939   3.950   9.696  10.609
44679W        W 3940   0.348   4.901   0.942
44680W        W 3941  41.411  17.284   5.307
44681W        W 3942  38.461  42.330   2.389
44682W        W 3943  17.124  18.214   2.788
44683W        W 3944   9.240  15.137   1.766
44684W        W 3945  12.723  22.581  13.382
44685W        W 3946  10.669  13.631   4.285
44686W        W 3947  35.081  37.991   3.369
44687W        W 3948  31.065  32.607  11.110
44688W        W 3949  37.577  44.288  11.503
44689W        W 3950  44.442   4.269   2.381
44690W        W 3951  14.307  28.535   9.454
44691W        W 3952  20.085  22.131   0.729
44692W        W 3953  21.620   7.396   3.235
44693W        W 3954  36.999  16.301  12.551
44694W        W 3955  20.575  30.519   0.304
44695W        W 3956  21.190   0.822  14.846
44696W        W 3957  16.195  15.176  12.579
44697W        W 3958  44.347   0.284   3.797
44698W        W 3959   0.888  28.596  12.505
44699W        W 3960  17.115   4.765   0.276
44700W        W 3961   7.696   4.778   0.290
44701W        W 3962  44.263  15.596   0.366
44702W        W 3963  43.274   5.380   1.924
44703W        W 3964  15.807  13.745   2.704
44704W        W 3965  37.533  10.169   4.123
44705W        W 3966  30.416  26.104   1.784
44706W        W 3967  43.440  11.692  11.103
44707W        W 3968  27.690  19.089   3.721
44708W        W 3969  23.039  42.987   1.214
44709W        W 3970  23.733  17.706   1.747
44710W        W 3971  18.159  31.617  14.404
44711W        W 3972   6.906  33.421   2.822
44712W        W 3973  24.195  26.205  14.447
44713W        W 3974  26.583   0.977  13.865
44714W        W 3975   6.825  15.707   3.694
44715W        W 3976  27.133  23.061   3.252
44716W        W 3977  12.119  31.040   2.892
44717W        W 3978  28.134  24.204  14.407
44718W        W 3979   5.714  42.499   4.744
44719W        W 3980  18.064  31.132   9.652
44720W        W 3981  23.561  39.420  14.016
44721W        W 3982  35.083   9.665   2.253
44722W        W 3983   9.698   3.735   9.990
44723W        W 3984  17.085   6.263  13.343
44724W        W 3985   9.711   8.819   2.809
44725W        W 3986  32.997  23.681  10.480
44726W        W 3987  30.646  32.907  10.973
44727W        W 3988  38.863  41.851  11.039
44728W        W 3989  44.806  24.667   4.235
44729W        W 3990   5.438  10.363  13.531
44730W        W 3991  43.827  22.024   0.730
44731W        W 3992   9.751  29.056   1.296
44732W        W 3993   5.399  38.533   1.219
44733W        W 3994  11.691  11.286   0.278
44734W        W 3995  38.877  39.515  10.025
44735W        W 3996  22.644  13.693  14.887
44736W        W 3997  11.259   2.774  11.087
44737W        W 3998  18.563  37.396   1.256
44738W        W 3999   9.809  34.460  11.405
44739W        W 4000  32.601   7.676  10.485
44740W        W 4001   8.671  29.437  10.404
44741W        W 4002   6.906  39.057   0.345
44742W        W 4003  42.479  31.028   3.811
44743W        W 4004  30.482  10.284  13.986
44744W        W 4005  18.616  23.545   2.207
44745W        W 4006  12.320  21.134   2.757
44746W        W 4007  38.415  42.936  13.398
44747W        W 4008  42.987   1.946   4.311
44748W        W 4009  16.604  40.042  12.416
44749W        W 4010  38.025  11.811  12.040
44750W        W 4011  41.402  18.616  14.487
44751W        W 4012  20.740  44.465  14.031
44752W        W 4013  15.757  13.138   1.347
44753W        W 4014  26.624  20.127  14.373
44754W        W 4015  12.696  37.534   5.125
44755W        W 4016  21.592  36.506  12.439
44756W        W 4017   6.197  35.095   4.760
44757W        W 4018   6.365  28.548  13.829
44758W        W 4019  37.009  44.419   1.929
44759W        W 4020  44.844  35.383  14.000
44760W        W 4021  37.460  20.178   0.816
44761W        W 4022  33.427  43.368   0.341
44762W        W 4023   2.773  19.599  11.433
44763W        W 4024   6.247  26.528  13.918
44764W        W 4025   8.656  23.049   3.236
44765W        W 4026  32.116  38.368  14.457
44766W        W 4027  30.916  32.483   4.793
44767W        W 4028  43.892  34.927  10.495
44768W        W 4029   4.751   1.805   2.191
44769W        W 4030   4.895  26.181  12.026
44770W        W 4031  28.486   7.177   2.695
44771W        W 4032  27.010   6.198   1.294
44772W        W 4033  22.724  30.046  13.478
44773W        W 4034  25.078  18.766  11.532
44774W        W 4035  38.558  31.912  10.502
44775W        W 4036  40.032  12.254   0.870
44776W        W 4037  20.243   3.754  12.917
44777W        W 4038  31.897   0.980   0.397
44778W        W 4039  23.492  21.104  14.818
44779W        W 4040  22.655  34.947  12.079
44780W        W 4041  16.661  23.550   1.443
44781W        W 4042   2.332  40.928   2.700
44782W        W 4043  35.526  38.967   0.933
44783W        W 4044  24.156  29.653  11.477
44784W        W 4045  28.983   5.852  13.831
44785W        W 4046  21.106  24.619   3.288
44786W        W 4047  21.202   4.751  12.026
44787W        W 4048  12.649  10.384   2.865
44788W        W 4049  23.556   8.771  13.944
44789W        W 4050  12.805  29.489   1.328
44790W        W 4051  34.589  34.062   4.122
44791W        W 4052  21.209   6.220  14.839
44792W        W 4053  11.774   9.805   3.242
44793W        W 4054  23.140  22.112   4.191
44794W        W 4055  37.905  39.333   3.632
44795W        W 4056  33.992  36.927   0.296
44796W        W 4057  22.057  24.158  10.029
44797W        W 4058  40.847  11.156   0.453
44798W        W 4059  26.689  31.140  12.855
44799W        W 4060  27.087  39.427  10.928
44800W        W 4061  15.789  11.224  13.532
44801W        W 4062  16.142  36.902  11.591
44802W        W 4063   6.728  13.330  10.999
44803W        W 4064  34.000  39.443  14.300
44804W        W 4065  20.048  33.983  11.452
44805W        W 4066  21.117  26.081   2.211
44806W        W 4067  16.233  21.708  10.435
44807W        W 4068  12.776   3.886   3.248
44808W        W 4069   0.376  31.436  14.863
44809W        W 4070  19.054  29.663   4.625
44810W        W 4071  11.685  16.755   4.298
44811W        W 4072  39.988  19.223   1.312
44812W        W 4073  14.319  43.817   1.735
44813W        W 4074  32.535   4.772  13.001
44814W        W 4075  34.996  31.947  11.471
44815W        W 4076  44.431  43.005   0.460
44816W        W 4077  32.967   6.762   1.222
44817W        W 4078   7.205  21.670   2.836
44818W        W 4079  31.059   9.220  13.995
44819W        W 4080  44.274  25.185   2.732
44820W        W 4081  15.183  15.150  12.406
44821W        W 4082  30.517  23.993   0.962
44822W        W 4083  27.950  22.128  14.798
44823W        W 4084  19.579   9.877  13.875
44824W        W 4085  33.108  37.398  12.457
44825W        W 4086  18.087  30.054  10.610
44826W        W 4087   9.153  21.229  13.333
44827W        W 4088  39.003  28.086   3.693
44828W        W 4089  20.199  28.656   0.962
44829W        W 4090  35.387  19.191  12.952
44830W        W 4091  26.489  28.537   4.709
44831W        W 4092  14.662  16.293  11.613
44832W        W 4093  16.108   6.293  10.472
44833W        W 4094  11.319  20.595  11.983
44834W        W 4095  37.003  30.542   3.783
44835W        W 4096  12.153  34.460  14.462
44836W        W 4097  32.088  29.602   3.768
44837W        W 4098   7.816  30.601   1.826
44838W        W 4099   9.802  29.599   4.696
44839W        W 4100  39.471   6.333  14.859
44840W        W 4101   9.320  32.961   2.899
44841W        W 4102  10.819   8.243   1.825
44842W        W 4103  33.616  29.516   2.896
44843W        W 4104  27.999   3.802   4.838
44844W        W 4105  41.451  13.220   3.826
44845W        W 4106  14.628  25.210  12.358
44846W        W 4107  44.270  22.675   0.917
44847W        W 4108   4.361  35.944  11.943
44848W        W 4109  10.257  20.061   0.844
44849W        W 4110   3.886  29.526   3.839
44850W        W 4111  14.785  43.428   0.384
44851W        W 4112  37.378  16.673  13.987
44852W        W 4113  12.361  13.752   9.964
44853W        W 4114  40.515  42.383   3.757
44854W        W 4115  15.592  23.720   4.246
44855W        W 4116   6.250  28.446  13.011
44856W        W 4117  17.281  42.440  11.977
44857W        W 4118  11.867  17.735  10.140
44858W        W 4119  13.258  17.768   4.130
44859W        W 4120  13.639   3.770   2.881
44860W        W 4121  37.541  30.540   2.386
44861W        W 4122  24.042  14.627  14.421
44862W        W 4123  33.949  12.290  11.519
44863W        W 4124  24.995   7.681   0.754
44864W        W 4125   1.808  18.632  11.534
44865W        W 4126  15.761   0.834  11.534
44866W        W 4127   5.851   3.406  13.926
44867W        W 4128   8.901  40.864   2.802
44868W        W 4129   7.875  24.111  11.434
44869W        W 4130  32.411   8.878  10.412
44870W        W 4131  33.465  33.966   9.608
44871W        W 4132  12.735   6.273   1.354
44872W        W 4133   6.319  34.916  14.417
44873W        W 4134  22.657  44.782   1.441
44874W        W 4135  42.368  34.402  14.424
44875W        W 4136  13.759  31.631   0.753
44876W        W 4137  17.766  10.852  10.519
44877W        W 4138  33.489  12.614  10.452
44878W        W 4139   9.857  40.037  12.085
44879W        W 4140  35.445   4.832   4.672
44880W        W 4141  39.553  12.216  11.116
44881W        W 4142  30.945  10.275   0.314
44882W        W 4143  37.060  30.973  13.377
44883W        W 4144  11.127  34.431   1.814
44884W        W 4145  17.609  12.277  13.367
44885W        W 4146  43.011  41.791   3.369
44886W        W 4147  26.600  15.250   2.866
44887W        W 4148  25.624  14.697  11.069
44888W        W 4149   2.458  18.266  10.118
44889W        W 4150  12.341  31.608   0.847
44890W        W 4151   6.803  29.104   2.397
44891W        W 4152   3.339  40.322   4.324
44892W        W 4153   0.276  29.612   4.335
44893W        W 4154  44.799  22.214  10.407
44894W        W 4155  29.591  21.551  14.485
44895W        W 4156   9.837  40.325   4.159
44896W        W 4157  36.447  13.720   3.750
44897W        W 4158  10.695   2.776  14.868
44898W        W 4159  39.497   3.879   4.206
44899W        W 4160  42.019  12.781  13.389
44900W        W 4161  17.228  11.832  10.900
44901W        W 4162   5.708   3.944  10.946
44902W        W 4163   7.345   9.189  12.868
44903W        W 4164  36.020  26.614   0.330
44904W        W 4165  15.201  26.469  12.476
44905W        W 4166  44.293  43.804  13.496
44906W        W 4167   7.394  10.737  12.493
44907W        W 4168   5.306  11.313   2.797
44908W        W 4169  38.543  24.495   4.274
44909W        W 4170   1.343  34.971  14.437
44910W        W 4171  27.594  12.285   2.387
44911W        W 4172  42.023   0.344   4.710
44912W        W 4173  16.306  31.117   2.418
44913W        W 4174  28.599  22.168   4.763
44914W        W 4175  44.935   8.212   2.696
44915W        W 4176   9.166  21.734  12.945
44916W        W 4177   5.267   4.212   2.799
44917W        W 4178   1.336  30.097   0.421
44918W        W 4179  19.549  10.799  13.548
44919W        W 4180  40.480  28.648   2.199
44920W        W 4181  33.879  26.192   0.890
44921W        W 4182  20.657  19.645   3.673
44922W        W 4183  39.464  37.885  12.034
44923W        W 4184  39.823  44.360  11.384
44924W        W 4185  19.771  13.340   1.398
44925W        W 4186  35.597  28.554  14.390
44926W        W 4187  16.150  16.293  13.511
44927W        W 4188  43.362  38.853   4.778
44928W        W 4189  32.063  37.438  10.982
44929W        W 4190  39.884   6.225  13.873
44930W        W 4191  33.431  34.894   0.798
44931W        W 4192   2.739  13.791   1.749
44932W        W 4193  28.671  19.686  13.356
44933W        W 4194  33.036   9.380   0.449
44934W        W 4195  29.101  30.914  12.863
44935W        W 4196  23.028  20.115  12.424
44936W        W 4197   5.286  27.970  13.399
44937W        W 4198  14.620   3.847   1.795
44938W        W 4199  23.039  13.769  14.815
44939W        W 4200  15.312  34.961  14.949
44940W        W 4201  36.883   0.256  12.973
44941W        W 4202   4.845  42.981   2.389
44942W        W 4203  41.388   2.939   2.216
44943W        W 4204  16.638  34.946  12.077
44944W        W 4205  23.160  11.332  13.381
44945W        W 4206  23.706   6.398   3.697
44946W        W 4207   9.860  26.078  10.894
44947W        W 4208  17.662  27.551   3.222
44948W        W 4209   2.308  13.817  11.489
44949W        W 4210   8.332  11.254  10.470
44950W        W 4211   3.437  11.683  14.868
44951W        W 4212  23.603  38.420   4.295
44952W        W 4213   0.907  11.373  11.972
44953W        W 4214   5.731  36.556   1.773
44954W        W 4215  29.431  23.193  14.020
44955W        W 4216  17.794   1.459  14.824
44956W        W 4217  13.678   3.741  12.833
44957W        W 4218  19.659   6.269   0.258
44958W        W 4219  40.454  37.861  14.275
44959W        W 4220   0.766  39.911   4.733
44960W        W 4221   3.308  17.064   3.256
44961W        W 4222  38.420  16.753   2.811
44962W        W 4223   6.687  25.059  13.408
44963W        W 4224  21.722  44.336   1.269
44964W        W 4225  13.341  23.577  11.953
44965W        W 4226   5.927  37.388   1.210
44966W        W 4227   5.417  16.694   2.721
44967W        W 4228  14.301  27.122  14.927
44968W        W 4229  44.876  20.095   0.770
44969W        W 4230  27.586  13.272   1.696
44970W        W 4231   1.818  29.968   0.400
44971W        W 4232  14.704  28.010   3.349
44972W        W 4233  37.509  42.005  13.516
44973W        W 4234  11.173   4.910   3.748
44974W        W 4235  42.408  23.050  14.966
44975W        W 4236  43.955  16.590   4.242
44976W        W 4237   2.890  28.958   4.710
44977W        W 4238   8.680   0.823   2.353
44978W        W 4239  24.119  27.589  11.008
44979W        W 4240  37.547  10.860  11.510
44980W        W 4241   7.406  13.127  10.421
44981W        W 4242  22.101  35.442   3.314
44982W        W 4243  32.433  43.322   1.831
44983W        W 4244   5.280  37.084  14.320
44984W        W 4245  29.933  15.202   1.794
44985W        W 4246  27.045  30.496   1.244
44986W        W 4247  23.151  10.174  12.902
44987W        W 4248  12.273  21.693   4.333
44988W        W 4249  11.342  23.532   2.377
44989W        W 4250  33.876   9.200  12.056
44990W        W 4251   9.794  37.564   1.405
44991W        W 4252  16.104  22.104  13.817
44992W        W 4253  28.114  12.174  13.814
44993W        W 4254   0.409  31.989  14.511
44994W        W 4255  42.343  32.894   4.752
44995W        W 4256  33.074  26.566   2.833
44996W        W 4257   0.437  29.989   0.337
44997W        W 4258  19.270   9.735  14.398
44998W        W 4259  37.889   3.294   0.790
44999W        W 4260  33.061  38.556  10.914
45000W        W 4261  24.573   7.755  11.920
45001W        W 4262   0.384  20.543  12.551
45002W        W 4263  21.536  15.295  12.371
45003W        W 4264  35.412  44.982   3.375
45004W        W 4265  15.686  29.490   4.791
45005W        W 4266  15.239  18.274   0.782
45006W        W 4267  41.876  20.088   4.273
45007W        W 4268  32.923  41.946  13.799
45008W        W 4269  30.150  15.269  11.567
45009W        W 4270  20.527   6.316   4.299
45010W        W 4271  26.982  21.230  13.517
45011W        W 4272  20.608  32.436   1.242
45012W        W 4273  37.056  21.546   1.769
45013W        W 4274  22.011  39.873   1.842
45014W        W 4275  39.425   9.832   0.330
45015W        W 4276  23.033  14.124  12.843
45016W        W 4277   2.843  40.498   0.386
45017W        W 4278  28.548   6.264   4.647
45018W        W 4279  16.657   9.815   0.246
45019W        W 4280   0.830  13.257   4.666
45020W        W 4281  38.419  26.672   0.337
45021W        W 4282  13.644  11.759  11.583
45022W        W 4283  15.672  37.913  14.854
45023W        W 4284  12.154   9.883   1.437
45024W        W 4285   4.349  35.383   3.775
45025W        W 4286   2.401  39.361  12.868
45026W        W 4287   2.424  19.766  12.343
45027W        W 4288   4.415  33.609  14.353
45028W        W 4289  42.999  24.992  12.045
45029W        W 4290  22.109  18.069   1.704
45030W        W 4291  11.156  31.110  11.380
45031W        W 4292   8.223  18.603   1.914
45032W        W 4293  19.679   0.389  12.965
45033W        W 4294  24.120  26.645   4.260
45034W        W 4295  37.369  39.059   2.889
45035W        W 4296  35.853  13.252   2.684
45036W        W 4297   4.703  34.431  13.047
45037W        W 4298   4.237   8.276   3.231
45038W        W 4299  30.099  11.844  10.531
45039W        W 4300  32.963   3.456   5.133
45040W        W 4301   8.785  39.925   3.384
45041W        W 4302  15.087  38.424   1.927
45042W        W 4303  38.468  37.851   3.819
45043W        W 4304  21.609  12.181   2.816
45044W        W 4305   1.893   5.228  10.490
45045W        W 4306  43.826  34.423   4.805
45046W        W 4307  16.282   9.764   3.238
45047W        W 4308  12.722  39.851  11.592
45048W        W 4309  13.754  33.942   3.340
45049W        W 4310  37.458  18.729   1.869
45050W        W 4311  39.515  40.813  11.441
45051W        W 4312  30.653  10.823  13.382
45052W        W 4313   1.938  37.868  14.809
45053W        W 4314   3.351  22.074  14.010
45054W        W 4315  27.979  24.010   3.734
45055W        W 4316  43.831  43.952  11.510
45056W        W 4317  23.714  30.998   1.272
45057W        W 4318  22.621  21.250  13.465
45058W        W 4319  10.313  17.266   3.793
45059W        W 4320  43.887  11.235   3.854
45060W        W 4321   8.354  41.326  14.347
45061W        W 4322  42.791  44.959  13.536
45062W        W 4323  30.983  17.080  11.888
45063W        W 4324  25.702   8.678   3.159
45064W        W 4325  44.314  40.473   3.868
45065W        W 4326   4.759  29.173  11.551
45066W        W 4327   9.665  23.557  12.073
45067W        W 4328  28.607  15.141  12.578
45068W        W 4329   0.440  25.086  14.313
45069W        W 4330  28.130  41.303  10.567
45070W        W 4331  11.739  42.931  14.841
45071W        W 4332  24.554  19.735   2.179
45072W        W 4333  25.043  36.407  11.900
45073W        W 4334  11.803   3.795  13.844
45074W        W 4335  21.551  39.065   3.333
45075W        W 4336  34.989  14.811   4.253
45076W        W 4337   7.330   1.305  13.813
45077W        W 4338  15.598   0.843  12.445
45078W        W 4339  34.533  31.097  12.056
45079W        W 4340  36.951   9.837   2.212
45080W        W 4341   3.772  19.565   1.234
45081W        W 4342  35.498  44.900   5.668
45082W        W 4343  36.883   7.315   0.316
45083W        W 4344  27.950  44.357  13.938
45084W        W 4345  26.552  37.998   1.724
45085W        W 4346   7.410   7.830  10.913
45086W        W 4347  25.046  22.113   3.818
45087W        W 4348  26.660  26.095  14.961
45088W        W 4349  37.467  20.695   1.418
45089W        W 4350  32.529  13.724  14.500
45090W        W 4351  10.185  35.408   4.123
45091W        W 4352   1.272  26.030  11.916
45092W        W 4353  21.578  32.945   2.864
45093W        W 4354  31.031   8.218   2.275
45094W        W 4355   9.342  19.691   0.767
45095W        W 4356  44.919  32.123   0.755
45096W        W 4357  44.764  11.335  12.906
45097W        W 4358  10.186  42.470  14.884
45098W        W 4359   4.258  44.982   2.415
45099W        W 4360  16.629  30.972   9.926
45100W        W 4361  25.602  34.606  10.570
45101W        W 4362  24.516  19.606  10.887
45102W        W 4363  24.560  24.520   1.735
45103W        W 4364  34.546  10.163   4.326
45104W        W 4365   8.740   9.239  10.482
45105W        W 4366  26.479  41.332   4.811
45106W        W 4367  19.685  27.506  12.476
45107W        W 4368  14.688  30.086   3.187
45108W        W 4369  36.979  15.628   3.183
45109W        W 4370   2.267  16.164   0.422
45110W        W 4371  16.601  15.175   4.747
45111W        W 4372  20.172  39.430   0.371
45112W        W 4373   6.339  19.737   2.390
45113W        W 4374  17.773  42.022  14.306
45114W        W 4375  34.501  39.861  11.388
45115W        W 4376  12.785  28.648  10.935
45116W        W 4377  41.370  25.533  12.943
45117W        W 4378   0.463  22.725  13.347
45118W        W 4379  24.085  28.113   1.778
45119W        W 4380  17.588  25.556  12.366
45120W        W 4381  43.783  38.037   1.328
45121W        W 4382  38.425  20.225   1.361
45122W        W 4383  38.982   2.896   1.278
45123W        W 4384  11.148  37.482  12.496
45124W        W 4385  13.718   5.233  14.924
45125W        W 4386  11.704  18.240   0.899
45126W        W 4387  35.474   5.907  10.556
45127W        W 4388  22.096  20.533  14.859
45128W        W 4389  31.113  42.031  14.441
45129W        W 4390  33.585  27.643  10.561
45130W        W 4391  27.096  34.882  13.494
45131W        W 4392  44.275  19.664  12.051
45132W        W 4393  25.622   4.438  10.920
45133W        W 4394   4.898   4.774  11.881
45134W        W 4395  30.500  44.476   4.350
45135W        W 4396  43.866   8.726  14.920
45136W        W 4397  29.014  43.288   4.683
45137W        W 4398  29.154   6.391  14.409
45138W        W 4399  12.174  18.689   1.304
45139W        W 4400  40.503  30.628  11.015
45140W        W 4401  29.032  24.534  14.378
45141W        W 4402  34.109  41.949  14.308
45142W        W 4403   6.784   3.338   2.901
45143W        W 4404   0.889  30.083  14.330
45144W        W 4405   3.251  35.423   1.278
45145W        W 4406  14.329  38.452   3.721
45146W        W 4407   2.723   7.691   0.946
45147W        W 4408  13.164  32.036   4.646
45148W        W 4409  20.055   2.903   0.387
45149W        W 4410   2.418  31.591  12.347
45150W        W 4411  29.983  40.336   1.723
45151W        W 4412   1.275  37.942  10.462
45152W        W 4413  17.236   7.172  14.848
45153W        W 4414  37.574  41.377   2.252
45154W        W 4415  38.484  10.363  14.019
45155W        W 4416  24.547  34.027   2.770
45156W        W 4417  23.137  39.941  13.979
45157W        W 4418  18.070  22.511   0.959
45158W        W 4419   5.314  37.077  12.923
45159W        W 4420  28.001  24.191   4.830
45160W        W 4421  35.995   5.418   0.340
45161W        W 4422  38.515  41.028   3.365
45162W        W 4423  34.880  18.148   4.304
45163W        W 4424   5.757  43.270  11.956
45164W        W 4425  26.191  11.766   1.329
45165W        W 4426  40.541   7.793  10.460
45166W        W 4427  29.498  36.450  13.806
45167W        W 4428  21.084  20.727  10.467
45168W        W 4429  18.661   2.792  11.875
45169W        W 4430  21.702   5.823   1.904
45170W        W 4431   2.853  31.964  11.459
45171W        W 4432  17.285  33.393   4.833
45172W        W 4433  24.520   8.874  14.008
45173W        W 4434  13.697  17.555  14.786
45174W        W 4435  39.981  16.112   0.282
45175W        W 4436  13.762  15.191   1.701
45176W        W 4437  39.523  39.462   2.313
45177W        W 4438  32.898  21.540   4.620
45178W        W 4439  25.968  19.279   1.772
45179W        W 4440   5.741  31.030  12.431
45180W        W 4441  22.600  12.725   2.400
45181W        W 4442  37.474  41.501  11.465
45182W        W 4443  33.398  17.259   3.738
45183W        W 4444  42.292  39.937  14.275
45184W        W 4445  13.235  38.343  12.946
45185W        W 4446  39.844  29.527  12.884
45186W        W 4447  29.624  38.328   2.861
45187W        W 4448  30.453  22.599  14.467
45188W        W 4449  11.203  13.328   1.431
45189W        W 4450   9.717   0.398  13.511
45190W        W 4451  21.229  40.983   9.973
45191W        W 4452  23.082  42.457   1.397
45192W        W 4453  30.990  38.843   3.864
45193W        W 4454  11.288  31.008  13.826
45194W        W 4455  12.356  33.567  11.020
45195W        W 4456  44.274   5.926  14.419
45196W        W 4457  41.976  38.878  13.813
45197W        W 4458  35.431  23.626   0.430
45198W        W 4459  30.498   9.758  13.457
45199W        W 4460   8.197  15.300   5.701
45200W        W 4461  20.760  31.542   0.296
45201W        W 4462  39.368  27.130  14.800
45202W        W 4463   1.801  13.761   0.415
45203W        W 4464  10.694  23.213   3.152
45204W        W 4465  42.981  18.739   0.423
45205W        W 4466   7.745  13.643  11.526
45206W        W 4467  20.035  43.331  11.393
45207W        W 4468  38.375  12.768  10.518
45208W        W 4469  19.167  22.115   5.184
45209W        W 4470  30.994  25.542   2.683
45210W        W 4471   4.384  43.814  13.458
45211W        W 4472   1.264  21.153  13.993
45212W        W 4473  29.633  20.533  10.490
45213W        W 4474  11.641  37.390  10.418
45214W        W 4475  34.429   3.759   3.363
45215W        W 4476   4.377  15.626  14.358
45216W        W 4477  21.657   3.759  11.466
45217W        W 4478  10.647  19.574  10.953
45218W        W 4479  17.073  26.168  14.027
45219W        W 4480  26.046  12.132  14.818
45220W        W 4481   7.782  25.484   1.905
45221W        W 4482   7.253  43.471  11.992
45222W        W 4483  33.957  43.900   4.632
45223W        W 4484  16.795  35.564  10.482
45224W        W 4485  10.765   0.302  13.996
45225W        W 4486  25.590  44.449  12.497
45226W        W 4487  33.068  35.563  14.453
45227W        W 4488   5.746  26.952   1.714
45228W        W 4489  16.112  38.009   3.163
45229W        W 4490  33.091  24.199   3.367
45230W        W 4491  14.226  24.021  14.319
45231W        W 4492  28.161   4.298   0.932
45232W        W 4493  25.695  12.724   1.866
45233W        W 4494   1.736  11.779  14.342
45234W        W 4495  10.822  38.488   4.608
45235W        W 4496  14.622  35.863   5.315
45236W        W 4497   8.399  44.869   0.784
45237W        W 4498  39.324  22.125   0.820
45238W        W 4499  22.613  19.653  14.409
45239W        W 4500   8.750   3.366  12.902
45240W        W 4501  40.798  37.977   3.721
45241W        W 4502   7.402  23.039  11.973
45242W        W 4503  19.283  16.799  10.047
45243W        W 4504   3.265  40.858  14.905
45244W        W 4505  19.584   8.676   4.778
45245W        W 4506  15.675  23.656  14.292
45246W        W 4507  16.268  15.308  14.489
45247W        W 4508  10.862  43.774   0.806
45248W        W 4509  20.113  35.031   2.389
45249W        W 4510   7.280  34.489   2.235
45250W        W 4511  22.076   0.416   0.471
45251W        W 4512  23.500   7.779   4.738
45252W        W 4513   2.926   6.809   2.777
45253W        W 4514  19.609   0.286   0.266
45254W        W 4515  40.967  18.224  12.918
45255W        W 4516  26.586  15.589   2.249
45256W        W 4517  44.909   5.310   0.752
45257W        W 4518   6.279  33.988  12.535
45258W        W 4519  35.437   0.847  10.462
45259W        W 4520  11.335  40.870   3.679
45260W        W 4521   8.751  39.419   4.782
45261W        W 4522   3.426  17.709   2.341
45262W        W 4523  27.090  12.339  14.762
45263W        W 4524  32.114  40.828   2.728
45264W        W 4525  34.399   0.888  13.889
45265W        W 4526  42.348  10.357  13.943
45266W        W 4527  13.143  29.613   0.898
45267W        W 4528  12.799  32.102   1.838
45268W        W 4529   7.671   8.765  12.482
45269W        W 4530  40.846  10.669  13.870
45270W        W 4531  12.212  27.547  11.119
45271W        W 4532  21.078   9.723   2.316
45272W        W 4533  22.111  18.603   0.245
45273W        W 4534  37.053  14.670  10.562
45274W        W 4535   1.269  18.660  10.469
45275W        W 4536  26.457  29.484   1.306
45276W        W 4537  19.592  25.628   0.248
45277W        W 4538  12.671  41.294   2.313
45278W        W 4539  42.285  33.918  13.313
45279W        W 4540  24.695  33.414  10.983
45280W        W 4541   8.288  41.495  11.919
45281W        W 4542  34.565  24.101  10.508
45282W        W 4543  35.550  16.733  13.486
45283W        W 4544  29.080   4.447  14.310
45284W        W 4545   4.255   4.210   2.763
45285W        W 4546   7.237  42.831   2.833
45286W        W 4547   3.936  19.664   2.295
45287W        W 4548  17.730  35.492   2.684
45288W        W 4549  11.787  23.697   1.416
45289W        W 4550   6.680  27.097   3.640
45290W        W 4551  34.097  33.617   4.746
45291W        W 4552  34.893   4.273   0.752
45292W        W 4553  35.515  34.518  14.957
45293W        W 4554  17.704  32.045  12.919
45294W        W 4555  19.566  13.236   2.186
45295W        W 4556   7.878   1.869   3.737
45296W        W 4557  10.251  12.359  12.880
45297W        W 4558  13.115  34.384   3.735
45298W        W 4559  20.245  29.966   4.348
45299W        W 4560  43.406  30.106   0.933
45300W        W 4561  40.945   0.903  12.080
45301W        W 4562   9.715  10.754  11.992
45302W        W 4563   0.748   0.976   4.152
45303W        W 4564  40.904   5.344  11.536
45304W        W 4565  32.447  38.331   2.398
45305W        W 4566   5.267  44.002  13.836
45306W        W 4567  41.899   4.852   0.926
45307W        W 4568  35.860   7.183   3.678
45308W        W 4569  19.611   1.732  13.853
45309W        W 4570  43.828  10.642  13.439
45310W        W 4571  12.282  41.328   2.706
45311W        W 4572   8.750  44.478   5.188
45312W        W 4573  14.631  20.733   2.339
45313W        W 4574  43.848  33.976  14.786
45314W        W 4575  32.441  14.232   5.638
45315W        W 4576  38.431  27.954  11.884
45316W        W 4577   7.718   2.886  11.511
45317W        W 4578  14.781  15.318   1.329
45318W        W 4579  30.652   5.721  12.531
45319W        W 4580  36.074  16.765   4.826
45320W        W 4581   8.164  21.680  10.631
45321W        W 4582  13.810   2.440  11.585
45322W        W 4583   8.228  29.450  11.970
45323W        W 4584  23.712  17.578   2.348
45324W        W 4585  40.860  31.912  10.018
45325W        W 4586  37.387  21.614   4.337
45326W        W 4587  32.050  12.140  13.384
45327W        W 4588  16.791   4.787   3.192
45328W        W 4589  37.003   0.484  12.430
45329W        W 4590   4.793   4.233   1.822
45330W        W 4591   4.897  29.647  13.872
45331W        W 4592  40.819  15.183  11.393
45332W        W 4593  26.552  19.079   3.350
45333W        W 4594  40.890  23.604   2.307
45334W        W 4595  17.133  26.657   1.233
45335W        W 4596  15.326  35.401  14.374
45336W        W 4597  42.884  21.255   3.807
45337W        W 4598  14.728  15.090   1.716
45338W        W 4599  40.870   5.890   1.819
45339W        W 4600  34.109  36.931   3.175
45340W        W 4601  39.384  41.299  14.460
45341W        W 4602   6.320   9.361   1.892
45342W        W 4603  42.281  26.631  12.576
45343W        W 4604   8.888  31.897   0.944
45344W        W 4605  32.975  24.486   3.213
45345W        W 4606   0.322  20.112  10.903
45346W        W 4607  21.556  38.402   3.736
45347W        W 4608  12.661  29.437  10.583
45348W        W 4609  27.544   8.248   2.335
45349W        W 4610  25.478  22.569   4.139
45350W        W 4611  11.654  31.473  14.888
45351W        W 4612  33.402   5.741  13.963
45352W        W 4613  39.374  28.964  11.432
45353W        W 4614   6.724   5.723  13.417
45354W        W 4615  42.923  22.706  14.979
45355W        W 4616   4.714  27.139  11.448
45356W        W 4617   1.399  20.142   0.284
45357W        W 4618  37.857  11.666  11.093
45358W        W 4619   0.356  41.953   3.230
45359W        W 4620  20.036   0.294   2.232
45360W        W 4621  24.042  19.711  11.410
45361W        W 4622  33.914  44.811   3.672
45362W        W 4623  28.145   8.358   2.309
45363W        W 4624  40.485  10.360  14.920
45364W        W 4625  26.584  16.697   4.604
45365W        W 4626  16.163  21.021  10.154
45366W        W 4627  37.002  37.981   2.237
45367W        W 4628  20.126   5.928  10.986
45368W        W 4629  35.454   7.905   4.148
45369W        W 4630  43.976   7.317  14.350
45370W        W 4631   3.779  36.903  14.325
45371W        W 4632  13.165  26.594   9.957
45372W        W 4633  38.357  36.907   5.232
45373W        W 4634  30.982  35.520   1.306
45374W        W 4635  40.003  29.526   0.806
45375W        W 4636  30.054  37.373  13.017
45376W        W 4637  24.202  37.915   3.700
45377W        W 4638  31.458  33.446   3.686
45378W        W 4639   3.829  22.170  13.390
45379W        W 4640  25.045   0.896   5.249
45380W        W 4641  10.299   3.871  12.827
45381W        W 4642  20.187  26.555   4.152
45382W        W 4643   7.372  37.847   2.840
45383W        W 4644  29.605  43.278  14.484
45384W        W 4645  31.437   7.357  10.608
45385W        W 4646  18.736  36.996  12.916
45386W        W 4647  16.781   6.775   3.870
45387W        W 4648  30.621   9.727  11.476
45388W        W 4649   8.184   9.736   0.828
45389W        W 4650  44.286  27.075   1.915
45390W        W 4651  17.098  26.527  10.980
45391W        W 4652  15.817   8.334   0.387
45392W        W 4653  11.816  39.847  12.399
45393W        W 4654  41.382  23.125   2.215
45394W        W 4655   9.823  14.266  10.512
45395W        W 4656   1.344  34.545  10.444
45396W        W 4657   2.774  10.695   4.171
45397W        W 4658  42.443  41.888  13.794
45398W        W 4659   8.179  28.660   0.898
45399W        W 4660  29.077  19.595   5.312
45400W        W 4661  22.539  29.542   3.352
45401W        W 4662  18.604   0.892   3.764
45402W        W 4663   0.920  25.624   0.316
45403W        W 4664  19.718  31.040  10.530
45404W        W 4665  37.987  26.139  14.505
45405W        W 4666   0.370  33.087  10.952
45406W        W 4667   5.842  26.989   3.721
45407W        W 4668  13.784  28.449  13.974
45408W        W 4669   7.174   6.680  11.557
45409W        W 4670   1.317  41.343   3.702
45410W        W 4671  43.824  21.123   3.782
45411W        W 4672  20.055  38.821  11.540
45412W        W 4673  13.735   4.751  12.468
45413W        W 4674   4.419   9.885  12.865
45414W        W 4675  22.188  22.232   3.637
45415W        W 4676  15.120  29.518  13.528
45416W        W 4677   1.442  14.685   4.742
45417W        W 4678  32.138  18.560  14.812
45418W        W 4679   5.919  40.494  13.425
45419W        W 4680  26.497  37.456  14.304
45420W        W 4681  21.042   3.416  12.506
45421W        W 4682   8.726  19.242  14.495
45422W        W 4683  14.211  35.896  11.507
45423W        W 4684  19.138  30.583  12.430
45424W        W 4685  22.118  34.569   4.783
45425W        W 4686  41.038  26.027  11.514
45426W        W 4687  38.346  40.435  13.914
45427W        W 4688   3.441   6.358   3.803
45428W        W 4689  22.705  27.132  12.022
45429W        W 4690  21.059  28.629  14.950
45430W        W 4691  34.556  40.540  11.021
45431W        W 4692  44.787  10.286   1.401
45432W        W 4693  33.585  12.333  10.910
45433W        W 4694  12.670  29.560  12.092
45434W        W 4695  27.510  13.297  11.862
45435W        W 4696  30.160  33.616   1.776
45436W        W 4697   1.287   2.292  11.875
45437W        W 4698  27.573   5.697  12.357
45438W        W 4699  11.694  19.734   3.175
45439W        W 4700  16.570   0.761  10.532
45440W        W 4701  35.602  39.041   3.748
45441W        W 4702  11.207  15.159  14.365
45442W        W 4703   0.803  20.573  12.074
45443W        W 4704  18.074   5.349   3.825
45444W        W 4705  44.009   5.720   2.339
45445W        W 4706  27.568  29.081   2.220
45446W        W 4707  23.567  12.815  10.599
45447W        W 4708  40.397  41.437  13.374
45448W        W 4709   7.752   4.933  12.362
45449W        W 4710   5.234  28.669   1.297
45450W        W 4711   7.841  35.997   3.174
45451W        W 4712  14.798  15.725   0.448
45452W        W 4713   7.206  23.151  12.938
45453W        W 4714  17.609   5.784   1.212
45454W        W 4715  41.519  15.806  14.019
45455W        W 4716  39.909  17.135   0.315
45456W        W 4717  11.642  19.561   0.462
45457W        W 4718  23.566  41.420   3.272
45458W        W 4719   5.782  15.258   2.805
45459W        W 4720  35.079  33.877  14.392
45460W        W 4721  27.041  17.636   4.832
45461W        W 4722  15.199  39.364   0.351
45462W        W 4723   7.276   5.910  13.482
45463W        W 4724  40.886  28.610  14.967
45464W        W 4725  30.941  18.732   1.301
45465W        W 4726  33.569  20.640   0.319
45466W        W 4727  27.557  33.009  13.062
45467W        W 4728  25.638  16.114   2.833
45468W        W 4729  30.503  22.157   0.739
45469W        W 4730   7.704  11.273   3.691
45470W        W 4731  21.167  35.410  13.524
45471W        W 4732  24.676  38.033   1.275
45472W        W 4733  34.447  12.188   2.238
45473W        W 4734  10.280   6.341  12.967
45474W        W 4735  30.442  43.975  14.328
45475W        W 4736  39.849  26.062  10.951
45476W        W 4737  39.391  34.895   2.865
45477W        W 4738   9.363  18.635   1.353
45478W        W 4739   6.813  32.998  14.328
45479W        W 4740  18.789   3.445   1.753
45480W        W 4741  40.500  22.172  13.394
45481W        W 4742  18.552  12.217  13.547
45482W        W 4743   3.425  12.638   2.870
45483W        W 4744  17.571   1.953  13.497
45484W        W 4745  35.867  10.310   0.309
45485W        W 4746  41.364  44.828   0.250
45486W        W 4747  20.667  25.634   1.279
45487W        W 4748  12.670  14.112  13.011
45488W        W 4749  22.125  44.418   0.790
45489W        W 4750  18.249   1.893  13.479
45490W        W 4751  22.247  23.235   3.703
45491W        W 4752  27.083  13.322   2.704
45492W        W 4753  22.149   6.209   2.762
45493W        W 4754   7.176  35.916   3.855
45494W        W 4755  24.058   6.287   4.235
45495W        W 4756   8.340  28.537  10.450
45496W        W 4757  17.669   4.930   9.998
45497W        W 4758  42.378  44.272   0.316
45498W        W 4759  28.157  33.055   0.354
45499W        W 4760   4.714   0.316   2.752
45500W        W 4761  41.309  38.075   1.896
45501W        W 4762  29.603  26.504   1.428
45502W        W 4763  25.552  21.543  10.923
45503W        W 4764   0.756  20.216   2.323
45504W        W 4765  43.882  21.608  13.499
45505W        W 4766  44.766  42.380  12.870
45506W        W 4767  28.963  14.738   9.939
45507W        W 4768  28.966  32.115   3.869
45508W        W 4769  12.175   1.257  12.362
45509W        W 4770  27.513  11.625   3.362
45510W        W 4771  44.912  11.730   2.283
45511W        W 4772  34.057  34.924   0.914
45512W        W 4773  15.142  42.407   3.768
45513W        W 4774  11.797  26.480   3.185
45514W        W 4775  15.805  21.635   4.235
45515W        W 4776  40.485  33.612  10.901
45516W        W 4777  26.674  19.048  13.888
45517W        W 4778  37.364  10.800  14.511
45518W        W 4779  28.117   1.912   4.285
45519W        W 4780  41.903  20.736  12.859
45520W        W 4781  39.903  10.841   3.841
45521W        W 4782  20.725  17.210   0.848
45522W        W 4783  25.999  27.602  11.377
45523W        W 4784  26.166  19.197   2.294
45524W        W 4785  41.875   1.470  13.445
45525W        W 4786  14.166  23.139   1.244
45526W        W 4787  42.388  30.493   2.826
45527W        W 4788  33.416  40.320   9.477
45528W        W 4789   7.249   6.300   2.306
45529W        W 4790   3.327  35.395  11.583
45530W        W 4791  17.131   3.245  14.404
45531W        W 4792   9.190  10.777   1.732
45532W        W 4793   5.238   8.222  13.443
45533W        W 4794  42.515  11.363  12.404
45534W        W 4795  30.116  32.570   1.837
45535W        W 4796   4.704  18.622  10.454
45536W        W 4797   5.852  26.515   0.777
45537W        W 4798  43.417  33.511  12.984
45538W        W 4799   7.900  34.562   2.294
45539W        W 4800  27.530  41.955  10.584
45540W        W 4801  12.182  22.146  14.903
45541W        W 4802  42.491  43.322   4.129
45542W        W 4803  38.350  38.000  11.536
45543W        W 4804  28.539  28.110   2.679
45544W        W 4805  13.745  29.553   1.344
45545W        W 4806  38.359  19.207   3.301
45546W        W 4807  31.504  15.128  11.066
45547W        W 4808  25.558   4.286   4.290
45548W        W 4809  36.446  11.738   3.768
45549W        W 4810  40.893   9.211   3.270
45550W        W 4811   5.720  41.306  12.048
45551W        W 4812  19.747   7.260   4.330
45552W        W 4813  28.030  36.513   4.317
45553W        W 4814   7.865  32.627   4.205
45554W        W 4815  20.058  17.648   3.335
45555W        W 4816  36.066   8.173   0.314
45556W        W 4817  31.517  13.265  13.911
45557W        W 4818   5.230   9.363   3.262
45558W        W 4819   6.803   3.783   3.775
45559W        W 4820   7.177  30.936  11.071
45560W        W 4821  10.261  14.161   0.859
45561W        W 4822   1.858  36.946  11.126
45562W        W 4823  12.754   5.744   3.819
45563W        W 4824   8.685  32.044  14.330
45564W        W 4825  34.902  12.236   0.773
45565W        W 4826  43.455  14.808   1.872
45566W        W 4827   9.351  15.257   0.317
45567W        W 4828  42.839  22.194   1.446
45568W        W 4829   9.314  13.730  11.457
45569W        W 4830  20.189  24.589  14.014
45570W        W 4831  27.484   0.874  10.576
45571W        W 4832   5.201  31.065  14.913
45572W        W 4833   4.916  38.950   0.867
45573W        W 4834  32.075  10.302   5.100
45574W        W 4835  20.116  27.081  11.988
45575W        W 4836  34.964  31.099   2.856
45576W        W 4837  11.860  32.578  14.766
45577W        W 4838   9.203  44.388  14.310
45578W        W 4839   2.931  11.297   1.300
45579W        W 4840   8.212  25.166   3.864
45580W        W 4841  23.557   0.409   3.369
45581W        W 4842  42.888   2.751  13.400
45582W        W 4843  19.577  43.426   2.761
45583W        W 4844   5.734   7.315  11.100
45584W        W 4845  29.515  36.867   3.834
45585W        W 4846  16.611  15.200  11.984
45586W        W 4847  14.256  40.996   2.768
45587W        W 4848  20.713  27.478  14.297
45588W        W 4849  43.322   1.884  11.105
45589W        W 4850  32.969  39.424   4.247
45590W        W 4851   5.785  38.363   4.180
45591W        W 4852  16.686  29.504  10.629
45592W        W 4853  24.662  11.350   1.389
45593W        W 4854  27.006   8.865   3.358
45594W        W 4855  25.511  17.074   0.395
45595W        W 4856  36.430  41.441   0.295
45596W        W 4857  35.063   5.215  14.831
45597W        W 4858  37.468  13.241  11.508
45598W        W 4859   1.260  19.643  13.379
45599W        W 4860   0.486  19.667  14.806
45600W        W 4861  19.250  33.918  14.872
45601W        W 4862  14.280  16.253   2.753
45602W        W 4863  26.537  16.708  12.421
45603W        W 4864   1.827   6.816  12.839
45604W        W 4865  11.221  41.385   0.243
45605W        W 4866  25.603  41.511  14.388
45606W        W 4867  21.039  30.463   1.811
45607W        W 4868   7.208  19.265   4.648
45608W        W 4869   8.872  35.015  14.502
45609W        W 4870   0.839   8.247   4.786
45610W        W 4871  30.079  44.862  13.465
45611W        W 4872  44.441  37.867   3.279
45612W        W 4873   5.429  26.574   2.707
45613W        W 4874   6.374  13.714  11.554
45614W        W 4875  26.621   7.227  10.425
45615W        W 4876   5.804   1.852   4.190
45616W        W 4877  20.693  23.491  13.539
45617W        W 4878  30.939   0.795  10.931
45618W        W 4879  30.496  31.005   2.725
45619W        W 4880   2.451   8.245   4.798
45620W        W 4881  27.026  39.352  10.421
45621W        W 4882  19.773  23.515  12.922
45622W        W 4883   9.735  41.534  14.028
45623W        W 4884   7.672  25.654   2.732
45624W        W 4885   1.932  42.956   1.706
45625W        W 4886  21.532  39.391   1.286
45626W        W 4887  41.857  25.976  10.602
45627W        W 4888  33.514  15.639   5.277
45628W        W 4889   9.664  31.553   0.456
45629W        W 4890  39.932  21.053  14.799
45630W        W 4891  21.734  36.089   0.455
45631W        W 4892  30.086  20.599   3.674
45632W        W 4893  38.934   9.372  11.386
45633W        W 4894   0.315   3.267   3.753
45634W        W 4895  27.103  26.539   3.772
45635W        W 4896  25.713   6.793  14.002
45636W        W 4897  31.447  40.444   1.317
45637W        W 4898   8.688  18.089   1.425
45638W        W 4899   6.212  16.747  11.894
45639W        W 4900  28.103  34.394  11.864
45640W        W 4901   4.213  32.559   4.320
45641W        W 4902  40.416  24.625   3.280
45642W        W 4903  26.192  30.025  11.994
45643W        W 4904  13.693  32.459   1.377
45644W        W 4905  44.861  10.351  13.438
45645W        W 4906   0.425  34.564  13.425
45646W        W 4907  17.733  12.125   2.865
45647W        W 4908  16.654  31.593   2.324
45648W        W 4909   2.882  15.225  11.515
45649W        W 4910  22.149  38.065   0.283
45650W        W 4911  21.224  21.586   4.673
45651W        W 4912  19.551  30.497  10.567
45652W        W 4913  33.109  40.049   0.867
45653W        W 4914  27.180  17.583  13.061
45654W        W 4915  12.183  20.266  13.033
45655W        W 4916  21.106  23.061   0.395
45656W        W 4917  36.903  26.049  13.451
45657W        W 4918  15.731  16.693  11.409
45658W        W 4919  27.623  26.076  11.492
45659W        W 4920  28.497   8.730   3.783
45660W        W 4921  37.461  38.906   3.363
45661W        W 4922  31.623   0.928  11.092
45662W        W 4923   2.898  11.303  12.845
45663W        W 4924  43.823  42.352  14.487
45664W        W 4925  41.951  19.535   4.823
45665W        W 4926  32.499   0.440  12.452
45666W        W 4927   5.221   0.390  13.478
45667W        W 4928  18.084   9.208   4.824
45668W        W 4929  38.469  13.147  12.033
45669W        W 4930  35.574  43.800   2.219
45670W        W 4931  33.525  16.650   0.905
45671W        W 4932   3.299   0.371  13.338
45672W        W 4933  41.960   8.258  14.508
45673W        W 4934  15.602  41.847  11.109
45674W        W 4935  10.245  27.070  12.342
45675W        W 4936  22.087  15.759   4.806
45676W        W 4937  14.115   2.438   3.201
45677W        W 4938   6.875  30.960   1.364
45678W        W 4939  20.213  40.953   3.227
45679W        W 4940  37.403  11.294   2.853
45680W        W 4941  12.169   8.732   1.257
45681W        W 4942   7.697  22.650  11.447
45682W        W 4943  24.559  40.816   0.290
45683W        W 4944   9.670  14.591  12.517
45684W        W 4945  40.461  17.785  10.408
45685W        W 4946   0.942  14.218   3.260
45686W        W 4947  23.159  39.318   3.792
45687W        W 4948  11.181  31.434  10.588
45688W        W 4949   5.719  29.564   1.443
45689W        W 4950  18.178  27.581  14.949
45690W        W 4951  35.444  10.348  13.022
45691W        W 4952  10.294  10.672   3.324
45692W        W 4953  29.960  40.020   1.774
45693W        W 4954   4.842   7.248  12.434
45694W        W 4955  24.163  44.420   2.722
45695W        W 4956  34.959  15.599   4.711
45696W        W 4957  34.869  31.139   4.620
45697W        W 4958  35.086  39.329  13.485
45698W        W 4959   7.732  19.745   0.783
45699W        W 4960   1.787   1.878  11.493
45700W        W 4961  31.911  16.748   4.288
45701W        W 4962   3.934  28.615  14.296
45702W        W 4963  39.370  30.633  12.477
45703W        W 4964   5.321  33.411  14.356
45704W        W 4965  20.253  41.515  11.457
45705W        W 4966  28.998  33.495  12.039
45706W        W 4967  44.495  23.137  14.469
45707W        W 4968  32.076   6.870   4.186
45708W        W 4969  44.452  36.049  12.552
45709W        W 4970   7.272   7.687   3.758
45710W        W 4971  36.420  31.958  14.360
45711W        W 4972   9.235  31.077   0.804
45712W        W 4973   1.462  38.991   2.254
45713W        W 4974  24.572  34.891  13.983
45714W        W 4975  44.866   0.333   2.893
45715W        W 4976  36.085  33.118  10.597
45716W        W 4977  13.608  29.106   4.794
45717W        W 4978  36.000  22.218  11.987
45718W        W 4979   5.855  22.692   1.731
45719W        W 4980  32.617  14.818  11.957
45720W        W 4981  39.407  30.977  10.586
45721W        W 4982   2.893  13.344  12.014
45722W        W 4983  18.549  26.640  14.327
45723W        W 4984  41.895  25.154  11.030
45724W        W 4985   5.721  36.040   0.423
45725W        W 4986  12.204   1.949   3.310
45726W        W 4987  35.925   8.185   3.704
45727W        W 4988  36.962  17.238   4.241
45728W        W 4989  44.928  28.061   4.812
45729W        W 4990  19.553   9.363  12.359
45730W        W 4991  23.529  23.024   1.842
45731W        W 4992  42.350  10.224  12.547
45732W        W 4993  38.001  21.655   3.725
45733W        W 4994   7.829   7.781   3.816
45734W        W 4995  34.445  32.913  14.438
45735W        W 4996  10.870  21.682  11.389
45736W        W 4997  28.180  30.086   0.873
45737W        W 4998  32.086  25.606   4.285
45738W        W 4999  28.617  11.637   4.721
45739W        W 5000  33.036   9.155  10.516
45740W        W 5001  23.733   7.406   4.149
45741W        W 5002  12.691  21.024  14.837
45742W        W 5003  29.444  39.863   2.809
45743W        W 5004  10.276  18.163  10.602
45744W        W 5005  26.077  33.588   1.877
45745W        W 5006   1.776  39.997   1.270
45746W        W 5007  22.186  44.358   4.258
45747W        W 5008  25.568  30.061  11.401
45748W        W 5009  14.781  13.142   0.888
45749W        W 5010   7.859  21.555   3.682
45750W        W 5011  37.948  34.065  14.398
45751W        W 5012   8.294  39.400  13.541
45752W        W 5013  19.559   8.321   3.215
45753W        W 5014  28.122  31.948  13.526
45754W        W 5015  22.211  34.560  14.833
45755W        W 5016  31.934  34.530  14.490
45756W        W 5017  24.520  29.923  11.960
45757W        W 5018   6.703  27.034  12.025
45758W        W 5019   0.905  23.645   4.638
45759W        W 5020  17.204   8.245   4.684
45760W        W 5021  32.018  38.071   2.855
45761W        W 5022   5.428   6.713  11.521
45762W        W 5023  35.983  42.386  13.402
45763W        W 5024   3.350   8.314  14.937
45764W        W 5025  14.130  34.082   2.367
45765W        W 5026  31.961  38.362   3.209
45766W        W 5027  14.212   4.214   1.237
45767W        W 5028   7.754  14.703   2.720
45768W        W 5029  35.401  43.398   3.234
45769W        W 5030   8.259  36.842  11.976
45770W        W 5031  41.449  11.174  14.962
45771W        W 5032   8.870  32.510   1.713
45772W        W 5033  30.007  43.920   4.277
45773W        W 5034  19.226   8.665   3.274
45774W        W 5035  13.282  34.104   0.957
45775W        W 5036   3.256  31.948  14.303
45776W        W 5037  27.043  44.808   3.302
45777W        W 5038  29.013  42.418   4.233
45778W        W 5039  29.475   1.248  10.584
45779W        W 5040   9.765  13.124   4.677
45780W        W 5041  19.721  36.549   1.304
45781W        W 5042   4.245  24.573  12.534
45782W        W 5043  26.651  14.766   0.301
45783W        W 5044  37.033  42.365   2.733
45784W        W 5045  39.338  13.678   3.213
45785W        W 5046  26.642  32.926  13.829
45786W        W 5047  26.595  14.775  10.561
45787W        W 5048  32.397   7.311   3.249
45788W        W 5049  13.670   0.987  12.859
45789W        W 5050  19.603  21.548  14.508
45790W        W 5051  13.345  22.578  13.908
45791W        W 5052   4.893   5.881   4.191
45792W        W 5053   7.834  10.762   1.401
45793W        W 5054  34.985  14.112   0.731
45794W        W 5055  16.176  11.843   1.445
45795W        W 5056  41.305   8.817  14.405
45796W        W 5057  25.005  11.221  10.161
45797W        W 5058   6.285   2.858   3.305
45798W        W 5059  24.013   1.263  13.536
45799W        W 5060  30.944  33.981   4.348
45800W        W 5061  32.027   2.825  10.970
45801W        W 5062  25.101   6.399  14.349
45802W        W 5063  25.986   4.817   0.466
45803W        W 5064  26.470  34.479   4.213
45804W        W 5065   0.315   3.941   1.386
45805W        W 5066  23.230  25.476   0.474
45806W        W 5067  26.159  20.597   0.256
45807W        W 5068  29.168  20.538   2.764
45808W        W 5069  15.287   6.859   1.298
45809W        W 5070   9.361  37.535   4.785
45810W        W 5071  23.077  11.716   2.360
45811W        W 5072   0.861   7.396  14.957
45812W        W 5073   0.342  16.275   0.301
45813W        W 5074  30.629   1.458   1.342
45814W        W 5075  19.738   9.158  11.113
45815W        W 5076  26.984  26.089   0.372
45816W        W 5077  11.669  36.586   4.686
45817W        W 5078   9.344  25.699  10.412
45818W        W 5079   0.363  43.834   0.773
45819W        W 5080  31.449  20.066  11.461
45820W        W 5081   3.234  40.534  11.916
45821W        W 5082  18.695  21.264   5.222
45822W        W 5083   6.363   7.377  11.026
45823W        W 5084  34.983  30.131   0.902
45824W        W 5085  39.923  29.581   1.836
45825W        W 5086  32.397   2.348   3.368
45826W        W 5087  29.603   8.375   3.381
45827W        W 5088   4.258  30.087  10.421
45828W        W 5089  31.620   2.838  11.540
45829W        W 5090   7.707  15.165   4.297
45830W        W 5091  14.669   2.427   0.937
45831W        W 5092  31.421   1.732  11.485
45832W        W 5093  40.818  44.840  14.450
45833W        W 5094   4.307  20.625  14.941
45834W        W 5095   5.262  28.675   1.746
45835W        W 5096  31.016   1.756  10.982
45836W        W 5097  31.056  30.643   3.332
45837W        W 5098   2.783  39.835  14.849
45838W        W 5099  15.208  15.788   3.772
45839W        W 5100  18.215  25.025   3.191
45840W        W 5101  26.567  19.107  12.368
45841W        W 5102  18.547  24.126  14.349
45842W        W 5103  37.937  18.130   1.819
45843W        W 5104   5.232  23.509   3.359
45844W        W 5105  11.226  30.437   1.770
45845W        W 5106  42.356  29.472  13.826
45846W        W 5107   8.280  27.977   3.225
45847W        W 5108   9.195  17.618  11.994
45848W        W 5109  28.632  43.935   3.387
45849W        W 5110  18.743  11.719   2.854
45850W        W 5111  41.432   7.191  12.011
45851W        W 5112  23.163  22.618  12.017
45852W        W 5113  31.430  44.773   3.700
45853W        W 5114  38.411  23.034  13.964
45854W        W 5115  37.072   7.749   3.635
45855W        W 5116  27.452  44.888   2.324
45856W        W 5117  19.682  23.986  12.351
45857W        W 5118  30.515  15.584   2.763
45858W        W 5119  13.223  15.315  12.968
45859W        W 5120   6.846  29.159  13.359
45860W        W 5121  38.352  36.443   3.358
45861W        W 5122  37.975  33.414   1.404
45862W        W 5123  31.100  26.174  12.548
45863W        W 5124  19.633  43.455   3.317
45864W        W 5125  13.205  20.658  13.402
45865W        W 5126   9.358  44.822  13.356
45866W        W 5127  15.110  18.279   2.749
45867W        W 5128  18.254  12.751  10.489
45868W        W 5129  28.597  22.531   4.116
45869W        W 5130  43.455  42.807   4.313
45870W        W 5131  25.115   8.207  10.937
45871W        W 5132  32.013  19.580  11.418
45872W        W 5133  33.115   1.887   2.745
45873W        W 5134  29.133  32.967  11.996
45874W        W 5135  18.739  36.584   2.365
45875W        W 5136   5.702  36.015  14.816
45876W        W 5137   0.817  27.962   5.202
45877W        W 5138  40.822  42.464   2.790
45878W        W 5139  25.978  23.590   4.710
45879W        W 5140  11.242  22.143  13.500
45880W        W 5141   4.313  36.376  11.936
45881W        W 5142   9.749  23.620  13.324
45882W        W 5143  16.646  18.559   4.184
45883W        W 5144  33.963  33.976   1.223
45884W        W 5145  37.506  35.922   2.896
45885W        W 5146   3.904  11.738  10.527
45886W        W 5147  26.646  14.263  11.923
45887W        W 5148  16.738  12.169  11.050
45888W        W 5149  17.073  21.176  14.784
45889W        W 5150  37.063  17.258   1.244
45890W        W 5151  42.460   2.752  12.937
45891W        W 5152  26.201   9.805   0.857
45892W        W 5153  39.381   7.698   1.437
45893W        W 5154  21.545  12.150  10.525
45894W        W 5155  22.690  22.560  14.840
45895W        W 5156   9.759  44.921  13.460
45896W        W 5157  42.933  26.562  13.427
45897W        W 5158  43.795  30.094   0.842
45898W        W 5159  32.482  13.311   3.650
45899W        W 5160  11.800  20.601   3.754
45900W        W 5161  27.110  38.492   4.288
45901W        W 5162  24.210  23.559   1.826
45902W        W 5163  20.064  32.538  13.514
45903W        W 5164   9.226  42.917   4.738
45904W        W 5165  35.971  13.783   0.925
45905W        W 5166  19.640  12.252  11.869
45906W        W 5167  25.095  40.449  14.448
45907W        W 5168  39.541  30.064  14.427
45908W        W 5169   9.322  41.385   2.296
45909W        W 5170   8.197  16.151   3.850
45910W        W 5171  14.306  28.460   1.832
45911W        W 5172  18.181  41.363   2.264
45912W        W 5173  16.687  35.404   3.163
45913W        W 5174  36.937   6.759  13.431
45914W        W 5175  10.841   3.357  11.883
45915W        W 5176  33.079   2.733  11.880
45916W        W 5177  21.187  40.321   0.757
45917W        W 5178   8.812  38.834   0.824
45918W        W 5179   3.402  40.969  10.579
45919W        W 5180  35.001  16.249  14.985
45920W        W 5181  43.006   4.352   1.339
45921W        W 5182  32.472   5.264  13.030
45922W        W 5183  44.496  40.422  13.452
45923W        W 5184  34.953  14.241  13.385
45924W        W 5185   8.701   0.463  10.573
45925W        W 5186  43.932  11.644   1.210
45926W        W 5187  24.549  25.468  12.562
45927W        W 5188   8.727   9.688   3.751
45928W        W 5189   2.902  37.878   0.458
45929W        W 5190   3.295  30.099   2.211
45930W        W 5191   1.483  33.433  12.505
45931W        W 5192  15.193  18.172  11.043
45932W        W 5193  17.577   4.816  12.910
45933W        W 5194  36.081  13.135   1.775
45934W        W 5195  44.993  15.222   1.743
45935W        W 5196  36.408  32.140   4.314
45936W        W 5197  14.099  18.551  11.561
45937W        W 5198  20.648  44.400   2.285
45938W        W 5199  20.638  25.177   3.233
45939W        W 5200  22.505  18.564  10.072
45940W        W 5201  37.906  33.075   1.786
45941W        W 5202   6.247   0.864   1.286
45942W        W 5203  18.063  14.157   3.721
45943W        W 5204  44.820  43.464  11.549
45944W        W 5205  25.537  44.305   0.424
45945W        W 5206  41.904  25.512   0.465
45946W        W 5207  28.168  22.623   0.845
45947W        W 5208  11.826  18.553   4.204
45948W        W 5209   7.399  30.140  11.550
45949W        W 5210   2.374  23.623   2.239
45950W        W 5211  35.478  30.067   3.148
45951W        W 5212  22.037   0.746  12.368
45952W        W 5213   5.304   2.397   3.236
45953W        W 5214  20.090  28.183  10.159
45954W        W 5215  15.730  25.625  10.132
45955W        W 5216  43.328  22.050  11.485
45956W        W 5217   9.650  23.082  14.440
45957W        W 5218  26.612   0.782  10.558
45958W        W 5219  23.069  16.212  14.992
45959W        W 5220  44.994   6.878   4.686
45960W        W 5221  31.134   6.676   3.676
45961W        W 5222  39.358  28.102  13.890
45962W        W 5223  38.876  25.005  14.331
45963W        W 5224  41.888  44.376   1.732
45964W        W 5225  40.325  10.742  10.533
45965W        W 5226  39.494  41.451   2.674
45966W        W 5227  41.449  34.025   2.740
45967W        W 5228  28.077  30.455  14.871
45968W        W 5229  37.456   7.216  10.564
45969W        W 5230  31.422  18.589   1.279
45970W        W 5231  41.866  33.968   5.321
45971W        W 5232  38.879  32.025  10.987
45972W        W 5233  40.894   3.344  11.567
45973W        W 5234   8.160  23.626   1.771
45974W        W 5235  35.485  23.637   2.331
45975W        W 5236   8.401  30.425  11.525
45976W        W 5237  31.994  27.127  10.420
45977W        W 5238  27.165   1.466   3.279
45978W        W 5239  27.061  28.625   2.692
45979W        W 5240  28.522   5.340  11.504
45980W        W 5241  37.341  42.314  11.980
45981W        W 5242   0.374  37.868   0.806
45982W        W 5243   4.785  16.131  12.950
45983W        W 5244  41.867   4.811   0.259
45984W        W 5245  33.104  15.648  12.476
45985W        W 5246   2.441  33.386  14.428
45986W        W 5247  13.742  44.945   1.211
45987W        W 5248  34.002  32.451  14.424
45988W        W 5249   7.842  33.615   9.956
45989W        W 5250  33.575  32.517  12.579
45990W        W 5251   9.218  24.210   0.736
45991W        W 5252  25.125  16.218  13.328
45992W        W 5253  22.519  41.384  14.902
45993W        W 5254  18.744  19.187  14.465
45994W        W 5255  33.880  25.113  14.280
45995W        W 5256  20.191  30.035  12.941
45996W        W 5257  43.939  44.848  10.901
45997W        W 5258  31.577  36.442  14.454
45998W        W 5259   3.788  19.158   4.799
45999W        W 5260  15.709  11.213  12.936
46000W        W 5261  21.688  38.954  14.308
46001W        W 5262  32.028  18.080  12.852
46002W        W 5263  19.685  42.377   3.775
46003W        W 5264  28.651  33.465  13.322
46004W        W 5265  38.876   3.745  12.931
46005W        W 5266  41.394   9.302  14.880
46006W        W 5267   5.351  44.799   1.256
46007W        W 5268   8.752  30.917   3.168
46008W        W 5269  23.565  36.486   4.134
46009W        W 5270  13.165  39.977   1.345
46010W        W 5271   3.306  36.548   1.854
46011W        W 5272  35.586  24.000   4.353
46012W        W 5273  44.827  25.194  10.981
46013W        W 5274  12.782  19.762  13.406
46014W        W 5275  21.045  34.085  13.521
46015W        W 5276  44.951   0.742   1.715
46016W        W 5277  29.648  29.118  11.397
46017W        W 5278  23.584  27.944   9.985
46018W        W 5279   3.259   2.824   1.732
46019W        W 5280   9.235   7.735   5.305
46020W        W 5281  32.412  38.856   0.452
46021W        W 5282  12.612  26.119   0.413
46022W        W 5283   1.279  41.368  11.610
46023W        W 5284  23.985  25.981  12.467
46024W        W 5285  26.546   8.782   1.839
46025W        W 5286   1.314  42.502  10.953
46026W        W 5287  11.833   4.944   2.193
46027W        W 5288  24.719  17.798  12.889
46028W        W 5289  42.339  19.133  12.491
46029W        W 5290  44.454  15.209   3.347
46030W        W 5291   6.693  26.490   3.188
46031W        W 5292  38.397  13.748   1.418
46032W        W 5293  18.743   8.728   9.936
46033W        W 5294  27.683  37.450   3.858
46034W        W 5295  40.503   3.283   3.175
46035W        W 5296  39.387  25.032  11.905
46036W        W 5297   2.870   3.900   0.301
46037W        W 5298   9.689   9.771  14.865
46038W        W 5299  21.716  37.952  13.867
46039W        W 5300   8.838   9.827  12.947
46040W        W 5301   4.755  35.006   3.372
46041W        W 5302   4.814  39.474  14.327
46042W        W 5303  28.071   5.919  11.065
46043W        W 5304  34.987  14.305  11.394
46044W        W 5305  12.775  31.047   2.381
46045W        W 5306  41.435   4.359   1.244
46046W        W 5307  18.632   3.857  13.793
46047W        W 5308  16.307   1.349  14.401
46048W        W 5309   2.383  18.668  14.295
46049W        W 5310  26.138  44.899   0.797
46050W        W 5311   1.294  43.922   2.836
46051W        W 5312   4.261  44.802  13.371
46052W        W 5313  32.397  21.062  14.980
46053W        W 5314  26.985  20.194  13.833
46054W        W 5315  36.524  27.026   4.337
46055W        W 5316  17.236  44.002   0.846
46056W        W 5317  19.674  43.304   4.248
46057W        W 5318  12.156  43.939  10.620
46058W        W 5319  37.922  41.008  11.896
46059W        W 5320  40.369  28.511  13.012
46060W        W 5321  23.197  16.719  14.393
46061W        W 5322   5.353  25.645   4.135
46062W        W 5323  14.741  13.668   0.378
46063W        W 5324  41.842  19.765  14.018
46064W        W 5325  10.199  17.280   3.353
46065W        W 5326  38.495   1.876  10.504
46066W        W 5327  29.645   1.360   0.442
46067W        W 5328  11.763  33.112   0.384
46068W        W 5329  43.384  31.582  11.863
46069W        W 5330  11.661  12.299   1.433
46070W        W 5331   6.681  23.009   3.245
46071W        W 5332  33.430   1.792  10.072
46072W        W 5333  14.110  17.306   4.750
46073W        W 5334   0.986  41.476   2.247
46074W        W 5335  30.993   4.864   0.945
46075W        W 5336  44.289  35.529  12.347
46076W        W 5337   7.810  41.954   2.834
46077W        W 5338  35.567  11.670  14.942
46078W        W 5339  34.606  25.968   0.245
46079W        W 5340  30.521  31.933  12.954
46080W        W 5341  42.458  17.771  11.406
46081W        W 5342  31.401  41.940  13.546
46082W        W 5343  23.648  12.231  13.373
46083W        W 5344  39.412   0.849  13.470
46084W        W 5345  24.989   2.324  13.004
46085W        W 5346  36.994  31.078  12.551
46086W        W 5347  28.505  16.177  12.863
46087W        W 5348   1.892  14.210   3.240
46088W        W 5349  43.364   8.163  12.365
46089W        W 5350   7.842   3.433  13.843
46090W        W 5351   7.724  34.107  12.359
46091W        W 5352   9.828  34.541   4.277
46092W        W 5353   5.315  18.149  11.037
46093W        W 5354  21.180  44.323   5.212
46094W        W 5355  12.613  13.624  11.409
46095W        W 5356  38.065  39.955   0.858
46096W        W 5357  32.447  31.072  13.327
46097W        W 5358  34.499   1.342   0.907
46098W        W 5359  44.896  16.226   4.792
46099W        W 5360  35.068  43.301  14.395
46100W        W 5361   3.283  21.521   2.674
46101W        W 5362   2.226  24.631  11.475
46102W        W 5363   8.167  28.597  12.539
46103W        W 5364   5.742  18.691   1.854
46104W        W 5365  29.508  10.286  12.385
46105W        W 5366  26.098  10.159  14.998
46106W        W 5367  30.545  25.653   1.840
46107W        W 5368  15.802   6.417   5.248
46108W        W 5369  14.319   0.446   2.702
46109W        W 5370  11.650  32.916   0.776
46110W        W 5371   0.752  24.562   4.157
46111W        W 5372  23.523  19.694   3.676
46112W        W 5373  35.550  19.095   3.679
46113W        W 5374  31.450   2.381   1.304
46114W        W 5375  40.491  15.232   4.769
46115W        W 5376  40.821  44.826   3.192
46116W        W 5377  16.673  37.545  11.984
46117W        W 5378  21.228  17.774  11.025
46118W        W 5379  31.571  14.153  13.343
46119W        W 5380   5.273  13.286  11.080
46120W        W 5381  18.648  21.578   0.341
46121W        W 5382  29.967  26.514  14.348
46122W        W 5383  30.122  30.524   3.255
46123W        W 5384  43.968  37.512  11.964
46124W        W 5385   2.884   9.694   3.359
46125W        W 5386   7.370   7.213   0.299
46126W        W 5387  20.642  21.184   2.880
46127W        W 5388  43.497   9.731   2.870
46128W        W 5389   2.948  27.459  14.309
46129W        W 5390  42.913   7.407   3.751
46130W        W 5391   3.754  11.691   1.396
46131W        W 5392  11.152  39.947  11.429
46132W        W 5393   4.335  32.120  11.540
46133W        W 5394  39.850  31.970   3.152
46134W        W 5395  21.049  20.117   0.793
46135W        W 5396  14.188  30.035  12.078
46136W        W 5397  10.244  32.943  14.937
46137W        W 5398  14.756  29.659   3.722
46138W        W 5399  29.035  17.770   1.908
46139W        W 5400  14.179  14.126  10.136
46140W        W 5401  22.733  21.062   3.176
46141W        W 5402  31.946  17.616   1.697
46142W        W 5403  40.320  26.675   2.241
46143W        W 5404  20.689  36.970  13.930
46144W        W 5405  25.527  35.906  12.392
46145W        W 5406  26.988   6.353  10.601
46146W        W 5407  32.597   2.341  12.910
46147W        W 5408  10.285   8.829  12.063
46148W        W 5409  26.151   7.321  13.820
46149W        W 5410  26.686  33.995  10.929
46150W        W 5411  31.135  43.320  13.803
46151W        W 5412  40.356   6.328  12.087
46152W        W 5413  34.892  21.712   1.797
46153W        W 5414  23.611   5.866   0.406
46154W        W 5415  10.189  33.007  12.450
46155W        W 5416   5.895  42.786  12.907
46156W        W 5417   2.279  22.736   2.829
46157W        W 5418   8.232  25.069  12.014
46158W        W 5419   6.309   1.862   5.081
46159W        W 5420  44.471   5.832   4.209
46160W        W 5421  39.547  13.699   1.315
46161W        W 5422   2.343  21.153   2.692
46162W        W 5423   0.860  25.208   5.182
46163W        W 5424  34.079  10.359   1.427
46164W        W 5425   9.286  31.493  11.600
46165W        W 5426  30.024   1.753   0.899
46166W        W 5427   1.910  42.470  13.465
46167W        W 5428  29.009   8.230  13.887
46168W        W 5429  34.884  19.191  10.443
46169W        W 5430  27.465  23.688   4.350
46170W        W 5431  24.696   5.747  13.027
46171W        W 5432  28.983  10.636   3.265
46172W        W 5433  10.196  21.557  12.069
46173W        W 5434  24.056  23.093   3.349
46174W        W 5435  28.681  15.183   1.217
46175W        W 5436  19.576  32.980   4.649
46176W        W 5437  39.007  29.029   3.213
46177W        W 5438   0.454  22.510  12.516
46178W        W 5439  37.543  12.613  11.894
46179W        W 5440   9.769  11.762   0.354
46180W        W 5441  30.625  37.904   4.341
46181W        W 5442  18.588  29.623  12.934
46182W        W 5443   6.833  40.881  10.907
46183W        W 5444  16.073  13.779   1.724
46184W        W 5445  35.437  19.752  11.889
46185W        W 5446   9.874   0.430   2.672
46186W        W 5447   3.313   7.333  14.420
46187W        W 5448  18.165  42.463  11.983
46188W        W 5449   0.934  24.073   2.732
46189W        W 5450   0.481   4.300  14.815
46190W        W 5451  37.502  43.849   1.801
46191W        W 5452  37.446  16.732  10.064
46192W        W 5453  19.221  29.063  11.874
46193W        W 5454  12.658  33.968  11.406
46194W        W 5455  19.614  26.589  11.477
46195W        W 5456  13.236  18.231  14.376
46196W        W 5457  19.090   5.747   4.695
46197W        W 5458   9.655  39.379   1.924
46198W        W 5459  31.608  28.555   0.349
46199W        W 5460  32.627   5.350   0.457
46200W        W 5461  36.482  12.320   1.390
46201W        W 5462   9.790  13.634   0.243
46202W        W 5463  28.956  35.986  13.023
46203W        W 5464  39.904   0.888  10.622
46204W        W 5465  38.898   4.826  11.030
46205W        W 5466  22.225  30.544  13.422
46206W        W 5467  12.768  32.578  13.057
46207W        W 5468  39.925  22.685   3.157
46208W        W 5469  37.048  42.026  11.584
46209W        W 5470   5.404  10.179   1.926
46210W        W 5471  23.680  30.017  14.815
46211W        W 5472  40.449  28.477   1.344
46212W        W 5473  38.404   6.426   0.873
46213W        W 5474   3.291  17.694   4.643
46214W        W 5475  39.031  39.547  11.441
46215W        W 5476   0.861  10.377   5.231
46216W        W 5477  17.597   9.198   4.311
46217W        W 5478  23.621   8.830  14.930
46218W        W 5479  27.091  36.848  14.433
46219W        W 5480  17.608   9.380  11.003
46220W        W 5481   1.295   3.310   2.867
46221W        W 5482  44.802  40.318  11.008
46222W        W 5483  18.689  40.798  11.556
46223W        W 5484   9.158   4.406   4.650
46224W        W 5485   9.834  23.099  12.018
46225W        W 5486   7.285   3.337   3.844
46226W        W 5487  23.537  30.423  12.860
46227W        W 5488   0.798   5.860   0.264
46228W        W 5489  22.734  36.095  14.283
46229W        W 5490  26.986  19.049   2.188
46230W        W 5491  17.717   8.191  14.421
46231W        W 5492   6.730  23.988   4.786
46232W        W 5493  27.572  26.017   3.636
46233W        W 5494  34.037  17.749  10.516
46234W        W 5495  15.179  16.317  14.895
46235W        W 5496  10.179   3.778  11.905
46236W        W 5497   6.872  37.894  12.502
46237W        W 5498  44.455  22.165  14.943
46238W        W 5499  26.175   5.799  10.541
46239W        W 5500  22.616  27.516   4.325
46240W        W 5501  14.802  17.702  10.638
46241W        W 5502  17.248  42.027   3.385
46242W        W 5503  35.500  44.940   2.773
46243W        W 5504  42.415  26.690  11.445
46244W        W 5505  19.114  24.098   3.866
46245W        W 5506  27.135  18.245  12.575
46246W        W 5507  14.249   8.754  12.933
46247W        W 5508  35.405  36.407   4.774
46248W        W 5509   3.422  14.588  13.369
46249W        W 5510   3.218  26.661  13.906
46250W        W 5511   7.318   7.268   5.234
46251W        W 5512   3.714  40.494   1.917
46252W        W 5513  34.574  37.575  14.956
46253W        W 5514  34.968   9.163   1.420
46254W        W 5515  40.352  43.486  12.543
46255W        W 5516  30.950   1.395  10.483
46256W        W 5517  10.864  14.144   1.927
46257W        W 5518  40.422  26.535   5.241
46258W        W 5519  35.472  44.451  12.398
46259W        W 5520  30.993  28.642   4.683
46260W        W 5521   7.698  24.043  13.322
46261W        W 5522  22.103  42.349  12.505
46262W        W 5523  22.014   4.237   1.451
46263W        W 5524  15.627  36.441   2.701
46264W        W 5525  13.225  26.564  13.974
46265W        W 5526  10.718  10.290   2.378
46266W        W 5527   2.262  30.985  11.040
46267W        W 5528  30.931  42.382  13.509
46268W        W 5529  15.118   7.764   1.373
46269W        W 5530  17.686   7.786   2.197
46270W        W 5531  26.638  24.560   0.924
46271W        W 5532  14.777   8.705   1.842
46272W        W 5533  26.628  15.742   0.806
46273W        W 5534   6.269  33.554   3.755
46274W        W 5535   1.735   9.785  13.533
46275W        W 5536  43.956   6.226  14.341
46276W        W 5537  43.292  33.395   0.958
46277W        W 5538   7.201  37.574   1.212
46278W        W 5539  36.889  27.133   1.345
46279W        W 5540  36.899   0.354   4.164
46280W        W 5541  34.416   8.207   0.396
46281W        W 5542  26.658  34.927  12.027
46282W        W 5543  32.033   3.939  13.515
46283W        W 5544  11.332   2.739  11.961
46284W        W 5545  21.021  42.979   0.373
46285W        W 5546  30.993  39.956   0.886
46286W        W 5547   9.289  31.500  14.426
46287W        W 5548  12.784  11.220  11.051
46288W        W 5549  21.542   2.795   2.886
46289W        W 5550  14.637   6.869   2.684
46290W        W 5551  30.552  11.239   4.764
46291W        W 5552   6.815  44.973  10.644
46292W        W 5553  18.656  13.325   0.893
46293W        W 5554  14.302  16.634   4.280
46294W        W 5555  19.771  15.158  10.469
46295W        W 5556   4.343  41.506  11.609
46296W        W 5557  27.524  24.093   3.681
46297W        W 5558  34.530  21.242   1.398
46298W        W 5559  31.125   2.720   0.843
46299W        W 5560  23.996  35.471  14.309
46300W        W 5561  39.972  16.627   0.280
46301W        W 5562  31.455  16.573   2.381
46302W        W 5563   0.972  29.004  14.028
46303W        W 5564  21.612  20.717   0.457
46304W        W 5565   7.798  33.526  13.917
46305W        W 5566  44.289  18.242   3.646
46306W        W 5567  13.149  36.591   0.937
46307W        W 5568   3.243  29.036   1.741
46308W        W 5569   7.318  21.568  13.317
46309W        W 5570  15.781  30.559   2.373
46310W        W 5571  36.885  18.545  12.090
46311W        W 5572  32.436  42.507  10.999
46312W        W 5573  24.988   4.290  10.633
46313W        W 5574  31.443  24.001   3.645
46314W        W 5575  35.939  14.613   3.346
46315W        W 5576   3.717  27.125   0.768
46316W        W 5577  18.163  35.981  12.567
46317W        W 5578  14.788  23.637   4.146
46318W        W 5579  39.854  34.470   3.304
46319W        W 5580   8.806  42.860   5.315
46320W        W 5581   0.805  14.827  13.393
46321W        W 5582  15.099  22.998  12.362
46322W        W 5583  44.342  32.053   3.180
46323W        W 5584  44.939  10.750   3.269
46324W        W 5585  27.185   8.761   1.883
46325W        W 5586   9.378  20.657   1.851
46326W        W 5587   6.408   4.364  10.985
46327W        W 5588  29.668  36.861  10.912
46328W        W 5589  13.239  29.502   1.745
46329W        W 5590  34.496  21.668   4.349
46330W        W 5591   9.763  31.039  11.386
46331W        W 5592  29.953  13.347  10.538
46332W        W 5593   3.715  43.979  12.428
46333W        W 5594  29.969  10.653  10.517
46334W        W 5595   0.859  32.556   3.366
46335W        W 5596  42.787  20.081  14.903
46336W        W 5597  15.287   7.362   4.634
46337W        W 5598   6.236  36.549   3.775
46338W        W 5599   8.811   3.871   2.303
46339W        W 5600  37.066  16.220   3.635
46340W        W 5601  21.073  28.065   3.747
46341W        W 5602  37.079   3.433  11.974
46342W        W 5603  12.167   1.460   3.776
46343W        W 5604  22.119   9.231  14.383
46344W        W 5605  42.811  42.288   2.237
46345W        W 5606  22.586  22.729   5.112
46346W        W 5607  24.719  36.398  12.441
46347W        W 5608   2.895  20.729   0.253
46348W        W 5609  20.677   6.843   0.279
46349W        W 5610  18.293  22.147  14.463
46350W        W 5611  20.072  24.664  14.400
46351W        W 5612  19.082  32.957   4.149
46352W        W 5613   5.379  31.975   1.450
46353W        W 5614  39.425   2.756   2.801
46354W        W 5615   8.338  43.886  11.965
46355W        W 5616  20.126  42.357  11.860
46356W        W 5617  17.167  22.583   2.366
46357W        W 5618  21.557   9.162   3.729
46358W        W 5619   3.344   5.763   5.174
46359W        W 5620  11.347   8.790  13.430
46360W        W 5621  39.450   4.777  10.135
46361W        W 5622  19.043  29.664   1.300
46362W        W 5623  21.199  25.543  13.813
46363W        W 5624  16.580  28.097   0.378
46364W        W 5625  36.558  43.496  14.411
46365W        W 5626  29.970  24.109  14.979
46366W        W 5627  21.539  36.428  14.942
46367W        W 5628  28.949  35.502  11.998
46368W        W 5629  40.923  12.698  11.562
46369W        W 5630  32.973  25.181   2.255
46370W        W 5631  39.055   1.768  13.935
46371W        W 5632  22.247  43.992   4.677
46372W        W 5633  12.713  21.182  14.401
46373W        W 5634  35.937  36.916   0.951
46374W        W 5635  12.681  10.193   4.267
46375W        W 5636  30.422  14.101  11.098
46376W        W 5637   5.844   4.924   4.695
46377W        W 5638  40.040  11.646   1.236
46378W        W 5639   6.315  31.109   4.779
46379W        W 5640  11.762  39.001  11.948
46380W        W 5641  35.522  10.212  12.081
46381W        W 5642  12.357   3.850  14.447
46382W        W 5643  17.239  30.434  14.873
46383W        W 5644  12.236  44.351   4.712
46384W        W 5645  31.557  12.269   0.302
46385W        W 5646  12.281  17.201  14.767
46386W        W 5647  41.367  19.122  12.902
46387W        W 5648  38.559  35.404   2.750
46388W        W 5649  42.910  25.195   4.721
46389W        W 5650  15.188  23.138  14.000
46390W        W 5651  14.712  37.904   4.143
46391W        W 5652   4.859  44.803   4.219
46392W        W 5653  26.096  22.082   0.433
46393W        W 5654  40.466  32.049   2.754
46394W        W 5655  11.174  31.409   4.138
46395W        W 5656  27.168  24.606  10.156
46396W        W 5657  19.072  33.565  10.567
46397W        W 5658  22.699   8.357   1.711
46398W        W 5659  35.040  35.852  10.454
46399W        W 5660  37.934  22.091   2.266
46400W        W 5661  17.061  30.085  12.547
46401W        W 5662  18.295  32.900  13.995
46402W        W 5663   8.267  10.794   4.757
46403W        W 5664  14.697  42.838  11.526
46404W        W 5665  38.481  15.186  12.412
46405W        W 5666  20.635   6.352   2.846
46406W        W 5667   9.653  26.512   5.188
46407W        W 5668  19.083  26.080  10.051
46408W        W 5669   6.287  10.343  11.910
46409W        W 5670  30.425   4.860   3.323
46410W        W 5671  43.452  12.215  14.010
46411W        W 5672  28.160  27.945  14.307
46412W        W 5673  32.911  26.568   2.191
46413W        W 5674   3.435  31.041  11.452
46414W        W 5675   0.820  24.503   2.384
46415W        W 5676   2.435  33.398   1.216
46416W        W 5677  12.348  16.269   9.920
46417W        W 5678  36.586  42.821   0.910
46418W        W 5679   8.226  38.419   2.208
46419W        W 5680  37.894  19.758   2.802
46420W        W 5681   4.829  31.928  11.950
46421W        W 5682  18.628   2.777   0.357
46422W        W 5683  35.061  22.605  11.078
46423W        W 5684  36.408  33.965   3.369
46424W        W 5685   1.874  10.636   3.173
46425W        W 5686  43.449   7.312  14.963
46426W        W 5687  15.632  44.387  10.938
46427W        W 5688  22.129  26.158  10.139
46428W        W 5689  43.514  36.079  13.984
46429W        W 5690   7.209   2.964   2.750
46430W        W 5691  43.306  13.655   0.310
46431W        W 5692  14.794  34.901   2.888
46432W        W 5693  34.608  39.830  10.476
46433W        W 5694   8.759  33.497  14.283
46434W        W 5695  28.092  25.993   0.942
46435W        W 5696   5.324  32.977   3.339
46436W        W 5697  32.478  31.580  14.963
46437W        W 5698   0.250  41.924   2.725
46438W        W 5699  34.596  35.053   2.707
46439W        W 5700  36.913  26.469  12.894
46440W        W 5701  26.968  38.345   1.401
46441W        W 5702   0.938  16.093   4.666
46442W        W 5703   1.465  10.693  13.346
46443W        W 5704  25.190  40.533   3.763
46444W        W 5705  30.086  23.698   2.776
46445W        W 5706  12.696  14.319  10.413
46446W        W 5707   5.854   2.892  13.965
46447W        W 5708   3.457   1.244   0.333
46448W        W 5709  26.998  29.922   2.256
46449W        W 5710  15.616  26.067   3.315
46450W        W 5711  40.495  24.039   0.281
46451W        W 5712  44.856   8.825   0.300
46452W        W 5713  28.578  24.626  10.963
46453W        W 5714  26.575   7.686  13.503
46454W        W 5715  18.660  15.232  10.497
46455W        W 5716  41.999  31.425   3.761
46456W        W 5717   4.878  34.607   2.254
46457W        W 5718  28.622  11.184   1.724
46458W        W 5719  22.599  28.508   4.261
46459W        W 5720  28.538   8.815  12.921
46460W        W 5721  15.153  40.356  13.503
46461W        W 5722  32.047  23.126   2.295
46462W        W 5723   9.365  17.628  11.522
46463W        W 5724  25.183  38.471   1.225
46464W        W 5725  26.169  41.957   0.790
46465W        W 5726  15.711   1.830   2.414
46466W        W 5727   9.192  14.634  13.979
46467W        W 5728  24.669  28.014  12.080
46468W        W 5729  21.067  11.792  11.045
46469W        W 5730  32.530  10.663   3.851
46470W        W 5731   8.756  39.906  10.640
46471W        W 5732  26.586  30.618   1.266
46472W        W 5733   9.348   4.732  14.813
46473W        W 5734   2.300  44.804   2.743
46474W        W 5735  15.657  12.219  11.063
46475W        W 5736  25.630   5.378   4.831
46476W        W 5737  15.302  12.318   3.363
46477W        W 5738   4.356  42.392  12.985
46478W        W 5739  10.706  29.506   4.313
46479W        W 5740  23.511  28.932   4.638
46480W        W 5741   1.270  37.024   3.382
46481W        W 5742  21.229  16.746   0.953
46482W        W 5743  37.418  19.090  11.454
46483W        W 5744  12.353  19.249   1.878
46484W        W 5745  22.605   0.383   3.151
46485W        W 5746  14.808  37.580   2.850
46486W        W 5747  37.882  27.655   1.276
46487W        W 5748  13.260  30.957   3.367
46488W        W 5749  31.040  16.701   2.679
46489W        W 5750  14.188  23.516  13.952
46490W        W 5751   4.839  30.508  14.284
46491W        W 5752  21.570  43.278  14.876
46492W        W 5753  33.951  13.692  13.870
46493W        W 5754  31.007  22.638  11.443
46494W        W 5755  10.842   8.697   4.117
46495W        W 5756  34.908  41.450  11.996
46496W        W 5757   3.390   1.771   1.334
46497W        W 5758  36.455  38.544  14.916
46498W        W 5759  13.743  40.919  13.528
46499W        W 5760  24.648  19.090  14.759
46500W        W 5761  18.083  12.246  13.893
46501W        W 5762  44.919  33.055  14.794
46502W        W 5763   6.838  21.070   3.862
46503W        W 5764  26.680  14.319   4.657
46504W        W 5765   6.786  39.548   0.445
46505W        W 5766   4.228  38.374   0.366
46506W        W 5767  23.153   9.684   0.387
46507W        W 5768  37.928  37.933  12.942
46508W        W 5769  42.482   8.207   0.318
46509W        W 5770  20.661  15.724   0.792
46510W        W 5771  16.612  20.142  13.473
46511W        W 5772  38.495  40.834  10.974
46512W        W 5773   8.664  44.940   0.483
46513W        W 5774  33.974   2.760   0.917
46514W        W 5775  40.512   0.846  11.855
46515W        W 5776  31.604  12.258   3.301
46516W        W 5777   7.302   6.856  12.045
46517W        W 5778  25.976   5.267   4.244
46518W        W 5779  41.362  30.052   4.213
46519W        W 5780   0.313  41.410  10.607
46520W        W 5781   6.209  12.768   1.765
46521W        W 5782  26.139  29.110   0.916
46522W        W 5783  44.267  33.994  14.299
46523W        W 5784  19.229  31.975   1.412
46524W        W 5785  16.214  17.797   1.425
46525W        W 5786   7.212  34.530  14.789
46526W        W 5787   7.208  21.173  11.579
46527W        W 5788  12.747  39.355  11.890
46528W        W 5789  43.341  15.761   1.345
46529W        W 5790  38.446   9.678   1.259
46530W        W 5791  34.921  32.559   0.763
46531W        W 5792  11.233  17.730  11.459
46532W        W 5793  42.973  44.917   0.287
46533W        W 5794  38.888   9.796  14.015
46534W        W 5795  31.017  13.663  13.934
46535W        W 5796   3.440  23.031  11.979
46536W        W 5797  37.064   2.365  12.447
46537W        W 5798  27.505  18.057  12.007
46538W        W 5799  15.146  21.592   2.415
46539W        W 5800  29.646   5.687  13.396
46540W        W 5801  37.536  35.945  13.017
46541W        W 5802   7.182  31.908   5.134
46542W        W 5803  14.652  40.036   2.715
46543W        W 5804   3.812  24.032   4.816
46544W        W 5805   6.873  25.516   2.373
46545W        W 5806  16.087   4.698  14.405
46546W        W 5807   9.309  40.337   1.439
46547W        W 5808  38.479  21.246   1.716
46548W        W 5809  12.231  27.134  13.010
46549W        W 5810  22.042  37.006  14.876
46550W        W 5811   2.341  34.409  10.425
46551W        W 5812  36.097  41.412   1.303
46552W        W 5813  21.145  39.545  12.985
46553W        W 5814  41.486   6.707  12.902
46554W        W 5815  32.392  43.843   3.238
46555W        W 5816  43.797   8.179   0.922
46556W        W 5817   3.240   5.740  14.412
46557W        W 5818   3.845  44.916  11.983
46558W        W 5819  12.719  21.144   4.306
46559W        W 5820  38.013  19.094  14.793
46560W        W 5821   1.820  39.479   0.261
46561W        W 5822  17.594  31.463  13.399
46562W        W 5823   7.824  11.658  13.458
46563W        W 5824  11.275  37.421   2.251
46564W        W 5825  26.653  33.485  10.987
46565W        W 5826  21.089  27.184   1.376
46566W        W 5827  19.661   8.734  11.094
46567W        W 5828  33.008   0.416  14.827
46568W        W 5829  13.292   4.223  10.944
46569W        W 5830  37.565  36.022   0.403
46570W        W 5831   6.907  10.273  14.883
46571W        W 5832   8.661  30.091   1.382
46572W        W 5833  13.317  28.503  12.889
46573W        W 5834  43.381  30.573  13.899
46574W        W 5835  14.690  14.699  10.437
46575W        W 5836  42.286  12.736  13.938
46576W        W 5837  26.168  16.309  14.364
46577W        W 5838  18.571  20.134  12.881
46578W        W 5839  29.633   7.871  14.858
46579W        W 5840  21.021   2.304   3.277
46580W        W 5841  14.237  19.740  13.864
46581W        W 5842  25.192  18.165   1.437
46582W        W 5843   5.779  27.576  11.100
46583W        W 5844  37.841  43.768  11.933
46584W        W 5845  28.655  12.629  11.020
46585W        W 5846  31.581  23.999  12.465
46586W        W 5847  13.841  25.692  14.981
46587W        W 5848  16.074   5.218   4.349
46588W        W 5849   5.335  11.130   4.134
46589W        W 5850   7.803  29.554  13.904
46590W        W 5851  11.321  19.736  10.963
46591W        W 5852  24.034   4.922  10.135
46592W        W 5853  20.069  43.926   4.826
46593W        W 5854  18.789  26.500   2.228
46594W        W 5855  18.667  22.195  12.456
46595W        W 5856  16.734  18.564  14.907
46596W        W 5857  14.628   4.209  14.440
46597W        W 5858   6.363  23.649  12.360
46598W        W 5859   2.353   0.854   0.786
46599W        W 5860  39.483  28.517  13.360
46600W        W 5861  32.514   6.373   3.771
46601W        W 5862  30.982  13.309   2.361
46602W        W 5863  31.109  43.996   4.294
46603W        W 5864   2.962  39.827   2.816
46604W        W 5865  43.893  40.054  10.523
46605W        W 5866  10.708  30.647  11.481
46606W        W 5867   1.852  39.019  13.523
46607W        W 5868   3.873  42.293  13.976
46608W        W 5869   4.715  28.552   2.386
46609W        W 5870  16.114  25.670   4.226
46610W        W 5871  35.109  44.458   3.827
46611W        W 5872  41.321  16.314  12.464
46612W        W 5873  22.522  34.875  14.023
46613W        W 5874  32.068  44.971   4.783
46614W        W 5875  18.630   4.716   2.890
46615W        W 5876  36.888  32.133  14.899
46616W        W 5877  30.068  36.392   3.359
46617W        W 5878  15.690  44.463  11.485
46618W        W 5879  33.017  31.985   0.338
46619W        W 5880   7.802  41.972   4.678
46620W        W 5881  26.503  39.502   3.740
46621W        W 5882  27.119  34.519  14.359
46622W        W 5883  30.973   7.667   2.229
46623W        W 5884   7.775  28.065   2.846
46624W        W 5885  44.001   3.811   3.177
46625W        W 5886  14.627   8.870  14.914
46626W        W 5887  27.984  10.257   1.861
46627W        W 5888  21.547  42.473   0.440
46628W        W 5889  17.068  43.450  14.282
46629W        W 5890  37.508  43.858  13.798
46630W        W 5891  17.673  23.055   3.687
46631W        W 5892  39.487   3.942   1.270
46632W        W 5893  24.035  15.753   0.378
46633W        W 5894  28.144  31.992  13.024
46634W        W 5895  22.512   8.816   2.704
46635W        W 5896  26.658  26.078  14.437
46636W        W 5897  41.011   7.903  14.838
46637W        W 5898  16.217   1.433   1.851
46638W        W 5899  10.381  12.841   5.295
46639W        W 5900  18.633   8.365   4.614
46640W        W 5901   3.884  12.654   2.682
46641W        W 5902  15.174   3.393  14.338
46642W        W 5903  33.509  13.118   4.355
46643W        W 5904  23.019  33.010  12.385
46644W        W 5905  30.110  24.219  11.561
46645W        W 5906  31.149  31.492   1.751
46646W        W 5907  18.159  24.122  12.429
46647W        W 5908  27.052  34.429  13.471
46648W        W 5909   8.747  10.775   0.442
46649W        W 5910   3.854  32.038   4.196
46650W        W 5911  33.489   0.307   3.672
46651W        W 5912   2.434  15.796   3.294
46652W        W 5913  35.476   1.373   2.746
46653W        W 5914  21.160  27.595   2.815
46654W        W 5915  23.123  39.363   2.311
46655W        W 5916  33.564  23.229  12.494
46656W        W 5917   8.758  31.415   1.426
46657W        W 5918  14.320  30.951  14.421
46658W        W 5919  13.175  38.955   4.161
46659W        W 5920  37.490  20.183   3.707
46660W        W 5921  37.378  21.227   1.216
46661W        W 5922  32.933  36.993  14.977
46662W        W 5923  26.017   5.332  13.897
46663W        W 5924  37.985   9.874   1.710
46664W        W 5925  13.606   1.972   0.372
46665W        W 5926  44.850  24.104   2.689
46666W        W 5927   3.238   3.883  14.498
46667W        W 5928  38.962  22.248   1.903
46668W        W 5929  44.425  32.610  14.796
46669W        W 5930  15.092  42.968  14.940
46670W        W 5931  16.157  24.158  10.571
46671W        W 5932  21.239  39.011  11.947
46672W        W 5933  11.728   9.332  10.610
46673W        W 5934  41.880  17.077  14.351
46674W        W 5935   9.357  43.377  13.542
46675W        W 5936  26.508  24.535   5.596
46676W        W 5937  42.817   7.859  12.426
46677W        W 5938  33.583  14.242   3.298
46678W        W 5939  34.607  40.418   3.641
46679W        W 5940  33.591   4.711  12.507
46680W        W 5941  30.053  14.818  14.931
46681W        W 5942  38.347  33.954  11.371
46682W        W 5943   6.275  28.049  14.390
46683W        W 5944   7.907  14.806  13.394
46684W        W 5945  23.537  26.964  14.026
46685W        W 5946  38.444  10.789  11.903
46686W        W 5947  22.050   6.327  12.872
46687W        W 5948  32.621  38.542   2.733
46688W        W 5949  23.143  14.150   4.341
46689W        W 5950  12.645   5.239  10.900
46690W        W 5951  21.685  22.554  10.890
46691W        W 5952  32.445   8.193  14.989
46692W        W 5953  28.591  18.695  10.899
46693W        W 5954  15.797  44.931  13.860
46694W        W 5955  23.991  44.991   3.828
46695W        W 5956  24.696   1.398   3.297
46696W        W 5957  43.366  30.046  14.953
46697W        W 5958  21.721  30.083   0.431
46698W        W 5959  17.112  25.599   5.144
46699W        W 5960  12.154  12.304  12.036
46700W        W 5961  36.088  15.811  13.340
46701W        W 5962  22.504  28.067  14.772
46702W        W 5963   4.724  17.637   3.862
46703W        W 5964  27.618  18.270   4.823
46704W        W 5965  42.963  15.741  11.596
46705W        W 5966   1.299  15.693  14.920
46706W        W 5967  36.916  17.118  11.466
46707W        W 5968  36.918  23.034  11.470
46708W        W 5969  30.574  24.509  11.052
46709W        W 5970  22.621  25.631  12.514
46710W        W 5971   1.796  43.793   2.223
46711W        W 5972   1.344  10.311  13.499
46712W        W 5973  26.968  21.017  11.930
46713W        W 5974  12.245   6.749   4.774
46714W        W 5975   5.913   7.333   5.700
46715W        W 5976   8.207  31.474   2.711
46716W        W 5977  10.751  29.922   1.861
46717W        W 5978  10.794  11.725  13.494
46718W        W 5979  29.445  23.102  12.060
46719W        W 5980  39.345  11.726   4.722
46720W        W 5981  16.569  18.725  12.421
46721W        W 5982  34.477  44.764   1.302
46722W        W 5983  29.947  32.097   0.277
46723W        W 5984   4.300  12.670  11.387
46724W        W 5985  29.931  27.040  14.438
46725W        W 5986  16.168  39.956  14.893
46726W        W 5987   4.865  28.034   2.277
46727W        W 5988  17.755  41.041   1.931
46728W        W 5989  13.211  41.391   0.795
46729W        W 5990  35.365  44.375   0.328
46730W        W 5991  29.654   6.269   4.251
46731W        W 5992  10.651   2.953   1.775
46732W        W 5993  44.826  28.079  12.573
46733W        W 5994  35.880  23.236   1.212
46734W        W 5995  43.821  27.632   2.806
46735W        W 5996  39.421  40.478  13.322
46736W        W 5997  28.137  32.500  10.462
46737W        W 5998  43.334  34.531  12.361
46738W        W 5999  18.296  40.517   2.678
46739W        W 6000  12.768  26.468  10.995
46740W        W 6001  38.550  21.075  13.452
46741W        W 6002  15.146   6.183   2.305
46742W        W 6003  33.573  33.426   1.889
46743W        W 6004   4.803  44.415  11.102
46744W        W 6005  43.454  13.258   4.775
46745W        W 6006  37.932  38.333   0.349
46746W        W 6007  11.625   0.831  12.908
46747W        W 6008  21.094   3.758   2.274
46748W        W 6009  28.563   5.270   1.758
46749W        W 6010  38.911  15.228  11.477
46750W        W 6011  10.367  16.661   2.222
46751W        W 6012  29.662  23.176   2.727
46752W        W 6013   6.826  43.787  10.482
46753W        W 6014   4.209   1.466  13.999
46754W        W 6015  27.996  31.601   2.712
46755W        W 6016  15.101   1.892   2.827
46756W        W 6017  30.055  27.093  12.382
46757W        W 6018   5.857   8.302  10.925
46758W        W 6019   9.159  25.668   0.423
46759W        W 6020  40.383   0.900  13.320
46760W        W 6021  31.599  10.865   1.918
46761W        W 6022   4.918   4.805  13.821
46762W        W 6023   7.818   4.225   2.900
46763W        W 6024  15.760  43.286   0.874
46764W        W 6025  20.087  33.423  14.420
46765W        W 6026  20.088  27.158   0.752
46766W        W 6027  29.084  25.654   0.288
46767W        W 6028  35.500  32.590   0.801
46768W        W 6029   8.260   6.910  12.366
46769W        W 6030   7.229  29.440   0.851
46770W        W 6031   4.716  24.053  11.941
46771W        W 6032  28.443  19.183   3.772
46772W        W 6033  27.954  43.359  10.931
46773W        W 6034  32.620  17.635   1.392
46774W        W 6035   6.375   7.384   1.842
46775W        W 6036  22.137  22.684   1.822
46776W        W 6037  10.826  38.827  13.969
46777W        W 6038  28.500  29.631   3.291
46778W        W 6039  36.919  30.907  14.345
46779W        W 6040   5.437  42.280  12.948
46780W        W 6041   4.265  17.794   1.721
46781W        W 6042  30.461   3.315   2.740
46782W        W 6043  19.738   8.774  12.957
46783W        W 6044  25.563  44.268   1.232
46784W        W 6045  17.235  41.976  12.557
46785W        W 6046  43.295  32.436  10.547
46786W        W 6047  21.023  27.508   3.281
46787W        W 6048  36.513  26.636   0.895
46788W        W 6049   7.696  39.982  12.365
46789W        W 6050  18.083  11.328   2.242
46790W        W 6051  40.400   6.842  13.919
46791W        W 6052  39.904  33.554  10.492
46792W        W 6053  16.171  19.218   2.183
46793W        W 6054   9.275  11.213   2.855
46794W        W 6055   1.869  36.439  12.390
46795W        W 6056  10.265   3.437   2.797
46796W        W 6057  41.859  20.681   4.807
46797W        W 6058   0.388   2.293  11.119
46798W        W 6059  17.101   6.283   3.275
46799W        W 6060  25.540  13.116  11.575
46800W        W 6061   9.358  19.560   4.660
46801W        W 6062   1.460   9.846  11.036
46802W        W 6063  38.959  33.063  11.081
46803W        W 6064  19.101  37.511  14.955
46804W        W 6065   5.225  41.929  14.348
46805W        W 6066  28.029  38.977  14.784
46806W        W 6067  36.454  28.661   1.435
46807W        W 6068   5.392  35.030   3.315
46808W        W 6069  32.510  16.689   0.774
46809W        W 6070   0.832  36.054  14.300
46810W        W 6071  15.696  33.928   4.603
46811W        W 6072  25.642  24.104  14.459
46812W        W 6073  40.498  31.136   3.828
46813W        W 6074  29.080  10.302  13.018
46814W        W 6075  13.256  33.110  13.354
46815W        W 6076   7.285  21.112   1.833
46816W        W 6077   1.854  39.859  14.788
46817W        W 6078   2.277  27.148   3.861
46818W        W 6079  26.985  24.585  11.063
46819W        W 6080   7.303  28.952   1.377
46820W        W 6081  42.829  16.771   2.325
46821W        W 6082  25.073  22.693  13.387
46822W        W 6083  35.581  41.036   1.818
46823W        W 6084  22.184   1.347  10.992
46824W        W 6085   2.242  24.649   3.791
46825W        W 6086   6.298  23.179   0.398
46826W        W 6087   3.943  16.238   4.275
46827W        W 6088  37.007  36.580   1.789
46828W        W 6089  32.482  22.542  11.501
46829W        W 6090  25.705  24.538  12.864
46830W        W 6091  14.696  33.390  10.644
46831W        W 6092  30.005  36.374  12.903
46832W        W 6093  30.551  25.537   0.391
46833W        W 6094  11.760  30.532  12.517
46834W        W 6095   0.449  30.907  14.315
46835W        W 6096  41.429  18.609   2.738
46836W        W 6097   1.364  31.124  10.933
46837W        W 6098   3.336  23.736   1.759
46838W        W 6099  40.907  44.996   1.243
46839W        W 6100  13.185   1.304   2.304
46840W        W 6101   5.852  18.553   4.715
46841W        W 6102   0.423  28.033  13.817
46842W        W 6103  14.300  12.178   4.822
46843W        W 6104   5.211  26.495  13.450
46844W        W 6105  31.113  34.401  11.613
46845W        W 6106  23.094  23.590   0.346
46846W        W 6107  18.571  17.119  14.356
46847W        W 6108  18.269  16.678  12.917
46848W        W 6109  23.106  26.979   4.351
46849W        W 6110   1.384  42.827   0.933
46850W        W 6111  11.363  20.713  13.446
46851W        W 6112   9.175   2.800  14.400
46852W        W 6113  32.427  33.902   2.265
46853W        W 6114  36.445  30.624   4.636
46854W        W 6115  10.154  10.234  14.872
46855W        W 6116   0.787  23.625  11.388
46856W        W 6117  10.224  23.668   3.154
46857W        W 6118   2.346  17.596  13.869
46858W        W 6119  30.625  13.683   4.734
46859W        W 6120  44.281   0.886  12.482
46860W        W 6121  30.108  40.430   2.305
46861W        W 6122  28.015  30.035  10.564
46862W        W 6123  11.199  12.229  11.479
46863W        W 6124  38.988   0.312  14.824
46864W        W 6125   0.425  13.335   0.311
46865W        W 6126  26.668  40.031  11.973
46866W        W 6127  24.715  21.611  14.460
46867W        W 6128  20.262  15.117  13.818
46868W        W 6129   8.232  40.548  11.511
46869W        W 6130  31.486  12.120  14.348
46870W        W 6131   2.434  30.586  12.080
46871W        W 6132  18.700  44.983  14.960
46872W        W 6133   6.799  37.982  12.026
46873W        W 6134   5.754  41.008   4.305
46874W        W 6135   1.307   1.240   0.444
46875W        W 6136   0.365  11.183  14.793
46876W        W 6137  42.296  14.101   0.915
46877W        W 6138  30.085  33.470  13.905
46878W        W 6139  41.324  34.611   4.197
46879W        W 6140  43.379  40.911  13.921
46880W        W 6141  43.944  17.219   0.298
46881W        W 6142  35.386  23.221  10.523
46882W        W 6143  31.907  41.510   2.366
46883W        W 6144   2.724  14.668  14.834
46884W        W 6145  41.991  43.811  14.889
46885W        W 6146  12.786  16.580  13.390
46886W        W 6147   8.692   5.403  10.637
46887W        W 6148  35.577  11.816   4.725
46888W        W 6149  29.664  43.895   1.719
46889W        W 6150  28.057  40.541   2.356
46890W        W 6151  29.959  35.008   1.371
46891W        W 6152  32.024  33.569   0.780
46892W        W 6153   6.854  39.900  10.544
46893W        W 6154  24.010  18.570   3.663
46894W        W 6155   5.801   8.304  14.358
46895W        W 6156  44.765  35.917   4.735
46896W        W 6157  15.167  33.074  10.505
46897W        W 6158  40.855   7.813   1.385
46898W        W 6159  26.487   4.771  13.376
46899W        W 6160   4.450   2.353  12.994
46900W        W 6161  38.941  22.680   3.824
46901W        W 6162   6.231  34.118   2.816
46902W        W 6163  25.665   7.736  11.021
46903W        W 6164  32.127  27.104   3.205
46904W        W 6165  39.903  33.917  11.569
46905W        W 6166   1.743  35.040   2.693
46906W        W 6167  12.297   3.227   0.404
46907W        W 6168   1.419  42.469   2.683
46908W        W 6169  24.220  17.666   4.123
46909W        W 6170  26.005  44.356  14.288
46910W        W 6171  26.508  29.015   4.749
46911W        W 6172  12.738   6.819  13.545
46912W        W 6173  28.107  26.053   5.244
46913W        W 6174  22.173  12.629   0.384
46914W        W 6175   4.302  43.322   4.795
46915W        W 6176  32.457  13.672  11.981
46916W        W 6177  24.642  12.321  12.066
46917W        W 6178  32.032   8.274   2.414
46918W        W 6179  40.975  11.311  13.930
46919W        W 6180   3.277  11.638  11.490
46920W        W 6181   6.401  35.460  12.456
46921W        W 6182  17.607   4.408   4.812
46922W        W 6183  19.703  27.108   0.822
46923W        W 6184   9.354   7.319   5.247
46924W        W 6185  32.551   1.255  11.484
46925W        W 6186   7.796   3.914   4.633
46926W        W 6187  29.981  19.222   3.813
46927W        W 6188  22.036  32.588  11.998
46928W        W 6189  15.625  31.485   0.264
46929W        W 6190  28.549   5.225   1.318
46930W        W 6191   6.201  23.089  11.875
46931W        W 6192   3.430  24.647   1.443
46932W        W 6193  10.781  27.507  12.080
46933W        W 6194  43.765  30.534   0.800
46934W        W 6195   2.407   2.777   2.877
46935W        W 6196  32.395   1.410  12.442
46936W        W 6197  34.531  21.533  12.021
46937W        W 6198  16.299   8.231   1.903
46938W        W 6199  14.198  38.444  10.013
46939W        W 6200  31.420  39.008   3.256
46940W        W 6201  32.011  43.322  10.619
46941W        W 6202  37.506   8.883  12.039
46942W        W 6203   8.897  31.932  11.934
46943W        W 6204  22.229  35.463  11.374
46944W        W 6205  41.951  33.876   2.358
46945W        W 6206  44.917  18.606   0.778
46946W        W 6207  25.533   0.925  14.839
46947W        W 6208  27.636  42.029   4.295
46948W        W 6209  39.943  36.562   1.720
46949W        W 6210  19.647  15.593  12.390
46950W        W 6211   2.237   6.858   3.341
46951W        W 6212   4.389  20.048   3.720
46952W        W 6213  44.313  10.281   4.281
46953W        W 6214  35.948   3.924  13.049
46954W        W 6215  25.022   8.277   1.694
46955W        W 6216  21.093  21.705   0.374
46956W        W 6217   1.902   1.279  14.939
46957W        W 6218  43.927  39.991   4.648
46958W        W 6219   2.329   6.823   9.966
46959W        W 6220  35.567  41.913  11.399
46960W        W 6221  27.679  30.060   2.396
46961W        W 6222  19.269  27.095  11.536
46962W        W 6223  37.955  10.171  12.473
46963W        W 6224  20.115   1.346  11.579
46964W        W 6225   0.854  26.609  11.097
46965W        W 6226  20.189  30.920  10.010
46966W        W 6227  10.156  26.951   4.663
46967W        W 6228  35.405  32.545  11.597
46968W        W 6229  13.177  29.594  11.917
46969W        W 6230   8.344  24.496   1.806
46970W        W 6231  44.808  40.818  11.925
46971W        W 6232  29.624  17.173   3.786
46972W        W 6233  37.568   3.934   0.965
46973W        W 6234  32.887  18.545  11.379
46974W        W 6235  40.430  30.913  12.465
46975W        W 6236  43.927  14.161   3.708
46976W        W 6237  26.537  31.073  13.813
46977W        W 6238  29.977  43.970  10.590
46978W        W 6239  13.676   8.325   1.748
46979W        W 6240  11.744   1.270   4.785
46980W        W 6241  24.632  31.076   0.880
46981W        W 6242  11.359  26.579   3.768
46982W        W 6243  23.551  31.629   0.246
46983W        W 6244  24.981  26.132  13.947
46984W        W 6245  41.827  35.939   4.786
46985W        W 6246  27.563  23.543   3.256
46986W        W 6247  38.448  37.049   2.739
46987W        W 6248  15.219  22.659  10.505
46988W        W 6249  10.278  43.438   2.181
46989W        W 6250   0.420  16.614  14.408
46990W        W 6251  22.554  16.710  12.932
46991W        W 6252   6.780  38.012  13.841
46992W        W 6253  38.819  26.055   0.759
46993W        W 6254  39.873  25.604   0.316
46994W        W 6255  10.296  40.824   3.706
46995W        W 6256   7.310  13.640   0.391
46996W        W 6257  37.520  26.539  14.348
46997W        W 6258  33.883   1.794  12.537
46998W        W 6259  23.091  14.781   0.312
46999W        W 6260  44.267  37.883   0.834
47000W        W 6261  34.411  43.881   0.955
47001W        W 6262  42.849  42.964   2.381
47002W        W 6263  14.629  36.892   0.324
47003W        W 6264   0.872  23.995  13.922
47004W        W 6265  27.082  39.942   3.680
47005W        W 6266  11.795  31.973  10.012
47006W        W 6267  28.574  36.957   2.856
47007W        W 6268  17.261  27.664   0.469
47008W        W 6269   7.196   6.820   2.760
47009W        W 6270  18.750   1.791   1.902
47010W        W 6271  27.505  42.939   2.338
47011W        W 6272  38.377  34.587  10.925
47012W        W 6273  32.538  30.474  11.461
47013W        W 6274  24.045  16.772   2.407
47014W        W 6275  25.614  29.538  11.497
47015W        W 6276   7.216  19.606   3.653
47016W        W 6277  22.522  20.201  11.018
47017W        W 6278  27.033  14.103   5.266
47018W        W 6279  25.653  26.993   4.351
47019W        W 6280  11.811  31.583   3.834
47020W        W 6281   7.352  15.295   2.343
47021W        W 6282  24.720  13.760  14.762
47022W        W 6283  13.658   6.880   4.714
47023W        W 6284  16.609  19.717   0.760
47024W        W 6285  43.348  40.392  14.922
47025W        W 6286   2.752   2.246   2.774
47026W        W 6287  34.452  24.213   2.226
47027W        W 6288  14.755  18.290   0.735
47028W        W 6289  14.334   8.222  11.104
47029W        W 6290   1.241  18.695  12.019
47030W        W 6291   6.418  27.956   2.201
47031W        W 6292  19.195  33.425  13.813
47032W        W 6293  35.460  41.007  11.959
47033W        W 6294  10.676   3.825   3.185
47034W        W 6295   0.929  37.542  12.046
47035W        W 6296  32.563  33.509   4.180
47036W        W 6297  31.550  25.033  13.003
47037W        W 6298  19.718   4.790   4.618
47038W        W 6299   7.678  18.769   1.906
47039W        W 6300  28.497  44.479  11.471
47040W        W 6301  24.162  36.024   0.786
47041W        W 6302  30.920  33.561   5.275
47042W        W 6303  16.709  42.321  10.531
47043W        W 6304   9.234  24.620  10.598
47044W        W 6305   5.900  15.286  10.616
47045W        W 6306  44.937  25.177  10.430
47046W        W 6307  42.026  24.162  14.814
47047W        W 6308  24.524  42.317  14.376
47048W        W 6309  30.533  42.019  12.028
47049W        W 6310  15.193  32.071   0.957
47050W        W 6311   9.158  18.686   2.187
47051W        W 6312  30.575   6.890   0.332
47052W        W 6313  32.128   5.701   3.716
47053W        W 6314  28.010  43.515  13.852
47054W        W 6315   5.862  12.760  13.411
47055W        W 6316   7.196  19.588  12.445
47056W        W 6317  15.814  22.243   3.251
47057W        W 6318  41.481  34.091  10.985
47058W        W 6319  41.841  29.477   0.773
47059W        W 6320  33.108  30.954  14.815
47060W        W 6321  42.982  33.579  12.422
47061W        W 6322  26.565  22.640   0.268
47062W        W 6323  38.965  44.359  14.843
47063W        W 6324  39.549  37.552  14.366
47064W        W 6325  30.619  28.495   0.360
47065W        W 6326   7.786  32.537  12.003
47066W        W 6327  12.812  39.343   0.483
47067W        W 6328  31.108  33.076   3.814
47068W        W 6329  33.026  21.702  14.487
47069W        W 6330  39.041   4.290   4.332
47070W        W 6331   9.210  19.087  12.416
47071W        W 6332  18.133  37.372   0.458
47072W        W 6333  41.822   8.241   1.330
47073W        W 6334  13.193  33.005  13.806
47074W        W 6335  36.416   3.404   3.664
47075W        W 6336  28.548  29.970  12.415
47076W        W 6337  38.496   8.211  13.523
47077W        W 6338  36.462  21.176   1.696
47078W        W 6339  13.269  43.931  12.431
47079W        W 6340  35.904  27.602  10.950
47080W        W 6341  37.868   8.663   5.205
47081W        W 6342  10.281  44.269  10.487
47082W        W 6343  25.196  42.824  13.848
47083W        W 6344  33.533  40.908  14.792
47084W        W 6345  43.834  11.152   2.368
47085W        W 6346  35.599  33.938   4.321
47086W        W 6347   9.708  42.359  11.072
47087W        W 6348   5.296  14.217   3.673
47088W        W 6349   5.930  19.753  12.393
47089W        W 6350  41.035   9.788  12.481
47090W        W 6351  24.207  15.800  11.478
47091W        W 6352  34.428  26.620  11.959
47092W        W 6353  17.770  19.773   2.219
47093W        W 6354   3.414  37.539  10.967
47094W        W 6355  37.359  31.068  14.494
47095W        W 6356  28.008  27.631  13.511
47096W        W 6357  44.445  41.809  12.096
47097W        W 6358  19.104  30.469  13.866
47098W        W 6359  31.468  10.665  10.954
47099W        W 6360  40.532  42.454  13.334
47100W        W 6361   8.812  42.905   1.835
47101W        W 6362  30.164   0.366  12.989
47102W        W 6363   5.903  23.651  14.843
47103W        W 6364  24.996  14.095   4.171
47104W        W 6365  10.289  32.004  10.621
47105W        W 6366  39.359  14.678  12.382
47106W        W 6367  23.154  38.939  11.013
47107W        W 6368  17.203  44.348   9.923
47108W        W 6369   9.371  17.114  14.923
47109W        W 6370  22.157   7.301  14.496
47110W        W 6371  22.567  24.019   1.710
47111W        W 6372   0.971  29.530  14.032
47112W        W 6373  10.268   4.911  13.966
47113W        W 6374  20.537  13.153   2.711
47114W        W 6375  28.139  12.699   2.711
47115W        W 6376   9.745   8.178  13.466
47116W        W 6377  39.315  32.570  10.050
47117W        W 6378   4.364  15.703   3.324
47118W        W 6379  18.631   3.726  13.456
47119W        W 6380  39.934  11.686  14.375
47120W        W 6381  19.695  19.624  14.943
47121W        W 6382  32.033  11.661   0.409
47122W        W 6383   3.811  10.354   0.743
47123W        W 6384  15.660   4.858  13.875
47124W        W 6385  31.442  14.308   2.287
47125W        W 6386  22.682  18.575   0.378
47126W        W 6387  13.811   8.290  14.953
47127W        W 6388  25.617  32.020   3.810
47128W        W 6389  29.522  17.129  13.002
47129W        W 6390  27.161  34.014   4.224
47130W        W 6391  39.474  10.813  10.917
47131W        W 6392  20.157  24.526  12.877
47132W        W 6393  35.100  35.579   4.176
47133W        W 6394  36.524  30.460  12.847
47134W        W 6395  32.467  23.561  13.010
47135W        W 6396  32.008   9.251  13.933
47136W        W 6397   9.695  26.559  14.369
47137W        W 6398  11.209  39.387   2.712
47138W        W 6399   6.279  38.827  14.836
47139W        W 6400  44.435   0.857   1.841
47140W        W 6401  10.325   3.250  14.811
47141W        W 6402  43.767   4.378  10.458
47142W        W 6403  13.715  34.460   4.838
47143W        W 6404  41.347  36.516   2.703
47144W        W 6405  11.262   8.378   1.763
47145W        W 6406   1.757  44.912   1.275
47146W        W 6407   8.377  27.661  10.502
47147W        W 6408  31.551  16.755  14.970
47148W        W 6409  13.642  39.903   0.351
47149W        W 6410  42.998  41.406  11.445
47150W        W 6411  30.560   2.282   2.406
47151W        W 6412   7.711  22.543   3.795
47152W        W 6413  39.415  41.917   3.629
47153W        W 6414  39.520  32.476  10.911
47154W        W 6415  12.728  23.677  12.490
47155W        W 6416  32.493  43.942  11.429
47156W        W 6417   2.409   2.390   0.885
47157W        W 6418  16.100  15.742   2.363
47158W        W 6419  13.750  39.923  14.404
47159W        W 6420   5.920  35.519  12.567
47160W        W 6421  20.747   8.222  12.890
47161W        W 6422   5.887  22.541  11.882
47162W        W 6423  17.709  29.971  13.849
47163W        W 6424  40.544  21.686   4.634
47164W        W 6425  16.181   8.764   4.302
47165W        W 6426   3.796  34.565  10.441
47166W        W 6427  32.624  39.333   1.351
47167W        W 6428  33.410  40.498  10.599
47168W        W 6429  21.239   5.386   1.897
47169W        W 6430  31.909   6.376  12.525
47170W        W 6431  23.144  17.695  12.826
47171W        W 6432   5.720  36.586  14.974
47172W        W 6433  34.022  22.164  12.481
47173W        W 6434  23.091  32.517  12.873
47174W        W 6435  44.832   7.894  12.443
47175W        W 6436  41.300  38.447   1.704
47176W        W 6437  44.888   2.342  12.467
47177W        W 6438  15.214  43.004  12.056
47178W        W 6439  35.098  40.978  12.004
47179W        W 6440  21.660  29.491   1.305
47180W        W 6441  17.076  11.258  11.926
47181W        W 6442   8.215   6.293   3.160
47182W        W 6443  35.600   5.398   0.816
47183W        W 6444  13.844  41.325   0.451
47184W        W 6445  18.631   7.283   3.196
47185W        W 6446  43.951  23.067  12.024
47186W        W 6447  44.005  33.900  14.481
47187W        W 6448  28.563  32.447  12.033
47188W        W 6449  27.611  43.791   3.861
47189W        W 6450  34.606  42.010   3.695
47190W        W 6451  20.056   7.265   2.711
47191W        W 6452  18.777  23.519  10.973
47192W        W 6453  17.727  25.502   2.273
47193W        W 6454  11.687  26.168  13.936
47194W        W 6455  26.699   4.396   4.743
47195W        W 6456  34.394   6.681   0.436
47196W        W 6457  28.612  39.021   2.761
47197W        W 6458   1.285  32.021   2.299
47198W        W 6459  40.403  39.059   1.443
47199W        W 6460   9.841  24.199  12.842
47200W        W 6461  16.184  14.636  14.860
47201W        W 6462  40.368   5.329   0.394
47202W        W 6463  25.558  36.967   4.165
47203W        W 6464  36.916  23.007   2.319
47204W        W 6465   4.314  11.761  13.329
47205W        W 6466  35.870  16.698   1.435
47206W        W 6467   2.414  44.762   0.918
47207W        W 6468  40.999  13.665  13.521
47208W        W 6469  38.005  30.010   4.226
47209W        W 6470   4.728   1.731   0.282
47210W        W 6471   3.757  25.155  12.533
47211W        W 6472  13.333  39.411   1.833
47212W        W 6473  14.291  37.838  13.518
47213W        W 6474   0.976   8.231  11.545
47214W        W 6475  29.490  15.661   0.857
47215W        W 6476   5.700   4.365   0.246
47216W        W 6477  26.601  43.781   4.261
47217W        W 6478  11.769  43.000  11.519
47218W        W 6479  12.313  29.092  11.888
47219W        W 6480   0.265  13.618   2.300
47220W        W 6481  44.279  25.681  11.080
47221W        W 6482  36.848  26.565  10.986
47222W        W 6483  21.750  42.957  10.986
47223W        W 6484  44.483  11.656  13.971
47224W        W 6485  16.659  25.677   2.735
47225W        W 6486  19.193   5.731   0.955
47226W        W 6487  27.649  28.507   4.680
47227W        W 6488  39.043  41.887   2.665
47228W        W 6489  32.987  34.572   1.251
47229W        W 6490  24.226  43.857  12.414
47230W        W 6491   3.313   2.374   2.317
47231W        W 6492   4.415  15.095  10.433
47232W        W 6493  34.449  16.601  10.920
47233W        W 6494   9.149  42.817  13.801
47234W        W 6495  23.066  36.979   3.175
47235W        W 6496  11.298  17.253   4.838
47236W        W 6497  25.657  44.826   1.362
47237W        W 6498  35.924  10.820   1.701
47238W        W 6499  28.487  38.941  14.937
47239W        W 6500  13.741  17.575   1.413
47240W        W 6501   7.773  15.788  14.370
47241W        W 6502  29.491  31.590   4.217
47242W        W 6503  36.011  24.599  11.869
47243W        W 6504   7.827  25.020   0.378
47244W        W 6505  20.661  40.514  10.616
47245W        W 6506  30.646   3.265  14.304
47246W        W 6507  11.148  36.905  12.920
47247W        W 6508   9.830  12.837   2.393
47248W        W 6509  21.166  13.778   0.389
47249W        W 6510  32.914  36.375   3.739
47250W        W 6511  42.454  16.805   4.682
47251W        W 6512  30.946  25.966  11.604
47252W        W 6513   1.326  32.913  12.850
47253W        W 6514  41.868   6.810   3.738
47254W        W 6515  43.429   6.917   3.327
47255W        W 6516  17.152   7.242  14.316
47256W        W 6517  25.105   0.802   4.739
47257W        W 6518   6.295  21.708   1.795
47258W        W 6519  20.094  10.377   4.668
47259W        W 6520   8.730   1.240   4.647
47260W        W 6521   8.797  35.523  11.892
47261W        W 6522  31.908  18.597   1.868
47262W        W 6523  35.040   2.798  12.342
47263W        W 6524   2.759   3.956  11.377
47264W        W 6525  42.797  10.148   2.800
47265W        W 6526  20.213  35.910  11.944
47266W        W 6527  35.852   3.928  14.930
47267W        W 6528  43.323   3.899   3.373
47268W        W 6529  19.604  39.817  14.809
47269W        W 6530  34.611  11.171  12.096
47270W        W 6531  40.893   6.718  12.876
47271W        W 6532   2.954  32.101  13.791
47272W        W 6533   6.840  21.616  14.323
47273W        W 6534  30.636  29.576   3.772
47274W        W 6535  15.775  16.188   4.199
47275W        W 6536  21.656   4.426  12.577
47276W        W 6537  20.091   1.415  14.930
47277W        W 6538   1.876  24.222   2.714
47278W        W 6539  10.761  29.108  10.610
47279W        W 6540   3.239  30.654  11.498
47280W        W 6541   3.767  31.568   0.765
47281W        W 6542  19.205  27.659   0.827
47282W        W 6543  17.107  14.682  12.884
47283W        W 6544   7.297  18.204  14.858
47284W        W 6545  17.567  44.279  14.925
47285W        W 6546  28.109  20.094   2.364
47286W        W 6547   1.297  31.014  14.954
47287W        W 6548  15.820  31.132  11.977
47288W        W 6549  38.505   7.298  12.024
47289W        W 6550   1.368  40.867  14.923
47290W        W 6551  37.395   9.712   1.934
47291W        W 6552  20.158   1.785   0.768
47292W        W 6553  18.244   2.773  12.559
47293W        W 6554  11.347  40.340  14.862
47294W        W 6555  11.736  34.909   2.694
47295W        W 6556  29.000  35.427   4.754
47296W        W 6557  10.246  42.479  11.123
47297W        W 6558   8.854  30.101   4.313
47298W        W 6559  17.191  32.070  12.553
47299W        W 6560  37.864  29.528  12.001
47300W        W 6561   0.355   8.285   0.841
47301W        W 6562  15.227   5.823  12.460
47302W        W 6563   6.186   3.778  14.028
47303W        W 6564   4.298   9.341   0.831
47304W        W 6565  29.543  38.873  13.388
47305W        W 6566  14.111  33.522  10.568
47306W        W 6567  37.874   3.419  13.463
47307W        W 6568  30.428   4.450   2.866
47308W        W 6569   5.205  16.207   2.199
47309W        W 6570  17.302  22.082  13.041
47310W        W 6571   5.862  19.543  11.898
47311W        W 6572   9.777   1.906   1.806
47312W        W 6573  31.589  23.701   4.608
47313W        W 6574  30.573  32.007  11.587
47314W        W 6575   9.270  25.119  10.448
47315W        W 6576   1.335  20.628   1.394
47316W        W 6577  41.977  31.938   2.684
47317W        W 6578  34.050  13.831   1.872
47318W        W 6579  17.671   4.208  11.031
47319W        W 6580  35.991  19.738   3.781
47320W        W 6581  15.186  26.610   1.796
47321W        W 6582  27.640   9.324  14.498
47322W        W 6583   7.263  12.298  12.004
47323W        W 6584  29.084  23.052  11.879
47324W        W 6585   8.708  13.793  13.506
47325W        W 6586  30.637  41.329  13.805
47326W        W 6587   2.744   4.832  14.412
47327W        W 6588  41.328  18.664   0.900
47328W        W 6589  18.702   1.907   0.416
47329W        W 6590  34.997   7.322  12.987
47330W        W 6591  12.221   3.225   1.897
47331W        W 6592  21.216  14.295   2.767
47332W        W 6593  10.775  28.461   4.117
47333W        W 6594  37.370   9.281  10.609
47334W        W 6595  23.604   9.228  14.458
47335W        W 6596  17.580  17.188   1.353
47336W        W 6597  10.284  17.755  14.902
47337W        W 6598  28.112  44.803  11.876
47338W        W 6599  42.957  12.833  13.936
47339W        W 6600   0.966  19.068  11.019
47340W        W 6601  31.496  13.234   4.638
47341W        W 6602  11.264  30.054   1.414
47342W        W 6603   3.772  23.134  13.507
47343W        W 6604  40.402   5.721  13.445
47344W        W 6605  22.516  14.827  13.975
47345W        W 6606  43.898   8.787  10.635
47346W        W 6607  12.362  19.616   4.757
47347W        W 6608  15.613  26.529   0.377
47348W        W 6609  19.066  35.477   4.799
47349W        W 6610   1.822  39.374  12.376
47350W        W 6611   8.255  32.414  14.285
47351W        W 6612   8.281   3.910   2.405
47352W        W 6613  12.163  37.436  14.811
47353W        W 6614   2.805  22.682   1.360
47354W        W 6615  24.104   5.740  11.383
47355W        W 6616  35.973  44.905   3.168
47356W        W 6617  38.548  28.569   0.349
47357W        W 6618  16.101  38.402  13.972
47358W        W 6619  13.291   5.934  10.030
47359W        W 6620   4.771  44.476   0.466
47360W        W 6621  34.964  19.555  12.969
47361W        W 6622  37.886  15.150  14.998
47362W        W 6623  19.213  16.156   0.871
47363W        W 6624  27.013  17.693   3.237
47364W        W 6625  37.540  38.046  12.491
47365W        W 6626   8.792  17.063   3.330
47366W        W 6627  40.860  16.154  13.524
47367W        W 6628  14.282  43.362  14.313
47368W        W 6629   6.255  32.545   2.314
47369W        W 6630  37.953  15.699  14.799
47370W        W 6631   2.275  16.275   1.325
47371W        W 6632  26.092  25.102  12.085
47372W        W 6633  15.816  32.131   0.837
47373W        W 6634  34.527  12.749  12.399
47374W        W 6635  18.712  36.528  11.411
47375W        W 6636  28.641  17.703   3.345
47376W        W 6637  40.508  14.609  12.978
47377W        W 6638  37.088   1.343   3.734
47378W        W 6639  44.948  19.677  13.531
47379W        W 6640  44.852  21.196   2.707
47380W        W 6641  18.199   2.792  14.781
47381W        W 6642  25.505   2.328   2.251
47382W        W 6643  29.644   9.385   4.190
47383W        W 6644   2.796  38.498   1.698
47384W        W 6645  35.937  44.288  11.875
47385W        W 6646  25.964   7.235  11.519
47386W        W 6647  39.033   6.749   1.224
47387W        W 6648  31.916   9.861   3.254
47388W        W 6649  12.326  41.351  14.875
47389W        W 6650  18.716   1.758  13.479
47390W        W 6651  15.134  32.479  10.518
47391W        W 6652  13.667  42.917   0.348
47392W        W 6653  34.564   6.285   2.351
47393W        W 6654   2.799  36.560  13.792
47394W        W 6655  19.534  22.026  12.376
47395W        W 6656  18.779  11.203   2.815
47396W        W 6657  23.112   3.866   4.642
47397W        W 6658  22.540  25.122   1.324
47398W        W 6659  11.714  33.541  14.919
47399W        W 6660  17.722  27.021  12.485
47400W        W 6661  21.125  42.851  14.888
47401W        W 6662  35.088   2.865   4.709
47402W        W 6663  22.690  19.194   2.342
47403W        W 6664  19.069  11.830   0.258
47404W        W 6665  12.675  26.673  13.382
47405W        W 6666   3.885  17.634  11.393
47406W        W 6667  33.972  18.778  13.981
47407W        W 6668  17.641  43.919  10.461
47408W        W 6669  22.050   8.343   1.822
47409W        W 6670  35.591  29.461   2.197
47410W        W 6671   6.384  43.002   4.337
47411W        W 6672  12.665   5.800  10.448
47412W        W 6673  12.191   8.227   3.179
47413W        W 6674  18.271  41.973  13.538
47414W        W 6675  36.005  41.983  14.396
47415W        W 6676   3.231  30.659   2.407
47416W        W 6677   7.264  22.104   4.219
47417W        W 6678  14.203  36.575   3.817
47418W        W 6679  36.583   7.866   4.619
47419W        W 6680  12.353   8.858   1.770
47420W        W 6681  17.736  37.080  14.482
47421W        W 6682  38.055   0.788  12.351
47422W        W 6683  41.308   7.818   0.855
47423W        W 6684  12.654  13.320   3.342
47424W        W 6685  43.507  15.150  13.341
47425W        W 6686  11.739  34.487  13.049
47426W        W 6687   9.339  15.584  14.485
47427W        W 6688   5.327  40.312  11.425
47428W        W 6689  19.613  40.374   0.878
47429W        W 6690  35.601  23.498  12.402
47430W        W 6691  37.531   5.194   3.817
47431W        W 6692   7.760  19.051  13.879
47432W        W 6693  27.983   2.293   0.960
47433W        W 6694  16.758  23.171   3.364
47434W        W 6695  34.468  26.208  10.508
47435W        W 6696  41.388  37.046  10.424
47436W        W 6697  40.985  29.480  10.912
47437W        W 6698  31.410  24.580   3.315
47438W        W 6699  18.195   1.380   4.609
47439W        W 6700  12.332  32.436   4.337
47440W        W 6701   2.862  30.450   2.725
47441W        W 6702   9.791  40.478  13.436
47442W        W 6703  39.955  29.960   0.875
47443W        W 6704  11.754  12.159  14.997
47444W        W 6705  12.756  27.093  12.396
47445W        W 6706  32.501  26.465  14.513
47446W        W 6707   8.352  44.417   3.637
47447W        W 6708  44.363  44.007   2.810
47448W        W 6709  28.088  22.742   1.341
47449W        W 6710  28.551   0.845   2.887
47450W        W 6711   8.162  12.126  12.964
47451W        W 6712  43.888  17.236  12.076
47452W        W 6713  27.170  12.336   1.909
47453W        W 6714   9.740  20.156  13.341
47454W        W 6715  38.906  38.351  11.566
47455W        W 6716  23.640  34.439   0.964
47456W        W 6717  35.880  28.988   4.791
47457W        W 6718   3.317  12.799  10.529
47458W        W 6719  11.714  33.992  14.021
47459W        W 6720  37.892  44.942   4.695
47460W        W 6721  34.441  19.175  13.943
47461W        W 6722  37.347   3.301  10.486
47462W        W 6723  27.194  41.422  12.419
47463W        W 6724   4.301  27.955  13.047
47464W        W 6725  32.981  10.738   0.418
47465W        W 6726  15.276  34.969  10.481
47466W        W 6727  13.774  22.609   3.303
47467W        W 6728  16.670  18.577   3.645
47468W        W 6729  26.605  23.108  13.007
47469W        W 6730  15.245   9.688   3.230
47470W        W 6731  18.111  18.624   4.299
47471W        W 6732   9.687  20.188   4.759
47472W        W 6733  10.274  23.597  10.988
47473W        W 6734   0.274   7.902  10.574
47474W        W 6735  28.665   0.300   2.264
47475W        W 6736   1.876  18.193  12.434
47476W        W 6737  32.962  33.981   1.358
47477W        W 6738  23.138  36.852  14.988
47478W        W 6739  31.952  29.117  13.465
47479W        W 6740   1.285  36.368  11.907
47480W        W 6741  20.059  19.673  13.836
47481W        W 6742   9.858  36.907  11.387
47482W        W 6743  40.897  37.046  14.904
47483W        W 6744   5.877  11.184  10.937
47484W        W 6745  23.078  31.615   1.879
47485W        W 6746  43.948  24.145  14.771
47486W        W 6747  20.568  17.752  11.860
47487W        W 6748  10.374  21.748   4.720
47488W        W 6749   3.395  33.611  12.026
47489W        W 6750  23.563  35.994  12.492
47490W        W 6751  26.980  30.911  12.506
47491W        W 6752  38.046  14.213  11.580
47492W        W 6753  37.424   5.695  12.023
47493W        W 6754  25.178  28.078  14.943
47494W        W 6755   2.758  34.548  14.770
47495W        W 6756   6.209  39.557   1.878
47496W        W 6757  13.343   3.395   0.861
47497W        W 6758  37.955  13.820  11.056
47498W        W 6759  17.156  10.356  13.029
47499W        W 6760  14.770  13.129  10.489
47500W        W 6761   1.907  10.277  11.895
47501W        W 6762  39.914  42.504   4.614
47502W        W 6763  16.079  10.190   2.821
47503W        W 6764   2.743   7.776   2.215
47504W        W 6765   3.950  28.064   1.797
47505W        W 6766  26.050  41.342  13.023
47506W        W 6767  20.268  41.372  13.026
47507W        W 6768   9.833  16.774  12.930
47508W        W 6769  44.341  25.049   2.198
47509W        W 6770  18.131   5.313   0.877
47510W        W 6771  10.792   9.743   4.790
47511W        W 6772  27.576   9.178   1.325
47512W        W 6773  38.408  25.535   3.854
47513W        W 6774  29.009  26.557  12.060
47514W        W 6775  23.068  38.487  10.955
47515W        W 6776   0.477  34.562  12.375
47516W        W 6777  16.633  28.592   0.262
47517W        W 6778   4.278  32.126  10.440
47518W        W 6779   7.847  17.198   2.247
47519W        W 6780  36.453   6.859   0.314
47520W        W 6781  16.136  38.896   1.420
47521W        W 6782  23.178  29.955  10.570
47522W        W 6783  10.288  31.502   1.450
47523W        W 6784  12.137   1.907   9.482
47524W        W 6785  30.965  34.969   2.664
47525W        W 6786  36.994  28.970   0.959
47526W        W 6787  18.261  26.600  12.056
47527W        W 6788   3.376  13.744  13.918
47528W        W 6789  15.298  34.597  14.482
47529W        W 6790  30.003   5.211  10.941
47530W        W 6791  35.062   5.904  11.536
47531W        W 6792  10.158   5.209   4.161
47532W        W 6793  25.172  44.458   5.242
47533W        W 6794  39.359  16.682   0.270
47534W        W 6795   9.680  23.651   2.795
47535W        W 6796   1.452  23.990  14.326
47536W        W 6797  31.567   4.927   1.424
47537W        W 6798  39.061  16.783   0.756
47538W        W 6799   9.652   1.473  13.916
47539W        W 6800   6.767   4.855   4.773
47540W        W 6801  26.102   8.792   4.264
47541W        W 6802  16.643  26.151  14.806
47542W        W 6803  21.039  28.002   1.853
47543W        W 6804  28.445  15.691   9.947
47544W        W 6805  42.950   7.876   1.399
47545W        W 6806  16.210  11.860   1.705
47546W        W 6807  21.190  10.267   2.367
47547W        W 6808  44.991   8.262   3.255
47548W        W 6809   8.389   5.324  11.857
47549W        W 6810  43.807  29.660  13.048
47550W        W 6811   4.892   4.928  12.517
47551W        W 6812  37.869  29.509  12.944
47552W        W 6813  21.131  10.877  13.413
47553W        W 6814  24.668   8.655   4.151
47554W        W 6815  37.420  26.968  11.024
47555W        W 6816  33.040  36.958  13.871
47556W        W 6817  15.096  33.028  12.419
47557W        W 6818  41.832  15.803  10.139
47558W        W 6819  24.671  30.099  12.506
47559W        W 6820  15.316  42.475  12.056
47560W        W 6821  29.142  23.128  12.454
47561W        W 6822   5.799  40.438  12.973
47562W        W 6823  33.903  26.626  13.343
47563W        W 6824  16.665   3.288  11.883
47564W        W 6825  41.408  27.490  12.994
47565W        W 6826  14.277  41.797   3.308
47566W        W 6827  16.222  16.133  12.547
47567W        W 6828  38.390   4.863  13.044
47568W        W 6829   6.405  26.114  13.493
47569W        W 6830  18.260   1.345  12.904
47570W        W 6831  28.187  11.806  14.003
47571W        W 6832   6.332  10.839   3.738
47572W        W 6833  11.690  39.826  11.474
47573W        W 6834  14.216  21.166  12.353
47574W        W 6835   4.231  18.215   3.232
47575W        W 6836  41.527   1.807   2.305
47576W        W 6837  13.810  17.764   3.840
47577W        W 6838  19.542  35.600   3.669
47578W        W 6839  17.579  11.203  11.893
47579W        W 6840  13.149  38.418   1.380
47580W        W 6841  40.412  22.667   1.429
47581W        W 6842   9.269   6.872   2.345
47582W        W 6843  15.234  30.105   1.864
47583W        W 6844  33.508  24.485   4.287
47584W        W 6845  23.049  18.705  10.627
47585W        W 6846  25.623  42.401  11.401
47586W        W 6847  36.432  40.004  13.883
47587W        W 6848  41.946  32.960   0.754
47588W        W 6849  36.396  12.674  10.442
47589W        W 6850  27.480  30.976   0.775
47590W        W 6851  25.613  42.987  13.854
47591W        W 6852  31.468  15.185   4.332
47592W        W 6853  29.966  33.534   3.282
47593W        W 6854  41.485  11.661   0.862
47594W        W 6855  20.680  13.249   3.760
47595W        W 6856  23.027  13.220  13.065
47596W        W 6857  24.974  13.289  12.474
47597W        W 6858  43.791  25.066  11.889
47598W        W 6859  37.042  20.672  13.445
47599W        W 6860  31.499   6.893   0.795
47600W        W 6861  23.559  42.026  11.052
47601W        W 6862  38.915   8.368   3.674
47602W        W 6863  27.668   9.799   1.841
47603W        W 6864   6.793  18.293   3.729
47604W        W 6865  39.061  10.798   4.271
47605W        W 6866  21.702  39.547   3.661
47606W        W 6867  42.811   2.461  12.490
47607W        W 6868  19.159   4.375   3.379
47608W        W 6869  19.237  32.922  12.831
47609W        W 6870  23.079  18.245  13.418
47610W        W 6871  31.093   1.780   3.800
47611W        W 6872  25.590  35.440  13.507
47612W        W 6873  30.936  35.465   2.758
47613W        W 6874  25.577  19.573   3.666
47614W        W 6875  14.215  11.854  11.925
47615W        W 6876  14.707   0.442   0.251
47616W        W 6877  12.216  40.352   2.845
47617W        W 6878  27.607  15.172  11.116
47618W        W 6879  19.673  36.085   1.325
47619W        W 6880   3.856  14.231  14.764
47620W        W 6881  19.072  25.118   2.801
47621W        W 6882   2.253  32.587   1.699
47622W        W 6883  10.748  34.929  14.414
47623W        W 6884  32.439  36.940   2.210
47624W        W 6885   8.818  17.179  10.977
47625W        W 6886  30.950  38.832   4.805
47626W        W 6887  21.515  42.331   2.299
47627W        W 6888  37.462  15.118  11.550
47628W        W 6889  11.759  11.861   3.158
47629W        W 6890   6.720  13.309   3.386
47630W        W 6891   3.732  33.567  14.362
47631W        W 6892  37.940  32.530  14.031
47632W        W 6893   3.729   1.771   9.960
47633W        W 6894  22.603  26.693  13.900
47634W        W 6895  44.909  38.512  14.909
47635W        W 6896   6.302  36.059  14.832
47636W        W 6897  33.041  42.782   3.232
47637W        W 6898  37.440  32.560  10.050
47638W        W 6899  22.610  34.885   5.297
47639W        W 6900  28.072  16.724  14.292
47640W        W 6901  36.402  10.234   2.831
47641W        W 6902  13.325  26.635  11.578
47642W        W 6903  23.998  30.635  13.459
47643W        W 6904   0.334  43.906  14.764
47644W        W 6905  41.922  25.471   4.330
47645W        W 6906  31.082  16.158   4.789
47646W        W 6907  35.442   3.357  11.971
47647W        W 6908  37.931  14.165  10.512
47648W        W 6909  16.649   6.425   2.252
47649W        W 6910  43.960  44.939  14.961
47650W        W 6911  18.280  21.600   0.874
47651W        W 6912  44.298  44.904  13.309
47652W        W 6913  17.153   6.735   4.730
47653W        W 6914   4.878   1.846  12.881
47654W        W 6915  39.533  33.889   1.733
47655W        W 6916  35.954  40.849  14.319
47656W        W 6917   3.223  40.475  10.611
47657W        W 6918  35.098   2.448   5.103
47658W        W 6919   7.233  40.423  13.931
47659W        W 6920  27.663  29.647   2.820
47660W        W 6921  12.337  20.672  11.068
47661W        W 6922  41.790  25.697   1.305
47662W        W 6923  17.573  33.553   3.242
47663W        W 6924  16.235   5.863   0.363
47664W        W 6925   1.887  44.880  12.862
47665W        W 6926  33.920   9.740  12.472
47666W        W 6927  17.670  40.919  10.948
47667W        W 6928  24.994  21.219  13.934
47668W        W 6929  21.131  15.229   2.840
47669W        W 6930  40.333  18.598   2.838
47670W        W 6931  24.155  32.119   4.688
47671W        W 6932  16.654  34.903   3.287
47672W        W 6933   6.240   5.933  13.840
47673W        W 6934  37.471  12.130   4.126
47674W        W 6935  23.650   3.728  13.457
47675W        W 6936  14.801  19.228  12.486
47676W        W 6937  21.247  10.712  11.397
47677W        W 6938  16.659  36.014   4.823
47678W        W 6939  35.029   9.670   2.825
47679W        W 6940  38.934  41.493  14.366
47680W        W 6941  28.164  11.228   1.391
47681W        W 6942  14.228  10.667  11.585
47682W        W 6943  22.049  19.537  10.569
47683W        W 6944  42.449  11.264  11.483
47684W        W 6945  37.893  20.693   0.871
47685W        W 6946  44.868  11.839  12.487
47686W        W 6947  13.225  39.028   3.378
47687W        W 6948  17.725   4.356  14.298
47688W        W 6949  17.605  44.924  14.935
47689W        W 6950  18.183   3.293  12.452
47690W        W 6951   3.281  11.854  11.081
47691W        W 6952  12.206  30.065  13.798
47692W        W 6953  29.466  12.807  13.835
47693W        W 6954  43.458   2.319  12.419
47694W        W 6955  13.734  12.130   2.839
47695W        W 6956  43.487  17.582   0.286
47696W        W 6957  33.499  13.151  13.823
47697W        W 6958  26.609   8.703   1.443
47698W        W 6959  17.755  42.999  11.011
47699W        W 6960   8.742  23.520   2.700
47700W        W 6961  26.173  20.213  14.398
47701W        W 6962  18.241  13.815   3.697
47702W        W 6963   0.853   6.852   4.642
47703W        W 6964  15.697  30.413  11.093
47704W        W 6965  40.415   6.756   4.269
47705W        W 6966  12.331  41.416  11.987
47706W        W 6967  39.860  44.463  14.932
47707W        W 6968  27.472   8.757   4.649
47708W        W 6969  21.215  26.691  14.516
47709W        W 6970   3.363  42.427  10.573
47710W        W 6971  13.332  30.918   2.824
47711W        W 6972   0.443   8.773  11.883
47712W        W 6973  44.856  15.249   3.823
47713W        W 6974  19.769  12.305   1.251
47714W        W 6975  30.136  11.272  14.468
47715W        W 6976  12.778  22.149   2.325
47716W        W 6977  19.661  35.563   3.174
47717W        W 6978   6.246  25.005  13.996
47718W        W 6979  29.477   5.723  13.012
47719W        W 6980  12.295   4.774   2.732
47720W        W 6981  10.346  12.849   4.782
47721W        W 6982  27.178  42.518   4.345
47722W        W 6983  40.018  36.905  12.895
47723W        W 6984  28.014  32.635  11.860
47724W        W 6985   3.787   8.236   3.775
47725W        W 6986  30.120  27.137  11.128
47726W        W 6987  26.143  14.314   1.839
47727W        W 6988  36.526  34.499  13.798
47728W        W 6989  32.616   7.295   2.393
47729W        W 6990  42.893  19.737   4.816
47730W        W 6991  30.945  35.022  10.082
47731W        W 6992  27.547  19.277   0.823
47732W        W 6993  37.582   7.699  11.382
47733W        W 6994  22.648  42.489   4.802
47734W        W 6995   8.219   0.775  14.349
47735W        W 6996  43.322   2.402  13.373
47736W        W 6997  44.290   6.864  10.565
47737W        W 6998  38.953  41.943  12.559
47738W        W 6999  34.406  28.469  13.486
47739W        W 7000  11.657  35.872   1.378
47740W        W 7001  17.263  11.229   4.627
47741W        W 7002  28.110  17.694  14.795
47742W        W 7003  15.644   9.878  13.401
47743W        W 7004   6.290  44.890   3.365
47744W        W 7005  40.847  41.447  12.995
47745W        W 7006  28.064  42.983   4.337
47746W        W 7007  43.367   6.777  10.464
47747W        W 7008  37.481  21.555   0.399
47748W        W 7009  31.605  33.441  13.004
47749W        W 7010  11.753  39.929   3.303
47750W        W 7011  36.459  21.553   0.245
47751W        W 7012  11.288  36.981   0.885
47752W        W 7013  21.235  15.756  10.608
47753W        W 7014  34.869  18.763   1.277
47754W        W 7015  11.630   5.759   1.222
47755W        W 7016  43.960  41.833  13.527
47756W        W 7017   6.256  34.497   2.868
47757W        W 7018  28.127  15.129   4.141
47758W        W 7019   1.923   8.809  12.965
47759W        W 7020   3.349  34.534  10.493
47760W        W 7021  19.214  10.277   0.479
47761W        W 7022  34.019   2.257   2.318
47762W        W 7023  36.583  41.348   3.685
47763W        W 7024  40.402  21.529   0.938
47764W        W 7025  30.046  21.245   3.770
47765W        W 7026   1.262  35.517   0.937
47766W        W 7027  27.604  43.874   4.605
47767W        W 7028  33.990  14.332  12.568
47768W        W 7029  39.025  25.485   2.338
47769W        W 7030  34.483  16.272  14.403
47770W        W 7031   4.223   4.254   2.348
47771W        W 7032  34.469   6.184  10.426
47772W        W 7033  30.124  11.191  13.381
47773W        W 7034  22.589   8.199  13.036
47774W        W 7035  32.477  39.520  10.951
47775W        W 7036   3.377   6.715  14.324
47776W        W 7037  21.105  34.865   1.790
47777W        W 7038   5.439  26.521  12.060
47778W        W 7039  32.458  23.721  14.323
47779W        W 7040  44.983   0.806  13.056
47780W        W 7041  14.225  33.977  12.904
47781W        W 7042  19.040  10.309   0.882
47782W        W 7043  30.103  10.379   0.282
47783W        W 7044  41.819  23.102   3.274
47784W        W 7045   4.914  41.337  11.978
47785W        W 7046  36.390  35.428   3.871
47786W        W 7047   5.292  42.890  14.858
47787W        W 7048  43.313  43.913   3.803
47788W        W 7049   4.227  20.042   3.372
47789W        W 7050   8.224  34.006  13.062
47790W        W 7051  11.767  20.699  14.787
47791W        W 7052   5.736  11.833   2.702
47792W        W 7053  41.933   8.375   4.731
47793W        W 7054  12.779  44.802   4.811
47794W        W 7055  38.989  16.746  12.881
47795W        W 7056  39.052  30.164   2.379
47796W        W 7057  37.902   8.852   1.873
47797W        W 7058  38.941   1.932  14.872
47798W        W 7059   2.893  10.362   1.326
47799W        W 7060   8.324  36.910   4.172
47800W        W 7061  24.546  43.000  11.915
47801W        W 7062  30.931  22.538  10.603
47802W        W 7063  27.690  42.394   3.256
47803W        W 7064   9.653  41.997   0.921
47804W        W 7065  36.893   2.275   1.420
47805W        W 7066  10.678  16.234  14.778
47806W        W 7067  20.211  44.271   2.311
47807W        W 7068  31.519   8.161   2.373
47808W        W 7069   9.179  17.605   4.311
47809W        W 7070   6.385  10.678   4.144
47810W        W 7071   7.732  38.892  13.474
47811W        W 7072  25.050  44.389   1.873
47812W        W 7073  32.107  27.182  14.502
47813W        W 7074   2.471   4.729  11.591
47814W        W 7075   9.675  16.096  11.045
47815W        W 7076  14.658  40.321  10.498
47816W        W 7077  20.624  11.745  14.028
47817W        W 7078  24.523  44.798   0.461
47818W        W 7079  34.019   2.755   3.239
47819W        W 7080   0.884  21.066  10.592
47820W        W 7081  34.578   0.938   1.315
47821W        W 7082  21.706  17.717  12.894
47822W        W 7083  14.698   4.736  11.440
47823W        W 7084  34.044  39.378   4.711
47824W        W 7085  15.639  16.309   3.383
47825W        W 7086   7.840  26.589   3.854
47826W        W 7087  21.239  35.909   5.251
47827W        W 7088  23.531   7.206  11.522
47828W        W 7089   7.367  30.541  14.954
47829W        W 7090  43.948   3.252  13.461
47830W        W 7091   1.908   7.707  12.838
47831W        W 7092   2.760  35.978  11.976
47832W        W 7093  19.067   3.859   4.650
47833W        W 7094  12.643   7.831  10.161
47834W        W 7095  32.985  22.602  14.425
47835W        W 7096  27.523  41.855   2.317
47836W        W 7097   8.758  34.869  12.476
47837W        W 7098   5.199  34.522   0.926
47838W        W 7099  33.482  44.399   9.973
47839W        W 7100  29.014  43.459   1.781
47840W        W 7101  16.643  43.895   2.741
47841W        W 7102  35.947  31.984   0.343
47842W        W 7103  15.084  12.235  14.483
47843W        W 7104  18.058  35.869   3.305
47844W        W 7105  22.050  29.061   1.850
47845W        W 7106  11.810  19.268  11.532
47846W        W 7107   0.490  20.102  12.920
47847W        W 7108  10.860  14.256   4.180
47848W        W 7109  39.357   7.907   3.675
47849W        W 7110  11.816  24.146  12.488
47850W        W 7111  26.627  29.162  11.438
47851W        W 7112  22.048   1.382  13.360
47852W        W 7113   7.217  16.176   0.266
47853W        W 7114  31.078  36.874   3.842
47854W        W 7115  36.857  14.157   0.910
47855W        W 7116  30.946  15.749  11.502
47856W        W 7117  23.023  28.633   2.898
47857W        W 7118  38.067   9.185   3.775
47858W        W 7119  28.546  23.219  14.838
47859W        W 7120  33.063  44.909   0.876
47860W        W 7121  16.584  23.614   4.198
47861W        W 7122  32.579  22.666  13.059
47862W        W 7123   8.836  33.905  13.873
47863W        W 7124  21.740  30.916  14.987
47864W        W 7125   6.838  37.885  12.981
47865W        W 7126  41.807  43.280  14.374
47866W        W 7127  41.967  32.990  14.493
47867W        W 7128  10.365  18.227   1.336
47868W        W 7129  40.947  26.562  13.865
47869W        W 7130  30.078  40.357  12.939
47870W        W 7131   9.834  10.703   1.780
47871W        W 7132  13.302  23.727   3.857
47872W        W 7133  37.927  33.044  11.935
47873W        W 7134  28.466  33.890  11.023
47874W        W 7135  44.782  32.450  12.919
47875W        W 7136  25.168   4.222  12.520
47876W        W 7137  19.061   8.777   2.309
47877W        W 7138  41.040  20.209  13.938
47878W        W 7139  41.307  33.937  14.975
47879W        W 7140   2.841   0.300  12.943
47880W        W 7141  36.918  20.248  13.375
47881W        W 7142  22.063  16.689  13.981
47882W        W 7143  35.430  34.478   3.378
47883W        W 7144  28.014  37.983  11.029
47884W        W 7145  29.633  22.050   1.739
47885W        W 7146  20.083  35.894   5.180
47886W        W 7147  14.639  41.993  13.370
47887W        W 7148  36.358  34.985   0.301
47888W        W 7149  13.172  10.751   3.729
47889W        W 7150  35.974  20.138  12.525
47890W        W 7151  10.172  33.924  10.892
47891W        W 7152  40.857  17.197   1.343
47892W        W 7153   7.240  42.480   2.224
47893W        W 7154   7.353  29.538  11.571
47894W        W 7155  16.593  38.407   0.464
47895W        W 7156  13.791   6.916  14.516
47896W        W 7157  17.135   0.456  13.442
47897W        W 7158  37.529  29.096  10.976
47898W        W 7159  31.028  40.842   2.803
47899W        W 7160  31.139  41.497  12.444
47900W        W 7161  18.739  24.096  10.971
47901W        W 7162   1.405   3.239  11.874
47902W        W 7163  29.002  32.463   3.836
47903W        W 7164  31.147  34.585   2.812
47904W        W 7165  40.006  40.363   4.718
47905W        W 7166  13.790  24.167   1.934
47906W        W 7167   1.778  27.616   3.304
47907W        W 7168  10.655  28.968   4.637
47908W        W 7169  14.287  30.622  14.394
47909W        W 7170   5.221  20.564  10.946
47910W        W 7171  40.394  23.516  12.470
47911W        W 7172  11.662   5.827  11.394
47912W        W 7173  15.170  23.082  13.395
47913W        W 7174   0.921  16.213   3.254
47914W        W 7175  34.555   8.230   1.723
47915W        W 7176  28.179  44.880   3.782
47916W        W 7177  40.014  41.914  14.940
47917W        W 7178  37.855  15.627  12.515
47918W        W 7179  13.828  28.542  12.388
47919W        W 7180   3.713  15.765  14.411
47920W        W 7181   9.253  10.236   9.546
47921W        W 7182  22.659   6.426  14.004
47922W        W 7183   6.194  38.450  14.375
47923W        W 7184  37.012  11.315  12.050
47924W        W 7185   6.886  19.279   3.735
47925W        W 7186  10.786  15.101  14.493
47926W        W 7187   7.779  35.928  14.889
47927W        W 7188  43.482   3.413   4.832
47928W        W 7189  31.962  25.640   3.857
47929W        W 7190  15.121  17.670   2.733
47930W        W 7191  44.922  26.470  11.499
47931W        W 7192  24.211  15.649   0.817
47932W        W 7193  14.239  35.448   1.451
47933W        W 7194  39.314  11.248   0.952
47934W        W 7195  18.662   2.408   2.416
47935W        W 7196  44.850  29.460   4.236
47936W        W 7197  30.603  20.242  13.967
47937W        W 7198  15.188  28.100   2.401
47938W        W 7199  34.973  37.506   0.303
47939W        W 7200   3.250  13.130   4.817
47940W        W 7201   4.276  44.389  13.810
47941W        W 7202  14.612  34.538   5.151
47942W        W 7203   2.257  29.520  12.940
47943W        W 7204  26.501  20.660  11.389
47944W        W 7205  42.876  19.732   1.297
47945W        W 7206  35.864  22.189   2.760
47946W        W 7207  13.716  12.715   1.398
47947W        W 7208   2.316  30.562  13.430
47948W        W 7209  43.018  31.914   4.753
47949W        W 7210   8.259  27.955   4.720
47950W        W 7211  41.822  14.274   1.772
47951W        W 7212  19.086  27.142  11.960
47952W        W 7213  25.702   6.323  11.121
47953W        W 7214  11.745  11.327  10.079
47954W        W 7215   4.403  13.271   4.629
47955W        W 7216  41.318  41.435   4.339
47956W        W 7217  29.619   8.701   5.265
47957W        W 7218   9.259   3.449   2.851
47958W        W 7219  29.089  18.126  11.051
47959W        W 7220  44.462  31.460  13.044
47960W        W 7221  33.994  11.344  14.824
47961W        W 7222  26.979  12.236  10.567
47962W        W 7223  43.009  38.033   1.451
47963W        W 7224  17.221  42.390   1.918
47964W        W 7225  28.620  10.287   0.769
47965W        W 7226  15.708  25.637  14.277
47966W        W 7227   4.719  40.305  10.159
47967W        W 7228  21.120  34.580   1.891
47968W        W 7229  40.311  41.004   1.824
47969W        W 7230  42.415  37.913   3.178
47970W        W 7231  22.719  41.319  14.472
47971W        W 7232  42.418  37.453  12.888
47972W        W 7233  12.835  18.683   0.903
47973W        W 7234  35.078  25.050   2.272
47974W        W 7235  39.440  25.621  14.974
47975W        W 7236  16.608   0.822   2.296
47976W        W 7237   2.359  22.664  11.082
47977W        W 7238   0.291  37.067   4.769
47978W        W 7239   4.238  35.517  14.482
47979W        W 7240  28.541   2.890   3.655
47980W        W 7241  18.591  17.306   4.279
47981W        W 7242  41.400  24.211   0.288
47982W        W 7243  18.711  20.166   4.616
47983W        W 7244  36.001  37.867  14.309
47984W        W 7245  12.298  28.085  11.497
47985W        W 7246  27.508  17.279   2.348
47986W        W 7247  20.259  30.552  13.385
47987W        W 7248  19.155  24.556  13.336
47988W        W 7249  13.152  19.732  10.546
47989W        W 7250  42.826  29.551   3.194
47990W        W 7251  34.463  35.917  14.030
47991W        W 7252   1.290  16.235  12.948
47992W        W 7253  33.051  29.954   3.380
47993W        W 7254   1.481  29.476   4.225
47994W        W 7255  27.471  44.985  11.505
47995W        W 7256  17.653  13.661   0.435
47996W        W 7257  21.206  28.514   0.421
47997W        W 7258  32.514  36.465  14.486
47998W        W 7259  31.605  20.669   1.364
47999W        W 7260   1.297  21.684   2.744
48000W        W 7261  26.535  22.133   2.678
48001W        W 7262  19.692  28.085  13.547
48002W        W 7263   2.452  27.579   0.860
48003W        W 7264  22.118  38.069  13.472
48004W        W 7265  27.641  14.732   3.657
48005W        W 7266   7.850  44.299  11.517
48006W        W 7267  13.768  34.934   0.474
48007W        W 7268  10.293  26.488  10.441
48008W        W 7269  23.709   3.737   0.376
48009W        W 7270   4.914  17.137   3.231
48010W        W 7271   4.397  17.083  11.982
48011W        W 7272  21.710  11.259  14.984
48012W        W 7273  30.962   4.919  12.518
48013W        W 7274  39.026  28.973  12.539
48014W        W 7275   3.241  12.713   0.837
48015W        W 7276  42.385  20.062   4.324
48016W        W 7277  26.145  44.314   2.311
48017W        W 7278  35.537  30.542  12.838
48018W        W 7279  20.056   8.729   1.341
48019W        W 7280  24.541  20.600   2.260
48020W        W 7281  30.974  21.160  12.409
48021W        W 7282  21.682  39.003   1.803
48022W        W 7283   2.285  11.841   1.779
48023W        W 7284  37.852  39.967  14.853
48024W        W 7285  20.641  24.702  14.914
48025W        W 7286  17.794  43.815  11.007
48026W        W 7287  18.094  16.079   3.700
48027W        W 7288   3.906  31.505  13.878
48028W        W 7289   3.923   3.412   4.657
48029W        W 7290  32.501   2.229  11.547
48030W        W 7291  34.039  25.626   2.701
48031W        W 7292  10.301  15.773   3.762
48032W        W 7293  15.303  24.565   4.829
48033W        W 7294  23.695   3.850  11.498
48034W        W 7295   6.828  11.212  11.556
48035W        W 7296  23.628  28.485  13.316
48036W        W 7297  13.194  44.302  13.811
48037W        W 7298  31.501  10.328  14.281
48038W        W 7299  19.766  22.620  12.093
48039W        W 7300  11.373   0.456   0.271
48040W        W 7301  19.776   5.364   3.851
48041W        W 7302  38.564  20.691  13.519
48042W        W 7303  29.455  40.490   4.215
48043W        W 7304  21.724  20.062   3.828
48044W        W 7305  35.433  20.099  13.523
48045W        W 7306  31.964  35.581  10.982
48046W        W 7307  18.077   7.688   4.137
48047W        W 7308  10.267  35.371  11.524
48048W        W 7309  42.008  20.255   1.215
48049W        W 7310  25.635   6.317  13.801
48050W        W 7311   1.901  17.240  11.385
48051W        W 7312  18.567  35.044  12.075
48052W        W 7313  27.133   8.774   1.358
48053W        W 7314  11.843  34.971  13.388
48054W        W 7315  13.680  20.694  11.538
48055W        W 7316  19.156  16.637   9.549
48056W        W 7317  37.495  36.527  10.889
48057W        W 7318  35.464  40.860  10.006
48058W        W 7319  43.785  24.534   2.415
48059W        W 7320  23.117  17.167  11.081
48060W        W 7321  23.720  11.165   3.260
48061W        W 7322  13.323  19.583   2.385
48062W        W 7323  11.137  32.616   2.662
48063W        W 7324  31.625  22.505  11.436
48064W        W 7325  42.449  34.615  12.824
48065W        W 7326   7.761  36.944   1.802
48066W        W 7327  12.787  44.336   0.817
48067W        W 7328  20.108  16.130  13.524
48068W        W 7329   3.375   3.272   0.953
48069W        W 7330   9.176   4.760   9.940
48070W        W 7331   0.979  35.994   4.623
48071W        W 7332  30.058  16.768   1.902
48072W        W 7333  33.085  17.697  12.088
48073W        W 7334  27.506   8.160  14.771
48074W        W 7335  29.165   4.328   1.402
48075W        W 7336  35.073  33.391   1.735
48076W        W 7337  25.115  12.856   4.817
48077W        W 7338   1.862   8.789  14.968
48078W        W 7339   9.352  36.458   0.316
48079W        W 7340  16.191  32.043   2.395
48080W        W 7341  11.143  36.473   3.160
48081W        W 7342  20.031  37.069  11.439
48082W        W 7343  12.831  35.509  13.828
48083W        W 7344  37.946  17.594   2.763
48084W        W 7345  20.054   8.887  12.070
48085W        W 7346  10.695  39.363   4.784
48086W        W 7347  37.904  36.095  12.835
48087W        W 7348  33.925  25.565  13.016
48088W        W 7349   7.324   5.313   4.706
48089W        W 7350   3.758   0.337   4.703
48090W        W 7351  21.119  31.977  12.446
48091W        W 7352  42.826  18.696  13.993
48092W        W 7353  18.667  30.417   0.800
48093W        W 7354   7.308   5.864  10.615
48094W        W 7355  12.779   4.842  10.581
48095W        W 7356  41.477  30.012  12.952
48096W        W 7357  20.678  25.177  14.280
48097W        W 7358   2.811  33.551  14.864
48098W        W 7359   4.815   4.373  13.959
48099W        W 7360   7.240   2.841   4.131
48100W        W 7361  23.135  22.693   4.311
48101W        W 7362   2.228  37.336  11.422
48102W        W 7363  20.632  23.985   0.860
48103W        W 7364  31.426  38.396  12.485
48104W        W 7365  19.564  15.323  11.513
48105W        W 7366  25.527  43.901   1.752
48106W        W 7367  13.293  41.443  13.909
48107W        W 7368  33.009  14.606   0.955
48108W        W 7369  35.896  34.459   4.171
48109W        W 7370  25.059  29.127   4.257
48110W        W 7371  11.357  33.021  12.955
48111W        W 7372  36.885  37.977  10.922
48112W        W 7373  32.083  27.671   4.159
48113W        W 7374   8.819   7.842  12.881
48114W        W 7375  21.563  17.159   3.292
48115W        W 7376  40.010  31.602   3.734
48116W        W 7377  28.055   0.342   2.769
48117W        W 7378   6.909   9.678   1.353
48118W        W 7379  40.044  31.034  11.610
48119W        W 7380   6.420  42.843  12.856
48120W        W 7381   6.810  10.175  12.522
48121W        W 7382  39.889  25.481  10.925
48122W        W 7383   3.263  21.071   1.874
48123W        W 7384   0.436   3.416  14.432
48124W        W 7385   5.776  38.872  14.320
48125W        W 7386  25.605  16.081   3.798
48126W        W 7387  21.062  23.687  11.977
48127W        W 7388  11.747  32.443  14.333
48128W        W 7389  12.808   5.370   0.802
48129W        W 7390   3.934  21.247   3.285
48130W        W 7391  13.108  22.726   5.081
48131W        W 7392  21.543  29.604   2.276
48132W        W 7393   6.745  15.784   1.768
48133W        W 7394  22.707  16.269   4.641
48134W        W 7395  34.950  10.255   2.357
48135W        W 7396   8.327  16.265   0.912
48136W        W 7397  32.559  10.214   0.392
48137W        W 7398  44.925  24.101   2.345
48138W        W 7399  31.121  40.399   0.895
48139W        W 7400  14.651  43.839  14.471
48140W        W 7401  23.174  38.943   0.813
48141W        W 7402  27.636   7.727  12.451
48142W        W 7403   2.798   8.714  12.910
48143W        W 7404  39.850  26.546  12.872
48144W        W 7405  21.533  21.119   5.616
48145W        W 7406  34.021  34.936  12.558
48146W        W 7407   8.804  39.492   1.303
48147W        W 7408  29.050  26.500   4.220
48148W        W 7409   1.260  24.012   0.283
48149W        W 7410  22.105  28.672  11.998
48150W        W 7411  19.682  43.840  14.479
48151W        W 7412  16.764  27.610  14.810
48152W        W 7413  12.641  33.088   1.255
48153W        W 7414  15.221  26.479   2.372
48154W        W 7415   4.758  36.517  11.604
48155W        W 7416  36.049  32.902  12.846
48156W        W 7417  16.668  32.983  11.879
48157W        W 7418  12.826   5.252  14.322
48158W        W 7419  37.373  31.548   4.244
48159W        W 7420   8.376  33.419  14.000
48160W        W 7421  20.202  44.788   2.857
48161W        W 7422  36.025   1.288   3.146
48162W        W 7423  14.828  29.504   4.272
48163W        W 7424  43.934   7.323   0.341
48164W        W 7425   8.709  17.764   1.854
48165W        W 7426   7.384  38.540   4.770
48166W        W 7427  21.170  40.851   1.293
48167W        W 7428  37.418  17.137  13.533
48168W        W 7429   5.307  30.938  12.452
48169W        W 7430  21.032  26.579   4.736
48170W        W 7431  24.045  35.526  13.981
48171W        W 7432  18.082  20.711   0.443
48172W        W 7433  24.155  14.634  13.435
48173W        W 7434  36.435  37.988  11.975
48174W        W 7435  25.049  20.152  12.485
48175W        W 7436  38.430  17.097   3.313
48176W        W 7437  26.650  41.399  10.056
48177W        W 7438  14.219  23.021  14.030
48178W        W 7439  30.525  15.216   1.795
48179W        W 7440  19.213   1.885  13.911
48180W        W 7441  37.459   7.327  13.452
48181W        W 7442  43.796  39.548   1.235
48182W        W 7443   5.913   9.716  12.342
48183W        W 7444  17.778  18.274  11.456
48184W        W 7445  12.334  41.798  11.028
48185W        W 7446  31.644  31.480  12.422
48186W        W 7447  22.581  26.963   5.697
48187W        W 7448  32.023  21.251   3.260
48188W        W 7449  44.991  16.119  13.864
48189W        W 7450   3.432  21.106  11.582
48190W        W 7451  44.769  24.095  13.513
48191W        W 7452  16.607  37.359   3.753
48192W        W 7453  43.986  14.612   3.383
48193W        W 7454  21.537  35.074   0.840
48194W        W 7455   1.906   6.826  10.434
48195W        W 7456  20.043  32.914  10.517
48196W        W 7457  12.262  14.752   1.782
48197W        W 7458  32.399  31.093  12.040
48198W        W 7459  34.529  17.185   3.696
48199W        W 7460   5.842  14.110   4.702
48200W        W 7461  23.108   1.865  10.552
48201W        W 7462  33.595  22.676  14.919
48202W        W 7463  24.713  25.098   0.248
48203W        W 7464  23.230  21.728  14.437
48204W        W 7465  35.955  18.645  14.835
48205W        W 7466  30.023  26.135  10.499
48206W        W 7467  37.984  25.014   2.183
48207W        W 7468  24.987  14.163   4.750
48208W        W 7469  28.502  21.587   4.250
48209W        W 7470   3.724  11.267   2.787
48210W        W 7471   7.751  33.468  13.021
48211W        W 7472  34.578  11.343  10.001
48212W        W 7473  12.854  12.711   1.325
48213W        W 7474   3.321  41.438   1.743
48214W        W 7475  16.233  18.623  13.329
48215W        W 7476  38.857   2.927  11.980
48216W        W 7477   9.876   6.380  11.560
48217W        W 7478  40.527  22.622   4.824
48218W        W 7479  21.527   6.833   4.120
48219W        W 7480  32.022   0.347   1.451
48220W        W 7481  11.688   1.254   2.360
48221W        W 7482  30.999  38.899  10.414
48222W        W 7483  23.511  27.113   9.985
48223W        W 7484  41.307  18.075  10.914
48224W        W 7485  30.140   0.860  10.516
48225W        W 7486  21.194  26.496  13.970
48226W        W 7487   1.896  44.457   0.939
48227W        W 7488  22.644  40.824   4.175
48228W        W 7489  20.170  30.418  11.939
48229W        W 7490  22.237  38.340   1.396
48230W        W 7491  27.485   1.392   1.285
48231W        W 7492  12.337  16.213   0.851
48232W        W 7493   9.306  24.213   2.827
48233W        W 7494  32.580  42.874  12.470
48234W        W 7495  20.091  26.634  12.946
48235W        W 7496  21.677  35.444   2.697
48236W        W 7497  14.294  39.450  13.331
48237W        W 7498  35.540  39.404   4.260
48238W        W 7499   0.959  12.206   3.682
48239W        W 7500  35.961  11.142  11.917
48240W        W 7501   5.323  34.954   0.415
48241W        W 7502  35.427  28.932  11.567
48242W        W 7503  28.670  29.011  11.457
48243W        W 7504  29.127  15.674  11.568
48244W        W 7505  40.802   5.393   3.857
48245W        W 7506  26.531  38.899  10.981
48246W        W 7507  30.488  13.827   4.262
48247W        W 7508  43.309  14.818  10.905
48248W        W 7509  41.910  34.958   2.795
48249W        W 7510   5.827  27.525  13.495
48250W        W 7511   4.322  25.591  13.901
48251W        W 7512   1.381  19.685   0.429
48252W        W 7513  14.827  42.445   3.774
48253W        W 7514   0.265  31.088   3.753
48254W        W 7515  19.690   2.908  14.455
48255W        W 7516  15.114  41.535  13.378
48256W        W 7517  39.459   3.888  11.932
48257W        W 7518  41.427  21.094  11.513
48258W        W 7519   0.491   6.182  14.987
48259W        W 7520  12.177  44.879   3.687
48260W        W 7521  33.993  17.605  14.275
48261W        W 7522  39.997  40.530   0.359
48262W        W 7523  14.831  34.503   0.959
48263W        W 7524  25.527  25.174   1.421
48264W        W 7525  42.942  12.331  13.536
48265W        W 7526  24.070  12.675  11.959
48266W        W 7527  43.425   2.388  12.914
48267W        W 7528   0.472   4.286   3.321
48268W        W 7529  22.656  41.405   0.842
48269W        W 7530   2.955  40.964   3.375
48270W        W 7531  26.027   0.279  13.804
48271W        W 7532  15.144   9.745   0.261
48272W        W 7533   6.729   9.392  11.904
48273W        W 7534  33.982  40.338  14.381
48274W        W 7535  24.606   1.747   4.630
48275W        W 7536  17.287  39.809  13.960
48276W        W 7537  12.796  29.599   0.797
48277W        W 7538   5.920  14.173  11.039
48278W        W 7539  26.549  14.779  14.789
48279W        W 7540  15.697  19.272   3.779
48280W        W 7541  10.262  14.597  10.582
48281W        W 7542  36.400   0.816  11.516
48282W        W 7543   1.742  21.051   1.302
48283W        W 7544  37.926  14.750   3.781
48284W        W 7545  27.448  34.060  11.873
48285W        W 7546   5.750  29.474  12.945
48286W        W 7547  20.190  25.160   3.656
48287W        W 7548  17.732  27.564   9.942
48288W        W 7549  34.118  39.970   2.891
48289W        W 7550  10.259   5.897  14.810
48290W        W 7551   9.664  10.711  12.486
48291W        W 7552  35.947  15.137   4.773
48292W        W 7553  25.691  28.632  11.039
48293W        W 7554  37.058  35.497  13.434
48294W        W 7555  37.558  23.535  14.448
48295W        W 7556  11.182   6.709   1.869
48296W        W 7557  32.519  30.418  14.858
48297W        W 7558  20.619  42.781   4.624
48298W        W 7559  20.540  41.453  13.322
48299W        W 7560   7.298  28.933  12.481
48300W        W 7561   4.804  26.634   1.358
48301W        W 7562  26.499  34.388  12.959
48302W        W 7563  23.705  20.061  13.332
48303W        W 7564  42.976  40.908   4.266
48304W        W 7565  30.542  44.836   1.861
48305W        W 7566  18.649  38.891   2.363
48306W        W 7567  11.273  21.749  10.589
48307W        W 7568   2.943  18.772   1.306
48308W        W 7569  26.651   8.230  13.055
48309W        W 7570  25.484  26.147   4.311
48310W        W 7571  21.057  24.101   1.740
48311W        W 7572  42.988  29.446   4.610
48312W        W 7573  24.159  26.501  12.947
48313W        W 7574  21.553  44.359   3.280
48314W        W 7575  17.188  35.939   3.332
48315W        W 7576  20.567   0.273   3.693
48316W        W 7577  38.507   6.210   2.275
48317W        W 7578  37.378  27.177  11.502
48318W        W 7579  12.765  29.512   5.106
48319W        W 7580  23.534  43.310  13.354
48320W        W 7581  21.237  33.493   5.225
48321W        W 7582   5.873  35.526  10.491
48322W        W 7583  17.714  10.749  13.930
48323W        W 7584  19.586  30.086   0.363
48324W        W 7585  25.549  43.840  14.028
48325W        W 7586  23.201  27.509   2.248
48326W        W 7587   9.352  20.091   4.717
48327W        W 7588  25.520  40.984   3.244
48328W        W 7589  32.923  36.513   1.434
48329W        W 7590   8.820  20.727  11.416
48330W        W 7591   2.438  18.633   3.309
48331W        W 7592   8.807  40.413  11.402
48332W        W 7593  15.583  40.962   2.239
48333W        W 7594   2.340  16.683  14.398
48334W        W 7595   2.894  14.734  13.958
48335W        W 7596  37.451  31.148   2.858
48336W        W 7597  11.648  15.153  13.486
48337W        W 7598   6.697  16.267   3.754
48338W        W 7599  33.954  27.555  14.477
48339W        W 7600  21.633  30.933   3.377
48340W        W 7601   2.257  37.973  12.069
48341W        W 7602  14.285  29.650  14.300
48342W        W 7603  16.266   8.350   4.230
48343W        W 7604   8.248  38.972   3.212
48344W        W 7605  32.563  23.551   0.904
48345W        W 7606  18.657  26.571   3.228
48346W        W 7607  39.345  31.050   1.865
48347W        W 7608  35.095  23.592   0.437
48348W        W 7609  38.066  12.119  14.387
48349W        W 7610   2.292  30.021   2.222
48350W        W 7611   6.213  26.037   3.787
48351W        W 7612  17.725  30.019   4.689
48352W        W 7613  30.625  26.637   0.927
48353W        W 7614   8.202  41.794   1.242
48354W        W 7615  35.954  18.602   0.404
48355W        W 7616   1.405  11.374   3.361
48356W        W 7617   7.201  31.584  10.590
48357W        W 7618  37.564   8.827   1.695
48358W        W 7619  29.602  37.076  11.609
48359W        W 7620  40.332   7.279  14.005
48360W        W 7621  44.958   1.943   2.733
48361W        W 7622  30.145  23.023   1.784
48362W        W 7623  12.185  32.579   1.306
48363W        W 7624  33.486  25.557  14.900
48364W        W 7625  37.438  37.543   3.334
48365W        W 7626  42.493   3.354   1.418
48366W        W 7627  37.911  25.575  11.396
48367W        W 7628  42.813  40.394   3.308
48368W        W 7629  38.073  42.814   4.181
48369W        W 7630  29.949  21.732  11.494
48370W        W 7631  33.574   3.363   3.340
48371W        W 7632  36.913  13.284   0.467
48372W        W 7633  10.716   9.733   1.708
48373W        W 7634  20.153  43.491   1.877
48374W        W 7635  34.025  36.449  12.957
48375W        W 7636  33.116  32.608   1.711
48376W        W 7637  31.040  30.571  10.908
48377W        W 7638  24.046   1.917  12.539
48378W        W 7639   7.825  29.493   2.698
48379W        W 7640  24.611  23.066  12.999
48380W        W 7641  10.855   7.257   4.207
48381W        W 7642  37.889   3.870  14.442
48382W        W 7643  32.403  10.273  13.421
48383W        W 7644  12.275  38.852  11.483
48384W        W 7645  41.876  31.064   4.341
48385W        W 7646  37.405   8.323   4.162
48386W        W 7647  16.234  34.460   2.393
48387W        W 7648  13.626  15.218  11.892
48388W        W 7649  14.693   6.707  14.327
48389W        W 7650  25.619   2.416   5.135
48390W        W 7651  32.028  15.293  10.070
48391W        W 7652  17.236   1.387   4.143
48392W        W 7653  20.140  24.577   1.277
48393W        W 7654   7.384  44.404   9.944
48394W        W 7655  31.448   0.929   2.216
48395W        W 7656  17.164  31.644  11.929
48396W        W 7657   3.798  13.198  10.429
48397W        W 7658  44.423  23.128   0.354
48398W        W 7659  13.808  40.438   3.338
48399W        W 7660  14.667  17.061  12.067
48400W        W 7661  43.397  33.111   0.818
48401W        W 7662  36.940  18.184   2.227
48402W        W 7663  43.978  20.737  12.438
48403W        W 7664  44.455  24.024  11.952
48404W        W 7665  25.674  28.064  13.496
48405W        W 7666   8.248  23.067   3.357
48406W        W 7667  26.076   2.920   2.223
48407W        W 7668  33.960  30.085   1.881
48408W        W 7669  11.832  40.947  13.904
48409W        W 7670   7.868   2.806   3.657
48410W        W 7671  10.634   2.931  11.941
48411W        W 7672  42.010  21.608   3.300
48412W        W 7673  33.912  36.978   4.321
48413W        W 7674  13.646   9.340  14.425
48414W        W 7675  36.402  19.535  12.484
48415W        W 7676  29.536  12.686  14.363
48416W        W 7677  39.530  28.969  13.517
48417W        W 7678  36.940  16.688   0.833
48418W        W 7679   9.694   9.671  13.001
48419W        W 7680  10.191  32.506  13.815
48420W        W 7681  23.669   6.366  12.537
48421W        W 7682   5.852   7.727   0.897
48422W        W 7683  29.173  35.867  11.120
48423W        W 7684  29.491  41.303  13.331
48424W        W 7685  17.278  18.544   2.262
48425W        W 7686  32.459  29.642  10.101
48426W        W 7687  13.798  22.187  13.527
48427W        W 7688  20.649  14.167   2.317
48428W        W 7689  24.629  41.492  12.432
48429W        W 7690  23.658  16.086   1.285
48430W        W 7691  26.519   3.407  12.341
48431W        W 7692  43.777  36.566   2.882
48432W        W 7693  23.575  25.136   3.369
48433W        W 7694   4.781  36.996   4.701
48434W        W 7695  44.930   8.392  12.435
48435W        W 7696  16.313  33.950  14.013
48436W        W 7697  11.194  39.821  12.470
48437W        W 7698  15.791  40.911  14.452
48438W        W 7699  24.152   5.211  11.465
48439W        W 7700  14.278  28.002   4.810
48440W        W 7701  18.286  29.943  14.007
48441W        W 7702  10.655  13.771  11.858
48442W        W 7703  44.359  17.633   4.170
48443W        W 7704  24.117  33.518   0.923
48444W        W 7705  42.423  38.397   3.255
48445W        W 7706  25.973  21.183   2.678
48446W        W 7707  28.506  26.592   0.470
48447W        W 7708  26.957  33.443  11.387
48448W        W 7709   3.726   2.373   3.644
48449W        W 7710   2.769  37.929   1.762
48450W        W 7711  10.298   1.362   0.421
48451W        W 7712  37.511   3.815  10.582
48452W        W 7713  28.561  13.109  13.498
48453W        W 7714  11.262   7.668   3.241
48454W        W 7715  18.636  13.691   1.699
48455W        W 7716   6.331  36.048  11.539
48456W        W 7717  30.529  24.494  12.939
48457W        W 7718  27.480  25.513  14.822
48458W        W 7719  37.402  17.611   0.309
48459W        W 7720  16.233  14.225  12.024
48460W        W 7721  43.380   9.810   3.771
48461W        W 7722  41.812   2.366   0.251
48462W        W 7723  33.987  41.499  11.082
48463W        W 7724  35.948  17.212  11.479
48464W        W 7725  25.214   9.843   0.954
48465W        W 7726  33.528  13.340   0.802
48466W        W 7727  13.622   1.839  12.461
48467W        W 7728  38.850  14.201  13.355
48468W        W 7729  23.704  10.716   1.715
48469W        W 7730  11.241  24.612  11.521
48470W        W 7731  31.426   7.787   1.903
48471W        W 7732  12.660  26.613  11.946
48472W        W 7733  32.920   0.898   4.711
48473W        W 7734  42.875  33.477  10.990
48474W        W 7735  11.862  33.524   5.146
48475W        W 7736   9.315  22.113  14.370
48476W        W 7737  38.336  24.520  14.871
48477W        W 7738   7.179  19.737  13.406
48478W        W 7739   2.384  43.382   3.784
48479W        W 7740  39.941   3.222   3.679
48480W        W 7741  26.567  44.392   1.250
48481W        W 7742  38.913  40.380  14.430
48482W        W 7743  28.184  10.338   0.825
48483W        W 7744   5.357  33.985  11.856
48484W        W 7745   8.345  33.994   1.368
48485W        W 7746  26.000  20.046   2.271
48486W        W 7747  31.064   0.815   4.220
48487W        W 7748  41.856  28.466  12.493
48488W        W 7749  14.681  33.060  11.909
48489W        W 7750  28.065  22.513   5.227
48490W        W 7751  32.120  22.718   1.699
48491W        W 7752  24.133  10.731  10.435
48492W        W 7753  13.203  16.223   0.933
48493W        W 7754   7.261  15.245  11.431
48494W        W 7755  31.554  42.821   2.393
48495W        W 7756   0.919   9.304  13.465
48496W        W 7757  37.021  35.578   1.821
48497W        W 7758  41.534  29.509  13.417
48498W        W 7759   6.335  39.014   2.665
48499W        W 7760   7.344  19.204  11.600
48500W        W 7761   6.856  42.429  11.070
48501W        W 7762  35.378  20.218  11.608
48502W        W 7763   7.337   6.188   1.218
48503W        W 7764  40.321  28.487   3.635
48504W        W 7765   4.934  16.674   2.855
48505W        W 7766  24.571  39.855  10.641
48506W        W 7767   7.280  23.630  11.105
48507W        W 7768  24.041   8.790  11.859
48508W        W 7769  23.670  23.648  14.806
48509W        W 7770  41.292  32.120   1.904
48510W        W 7771  28.022  28.572   1.892
48511W        W 7772   5.282  15.673  14.758
48512W        W 7773  40.041  39.488   0.466
48513W        W 7774  19.089  10.704   1.212
48514W        W 7775   3.294  27.592  14.991
48515W        W 7776   3.395   1.441  10.608
48516W        W 7777  38.360  32.464  11.117
48517W        W 7778   7.297  16.204  11.396
48518W        W 7779  38.363  26.614  11.982
48519W        W 7780  41.787  36.895   1.404
48520W        W 7781  39.490   6.265   4.603
48521W        W 7782  10.744  10.876   3.324
48522W        W 7783  40.982   1.739  14.508
48523W        W 7784  28.024  35.958   1.373
48524W        W 7785   6.217   1.377  11.873
48525W        W 7786  43.420  12.855  10.965
48526W        W 7787  37.908  40.916   4.215
48527W        W 7788  19.775   3.413  14.871
48528W        W 7789  31.476   9.302  14.825
48529W        W 7790  38.332  21.042   0.809
48530W        W 7791  44.942  15.679   4.747
48531W        W 7792  35.954   8.888   0.902
48532W        W 7793  43.482   7.288  12.345
48533W        W 7794  25.663  18.649   2.399
48534W        W 7795  15.679   3.355   4.692
48535W        W 7796   2.462  35.450   3.789
48536W        W 7797  18.625  33.040   2.266
48537W        W 7798   7.715  28.017  12.007
48538W        W 7799  23.030  18.162  11.523
48539W        W 7800  16.742   2.747   1.321
48540W        W 7801   6.334  14.168   5.281
48541W        W 7802   8.355  16.153  13.526
48542W        W 7803  36.077  23.021  11.053
48543W        W 7804  20.168  26.978  14.423
48544W        W 7805  24.703   8.747   3.161
48545W        W 7806  41.508  33.096  11.124
48546W        W 7807  21.051  33.991  11.862
48547W        W 7808  35.916   3.415  11.905
48548W        W 7809  27.456  21.563   0.828
48549W        W 7810  15.281  37.397   0.267
48550W        W 7811  20.029  41.531  12.498
48551W        W 7812  25.151   3.318   0.469
48552W        W 7813  38.025  38.405   1.313
48553W        W 7814  16.285  40.368  12.444
48554W        W 7815  10.722   0.460  11.438
48555W        W 7816  14.805  16.198   2.349
48556W        W 7817   6.214  32.977  11.581
48557W        W 7818  39.958  10.856  11.001
48558W        W 7819  28.564  37.401   1.893
48559W        W 7820  28.496  10.734  12.902
48560W        W 7821  21.588  11.269  13.021
48561W        W 7822   3.902  27.531   4.629
48562W        W 7823  16.613  36.576   3.646
48563W        W 7824   2.856   5.794   2.223
48564W        W 7825  34.074  21.547   2.349
48565W        W 7826  21.620  28.168   4.694
48566W        W 7827  17.665  13.827  10.584
48567W        W 7828  33.582  10.310   4.789
48568W        W 7829  15.622   8.815  14.824
48569W        W 7830  10.778  34.023   2.273
48570W        W 7831  33.552  29.048   4.235
48571W        W 7832   1.834  17.789   1.292
48572W        W 7833  21.549   5.735   4.307
48573W        W 7834   3.435   4.706   4.227
48574W        W 7835  33.439  20.560  14.761
48575W        W 7836  14.673  11.128  11.905
48576W        W 7837  43.364   2.427   1.770
48577W        W 7838  17.202  26.988   1.729
48578W        W 7839   1.774  11.733  14.937
48579W        W 7840  24.032   0.779  11.049
48580W        W 7841   1.358  33.972  10.482
48581W        W 7842  18.686   4.368  11.392
48582W        W 7843  40.871   3.827   1.284
48583W        W 7844  23.606  43.377   3.323
48584W        W 7845  12.247  22.603   2.415
48585W        W 7846  11.780  31.921  14.465
48586W        W 7847  43.019  36.871   3.211
48587W        W 7848  33.511  10.155  12.093
48588W        W 7849  44.933  12.232   0.250
48589W        W 7850  44.350  42.283  14.501
48590W        W 7851   3.224  36.407   4.612
48591W        W 7852  39.958  38.373  14.309
48592W        W 7853   9.297  28.525  13.321
48593W        W 7854  27.496  23.039   2.249
48594W        W 7855  42.304  29.641  10.475
48595W        W 7856  19.167  44.387  14.397
48596W        W 7857  21.021  14.182   2.253
48597W        W 7858   5.728  29.085   2.358
48598W        W 7859   2.453  19.542  10.965
48599W        W 7860  13.340  32.126   2.189
48600W        W 7861  19.240  40.983   3.372
48601W        W 7862  17.109  23.574  13.054
48602W        W 7863  27.078   0.860   2.887
48603W        W 7864   1.956  11.280   2.214
48604W        W 7865   8.282  44.364  11.111
48605W        W 7866  44.760  10.747  11.588
48606W        W 7867   6.679  38.560   2.326
48607W        W 7868  36.404  16.168  14.477
48608W        W 7869  35.520  26.192   4.837
48609W        W 7870  19.124  36.886  14.814
48610W        W 7871  39.473  22.114  10.634
48611W        W 7872  22.583  19.691  13.917
48612W        W 7873  10.327  13.158   2.834
48613W        W 7874  44.968  39.926   1.332
48614W        W 7875  37.897  13.172   3.166
48615W        W 7876  36.990  24.056  12.561
48616W        W 7877  28.486  42.317  14.318
48617W        W 7878  40.047  26.170   2.199
48618W        W 7879  44.405  25.159  10.020
48619W        W 7880  33.071  26.630  12.533
48620W        W 7881  42.288  28.625  10.554
48621W        W 7882   7.222  44.392   3.252
48622W        W 7883  33.107   1.318   1.375
48623W        W 7884   0.797  27.646   1.331
48624W        W 7885  18.105  26.688   3.761
48625W        W 7886  28.496  17.690   4.721
48626W        W 7887  12.654  36.909   2.178
48627W        W 7888  20.160  15.221   2.779
48628W        W 7889   0.357  36.353  10.528
48629W        W 7890  23.574  43.501  14.836
48630W        W 7891  19.637  16.720   2.268
48631W        W 7892   5.227  43.982  13.430
48632W        W 7893  22.698  25.187  12.049
48633W        W 7894  27.040  18.106   4.244
48634W        W 7895  26.016   9.228  12.071
48635W        W 7896  33.469  44.776  14.816
48636W        W 7897  23.692   2.454   1.303
48637W        W 7898  36.415   8.748   3.165
48638W        W 7899  20.074   1.440   2.865
48639W        W 7900   2.398  43.919  14.314
48640W        W 7901  34.575  30.992  14.896
48641W        W 7902  36.527  12.849  12.921
48642W        W 7903  42.324  36.524   3.176
48643W        W 7904  22.042   7.223   3.760
48644W        W 7905   5.708  43.840  12.944
48645W        W 7906   9.323  43.391   0.387
48646W        W 7907   2.750   7.215   3.249
48647W        W 7908  37.974  43.982   3.749
48648W        W 7909  16.103  37.365   3.815
48649W        W 7910   0.446  16.182   1.792
48650W        W 7911  18.762  33.909  12.840
48651W        W 7912   6.428  39.971   0.876
48652W        W 7913  32.119  33.609  14.989
48653W        W 7914  41.296   1.947  11.924
48654W        W 7915  34.090  30.980   0.807
48655W        W 7916  43.337  39.932  14.395
48656W        W 7917  41.441  11.336   4.124
48657W        W 7918  18.123  22.625  13.911
48658W        W 7919   1.936  27.593  14.827
48659W        W 7920  32.580   5.918   2.865
48660W        W 7921  29.009   1.868   4.135
48661W        W 7922  41.506   4.729   0.358
48662W        W 7923  32.529  28.616   4.216
48663W        W 7924  25.681  34.937   3.780
48664W        W 7925  14.124   9.756   0.242
48665W        W 7926  22.654   9.218  10.913
48666W        W 7927   6.251   2.417  14.417
48667W        W 7928  39.821  28.093  10.548
48668W        W 7929   3.230  19.249  14.913
48669W        W 7930  13.191  21.180  14.311
48670W        W 7931   2.339  40.417   2.240
48671W        W 7932  22.185  26.962   2.351
48672W        W 7933   1.832  17.765  12.078
48673W        W 7934  21.184  19.621   4.635
48674W        W 7935   9.825  22.531   1.246
48675W        W 7936  24.033   3.868  13.921
48676W        W 7937  34.071  25.979  13.874
48677W        W 7938  17.140  33.882  11.505
48678W        W 7939  21.673  44.908  11.562
48679W        W 7940  20.245  30.019   4.600
48680W        W 7941  41.492  19.686   0.731
48681W        W 7942   6.683  29.550  11.597
48682W        W 7943   3.452  32.496   1.399
48683W        W 7944   5.235  41.868  14.027
48684W        W 7945  10.313  43.000  13.915
48685W        W 7946   7.394  43.001   1.257
48686W        W 7947  19.717   6.348   4.289
48687W        W 7948  42.404   1.357  11.588
48688W        W 7949  14.248  36.069   2.269
48689W        W 7950  39.414  26.523   3.357
48690W        W 7951   3.791  28.989  12.556
48691W        W 7952  40.969  38.889   0.454
48692W        W 7953  40.304  38.037  12.455
48693W        W 7954  44.430  33.575   0.831
48694W        W 7955  36.021  18.182   2.353
48695W        W 7956  29.131  30.160  10.967
48696W        W 7957  44.410  32.576  14.389
48697W        W 7958   5.426  12.756  11.448
48698W        W 7959   7.880   2.388  11.030
48699W        W 7960  12.249  12.267  14.331
48700W        W 7961  42.819  15.613  12.029
48701W        W 7962  17.079   6.383  12.542
48702W        W 7963  32.966   1.935   4.747
48703W        W 7964   5.892  16.666   0.471
48704W        W 7965  17.254  13.231   3.197
48705W        W 7966   1.414  11.308   4.625
48706W        W 7967  35.102  40.498  14.834
48707W        W 7968   7.404  35.476  13.006
48708W        W 7969  18.242  22.613   5.266
48709W        W 7970  21.627  43.824   3.790
48710W        W 7971  10.812  11.793  14.872
48711W        W 7972  35.948  39.343  12.923
48712W        W 7973   1.357  27.613   2.362
48713W        W 7974  26.174  18.779   2.754
48714W        W 7975  41.521  18.167  13.959
48715W        W 7976  37.949   6.366   4.710
48716W        W 7977  37.467  24.226   3.335
48717W        W 7978   9.184  13.819   5.801
48718W        W 7979  32.089  31.984   4.628
48719W        W 7980  30.043  31.646   2.833
48720W        W 7981  27.005  15.676   0.789
48721W        W 7982  15.626  15.782  13.516
48722W        W 7983  19.084  35.362   3.339
48723W        W 7984  34.114  18.729  11.602
48724W        W 7985   7.681  28.929   0.759
48725W        W 7986   2.464  31.057   2.226
48726W        W 7987  41.341   5.905  14.941
48727W        W 7988  34.938   0.830   2.805
48728W        W 7989  19.164  15.176   4.171
48729W        W 7990   1.933  17.299   4.709
48730W        W 7991   7.299  14.627  13.370
48731W        W 7992  38.394  41.961   3.260
48732W        W 7993  38.515   9.382   4.751
48733W        W 7994  37.372  33.020  13.322
48734W        W 7995  20.600  25.490  10.536
48735W        W 7996  32.895  27.018  14.784
48736W        W 7997  16.262  11.323   4.233
48737W        W 7998   8.844  39.532  11.461
48738W        W 7999  40.313  25.624   2.816
48739W        W 8000   3.337  28.142  13.059
48740W        W 8001  27.153   0.306   4.152
48741W        W 8002   1.938   2.462  11.381
48742W        W 8003  32.955  29.110   3.241
48743W        W 8004  18.548  30.485  11.890
48744W        W 8005  41.028  27.639   4.831
48745W        W 8006  25.495  25.179   1.753
48746W        W 8007  36.441  34.991  12.579
48747W        W 8008  21.034  37.452   0.291
48748W        W 8009  42.498  35.049  14.305
48749W        W 8010  11.346   6.232   0.913
48750W        W 8011  19.648   2.862   4.759
48751W        W 8012   4.734  37.832  11.580
48752W        W 8013  41.825  15.694   1.704
48753W        W 8014   5.366  15.244   3.243
48754W        W 8015  19.190  14.099  14.025
48755W        W 8016  31.050  42.794  13.472
48756W        W 8017  13.836   7.804  10.091
48757W        W 8018  42.021   6.356  12.860
48758W        W 8019  29.993  44.490  12.441
48759W        W 8020  41.864  42.965  14.507
48760W        W 8021  34.881  23.550   1.893
48761W        W 8022  11.806  30.041  12.961
48762W        W 8023  16.248   0.966  10.450
48763W        W 8024  14.821  22.722   1.315
48764W        W 8025   5.313  36.978   3.632
48765W        W 8026  14.188  10.719  13.353
48766W        W 8027  40.390   6.771   3.276
48767W        W 8028  27.999  16.134   2.746
48768W        W 8029  36.516  30.646   3.352
48769W        W 8030   9.800   0.926   2.843
48770W        W 8031   3.847  24.521  12.426
48771W        W 8032  38.843   1.933  13.063
48772W        W 8033  40.367  42.389   1.840
48773W        W 8034  11.770  25.166  13.824
48774W        W 8035  20.274  22.659   4.154
48775W        W 8036   7.297  28.954  14.029
48776W        W 8037   3.952  12.805   0.479
48777W        W 8038  22.713  11.777   1.233
48778W        W 8039   8.394   3.435   4.206
48779W        W 8040  44.308  32.023  11.051
48780W        W 8041  18.204  43.298  11.864
48781W        W 8042  32.981   3.858   0.276
48782W        W 8043  28.949   3.830  12.956
48783W        W 8044  23.129  34.512   1.237
48784W        W 8045  40.446   0.276   0.790
48785W        W 8046  22.604  23.674  14.788
48786W        W 8047   6.183   4.858   4.132
48787W        W 8048  26.662  15.280   1.235
48788W        W 8049  35.089  32.450  14.322
48789W        W 8050  13.166  18.756   4.158
48790W        W 8051  29.094  20.605  11.975
48791W        W 8052  11.807  18.560  11.464
48792W        W 8053  26.495  44.764  13.337
48793W        W 8054  25.650  21.234  11.902
48794W        W 8055  23.030  29.621  11.888
48795W        W 8056  12.191  33.905  13.330
48796W        W 8057  35.472  17.725   3.173
48797W        W 8058  13.838  43.872  13.018
48798W        W 8059  44.782  20.656  10.464
48799W        W 8060   9.324  36.843   1.212
48800W        W 8061  32.133  35.110  11.956
48801W        W 8062  30.089  41.330   1.426
48802W        W 8063  10.730  32.107   2.725
48803W        W 8064  19.670  16.604   3.307
48804W        W 8065   0.754  16.215  13.925
48805W        W 8066  25.489   5.875   9.932
48806W        W 8067  15.089  14.674   2.685
48807W        W 8068   3.367  14.829   2.342
48808W        W 8069  16.712  38.464  10.942
48809W        W 8070  10.145   4.766   3.226
48810W        W 8071  17.099   4.814  13.360
48811W        W 8072  42.977  27.617   2.809
48812W        W 8073  32.902   9.766   0.743
48813W        W 8074   5.331   5.721  12.846
48814W        W 8075  36.934  12.130   3.239
48815W        W 8076  11.346  32.899  13.893
48816W        W 8077   9.683  17.303   1.378
48817W        W 8078  38.935  39.977  12.844
48818W        W 8079   7.287  10.778  14.339
48819W        W 8080  27.513  25.668   0.431
48820W        W 8081  27.018  11.339   1.796
48821W        W 8082  32.893  32.601   5.299
48822W        W 8083  28.019  30.091  11.403
48823W        W 8084   1.769   1.264   3.632
48824W        W 8085  41.972  17.195  13.912
48825W        W 8086  37.837  26.101  12.461
48826W        W 8087  12.713   2.380   1.844
48827W        W 8088  37.391  16.747   4.755
48828W        W 8089  28.116  36.463  13.545
48829W        W 8090   4.857  13.118   3.829
48830W        W 8091   7.212  30.910  11.606
48831W        W 8092   5.852  27.598   4.220
48832W        W 8093  39.556  27.011   3.349
48833W        W 8094  38.465  16.228   4.719
48834W        W 8095  25.118  12.680  14.356
48835W        W 8096  10.268  19.117   4.225
48836W        W 8097  22.669  28.671   1.894
48837W        W 8098  39.462  23.176   4.800
48838W        W 8099  17.774  43.961   1.799
48839W        W 8100   5.884   5.840   4.261
48840W        W 8101  22.187  29.143   2.219
48841W        W 8102  41.320  43.378   3.640
48842W        W 8103   9.698  30.057  13.064
48843W        W 8104   4.888   8.176   1.817
48844W        W 8105  19.642  36.053  11.069
48845W        W 8106  28.632  31.412  13.814
48846W        W 8107   7.220  35.569  12.018
48847W        W 8108  38.030  43.297   4.287
48848W        W 8109  24.590  39.986  12.051
48849W        W 8110  22.123  11.133  13.469
48850W        W 8111  14.675  24.108   3.799
48851W        W 8112  31.936  27.093  11.544
48852W        W 8113   9.694   7.335   4.654
48853W        W 8114  19.740  18.071  13.972
48854W        W 8115  16.687   1.904   3.784
48855W        W 8116  33.389  34.431  13.035
48856W        W 8117   5.910  26.610  13.986
48857W        W 8118   1.456  40.469   4.769
48858W        W 8119  17.723   8.733  11.571
48859W        W 8120   9.348  16.723  12.348
48860W        W 8121  42.501  40.944   1.275
48861W        W 8122   6.337  36.878  11.863
48862W        W 8123   7.190  30.103   4.721
48863W        W 8124  19.758  18.214   3.849
48864W        W 8125  13.801  31.501  11.604
48865W        W 8126  28.607  16.160  14.942
48866W        W 8127  11.176   5.435   2.406
48867W        W 8128  38.870   3.282  12.568
48868W        W 8129  32.020  35.031  12.998
48869W        W 8130  35.961  19.716  13.380
48870W        W 8131  40.950   2.777   2.412
48871W        W 8132  35.517  10.833  13.861
48872W        W 8133   7.911  40.452  10.441
48873W        W 8134   3.256  28.488   1.258
48874W        W 8135  29.494  14.766   9.996
48875W        W 8136  21.733  13.661   1.731
48876W        W 8137  19.601   5.718   3.151
48877W        W 8138  16.589  40.821   0.963
48878W        W 8139  37.417  11.864  14.401
48879W        W 8140  13.243   6.400   0.962
48880W        W 8141  38.843  15.629  13.367
48881W        W 8142  32.517  43.335  14.800
48882W        W 8143  37.834  34.107  13.915
48883W        W 8144  34.395   5.318  13.985
48884W        W 8145  22.011  35.022   4.628
48885W        W 8146   1.258  31.648  10.550
48886W        W 8147  39.493  29.132   2.281
48887W        W 8148  16.136   5.767   3.681
48888W        W 8149  21.671  37.396   1.267
48889W        W 8150   4.806   6.708  12.059
48890W        W 8151  23.592  34.585   1.292
48891W        W 8152  25.000  18.097  13.412
48892W        W 8153  33.439  44.996  13.434
48893W        W 8154   3.873   6.328   1.851
48894W        W 8155  26.159   0.333  10.974
48895W        W 8156  39.023   4.785  10.543
48896W        W 8157  28.978  36.016   4.196
48897W        W 8158   3.340  42.348   2.900
48898W        W 8159  17.722  17.140  12.415
48899W        W 8160   4.705  23.615   2.373
48900W        W 8161   9.796  11.773  10.999
48901W        W 8162  39.548   6.693   3.808
48902W        W 8163  40.430   7.711  13.841
48903W        W 8164  14.768  11.373  14.846
48904W        W 8165  15.684  20.142   4.750
48905W        W 8166  20.198  36.076  13.803
48906W        W 8167  31.010   3.808   0.257
48907W        W 8168   8.377   7.825   1.366
48908W        W 8169   0.455  36.024   1.370
48909W        W 8170   7.306   9.743   1.812
48910W        W 8171   3.797   5.701  12.886
48911W        W 8172  14.253  38.353  10.576
48912W        W 8173  29.984  10.302   2.264
48913W        W 8174  15.280  16.317  12.909
48914W        W 8175   9.336  21.065  11.590
48915W        W 8176  19.048  18.610   3.226
48916W        W 8177   6.386  14.822  14.374
48917W        W 8178  37.413  10.310   5.312
48918W        W 8179  28.615  16.627  12.033
48919W        W 8180   8.351   5.711  13.334
48920W        W 8181  38.860  22.209  14.999
48921W        W 8182  14.142  21.685  10.532
48922W        W 8183  24.544  35.416  13.795
48923W        W 8184   7.780  22.514   0.348
48924W        W 8185   0.475  13.264  13.372
48925W        W 8186  28.463  16.145   1.852
48926W        W 8187   3.891  41.999  14.453
48927W        W 8188  12.776  26.509   2.717
48928W        W 8189  24.644   9.804  10.619
48929W        W 8190  42.979  15.777  12.479
48930W        W 8191  27.489  42.927   4.609
48931W        W 8192  44.493  13.140   4.285
48932W        W 8193  41.919  37.449  13.030
48933W        W 8194  40.323  30.533   4.315
48934W        W 8195  41.813  31.409   0.346
48935W        W 8196  43.789  13.235  13.910
48936W        W 8197  25.021  21.048  11.060
48937W        W 8198  19.672  13.327   0.260
48938W        W 8199  22.604  42.402   2.780
48939W        W 8200  16.188  14.280   5.099
48940W        W 8201  24.019   4.863  14.287
48941W        W 8202  20.105  29.470   1.378
48942W        W 8203  44.292  20.633  10.556
48943W        W 8204  12.696  16.753   1.869
48944W        W 8205  44.453  21.171  14.001
48945W        W 8206  34.475   4.938   0.374
48946W        W 8207  18.732  17.571  13.816
48947W        W 8208   9.680  17.628   1.212
48948W        W 8209  17.702  23.721  12.853
48949W        W 8210   7.674  38.340  12.048
48950W        W 8211   6.289  41.406  12.415
48951W        W 8212   3.450   6.420   0.960
48952W        W 8213  30.633  32.918   4.166
48953W        W 8214  15.613  39.993  14.759
48954W        W 8215  26.605   8.896  13.862
48955W        W 8216  10.674   2.829   5.113
48956W        W 8217  17.287  44.856  14.804
48957W        W 8218  22.504   6.707  13.897
48958W        W 8219  30.457   1.919   3.823
48959W        W 8220   3.877  17.706   3.360
48960W        W 8221   8.218  20.246   2.265
48961W        W 8222  13.107  13.667  14.788
48962W        W 8223  13.721  17.109  11.858
48963W        W 8224  14.600  10.243  14.933
48964W        W 8225   3.927  24.056   1.380
48965W        W 8226  41.929  42.918   1.417
48966W        W 8227   1.877   4.365   4.247
48967W        W 8228  28.932  23.554   0.769
48968W        W 8229  14.306  14.179   1.224
48969W        W 8230  13.131  17.609  10.961
48970W        W 8231   2.910  16.131   3.785
48971W        W 8232  31.581  42.409  12.861
48972W        W 8233   6.228  29.567   3.763
48973W        W 8234  35.549   2.923  10.574
48974W        W 8235  14.262  39.378  12.931
48975W        W 8236  20.560  22.194   3.744
48976W        W 8237  25.140   1.870  13.021
48977W        W 8238  16.284   4.379   1.239
48978W        W 8239   2.322  41.951   0.396
48979W        W 8240  26.144   6.898   1.312
48980W        W 8241  20.135  35.483  14.411
48981W        W 8242  12.177   5.810  11.499
48982W        W 8243   2.362  41.896   4.248
48983W        W 8244   4.288  15.677  10.911
48984W        W 8245   4.933  11.790   1.421
48985W        W 8246  38.491  32.964   5.106
48986W        W 8247   9.803  15.227   2.324
48987W        W 8248  23.031  16.576   2.270
48988W        W 8249  44.920  36.071   1.395
48989W        W 8250  20.665  37.582  14.503
48990W        W 8251   7.306  27.599   1.747
48991W        W 8252  26.985  21.214   3.631
48992W        W 8253   4.870  44.394  12.057
48993W        W 8254  40.378   7.406  14.422
48994W        W 8255   4.857  35.971  14.945
48995W        W 8256   3.252  29.169  10.905
48996W        W 8257  21.549  33.025  12.088
48997W        W 8258  37.842   4.328  11.381
48998W        W 8259  39.866  43.885  13.458
48999W        W 8260   3.379   6.250  13.024
49000W        W 8261  30.652  35.853  12.551
49001W        W 8262  24.159   7.711   0.730
49002W        W 8263  32.628  39.936  12.421
49003W        W 8264  25.100  34.941   1.225
49004W        W 8265  25.486  20.688   3.850
49005W        W 8266  14.131  26.483   2.407
49006W        W 8267  15.740  29.925   0.327
49007W        W 8268   7.907  29.172   3.236
49008W        W 8269  13.636  39.868  14.968
49009W        W 8270  17.168  20.262   2.242
49010W        W 8271   2.776   7.254   0.946
49011W        W 8272   1.300  29.148   4.766
49012W        W 8273  38.055  29.101  12.366
49013W        W 8274  21.706  14.615  12.341
49014W        W 8275  44.819  28.130  14.449
49015W        W 8276   2.817  36.505   2.877
49016W        W 8277   8.875  28.985   2.744
49017W        W 8278  44.940  40.799  14.405
49018W        W 8279  29.583  41.512  10.408
49019W        W 8280   0.302   3.280   0.366
49020W        W 8281   0.978   7.269  10.147
49021W        W 8282  11.816   9.336   4.656
49022W        W 8283  21.533  20.115   1.394
49023W        W 8284  29.053   4.256  11.543
49024W        W 8285  32.971  30.655  14.984
49025W        W 8286  32.558  18.149   4.117
49026W        W 8287  37.007  18.277  13.338
49027W        W 8288  34.454  43.402   3.323
49028W        W 8289  23.707   1.758   4.151
49029W        W 8290  18.172  14.797   0.728
49030W        W 8291  34.117   5.843  12.428
49031W        W 8292   1.736  25.580   3.245
49032W        W 8293  27.088   1.387   1.833
49033W        W 8294   6.341  34.378  13.403
49034W        W 8295  26.477   3.458  12.094
49035W        W 8296   5.304  20.557  14.298
49036W        W 8297  21.146  24.650   4.614
49037W        W 8298  30.075   5.386   0.884
49038W        W 8299  13.686  26.039  11.012
49039W        W 8300   3.260  38.325   0.265
49040W        W 8301   1.826  34.567  13.427
49041W        W 8302  25.999  12.744   2.267
49042W        W 8303  35.988  33.448  14.300
49043W        W 8304  29.091  11.130  12.018
49044W        W 8305  24.148  33.907   1.869
49045W        W 8306   0.959  43.978   3.168
49046W        W 8307  24.596  10.194   2.191
49047W        W 8308  40.452  43.493  11.961
49048W        W 8309   5.239   3.760  12.085
49049W        W 8310  15.702  41.478  13.469
49050W        W 8311   7.708  40.041   0.788
49051W        W 8312  31.001   3.919  12.092
49052W        W 8313  44.990  30.505  10.609
49053W        W 8314  44.914  36.592  10.422
49054W        W 8315  17.765  25.639  14.443
49055W        W 8316  39.018  23.075  13.495
49056W        W 8317  30.464  26.005  12.514
49057W        W 8318  39.834  23.062  13.908
49058W        W 8319   5.818  20.674   0.897
49059W        W 8320   2.343  17.729  10.573
49060W        W 8321  28.970  43.921  11.383
49061W        W 8322  19.652  24.518  10.151
49062W        W 8323  32.948  31.025   0.759
49063W        W 8324   8.751  11.190   1.713
49064W        W 8325  43.426  26.095  12.422
49065W        W 8326   5.913  32.487  12.084
49066W        W 8327  36.052   6.368   3.351
49067W        W 8328   9.363  10.771   3.781
49068W        W 8329  10.352  27.088  13.337
49069W        W 8330  44.376  18.209  10.057
49070W        W 8331   9.752  27.993   1.312
49071W        W 8332  24.133   0.907   3.253
49072W        W 8333  38.522  19.749   0.354
49073W        W 8334   7.339  21.747   3.278
49074W        W 8335  27.158  23.573   2.405
49075W        W 8336  17.105  10.770   1.847
49076W        W 8337  27.962   3.230   4.333
49077W        W 8338  43.982  40.807   3.699
49078W        W 8339  21.515  30.911  11.935
49079W        W 8340  27.448  11.155   0.392
49080W        W 8341  40.876  25.536   1.810
49081W        W 8342  17.282  21.692   2.328
49082W        W 8343  22.230  30.157  10.638
49083W        W 8344  33.510  35.991   1.435
49084W        W 8345   6.877   2.381  11.051
49085W        W 8346  40.392   3.279   4.139
49086W        W 8347  15.774  25.667   3.181
49087W        W 8348  43.314  14.724   3.356
49088W        W 8349  40.894   7.697   2.819
49089W        W 8350  19.553  36.868  11.053
49090W        W 8351  42.870  36.920   3.858
49091W        W 8352  20.617  14.691  14.937
49092W        W 8353  41.397  17.258   0.906
49093W        W 8354  44.279   8.847   4.199
49094W        W 8355  41.407  41.994   3.342
49095W        W 8356  16.809   9.743  11.448
49096W        W 8357  44.976  10.364  13.035
49097W        W 8358  41.486  21.033  14.387
49098W        W 8359  14.232  32.604  10.642
49099W        W 8360  17.162  16.138  12.873
49100W        W 8361  37.006   6.872   0.939
49101W        W 8362  36.475  11.785  12.454
49102W        W 8363   4.397  43.391  14.914
49103W        W 8364  34.528  22.101   4.810
49104W        W 8365   1.904  27.998  12.922
49105W        W 8366  44.467  11.268   0.470
49106W        W 8367  33.047  38.919  13.405
49107W        W 8368  38.491  26.519  14.862
49108W        W 8369  34.027   5.348   4.238
49109W        W 8370   6.386  11.718   0.455
49110W        W 8371  23.726  29.511  12.835
49111W        W 8372   3.339  44.804  13.868
49112W        W 8373  34.396  36.455  11.464
49113W        W 8374  12.280  36.892  12.012
49114W        W 8375   7.756  32.586   1.448
49115W        W 8376  30.642  34.922  14.762
49116W        W 8377  19.159  36.064  10.563
49117W        W 8378  31.064  32.923  13.430
49118W        W 8379  29.479  34.091   2.287
49119W        W 8380  15.120  36.869   3.307
49120W        W 8381   7.757   7.277  14.017
49121W        W 8382  15.623  40.891  10.576
49122W        W 8383  35.973   3.231  10.641
49123W        W 8384  26.016  39.331   1.858
49124W        W 8385  24.668  16.195   0.939
49125W        W 8386  28.483  23.165   0.871
49126W        W 8387  11.188  27.007   2.818
49127W        W 8388   7.300  38.365  10.572
49128W        W 8389   8.835  11.232  14.903
49129W        W 8390   2.261  28.962  12.535
49130W        W 8391  43.825  14.323  13.815
49131W        W 8392  33.439  37.552   4.798
49132W        W 8393   8.741  11.159   2.666
49133W        W 8394  29.466   6.400   1.792
49134W        W 8395  41.814  44.816   4.811
49135W        W 8396  24.986   5.888   0.759
49136W        W 8397  24.566  30.562   4.818
49137W        W 8398  29.959  13.202  13.311
49138W        W 8399  18.074   1.258  12.420
49139W        W 8400  27.026   2.913   2.302
49140W        W 8401  26.568  44.760  12.021
49141W        W 8402  19.695   3.912  12.017
49142W        W 8403  18.197   0.331  13.539
49143W        W 8404  29.498   2.309   1.245
49144W        W 8405  42.889  33.476  12.839
49145W        W 8406  16.574  28.468  11.986
49146W        W 8407  27.946  35.359   1.726
49147W        W 8408   1.734  29.029  14.952
49148W        W 8409   4.798  41.001  13.398
49149W        W 8410  44.947  40.410  10.544
49150W        W 8411   9.777  25.046   4.609
49151W        W 8412   5.821  29.130   3.632
49152W        W 8413  35.994  25.168  11.062
49153W        W 8414  40.824  13.242   3.692
49154W        W 8415  33.047  10.808  14.458
49155W        W 8416  38.928  34.589   0.869
49156W        W 8417  10.322  25.148   3.265
49157W        W 8418   5.747  39.940  10.498
49158W        W 8419  30.086  14.811  10.020
49159W        W 8420  14.631  19.599  13.467
49160W        W 8421  28.092  25.557   2.737
49161W        W 8422  33.420  41.824  13.034
49162W        W 8423  16.743  40.479   1.716
49163W        W 8424  30.133  26.041  11.521
49164W        W 8425  12.696   0.267   3.317
49165W        W 8426  26.470  18.275   1.885
49166W        W 8427  38.370  14.307   4.651
49167W        W 8428  17.196  29.492   5.670
49168W        W 8429   8.188  20.158   4.607
49169W        W 8430  43.838  16.599  11.855
49170W        W 8431  21.180  16.569  12.572
49171W        W 8432  32.572   2.902  12.440
49172W        W 8433  23.554  18.188  14.275
49173W        W 8434  14.620  42.397  13.021
49174W        W 8435   8.351  24.136  11.883
49175W        W 8436  25.200  38.895   1.781
49176W        W 8437  26.584  16.769   3.681
49177W        W 8438  29.490  43.804  14.860
49178W        W 8439  41.882   6.757   0.459
49179W        W 8440   8.229  18.225  10.908
49180W        W 8441  32.395  12.636   2.677
49181W        W 8442  17.184  11.218  10.054
49182W        W 8443   7.727  11.742  10.916
49183W        W 8444  20.619  26.546   3.848
49184W        W 8445  27.532   6.248   1.390
49185W        W 8446  10.218  17.793   3.744
49186W        W 8447  32.943  23.544  11.935
49187W        W 8448  34.494  25.964   4.828
49188W        W 8449  19.600  30.037   4.142
49189W        W 8450   6.844  40.808  13.531
49190W        W 8451   4.935   0.357   0.459
49191W        W 8452  36.380  18.062   2.404
49192W        W 8453  35.927  33.090   2.240
49193W        W 8454  28.132   2.289   4.706
49194W        W 8455  37.566  32.109  11.123
49195W        W 8456  31.613  20.629  11.473
49196W        W 8457   2.737  18.244  14.373
49197W        W 8458  44.880  44.857   1.258
49198W        W 8459  24.142  17.085   0.894
49199W        W 8460  40.962  24.007  13.819
49200W        W 8461  38.872  34.569  11.011
49201W        W 8462  35.440  33.985   4.630
49202W        W 8463  16.287  32.475  14.856
49203W        W 8464  28.029  38.857  13.831
49204W        W 8465  11.309  25.113  14.994
49205W        W 8466   4.720   0.772  11.882
49206W        W 8467  15.729  14.663  12.996
49207W        W 8468  34.981  11.181  11.563
49208W        W 8469   2.823  26.136  11.091
49209W        W 8470  27.070   2.779  12.565
49210W        W 8471   3.223  44.887   1.910
49211W        W 8472  23.989  14.255   4.175
49212W        W 8473   6.908  33.617  10.405
49213W        W 8474  19.146   2.328  13.817
49214W        W 8475  29.603  34.483  14.389
49215W        W 8476  37.861  21.754  14.952
49216W        W 8477  26.040  21.701  11.492
49217W        W 8478  12.800  20.605   0.388
49218W        W 8479  35.063  41.426   1.932
49219W        W 8480  20.211  32.987  13.467
49220W        W 8481  37.842  16.601  12.064
49221W        W 8482  22.090  22.556  11.867
49222W        W 8483   4.784  25.139   5.310
49223W        W 8484  28.607  30.103   3.311
49224W        W 8485  21.180  18.667   4.751
49225W        W 8486  15.237   2.289  13.527
49226W        W 8487  31.599  40.352   2.860
49227W        W 8488  12.741  39.547   1.213
49228W        W 8489  16.664   8.336  11.527
49229W        W 8490  12.853  37.343   2.401
49230W        W 8491   0.469   0.331   3.333
49231W        W 8492  32.526   9.172   1.278
49232W        W 8493   8.258   1.878   1.784
49233W        W 8494   9.221  30.645  14.473
49234W        W 8495  16.797  39.064  14.025
49235W        W 8496   6.821   7.174  11.942
49236W        W 8497  24.055  42.916  10.071
49237W        W 8498  38.550  18.191  11.908
49238W        W 8499  38.842  15.594   2.181
49239W        W 8500   8.329  42.319   1.881
49240W        W 8501   7.789  16.667   0.805
49241W        W 8502  16.152  21.183  13.023
49242W        W 8503  10.750  13.673  10.944
49243W        W 8504  22.209  21.707  12.570
49244W        W 8505   9.655  12.261   2.400
49245W        W 8506  11.762  20.707  10.582
49246W        W 8507  23.021  26.685   3.342
49247W        W 8508  14.130  10.157   4.324
49248W        W 8509  44.296  20.572   2.357
49249W        W 8510  30.459  12.655   4.787
49250W        W 8511  12.799   3.334  11.029
49251W        W 8512  39.393  25.639   1.749
49252W        W 8513  17.705  44.809   3.271
49253W        W 8514  10.811  20.134   4.665
49254W        W 8515   3.393  36.905  13.365
49255W        W 8516  21.215   1.278   4.157
49256W        W 8517  37.078  24.160  13.434
49257W        W 8518  39.347  14.619  11.608
49258W        W 8519   7.751  30.048  12.484
49259W        W 8520  43.985   1.955  13.869
49260W        W 8521   5.859   6.416   1.716
49261W        W 8522  23.586  44.394   3.747
49262W        W 8523   7.796  13.179  11.537
49263W        W 8524  35.986  38.415  14.025
49264W        W 8525  39.035   9.201  14.985
49265W        W 8526  32.948  35.360   2.826
49266W        W 8527  13.607  14.273   5.705
49267W        W 8528  24.021  38.986  11.508
49268W        W 8529  12.727  40.472  14.833
49269W        W 8530  27.665  26.152   2.824
49270W        W 8531  20.757  23.082  11.027
49271W        W 8532  43.001  14.801   1.768
49272W        W 8533  29.052  30.460  14.334
49273W        W 8534   6.845  11.665  12.986
49274W        W 8535  44.797   2.442  14.914
49275W        W 8536  19.697  22.032   3.670
49276W        W 8537  33.119   5.336  11.482
49277W        W 8538   5.754   0.309  14.992
49278W        W 8539  25.202  20.647   2.258
49279W        W 8540   4.790   5.857  12.928
49280W        W 8541  10.759  32.078   1.742
49281W        W 8542  14.598  17.066  11.031
49282W        W 8543   6.900  32.019  10.928
49283W        W 8544   3.260  38.032   0.262
49284W        W 8545  21.693  41.906   2.722
49285W        W 8546  29.644  14.322   1.439
49286W        W 8547  28.586  36.931   1.291
49287W        W 8548  25.629   9.255   3.270
49288W        W 8549  13.737  13.743  14.513
49289W        W 8550  17.229  38.419   0.749
49290W        W 8551  24.504  44.320  11.000
49291W        W 8552  20.631   8.740  10.601
49292W        W 8553  21.757  38.455  10.927
49293W        W 8554  29.613  44.496  12.349
49294W        W 8555   0.408   8.733   0.771
49295W        W 8556  15.767  40.358   3.279
49296W        W 8557  29.447   7.371   4.347
49297W        W 8558   5.280  10.731   1.827
49298W        W 8559  15.245  21.168  11.916
49299W        W 8560  13.665  38.996  13.510
49300W        W 8561  32.492  30.599  13.415
49301W        W 8562  33.994   2.966  14.769
49302W        W 8563  17.571  13.185   4.140
49303W        W 8564  17.102  13.289   0.245
49304W        W 8565  36.016  15.084  13.946
49305W        W 8566  28.980   1.419   4.113
49306W        W 8567  38.986   6.424  14.908
49307W        W 8568  30.118  16.633   3.661
49308W        W 8569  43.798   7.911  10.989
49309W        W 8570  18.716  11.811  12.053
49310W        W 8571  40.988  37.892   2.817
49311W        W 8572   1.752  40.542   3.735
49312W        W 8573  21.197   9.270   3.735
49313W        W 8574  15.284  12.340  11.899
49314W        W 8575   8.369  34.556   1.774
49315W        W 8576   1.368  20.182   2.397
49316W        W 8577  39.512  24.716  13.524
49317W        W 8578   1.448   7.287   4.197
49318W        W 8579   2.471  38.047  13.899
49319W        W 8580  41.022  36.989   3.177
49320W        W 8581  43.002  42.420  14.851
49321W        W 8582  44.281  30.010  12.511
49322W        W 8583  29.927  16.134   3.197
49323W        W 8584   6.704  11.717   3.307
49324W        W 8585  15.793   2.303   0.245
49325W        W 8586  12.168  30.022  14.388
49326W        W 8587  20.564  44.419  11.389
49327W        W 8588  35.939  35.410  12.881
49328W        W 8589  28.036  38.058  13.529
49329W        W 8590  22.213  24.518   4.726
49330W        W 8591   7.712  41.320  10.584
49331W        W 8592  16.786   1.238   0.243
49332W        W 8593  37.352  18.255   2.408
49333W        W 8594   2.332  37.067  12.519
49334W        W 8595  21.144  12.772   1.407
49335W        W 8596  43.447  39.428   0.896
49336W        W 8597  28.962  44.939  11.043
49337W        W 8598  44.378  36.081   3.781
49338W        W 8599  44.987  25.643  10.505
49339W        W 8600  32.017  25.987  13.810
49340W        W 8601  43.322   5.927  11.066
49341W        W 8602  29.000  36.551  14.939
49342W        W 8603  33.078  43.833  11.382
49343W        W 8604  25.640  21.736   3.710
49344W        W 8605  14.782  19.776  13.911
49345W        W 8606  33.937  38.020  13.004
49346W        W 8607  36.588  18.188  14.016
49347W        W 8608  19.268   7.728   4.172
49348W        W 8609  38.064   2.808   0.272
49349W        W 8610  35.551  32.090   0.317
49350W        W 8611  25.581   5.693  11.596
49351W        W 8612  38.958  36.470   3.161
49352W        W 8613   3.256  35.547  11.978
49353W        W 8614  10.364   9.800   1.224
49354W        W 8615  32.607  20.672  14.418
49355W        W 8616  28.655   1.404  10.443
49356W        W 8617   4.734   2.941   1.781
49357W        W 8618  23.084  27.540  13.062
49358W        W 8619  34.533  24.224  11.104
49359W        W 8620  44.005  20.252   0.267
49360W        W 8621   5.235  11.171   4.765
49361W        W 8622  42.319  12.644  11.973
49362W        W 8623  23.235  32.967  12.959
49363W        W 8624  34.512  40.529   0.872
49364W        W 8625   4.783  25.555   3.652
49365W        W 8626  29.589  36.398   4.136
49366W        W 8627  31.643  22.995   4.330
49367W        W 8628  34.879  11.810  10.161
49368W        W 8629  24.530  21.616   1.289
49369W        W 8630  32.019   3.782  11.462
49370W        W 8631   3.253  21.694   0.264
49371W        W 8632  33.033  30.141  14.777
49372W        W 8633  13.151  27.502  12.367
49373W        W 8634   2.901  22.137  14.332
49374W        W 8635  17.583   9.382  14.000
49375W        W 8636  20.122  36.381   1.419
49376W        W 8637  39.541   6.305  13.352
49377W        W 8638  15.201  35.854  14.979
49378W        W 8639  38.528  22.060   1.275
49379W        W 8640  39.438   3.288  11.485
49380W        W 8641  42.886  23.699  12.477
49381W        W 8642  35.450  24.028   0.941
49382W        W 8643  14.760  13.599  14.462
49383W        W 8644  28.990   4.708  12.414
49384W        W 8645  39.478  19.108   2.693
49385W        W 8646   1.864  38.068  10.911
49386W        W 8647  29.496  31.126   0.936
49387W        W 8648  23.684  18.670   2.698
49388W        W 8649  11.251  43.489  14.334
49389W        W 8650  23.513  29.080  14.481
49390W        W 8651  13.745   0.354   0.392
49391W        W 8652  40.964  12.192  11.959
49392W        W 8653  42.985  14.750  10.896
49393W        W 8654  12.663  13.217  14.935
49394W        W 8655   3.722  38.337   0.244
49395W        W 8656  36.495   7.830   1.219
49396W        W 8657   9.326   6.389   3.253
49397W        W 8658  13.639  19.585   0.385
49398W        W 8659   5.217  10.321  14.426
49399W        W 8660  25.155   1.304   1.788
49400W        W 8661  37.345   9.747   2.696
49401W        W 8662  12.825   4.718   1.432
49402W        W 8663  32.080  40.946   3.332
49403W        W 8664  35.468  16.111   3.213
49404W        W 8665  20.700   9.788   0.875
49405W        W 8666  41.521  43.000   0.901
49406W        W 8667  17.767  40.449  12.408
49407W        W 8668  35.360   7.778  14.955
49408W        W 8669  37.064  38.484  14.310
49409W        W 8670  19.617  42.348  13.496
49410W        W 8671   6.341  24.716  11.584
49411W        W 8672  17.576  28.490  12.840
49412W        W 8673  18.212  37.342  10.433
49413W        W 8674  21.173  32.984   3.724
49414W        W 8675  35.411  43.282  14.932
49415W        W 8676   5.862  34.599   3.751
49416W        W 8677  37.001  12.689  11.983
49417W        W 8678  20.628  10.791  13.493
49418W        W 8679  16.306  27.005  12.960
49419W        W 8680  23.731  36.391   4.607
49420W        W 8681  32.545  38.437  11.487
49421W        W 8682  44.415  32.515   3.774
49422W        W 8683   4.401  36.033  10.588
49423W        W 8684  17.275   3.250   5.098
49424W        W 8685   1.466  34.958  12.001
49425W        W 8686   1.264  17.791   1.794
49426W        W 8687  24.073   7.699  10.920
49427W        W 8688  15.640  29.514   1.358
49428W        W 8689  33.939  37.513  11.023
49429W        W 8690  10.331  11.264   1.701
49430W        W 8691  27.564  27.113  11.984
49431W        W 8692  30.583  18.185   3.371
49432W        W 8693  32.544   9.676   1.732
49433W        W 8694  40.414  36.044   0.307
49434W        W 8695  44.393  37.519   1.263
49435W        W 8696  43.775  32.910  13.418
49436W        W 8697   6.795  16.119  13.911
49437W        W 8698  18.721  35.953  11.402
49438W        W 8699  34.543   4.269   4.834
49439W        W 8700  40.308  40.962   2.244
49440W        W 8701  40.379  18.636   3.868
49441W        W 8702  22.124   3.893   0.396
49442W        W 8703   2.359  43.916   0.726
49443W        W 8704   2.810  29.565  12.493
49444W        W 8705  18.236  26.076   0.735
49445W        W 8706  27.056   3.750   0.760
49446W        W 8707  19.765  30.497  12.070
49447W        W 8708   2.265  10.148  12.507
49448W        W 8709  34.432   8.830  12.986
49449W        W 8710  30.000  27.167   4.796
49450W        W 8711  19.606   4.761  13.548
49451W        W 8712   0.489  42.343  10.454
49452W        W 8713   1.297  39.824  11.899
49453W        W 8714  24.100  33.406   2.418
49454W        W 8715  27.956  11.732   0.762
49455W        W 8716  24.102  20.627   3.272
49456W        W 8717   6.692  25.705   0.959
49457W        W 8718  20.627  38.822  13.539
49458W        W 8719   7.203  26.601  13.465
49459W        W 8720   9.344   6.336  10.048
49460W        W 8721  15.694   2.921   1.783
49461W        W 8722  33.035  35.403  10.043
49462W        W 8723   6.735  26.119  12.889
49463W        W 8724  23.042  42.965   1.898
49464W        W 8725   0.289  33.941  10.552
49465W        W 8726  15.802  44.275  13.819
49466W        W 8727  29.984   1.876   3.822
49467W        W 8728   3.872   7.237  14.472
49468W        W 8729  21.222   5.220   3.360
49469W        W 8730  13.160  28.525  10.063
49470W        W 8731  20.749   8.289   3.215
49471W        W 8732  14.330  16.267   1.717
49472W        W 8733  18.208  24.612   3.341
49473W        W 8734  33.901  24.615  12.472
49474W        W 8735  10.728   2.865   3.659
49475W        W 8736  33.096  44.914  11.935
49476W        W 8737  25.068  12.712  12.851
49477W        W 8738  32.990   7.900   2.277
49478W        W 8739  25.017  35.025   2.791
49479W        W 8740   9.818  21.168   3.176
49480W        W 8741  22.605  37.051  14.946
49481W        W 8742   6.363   3.216  14.339
49482W        W 8743   2.337   7.179  11.081
49483W        W 8744  22.149   5.721   1.390
49484W        W 8745   0.251  28.444   1.328
49485W        W 8746   2.429  19.108  14.977
49486W        W 8747  27.989  40.021  12.029
49487W        W 8748   7.889   6.275   2.241
49488W        W 8749  17.653   1.881  14.289
49489W        W 8750  41.935  14.761   3.676
49490W        W 8751  27.182   6.748   2.369
49491W        W 8752  12.740  33.969  14.407
49492W        W 8753  16.289  20.159   4.770
49493W        W 8754  22.641  39.489   2.305
49494W        W 8755  39.968  28.976  10.466
49495W        W 8756  17.089  25.547  14.393
49496W        W 8757  40.394  17.793   2.821
49497W        W 8758  17.086  42.886  13.374
49498W        W 8759  34.552  15.141  11.003
49499W        W 8760  30.983  18.212  12.873
49500W        W 8761  29.075  10.861   2.685
49501W        W 8762  41.950  31.023   2.733
49502W        W 8763   0.830  44.336   2.327
49503W        W 8764  43.872  39.444   0.807
49504W        W 8765   4.376  24.722   0.337
49505W        W 8766   7.202  44.388  11.062
49506W        W 8767   9.841  13.261   2.382
49507W        W 8768   4.795  38.868   2.740
49508W        W 8769  24.990  31.509  10.434
49509W        W 8770  22.038  14.126   2.280
49510W        W 8771  21.539  13.667   4.686
49511W        W 8772  29.663   1.295  14.861
49512W        W 8773  12.330   8.334   4.666
49513W        W 8774  23.059   7.339  10.582
49514W        W 8775  35.098  32.525  14.864
49515W        W 8776  35.557  32.456  13.817
49516W        W 8777  14.139  43.491   4.682
49517W        W 8778   5.251  24.092   1.421
49518W        W 8779  24.069  10.150   9.979
49519W        W 8780  31.454  22.511  12.451
49520W        W 8781  42.483  27.494  10.888
49521W        W 8782   4.235  29.993   0.374
49522W        W 8783  14.715   3.288  14.925
49523W        W 8784   3.455   2.953   1.344
49524W        W 8785   5.390  17.779   4.745
49525W        W 8786   3.354   3.946  14.999
49526W        W 8787  35.374  25.088   1.913
49527W        W 8788  31.031  28.602  11.891
49528W        W 8789  30.509   6.399   1.438
49529W        W 8790   4.917  16.643  12.346
49530W        W 8791  42.289   3.883  13.981
49531W        W 8792  11.690  39.528  11.406
49532W        W 8793  28.605  26.127  10.488
49533W        W 8794  43.794  23.521  12.847
49534W        W 8795  22.122  40.344   4.681
49535W        W 8796  32.442   1.741  14.006
49536W        W 8797  33.509  10.274  10.542
49537W        W 8798  28.932  42.340   3.685
49538W        W 8799  12.826  23.233   4.723
49539W        W 8800  35.519  34.563  10.487
49540W        W 8801  18.612  42.991  10.050
49541W        W 8802  23.148   8.370   4.635
49542W        W 8803  42.871  41.987  11.977
49543W        W 8804  17.723  39.880  11.121
49544W        W 8805   4.389  39.506   1.336
49545W        W 8806  36.098  19.044  10.416
49546W        W 8807  32.527  26.037   3.839
49547W        W 8808  24.603  34.991   4.627
49548W        W 8809  13.114  10.811   3.229
49549W        W 8810   0.353  10.205  12.560
49550W        W 8811  11.663  37.560   3.810
49551W        W 8812   0.835  39.349  10.928
49552W        W 8813  31.532  44.817  12.418
49553W        W 8814   0.325  27.507  14.490
49554W        W 8815   4.230  32.947   3.719
49555W        W 8816   5.296  28.046   1.311
49556W        W 8817  11.764  41.965   3.147
49557W        W 8818  29.126   7.795  14.300
49558W        W 8819  24.484  26.140  11.917
49559W        W 8820  30.478  28.551   2.219
49560W        W 8821   3.277  18.211   0.796
49561W        W 8822  17.787  39.954  12.518
49562W        W 8823  17.094   4.375  12.341
49563W        W 8824   1.844  13.799   4.833
49564W        W 8825   1.883  15.313  10.909
49565W        W 8826  30.049   3.291   2.713
49566W        W 8827  27.488  39.023   3.830
49567W        W 8828  20.581  14.139   4.228
49568W        W 8829  38.490   7.252   2.844
49569W        W 8830  23.991  28.511   3.766
49570W        W 8831   0.784  24.062   1.275
49571W        W 8832  30.474  26.037  13.038
49572W        W 8833  42.848  38.417  11.612
49573W        W 8834  44.878  27.102  13.436
49574W        W 8835  27.548  41.845   1.269
49575W        W 8836  15.229  22.064   4.762
49576W        W 8837  31.405   8.178   9.928
49577W        W 8838  16.259  37.916  13.835
49578W        W 8839   0.778  42.838   0.326
49579W        W 8840  12.254  20.254   3.690
49580W        W 8841  27.046  35.032  10.057
49581W        W 8842  26.505  35.940   4.213
49582W        W 8843  19.624  37.895  12.844
49583W        W 8844  30.457  31.032  11.499
49584W        W 8845  39.444  28.636   4.820
49585W        W 8846  11.818  10.709  14.789
49586W        W 8847  21.261  31.526   2.670
49587W        W 8848  41.292   1.959   4.671
49588W        W 8849  39.528  24.030  12.043
49589W        W 8850   8.830  13.131   1.834
49590W        W 8851  16.311   3.362  12.568
49591W        W 8852   1.296  30.067   3.791
49592W        W 8853  21.593  44.439  13.332
49593W        W 8854  31.946  29.613   4.159
49594W        W 8855   8.832  20.091  11.970
49595W        W 8856  37.391  43.279   1.227
49596W        W 8857  43.333   5.851   4.252
49597W        W 8858  18.258  12.631   1.911
49598W        W 8859   4.279  32.528  13.357
49599W        W 8860  19.064  33.947  14.484
49600W        W 8861  24.683   4.312  13.487
49601W        W 8862  17.629  25.703  10.584
49602W        W 8863   1.329  27.032  14.846
49603W        W 8864  23.642  31.939  13.540
49604W        W 8865  41.866  22.006  13.973
49605W        W 8866  34.539  19.272   4.769
49606W        W 8867   0.780  24.678   2.845
49607W        W 8868  18.715  16.798   3.253
49608W        W 8869  19.055  13.203  10.417
49609W        W 8870  14.768  44.790  14.898
49610W        W 8871  15.209   5.862   3.772
49611W        W 8872   5.704  38.026  10.894
49612W        W 8873   4.878   5.902   5.749
49613W        W 8874  15.209  39.933   1.848
49614W        W 8875  34.067  24.543  12.925
49615W        W 8876  42.873   0.405  10.888
49616W        W 8877  26.499   9.191   5.127
49617W        W 8878  11.352  37.882   0.792
49618W        W 8879  20.192  41.828  10.990
49619W        W 8880   4.945  24.651   3.819
49620W        W 8881  42.496   0.872  13.871
49621W        W 8882  30.953  13.213   2.838
49622W        W 8883  26.984   8.235  12.404
49623W        W 8884   4.809  27.979   3.682
49624W        W 8885   7.767   1.948  14.775
49625W        W 8886  29.643  31.988  14.486
49626W        W 8887  27.509  37.071  11.375
49627W        W 8888  30.912  24.501   2.353
49628W        W 8889  12.738  15.201   2.783
49629W        W 8890  28.639   1.270  12.018
49630W        W 8891  28.562  44.847  13.466
49631W        W 8892  42.976  43.469   2.298
49632W        W 8893   9.290  20.764  14.977
49633W        W 8894   9.668  32.940  11.504
49634W        W 8895   5.355   4.911  11.000
49635W        W 8896  25.210   8.390  12.843
49636W        W 8897  15.099  16.266   3.180
49637W        W 8898  10.227  26.657   0.310
49638W        W 8899   6.219  15.258   1.858
49639W        W 8900   6.774   4.220   2.386
49640W        W 8901  19.772  27.098  11.930
49641W        W 8902  44.343   9.341   5.111
49642W        W 8903  30.071  21.697   0.292
49643W        W 8904  10.849  18.284  14.787
49644W        W 8905  12.682  36.067   3.725
49645W        W 8906  11.263  38.003  11.538
49646W        W 8907  20.213  35.896  13.335
49647W        W 8908   8.877  27.033   1.799
49648W        W 8909  25.562  31.064  12.067
49649W        W 8910  42.417  38.365   4.750
49650W        W 8911   6.375  40.890   1.400
49651W        W 8912  16.575  22.019  11.016
49652W        W 8913  31.933   7.804  12.859
49653W        W 8914  19.698  38.340   0.915
49654W        W 8915  19.117  33.969   1.916
49655W        W 8916  16.111  43.488   0.466
49656W        W 8917  30.574  12.617   4.323
49657W        W 8918  26.051  31.610  10.593
49658W        W 8919  22.543  30.126   0.828
49659W        W 8920  22.216  25.534   0.258
49660W        W 8921  40.845   0.303  13.973
49661W        W 8922  33.964  20.707   1.733
49662W        W 8923  21.114  14.338  12.056
49663W        W 8924  37.437  16.113  11.572
49664W        W 8925  37.532  14.810  10.931
49665W        W 8926   0.774  28.581  10.408
49666W        W 8927  28.454  32.123   4.665
49667W        W 8928  26.144  14.694  14.367
49668W        W 8929  15.580  26.195  14.835
49669W        W 8930   2.461  37.855   3.741
49670W        W 8931  31.056  36.550   5.605
49671W        W 8932  44.371  28.081  12.885
49672W        W 8933  36.017  11.181   0.275
49673W        W 8934  16.709  34.102   3.866
49674W        W 8935  15.822  42.491   4.801
49675W        W 8936  19.652  32.574   0.865
49676W        W 8937  31.505   3.726   0.840
49677W        W 8938  14.309   2.232  11.460
49678W        W 8939  27.057   3.303   3.847
49679W        W 8940  22.120   6.392  10.484
49680W        W 8941   8.226  44.423  13.948
49681W        W 8942  15.776   5.277  11.473
49682W        W 8943   2.803  19.537  14.982
49683W        W 8944  41.396   0.931  14.844
49684W        W 8945   5.341  27.131   1.914
49685W        W 8946   8.238  32.527  12.548
49686W        W 8947   7.178  33.081  12.857
49687W        W 8948   6.714  39.416  11.474
49688W        W 8949   0.305  33.500   1.389
49689W        W 8950   3.218  44.279  14.459
49690W        W 8951   6.816  14.629   4.280
49691W        W 8952  31.032  22.566  12.992
49692W        W 8953  33.397  44.978  12.913
49693W        W 8954  27.111   4.800  10.931
49694W        W 8955   2.396   0.906   2.793
49695W        W 8956   5.832  27.029   2.791
49696W        W 8957  28.549   1.470   4.306
49697W        W 8958  39.853  33.394   4.347
49698W        W 8959  40.893  23.204  10.956
49699W        W 8960  43.941  24.026   3.370
49700W        W 8961   9.741  39.923  10.468
49701W        W 8962  44.366  17.633   9.982
49702W        W 8963  12.640  33.475   2.387
49703W        W 8964  20.057  11.720  12.530
49704W        W 8965  21.192  23.634   2.343
49705W        W 8966  17.650  18.209  13.033
49706W        W 8967  42.448  44.364  12.998
49707W        W 8968   5.888  42.899   3.217
49708W        W 8969   2.795  14.611  12.500
49709W        W 8970  43.894  30.103   4.299
49710W        W 8971  32.573   3.889   1.270
49711W        W 8972  10.228  12.784  12.891
49712W        W 8973  33.453   9.745  14.807
49713W        W 8974   5.352  33.415   2.325
49714W        W 8975   9.200   9.386   0.963
49715W        W 8976  22.660   5.689   3.337
49716W        W 8977  43.311  19.064   1.297
49717W        W 8978  28.004  13.635   3.806
49718W        W 8979  22.059  31.493   0.930
49719W        W 8980  14.270  32.452  12.937
49720W        W 8981  22.236  19.752   2.278
49721W        W 8982  27.169  35.440  11.557
49722W        W 8983  24.085  43.498  12.829
49723W        W 8984   9.324  30.963  11.467
49724W        W 8985  43.982  30.625   2.833
49725W        W 8986   6.286  41.343  13.429
49726W        W 8987  16.237   1.862  12.852
49727W        W 8988  21.066  17.211  10.968
49728W        W 8989  26.189  37.974   3.197
49729W        W 8990   6.856  17.640  14.300
49730W        W 8991  28.117  24.052   0.768
49731W        W 8992   1.934   8.275  11.444
49732W        W 8993  26.993   8.671  12.825
49733W        W 8994   2.401  25.517  11.389
49734W        W 8995  26.588  41.450  14.789
49735W        W 8996  31.557  15.287  13.907
49736W        W 8997  24.503  38.942   0.426
49737W        W 8998  42.427  25.098   1.783
49738W        W 8999  35.996  31.032   1.433
49739W        W 9000  16.109   7.697  12.427
49740W        W 9001   6.744  44.445  10.584
49741W        W 9002  41.874  16.168   4.677
49742W        W 9003  42.495  15.181   3.357
49743W        W 9004  32.597   1.865  14.364
49744W        W 9005  24.980  39.840  11.544
49745W        W 9006   8.337  20.113   4.288
49746W        W 9007   3.893  31.587  10.451
49747W        W 9008  22.132   9.881  14.829
49748W        W 9009  23.196   7.788  11.382
49749W        W 9010  36.929  43.370   0.836
49750W        W 9011  37.392  18.120   3.726
49751W        W 9012  20.533  10.273  13.442
49752W        W 9013  41.322  19.680  12.542
49753W        W 9014  19.079  17.637   3.780
49754W        W 9015  32.118  32.132   0.941
49755W        W 9016  34.931  30.054   3.361
49756W        W 9017  25.560  27.692  14.967
49757W        W 9018   6.278  38.566  10.524
49758W        W 9019  41.501   3.241  10.976
49759W        W 9020  39.493   8.728   5.198
49760W        W 9021  13.283   6.918  10.618
49761W        W 9022   2.254  29.945  13.054
49762W        W 9023  39.840  25.138  13.855
49763W        W 9024  43.767  37.547  10.522
49764W        W 9025  37.895  21.024  11.085
49765W        W 9026  14.695  41.842   0.931
49766W        W 9027  34.062  28.161   0.410
49767W        W 9028  35.030  34.924   4.812
49768W        W 9029  42.942  31.453  12.870
49769W        W 9030   3.342  33.528  13.314
49770W        W 9031  16.143  38.328  10.536
49771W        W 9032  11.848  21.262   2.698
49772W        W 9033   5.809  31.071   1.800
49773W        W 9034  22.028   8.245   2.403
49774W        W 9035   1.739  43.431   2.190
49775W        W 9036   5.389  12.138   9.578
49776W        W 9037  14.208  36.876   1.715
49777W        W 9038   9.704  11.347   4.652
49778W        W 9039  10.740   0.974  12.496
49779W        W 9040  31.957  29.012   3.821
49780W        W 9041  32.114  16.599   3.854
49781W        W 9042  22.659  18.779   2.298
49782W        W 9043  39.836  18.294  14.020
49783W        W 9044  37.341  40.040   2.745
49784W        W 9045   6.297  35.856   5.176
49785W        W 9046  40.826   0.330   2.260
49786W        W 9047   2.373  36.527  13.352
49787W        W 9048   4.708  29.482   2.670
49788W        W 9049   6.699  36.368   4.241
49789W        W 9050  27.037  38.895  11.895
49790W        W 9051   8.749  43.367  14.813
49791W        W 9052  15.093  34.111   2.735
49792W        W 9053   3.424  19.763   4.692
49793W        W 9054  35.359   3.744  13.885
49794W        W 9055   4.277  28.126  10.526
49795W        W 9056  35.562  42.368  11.980
49796W        W 9057  33.462   7.880  13.924
49797W        W 9058  30.134  16.305   0.927
49798W        W 9059  12.183   8.714  10.504
49799W        W 9060  25.070   6.827   0.959
49800W        W 9061   6.225  12.702  14.760
49801W        W 9062  32.887  15.231  13.011
49802W        W 9063  16.210  19.563   4.328
49803W        W 9064  10.376  41.365  11.956
49804W        W 9065  40.524  22.007   4.745
49805W        W 9066  37.383  18.622  14.300
49806W        W 9067  41.970  28.959  13.474
49807W        W 9068   6.788   9.681  14.949
49808W        W 9069   9.790  10.683  10.639
49809W        W 9070  23.170   1.374  14.844
49810W        W 9071  19.717  17.571   1.345
49811W        W 9072   6.222   6.869  10.119
49812W        W 9073  16.602  20.062   9.659
49813W        W 9074  40.956  11.171   3.727
49814W        W 9075  16.588  15.603   0.963
49815W        W 9076  44.338  23.525  11.461
49816W        W 9077  11.151  34.565  11.426
49817W        W 9078  33.974   0.799  12.532
49818W        W 9079  34.938  27.956  12.347
49819W        W 9080   3.942  39.943   2.830
49820W        W 9081  16.262  41.889  11.871
49821W        W 9082  35.402  34.527   0.350
49822W        W 9083  36.578  10.369   5.246
49823W        W 9084  40.520   4.736  12.486
49824W        W 9085  42.879  15.743  10.914
49825W        W 9086  20.575   1.870   4.824
49826W        W 9087  19.112   3.397   2.230
49827W        W 9088  34.568  16.675   2.893
49828W        W 9089   0.941   6.803  11.031
49829W        W 9090  18.092  36.874   0.441
49830W        W 9091   6.775  18.078  10.904
49831W        W 9092  20.233  12.329   0.283
49832W        W 9093  15.218  30.078   4.825
49833W        W 9094   2.366  20.153   2.878
49834W        W 9095  19.058  27.164  14.840
49835W        W 9096  16.629  21.646   4.647
49836W        W 9097  32.632  40.895  11.089
49837W        W 9098  14.799  27.550  13.495
49838W        W 9099  17.221  23.539  11.436
49839W        W 9100  42.415  18.065  14.768
49840W        W 9101  31.029  17.278  12.955
49841W        W 9102   4.881  43.808  11.120
49842W        W 9103   8.333  11.666   1.771
49843W        W 9104  22.035  32.600  13.477
49844W        W 9105  27.113  25.096   1.404
49845W        W 9106  30.562  43.288  14.787
49846W        W 9107  24.223  29.523   3.870
49847W        W 9108   4.401  26.104   0.280
49848W        W 9109   0.844  40.006  14.868
49849W        W 9110  27.166   5.770   4.337
49850W        W 9111  17.760  34.550  10.897
49851W        W 9112   8.732  24.995  11.612
49852W        W 9113  33.093  42.471  14.449
49853W        W 9114   2.276  18.663   2.874
49854W        W 9115  22.554  44.404   2.299
49855W        W 9116  21.212   1.436   0.767
49856W        W 9117  22.222   1.888  11.568
49857W        W 9118  23.230  16.218   3.245
49858W        W 9119  24.150  28.030   4.745
49859W        W 9120  29.003  11.702  10.124
49860W        W 9121  38.449   9.253   0.467
49861W        W 9122  14.146   9.367   2.726
49862W        W 9123  12.731  41.480  11.406
49863W        W 9124  17.199  40.915   1.763
49864W        W 9125  32.537  42.027  11.510
49865W        W 9126   4.863   9.350   2.745
49866W        W 9127  42.470   7.279   4.153
49867W        W 9128  17.253  31.994  13.463
49868W        W 9129  33.403  44.353   1.387
49869W        W 9130  24.678  43.826  14.433
49870W        W 9131  14.673  30.502  12.028
49871W        W 9132  15.744  24.984   4.615
49872W        W 9133  40.798  13.259  14.475
49873W        W 9134  23.692  10.338   1.925
49874W        W 9135  41.967  25.197   2.334
49875W        W 9136  27.667  11.757   4.667
49876W        W 9137   8.350   0.802   4.218
49877W        W 9138  11.342  10.658  11.606
49878W        W 9139  41.341  17.290   1.442
49879W        W 9140   0.470  44.849  12.522
49880W        W 9141   7.700  32.445  13.970
49881W        W 9142   9.675  13.110   5.770
49882W        W 9143  16.734  43.291  11.995
49883W        W 9144  21.552  42.968   3.679
49884W        W 9145  23.656  24.527   2.359
49885W        W 9146  11.176  33.974   0.801
49886W        W 9147   5.233  25.062   0.321
49887W        W 9148   1.973  29.483  10.484
49888W        W 9149  12.815   3.878   4.319
49889W        W 9150  36.975  31.979   3.759
49890W        W 9151   0.871  42.806  12.573
49891W        W 9152  39.505   4.710   4.236
49892W        W 9153  21.702  16.214  14.351
49893W        W 9154  36.033  22.215  12.851
49894W        W 9155   7.361  29.500  14.308
49895W        W 9156  21.228  24.213  10.470
49896W        W 9157  26.988  26.679  12.474
49897W        W 9158  43.928  27.125  14.012
49898W        W 9159   4.259  44.851  11.412
49899W        W 9160  18.134  21.032   0.375
49900W        W 9161  32.490  13.785   5.103
49901W        W 9162  40.030  29.124  12.978
49902W        W 9163  38.465  44.445   2.261
49903W        W 9164  20.268   2.845   3.376
49904W        W 9165  15.589  13.351  14.307
49905W        W 9166  24.491  30.912   1.356
49906W        W 9167  32.546  15.636   1.867
49907W        W 9168  31.549   2.865   0.442
49908W        W 9169   3.827  15.305  11.915
49909W        W 9170  25.174  19.190   2.826
49910W        W 9171   8.346  17.241  11.865
49911W        W 9172  15.082  30.621   3.718
49912W        W 9173  31.590  33.558  13.492
49913W        W 9174  11.777  29.964  12.070
49914W        W 9175  35.002  36.930   3.146
49915W        W 9176   7.292  35.423  14.992
49916W        W 9177  23.677  12.125   3.868
49917W        W 9178  27.034  42.992  14.388
49918W        W 9179  40.535  22.525   4.132
49919W        W 9180  21.240   9.211  12.859
49920W        W 9181  35.077   8.197  11.493
49921W        W 9182  20.256  15.108   3.324
49922W        W 9183  34.954  35.905   1.835
49923W        W 9184  21.252  26.981  13.817
49924W        W 9185  41.915  18.170  13.459
49925W        W 9186  27.492  43.855   0.784
49926W        W 9187  20.201  36.383  11.469
49927W        W 9188  18.082   3.392  10.406
49928W        W 9189  41.523  35.490   4.762
49929W        W 9190  13.169   2.442   0.348
49930W        W 9191  36.512  11.213  13.009
49931W        W 9192  16.705  19.770   2.364
49932W        W 9193  13.267  28.953   1.766
49933W        W 9194  22.628  26.509   2.307
49934W        W 9195  26.544  26.021   2.309
49935W        W 9196  22.221   9.783  11.514
49936W        W 9197   5.434  36.384  10.546
49937W        W 9198   4.885  35.513   3.163
49938W        W 9199  32.401  44.330   1.870
49939W        W 9200  37.025  17.700  11.609
49940W        W 9201  18.686  37.539  12.554
49941W        W 9202  23.521  30.122  13.436
49942W        W 9203   9.725  38.032   0.381
49943W        W 9204  26.204   1.270  13.326
49944W        W 9205  16.644  38.982  12.858
49945W        W 9206  19.674  32.114  11.965
49946W        W 9207   9.333  36.381  12.532
49947W        W 9208   3.214  20.566   0.388
49948W        W 9209  27.948  41.420  13.340
49949W        W 9210  22.501   1.911  11.378
49950W        W 9211  12.652  22.645   3.674
49951W        W 9212  27.180  32.027  14.275
49952W        W 9213  23.731  15.113  10.617
49953W        W 9214  35.941   4.897  11.930
49954W        W 9215  33.081  11.240  14.440
49955W        W 9216  21.099  19.186   2.857
49956W        W 9217  39.498  39.924  11.023
49957W        W 9218   1.882  27.548  11.387
49958W        W 9219  10.758  41.512   1.696
49959W        W 9220  44.759   5.382  14.457
49960W        W 9221   2.377  39.992   2.879
49961W        W 9222  13.150  40.520   2.833
49962W        W 9223  19.544  40.810   0.425
49963W        W 9224  10.196  37.905   4.820
49964W        W 9225  31.103  24.546   3.639
49965W        W 9226  22.740  19.197  14.927
49966W        W 9227   8.692   9.383   4.169
49967W        W 9228  23.139  14.250   3.637
49968W        W 9229   0.866  11.777  10.644
49969W        W 9230  10.713  33.614  12.989
49970W        W 9231  14.143  36.397  12.903
49971W        W 9232  26.025  41.870  14.466
49972W        W 9233  38.559  16.206   1.716
49973W        W 9234  43.990  17.650  13.968
49974W        W 9235  16.207  39.386   4.773
49975W        W 9236  18.236   8.736  14.815
49976W        W 9237  41.889  36.428   1.416
49977W        W 9238  23.566  44.882  11.562
49978W        W 9239   5.368   9.790  14.340
49979W        W 9240  21.705   8.373  10.404
49980W        W 9241   2.847   8.810   2.253
49981W        W 9242  39.547  32.890  14.277
49982W        W 9243  36.942  36.089  12.415
49983W        W 9244  21.091  34.969   4.243
49984W        W 9245  40.434  28.065  10.145
49985W        W 9246  32.896  41.029   0.819
49986W        W 9247  24.683  17.219   1.904
49987W        W 9248  43.838  23.224  12.982
49988W        W 9249  24.147  29.131   2.182
49989W        W 9250   5.853   4.721   1.360
49990W        W 9251  35.013   7.717   3.153
49991W        W 9252   8.766  43.507   1.344
49992W        W 9253  11.668  40.342   4.754
49993W        W 9254  21.694  23.684   1.849
49994W        W 9255  40.453  30.456  13.859
49995W        W 9256  44.878  30.149   0.805
49996W        W 9257  15.661  33.604  14.832
49997W        W 9258   1.931  32.998   1.879
49998W        W 9259  15.704  43.351   1.765
49999W        W 9260  38.408  17.635  12.541
50000W        W 9261  20.709  18.076   3.735
50001W        W 9262  12.638  10.770  11.075
50002W        W 9263  22.199  33.095  11.570
50003W        W 9264  32.097   4.768  14.770
50004W        W 9265  20.162  42.315  14.010
50005W        W 9266  13.329  17.762   3.221
50006W        W 9267  27.522  21.198  12.399
50007W        W 9268  26.115  31.514   1.839
50008W        W 9269  30.104  43.007   3.204
50009W        W 9270  19.649  42.940  13.401
50010W        W 9271  11.732  21.089   2.412
50011W        W 9272  27.686   3.311   2.260
50012W        W 9273   2.910  19.065  12.869
50013W        W 9274  44.760   0.924  11.025
50014W        W 9275  16.730   1.282   0.893
50015W        W 9276  35.922  44.957   4.118
50016W        W 9277  37.544  27.987  14.876
50017W        W 9278   6.762   6.796  10.473
50018W        W 9279   5.766   8.336  12.061
50019W        W 9280  42.308   9.390   2.378
50020W        W 9281  11.175   4.272   3.226
50021W        W 9282  13.298  41.446   2.325
50022W        W 9283  17.656   5.292  13.361
50023W        W 9284   6.182   0.866  13.913
50024W        W 9285  40.843  18.211   4.623
50025W        W 9286   8.757   7.691   1.236
50026W        W 9287  40.479   1.784   2.285
50027W        W 9288  27.611  29.159  12.981
50028W        W 9289  29.996  18.697  10.485
50029W        W 9290   4.306  44.803  13.967
50030W        W 9291  27.497  25.495   1.896
50031W        W 9292   6.279  38.475   3.363
50032W        W 9293  29.538  17.604  11.103
50033W        W 9294  35.852  35.902   1.863
50034W        W 9295  12.252  11.675   3.836
50035W        W 9296   1.735  25.033   0.393
50036W        W 9297  42.818   4.882  12.512
50037W        W 9298  40.910  33.503   1.814
50038W        W 9299   6.781   4.312  13.345
50039W        W 9300   0.489  43.276  12.888
50040W        W 9301  33.438  20.538   2.207
50041W        W 9302  19.754  13.636   1.713
50042W        W 9303   1.798  26.053   0.963
50043W        W 9304  26.122  32.110   3.220
50044W        W 9305   4.701  18.626   4.240
50045W        W 9306  16.716   1.800   0.369
50046W        W 9307  26.058  29.553   3.719
50047W        W 9308  25.672  20.128   4.693
50048W        W 9309  27.018   9.270  12.407
50049W        W 9310  23.042  35.023  10.528
50050W        W 9311  42.381   8.287  12.983
50051W        W 9312   5.428  22.663  10.956
50052W        W 9313  37.366   6.851  10.983
50053W        W 9314   8.289  30.417  12.566
50054W        W 9315   5.270  44.891  11.971
50055W        W 9316   6.295  25.106  12.368
50056W        W 9317  40.946  18.597   1.359
50057W        W 9318  19.594  39.015  14.412
50058W        W 9319   2.412  37.483  14.981
50059W        W 9320  28.675   0.393   0.310
50060W        W 9321   2.297  40.979   2.383
50061W        W 9322   0.951  36.376   3.669
50062W        W 9323   7.717  43.843   0.350
50063W        W 9324  11.141  11.782  13.502
50064W        W 9325  31.147   4.226   4.319
50065W        W 9326  27.551  11.319   3.823
50066W        W 9327  36.030  25.164  14.470
50067W        W 9328  22.585  34.548   0.783
50068W        W 9329  30.116  41.944  12.968
50069W        W 9330   7.672  15.637   1.306
50070W        W 9331  25.639   3.389  10.500
50071W        W 9332  27.680  44.005  10.427
50072W        W 9333  23.602  42.937  11.427
50073W        W 9334  35.016  34.509  14.398
50074W        W 9335  12.668   4.404  12.984
50075W        W 9336  26.588   7.724   0.434
50076W        W 9337  32.474   5.869   2.319
50077W        W 9338   5.360  14.664  12.394
50078W        W 9339  30.503  31.996   4.611
50079W        W 9340   3.364  25.053   4.156
50080W        W 9341   8.740  42.314  13.879
50081W        W 9342  21.237  22.094   1.811
50082W        W 9343   3.739  39.943   3.767
50083W        W 9344  42.384   6.203   1.740
50084W        W 9345  29.083   7.695   0.359
50085W        W 9346  44.406  34.436  14.910
50086W        W 9347   0.360   1.956   1.714
50087W        W 9348  24.659  14.764  13.920
50088W        W 9349  35.594  17.089   2.872
50089W        W 9350  18.663  30.139   2.792
50090W        W 9351  35.440   2.948  10.889
50091W        W 9352  24.651  15.224  12.469
50092W        W 9353  29.069  25.576  12.470
50093W        W 9354  41.535  19.705  12.866
50094W        W 9355  26.154  35.390  10.620
50095W        W 9356   5.292  30.539   4.664
50096W        W 9357  37.448  42.790  14.003
50097W        W 9358  34.864   7.214   9.957
50098W        W 9359  18.644  19.252  11.912
50099W        W 9360  35.032  36.523  14.924
50100W        W 9361  32.066  28.030  10.933
50101W        W 9362  16.255  39.065   0.772
50102W        W 9363   7.708  20.552   0.411
50103W        W 9364  20.092   2.332   4.629
50104W        W 9365  14.656  32.996  10.889
50105W        W 9366  30.058   2.355  10.644
50106W        W 9367   6.869  26.003  11.402
50107W        W 9368  23.994   8.720  12.359
50108W        W 9369   8.405   3.365  14.313
50109W        W 9370  25.497  12.827   0.484
50110W        W 9371   9.878  35.383   4.121
50111W        W 9372  15.802   5.269  12.576
50112W        W 9373   2.425  26.473  12.432
50113W        W 9374  21.514  32.087   2.819
50114W        W 9375  18.660  32.015  14.795
50115W        W 9376  18.106  12.204  14.338
50116W        W 9377  30.149  23.693  13.352
50117W        W 9378  21.224  35.104   2.334
50118W        W 9379  25.495  33.938   2.279
50119W        W 9380  26.640  40.373   4.208
50120W        W 9381   6.863  43.951   0.445
50121W        W 9382  33.579  34.527   0.866
50122W        W 9383  36.889  34.012   2.333
50123W        W 9384   5.374  25.211   1.898
50124W        W 9385  29.994  26.488   2.680
50125W        W 9386  44.993  32.579  13.492
50126W        W 9387   1.744  36.851  13.502
50127W        W 9388  29.131  18.154  12.346
50128W        W 9389   9.672  26.168   4.201
50129W        W 9390  23.597   8.696   1.889
50130W        W 9391  23.680  34.382   4.303
50131W        W 9392  27.058  26.195  14.321
50132W        W 9393  16.811  44.418  12.397
50133W        W 9394  33.927  26.089  14.365
50134W        W 9395  13.687  13.817  14.865
50135W        W 9396  33.449  39.030  14.346
50136W        W 9397  26.600  35.494   3.645
50137W        W 9398  26.638  37.993  14.940
50138W        W 9399   0.423  42.973  10.453
50139W        W 9400  11.242  30.097   4.134
50140W        W 9401  41.472  31.455   3.654
50141W        W 9402  27.489  43.920   0.415
50142W        W 9403  44.946  43.320  14.963
50143W        W 9404  23.593  30.034  14.497
50144W        W 9405   4.352  34.521   1.716
50145W        W 9406  10.761   6.904  11.946
50146W        W 9407  33.928  10.380  13.005
50147W        W 9408  41.871  21.040   4.264
50148W        W 9409  16.134  20.104   2.417
50149W        W 9410  32.966  28.582  13.881
50150W        W 9411  30.427  10.745   4.167
50151W        W 9412   6.755   8.695  13.833
50152W        W 9413   2.754  17.757  13.367
50153W        W 9414  29.014  31.602   3.834
50154W        W 9415  22.569  23.019   0.924
50155W        W 9416   3.910  23.202   1.885
50156W        W 9417  36.527  29.570  12.432
50157W        W 9418  33.109  21.515   2.210
50158W        W 9419  21.630  37.338   2.332
50159W        W 9420   5.877  38.567  13.313
50160W        W 9421  11.221  40.974  11.969
50161W        W 9422   7.235  30.087  12.062
50162W        W 9423  41.349   8.879  14.788
50163W        W 9424   1.745  12.699  11.372
50164W        W 9425  43.006  12.799   0.431
50165W        W 9426   0.430   5.295   4.338
50166W        W 9427  12.205  29.924  12.989
50167W        W 9428   0.933  12.204   2.785
50168W        W 9429  13.228   8.879   5.190
50169W        W 9430  11.163   6.882  13.982
50170W        W 9431  39.547  13.197   2.198
50171W        W 9432  35.591  42.801   2.756
50172W        W 9433  12.750  16.127  11.610
50173W        W 9434  29.499  15.169  12.894
50174W        W 9435  35.448  34.987   0.341
50175W        W 9436  36.863  39.391   3.301
50176W        W 9437  22.028  17.742   2.340
50177W        W 9438  12.619  32.431   3.233
50178W        W 9439  31.080  34.057   0.754
50179W        W 9440  13.218  35.082   4.151
50180W        W 9441  34.054  26.990   2.869
50181W        W 9442  14.774  39.320  10.575
50182W        W 9443   9.694  43.022  10.612
50183W        W 9444  38.986  35.029   1.344
50184W        W 9445  37.531  31.122  14.025
50185W        W 9446  33.600  40.493  13.021
50186W        W 9447  41.438  23.195  12.413
50187W        W 9448  40.406  34.586  12.417
50188W        W 9449  12.194  44.451  10.469
50189W        W 9450  25.702  13.337   2.784
50190W        W 9451   8.724  10.194  13.406
50191W        W 9452   1.831  40.328   4.637
50192W        W 9453  37.041  30.108  11.927
50193W        W 9454  21.151  19.541  14.793
50194W        W 9455   5.419  11.262  12.369
50195W        W 9456  38.390  21.230  10.971
50196W        W 9457  40.455  30.976   1.435
50197W        W 9458  30.629   6.375   1.914
50198W        W 9459  18.077  37.015  10.940
50199W        W 9460  34.577   0.342  11.423
50200W        W 9461  16.176  25.049   5.200
50201W        W 9462   1.458   2.957  12.884
50202W        W 9463  28.082  42.780  12.526
50203W        W 9464  21.642  31.535  12.839
50204W        W 9465   2.813  19.627  13.838
50205W        W 9466  17.585  43.832   2.847
50206W        W 9467  34.500   1.373   0.442
50207W        W 9468  14.657  28.439   2.396
50208W        W 9469  43.355   8.342  13.369
50209W        W 9470  17.783  31.045   1.211
50210W        W 9471  31.574   6.786  13.412
50211W        W 9472  32.082  39.055  12.077
50212W        W 9473  34.424  20.591   2.755
50213W        W 9474   9.771   3.842  14.906
50214W        W 9475  37.487  26.160  14.872
50215W        W 9476  31.127   9.303   2.361
50216W        W 9477  13.800  23.142  10.614
50217W        W 9478  44.002  39.472   3.172
50218W        W 9479  17.181  39.427  14.463
50219W        W 9480  23.036  15.609  10.445
50220W        W 9481  28.105  22.190  12.427
50221W        W 9482  29.450  39.040  13.951
50222W        W 9483  34.035   5.433   4.636
50223W        W 9484  41.036  10.837   2.750
50224W        W 9485  32.418  16.085  10.637
50225W        W 9486  13.226  34.434   3.368
50226W        W 9487  39.956  23.117  14.401
50227W        W 9488  28.990  11.213  12.526
50228W        W 9489   2.312  34.938   2.876
50229W        W 9490  21.668  34.938   1.408
50230W        W 9491  17.107  15.263   3.198
50231W        W 9492  27.675  16.205   0.369
50232W        W 9493  25.577  29.458   2.880
50233W        W 9494  15.230  38.500  13.529
50234W        W 9495   4.374  21.744  14.853
50235W        W 9496  11.782  17.229   2.340
50236W        W 9497   1.826   3.910   4.318
50237W        W 9498  38.031  10.834   3.856
50238W        W 9499   7.374  41.518  12.575
50239W        W 9500  12.817  39.861   3.287
50240W        W 9501  23.716  30.004   3.784
50241W        W 9502  44.774  19.150   3.347
50242W        W 9503  37.506  22.250   1.236
50243W        W 9504  40.988  44.859  10.578
50244W        W 9505   1.840  16.766  14.388
50245W        W 9506  17.696   6.901   2.372
50246W        W 9507  35.602   6.404   3.718
50247W        W 9508  27.138  13.720  12.938
50248W        W 9509  30.099  42.822  14.479
50249W        W 9510  15.126  12.672  10.134
50250W        W 9511  15.798   8.801  13.032
50251W        W 9512  33.399  39.393   1.834
50252W        W 9513  37.021  20.705   3.717
50253W        W 9514  28.153  10.676  13.493
50254W        W 9515  38.057  36.024   2.866
50255W        W 9516  20.762  17.085  11.088
50256W        W 9517  35.963  23.181  12.373
50257W        W 9518  31.027  34.943   3.382
50258W        W 9519  26.057  44.452  14.837
50259W        W 9520  25.634  22.154   4.814
50260W        W 9521  26.062   0.914  14.466
50261W        W 9522  10.765  38.077   2.306
50262W        W 9523   8.288   3.239  10.597
50263W        W 9524  12.694   1.858  13.055
50264W        W 9525  14.675   2.890   1.362
50265W        W 9526   9.779  40.043  12.482
50266W        W 9527  15.591   5.917  12.521
50267W        W 9528  18.086  10.708   4.611
50268W        W 9529  35.400  40.383  13.493
50269W        W 9530  28.618  24.097  10.632
50270W        W 9531  16.317  35.059   1.245
50271W        W 9532  27.529  30.085  12.358
50272W        W 9533  10.237  13.183  11.475
50273W        W 9534  36.512   3.740   4.268
50274W        W 9535  41.856  44.458   3.222
50275W        W 9536  15.758   0.399   9.948
50276W        W 9537   9.230  20.586  14.425
50277W        W 9538  32.049  25.516  12.883
50278W        W 9539  39.054   0.924  11.937
50279W        W 9540  25.524  29.597   1.300
50280W        W 9541  39.001  26.080   0.335
50281W        W 9542  44.436  11.776  11.587
50282W        W 9543  41.002  13.819  14.311
50283W        W 9544  20.269  38.502  14.903
50284W        W 9545  22.601  37.041  10.936
50285W        W 9546  34.972  27.129  12.406
50286W        W 9547   6.325   1.797   4.114
50287W        W 9548  13.221  27.157  11.404
50288W        W 9549  23.029   7.175  13.457
50289W        W 9550  33.895  26.650  13.858
50290W        W 9551   4.698  40.543  13.961
50291W        W 9552   1.930   3.871  13.406
50292W        W 9553  32.491   6.695  14.302
50293W        W 9554  16.730  29.090   4.150
50294W        W 9555  29.060  43.440   4.258
50295W        W 9556  39.417  43.822  12.340
50296W        W 9557  23.642   4.796   2.832
50297W        W 9558  35.495   2.873  12.041
50298W        W 9559  34.389  23.540  11.067
50299W        W 9560   0.339   4.348   2.839
50300W        W 9561  10.778  29.982  14.759
50301W        W 9562   0.751  15.136  13.329
50302W        W 9563   3.893  12.631   4.304
50303W        W 9564   2.397  33.123  13.833
50304W        W 9565   9.820  23.604   4.774
50305W        W 9566  28.601  31.101  11.113
50306W        W 9567  41.298  40.912   1.771
50307W        W 9568   5.769   8.300   1.252
50308W        W 9569  44.811   3.725  11.092
50309W        W 9570  12.119   2.354  13.901
50310W        W 9571   7.306  15.128  12.860
50311W        W 9572  37.970  22.027  12.449
50312W        W 9573  31.136  23.587   4.261
50313W        W 9574  30.954  16.103   2.835
50314W        W 9575  19.572  11.208   1.273
50315W        W 9576   1.336  21.553   1.390
50316W        W 9577   8.711  33.547   2.375
50317W        W 9578  26.087  25.668  13.547
50318W        W 9579  32.616  14.297   1.428
50319W        W 9580  31.931  35.556  14.511
50320W        W 9581   7.188  11.309  14.901
50321W        W 9582   4.256  19.756   1.817
50322W        W 9583  21.739   7.738   4.248
50323W        W 9584  39.505   6.253   0.482
50324W        W 9585  17.098   8.228  10.404
50325W        W 9586   9.290  33.880   4.149
50326W        W 9587  33.103   8.283   4.773
50327W        W 9588  34.878  38.559  12.565
50328W        W 9589  16.074   2.237  14.909
50329W        W 9590  34.564  37.473  13.934
50330W        W 9591  10.867  34.066  10.494
50331W        W 9592  40.454  29.636  13.933
50332W        W 9593  11.657   2.889  13.381
50333W        W 9594  20.213  21.569   2.846
50334W        W 9595  43.959  28.019   3.800
50335W        W 9596   8.687   2.265   2.222
50336W        W 9597  42.503  11.192   4.816
50337W        W 9598   2.857   4.707  11.492
50338W        W 9599   1.906  42.962  14.405
50339W        W 9600  17.198  13.206  13.948
50340W        W 9601   0.426  36.532   4.836
50341W        W 9602   3.266  12.620  11.473
50342W        W 9603  26.546   9.232  11.008
50343W        W 9604   3.250  15.234   1.791
50344W        W 9605   1.453  12.220   1.354
50345W        W 9606  27.546  43.412  13.016
50346W        W 9607  17.159  20.551   0.922
50347W        W 9608  20.223   6.272  11.863
50348W        W 9609  29.141  23.103   2.301
50349W        W 9610  32.585  44.865   4.289
50350W        W 9611  13.176  22.733  13.353
50351W        W 9612  40.971  27.043   2.775
50352W        W 9613   9.290  43.456  12.378
50353W        W 9614   0.801  38.381   1.367
50354W        W 9615   1.907  41.360  11.573
50355W        W 9616  38.971  27.587   3.297
50356W        W 9617  27.549  35.589   4.263
50357W        W 9618  26.537  32.078  14.958
50358W        W 9619  23.999   6.715  12.427
50359W        W 9620  33.116  31.442   0.264
50360W        W 9621  39.913  38.400   4.819
50361W        W 9622  13.837  13.747  13.796
50362W        W 9623  24.983  23.997  12.874
50363W        W 9624  41.494  41.523  13.522
50364W        W 9625  30.998  26.130   4.619
50365W        W 9626  29.064   1.845  10.635
50366W        W 9627   9.856  30.159   1.402
50367W        W 9628  20.530  32.399   4.776
50368W        W 9629  26.464   7.235  13.932
50369W        W 9630  41.514   9.707  12.028
50370W        W 9631  42.295  37.391  14.854
50371W        W 9632  19.545  16.150  10.609
50372W        W 9633   1.388   5.870   4.350
50373W        W 9634   9.356   5.200   4.735
50374W        W 9635  23.024   6.401  13.941
50375W        W 9636   2.399  32.006   4.335
50376W        W 9637   5.385  27.067  11.901
50377W        W 9638  44.997   4.936   1.760
50378W        W 9639  10.707   7.808  14.335
50379W        W 9640  22.541  23.544   3.632
50380W        W 9641  36.912  32.552  13.909
50381W        W 9642   4.914  15.273   0.872
50382W        W 9643  29.559  29.171   0.751
50383W        W 9644   8.692  20.738   1.808
50384W        W 9645  14.833  40.839   2.822
50385W        W 9646  43.873  32.549  10.518
50386W        W 9647   6.356   6.853   1.753
50387W        W 9648  30.048   6.757   3.170
50388W        W 9649   8.231  25.989  14.489
50389W        W 9650  19.083   5.816   3.308
50390W        W 9651  18.691  31.149  14.828
50391W        W 9652  26.013  16.156  13.404
50392W        W 9653  28.476  23.047  13.344
50393W        W 9654  21.570  25.595   3.642
50394W        W 9655   7.194  35.406   4.723
50395W        W 9656  16.587   8.306   1.449
50396W        W 9657  16.114  11.797  14.339
50397W        W 9658   6.705  15.685   1.443
50398W        W 9659  29.965  19.581   1.227
50399W        W 9660  12.826  38.456   0.895
50400W        W 9661  28.009   5.387   0.850
50401W        W 9662  14.600  40.515  14.366
50402W        W 9663  24.187  19.076   1.296
50403W        W 9664   0.812   5.383   2.818
50404W        W 9665   0.821  21.059   1.744
50405W        W 9666  25.713   5.330  12.972
50406W        W 9667  12.155  42.829   0.256
50407W        W 9668  42.839  35.526   0.284
50408W        W 9669   0.957  25.963   4.163
50409W        W 9670  20.543  39.466  14.403
50410W        W 9671  10.344   6.690  13.434
50411W        W 9672  18.588  25.963   3.659
50412W        W 9673  42.795  30.554  14.881
50413W        W 9674  43.378  16.678   1.344
50414W        W 9675  36.035  34.083   3.720
50415W        W 9676   7.724  39.466  13.798
50416W        W 9677  35.604  34.055   9.977
50417W        W 9678  37.346  33.081   3.262
50418W        W 9679  18.615  42.795  10.556
50419W        W 9680   4.925   9.872  13.324
50420W        W 9681  31.990  11.846   3.201
50421W        W 9682   3.859  39.948   1.309
50422W        W 9683  10.201  34.610   3.356
50423W        W 9684  19.112  44.002  11.967
50424W        W 9685  40.843  17.073   4.171
50425W        W 9686  29.983   2.906  12.448
50426W        W 9687  19.548  36.565   0.943
50427W        W 9688  29.161  12.172  11.455
50428W        W 9689   7.204  44.759  14.776
50429W        W 9690  22.105  34.075  12.496
50430W        W 9691  41.807   6.776   2.413
50431W        W 9692   1.819  19.702  13.483
50432W        W 9693   9.189   6.217  14.003
50433W        W 9694  33.460  38.970   2.340
50434W        W 9695   4.220  36.419   0.403
50435W        W 9696   7.244  42.952  12.826
50436W        W 9697  28.543   5.928  10.997
50437W        W 9698  36.850   9.385   3.816
50438W        W 9699  15.130   2.959   2.887
50439W        W 9700  30.576  30.140  14.805
50440W        W 9701  27.185  27.067  14.017
50441W        W 9702   5.864  39.963  12.958
50442W        W 9703  43.332  35.892  12.892
50443W        W 9704  34.528   5.281   4.354
50444W        W 9705  26.596  13.141   5.235
50445W        W 9706  28.986  20.220   1.420
50446W        W 9707  36.514  36.953  11.516
50447W        W 9708  15.682   2.395   2.377
50448W        W 9709  40.043  24.179  12.896
50449W        W 9710  37.833  20.074  14.957
50450W        W 9711  19.248  36.590  12.385
50451W        W 9712   8.232  21.071   3.213
50452W        W 9713  40.892  27.087   1.232
50453W        W 9714  14.606  43.769  12.503
50454W        W 9715  35.027  38.824  14.392
50455W        W 9716  20.667  43.933  12.883
50456W        W 9717  16.284  44.896   4.787
50457W        W 9718  27.044   0.293   0.826
50458W        W 9719  11.626  14.311  14.768
50459W        W 9720  17.137  40.427  11.498
50460W        W 9721  22.222  13.600  12.476
50461W        W 9722   6.255   4.810   0.764
50462W        W 9723  13.117   3.740  13.336
50463W        W 9724  42.489  18.555   2.351
50464W        W 9725  23.030  29.603   3.186
50465W        W 9726  36.524  41.491   1.925
50466W        W 9727  13.786  37.455   2.672
50467W        W 9728  31.539  37.947   2.356
50468W        W 9729  19.645  41.438   0.414
50469W        W 9730  33.400  22.739  10.573
50470W        W 9731  16.714  16.668  13.408
50471W        W 9732  40.890  14.275   4.598
50472W        W 9733  40.039  37.964  14.953
50473W        W 9734   7.720   6.282   4.628
50474W        W 9735   2.229  40.524  10.920
50475W        W 9736  25.024  43.019  11.558
50476W        W 9737  31.054  15.324  13.330
50477W        W 9738   9.367  37.421   1.763
50478W        W 9739   2.907   1.976   2.265
50479W        W 9740  35.872  32.496   2.329
50480W        W 9741   3.374  43.018  10.485
50481W        W 9742  15.668  37.954  13.017
50482W        W 9743  34.035  25.584  12.547
50483W        W 9744  37.941  32.930  10.622
50484W        W 9745  29.971  31.420  13.967
50485W        W 9746  12.192  12.821   2.841
50486W        W 9747  37.950  39.468   0.471
50487W        W 9748  29.625   3.762   2.891
50488W        W 9749  26.469  22.212  13.512
50489W        W 9750   6.287  19.576  13.438
50490W        W 9751  11.657  41.903   2.413
50491W        W 9752  14.602  32.448  11.883
50492W        W 9753  13.179  15.272   0.791
50493W        W 9754  37.578  20.573   4.615
50494W        W 9755  27.461   9.666   1.237
50495W        W 9756  15.250  25.144   2.378
50496W        W 9757  32.014  17.278   4.716
50497W        W 9758  13.773   7.374   5.248
50498W        W 9759  21.191   6.318   4.828
50499W        W 9760  40.021  43.806   1.346
50500W        W 9761  43.306  37.507   1.930
50501W        W 9762  36.402  18.058  14.958
50502W        W 9763  30.012   4.357   2.835
50503W        W 9764  25.151  21.571  13.022
50504W        W 9765  34.438  38.373  13.402
50505W        W 9766  22.656  28.984   4.347
50506W        W 9767  39.543   0.492   0.843
50507W        W 9768   1.243  11.281  10.966
50508W        W 9769  18.160  41.410   1.251
50509W        W 9770  27.596  41.855  11.561
50510W        W 9771  33.017  13.302   2.187
50511W        W 9772   6.740  14.195  10.909
50512W        W 9773  42.513  13.626  10.491
50513W        W 9774   7.898  43.451  12.929
50514W        W 9775  40.993  33.609   0.733
50515W        W 9776  15.264  41.384   4.254
50516W        W 9777  42.470  41.836   4.301
50517W        W 9778   2.723  22.156  13.327
50518W        W 9779  34.965  29.098   5.319
50519W        W 9780   8.353  12.745   9.946
50520W        W 9781  19.667  44.897  10.904
50521W        W 9782  13.303  24.103   4.317
50522W        W 9783   7.789   3.451  12.832
50523W        W 9784  21.204   0.324   4.678
50524W        W 9785  33.970  17.602   4.608
50525W        W 9786  10.276  18.625   4.260
50526W        W 9787  31.645  44.318   1.793
50527W        W 9788  41.461  31.450   0.910
50528W        W 9789   9.202  12.218  14.439
50529W        W 9790  24.496  15.619  12.379
50530W        W 9791  36.994  14.170  12.914
50531W        W 9792   4.267  30.097   0.828
50532W        W 9793  27.110  33.017  11.539
50533W        W 9794  38.915  24.551  11.998
50534W        W 9795  14.630  19.617  12.500
50535W        W 9796  43.454  39.828   0.435
50536W        W 9797  22.580  10.218  14.966
50537W        W 9798  12.147   1.239   1.235
50538W        W 9799  36.503  37.490   2.281
50539W        W 9800  11.365  38.954   0.746
50540W        W 9801  16.763  36.493  10.618
50541W        W 9802   7.754  14.683  10.598
50542W        W 9803  18.571   6.875   1.920
50543W        W 9804  13.736  10.286  13.030
50544W        W 9805  35.000   6.854  14.770
50545W        W 9806  36.352  27.620   3.383
50546W        W 9807  25.006   0.476  10.025
50547W        W 9808  39.816  18.732   4.622
50548W        W 9809  40.462  11.688   0.830
50549W        W 9810   3.412  26.477  12.974
50550W        W 9811  28.993  35.967  13.524
50551W        W 9812  40.373   9.223   3.795
50552W        W 9813  37.923  16.661   4.122
50553W        W 9814  43.013  27.177   1.280
50554W        W 9815  37.905   0.752  11.923
50555W        W 9816  37.886  39.877   2.780
50556W        W 9817   5.794  37.982  12.530
50557W        W 9818  31.402  41.012  13.467
50558W        W 9819  20.759  23.196   1.838
50559W        W 9820  12.843  15.138  12.545
50560W        W 9821  25.686  21.227   1.210
50561W        W 9822  40.496  14.191   3.667
50562W        W 9823  16.659  19.066   4.177
50563W        W 9824  16.149   8.392  14.763
50564W        W 9825  40.489  10.206  13.479
50565W        W 9826   2.365  14.696  10.457
50566W        W 9827  11.266  42.411  12.837
50567W        W 9828  32.925   3.293   2.183
50568W        W 9829  18.197  25.977  13.433
50569W        W 9830  23.984  30.952  12.901
50570W        W 9831   5.918  30.149  13.049
50571W        W 9832  34.880  33.418   1.234
50572W        W 9833  32.951   1.452   0.309
50573W        W 9834   2.886   8.654  12.392
50574W        W 9835  35.016  28.625  14.018
50575W        W 9836   4.258  14.158   2.686
50576W        W 9837  23.497   9.219  13.318
50577W        W 9838   7.730  16.773   3.232
50578W        W 9839   1.253   8.283   0.768
50579W        W 9840  29.102  20.751  12.401
50580W        W 9841   5.801   6.284   4.812
50581W        W 9842  37.348  30.586   4.269
50582W        W 9843   0.822  35.474  11.883
50583W        W 9844  20.623  19.626  11.579
50584W        W 9845  15.720   7.814  12.420
50585W        W 9846  28.522  43.318   2.271
50586W        W 9847  15.175   5.709   1.318
50587W        W 9848  41.871  28.931   3.774
50588W        W 9849  24.176  41.954   0.786
50589W        W 9850   8.334  21.094  14.983
50590W        W 9851  29.561  34.548   2.822
50591W        W 9852   2.760  14.337  12.028
50592W        W 9853  30.993  44.008  10.449
50593W        W 9854  40.026  19.190   2.224
50594W        W 9855  18.654  39.900   3.665
50595W        W 9856  26.158  15.248   4.820
50596W        W 9857  27.005  26.978   4.613
50597W        W 9858  30.427  30.089  12.940
50598W        W 9859  40.852  32.950   0.453
50599W        W 9860  25.570  21.052  13.495
50600W        W 9861   4.835  20.596  12.957
50601W        W 9862  18.157  38.072   0.844
50602W        W 9863  22.208  29.960   1.704
50603W        W 9864  37.893  15.768   4.623
50604W        W 9865  13.290   6.913   0.817
50605W        W 9866  16.083   7.699  11.899
50606W        W 9867  42.939  37.542  13.927
50607W        W 9868  24.561  28.104   3.745
50608W        W 9869  29.472  31.092  13.312
50609W        W 9870   0.984  30.414  10.918
50610W        W 9871  14.590   4.894   3.336
50611W        W 9872   7.873  25.999   1.217
50612W        W 9873  29.992   1.914   1.215
50613W        W 9874  29.581  41.841   4.819
50614W        W 9875  16.126   2.459  11.112
50615W        W 9876   4.378  26.989   3.718
50616W        W 9877   7.366  30.092  12.371
50617W        W 9878  28.625  20.056   4.322
50618W        W 9879   7.287   6.763   3.723
50619W        W 9880  15.589  32.929  13.522
50620W        W 9881  22.501  37.085  11.523
50621W        W 9882  36.881  10.373  13.032
50622W        W 9883  24.126   0.471  14.957
50623W        W 9884  39.039   2.425  13.438
50624W        W 9885  15.092  18.122  13.542
50625W        W 9886  34.413  31.042  13.400
50626W        W 9887  26.699  15.587   1.923
50627W        W 9888   5.366   7.192  11.926
50628W        W 9889  16.717  31.914   4.165
50629W        W 9890  44.275   3.427  13.498
50630W        W 9891   5.736  27.954  14.391
50631W        W 9892  34.113  13.342   1.253
50632W        W 9893  31.134  31.020  12.443
50633W        W 9894  18.175   5.726  11.506
50634W        W 9895  41.419   3.881  13.988
50635W        W 9896  13.241  22.092   3.277
50636W        W 9897  44.273  29.152  13.922
50637W        W 9898  43.764   9.837  13.832
50638W        W 9899   6.699  12.284  14.494
50639W        W 9900  12.210   3.826  11.863
50640W        W 9901   4.335  17.787  14.477
50641W        W 9902   2.878   2.279  10.612
50642W        W 9903  15.591  19.557   9.546
50643W        W 9904   6.275  34.883   1.836
50644W        W 9905  34.878  29.633   9.953
50645W        W 9906  24.114  30.604   3.791
50646W        W 9907  35.564   2.873   0.464
50647W        W 9908   9.307  35.445  10.531
50648W        W 9909  24.573  15.249   4.139
50649W        W 9910   6.318  19.602   4.800
50650W        W 9911  32.513  39.995   0.878
50651W        W 9912  37.006  43.441   2.361
50652W        W 9913   3.911  11.326  10.964
50653W        W 9914  27.066  10.256   0.308
50654W        W 9915  35.401  34.879  13.399
50655W        W 9916  17.157   5.241  12.993
50656W        W 9917  20.174  43.427  12.398
50657W        W 9918  37.482  39.042  10.961
50658W        W 9919  24.620  19.582  10.616
50659W        W 9920  22.168   8.687   2.179
50660W        W 9921  38.924  29.101  11.093
50661W        W 9922  38.880  35.037  11.378
50662W        W 9923  23.526   6.275  10.928
50663W        W 9924  16.105  15.192  10.588
50664W        W 9925  37.479  38.067   0.328
50665W        W 9926  10.230  41.985   3.850
50666W        W 9927  44.371  36.552   1.760
50667W        W 9928  34.374  42.000   1.338
50668W        W 9929   2.755  42.898  11.095
50669W        W 9930  36.889  27.970  11.036
50670W        W 9931   1.399  36.351  13.404
50671W        W 9932  17.631  24.114  14.791
50672W        W 9933  14.213  16.617   3.746
50673W        W 9934  42.472   9.705  13.335
50674W        W 9935  18.096   0.386   2.331
50675W        W 9936  11.202  11.660   4.228
50676W        W 9937   4.743   5.702  10.076
50677W        W 9938  15.820  15.603  10.149
50678W        W 9939   2.777  24.161  14.422
50679W        W 9940  13.275  20.075  13.056
50680W        W 9941   6.423  27.672  14.506
50681W        W 9942  24.695  13.341   4.180
50682W        W 9943  10.198  43.346  14.855
50683W        W 9944  11.855  20.546  11.068
50684W        W 9945  24.176  20.273  13.937
50685W        W 9946  17.783  34.585   3.151
50686W        W 9947   8.286  10.635  12.385
50687W        W 9948  15.125   6.870   0.908
50688W        W 9949   4.351  13.639  11.101
50689W        W 9950  18.677  11.720  14.884
50690W        W 9951  10.636  22.177  14.814
50691W        W 9952  17.772  23.714   3.725
50692W        W 9953  36.522  11.765  11.861
50693W        W 9954  22.549  40.901  12.557
50694W        W 9955  44.904  33.383   2.884
50695W        W 9956  31.639  18.086  10.889
50696W        W 9957  10.685  44.420   3.335
50697W        W 9958  33.489  18.688   3.725
50698W        W 9959   5.768  44.367   3.740
50699W        W 9960   3.722  39.505   4.250
50700W        W 9961  40.375  15.661   5.129
50701W        W 9962  15.156  20.055   5.771
50702W        W 9963  36.932  19.688   1.276
50703W        W 9964  32.025  29.441   1.406
50704W        W 9965  22.063   9.358  14.913
50705W        W 9966  36.429   0.373  13.322
50706W        W 9967  23.013  14.292  12.011
50707W        W 9968  24.025  27.601   4.812
50708W        W 9969  23.204  25.600   2.189
50709W        W 9970  16.075  30.914  10.487
50710W        W 9971  19.748  10.836  14.336
50711W        W 9972  36.052  32.451  14.377
50712W        W 9973  32.112  40.886   1.739
50713W        W 9974  39.002  17.789  13.378
50714W        W 9975  14.741  25.136  10.530
50715W        W 9976  33.414  39.422  11.917
50716W        W 9977  29.931  28.443  14.871
50717W        W 9978  41.518   7.286  13.003
50718W        W 9979  41.378   2.840  13.439
50719W        W 9980  10.162  38.012  14.343
50720W        W 9981   6.338   1.746  13.930
50721W        W 9982   7.794  34.031  14.822
50722W        W 9983  30.621  34.966   3.667
50723W        W 9984  39.503  36.508  12.861
50724W        W 9985   3.324  43.430   1.424
50725W        W 9986  20.077   4.235  13.903
50726W        W 9987   5.410  27.037  13.426
50727W        W 9988   7.210   5.345  13.384
50728W        W 9989  42.293  15.718  10.425
50729W        W 9990  39.477  20.740   3.834
50730W        W 9991  32.601  35.922  10.632
50731W        W 9992   1.474  22.622  10.422
50732W        W 9993   8.727  26.685  14.279
50733W        W 9994  15.099   1.364  12.858
50734W        W 9995  24.144  18.719  12.409
50735W        W 9996  41.426  17.706  12.837
50736W        W 9997  29.646  33.036   3.344
50737W        W 9998  14.157  15.223  14.466
50738W        W 9999   5.773  11.247   1.798
50739W        W10000  25.530  28.583  10.523
50740W        W10001   2.785  27.141  14.454
50741W        W10002  11.329  16.638  11.881
50742W        W10003  33.032  33.464   0.346
50743W        W10004  23.178  22.135  13.499
50744W        W10005   9.733   1.302   3.697
50745W        W10006  10.169   6.283   9.978
50746W        W10007  20.042  29.426   0.278
50747W        W10008  34.562  12.269   5.629
50748W        W10009  22.123  26.486   1.930
50749W        W10010  18.153  42.351  11.047
50750W        W10011  27.088  42.401  10.481
50751W        W10012  25.118  37.392  11.523
50752W        W10013  38.440   1.262   2.790
50753W        W10014  34.035  33.585   1.426
50754W        W10015  44.928  40.020   3.313
50755W        W10016  31.586   6.192   4.663
50756W        W10017  19.087   3.801  14.783
50757W        W10018  39.383  28.154   3.338
50758W        W10019   2.947   9.700   0.423
50759W        W10020   9.234  24.111  10.892
50760W        W10021   4.285  34.495  13.804
50761W        W10022  15.735  31.492  10.993
50762W        W10023  20.739  26.134   1.881
50763W        W10024   8.669  36.558   4.625
50764W        W10025  23.003  35.584   1.919
50765W        W10026  35.045  28.454   2.842
50766W        W10027   9.666  17.204  10.582
50767W        W10028  33.951   4.866  14.782
50768W        W10029  30.485  13.689  11.444
50769W        W10030  10.828   2.342   5.213
50770W        W10031  36.898  26.045  12.880
50771W        W10032  39.346  32.535  11.503
50772W        W10033  22.225  19.048   2.872
50773W        W10034  35.865  20.655  12.358
50774W        W10035  31.006  20.730  12.058
50775W        W10036  21.068   9.217   1.420
50776W        W10037  17.593  15.310  14.469
50777W        W10038  22.528  41.331  13.999
50778W        W10039  32.623  34.550   0.417
50779W        W10040   6.781  27.565   4.607
50780W        W10041  14.666  20.093   2.735
50781W        W10042  43.448   3.381   0.478
50782W        W10043  31.976   5.849   4.703
50783W        W10044  25.985  42.418   1.803
50784W        W10045  42.336  22.042  14.474
50785W        W10046  17.094   8.286   1.697
50786W        W10047  30.637   9.260   4.655
50787W        W10048  23.647  27.645  13.933
50788W        W10049   7.737  17.160   1.286
50789W        W10050   4.760  38.497   3.363
50790W        W10051   2.915  26.179   3.639
50791W        W10052  25.707  27.944   1.225
50792W        W10053   0.937  11.676   5.319
50793W        W10054  28.537  44.972   4.187
50794W        W10055  42.982  31.515  11.115
50795W        W10056   7.820  34.539   4.687
50796W        W10057  11.765  11.698   5.301
50797W        W10058  43.423  40.847   1.342
50798W        W10059  28.155   6.722   3.292
50799W        W10060  10.646  13.746   3.661
50800W        W10061  33.897  22.586   2.180
50801W        W10062  29.965  20.705  14.507
50802W        W10063  44.330  12.781  12.970
50803W        W10064  31.107  39.882   0.313
50804W        W10065  35.009   8.663  11.051
50805W        W10066  29.648  21.146   1.348
50806W        W10067   3.284   5.433   2.898
50807W        W10068  18.060  34.053   4.763
50808W        W10069  12.149   7.228   2.722
50809W        W10070  22.073  28.606   1.821
50810W        W10071  11.799   9.192  13.894
50811W        W10072   7.383  21.033   3.276
50812W        W10073   4.343   0.280  13.423
50813W        W10074  44.915   5.826  13.341
50814W        W10075  23.565  22.589  12.471
50815W        W10076  19.216  12.257  12.467
50816W        W10077  33.568  15.727   0.816
50817W        W10078  43.391   8.898  11.379
50818W        W10079  20.221  21.227  12.419
50819W        W10080   3.884  34.082   0.284
50820W        W10081  23.104   4.429  14.850
50821W        W10082  30.589  15.691  14.288
50822W        W10083   6.745   4.916  14.986
50823W        W10084  32.539  32.621  11.023
50824W        W10085   8.791  34.008   4.824
50825W        W10086  30.544  41.844  10.635
50826W        W10087  23.999  31.477   1.302
50827W        W10088   4.389  22.221  12.078
50828W        W10089  33.525  21.108   3.377
50829W        W10090  40.948   5.231   4.741
50830W        W10091  10.803  44.852  11.901
50831W        W10092  27.689  31.589   4.780
50832W        W10093  32.112  33.037  14.852
50833W        W10094  15.695  41.376   0.938
50834W        W10095  33.122  13.201   2.888
50835W        W10096  29.166  36.377   1.867
50836W        W10097  37.011  36.888   0.814
50837W        W10098   2.821  28.553   2.296
50838W        W10099  30.416  36.000   3.658
50839W        W10100   4.907  30.601  13.869
50840W        W10101   6.232  43.911   1.908
50841W        W10102   8.282   3.725  14.402
50842W        W10103   4.276   3.937   0.391
50843W        W10104  32.075  13.802  13.803
50844W        W10105  10.724  36.060  12.502
50845W        W10106  28.629  34.047   1.903
50846W        W10107  37.350  25.503   3.345
50847W        W10108   0.884  24.023   0.383
50848W        W10109  22.048  13.113  11.409
50849W        W10110  18.622  39.505   0.274
50850W        W10111  14.129   0.260  14.480
50851W        W10112   4.787  28.512  13.885
50852W        W10113  28.024  11.199   2.747
50853W        W10114  28.578   2.782  10.638
50854W        W10115  26.021  30.595   4.283
50855W        W10116  33.560   0.361   0.764
50856W        W10117  37.872   5.384   3.674
50857W        W10118   5.411  34.063   4.676
50858W        W10119  25.033  12.643   1.705
50859W        W10120   9.840   3.875   4.137
50860W        W10121  12.209   6.322   1.903
50861W        W10122  24.170  32.888   3.383
50862W        W10123  10.343  29.041   3.686
50863W        W10124  20.134  42.024  14.921
50864W        W10125   0.442  23.712   1.753
50865W        W10126  30.588  41.940   9.954
50866W        W10127  31.460  15.115   0.426
50867W        W10128  34.447  24.075   1.305
50868W        W10129  28.535  31.957  10.890
50869W        W10130   4.913  44.395  14.787
50870W        W10131  25.170  12.239   0.743
50871W        W10132   7.679  42.351  10.445
50872W        W10133  17.604   3.842  14.407
50873W        W10134  33.912  18.186  10.432
50874W        W10135   2.732  20.260  13.015
50875W        W10136  20.740  17.645   0.929
50876W        W10137  29.936  42.360  12.002
50877W        W10138   3.842  32.020  12.842
50878W        W10139  27.464  25.606  11.556
50879W        W10140  11.760   1.918  12.064
50880W        W10141  21.090  10.250   5.139
50881W        W10142  34.563  13.159   2.410
50882W        W10143  17.164  17.091  11.499
50883W        W10144  27.599  24.538  11.064
50884W        W10145   9.161  40.420  12.029
50885W        W10146  44.923  19.073  12.909
50886W        W10147  23.571  22.515   0.917
50887W        W10148  10.666  41.367   0.306
50888W        W10149  36.440  25.636  14.869
50889W        W10150  11.816  30.474  14.346
50890W        W10151  22.523  21.068  11.523
50891W        W10152  36.501   9.386   4.727
50892W        W10153  18.117  30.581  14.295
50893W        W10154  33.878  24.217   0.469
50894W        W10155  34.012   3.732   4.179
50895W        W10156  18.769  30.932  10.892
50896W        W10157   9.217  23.707   3.641
50897W        W10158  44.940  27.189   4.728
50898W        W10159  14.321   7.779  13.458
50899W        W10160  32.957   9.650  13.941
50900W        W10161  17.757  33.898  10.586
50901W        W10162  23.001  24.535  13.455
50902W        W10163  12.248  42.945  14.275
50903W        W10164   1.951  38.393  10.444
50904W        W10165  24.096   3.818   0.306
50905W        W10166  43.013  21.226   4.648
50906W        W10167   7.708   8.804  13.791
50907W        W10168  23.677   3.928   3.797
50908W        W10169  26.645   7.873   3.231
50909W        W10170  38.050  10.778  12.428
50910W        W10171  35.921   4.702  14.485
50911W        W10172   7.736  24.141  14.500
50912W        W10173  30.980  13.145   0.840
50913W        W10174  15.304  23.209   4.350
50914W        W10175  26.076   1.381  10.893
50915W        W10176  23.526  40.358   3.792
50916W        W10177   4.417  18.598  13.953
50917W        W10178  44.760  14.219   2.670
50918W        W10179  14.640  15.259   0.891
50919W        W10180  25.108  20.035  14.821
50920W        W10181  29.510   0.809  10.491
50921W        W10182  11.369  35.378  13.543
50922W        W10183   4.350  31.968   4.806
50923W        W10184  11.165  25.496  12.409
50924W        W10185  41.861  39.921  12.848
50925W        W10186   9.215  38.029   3.317
50926W        W10187  41.464  13.317  10.414
50927W        W10188  37.559  23.685  10.083
50928W        W10189  41.886  27.671  13.326
50929W        W10190   9.222  37.928   4.327
50930W        W10191  37.480  15.237  12.853
50931W        W10192  11.793  31.014  10.993
50932W        W10193  25.543  20.653  11.984
50933W        W10194  13.790  20.650   1.238
50934W        W10195  18.676  18.195   4.278
50935W        W10196   8.372  43.444  12.836
50936W        W10197  26.681  34.059  12.553
50937W        W10198   5.358  10.718   1.284
50938W        W10199  39.015  35.499   0.352
50939W        W10200  35.528  35.428   2.181
50940W        W10201  21.058  32.099   1.310
50941W        W10202   9.385  32.615   4.164
50942W        W10203  36.531  16.149   0.481
50943W        W10204   0.479  12.701   0.317
50944W        W10205  19.090  38.957   3.165
50945W        W10206  42.415  15.163  11.538
50946W        W10207  31.932  42.350  10.579
50947W        W10208   4.288  34.513   0.383
50948W        W10209  22.721   3.308  14.352
50949W        W10210  20.143   0.925   2.756
50950W        W10211  36.371  24.031   0.469
50951W        W10212  32.084  19.099   4.214
50952W        W10213  38.913  26.976   0.783
50953W        W10214  35.437  13.192   2.886
50954W        W10215   9.297   0.466   3.737
50955W        W10216   7.244  27.161  14.304
50956W        W10217  18.056  22.513   2.275
50957W        W10218  20.551  12.813   2.276
50958W        W10219  14.609  25.508  13.992
50959W        W10220  42.019  11.843  13.497
50960W        W10221  41.498   9.761   3.724
50961W        W10222  14.684  18.284  13.912
50962W        W10223   9.801  22.201   3.308
50963W        W10224  41.461  27.660   4.216
50964W        W10225  35.866  36.931  14.454
50965W        W10226  32.601  13.764  10.419
50966W        W10227  29.624  16.692  10.893
50967W        W10228  23.645  14.278  12.376
50968W        W10229  17.715   8.323  13.845
50969W        W10230  29.036  13.624  10.474
50970W        W10231  21.134  31.006  12.350
50971W        W10232   8.400  40.041  12.831
50972W        W10233  13.676  37.508   0.959
50973W        W10234  38.988  35.910  11.003
50974W        W10235   2.429   2.823  11.400
50975W        W10236   8.175  40.353   2.280
50976W        W10237   5.816  23.714  10.431
50977W        W10238  25.086  20.586   3.634
50978W        W10239  31.042  30.024  11.503
50979W        W10240  24.642  44.474   2.719
50980W        W10241  44.453  13.698   1.906
50981W        W10242  23.159  15.327   3.858
50982W        W10243  31.517  44.412  14.475
50983W        W10244  24.531  13.698   0.935
50984W        W10245   4.428   9.830  11.115
50985W        W10246   0.769  32.441  11.375
50986W        W10247  30.472  41.826  14.878
50987W        W10248  28.056  28.156  14.781
50988W        W10249  17.167  40.824  14.832
50989W        W10250  16.172  22.612  11.855
50990W        W10251  23.526   3.785   1.838
50991W        W10252  20.037   0.746  13.870
50992W        W10253  10.879  32.583  13.357
50993W        W10254   5.909   3.452  12.563
50994W        W10255  21.202  16.599   1.766
50995W        W10256  29.626  11.169   2.192
50996W        W10257  33.533  44.834   0.871
50997W        W10258   6.393  33.488   0.934
50998W        W10259  43.470   3.925  11.586
50999W        W10260   7.905  24.132  12.862
51000W        W10261  41.819  21.701   3.783
51001W        W10262  29.630   8.875  13.414
51002W        W10263  27.481  39.881  11.126
51003W        W10264  37.009  22.538  13.940
51004W        W10265  14.228   3.954  14.336
51005W        W10266   6.839  22.739   0.864
51006W        W10267  16.251  43.483  14.941
51007W        W10268  41.795  24.644   0.328
51008W        W10269  18.135  39.850   4.281
51009W        W10270  38.505  19.710   1.852
51010W        W10271  21.629  42.879   5.091
51011W        W10272  28.070  34.014  13.367
51012W        W10273  23.130  22.667  14.850
51013W        W10274  41.449  15.604   9.995
51014W        W10275   9.835  26.052   2.270
51015W        W10276  34.051  34.564  10.970
51016W        W10277  24.120  35.987   4.223
51017W        W10278  24.590  29.448  13.520
51018W        W10279  38.846  23.101   4.120
51019W        W10280  43.424  35.865   5.183
51020W        W10281  33.620  30.619   5.094
51021W        W10282  42.946  24.185  14.015
51022W        W10283   4.850   9.814  14.393
51023W        W10284  13.798  26.078   0.958
51024W        W10285  13.712  29.167  12.362
51025W        W10286   6.690   1.946   4.758
51026W        W10287  23.621   7.912  13.335
51027W        W10288  38.557   2.785   3.224
51028W        W10289  28.493  25.991  11.585
51029W        W10290  28.680  19.062  10.953
51030W        W10291   6.832  44.394   2.375
51031W        W10292  14.118   9.330  14.993
51032W        W10293  13.611  43.843   1.724
51033W        W10294  29.960   5.352  14.908
51034W        W10295  35.080  41.874   0.243
51035W        W10296   2.780  18.285   0.396
51036W        W10297  24.542   7.683  14.890
51037W        W10298  26.703  15.685   2.888
51038W        W10299  14.278   2.915  13.380
51039W        W10300  33.449  31.461  14.764
51040W        W10301   3.283  12.822  14.979
51041W        W10302  42.417   6.241  13.881
51042W        W10303  22.526  10.671   3.267
51043W        W10304  20.605  30.445   1.403
51044W        W10305  32.450  22.223  10.470
51045W        W10306  35.907  10.202  10.425
51046W        W10307  36.046  13.180   5.271
51047W        W10308  13.698  12.638   3.190
51048W        W10309  37.346  30.630   3.220
51049W        W10310  41.930  15.104  13.478
51050W        W10311  41.971  38.826   0.750
51051W        W10312  42.802  12.791  12.031
51052W        W10313  12.361   0.278  14.794
51053W        W10314  36.988  22.997   1.442
51054W        W10315   0.492  23.992  13.498
51055W        W10316  35.031  31.915   0.476
51056W        W10317   7.216   2.438  13.839
51057W        W10318  17.249  34.898   0.777
51058W        W10319  37.077   6.312   4.282
51059W        W10320  29.022   7.775  12.450
51060W        W10321  26.978  34.467  11.076
51061W        W10322   8.187  37.567   3.850
51062W        W10323  14.695  13.749  12.520
51063W        W10324  38.395  10.866   3.288
51064W        W10325  24.570  28.106   1.345
51065W        W10326  12.852  37.912   4.302
51066W        W10327   3.771  19.250   3.673
51067W        W10328  26.458  33.889   3.732
51068W        W10329  24.186  16.604  10.459
51069W        W10330  33.041   6.278   1.447
51070W        W10331  35.359  13.140   1.420
51071W        W10332  28.163  17.284  14.778
51072W        W10333  33.933  26.644   4.212
51073W        W10334  35.597  36.897  12.094
51074W        W10335   8.728  25.624  14.453
51075W        W10336  20.107  28.161   5.182
51076W        W10337  10.641  20.709   0.755
51077W        W10338  12.119  36.064   3.691
51078W        W10339  12.134   0.811   0.777
51079W        W10340   9.846  36.845   0.482
51080W        W10341  16.702  21.740  11.399
51081W        W10342  25.602  12.709   1.409
51082W        W10343  28.054  32.097  14.374
51083W        W10344   1.470  13.729  12.375
51084W        W10345  31.592  38.836  14.778
51085W        W10346  31.487  41.381  11.016
51086W        W10347  31.135  27.074   4.336
51087W        W10348  38.831  42.478  11.538
51088W        W10349  40.885  34.091   4.331
51089W        W10350  21.067  22.032   0.938
51090W        W10351   9.229  19.225   3.838
51091W        W10352  32.013  34.046   2.698
51092W        W10353   0.393   3.911   4.194
51093W        W10354  18.571  10.649  13.324
51094W        W10355   7.370  33.473  13.520
51095W        W10356  33.522   0.472  12.983
51096W        W10357  21.202  16.605  11.937
51097W        W10358  29.934  10.847  13.318
51098W        W10359  11.344   1.914  13.378
51099W        W10360   4.267  40.945   0.317
51100W        W10361   4.929  19.109   2.376
51101W        W10362   5.295  20.063  13.021
51102W        W10363   8.266   7.772   2.675
51103W        W10364   4.339  36.492   1.848
51104W        W10365  44.314  17.267  14.435
51105W        W10366  35.468  30.479  12.340
51106W        W10367  33.420  44.467   3.782
51107W        W10368  40.953  33.571   4.135
51108W        W10369  13.759   5.920  10.901
51109W        W10370  12.330   1.329   4.806
51110W        W10371  33.399  30.495   1.438
51111W        W10372  42.464   4.308  10.890
51112W        W10373  44.778  28.966   0.423
51113W        W10374  42.815  37.018   2.240
51114W        W10375  16.660   4.295  10.637
51115W        W10376  11.301  42.523   1.733
51116W        W10377   4.345   3.352  13.517
51117W        W10378  26.610   5.843  14.827
51118W        W10379  12.749  13.171   1.845
51119W        W10380   0.957  42.415   0.437
51120W        W10381  14.278   7.171  11.887
51121W        W10382  39.051  35.423   4.703
51122W        W10383   4.815  22.513   0.296
51123W        W10384  40.800  43.359  13.981
51124W        W10385  33.073  18.593  10.505
51125W        W10386  44.282  39.450  13.536
51126W        W10387  44.919  10.778  10.940
51127W        W10388   0.973  20.696   3.831
51128W        W10389  35.438  24.479   3.262
51129W        W10390  34.574   6.858  12.388
51130W        W10391  31.593  30.158  12.843
51131W        W10392  44.278  42.981   3.243
51132W        W10393  12.803  27.948   9.933
51133W        W10394  32.997  29.969  11.438
51134W        W10395  27.509  13.312  10.485
51135W        W10396  38.563  43.301  13.908
51136W        W10397  17.668  38.373   0.482
51137W        W10398  15.685   8.309  14.512
51138W        W10399  37.021   4.382  13.986
51139W        W10400   1.275   2.393   1.211
51140W        W10401  16.572   0.294   1.720
51141W        W10402   5.240  16.706  14.788
51142W        W10403  39.060  32.609   0.268
51143W        W10404  37.475   8.676   0.886
51144W        W10405  29.556  31.432   0.939
51145W        W10406  23.043  16.306  13.487
51146W        W10407   4.238   3.753  14.831
51147W        W10408  14.196   0.913   5.148
51148W        W10409  44.754   3.793   3.839
51149W        W10410  35.976  13.185  13.989
51150W        W10411  40.429  39.856   3.251
51151W        W10412  25.196  36.015  11.393
51152W        W10413  28.534   1.763  11.391
51153W        W10414  29.445  27.660  10.921
51154W        W10415  26.187  33.429  13.519
51155W        W10416  27.661   9.385  11.033
51156W        W10417  18.622  12.161  14.817
51157W        W10418  27.972   0.744   3.851
51158W        W10419  18.081  22.599   3.173
51159W        W10420   2.831   1.382   1.837
51160W        W10421  36.590  25.987  14.275
51161W        W10422  21.218  43.465  12.527
51162W        W10423  40.439  36.547  14.439
51163W        W10424  23.066   1.448   1.851
51164W        W10425  28.092  17.091   9.941
51165W        W10426  23.623  19.264   1.354
51166W        W10427  24.036   6.712   3.256
51167W        W10428  23.553  32.938   2.285
51168W        W10429  38.409  12.840  13.979
51169W        W10430   6.213  10.836  14.968
51170W        W10431  18.729  40.340   0.260
51171W        W10432   7.844  44.504  12.032
51172W        W10433  15.302   1.281   0.403
51173W        W10434  11.257   2.962  12.853
51174W        W10435  37.535  25.651  13.880
51175W        W10436  23.598  44.342   1.760
51176W        W10437  23.196  11.299   3.714
51177W        W10438   7.819  30.484  11.127
51178W        W10439   5.339  16.238  13.338
51179W        W10440  19.233  29.474  11.988
51180W        W10441  25.132  21.238   3.782
51181W        W10442  41.476   7.310   0.765
51182W        W10443  32.962  33.943  11.404
51183W        W10444  40.965   0.339   0.872
51184W        W10445   1.771   6.747   1.278
51185W        W10446   0.773  17.271   4.192
51186W        W10447  19.230  14.833   0.340
51187W        W10448  22.715  13.661   4.304
51188W        W10449  33.597   3.768   1.394
51189W        W10450  40.021  27.589  13.829
51190W        W10451  37.922  10.185   4.140
51191W        W10452  36.085  33.067   2.795
51192W        W10453  16.683  26.052   0.318
51193W        W10454  15.272  30.150  14.409
51194W        W10455  15.212  40.367   2.892
51195W        W10456  20.548  12.234   2.311
51196W        W10457  43.776  13.294  11.371
51197W        W10458  27.568  33.552   3.357
51198W        W10459  24.524  31.019  13.793
51199W        W10460  38.972   4.318   2.697
51200W        W10461  21.247  26.063   0.852
51201W        W10462  33.422   5.393   0.843
51202W        W10463  42.325  28.537   2.740
51203W        W10464  43.814  35.366   1.896
51204W        W10465  43.901  30.040  13.960
51205W        W10466  32.077  44.919  13.052
51206W        W10467  10.173  41.959   0.795
51207W        W10468  23.214  34.382   2.347
51208W        W10469  12.676   9.653  12.847
51209W        W10470  25.182   2.884  14.438
51210W        W10471  11.185   9.336   2.903
51211W        W10472   2.408  28.148   9.996
51212W        W10473  33.039  26.983   4.162
51213W        W10474  23.044  33.058  14.355
51214W        W10475  19.176  28.646   2.314
51215W        W10476   1.771  17.573  11.101
51216W        W10477  23.696   8.850   3.715
51217W        W10478   6.336   8.800  12.458
51218W        W10479  14.121  31.496   0.941
51219W        W10480  42.460  13.774  13.887
51220W        W10481  43.977  32.593   0.365
51221W        W10482  12.749  19.559   4.774
51222W        W10483   4.888  20.108  12.073
51223W        W10484   4.296  36.515   0.798
51224W        W10485  30.640   1.312  11.867
51225W        W10486  20.051   8.798  10.488
51226W        W10487  22.720   6.904   1.698
51227W        W10488  44.010  18.742   0.754
51228W        W10489  33.089  19.589  12.935
51229W        W10490  14.102  31.073   2.290
51230W        W10491  25.976  27.992  13.464
51231W        W10492  16.787   7.198   3.314
51232W        W10493  41.362  14.271   1.869
51233W        W10494  11.369  26.055  11.569
51234W        W10495  32.466  10.635   3.225
51235W        W10496  33.625  17.150  10.975
51236W        W10497  14.191   6.858   1.794
51237W        W10498   2.226  13.307   4.815
51238W        W10499  25.697   8.785  11.989
51239W        W10500  41.917  22.651   1.890
51240W        W10501  14.299  20.535  11.034
51241W        W10502  40.394  39.353   2.769
51242W        W10503  35.091  26.171   4.305
51243W        W10504  22.009  17.762   4.723
51244W        W10505  41.806  33.621   3.652
51245W        W10506  14.252  34.987   0.427
51246W        W10507  39.930  39.002   0.749
51247W        W10508  17.261   2.956  13.398
51248W        W10509   8.725  22.050   0.257
51249W        W10510  35.067  23.127   1.389
51250W        W10511  11.312  10.827   0.772
51251W        W10512  26.018  28.147   3.767
51252W        W10513  41.384   8.841   4.614
51253W        W10514  22.663   9.356  12.934
51254W        W10515  37.396  40.531  12.950
51255W        W10516  10.666   3.355  14.296
51256W        W10517   9.366  30.465  13.382
51257W        W10518  16.649  14.659  14.851
51258W        W10519  20.732  42.365  10.421
51259W        W10520   3.744   7.691   4.597
51260W        W10521  11.276   3.941  12.829
51261W        W10522  10.189   0.804  14.927
51262W        W10523  35.431   6.919   1.374
51263W        W10524  11.155  18.618   1.719
51264W        W10525  20.706   3.383  11.513
51265W        W10526  39.975  41.821  13.861
51266W        W10527  28.464  36.367  14.298
51267W        W10528  41.871  32.601   4.201
51268W        W10529   3.835  43.315   2.839
51269W        W10530   4.733  15.213  10.480
51270W        W10531  11.828  32.625   3.352
51271W        W10532  24.645   6.808  13.455
51272W        W10533   3.730   1.358  13.891
51273W        W10534  10.330  40.516   3.731
51274W        W10535  27.490  30.586  14.315
51275W        W10536  21.696   6.683   4.779
51276W        W10537  43.937  19.183   0.892
51277W        W10538  24.174  19.575  14.987
51278W        W10539  26.069  19.256  11.420
51279W        W10540  35.075  15.281   4.247
51280W        W10541  40.417  37.367   0.471
51281W        W10542   3.805  14.620  13.326
51282W        W10543   5.234  36.468   1.405
51283W        W10544   0.825  11.804  13.911
51284W        W10545  24.511   7.752   0.258
51285W        W10546  30.655   7.324  13.487
51286W        W10547  12.223  10.718   1.337
51287W        W10548  26.956  29.425  11.456
51288W        W10549  33.941   9.282   0.386
51289W        W10550  14.811  12.799  12.435
51290W        W10551   5.325  32.472   1.358
51291W        W10552  21.083  24.998   0.398
51292W        W10553  16.083  41.323  11.464
51293W        W10554  12.750  40.313   0.471
51294W        W10555  13.328   5.709   4.168
51295W        W10556   1.437  17.156  12.530
51296W        W10557  24.701  14.301   2.834
51297W        W10558  37.413  40.442   5.090
51298W        W10559  28.598  44.850  10.602
51299W        W10560   8.341  35.471  10.977
51300W        W10561   2.932  24.090   1.395
51301W        W10562  16.138  41.842   2.356
51302W        W10563  33.516  38.998  10.621
51303W        W10564  20.211  34.014   0.244
51304W        W10565  29.158   9.382   0.326
51305W        W10566   4.939  40.825   1.733
51306W        W10567   3.280   1.469  12.894
51307W        W10568  32.441   5.316  11.972
51308W        W10569   3.309  38.042  11.053
51309W        W10570  28.507  29.432   2.852
51310W        W10571  39.818  38.820   1.406
51311W        W10572   3.939  12.732  11.573
51312W        W10573  31.409  36.864   1.271
51313W        W10574  38.048  11.832   1.435
51314W        W10575   6.835  25.476  13.984
51315W        W10576  19.057  40.419   1.302
51316W        W10577   1.251  28.132   2.713
51317W        W10578  43.400  39.878   4.163
51318W        W10579  15.185  42.463  10.997
51319W        W10580  36.527  20.156   3.750
51320W        W10581  43.422   1.475  11.437
51321W        W10582  24.707  18.667  12.522
51322W        W10583  37.410  34.560   0.844
51323W        W10584  29.147  17.249  14.842
51324W        W10585   7.396   7.702  10.427
51325W        W10586   6.225  26.014  14.290
51326W        W10587  13.747  20.635  11.984
51327W        W10588  12.690  16.648   2.755
51328W        W10589  27.510  31.003   0.385
51329W        W10590   3.456  11.354  12.555
51330W        W10591  35.372  20.690   0.303
51331W        W10592  44.478  22.619   3.644
51332W        W10593   8.350  44.819  13.963
51333W        W10594  18.593  38.026  13.022
51334W        W10595  36.016  40.493  14.948
51335W        W10596  27.998  35.478  14.797
51336W        W10597   0.836  27.607   1.886
51337W        W10598  12.823  33.962   1.925
51338W        W10599  36.038  26.696   0.928
51339W        W10600  30.041  33.430   3.747
51340W        W10601  28.948  42.826   3.824
51341W        W10602  37.455   6.422   0.340
51342W        W10603   6.358  38.962  10.149
51343W        W10604  12.631  40.797   2.685
51344W        W10605  32.516  16.770   0.361
51345W        W10606  15.578  11.200   0.836
51346W        W10607  44.458  28.945   4.809
51347W        W10608  23.152  34.912   3.632
51348W        W10609  42.873  20.768   1.434
51349W        W10610  42.357  40.819  11.485
51350W        W10611  21.561  28.598   4.114
51351W        W10612   5.778  15.323  13.807
51352W        W10613  32.545  38.558  13.495
51353W        W10614  21.653   0.974   2.398
51354W        W10615  27.982  26.110  11.451
51355W        W10616  19.103  29.974   0.338
51356W        W10617  29.030  36.991   2.786
51357W        W10618  42.376   0.431  13.368
51358W        W10619  12.798  32.982   2.844
51359W        W10620  19.680  30.483   2.293
51360W        W10621  27.107   2.463   0.462
51361W        W10622  31.033  36.890   1.299
51362W        W10623  39.940  21.130  14.383
51363W        W10624   7.904  40.337   4.152
51364W        W10625  24.036  19.706   2.744
51365W        W10626  35.053  19.597  11.464
51366W        W10627   6.247  17.606   4.804
51367W        W10628   3.332   0.264  12.368
51368W        W10629  43.392  19.774   0.949
51369W        W10630  42.968  44.904  11.429
51370W        W10631  29.555  23.561   2.416
51371W        W10632  31.580  28.960   3.255
51372W        W10633   6.868  21.570  10.895
51373W        W10634  27.109  15.616  11.089
51374W        W10635  43.451  25.999   2.755
51375W        W10636  23.725  16.165  12.383
51376W        W10637  44.401  39.893   1.847
51377W        W10638   0.828  28.491   2.252
51378W        W10639  10.877   7.407  12.010
51379W        W10640  13.202   0.356  13.418
51380W        W10641   4.774   6.261  14.990
51381W        W10642  35.495  33.485  10.489
51382W        W10643  21.195  25.076   3.702
51383W        W10644  32.589   4.429  14.356
51384W        W10645  15.673  44.332   2.321
51385W        W10646  39.391   7.321   2.801
51386W        W10647  18.619   5.305   3.785
51387W        W10648  44.391  16.105  14.884
51388W        W10649  29.504  24.130   5.104
51389W        W10650  13.334   0.797  11.863
51390W        W10651  37.077   1.312   2.762
51391W        W10652  15.236  30.090   0.308
51392W        W10653  29.031  41.448   2.886
51393W        W10654   3.366  16.652  13.395
51394W        W10655  29.605  12.733  13.472
51395W        W10656  34.503  29.130   4.754
51396W        W10657  16.246  20.612  14.446
51397W        W10658  13.253  42.837   1.277
51398W        W10659  37.426   8.891  11.016
51399W        W10660   6.875  39.410  11.056
51400W        W10661   9.380  33.876   2.188
51401W        W10662  29.010  19.089  11.109
51402W        W10663  13.283  11.769   0.408
51403W        W10664  23.719   5.907   3.832
51404W        W10665  21.086  22.585  12.378
51405W        W10666  18.056  13.802   0.839
51406W        W10667  22.204   0.788   3.283
51407W        W10668   3.308  36.053  12.894
51408W        W10669  20.221  20.763  12.494
51409W        W10670  12.668  24.519   4.803
51410W        W10671   4.350  19.695   3.354
51411W        W10672   9.747  37.535  10.913
51412W        W10673   7.736  11.322   0.400
51413W        W10674  20.210   3.439  14.441
51414W        W10675  35.021  12.190  14.437
51415W        W10676  29.110  34.864   2.868
51416W        W10677   8.390   4.762  10.541
51417W        W10678  40.945  16.241  14.356
51418W        W10679   1.830  25.688  12.019
51419W        W10680  29.459  15.738  10.406
51420W        W10681  41.368  24.574   4.707
51421W        W10682  35.096  15.236   5.239
51422W        W10683  30.995   8.757   1.338
51423W        W10684  16.622  17.581  12.340
51424W        W10685   7.873  15.663  10.573
51425W        W10686  20.048  22.034  13.464
51426W        W10687  25.628  17.648   2.769
51427W        W10688   6.278   9.346  10.439
51428W        W10689  13.649  26.523  12.859
51429W        W10690   5.361  31.032   4.347
51430W        W10691   6.394  34.401  14.468
51431W        W10692  19.556  38.554   2.841
51432W        W10693   1.909  29.052   1.415
51433W        W10694   3.956  16.808  12.544
51434W        W10695  44.976  39.847   4.734
51435W        W10696  25.997  38.989  13.038
51436W        W10697  28.586  34.413   0.939
51437W        W10698  38.553   9.663  14.858
51438W        W10699   4.356  15.778  10.622
51439W        W10700  32.993   0.873  12.006
51440W        W10701  18.663   6.855  12.017
51441W        W10702  21.023  26.494   2.672
51442W        W10703  39.030  28.930   0.434
51443W        W10704  31.916   0.341   4.789
51444W        W10705  38.503  10.244  14.476
51445W        W10706   7.288  30.557  11.029
51446W        W10707  22.661  15.658  14.023
51447W        W10708  26.586  27.093  11.995
51448W        W10709   7.912  23.113  12.841
51449W        W10710  35.965  24.621  10.635
51450W        W10711  37.359  40.409   0.858
51451W        W10712   5.826   7.378  11.559
51452W        W10713  40.798   0.305   1.880
51453W        W10714  32.553  37.863   2.696
51454W        W10715  41.965  21.673   1.894
51455W        W10716   2.782   5.234  12.932
51456W        W10717  13.334   3.448   0.242
51457W        W10718  24.199  37.874  14.907
51458W        W10719   2.832  26.634   4.600
51459W        W10720   9.670   1.423   2.843
51460W        W10721  31.143  21.742   2.820
51461W        W10722   5.281  17.725  11.573
51462W        W10723  15.586  34.558  10.619
51463W        W10724  25.981  37.025  13.932
51464W        W10725  32.029  38.997   1.868
51465W        W10726  31.043  33.518  11.432
51466W        W10727  42.858  16.155  11.520
51467W        W10728   1.471  36.037   3.698
51468W        W10729  19.685   7.810  10.421
51469W        W10730  10.344  26.120   3.313
51470W        W10731   7.355  29.519   1.887
51471W        W10732  12.651  24.618   1.913
51472W        W10733  13.743  25.489   2.757
51473W        W10734  23.582  39.051   3.154
51474W        W10735  32.563  41.900  11.953
51475W        W10736  41.368   9.219   2.323
51476W        W10737   5.908  36.026   3.190
51477W        W10738  33.405  36.476  10.507
51478W        W10739  22.069   3.802   4.644
51479W        W10740   8.322   3.726   1.915
51480W        W10741   3.421   9.171   5.086
51481W        W10742  40.829  20.756   4.258
51482W        W10743  30.916  28.974   2.802
51483W        W10744   4.259  17.096   1.213
51484W        W10745   9.884  13.202  11.591
51485W        W10746  24.153  30.488  13.864
51486W        W10747   9.345  16.304  13.465
51487W        W10748  39.976   3.217  11.073
51488W        W10749  26.976  17.186   0.753
51489W        W10750  27.537   2.409  10.487
51490W        W10751   4.758  12.647  11.070
51491W        W10752  20.040  12.252   4.760
51492W        W10753   6.919  42.450   0.811
51493W        W10754  36.980   6.256   4.804
51494W        W10755   1.894  23.082   1.890
51495W        W10756  34.039  12.238  14.804
51496W        W10757   5.365   1.942  12.017
51497W        W10758  18.577  36.847   1.881
51498W        W10759   9.162  34.530  14.784
51499W        W10760  19.672   8.371   3.637
51500W        W10761  44.328  44.829  12.973
51501W        W10762  35.948  40.529   0.828
51502W        W10763   5.773  17.297  13.812
51503W        W10764  32.478  32.580  12.080
51504W        W10765  34.466  20.085  12.910
51505W        W10766  39.903  28.589  10.979
51506W        W10767  15.113  18.169   3.363
51507W        W10768  13.726  36.854  13.310
51508W        W10769  27.951  28.961  11.454
51509W        W10770  14.120  22.545  13.403
51510W        W10771   4.724  41.019  10.464
51511W        W10772  44.980  14.327   5.173
51512W        W10773  34.059   3.750   0.866
51513W        W10774  31.562   6.289  11.903
51514W        W10775  23.570  18.053   2.811
51515W        W10776  15.196   2.419  12.851
51516W        W10777  18.281  14.163  14.480
51517W        W10778  35.454   9.212  14.417
51518W        W10779  31.498  32.940  11.988
51519W        W10780  28.547  26.138  11.963
51520W        W10781  28.944   6.275  11.083
51521W        W10782   8.327  40.027  14.993
51522W        W10783   5.747   5.276  12.439
51523W        W10784  13.276  31.140  12.396
51524W        W10785  30.554  14.683   2.723
51525W        W10786  27.000  36.381  10.021
51526W        W10787  27.970  40.342   2.832
51527W        W10788  43.938  41.006   0.790
51528W        W10789  18.271  18.239  14.292
51529W        W10790  32.118  17.561   3.635
51530W        W10791  19.267  40.994  13.048
51531W        W10792  37.545  29.117   1.924
51532W        W10793  12.274  37.875   4.212
51533W        W10794   2.399  32.625   0.737
51534W        W10795  19.061  10.148  10.631
51535W        W10796  35.444  41.899   0.305
51536W        W10797  44.435  44.796  12.492
51537W        W10798  28.998  15.620   3.844
51538W        W10799   5.235   8.311  14.341
51539W        W10800  28.946   7.889   3.203
51540W        W10801  31.129  37.858  11.569
51541W        W10802   0.766  25.991   3.379
51542W        W10803  27.951   2.451   2.712
51543W        W10804  25.690   7.852   3.288
51544W        W10805  42.835  28.134  10.971
51545W        W10806  40.929  30.580  14.429
51546W        W10807  34.422  40.958   0.447
51547W        W10808   8.285  12.818  12.052
51548W        W10809  36.381  17.259   3.868
51549W        W10810  18.634  12.623  12.950
51550W        W10811  15.670   1.907   3.288
51551W        W10812  19.164   8.388   2.741
51552W        W10813   2.417   7.881  11.002
51553W        W10814  18.295  35.362   3.700
51554W        W10815   3.890  42.966  11.412
51555W        W10816  25.989   8.788   1.696
51556W        W10817  15.598  16.583   0.732
51557W        W10818  23.992  44.382   0.842
51558W        W10819  35.572  27.453   4.729
51559W        W10820   2.403  27.194   0.377
51560W        W10821  43.282  15.276  14.286
51561W        W10822  23.013  35.524  14.890
51562W        W10823  18.550  32.502   2.715
51563W        W10824  24.513  25.035  12.483
51564W        W10825  28.679  17.661  11.596
51565W        W10826  44.457  31.064   1.225
51566W        W10827   3.293  12.843  10.081
51567W        W10828  23.649   1.856   1.887
51568W        W10829   2.375  16.195   0.967
51569W        W10830   9.743   7.686  14.993
51570W        W10831  11.648  26.688   4.207
51571W        W10832  16.123  44.825  11.889
51572W        W10833  12.353  40.982   2.739
51573W        W10834  43.394  23.019   0.406
51574W        W10835  37.346  17.288   3.318
51575W        W10836   9.721  44.413  11.107
51576W        W10837  11.183  12.750   2.213
51577W        W10838  22.650  42.882  12.447
51578W        W10839  23.140  25.494  14.889
51579W        W10840  23.722  32.532   0.302
51580W        W10841  27.112  25.655  13.011
51581W        W10842   4.708  40.394   0.893
51582W        W10843   2.749  35.093  12.990
51583W        W10844  19.599  13.662   0.389
51584W        W10845  17.717  36.844  12.870
51585W        W10846  15.121  27.513  11.960
51586W        W10847  16.080  39.384  13.824
51587W        W10848   0.351   5.370   1.228
51588W        W10849  20.598  23.075  11.983
51589W        W10850  42.415  33.968   0.307
51590W        W10851  24.076  25.595  11.862
51591W        W10852  13.178  29.153  10.407
51592W        W10853  36.390  10.233   0.886
51593W        W10854  16.650  23.540   2.707
51594W        W10855  41.017   6.886   0.360
51595W        W10856  32.416  13.834  13.331
51596W        W10857  28.454   3.237   2.734
51597W        W10858  13.209  33.961   4.308
51598W        W10859  21.162   7.807  14.460
51599W        W10860  38.506  23.615   0.765
51600W        W10861  17.185  26.661  14.997
51601W        W10862  42.861   3.261   2.417
51602W        W10863   4.258  22.572   2.179
51603W        W10864  44.962  21.560  11.974
51604W        W10865  36.425   6.711  12.066
51605W        W10866  17.590  35.550   0.366
51606W        W10867  43.983   8.340  11.047
51607W        W10868  23.726  28.169  13.537
51608W        W10869  26.975  10.768  11.923
51609W        W10870  20.576  40.863  10.907
51610W        W10871  30.026  28.518   3.838
51611W        W10872   7.696  27.578  13.044
51612W        W10873  29.488  39.492   1.273
51613W        W10874  44.276   8.257   2.204
51614W        W10875  27.991  37.343   4.129
51615W        W10876  33.915   8.228   3.155
51616W        W10877  44.463   1.830   1.767
51617W        W10878  36.415  39.990  13.016
51618W        W10879  30.951   9.689   3.646
51619W        W10880  35.109  42.478   0.261
51620W        W10881  33.040  24.504  14.504
51621W        W10882  44.394  30.553  12.892
51622W        W10883  42.403   1.923   2.295
51623W        W10884   2.934  13.281   4.793
51624W        W10885  41.795   0.355   0.810
51625W        W10886  32.517  17.081   3.634
51626W        W10887  16.666  16.242  12.410
51627W        W10888  36.002  32.977   5.111
51628W        W10889  27.197  35.867  11.593
51629W        W10890  29.605  10.311   4.263
51630W        W10891   5.256  36.004   4.678
51631W        W10892  22.734  11.686  11.129
51632W        W10893  34.430   0.493   3.812
51633W        W10894  12.312  22.664  14.016
51634W        W10895  43.798   8.286  12.524
51635W        W10896   8.370  16.703   3.840
51636W        W10897  40.900  35.496  13.466
51637W        W10898  13.230  12.117  14.449
51638W        W10899  13.654  12.820   9.991
51639W        W10900  23.586  17.740  12.429
51640W        W10901   4.336   2.732  13.024
51641W        W10902   5.811  32.429  14.931
51642W        W10903  11.254  24.105  12.863
51643W        W10904  14.331  33.130   2.366
51644W        W10905  28.645  41.897  14.763
51645W        W10906  35.033   3.378  12.518
51646W        W10907  27.189  23.170  14.510
51647W        W10908  38.027  33.383  13.923
51648W        W10909  23.045  38.478  12.432
51649W        W10910  40.534  27.616  14.490
51650W        W10911  20.039  42.484   1.346
51651W        W10912  17.168  12.615   3.664
51652W        W10913  28.475   6.201  11.558
51653W        W10914  20.226  31.489   2.415
51654W        W10915  27.648   8.241  12.969
51655W        W10916   6.861   7.387   5.212
51656W        W10917   5.214  17.787  12.358
51657W        W10918  19.778  28.115   1.882
51658W        W10919  30.486  19.662   2.230
51659W        W10920   0.913  37.397   4.231
51660W        W10921  26.487   8.772   3.845
51661W        W10922  22.090  33.045   1.383
51662W        W10923   6.333  14.110   4.682
51663W        W10924  37.885  25.005  11.887
51664W        W10925  26.065  38.983  11.390
51665W        W10926   3.762  23.632   4.634
51666W        W10927   4.408  40.927  10.409
51667W        W10928   4.209  18.781   1.291
51668W        W10929  31.482  26.694  11.045
51669W        W10930  31.130  41.968   4.265
51670W        W10931  24.219  43.827   0.331
51671W        W10932  36.890   1.431  14.875
51672W        W10933  19.614  28.992  12.035
51673W        W10934  31.613  37.058   4.159
51674W        W10935  26.662  13.701  11.068
51675W        W10936  27.672  31.071   1.445
51676W        W10937  35.858  30.144  11.902
51677W        W10938  27.996  41.339   4.162
51678W        W10939   9.252  20.133   0.292
51679W        W10940  14.251  29.108   3.674
51680W        W10941  14.676  24.568  13.335
51681W        W10942  27.994  28.458   2.271
51682W        W10943  15.122  20.694   2.827
51683W        W10944  43.402  41.984  14.900
51684W        W10945  42.459  33.899   3.860
51685W        W10946   5.213  44.813   0.390
51686W        W10947   9.186  10.826   0.329
51687W        W10948  11.141  13.644   3.306
51688W        W10949  12.193  34.971  12.963
51689W        W10950  34.081  43.931   4.161
51690W        W10951  16.750  32.566  14.001
51691W        W10952   9.815  32.083  14.781
51692W        W10953  26.592   4.220  14.295
51693W        W10954  26.965  24.214  14.993
51694W        W10955   2.247  31.455   4.711
51695W        W10956  30.005  12.283  14.956
51696W        W10957  40.432  14.642   2.675
51697W        W10958  33.918  35.372  13.368
51698W        W10959  36.399  23.530  10.152
51699W        W10960  28.650  19.675   1.930
51700W        W10961  19.658   6.413  11.085
51701W        W10962  10.672  22.641  11.882
51702W        W10963   3.801  31.474   3.663
51703W        W10964  16.806  41.006   3.382
51704W        W10965   2.835   5.799   0.827
51705W        W10966  42.390  22.020  13.028
51706W        W10967  43.336  19.132   2.233
51707W        W10968  25.199  37.939  10.589
51708W        W10969  15.220   6.799  11.414
51709W        W10970  33.588  37.878   1.423
51710W        W10971  22.244   1.443   1.800
51711W        W10972   7.205  10.244  14.393
51712W        W10973  14.735  24.641  11.527
51713W        W10974  28.963  17.119   0.246
51714W        W10975   5.738  28.498   2.856
51715W        W10976  12.622   9.840  13.433
51716W        W10977  35.553  36.470  13.340
51717W        W10978  19.252  18.113  11.080
51718W        W10979  10.715  22.086   4.187
51719W        W10980  30.489  17.207   0.831
51720W        W10981  18.187  43.970  12.565
51721W        W10982  43.855  43.805  12.439
51722W        W10983  38.338  11.753  10.921
51723W        W10984  20.735  37.351   3.720
51724W        W10985  40.853  31.609   3.341
51725W        W10986   3.905  27.590   2.693
51726W        W10987   3.782   5.695   2.382
51727W        W10988  40.385  39.937   0.821
51728W        W10989  29.521   6.264  12.931
51729W        W10990   9.239  25.169  12.484
51730W        W10991  42.305  12.669  14.850
51731W        W10992  12.124   7.826   4.285
51732W        W10993  25.107  44.908   0.340
51733W        W10994  36.559  34.509  10.487
51734W        W10995  34.091  24.654  11.956
51735W        W10996  38.967  11.845   3.778
51736W        W10997  41.856  40.526  12.491
51737W        W10998  33.032  14.165  13.874
51738W        W10999  43.847  16.664  10.419
51739W        W11000  30.623   8.382  13.021
51740W        W11001  28.998   4.741   2.372
51741W        W11002  30.968  33.928  13.967
51742W        W11003  33.071  43.341  11.881
51743W        W11004  32.561  39.959   2.323
51744W        W11005  26.111  19.152  11.904
51745W        W11006  40.837  31.933   0.477
51746W        W11007  42.010  12.845   1.800
51747W        W11008  44.876  15.597   3.313
51748W        W11009  25.991  35.109   1.702
51749W        W11010   9.205  43.472  11.001
51750W        W11011  19.623  31.002   2.213
51751W        W11012  27.989  29.577   2.204
51752W        W11013  25.582  19.268   2.190
51753W        W11014  24.033  23.097  11.886
51754W        W11015  41.807  14.699   0.470
51755W        W11016  10.647   1.761  12.503
51756W        W11017  16.086  23.507   0.283
51757W        W11018  36.511  16.679  14.011
51758W        W11019  10.633  18.759   3.734
51759W        W11020   5.419  29.583  10.413
51760W        W11021  20.638  16.587  12.353
51761W        W11022   6.812  39.928  13.986
51762W        W11023  33.522   5.271  12.987
51763W        W11024  44.820  36.916  11.403
51764W        W11025  28.183  35.080  14.859
51765W        W11026  14.314  41.958   2.354
51766W        W11027   0.849  35.943   3.271
51767W        W11028  41.996   5.875   3.299
51768W        W11029   2.343   9.695   0.321
51769W        W11030  29.575  24.091   2.845
51770W        W11031  16.212  32.469  13.403
51771W        W11032  28.085  43.293  11.979
51772W        W11033  42.869  21.241   5.135
51773W        W11034  27.942  15.233   4.609
51774W        W11035  38.402  14.821  10.960
51775W        W11036  43.852  31.977   2.865
51776W        W11037  26.606   2.798   3.734
51777W        W11038   5.712  31.592   0.949
51778W        W11039  34.560  44.885   4.170
51779W        W11040  10.721  35.544  12.017
51780W        W11041  22.069  23.065   1.729
51781W        W11042  11.623  17.165   4.288
51782W        W11043  22.097  27.195  11.881
51783W        W11044  18.054  16.131   4.246
51784W        W11045  18.752  30.050  12.982
51785W        W11046  13.237  40.457  14.421
51786W        W11047   7.811   2.906  10.428
51787W        W11048  27.000  21.628  11.980
51788W        W11049   3.891  43.009  13.021
51789W        W11050  16.271  15.203   0.897
51790W        W11051  42.888  22.071  13.318
51791W        W11052  28.175   2.460  13.352
51792W        W11053   0.431  31.071   3.310
51793W        W11054  37.495   4.216   3.214
51794W        W11055   6.827  23.145   0.819
51795W        W11056  42.499  12.162   4.690
51796W        W11057   0.345  21.111   0.409
51797W        W11058   4.358   0.355   3.170
51798W        W11059   0.446  16.258  14.822
51799W        W11060  31.543  21.657  11.385
51800W        W11061  13.727  24.632   0.821
51801W        W11062  30.555  13.316  14.931
51802W        W11063  35.402  26.551   0.336
51803W        W11064   9.850  16.675  14.911
51804W        W11065   0.258  18.236  14.902
51805W        W11066  28.984  36.985  12.482
51806W        W11067  24.110  13.123   3.188
51807W        W11068  15.149  40.893   0.966
51808W        W11069   8.357   1.430  12.957
51809W        W11070  26.487   9.828  13.460
51810W        W11071  18.723  41.427   0.859
51811W        W11072  18.183  10.798  10.519
51812W        W11073  36.965  41.833  10.551
51813W        W11074  32.552   6.723   4.293
51814W        W11075   2.815  38.834  11.077
51815W        W11076   7.721  23.098   3.850
51816W        W11077  15.613  22.140   2.678
51817W        W11078  42.808  35.939   3.708
51818W        W11079   1.776  30.986   5.231
51819W        W11080  29.129  34.438  13.869
51820W        W11081  29.485  42.918   0.847
51821W        W11082  32.954  29.453  12.955
51822W        W11083  17.657  26.179  12.465
51823W        W11084   5.787  21.227  14.904
51824W        W11085   4.417   2.826   3.703
51825W        W11086   0.333  28.073   0.425
51826W        W11087  32.473  33.011  14.825
51827W        W11088  33.486  23.730  10.417
51828W        W11089  35.389   5.286  11.908
51829W        W11090  18.284  44.009   2.892
51830W        W11091  19.596   6.424   2.194
51831W        W11092  15.766  25.058  14.788
51832W        W11093  27.659  17.712  12.062
51833W        W11094  31.515  24.092  12.828
51834W        W11095  15.326  35.389  11.606
51835W        W11096  33.538  37.885  11.949
51836W        W11097  32.503   6.914  10.977
51837W        W11098  10.365   0.342  14.390
51838W        W11099  31.495  39.531   1.853
51839W        W11100  21.720  43.777  11.515
51840W        W11101   0.852  35.431   2.755
51841W        W11102  40.874  26.565  13.511
51842W        W11103   7.780  10.178   2.801
51843W        W11104  35.469   0.369   2.691
51844W        W11105  41.844   7.264   2.786
51845W        W11106   2.934  30.539   4.725
51846W        W11107   6.310   7.178  10.586
51847W        W11108  40.903  11.240   4.326
51848W        W11109  44.267  32.116   0.377
51849W        W11110  29.600  14.097   3.229
51850W        W11111  44.412   6.826  14.470
51851W        W11112  36.370  24.129  13.470
51852W        W11113  25.179  11.369   3.814
51853W        W11114   9.754  25.607   4.696
51854W        W11115  39.829  32.043  14.897
51855W        W11116  30.978  19.214   3.644
51856W        W11117  34.914  35.054  12.560
51857W        W11118  33.999  36.956   2.833
51858W        W11119  44.967  22.636   0.932
51859W        W11120   9.729  25.167   4.288
51860W        W11121  38.420   0.310  11.986
51861W        W11122  28.956  29.083   3.343
51862W        W11123  31.643  25.173   2.247
51863W        W11124  25.120  41.962   0.904
51864W        W11125  17.231  11.166   1.424
51865W        W11126  42.466  41.419  14.885
51866W        W11127  16.567  13.617  10.920
51867W        W11128  27.610  11.154  13.027
51868W        W11129  19.732  13.271   4.741
51869W        W11130  26.650  43.924   0.767
51870W        W11131  32.513   9.168  14.820
51871W        W11132  12.122   8.182  12.897
51872W        W11133  12.817   7.751   5.202
51873W        W11134  12.734  23.061   3.262
51874W        W11135   4.772  10.260   2.819
51875W        W11136  33.900  17.711  13.015
51876W        W11137  22.133  15.599   4.136
51877W        W11138  16.753  39.338   3.312
51878W        W11139  32.897  42.876  11.954
51879W        W11140  19.212  40.885  14.978
51880W        W11141  31.133  42.826   2.397
51881W        W11142  16.719  31.036  12.996
51882W        W11143   3.442  12.689  13.506
51883W        W11144  10.304  17.188  13.490
51884W        W11145  27.685  42.418  12.996
51885W        W11146  18.643   8.656   2.336
51886W        W11147  24.984  40.355  12.850
51887W        W11148   5.766  32.395   2.719
51888W        W11149  27.003  37.846  14.443
51889W        W11150  15.765  21.017   0.369
51890W        W11151  41.006  40.958  13.020
51891W        W11152   7.709  37.421  11.037
51892W        W11153   5.738   9.169   0.348
51893W        W11154  27.502  10.745  14.994
51894W        W11155  36.066  16.669  11.604
51895W        W11156  28.995   3.353   4.202
51896W        W11157  29.585  14.640  10.543
51897W        W11158  38.982   8.873  10.622
51898W        W11159  42.395   8.813  10.997
51899W        W11160  10.651   2.775   9.938
51900W        W11161  15.694  31.428  11.898
51901W        W11162  26.563  13.304   2.319
51902W        W11163  31.422  32.034  11.006
51903W        W11164  17.272  34.397  14.974
51904W        W11165  41.368  37.978  12.471
51905W        W11166  10.740  16.115   2.759
51906W        W11167   8.745  10.736  14.461
51907W        W11168  31.945  14.645  14.922
51908W        W11169  28.537  23.226  11.029
51909W        W11170  42.288  20.141  13.957
51910W        W11171  33.394  13.689   3.751
51911W        W11172  24.720  28.513   1.726
51912W        W11173  33.924   8.725  14.911
51913W        W11174   3.288  30.085  11.856
51914W        W11175  41.444  29.941  10.476
51915W        W11176  34.397   0.325  12.006
51916W        W11177  27.139  18.634  10.591
51917W        W11178  22.564  22.095   0.430
51918W        W11179   4.800  12.302   2.738
51919W        W11180   3.768  27.631  14.934
51920W        W11181  40.027   2.947  11.952
51921W        W11182  31.561  20.687   2.871
51922W        W11183  26.071   4.366  14.816
51923W        W11184  44.349  22.676  13.367
51924W        W11185  18.198  14.764  13.310
51925W        W11186  14.243   5.362  14.325
51926W        W11187  18.718   8.406  13.431
51927W        W11188   5.224  37.016  11.506
51928W        W11189  14.257  18.054  11.966
51929W        W11190   5.354  24.553  14.476
51930W        W11191  14.625   4.390  13.806
51931W        W11192  16.245  41.809   0.423
51932W        W11193   4.316  31.626  10.480
51933W        W11194  20.206  19.550  12.015
51934W        W11195  10.875  21.063   2.400
51935W        W11196  19.221  10.309  11.533
51936W        W11197  18.581  32.928   1.390
51937W        W11198  14.637  19.666   0.331
51938W        W11199  31.608  34.455  14.402
51939W        W11200  33.494  36.499  12.854
51940W        W11201  36.048   9.851   3.791
51941W        W11202  35.023  11.746  13.810
51942W        W11203  41.412  32.444   2.709
51943W        W11204  16.751  39.511   1.426
51944W        W11205  32.519   8.663  14.356
51945W        W11206   5.360  38.073  12.515
51946W        W11207   4.401  23.675   1.857
51947W        W11208   7.897  19.275  14.350
51948W        W11209  27.603  19.211  12.407
51949W        W11210  33.614  34.004   2.830
51950W        W11211  29.085   6.338  12.490
51951W        W11212  34.449   3.375   4.753
51952W        W11213  10.696  18.263  11.604
51953W        W11214  44.807  33.576  11.434
51954W        W11215  38.542  31.902  12.347
51955W        W11216  36.528  40.996   0.416
51956W        W11217  37.442  37.943  11.978
51957W        W11218   9.259  24.020   1.403
51958W        W11219  40.518  36.869   1.739
51959W        W11220  27.481  17.675   0.824
51960W        W11221  12.638   4.430   1.875
51961W        W11222  24.088   6.209  10.423
51962W        W11223  30.094  13.707   1.395
51963W        W11224  43.013  12.288  14.808
51964W        W11225  16.248  32.564  11.972
51965W        W11226  12.338  15.092  14.419
51966W        W11227  37.886   4.724  12.574
51967W        W11228   5.403  21.222  13.793
51968W        W11229  21.648  21.558  10.541
51969W        W11230  32.918  29.166   4.785
51970W        W11231  23.517  29.454   4.781
51971W        W11232   8.672  23.645  13.791
51972W        W11233  13.651  13.326   0.883
51973W        W11234  29.952   4.389   0.470
51974W        W11235   4.886  26.037  11.038
51975W        W11236  25.684   0.887   3.169
51976W        W11237  22.136  35.500  13.801
51977W        W11238   8.803  10.867  12.039
51978W        W11239   6.273  44.358  13.038
51979W        W11240  36.944  11.187   3.376
51980W        W11241  18.630  11.150   0.736
51981W        W11242   0.410   8.871  10.479
51982W        W11243  44.389  25.979   0.927
51983W        W11244  19.071  39.982  14.319
51984W        W11245  39.014  44.809  11.478
51985W        W11246  20.247  33.906  14.388
51986W        W11247  27.615  28.611   2.683
51987W        W11248  13.216  11.310  13.024
51988W        W11249  28.154  28.090  12.002
51989W        W11250  30.099  13.264   4.198
51990W        W11251  43.021  32.415   4.713
51991W        W11252  31.031  14.332  11.088
51992W        W11253   6.322   2.808   0.421
51993W        W11254  44.500  38.986   2.328
51994W        W11255  12.656  39.502  11.039
51995W        W11256  38.404   3.712   3.778
51996W        W11257   5.923   4.864  13.859
51997W        W11258  36.937  39.543   1.377
51998W        W11259  33.126  31.521   4.673
51999W        W11260  23.591  19.701  14.918
52000W        W11261  15.578   1.882  12.531
52001W        W11262   0.780  31.567   2.386
52002W        W11263  27.075   1.300  11.523
52003W        W11264  24.202  13.313   0.275
52004W        W11265  17.271  28.940   1.434
52005W        W11266  16.604  42.851   3.853
52006W        W11267  28.528  42.512  12.987
52007W        W11268  11.698  42.514   3.860
52008W        W11269  26.544  12.666   3.867
52009W        W11270  19.272  37.846  10.949
52010W        W11271   8.185  15.702  11.573
52011W        W11272  16.647  32.004   3.301
52012W        W11273  37.037  14.242  10.441
52013W        W11274  35.951  41.028   2.860
52014W        W11275  28.100   3.325  14.823
52015W        W11276  12.243  11.263   1.821
52016W        W11277  31.119  10.646  11.923
52017W        W11278  26.106   8.800  11.383
52018W        W11279   6.903  44.449   2.677
52019W        W11280  14.096  40.349  14.509
52020W        W11281  41.378   8.391   4.753
52021W        W11282  31.604  19.667   4.118
52022W        W11283  38.000  17.759   0.449
52023W        W11284   7.189  36.593   4.614
52024W        W11285  26.976  42.777  11.444
52025W        W11286  33.020  20.619   4.270
52026W        W11287  26.165  18.753  11.400
52027W        W11288  10.318  42.344  12.349
52028W        W11289  38.895  21.578   2.395
52029W        W11290  40.479  25.582   2.287
52030W        W11291  18.706  23.536  12.881
52031W        W11292  42.937  39.036   5.233
52032W        W11293  24.025   8.793   4.166
52033W        W11294  43.499  27.027  12.064
52034W        W11295  29.935  29.153  10.495
52035W        W11296  10.139   2.796   4.786
52036W        W11297  30.578   3.409   3.680
52037W        W11298  20.271  30.022   1.767
52038W        W11299  29.967  23.602  12.033
52039W        W11300   8.307   6.809   2.333
52040W        W11301  33.452   6.732   1.803
52041W        W11302   7.388  39.435   0.324
52042W        W11303  28.442  23.664   2.845
52043W        W11304  23.104  37.366  12.969
52044W        W11305  11.256  10.822   3.633
52045W        W11306  17.685  14.139   1.407
52046W        W11307  43.367  42.453   2.286
52047W        W11308  19.039  12.647   4.812
52048W        W11309   9.196   9.718  11.409
52049W        W11310  27.551  12.647   4.132
52050W        W11311  26.654   2.234   4.696
52051W        W11312  29.666  44.995  11.856
52052W        W11313  39.872   7.828  14.856
52053W        W11314  26.542   8.295  14.941
52054W        W11315  42.471   4.808   0.346
52055W        W11316  15.144  32.929  11.481
52056W        W11317  21.042  24.997   4.202
52057W        W11318   3.868   2.296  14.994
52058W        W11319  35.496  35.036  10.475
52059W        W11320  41.964  40.036  14.954
52060W        W11321  39.478   4.832   1.372
52061W        W11322  10.303  12.618  14.428
52062W        W11323   7.821  19.710   1.777
52063W        W11324   0.479   4.345  13.884
52064W        W11325  36.955   8.228   4.129
52065W        W11326  12.630  19.690  11.892
52066W        W11327  27.498  40.373  13.990
52067W        W11328  42.319  16.663  12.880
52068W        W11329   4.728   6.208  12.881
52069W        W11330   5.211  20.538  13.505
52070W        W11331   4.364  17.658   2.291
52071W        W11332  33.078   4.758  14.495
52072W        W11333  42.486  20.275  11.603
52073W        W11334  31.478  38.454  10.105
52074W        W11335  31.510  29.466   2.389
52075W        W11336  41.449  12.708   1.309
52076W        W11337  30.163  24.654   1.816
52077W        W11338  13.757  36.079   3.164
52078W        W11339   5.379   3.239  11.986
52079W        W11340  29.079  36.379   1.379
52080W        W11341  21.729   5.395  12.499
52081W        W11342  43.442  23.228   1.906
52082W        W11343  44.385  20.159   0.861
52083W        W11344  10.865   5.858   0.412
52084W        W11345  39.371  13.306  14.022
52085W        W11346   2.844  13.748   4.696
52086W        W11347  38.845  20.649   3.762
52087W        W11348  21.234  24.979   2.301
52088W        W11349  37.348  40.828   5.088
52089W        W11350  29.490   2.446  11.078
52090W        W11351  28.475  39.483  12.024
52091W        W11352   3.811  31.924   0.412
52092W        W11353   9.270  26.024   1.697
52093W        W11354   1.955  19.140  13.530
52094W        W11355  11.642   0.378  12.968
52095W        W11356  12.279  38.429  12.547
52096W        W11357   7.684  39.028  12.479
52097W        W11358  35.949  22.192   4.203
52098W        W11359  19.078  32.056  14.315
52099W        W11360  31.410   9.226   5.760
52100W        W11361  37.030  25.045   0.888
52101W        W11362  33.000  35.590  12.377
52102W        W11363  24.220   9.837  12.825
52103W        W11364  22.217  27.110   2.823
52104W        W11365  28.675  14.593  11.108
52105W        W11366   0.919  20.253  13.352
52106W        W11367  26.543  11.238   1.721
52107W        W11368   7.195  17.075  14.870
52108W        W11369   6.262   4.788  13.050
52109W        W11370  37.067  13.774  13.391
52110W        W11371  25.635   7.249  13.961
52111W        W11372  18.591  21.551  10.411
52112W        W11373  13.153  34.874  14.007
52113W        W11374  17.635   0.326  12.892
52114W        W11375  24.479  31.904   0.751
52115W        W11376  12.742  23.705  12.890
52116W        W11377  14.269  42.400   1.301
52117W        W11378  40.886   5.852  11.500
52118W        W11379   0.327  31.445  11.396
52119W        W11380  27.685  18.613   0.284
52120W        W11381  31.038  34.593   1.280
52121W        W11382  13.792  21.512  11.012
52122W        W11383  10.142   9.230   4.156
52123W        W11384  10.842  36.367  12.433
52124W        W11385  13.841  22.028  11.092
52125W        W11386  18.257   0.345  10.589
52126W        W11387  10.646  40.904  14.851
52127W        W11388  18.584   0.757   3.161
52128W        W11389  27.690  43.903   2.815
52129W        W11390  42.937  17.572  10.641
52130W        W11391  41.474  41.408  12.485
52131W        W11392  34.544  35.402   4.321
52132W        W11393  33.948  17.684   0.797
52133W        W11394  26.193   4.870   2.388
52134W        W11395   6.219  21.091  13.803
52135W        W11396  21.249  10.791   2.357
52136W        W11397   8.161  19.276  12.089
52137W        W11398   3.863  20.715  11.881
52138W        W11399  16.156  44.298   4.207
52139W        W11400   9.849  11.144  10.946
52140W        W11401  27.632   6.771  12.097
52141W        W11402  43.298  20.597  14.504
52142W        W11403  21.713   5.335   0.406
52143W        W11404  43.955  20.216  11.108
52144W        W11405  13.821  18.711   0.940
52145W        W11406  19.053  30.916  14.974
52146W        W11407  20.668  11.137   1.847
52147W        W11408   0.293  33.435  13.964
52148W        W11409   3.909   0.887  12.044
52149W        W11410  14.819  15.196   3.152
52150W        W11411   5.342  18.057   4.754
52151W        W11412  23.649  29.122   4.165
52152W        W11413  35.536  38.550  12.823
52153W        W11414  29.437  27.503  11.373
52154W        W11415   7.193  31.966   0.290
52155W        W11416  43.001  39.043  13.507
52156W        W11417  31.040  33.578   1.914
52157W        W11418   0.274  21.685   1.715
52158W        W11419  44.264  22.244   3.253
52159W        W11420  43.396  43.783   2.206
52160W        W11421   8.186  30.620   2.256
52161W        W11422  29.087  21.075  11.445
52162W        W11423  41.035  25.482  11.970
52163W        W11424   5.259  24.690   1.835
52164W        W11425  11.300  29.618   4.132
52165W        W11426  24.080  36.475   4.311
52166W        W11427   9.380  41.998   4.743
52167W        W11428  30.479  15.190   4.333
52168W        W11429  32.525  12.620   4.768
52169W        W11430   7.372  26.687   2.693
52170W        W11431   5.880   3.745  13.401
52171W        W11432  17.740   9.786   0.756
52172W        W11433  35.372  11.145  12.951
52173W        W11434  34.476  10.333   0.826
52174W        W11435  16.778  41.507  12.866
52175W        W11436  33.092  27.147   1.835
52176W        W11437  42.315  20.541   1.791
52177W        W11438  34.579   6.727   3.215
52178W        W11439  42.431  18.644   4.344
52179W        W11440  23.995   7.318  14.979
52180W        W11441  17.258  14.199  12.437
52181W        W11442   5.877  12.679   3.203
52182W        W11443  37.530  42.950   9.961
52183W        W11444  36.579  39.964  14.909
52184W        W11445  21.721  22.633  12.087
52185W        W11446  41.960   0.259  11.081
52186W        W11447  17.254  29.086   2.210
52187W        W11448   9.887  43.934  12.574
52188W        W11449  36.486   1.911  11.499
52189W        W11450  14.623   4.367   3.708
52190W        W11451  44.795  29.560   0.478
52191W        W11452   2.773   8.344   2.687
52192W        W11453  19.117  28.591  13.516
52193W        W11454   3.772  12.127   4.783
52194W        W11455  33.515  16.091  10.604
52195W        W11456  13.747  21.677   2.387
52196W        W11457  33.603  39.949   0.280
52197W        W11458  26.655  21.058   2.794
52198W        W11459   2.234  40.975   1.825
52199W        W11460   2.445  17.201  14.369
52200W        W11461  10.815  16.313   3.844
52201W        W11462   7.230   7.880   1.813
52202W        W11463  28.483  23.996  11.127
52203W        W11464  17.167  21.570   3.234
52204W        W11465   0.352  11.776  11.920
52205W        W11466  34.097   3.362  14.309
52206W        W11467   8.799  31.896   3.837
52207W        W11468  37.978  30.590   3.773
52208W        W11469  12.695  23.082  13.888
52209W        W11470  24.101   9.256  10.527
52210W        W11471   5.322  16.706   0.339
52211W        W11472  26.618  32.546  13.916
52212W        W11473  20.103   8.756   0.885
52213W        W11474  26.185  16.189  12.451
52214W        W11475  24.479  24.075  13.016
52215W        W11476  38.417   2.465  13.387
52216W        W11477  22.211  22.554   1.359
52217W        W11478  28.524   2.339  14.354
52218W        W11479   6.910   7.705   0.853
52219W        W11480  44.977  16.116  13.060
52220W        W11481   5.221   0.867   3.728
52221W        W11482  41.002  37.407   1.321
52222W        W11483  30.562   4.277  14.474
52223W        W11484  43.823  31.060   0.879
52224W        W11485   7.346  13.318   2.785
52225W        W11486   8.294  42.424   0.368
52226W        W11487  15.246  17.784  10.547
52227W        W11488   7.821  24.204  13.925
52228W        W11489  35.936  10.368  13.522
52229W        W11490  34.607   9.315  13.472
52230W        W11491  16.082   2.901  13.334
52231W        W11492  29.997   1.922  13.395
52232W        W11493  38.365   2.284  11.528
52233W        W11494  37.582  10.830   2.177
52234W        W11495  29.130  32.574  11.382
52235W        W11496  15.169   8.353   3.344
52236W        W11497   7.784  21.658  12.458
52237W        W11498  38.357  19.556  13.419
52238W        W11499  20.758   2.421   3.757
52239W        W11500  28.037   1.851   1.806
52240W        W11501  21.702  34.391  13.030
52241W        W11502  35.385  29.989   2.253
52242W        W11503   4.279  42.518   4.166
52243W        W11504  35.579  39.064  12.087
52244W        W11505  39.065  21.196  12.522
52245W        W11506   3.431  25.011   4.661
52246W        W11507  27.040  18.767  14.431
52247W        W11508  21.658  13.805  12.021
52248W        W11509  40.972  27.127  12.986
52249W        W11510  29.598  15.603  10.052
52250W        W11511  34.568  34.101   5.302
52251W        W11512  25.079  41.819  10.600
52252W        W11513  12.347  26.058  14.883
52253W        W11514  41.450  25.194   1.745
52254W        W11515  17.586  38.945   4.764
52255W        W11516  16.201   4.808   4.812
52256W        W11517  30.978  15.813  14.928
52257W        W11518  32.547  37.553   1.893
52258W        W11519   6.322  36.395   0.305
52259W        W11520  11.350  17.068   2.784
52260W        W11521   6.255   7.798  14.762
52261W        W11522  35.069  23.497   2.881
52262W        W11523  39.930  37.372  11.574
52263W        W11524   9.745   8.160  10.615
52264W        W11525  29.109  26.636  11.452
52265W        W11526   7.393  32.588   2.685
52266W        W11527  22.130  44.387   2.824
52267W        W11528  23.732  16.664   4.159
52268W        W11529  22.675  20.046  14.982
52269W        W11530  23.058  14.614   3.318
52270W        W11531  27.148  41.499   2.293
52271W        W11532  34.584  44.480  11.402
52272W        W11533  10.856  30.632  11.019
52273W        W11534  33.531  20.060   0.942
52274W        W11535   0.285  23.556   3.314
52275W        W11536   6.241  35.599  11.452
52276W        W11537  15.216  18.755  10.128
52277W        W11538   0.745  24.002  14.504
52278W        W11539  17.195  13.766  11.071
52279W        W11540  37.522  21.229  11.877
52280W        W11541  35.446  12.206  11.886
52281W        W11542   4.703  36.568   2.801
52282W        W11543  13.186  20.117   2.795
52283W        W11544  40.365   4.809   1.214
52284W        W11545  20.649  30.560   3.339
52285W        W11546  41.303  29.544   3.739
52286W        W11547  40.412   0.455  13.037
52287W        W11548  26.967  29.610  14.474
52288W        W11549  36.473  17.110   1.880
52289W        W11550  44.504  25.606  13.943
52290W        W11551  29.471  43.429   3.274
52291W        W11552  20.645  29.501  10.899
52292W        W11553   6.319  23.624   4.347
52293W        W11554  33.896  32.458  12.530
52294W        W11555  21.096   9.377   4.333
52295W        W11556  34.461  35.065   5.093
52296W        W11557   4.851  42.403  13.507
52297W        W11558  40.464  38.375  14.301
52298W        W11559   9.182  25.067   5.136
52299W        W11560  37.016   9.280   1.867
52300W        W11561  26.101  28.978  14.790
52301W        W11562  16.725  43.359  13.356
52302W        W11563  30.070   0.762   1.253
52303W        W11564  34.966  43.821   0.960
52304W        W11565  32.053  40.418   3.870
52305W        W11566  13.171  27.193   3.629
52306W        W11567  18.294  36.593  12.009
52307W        W11568  14.751  37.005   1.439
52308W        W11569  26.691   7.223   3.736
52309W        W11570  20.113  19.779   1.331
52310W        W11571   5.703  26.030   1.248
52311W        W11572  21.130   2.735  13.922
52312W        W11573  41.457  43.908   4.739
52313W        W11574  14.808   1.448  12.062
52314W        W11575   6.870  29.958  12.090
52315W        W11576   8.782  13.337   9.615
52316W        W11577  23.569  10.220  11.037
52317W        W11578  16.224   1.946  14.885
52318W        W11579  21.028  16.677  10.121
52319W        W11580  25.477   9.388  13.511
52320W        W11581  14.808  18.649  13.894
52321W        W11582  34.495  43.412  13.049
52322W        W11583   0.936  44.769   4.770
52323W        W11584  35.399  28.003  13.389
52324W        W11585  31.924  15.637  10.978
52325W        W11586  32.141  37.364   1.255
52326W        W11587   7.891  40.406   0.453
52327W        W11588  25.526  43.978  12.074
52328W        W11589   5.702  18.768  12.091
52329W        W11590  43.983   2.924   3.722
52330W        W11591  16.616   5.419  12.937
52331W        W11592  19.044  26.500   0.954
52332W        W11593  10.706   6.769   0.407
52333W        W11594  11.246  35.367   3.182
52334W        W11595   2.396  15.213  13.391
52335W        W11596  30.624  38.879   3.796
52336W        W11597   7.735  43.488   1.772
52337W        W11598   7.814   5.927  13.812
52338W        W11599  39.056   7.671  13.397
52339W        W11600   2.395  33.416  12.495
52340W        W11601  37.976  30.413   4.633
52341W        W11602   1.423  24.079  11.418
52342W        W11603  35.448  32.908  12.448
52343W        W11604  39.003  12.281  12.936
52344W        W11605  15.250  19.656   3.183
52345W        W11606   3.328  29.969  13.051
52346W        W11607  41.795  23.103   1.274
52347W        W11608   9.314  30.945  10.591
52348W        W11609  14.794   5.878  14.917
52349W        W11610  32.949   5.273   2.769
52350W        W11611  20.049  40.407   0.732
52351W        W11612   8.748  13.662  11.068
52352W        W11613  44.833  16.809   2.817
52353W        W11614  13.139  39.416   0.866
52354W        W11615  28.158  15.707   0.412
52355W        W11616   6.726   9.231  10.066
52356W        W11617  24.041  13.725   2.254
52357W        W11618  24.589   4.727   9.936
52358W        W11619  35.977  35.029   2.268
52359W        W11620  40.451  30.453   5.156
52360W        W11621  19.116  30.953   4.199
52361W        W11622   9.282  15.767   1.293
52362W        W11623  40.519  25.098  10.495
52363W        W11624  29.481  14.612   3.680
52364W        W11625  34.007  42.340  13.374
52365W        W11626  21.618   5.391  10.896
52366W        W11627  14.129  21.670   3.735
52367W        W11628  20.660  30.466  14.367
52368W        W11629  38.426  27.129   0.935
52369W        W11630  29.579  38.943   9.923
52370W        W11631  28.999   2.891  10.924
52371W        W11632  32.947   9.175  10.027
52372W        W11633  23.078  16.239  13.064
52373W        W11634  29.019  34.864  12.368
52374W        W11635  21.517  44.268  12.829
52375W        W11636  11.225  20.050  11.080
52376W        W11637  44.911  34.590   3.203
52377W        W11638  14.768  23.038   0.737
52378W        W11639  34.562  38.825  14.375
52379W        W11640  24.168  35.021  13.467
52380W        W11641  40.932  32.885  10.900
52381W        W11642  16.734  13.176  11.447
52382W        W11643  24.072  35.966  10.052
52383W        W11644  37.833  11.800  13.936
52384W        W11645  25.977  17.797  14.377
52385W        W11646  21.743  10.202   3.784
52386W        W11647  24.061  18.721   4.201
52387W        W11648  29.963  44.372   4.154
52388W        W11649  18.622  33.516   0.794
52389W        W11650  40.030  44.769   1.351
52390W        W11651  17.153  35.386   2.809
52391W        W11652  21.593  38.013  11.579
52392W        W11653  43.793  28.511   2.307
52393W        W11654  22.246  20.663   4.819
52394W        W11655   9.840  15.243   2.888
52395W        W11656   8.175  40.029   1.286
52396W        W11657   2.462  35.890  11.459
52397W        W11658   7.873  23.669   0.409
52398W        W11659  43.414  19.105   2.770
52399W        W11660  34.401  10.173   3.734
52400W        W11661  17.077  27.459   4.234
52401W        W11662   0.299  11.279   3.148
52402W        W11663  16.721   9.707  12.031
52403W        W11664  43.285  18.222  12.417
52404W        W11665  19.121  28.632   1.448
52405W        W11666  22.168  30.538   0.300
52406W        W11667  31.923   7.278   3.164
52407W        W11668  26.112  43.286   2.269
52408W        W11669   8.171  23.165  12.427
52409W        W11670   6.410  32.915  14.327
52410W        W11671  36.011  22.079   1.229
52411W        W11672  21.130  44.975  13.317
52412W        W11673  40.389  44.307  13.825
52413W        W11674   9.183  44.267  13.462
52414W        W11675  16.594   6.718   1.907
52415W        W11676   5.874  22.031  10.909
52416W        W11677  23.205  23.053  13.473
52417W        W11678  20.662  31.621  10.599
52418W        W11679  23.105   6.269   2.320
52419W        W11680  34.098   0.482   0.457
52420W        W11681  32.957  29.431  12.394
52421W        W11682  10.381   3.848   4.751
52422W        W11683  39.814  22.019  14.333
52423W        W11684  22.008  12.251   2.697
52424W        W11685  35.594   1.309  14.453
52425W        W11686  23.543  17.725   3.733
52426W        W11687  22.134  27.157  10.419
52427W        W11688  43.867  35.499  14.888
52428W        W11689  22.696  17.726   0.920
52429W        W11690  44.482  16.677   1.852
52430W        W11691  24.506  40.458  12.388
52431W        W11692  42.815   6.368   3.634
52432W        W11693  11.725  32.561  11.536
52433W        W11694   4.282  43.477   0.274
52434W        W11695  25.698  32.914   2.710
52435W        W11696   9.690  27.496   2.392
52436W        W11697  11.824  16.727  10.044
52437W        W11698  38.955  39.364  11.058
52438W        W11699  30.154  21.567  13.816
52439W        W11700  13.835  13.287   1.357
52440W        W11701  34.014   7.405  14.512
52441W        W11702  35.442  22.020  14.834
52442W        W11703  20.767  19.687   9.664
52443W        W11704  40.400  10.172   9.975
52444W        W11705  39.997   4.318   3.717
52445W        W11706  38.342   1.832  11.523
52446W        W11707  39.849  36.588  11.922
52447W        W11708  30.072  15.772  14.447
52448W        W11709  34.944  19.213  11.434
52449W        W11710  13.780  19.537  14.516
52450W        W11711   0.359   3.310  13.971
52451W        W11712   0.297  30.912  10.536
52452W        W11713  23.130  29.920   1.881
52453W        W11714  40.876  37.354  13.989
52454W        W11715   2.732   0.454  12.558
52455W        W11716   9.888  17.079   4.688
52456W        W11717  40.003  37.855  13.899
52457W        W11718  36.421  25.637  10.624
52458W        W11719  11.728  17.650  10.602
52459W        W11720  34.921   0.482   0.446
52460W        W11721  15.209  34.063  11.392
52461W        W11722   4.268   7.721   2.744
52462W        W11723  11.145  11.643  14.465
52463W        W11724  28.616  22.163   1.829
52464W        W11725  15.295  31.113   3.369
52465W        W11726  19.187  25.176   0.877
52466W        W11727  26.653  37.523  10.001
52467W        W11728  27.015   8.355   4.346
52468W        W11729  14.736  11.189  13.332
52469W        W11730  41.012  19.086   0.259
52470W        W11731   1.849  30.156  10.617
52471W        W11732  38.850  27.021  12.021
52472W        W11733  38.837  29.639  12.525
52473W        W11734  34.944   6.288  12.967
52474W        W11735  41.931  33.908   1.696
52475W        W11736   1.883  31.914   3.860
52476W        W11737  37.017  24.483   0.473
52477W        W11738  44.446   5.268  11.865
52478W        W11739   8.887  32.631   2.238
52479W        W11740  19.283  14.717  13.420
52480W        W11741  19.279  20.050  12.391
52481W        W11742   0.278  41.377   0.823
52482W        W11743  13.599  18.746   2.354
52483W        W11744  28.044  23.163   1.295
52484W        W11745  26.987   3.858   3.383
52485W        W11746  23.222  42.372  14.483
52486W        W11747  33.009  27.511  12.420
52487W        W11748  41.910  20.146   4.614
52488W        W11749  35.035  38.823  13.463
52489W        W11750  37.537  39.820  14.460
52490W        W11751  20.217  19.065  10.606
52491W        W11752  44.419  36.459  10.496
52492W        W11753  15.801  33.395   0.832
52493W        W11754  19.777   6.746  11.553
52494W        W11755  20.253  22.669   1.707
52495W        W11756   9.712  35.429   0.907
52496W        W11757   5.206  24.125  10.600
52497W        W11758  33.069  36.475  11.438
52498W        W11759  21.751  15.213   3.260
52499W        W11760  19.104  23.073  13.484
52500W        W11761  41.389   7.204   1.260
52501W        W11762  24.112  27.637  10.617
52502W        W11763  14.178   8.160   0.375
52503W        W11764  23.041  41.789  11.110
52504W        W11765  27.086  14.236   3.374
52505W        W11766  13.214  28.108   1.732
52506W        W11767   9.254  35.944   2.748
52507W        W11768   5.234  12.268  10.514
52508W        W11769   1.447  43.799   4.300
52509W        W11770  18.599   4.823  13.830
52510W        W11771  42.825  28.618  12.413
52511W        W11772  27.474  31.513  11.402
52512W        W11773  31.615  27.462   2.222
52513W        W11774   6.377  21.034  14.798
52514W        W11775  15.757  22.177   2.395
52515W        W11776   8.352  44.337  13.402
52516W        W11777   5.366   9.802   3.846
52517W        W11778  22.195  41.390   4.306
52518W        W11779  21.541  40.949  13.870
52519W        W11780  43.418  39.911   1.862
52520W        W11781  20.176  19.658   1.759
52521W        W11782   5.814  28.033  12.064
52522W        W11783   0.862  37.539   1.243
52523W        W11784   5.381   4.857  12.395
52524W        W11785  10.868  38.442   2.757
52525W        W11786  44.904  33.919  13.833
52526W        W11787  32.468  40.967   5.727
52527W        W11788  20.655  41.846  12.965
52528W        W11789   7.398  34.553   2.708
52529W        W11790  20.569  14.137  11.110
52530W        W11791  10.333  28.594   4.730
52531W        W11792  34.892  37.416   9.932
52532W        W11793  29.663  34.974  14.770
52533W        W11794  35.037  12.655   4.638
52534W        W11795  11.280  33.556   4.626
52535W        W11796  29.998  42.383  14.430
52536W        W11797  21.083   4.336  14.338
52537W        W11798  28.162  23.504  10.621
52538W        W11799  41.899  34.919  12.988
52539W        W11800  36.887  14.739  11.107
52540W        W11801  41.812  40.045   1.796
52541W        W11802  38.059   0.793   4.598
52542W        W11803   5.426  36.992   4.681
52543W        W11804   9.242  30.081   2.250
52544W        W11805  27.482  24.641  14.413
52545W        W11806   4.814  14.634   3.361
52546W        W11807  15.216  11.251   1.422
52547W        W11808  29.659  31.958  11.530
52548W        W11809  42.293   2.849   1.770
52549W        W11810  30.590  44.390  11.581
52550W        W11811  36.593   8.706  13.425
52551W        W11812  34.371   3.435  11.574
52552W        W11813  27.942   2.870  11.410
52553W        W11814  42.973  32.912  10.515
52554W        W11815   9.645  38.822  14.293
52555W        W11816   3.248  10.283   0.923
52556W        W11817  40.945  41.818  11.498
52557W        W11818   3.272  31.144  10.904
52558W        W11819  36.475  34.088  11.452
52559W        W11820  32.997  18.244   0.280
52560W        W11821  28.578  36.078   1.214
52561W        W11822  30.648  40.470  11.122
52562W        W11823  34.055  28.143  13.953
52563W        W11824  37.371   9.242   2.727
52564W        W11825  39.932  28.929  13.469
52565W        W11826  11.793   3.368  11.870
52566W        W11827   9.725  25.559   3.710
52567W        W11828  16.783   3.336   0.765
52568W        W11829   0.306  30.470   4.132
52569W        W11830   7.678  10.200  12.032
52570W        W11831   4.366   0.787  12.071
52571W        W11832   7.836  29.583  14.787
52572W        W11833  25.507  11.354   4.301
52573W        W11834  28.937  35.454  14.791
52574W        W11835   5.726   5.360  14.846
52575W        W11836  11.695  20.114   3.644
52576W        W11837  12.183  35.538  10.903
52577W        W11838  32.994  31.955  11.557
52578W        W11839  21.638  11.164   3.240
52579W        W11840  18.569  26.205  14.821
52580W        W11841  14.180   5.747   2.373
52581W        W11842  44.006   4.895   3.678
52582W        W11843   0.902   8.733   3.696
52583W        W11844  10.800  22.175   1.740
52584W        W11845   3.254  38.978  13.983
52585W        W11846   7.402  33.387  11.005
52586W        W11847  28.517  34.005  13.954
52587W        W11848  38.476   9.872   3.281
52588W        W11849  42.994   0.949  14.765
52589W        W11850   4.322  31.909  14.325
52590W        W11851  11.751  44.839   4.312
52591W        W11852  28.551  31.976  14.769
52592W        W11853  36.482   7.780  12.548
52593W        W11854  34.491   2.796  14.478
52594W        W11855  17.787   5.701  11.996
52595W        W11856  22.615  17.799   4.331
52596W        W11857   5.267  37.962   2.257
52597W        W11858   2.263  13.791   4.153
52598W        W11859  14.304   8.359   3.223
52599W        W11860  14.611  42.318   4.269
52600W        W11861  22.060  10.840  11.598
52601W        W11862  44.331  21.705   2.835
52602W        W11863  34.912  23.155  12.480
52603W        W11864  18.128  44.911   1.932
52604W        W11865  36.565  20.063   1.247
52605W        W11866  42.777  27.648  10.645
52606W        W11867  16.218  38.437  14.951
52607W        W11868  33.002  32.904  13.313
52608W        W11869   8.717   4.363   4.693
52609W        W11870   0.762  27.999   4.283
52610W        W11871  16.132  36.409  12.474
52611W        W11872  21.065  41.991  14.787
52612W        W11873  34.892   8.183   2.388
52613W        W11874  35.095  13.716   3.652
52614W        W11875  18.217   2.354  11.070
52615W        W11876  16.632  24.116   0.369
52616W        W11877  27.179  31.983   3.834
52617W        W11878  25.695  36.355  14.340
52618W        W11879  18.652   9.784  10.598
52619W        W11880   9.687   8.852  11.540
52620W        W11881   7.713  28.565  14.400
52621W        W11882   2.870   4.436   4.687
52622W        W11883  20.226  38.338   0.364
52623W        W11884   8.868  18.689  13.855
52624W        W11885  12.163  36.548  14.921
52625W        W11886  10.782  22.059  14.343
52626W        W11887  44.955  13.239   1.400
52627W        W11888  41.833  13.320  11.886
52628W        W11889  15.702  25.041   1.774
52629W        W11890  17.273  18.111   4.160
52630W        W11891  41.857  29.159   2.799
52631W        W11892  29.471  35.986  10.022
52632W        W11893   3.751   7.416   1.363
52633W        W11894  12.252  15.604   1.876
52634W        W11895  41.997  27.077   0.947
52635W        W11896  21.108   2.863   1.218
52636W        W11897  44.333   3.264   2.332
52637W        W11898  38.455  14.199   0.908
52638W        W11899  42.498  29.429  10.935
52639W        W11900  34.375  21.026   4.337
52640W        W11901  29.609   9.179   4.606
52641W        W11902   7.717   4.279   3.270
52642W        W11903  13.609   4.291   1.772
52643W        W11904  36.387  29.026  11.034
52644W        W11905   5.934  17.781  14.282
52645W        W11906  41.813  37.416   3.257
52646W        W11907  44.873   6.898   2.809
52647W        W11908  29.938  34.563  12.006
52648W        W11909   2.896   4.756  10.473
52649W        W11910  40.483  24.989   0.948
52650W        W11911  32.454   8.722  12.842
52651W        W11912  24.526   4.912  11.470
52652W        W11913  41.791   3.799  13.469
52653W        W11914  43.485  20.264   2.844
52654W        W11915  44.435   2.294  11.473
52655W        W11916  31.923  38.980  14.902
52656W        W11917  26.491  13.821   4.153
52657W        W11918  35.423  37.966  13.945
52658W        W11919  20.267  40.953  14.783
52659W        W11920   7.331  44.919  14.419
52660W        W11921  23.121  43.388  11.964
52661W        W11922  17.197  27.027   2.879
52662W        W11923  33.464  13.276   2.851
52663W        W11924  23.094  42.295  12.931
52664W        W11925  43.977  35.040   1.770
52665W        W11926   9.231  28.596  14.837
52666W        W11927  22.667   8.784  10.971
52667W        W11928  31.421  21.156  13.467
52668W        W11929  36.914   4.707  13.983
52669W        W11930  35.969   3.948   5.279
52670W        W11931  43.869   9.881  13.485
52671W        W11932  30.037  13.313   3.701
52672W        W11933   8.771   2.821  12.467
52673W        W11934  11.369  43.869   3.703
52674W        W11935  34.878  28.628  11.910
52675W        W11936  39.327  42.967  13.852
52676W        W11937  32.462  23.541   1.743
52677W        W11938  24.151   5.395   4.674
52678W        W11939  18.076  38.567  14.924
52679W        W11940  17.643  10.203   4.206
52680W        W11941   8.169  29.070   4.615
52681W        W11942  15.584   6.798   4.200
52682W        W11943  28.580   7.892  11.105
52683W        W11944   2.295  22.145   1.880
52684W        W11945  15.612  20.048   5.773
52685W        W11946  40.879  15.093   3.800
52686W        W11947  38.851  15.788  12.844
52687W        W11948  14.698  17.572   4.348
52688W        W11949  26.500  22.248   0.483
52689W        W11950  26.146  21.741   1.323
52690W        W11951  15.820  25.040  14.347
52691W        W11952  34.870  20.748   3.761
52692W        W11953   7.903   9.178  12.399
52693W        W11954  31.127  35.383   0.328
52694W        W11955  32.042  43.952   3.251
52695W        W11956  30.938  23.059   1.411
52696W        W11957  17.293  25.499   3.169
52697W        W11958  32.082   1.946  10.440
52698W        W11959   9.213  36.506   3.861
52699W        W11960  29.163  20.644  10.542
52700W        W11961  23.580  41.520   2.852
52701W        W11962  14.758  37.553  10.058
52702W        W11963  37.998  18.552   2.389
52703W        W11964  32.958  19.092  10.951
52704W        W11965  13.623  16.144  14.982
52705W        W11966  30.093  36.446  13.933
52706W        W11967   4.809  36.508  11.029
52707W        W11968  29.945   2.896   4.706
52708W        W11969  18.661  20.273   1.875
52709W        W11970   0.414  15.778  12.027
52710W        W11971   2.732  44.962  10.499
52711W        W11972   7.808  27.666  11.584
52712W        W11973  37.846  15.302   1.367
52713W        W11974  40.506  22.705  10.479
52714W        W11975   6.877  41.496  12.356
52715W        W11976  38.014  25.540  14.497
52716W        W11977  42.885  28.024  13.951
52717W        W11978  22.006  24.691  11.038
52718W        W11979  27.035  35.577   4.809
52719W        W11980   3.956  29.032  13.901
52720W        W11981  18.201  21.127  14.329
52721W        W11982  30.008  21.224  13.511
52722W        W11983  18.184  35.446  11.485
52723W        W11984  11.636  42.344   0.775
52724W        W11985   4.766  44.421  12.961
52725W        W11986  29.924   3.275  14.932
52726W        W11987  28.489  16.297  14.456
52727W        W11988  34.928  20.582   0.944
52728W        W11989  44.488  37.912  10.936
52729W        W11990  35.576   2.301   0.879
52730W        W11991  33.056  41.995   1.714
52731W        W11992  26.018  26.201   1.276
52732W        W11993  41.026   6.792   3.383
52733W        W11994  26.099  27.121   0.432
52734W        W11995  12.175   8.395  12.082
52735W        W11996  30.632   3.343  14.998
52736W        W11997  33.888  31.096  13.309
52737W        W11998  37.010  43.375   1.399
52738W        W11999  16.724  10.848   2.372
52739W        W12000  27.059  39.925   4.173
52740W        W12001  33.612   7.892   1.281
52741W        W12002  15.328  34.494  13.388
52742W        W12003  42.367   3.363   3.850
52743W        W12004  16.251  28.597   1.786
52744W        W12005  44.386   9.757   2.316
52745W        W12006  28.501  40.928  11.951
52746W        W12007  19.686  31.122   1.921
52747W        W12008   0.411  18.583  11.967
52748W        W12009  30.059  12.797   4.184
52749W        W12010  27.683  25.177   4.633
52750W        W12011  18.282  31.438   3.687
52751W        W12012  14.225  18.087   3.702
52752W        W12013  28.157   0.875  10.433
52753W        W12014  19.777  19.600  12.461
52754W        W12015   1.893  14.815   2.741
52755W        W12016   7.790  14.622   3.794
52756W        W12017  24.005  14.123  11.591
52757W        W12018  19.774  42.302  11.100
52758W        W12019  15.679  33.013   9.989
52759W        W12020  38.359  30.541  11.954
52760W        W12021  40.832   1.818  14.883
52761W        W12022   1.766  27.979   0.844
52762W        W12023  12.825  18.237   3.847
52763W        W12024  32.458  25.577  14.026
52764W        W12025  28.016  15.625  10.624
52765W        W12026  35.553  41.407   3.188
52766W        W12027  44.798  16.655  13.385
52767W        W12028  18.144  40.501  10.604
52768W        W12029  36.518  38.854  12.068
52769W        W12030  24.099  33.416  12.439
52770W        W12031   0.301  10.348   1.402
52771W        W12032  33.388   8.690   2.890
52772W        W12033   8.342  34.615  11.069
52773W        W12034  25.663  26.680   0.785
52774W        W12035  10.207  40.410  12.569
52775W        W12036  22.677   3.881   1.237
52776W        W12037  36.572  40.391  14.819
52777W        W12038  25.192  16.308   0.774
52778W        W12039  37.069   3.772   4.781
52779W        W12040  27.598   5.700  11.963
52780W        W12041   3.438  30.943   3.247
52781W        W12042  38.935  17.648   0.319
52782W        W12043  23.032  10.257   2.374
52783W        W12044  21.214  25.693   9.972
52784W        W12045   9.274  36.044   0.384
52785W        W12046  23.496  40.322   2.360
52786W        W12047   7.232   8.298  12.056
52787W        W12048  15.628   9.691  11.939
52788W        W12049   1.266   8.198  10.998
52789W        W12050  11.355  33.489  14.949
52790W        W12051  41.334  12.267  10.530
52791W        W12052  31.551  32.909   2.305
52792W        W12053  31.928   3.448  11.402
52793W        W12054  34.433  14.291  12.445
52794W        W12055  11.170  43.408   3.380
52795W        W12056  44.322   3.947   0.410
52796W        W12057  33.026   5.794   3.788
52797W        W12058  26.168  42.884   2.415
52798W        W12059  21.027  40.875  12.422
52799W        W12060   4.757  26.681  11.057
52800W        W12061  32.530  31.124  13.897
52801W        W12062  22.103  12.698  12.853
52802W        W12063  17.585  28.988  10.527
52803W        W12064  13.689   5.374   0.339
52804W        W12065  23.572  36.061  14.931
52805W        W12066  22.683   8.400  13.841
52806W        W12067  40.495   9.208   4.831
52807W        W12068  29.975  19.623  10.605
52808W        W12069  20.255  39.840  12.535
52809W        W12070  37.832   5.926   0.441
52810W        W12071  25.966  38.439  12.340
52811W        W12072   7.866  21.738   4.645
52812W        W12073   3.383   9.285   0.773
52813W        W12074  16.648  17.772   3.692
52814W        W12075   7.891  44.804   3.165
52815W        W12076  20.738  27.109   0.399
52816W        W12077  21.673   4.699   4.132
52817W        W12078  24.194  24.625   1.699
52818W        W12079  38.013   3.453   1.273
52819W        W12080  17.152   6.827  13.872
52820W        W12081  33.034  39.013  14.892
52821W        W12082  27.084  14.727  13.898
52822W        W12083  13.161  28.659   4.711
52823W        W12084   9.714  36.400  14.833
52824W        W12085  37.429  44.407   3.683
52825W        W12086   4.884  25.034   2.707
52826W        W12087  25.211  13.645   3.662
52827W        W12088  28.460  25.483  14.451
52828W        W12089  36.562  32.139  11.988
52829W        W12090  21.239  14.822   0.753
52830W        W12091  38.055  40.502  13.501
52831W        W12092  27.980   3.767  12.086
52832W        W12093  38.025  31.447   2.898
52833W        W12094  26.489  28.127   4.744
52834W        W12095   0.439  18.233   4.320
52835W        W12096  34.508  33.389  12.840
52836W        W12097  16.171  42.408  13.965
52837W        W12098  41.382  37.536  13.919
52838W        W12099  14.148   5.779   2.882
52839W        W12100  16.215  33.952  10.618
52840W        W12101  13.639  14.617   0.315
52841W        W12102  12.177  40.532   0.311
52842W        W12103   5.353  13.757  12.056
52843W        W12104  37.395  33.975   3.850
52844W        W12105  22.113  42.400   2.239
52845W        W12106  35.954  30.938   0.934
52846W        W12107  10.780   5.274  12.091
52847W        W12108  20.717  40.029   4.321
52848W        W12109   8.306   2.326   1.378
52849W        W12110  36.432  29.063   2.369
52850W        W12111  21.056   6.386   2.203
52851W        W12112  38.827  33.501   1.878
52852W        W12113   4.710  38.935   1.444
52853W        W12114  18.209  13.690   1.769
52854W        W12115  31.970  29.507   3.285
52855W        W12116  24.212   3.419  11.028
52856W        W12117  22.171  30.997   3.837
52857W        W12118  42.344  30.928   4.627
52858W        W12119  15.604  17.234  12.475
52859W        W12120  41.531  13.648  11.515
52860W        W12121  33.889   4.359  14.515
52861W        W12122  42.937  38.823   4.824
52862W        W12123  17.101  42.949  12.365
52863W        W12124  40.532  39.837   2.303
52864W        W12125  12.851  11.727   3.228
52865W        W12126  26.135   4.352  11.095
52866W        W12127  31.535   9.738   3.329
52867W        W12128   0.375   2.469  12.420
52868W        W12129  39.843  16.108   3.675
52869W        W12130  42.389   0.369   3.755
52870W        W12131   3.879   8.391  14.405
52871W        W12132  32.529  12.201  11.028
52872W        W12133   7.823   6.218  11.017
52873W        W12134  40.986  26.037  10.612
52874W        W12135  35.082  34.881   0.744
52875W        W12136  41.830  37.854  12.857
52876W        W12137  13.115  36.413  10.571
52877W        W12138  35.486  40.878   5.690
52878W        W12139  12.653  14.274   0.778
52879W        W12140   9.649  24.975   3.719
52880W        W12141  31.507   7.904  13.381
52881W        W12142  19.632  40.410   1.885
52882W        W12143  30.438  37.063  10.624
52883W        W12144  25.978  14.766   4.275
52884W        W12145  41.466  26.036   1.303
52885W        W12146  21.546  23.601  13.959
52886W        W12147  34.019  42.491  10.134
52887W        W12148  31.994   8.726   4.801
52888W        W12149  10.766  43.402   1.395
52889W        W12150   5.731  30.992  10.972
52890W        W12151  32.533  36.000   3.656
52891W        W12152  12.649   6.300  14.926
52892W        W12153  25.104   1.453  11.604
52893W        W12154  37.341  16.635  11.926
52894W        W12155  11.304  10.330   2.776
52895W        W12156   1.385  37.547   3.634
52896W        W12157  39.374  35.077  13.958
52897W        W12158  21.702   8.852   3.190
52898W        W12159  41.946  24.997   5.210
52899W        W12160  16.773  31.624  12.457
52900W        W12161  26.643  34.096   2.901
52901W        W12162  23.009  36.502  10.581
52902W        W12163  33.078  33.997   1.791
52903W        W12164  29.118  34.076   4.745
52904W        W12165  39.386  27.510   2.723
52905W        W12166  26.082  19.695   1.821
52906W        W12167  37.994  40.406   1.915
52907W        W12168   0.980  30.074  11.979
52908W        W12169  33.982  20.697   3.729
52909W        W12170  18.579  29.057   9.479
52910W        W12171  21.539  39.901  14.932
52911W        W12172  43.424  18.247  12.917
52912W        W12173  23.141  23.207  11.429
52913W        W12174   9.718  26.682   2.736
52914W        W12175  30.487  21.752  13.515
52915W        W12176  16.219  26.573   5.734
52916W        W12177  35.499  16.298   3.658
52917W        W12178  31.063   0.948  12.045
52918W        W12179  13.290  37.480   4.178
52919W        W12180  32.930  40.952   1.744
52920W        W12181  17.165   7.750  14.798
52921W        W12182   0.940  21.635  12.081
52922W        W12183   5.348  44.975   4.820
52923W        W12184  31.034  27.455   0.795
52924W        W12185   8.348  31.469  12.948
52925W        W12186  28.437  20.699  13.530
52926W        W12187  11.240  28.667   4.194
52927W        W12188  36.962  29.012  14.483
52928W        W12189  34.989  38.042  11.073
52929W        W12190  26.463  44.277   3.310
52930W        W12191  43.339  40.411   1.424
52931W        W12192   4.729  35.405   3.666
52932W        W12193  27.501  24.641   2.900
52933W        W12194   6.820  10.783   5.752
52934W        W12195  11.841   4.858   2.903
52935W        W12196  10.792   4.943  13.345
52936W        W12197  14.105  38.049   0.431
52937W        W12198  33.431   4.818   2.334
52938W        W12199  39.015  37.564   0.252
52939W        W12200   7.856  10.172   3.746
52940W        W12201  36.410   8.347  12.377
52941W        W12202   5.739  21.142  13.436
52942W        W12203  36.575  40.812  12.036
52943W        W12204  12.746   8.791  14.428
52944W        W12205  15.705   3.302   1.282
52945W        W12206  16.095  37.063   1.222
52946W        W12207  44.425  42.806  14.497
52947W        W12208  11.836  22.702   4.678
52948W        W12209  11.232  38.338  12.871
52949W        W12210  27.150  22.658  12.384
52950W        W12211  20.228  21.113  14.381
52951W        W12212  23.159  12.645  10.533
52952W        W12213  30.984  30.586  12.924
52953W        W12214  37.543  44.407   1.228
52954W        W12215   3.416  11.657   4.215
52955W        W12216  14.655   0.784   0.850
52956W        W12217  21.589   1.386   2.686
52957W        W12218  39.378  26.675   0.831
52958W        W12219  38.487   6.318   4.192
52959W        W12220  39.490  14.688   2.725
52960W        W12221  35.458   7.356  12.834
52961W        W12222   4.363   1.258  11.985
52962W        W12223  22.520   6.817   0.941
52963W        W12224  21.089  11.698   1.424
52964W        W12225   7.800  30.083  11.004
52965W        W12226   9.191  25.032  10.092
52966W        W12227  30.443  19.061   1.738
52967W        W12228  42.998  20.128   5.196
52968W        W12229  18.287  12.691   0.394
52969W        W12230   6.863  25.056  12.516
52970W        W12231  39.382  31.967   1.443
52971W        W12232  28.561  12.171  10.899
52972W        W12233  24.191  22.179   4.724
52973W        W12234  17.121  31.531   1.930
52974W        W12235   4.215  43.972  11.910
52975W        W12236  27.510   4.306   4.169
52976W        W12237  36.513  19.667  10.980
52977W        W12238  40.977   1.310  11.099
52978W        W12239  42.988  39.986   3.740
52979W        W12240  40.015  21.050   3.319
52980W        W12241  17.276  18.060  12.410
52981W        W12242  40.000  14.177  13.934
52982W        W12243  28.003  11.757   3.808
52983W        W12244  13.231  36.389   1.917
52984W        W12245  17.064  36.032  12.919
52985W        W12246  28.002  15.616   3.785
52986W        W12247   9.650   9.210  14.463
52987W        W12248   9.688   9.343   1.923
52988W        W12249  41.864   8.292   4.326
52989W        W12250   4.832  30.611  10.891
52990W        W12251  22.681  30.431  11.006
52991W        W12252  39.046  30.497  11.992
52992W        W12253  33.130   6.734  14.481
52993W        W12254  11.308  38.566  14.356
52994W        W12255   6.323  30.459   0.456
52995W        W12256  38.912  14.681  10.065
52996W        W12257  38.471  37.411  10.421
52997W        W12258  33.898  36.393  13.954
52998W        W12259  34.920   8.344   3.675
52999W        W12260   5.370  13.156   0.866
53000W        W12261  22.546   3.257   5.239
53001W        W12262  31.445  22.210  13.822
53002W        W12263  30.099  36.938  14.502
53003W        W12264  31.453  13.667  14.323
53004W        W12265   0.765  22.560  12.439
53005W        W12266  13.243  10.692  14.478
53006W        W12267  34.594  40.024   0.745
53007W        W12268   0.456  14.276  12.471
53008W        W12269  42.787  38.857  11.056
53009W        W12270  35.998  18.178   1.435
53010W        W12271   0.852  29.616  11.001
53011W        W12272  34.963   0.334   4.192
53012W        W12273  26.573   9.849   1.428
53013W        W12274   9.711  36.353  11.565
53014W        W12275  29.096  32.390   0.471
53015W        W12276   2.826  13.794   3.231
53016W        W12277  18.550  44.865  12.475
53017W        W12278  42.934  22.204   2.720
53018W        W12279  44.293  10.734   1.426
53019W        W12280  24.117  22.600   3.247
53020W        W12281  35.990  17.306   1.251
53021W        W12282  11.255  36.361   2.378
53022W        W12283  34.422  29.520   3.321
53023W        W12284   5.269  28.663  13.355
53024W        W12285  33.880  32.899   2.704
53025W        W12286  25.119  22.139   4.204
53026W        W12287  22.597  40.857  14.361
53027W        W12288   5.807  33.922  13.975
53028W        W12289  44.782  21.586   4.760
53029W        W12290  10.229  34.883   2.412
53030W        W12291  23.516  32.511  11.968
53031W        W12292  21.518  34.535   4.651
53032W        W12293  21.569  20.534   2.825
53033W        W12294   6.419  25.647  11.047
53034W        W12295  40.447  22.573  14.332
53035W        W12296   9.250  25.531  11.416
53036W        W12297   8.363  12.322   0.405
53037W        W12298   5.358  12.666   1.928
53038W        W12299  24.059  43.306  13.527
53039W        W12300  22.172  43.428   1.842
53040W        W12301  31.421  28.444  14.822
53041W        W12302   5.818  11.250  11.585
53042W        W12303  29.100  34.935  11.465
53043W        W12304  39.491  26.622  14.428
53044W        W12305  42.299  10.635  12.357
53045W        W12306  25.536   8.361  14.314
53046W        W12307  24.515  40.542   2.290
53047W        W12308   9.322  12.697  11.450
53048W        W12309  39.397  25.648  12.354
53049W        W12310  44.973  15.600   0.963
53050W        W12311  12.166  32.578  13.008
53051W        W12312  34.994  26.460  12.433
53052W        W12313  41.350  29.485  10.597
53053W        W12314  16.260  19.719   9.921
53054W        W12315  11.690  30.090   0.365
53055W        W12316  34.877  31.112  13.483
53056W        W12317  34.411  24.993  14.865
53057W        W12318  39.052  30.955   4.271
53058W        W12319  41.833  21.165  10.405
53059W        W12320  10.217   8.844   0.417
53060W        W12321  44.893  11.828   4.724
53061W        W12322   5.754  36.431  10.901
53062W        W12323   9.379  31.067  11.026
53063W        W12324  25.188  41.971   4.179
53064W        W12325   2.886   7.734  11.994
53065W        W12326  40.485  32.391   3.753
53066W        W12327   3.222  22.546   1.846
53067W        W12328  33.575  16.097   1.310
53068W        W12329  13.270  10.150   4.322
53069W        W12330  15.729  37.544  14.404
53070W        W12331  19.563  32.036   3.156
53071W        W12332   0.430  43.827   1.303
53072W        W12333  12.621  30.620   0.749
53073W        W12334  12.310  35.010  10.977
53074W        W12335  23.621   0.329  11.601
53075W        W12336  24.184  11.206   2.252
53076W        W12337  33.990  17.175  13.422
53077W        W12338  20.751   9.724   0.466
53078W        W12339   2.873  41.405  12.950
53079W        W12340  14.097   2.465   0.767
53080W        W12341  24.012  15.599   3.309
53081W        W12342  22.182  15.799  12.350
53082W        W12343  21.019  37.864  12.515
53083W        W12344  34.534  24.154  14.495
53084W        W12345  36.068  43.876  14.418
53085W        W12346  44.312  39.938  13.035
53086W        W12347  27.521  30.569   3.811
53087W        W12348  24.126  34.022  11.906
53088W        W12349  43.339  11.720   0.958
53089W        W12350   0.790  24.997  14.817
53090W        W12351  16.237  35.913  14.839
53091W        W12352  41.957  24.055   3.291
53092W        W12353  31.599  32.079  12.988
53093W        W12354   4.388  12.702   3.182
53094W        W12355  41.379  23.006   3.857
53095W        W12356  37.418  27.105   3.837
53096W        W12357   0.292  29.002  13.498
53097W        W12358  41.972  14.607   4.648
53098W        W12359   4.414  39.832   4.160
53099W        W12360   4.925  24.663   0.967
53100W        W12361  30.051  41.504  14.765
53101W        W12362  26.637  26.129  13.476
53102W        W12363  33.516  24.224  12.899
53103W        W12364  13.303  28.496  14.471
53104W        W12365  27.009   7.874   4.285
53105W        W12366  25.133   9.803  10.612
53106W        W12367  34.438  29.617   2.843
53107W        W12368  20.540   1.272   1.853
53108W        W12369   9.812   4.724  12.046
53109W        W12370  14.095  28.990  11.570
53110W        W12371  43.349  28.436  11.941
53111W        W12372   9.884   6.690  11.017
53112W        W12373   6.377   1.802  13.444
53113W        W12374  29.513  28.506   3.683
53114W        W12375  25.577  20.232   1.931
53115W        W12376  36.538  42.372  12.346
53116W        W12377  34.038   8.746   1.326
53117W        W12378  42.354  13.110  14.423
53118W        W12379  39.951  13.119  10.509
53119W        W12380  16.633  22.632  12.482
53120W        W12381   3.920   3.831  14.830
53121W        W12382  13.270  32.994   1.706
53122W        W12383  34.543  39.985   1.259
53123W        W12384   6.215  27.567  11.040
53124W        W12385  11.361   7.817   4.330
53125W        W12386  32.962  39.054  12.082
53126W        W12387  26.030  31.989   2.259
53127W        W12388  15.595  18.644   1.715
53128W        W12389  36.544  31.017  13.996
53129W        W12390   1.323  35.078   4.342
53130W        W12391  34.996  25.704  11.117
53131W        W12392  29.670   0.493  12.068
53132W        W12393  23.994   9.833  13.524
53133W        W12394  22.242  15.144  10.921
53134W        W12395  34.976  37.473   3.162
53135W        W12396  20.698  10.832   2.234
53136W        W12397  43.872  12.775   2.772
53137W        W12398  28.109  12.236  14.449
53138W        W12399  22.244  23.589   0.416
53139W        W12400  27.554   5.285   0.336
53140W        W12401   1.272  26.117  14.422
53141W        W12402  39.857  43.022  11.524
53142W        W12403  38.883   4.374   3.246
53143W        W12404  33.430  37.988   5.282
53144W        W12405  17.689  24.117  12.427
53145W        W12406  36.946  23.516   3.222
53146W        W12407  41.490  37.549   0.778
53147W        W12408  41.354  21.598  13.893
53148W        W12409  20.675  24.056  13.881
53149W        W12410   6.914  14.740   3.213
53150W        W12411  31.447  31.476  10.532
53151W        W12412   8.390   8.280   4.825
53152W        W12413   5.292  30.530   4.210
53153W        W12414  33.558  17.686  13.507
53154W        W12415  25.128  43.349   1.874
53155W        W12416  12.678  26.529  14.492
53156W        W12417   3.461   0.266   4.707
53157W        W12418  31.451  10.238   4.838
53158W        W12419  28.029  42.481  14.900
53159W        W12420  22.531  12.122  11.498
53160W        W12421  31.609  31.035   2.204
53161W        W12422  41.798  19.226  10.545
53162W        W12423  30.149   7.249   4.333
53163W        W12424   8.844  39.032   4.601
53164W        W12425  37.569  15.258   3.819
53165W        W12426   1.872  41.920   0.428
53166W        W12427  32.408  36.087   1.902
53167W        W12428  23.643   5.287  11.978
53168W        W12429   2.937  28.096  11.476
53169W        W12430  19.580   3.393  11.930
53170W        W12431  36.912  23.503   4.116
53171W        W12432  12.684  38.966  13.984
53172W        W12433  35.424  31.624  12.086
53173W        W12434  18.290  17.216  13.969
53174W        W12435  20.614  13.661  10.973
53175W        W12436  19.191  32.945   1.369
53176W        W12437  23.581  35.945  11.549
53177W        W12438  16.776  16.210   3.703
53178W        W12439  32.124  28.946  14.491
53179W        W12440  43.882   9.849   3.826
53180W        W12441  22.148   6.295   1.370
53181W        W12442  29.129   3.375   4.672
53182W        W12443  36.080  43.768  12.498
53183W        W12444   4.892  35.945   4.232
53184W        W12445  25.035  12.311   1.239
53185W        W12446  25.128  13.181   1.331
53186W        W12447  15.764  25.023   0.765
53187W        W12448  31.596   9.819  12.409
53188W        W12449  24.657  24.992  12.945
53189W        W12450  41.396   4.258   4.701
53190W        W12451  24.193  25.093  13.500
53191W        W12452  16.181   1.908  10.108
53192W        W12453   8.248  17.290  13.013
53193W        W12454  27.612  14.678   4.183
53194W        W12455  34.067   1.744  11.907
53195W        W12456  22.606  44.282   1.752
53196W        W12457   2.236   1.889  11.863
53197W        W12458  18.075  31.645  11.392
53198W        W12459  33.612  33.005  12.392
53199W        W12460  39.985  24.070   1.431
53200W        W12461  19.643   3.743  11.547
53201W        W12462  17.203  24.675   4.825
53202W        W12463  14.757  31.961   3.833
53203W        W12464   1.963  11.246  12.893
53204W        W12465  33.402  25.635  11.077
53205W        W12466  29.626  13.806  11.004
53206W        W12467   9.214   1.396  13.544
53207W        W12468  16.190   1.919   2.358
53208W        W12469   5.701  42.351   0.456
53209W        W12470  44.809  27.098   3.194
53210W        W12471   9.816  25.158   2.861
53211W        W12472   7.814   3.402  12.396
53212W        W12473  11.807  10.660   1.254
53213W        W12474   8.900  42.827   0.926
53214W        W12475  43.413  25.485   1.268
53215W        W12476   6.305  16.711   0.759
53216W        W12477  11.738  32.085   2.302
53217W        W12478  37.366  11.684  10.927
53218W        W12479  25.566  35.979   1.871
53219W        W12480   7.739  31.092   3.718
53220W        W12481   9.337  25.071  11.032
53221W        W12482  26.091  23.096  10.603
53222W        W12483   1.846  21.704   1.291
53223W        W12484  30.414  30.430  10.576
53224W        W12485  31.914  37.038   1.228
53225W        W12486  39.985  30.559   0.744
53226W        W12487   8.686  44.385   1.300
53227W        W12488  13.815  12.846  13.990
53228W        W12489  13.257  39.935  14.345
53229W        W12490   2.453   8.212   0.427
53230W        W12491  21.571  24.669  14.002
53231W        W12492  10.329  34.497   0.927
53232W        W12493  36.942  37.854  12.937
53233W        W12494  27.467  26.647   4.271
53234W        W12495  11.347  11.205  12.861
53235W        W12496  13.748   5.903  14.875
53236W        W12497  10.202   4.422  11.926
53237W        W12498  25.112  12.705  10.631
53238W        W12499  39.474  40.030  13.456
53239W        W12500  44.339  33.931  11.482
53240W        W12501  34.398  22.563   1.811
53241W        W12502  25.499  42.927   2.769
53242W        W12503  43.312  13.779  11.017
53243W        W12504  40.857   1.252   2.892
53244W        W12505  36.051  38.916   0.384
53245W        W12506  27.452  32.114  12.486
53246W        W12507  32.061  20.555   3.160
53247W        W12508   7.336  41.945   0.967
53248W        W12509  37.846   4.767  10.012
53249W        W12510  19.163  40.815   2.745
53250W        W12511  28.948  25.486   3.639
53251W        W12512  36.955  39.322  10.911
53252W        W12513   8.805  13.223  10.948
53253W        W12514  35.469  32.139   1.753
53254W        W12515  35.081  30.528  13.029
53255W        W12516  42.831  23.499  14.770
53256W        W12517   6.397  17.800   0.764
53257W        W12518  43.874  39.048   0.307
53258W        W12519  38.489  42.400  14.899
53259W        W12520  12.166  39.335  12.845
53260W        W12521   1.373  21.753   0.810
53261W        W12522  15.630  11.331  13.856
53262W        W12523  29.499   9.877   1.932
53263W        W12524  28.025  28.161   1.363
53264W        W12525  29.574  25.157  11.970
53265W        W12526  23.183  13.298  10.888
53266W        W12527  19.547  44.783   3.787
53267W        W12528   8.663  22.627  10.987
53268W        W12529  27.149  19.767  11.372
53269W        W12530  35.103  44.467   3.211
53270W        W12531  34.521  32.969   4.263
53271W        W12532   6.723  38.469  12.895
53272W        W12533  44.455  22.664  11.985
53273W        W12534  28.186  38.071  12.904
53274W        W12535   9.376  18.241  11.517
53275W        W12536  41.517  14.729   1.358
53276W        W12537   3.741  17.276  14.413
53277W        W12538  13.601  27.467   4.744
53278W        W12539  31.518  34.018   2.191
53279W        W12540  28.495  35.929  12.928
53280W        W12541   8.173  20.712   2.843
53281W        W12542  30.000  27.005  14.890
53282W        W12543  24.534  21.199  14.001
53283W        W12544  21.693  29.140  12.915
53284W        W12545  34.073  15.754   0.957
53285W        W12546  42.979   0.314   2.392
53286W        W12547  10.337  41.016   2.338
53287W        W12548  30.123  11.327  11.511
53288W        W12549  17.629  36.960   4.683
53289W        W12550  18.224  39.334  13.490
53290W        W12551  30.910  27.596  14.381
53291W        W12552   8.782  37.354   0.811
53292W        W12553   7.309   2.365  11.001
53293W        W12554   9.232  13.185   9.438
53294W        W12555  11.192  24.496   1.293
53295W        W12556  23.115  30.600  12.079
53296W        W12557  35.543   4.804   3.182
53297W        W12558  14.199   1.410  13.021
53298W        W12559  34.527  33.594  12.067
53299W        W12560  38.533  15.145   0.783
53300W        W12561  15.771  34.428  14.795
53301W        W12562  43.499  27.460   4.676
53302W        W12563  19.273   8.272  11.086
53303W        W12564   4.730  25.522   0.884
53304W        W12565  33.054   5.424  13.958
53305W        W12566   7.681  13.107   3.324
53306W        W12567   9.823  16.124  14.867
53307W        W12568  25.570   5.269  14.770
53308W        W12569  22.633  16.701  14.809
53309W        W12570  10.806  32.933   4.267
53310W        W12571  38.894  31.630   2.805
53311W        W12572   7.402  30.954  11.914
53312W        W12573  27.169   1.971   0.929
53313W        W12574  36.039   9.364  12.035
53314W        W12575  32.418  17.600  10.942
53315W        W12576  28.119  37.056  13.422
53316W        W12577  37.041   0.386   3.766
53317W        W12578  30.971  16.233   3.867
53318W        W12579  42.025  19.754   2.301
53319W        W12580  19.590  15.309   1.909
53320W        W12581  36.569  26.523   4.200
53321W        W12582  10.356  40.448   3.192
53322W        W12583   4.329  41.903   1.843
53323W        W12584   6.882  27.593  13.510
53324W        W12585  28.034   7.232   3.353
53325W        W12586  12.710  10.164  13.377
53326W        W12587  10.684  13.152  13.897
53327W        W12588  19.567  18.205   2.748
53328W        W12589  39.954  11.228   3.846
53329W        W12590  31.480   1.295  10.425
53330W        W12591  18.073   3.885  12.900
53331W        W12592  18.160  24.222   2.729
53332W        W12593  21.042  23.043   0.858
53333W        W12594   0.857  32.008   1.913
53334W        W12595  23.036  22.656  14.003
53335W        W12596  40.999   6.903  12.444
53336W        W12597  22.094  34.518   4.334
53337W        W12598  17.100  30.998   3.653
53338W        W12599  11.794  23.693   0.424
53339W        W12600   5.375  14.216  14.797
53340W        W12601  35.909  10.732  10.935
53341W        W12602   7.831   4.329  11.518
53342W        W12603  14.331  10.171   5.178
53343W        W12604   7.727   2.272  14.012
53344W        W12605  20.250   2.851  12.866
53345W        W12606  38.336  21.533   1.267
53346W        W12607   0.957  18.745  11.396
53347W        W12608  39.037  31.027   4.717
53348W        W12609   0.455  41.382   1.900
53349W        W12610   3.845   7.173  12.857
53350W        W12611  16.107  27.458  10.120
53351W        W12612   0.851  30.608   1.777
53352W        W12613   1.887  18.091   1.218
53353W        W12614  34.972  17.758   3.270
53354W        W12615  21.724  42.891   0.432
53355W        W12616   9.651  37.381   3.324
53356W        W12617  35.553  35.918   3.870
53357W        W12618  40.962   2.293  13.423
53358W        W12619  31.986  43.773   9.666
53359W        W12620  14.639  34.915   0.462
53360W        W12621  29.923   1.473   2.748
53361W        W12622  43.296   6.718  14.790
53362W        W12623  39.474  38.838  10.451
53363W        W12624  40.487  36.479   4.625
53364W        W12625  30.517  40.499  13.377
53365W        W12626   1.856  27.465  10.539
53366W        W12627  41.447  32.096   0.897
53367W        W12628  31.956  21.546  11.392
53368W        W12629  12.225  26.538  14.775
53369W        W12630  11.845  30.159  10.989
53370W        W12631  43.021  19.071   3.727
53371W        W12632   6.188  20.727  13.909
53372W        W12633   6.342  11.637   2.716
53373W        W12634  39.058   3.298  11.464
53374W        W12635  34.059  31.498  14.781
53375W        W12636  19.700  24.991  11.526
53376W        W12637  21.108  31.009   4.798
53377W        W12638   5.931   1.279  12.916
53378W        W12639  13.757   5.833  10.406
53379W        W12640  43.290   6.877  13.918
53380W        W12641   8.397  29.649  14.452
53381W        W12642   4.374  44.434   3.296
53382W        W12643   1.342   1.749  14.954
53383W        W12644   5.880   5.197  14.407
53384W        W12645  16.640  31.615  11.913
53385W        W12646  29.669   5.866   3.244
53386W        W12647  13.136  39.934  10.946
53387W        W12648   4.919   1.398  13.838
53388W        W12649  15.236  39.433  11.606
53389W        W12650  16.260  36.503  12.015
53390W        W12651  30.486  37.351   0.850
53391W        W12652  22.650  33.118   2.361
53392W        W12653  22.098  37.370  14.820
53393W        W12654  17.564  10.801  10.935
53394W        W12655  26.525  13.623   0.806
53395W        W12656   1.752  14.754   4.316
53396W        W12657  22.559  43.802   0.833
53397W        W12658  16.210  22.502   3.640
53398W        W12659  41.037  33.411  13.447
53399W        W12660   6.301   1.408  14.031
53400W        W12661  29.158  14.142  14.493
53401W        W12662   5.411  39.436   3.840
53402W        W12663  43.954  33.524   4.820
53403W        W12664   9.692  17.276   1.759
53404W        W12665  41.504   8.403  12.968
53405W        W12666  20.104  22.653  12.373
53406W        W12667  28.126  25.979  10.131
53407W        W12668  33.414   8.294   5.114
53408W        W12669  27.639  37.920  12.497
53409W        W12670   9.716  30.436   3.784
53410W        W12671  13.323  25.675  12.460
53411W        W12672   5.787  36.945   1.852
53412W        W12673   4.431  32.003   1.245
53413W        W12674  17.207  15.778  10.064
53414W        W12675  15.195  16.707  11.899
53415W        W12676  39.893  12.271   4.661
53416W        W12677   3.388  31.410  14.931
53417W        W12678  21.623  44.341   4.182
53418W        W12679  14.782  43.349   3.799
53419W        W12680  33.404  18.783  11.599
53420W        W12681  12.640  29.027  12.957
53421W        W12682   8.702   5.359   1.759
53422W        W12683  41.033  15.687   2.879
53423W        W12684  22.529  25.014  13.818
53424W        W12685  28.950  25.061   2.725
53425W        W12686   0.892  31.636   1.828
53426W        W12687  35.941   7.364  12.495
53427W        W12688  34.513  11.234   9.460
53428W        W12689  36.018  40.880  14.963
53429W        W12690  44.887  10.344   4.218
53430W        W12691  38.929  23.581   1.404
53431W        W12692   6.727  32.571   4.809
53432W        W12693  41.793  39.839   3.819
53433W        W12694  17.695  44.460   1.374
53434W        W12695  34.383  29.999  14.508
53435W        W12696  43.902  35.515  11.889
53436W        W12697  34.520  26.973  13.897
53437W        W12698  27.136  15.711  14.371
53438W        W12699  26.460  43.852   3.346
53439W        W12700  34.090  17.733   3.185
53440W        W12701  39.040  40.005   9.992
53441W        W12702   7.324  24.063   3.634
53442W        W12703  14.182  10.171  12.939
53443W        W12704   4.859  41.919  11.045
53444W        W12705  35.983  22.741  10.526
53445W        W12706  29.089  10.199  11.913
53446W        W12707  22.205  19.159  10.004
53447W        W12708   5.265  34.941  14.424
53448W        W12709  39.530  24.110  12.356
53449W        W12710   3.386  30.945  13.537
53450W        W12711   6.830  13.688   3.321
53451W        W12712  37.370  26.684  10.925
53452W        W12713  19.769  38.982  14.872
53453W        W12714  23.561  28.665  10.016
53454W        W12715  43.954  30.448  14.000
53455W        W12716  21.160  35.076  13.929
53456W        W12717  21.199  17.179  10.514
53457W        W12718   3.754  38.894   3.634
53458W        W12719   6.404  42.403   2.783
53459W        W12720  22.194  35.949  13.484
53460W        W12721  28.069   0.984  11.117
53461W        W12722   2.381  15.189   4.253
53462W        W12723  23.106  17.109   3.702
53463W        W12724  37.451  23.722  13.853
53464W        W12725   0.396   8.311  11.485
53465W        W12726   7.782  23.070  13.895
53466W        W12727  31.028  22.664   5.120
53467W        W12728  42.433   6.389  11.978
53468W        W12729  27.008  39.987  11.466
53469W        W12730  12.342  27.689   0.246
53470W        W12731   8.254  30.061  11.870
53471W        W12732  29.646  44.347  13.972
53472W        W12733  11.764  13.255  12.051
53473W        W12734  16.307  16.738  10.989
53474W        W12735   1.287  18.186  11.441
53475W        W12736  13.129  37.075  10.472
53476W        W12737  36.968  43.436  12.940
53477W        W12738   2.765  41.332  11.402
53478W        W12739   1.912  36.521   1.260
53479W        W12740  28.007  19.097   4.212
53480W        W12741   7.393  36.977   2.337
53481W        W12742  20.143  21.082   2.392
53482W        W12743  44.391  13.238  12.966
53483W        W12744   2.339  36.535  13.932
53484W        W12745  42.415  41.484  12.939
53485W        W12746  21.664  13.803  10.515
53486W        W12747  13.338  14.835   1.276
53487W        W12748  38.074  28.988   2.699
53488W        W12749  15.158  13.282   4.188
53489W        W12750  12.714  16.772   3.639
53490W        W12751  18.633  41.483   3.711
53491W        W12752   3.416  34.370  12.078
53492W        W12753  25.119  28.470  13.899
53493W        W12754  42.475  38.035   1.795
53494W        W12755  33.383  18.618   1.875
53495W        W12756  20.094   0.385   4.714
53496W        W12757  19.552  31.433   2.193
53497W        W12758   6.229   9.236  14.911
53498W        W12759  23.019  11.867   1.736
53499W        W12760   4.351  15.283   1.726
53500W        W12761  42.407  15.290  12.872
53501W        W12762  28.053  15.218   2.676
53502W        W12763   1.793  18.702   1.895
53503W        W12764  28.955  39.031  11.019
53504W        W12765  40.038   5.837  13.363
53505W        W12766  23.216   0.413  11.002
53506W        W12767  36.456  39.435   2.897
53507W        W12768  25.985  34.505   4.147
53508W        W12769  30.105  17.258  13.404
53509W        W12770  32.071  44.825  14.827
53510W        W12771  19.042  12.241  14.759
53511W        W12772  16.591  22.178   1.227
53512W        W12773  11.641  19.717  12.515
53513W        W12774  28.948   7.863  13.375
53514W        W12775   9.158  31.933  13.391
53515W        W12776  18.121  19.708   1.820
53516W        W12777   4.205  21.194   2.272
53517W        W12778   4.713   3.877  14.913
53518W        W12779  39.504  23.992   2.707
53519W        W12780  16.746   5.791   3.300
53520W        W12781   0.303  44.261   4.189
53521W        W12782  25.619  22.545  11.579
53522W        W12783  14.647  39.952   3.702
53523W        W12784  23.226  31.983   3.223
53524W        W12785  29.603   0.323   0.891
53525W        W12786  33.405  36.904  14.981
53526W        W12787  39.945  41.388   0.314
53527W        W12788   6.368  19.115   0.319
53528W        W12789   6.846  30.550   4.185
53529W        W12790  22.052  39.445   2.245
53530W        W12791   7.832  11.840   1.408
53531W        W12792  43.280  18.077  13.429
53532W        W12793  24.194  40.325  14.446
53533W        W12794  10.278  37.950   2.310
53534W        W12795  25.662  43.468  12.509
53535W        W12796  14.645   9.728   1.845
53536W        W12797  35.042  28.980   1.859
53537W        W12798  26.544   2.399  11.027
53538W        W12799  14.196  25.687  12.061
53539W        W12800  18.224  24.610  14.503
53540W        W12801  32.546  24.160   3.322
53541W        W12802  37.525  22.180   4.808
53542W        W12803  25.212  20.220   0.380
53543W        W12804   5.807  27.946   2.334
53544W        W12805  32.993  15.106  13.515
53545W        W12806   8.380  40.967   0.840
53546W        W12807  36.903  22.720   0.400
53547W        W12808  26.015  41.385  13.921
53548W        W12809  37.369  40.507   4.631
53549W        W12810  42.397  29.560  14.834
53550W        W12811   8.850  39.443  11.895
53551W        W12812  10.234  42.917   2.842
53552W        W12813  27.101  20.070  10.629
53553W        W12814  41.824  39.013  12.547
53554W        W12815  29.081  34.503   0.903
53555W        W12816  30.116  14.724   2.390
53556W        W12817  29.094   8.890  13.387
53557W        W12818  15.206  41.382  11.050
53558W        W12819  21.725  22.052  12.424
53559W        W12820  21.709   4.239   3.349
53560W        W12821  14.275  42.943  12.921
53561W        W12822  25.683  22.091   2.403
53562W        W12823  18.678  27.563   4.717
53563W        W12824   3.370   8.163   5.083
53564W        W12825  42.890  35.954   0.311
53565W        W12826   4.878  24.547   1.879
53566W        W12827  12.638  10.804   3.169
53567W        W12828  11.266   2.801   5.176
53568W        W12829   1.387  39.461  13.522
53569W        W12830  26.680  12.817  12.954
53570W        W12831  28.520  27.150   3.333
53571W        W12832  16.779  11.297  10.549
53572W        W12833   3.460  36.860   2.747
53573W        W12834  27.086  18.131   3.264
53574W        W12835  43.947  43.281  13.924
53575W        W12836  44.278  15.202   4.177
53576W        W12837  34.049   2.435   1.330
53577W        W12838  34.397  28.173   0.308
53578W        W12839  28.528   4.722  12.549
53579W        W12840  44.811   9.355  12.470
53580W        W12841   8.325   9.755   3.311
53581W        W12842  20.036  16.788  14.760
53582W        W12843   4.423  18.089   2.716
53583W        W12844  35.411   5.902   1.698
53584W        W12845   7.205  28.037   0.889
53585W        W12846  34.458  41.503   3.271
53586W        W12847   7.891  20.151   1.728
53587W        W12848  16.076  41.942   1.745
53588W        W12849  30.104  11.715  13.893
53589W        W12850  39.914   3.908  13.990
53590W        W12851  36.055  39.868   0.763
53591W        W12852  16.801  37.549   4.286
53592W        W12853   7.688  44.982  14.956
53593W        W12854  29.609  38.456  13.520
53594W        W12855  42.438  23.206   4.208
53595W        W12856  40.024  26.592   4.768
53596W        W12857  19.152  25.063   4.242
53597W        W12858   4.839  21.243  13.325
53598W        W12859  17.233  10.175   0.881
53599W        W12860  38.434  28.539   0.854
53600W        W12861   8.759  28.054   2.735
53601W        W12862  18.284   5.848  12.348
53602W        W12863  10.664   2.895  13.970
53603W        W12864  39.362   6.290   4.146
53604W        W12865   9.289  22.245  14.763
53605W        W12866   5.404  16.151   1.278
53606W        W12867   9.741  17.175  11.610
53607W        W12868  41.946  44.373   1.226
53608W        W12869  38.553  19.163  12.474
53609W        W12870  31.456  34.094   3.176
53610W        W12871  22.734   2.859   4.801
53611W        W12872  12.614  41.330  12.929
53612W        W12873  32.954  32.055  12.840
53613W        W12874  14.709  21.243   1.922
53614W        W12875  42.426  39.050   1.815
53615W        W12876  26.081  32.930   4.181
53616W        W12877  38.565   7.296  12.878
53617W        W12878  20.231  16.148  10.450
53618W        W12879  20.247  17.092   2.362
53619W        W12880  39.354   0.484   1.807
53620W        W12881  12.711  19.537   0.405
53621W        W12882   6.775   6.909  12.961
53622W        W12883  25.162  30.526   4.608
53623W        W12884  22.166   9.335  13.037
53624W        W12885  16.300  22.671  12.401
53625W        W12886  28.032  17.074   0.353
53626W        W12887  38.434  41.914  14.865
53627W        W12888  15.761  25.139   0.376
53628W        W12889  25.668  10.187  12.578
53629W        W12890   0.923  23.711   0.940
53630W        W12891  38.055  24.026  13.491
53631W        W12892  44.888  21.520   1.293
53632W        W12893  39.527  30.155   4.744
53633W        W12894  11.739  21.637  11.495
53634W        W12895  13.121   0.369  12.847
53635W        W12896  16.644  33.395   3.178
53636W        W12897  24.117  23.026  14.424
53637W        W12898  27.660   4.760  11.890
53638W        W12899  32.444  24.986   0.476
53639W        W12900  17.076  43.416   2.199
53640W        W12901   0.837  42.922  12.917
53641W        W12902   4.881  17.180  10.642
53642W        W12903  28.133  21.553  13.432
53643W        W12904  32.509  27.477  10.980
53644W        W12905  42.341   8.322  11.405
53645W        W12906  34.470  15.262   2.255
53646W        W12907  31.462  32.067   9.991
53647W        W12908  37.390  26.204  11.069
53648W        W12909  11.828  26.112   3.185
53649W        W12910  36.935  42.947  10.415
53650W        W12911  14.110  33.957  11.033
53651W        W12912   7.288  27.048   4.314
53652W        W12913  35.410  11.288  14.986
53653W        W12914  28.032  33.028  13.516
53654W        W12915  23.594   6.261   0.248
53655W        W12916  33.524  43.271  11.396
53656W        W12917  38.822  16.684   4.205
53657W        W12918   8.880   2.446   5.135
53658W        W12919  21.580   2.226  13.019
53659W        W12920  31.481  16.176   0.887
53660W        W12921   8.252  15.712   3.693
53661W        W12922  15.596  24.646   4.254
53662W        W12923   4.299  41.403  13.023
53663W        W12924   9.801  40.307   1.737
53664W        W12925  44.281  44.801   1.720
53665W        W12926  27.166  15.823   5.297
53666W        W12927  40.998  13.109  14.006
53667W        W12928  21.746  40.929   1.412
53668W        W12929  32.473  16.663  11.606
53669W        W12930   9.751  31.064  11.953
53670W        W12931   1.886  28.465  11.086
53671W        W12932  44.487  13.618   0.966
53672W        W12933  11.229  40.325   3.869
53673W        W12934  43.861   0.969   4.679
53674W        W12935  35.854   2.297  12.423
53675W        W12936  26.660  24.050  10.956
53676W        W12937  18.545  20.085  11.964
53677W        W12938  42.399  27.446  11.875
53678W        W12939  35.511  33.601  11.564
53679W        W12940  28.560  36.889   9.503
53680W        W12941   8.900  13.734  14.828
53681W        W12942  29.089  10.875  12.935
53682W        W12943  42.818  29.013  14.782
53683W        W12944   8.860  17.271  13.898
53684W        W12945  37.943  28.049   4.117
53685W        W12946  39.420  38.526  12.923
53686W        W12947   1.400  20.733   2.881
53687W        W12948  19.735  13.185  13.412
53688W        W12949   4.324  41.797  12.355
53689W        W12950   1.913  22.149  14.324
53690W        W12951   5.887  39.052  13.948
53691W        W12952  33.503  14.328  12.824
53692W        W12953  34.472   3.898  14.911
53693W        W12954  43.343  38.897   1.916
53694W        W12955  15.636  27.622  14.945
53695W        W12956  38.956  42.520  12.952
53696W        W12957   2.346  21.142   4.670
53697W        W12958   6.861  22.604  12.344
53698W        W12959  26.004  26.126   3.270
53699W        W12960  38.017  43.956   9.568
53700W        W12961  12.232  34.094  11.415
53701W        W12962  40.408  22.674  11.908
53702W        W12963  44.482  28.980   1.713
53703W        W12964  25.480  20.569  13.992
53704W        W12965  43.798  37.345  13.382
53705W        W12966  31.077  16.788   4.614
53706W        W12967  19.613  34.486   0.809
53707W        W12968  43.299  34.409  13.062
53708W        W12969  15.244  26.469  13.520
53709W        W12970   1.789  22.215  12.827
53710W        W12971   9.798  11.270   4.351
53711W        W12972  24.169  31.064   4.130
53712W        W12973   5.782   3.355  10.562
53713W        W12974  11.772   1.896   0.839
53714W        W12975  39.339  33.039  13.865
53715W        W12976   6.291   6.826   2.743
53716W        W12977  27.639  27.104   0.765
53717W        W12978   9.737  18.770   4.687
53718W        W12979  25.067  15.617   2.284
53719W        W12980   6.787  37.340  11.000
53720W        W12981  41.532   4.791  13.835
53721W        W12982  42.409  29.660   4.192
53722W        W12983  33.091   0.349  10.425
53723W        W12984  36.476  37.566  12.842
53724W        W12985  13.600  11.130   0.865
53725W        W12986  14.652   5.732   3.666
53726W        W12987   3.322  38.344  11.415
53727W        W12988  13.833   6.223   0.282
53728W        W12989   6.869  18.758   3.314
53729W        W12990  14.164  15.301   2.374
53730W        W12991   1.864  15.823  10.443
53731W        W12992   9.755  36.567  14.495
53732W        W12993   7.252  21.025   4.703
53733W        W12994   5.267  10.220  10.993
53734W        W12995   3.291  41.426   2.365
53735W        W12996   4.372  25.111   3.304
53736W        W12997  24.174  15.223   2.253
53737W        W12998  38.068  13.162   3.783
53738W        W12999  21.528  30.428  14.432
53739W        W13000  42.500  34.995  13.387
53740W        W13001  39.917  15.716   0.812
53741W        W13002  15.214  20.267   5.242
53742W        W13003  37.926   4.764   2.268
53743W        W13004  16.631   9.359   1.267
53744W        W13005  36.347  10.775   2.252
53745W        W13006  11.165  31.003   2.893
53746W        W13007  12.247   1.959   0.324
53747W        W13008  42.291  29.145   2.713
53748W        W13009   7.399   5.407  11.887
53749W        W13010   5.815  36.357   0.903
53750W        W13011  28.580  10.797  14.017
53751W        W13012  44.337  27.568  14.284
53752W        W13013  24.722  20.030  12.934
53753W        W13014  14.776  28.558  14.291
53754W        W13015   0.382  31.084  11.878
53755W        W13016  27.163  20.141   0.431
53756W        W13017  39.925  28.107   2.245
53757W        W13018  35.941  25.114  12.935
53758W        W13019  17.763  13.160  11.074
53759W        W13020   0.360  16.589  13.877
53760W        W13021   0.275   2.891   3.377
53761W        W13022  41.866  11.669   5.110
53762W        W13023   7.862  31.414   2.309
53763W        W13024  31.016  21.204  13.838
53764W        W13025  41.398  16.128  11.086
53765W        W13026  39.353  18.226   1.858
53766W        W13027  35.905   8.732  12.435
53767W        W13028  15.162  29.472   1.292
53768W        W13029   5.914  13.636  11.565
53769W        W13030  35.878  37.553   2.749
53770W        W13031  19.611   3.354   2.220
53771W        W13032  11.251  23.989   1.781
53772W        W13033  26.057  38.406  14.004
53773W        W13034  10.813  21.607   1.239
53774W        W13035  16.632   7.223  14.395
53775W        W13036  40.531  26.104   0.855
53776W        W13037  22.630  37.448   3.844
53777W        W13038  31.619   5.708  13.857
53778W        W13039  16.271   1.310  12.061
53779W        W13040   3.427  23.005   0.348
53780W        W13041  39.368  28.974  10.532
53781W        W13042  20.596  41.791   2.798
53782W        W13043   7.849  42.952  10.999
53783W        W13044  10.833  40.936   3.863
53784W        W13045  44.426  18.691  12.843
53785W        W13046   3.812  35.401   1.719
53786W        W13047  32.973   5.382   3.165
53787W        W13048   3.799  37.458   4.126
53788W        W13049   6.794  24.574   2.329
53789W        W13050  17.631  37.465   1.896
53790W        W13051  28.953   0.765   4.759
53791W        W13052  43.444  31.405  13.375
53792W        W13053   4.444  35.865   1.901
53793W        W13054  44.955  19.173   3.726
53794W        W13055  16.177  13.831   3.698
53795W        W13056  25.506   9.773  11.586
53796W        W13057  17.075  44.849  12.413
53797W        W13058  23.543   4.755  14.906
53798W        W13059  16.804  33.131  13.990
53799W        W13060  14.767  37.862   0.373
53800W        W13061  11.788   7.314   2.866
53801W        W13062   5.317  40.921   3.290
53802W        W13063   5.694  10.754   2.334
53803W        W13064  14.094  29.479  11.086
53804W        W13065  32.605  14.154  11.894
53805W        W13066  32.412  29.932  12.517
53806W        W13067   4.747  26.148  13.324
53807W        W13068  38.022  36.967   2.321
53808W        W13069  30.944  41.361   4.207
53809W        W13070  35.855  34.979  11.896
53810W        W13071  20.691  13.793  13.389
53811W        W13072   6.893  17.733   3.715
53812W        W13073   0.401  34.468  13.976
53813W        W13074  41.851  26.498  12.558
53814W        W13075   8.858  38.350  14.277
53815W        W13076  13.152  15.695   0.894
53816W        W13077  24.193   4.408   3.293
53817W        W13078  19.747   8.169   2.859
53818W        W13079   2.955  19.192   1.280
53819W        W13080   8.800  32.971  12.875
53820W        W13081  20.664  32.063  12.470
53821W        W13082  21.153  12.689   2.271
53822W        W13083  38.373  10.169   4.296
53823W        W13084  11.688  42.997  13.443
53824W        W13085   1.343   7.763   0.339
53825W        W13086   9.234  14.827  12.858
53826W        W13087  44.280   5.428   4.726
53827W        W13088  25.030  32.504   4.838
53828W        W13089  35.388  29.560   1.215
53829W        W13090  14.810  20.612   2.813
53830W        W13091  40.931  11.352   2.717
53831W        W13092  43.870  37.395   2.835
53832W        W13093   9.209  44.811   1.844
53833W        W13094  25.675  30.520  12.505
53834W        W13095  25.630  41.298   3.158
53835W        W13096  26.982  40.423   0.474
53836W        W13097  24.654   5.717  14.400
53837W        W13098  38.988  14.685   4.165
53838W        W13099  11.734   5.236  13.487
53839W        W13100   6.753  18.768   4.703
53840W        W13101   6.889   9.713   0.403
53841W        W13102  17.642  33.082  13.539
53842W        W13103   0.346  37.580   1.365
53843W        W13104  12.822  37.416   1.836
53844W        W13105  37.957  15.181   0.880
53845W        W13106  37.052   7.217   4.659
53846W        W13107   8.762  14.610  12.829
53847W        W13108  41.850   9.737  11.499
53848W        W13109  21.218  44.872  11.910
53849W        W13110  26.539  26.536  11.899
53850W        W13111  37.347  14.621  15.000
53851W        W13112   0.849  27.977  10.408
53852W        W13113  15.306   2.390   3.181
53853W        W13114  38.841  26.014  11.023
53854W        W13115  28.442  20.161   0.834
53855W        W13116  44.985  35.038   4.121
53856W        W13117  32.920  39.020   5.743
53857W        W13118   0.419  41.043   1.781
53858W        W13119   7.814  34.001   0.895
53859W        W13120  36.423  23.116   0.274
53860W        W13121  38.844   4.850   3.868
53861W        W13122  13.341  15.819   2.872
53862W        W13123  39.362  18.692   4.150
53863W        W13124   1.400  44.895  10.950
53864W        W13125  29.653  31.960   0.287
53865W        W13126   3.285   4.744  14.766
53866W        W13127  10.337  10.345  12.069
53867W        W13128  20.630  35.004  12.569
53868W        W13129  22.634  28.140   2.280
53869W        W13130  39.520  35.001  13.529
53870W        W13131  10.729  38.946   0.759
53871W        W13132  38.998   5.288  12.071
53872W        W13133  35.097  11.155   5.582
53873W        W13134  44.962  10.342   3.630
53874W        W13135  42.306  31.140   3.337
53875W        W13136  29.507   0.448   1.923
53876W        W13137  40.984  13.792   3.339
53877W        W13138  17.302  27.001  12.952
53878W        W13139   0.391  18.591   2.720
53879W        W13140   9.763  35.962   1.841
53880W        W13141  19.768  12.361  13.009
53881W        W13142  27.015  39.392   1.441
53882W        W13143  15.679  16.812   1.337
53883W        W13144   0.762  33.065  13.548
53884W        W13145  23.667  28.549  12.424
53885W        W13146  43.488   7.839   1.410
53886W        W13147  33.383   2.359  13.419
53887W        W13148   2.807  40.006  11.395
53888W        W13149  39.513  22.700  13.548
53889W        W13150  14.280  40.986   0.824
53890W        W13151  19.178   5.897   1.737
53891W        W13152  28.166  33.464  10.977
53892W        W13153  43.986  14.136   2.345
53893W        W13154  34.426  43.450   5.279
53894W        W13155  33.404   8.847  10.408
53895W        W13156   5.887   5.706   5.099
53896W        W13157  11.334  24.130   2.217
53897W        W13158   0.806  42.794  14.513
53898W        W13159  37.922  37.958   5.764
53899W        W13160  36.464   1.312   3.779
53900W        W13161  40.882  20.591  14.357
53901W        W13162  24.680   5.337  12.888
53902W        W13163  36.933  38.449  11.939
53903W        W13164  17.194   6.183   0.367
53904W        W13165  44.803  14.607   3.728
53905W        W13166  34.883  34.585   1.905
53906W        W13167  23.213  39.870   0.891
53907W        W13168  30.551   3.322  12.850
53908W        W13169  18.555  34.467  10.586
53909W        W13170  27.041  22.995  11.505
53910W        W13171  15.166  42.839  13.900
53911W        W13172  33.499  43.906  13.808
53912W        W13173  30.134  27.980  12.460
53913W        W13174  38.472  15.264  13.860
53914W        W13175   6.289  14.103   1.828
53915W        W13176  44.007  30.648   2.329
53916W        W13177  41.945  38.369  14.293
53917W        W13178  17.081  10.670   0.407
53918W        W13179  25.068   9.394   4.293
53919W        W13180   8.673  10.293   0.383
53920W        W13181  18.564   1.413  11.016
53921W        W13182  22.176  40.838  11.605
53922W        W13183  15.609  36.503  12.862
53923W        W13184  35.369  20.582   4.804
53924W        W13185   5.828  40.476   4.269
53925W        W13186  31.488  11.845   2.345
53926W        W13187   9.178   5.225  13.916
53927W        W13188  13.615  12.186   9.951
53928W        W13189  15.246  18.740  11.486
53929W        W13190  20.211  38.983  12.865
53930W        W13191  30.974  23.535   3.849
53931W        W13192  38.330  23.984  11.575
53932W        W13193  21.033  24.517   2.702
53933W        W13194  23.188  30.085  14.461
53934W        W13195  37.482  32.628  13.414
53935W        W13196  30.529  40.467   0.363
53936W        W13197   0.361  33.392  11.428
53937W        W13198  11.786   1.845  14.316
53938W        W13199  12.136   0.317   4.288
53939W        W13200   1.920  33.936   1.829
53940W        W13201  20.150  37.016   1.422
53941W        W13202  13.187  18.690  11.887
53942W        W13203   7.241  31.548   2.265
53943W        W13204  14.651  42.970  13.940
53944W        W13205  24.588  29.169   3.338
53945W        W13206  37.362  27.101  13.827
53946W        W13207   3.226  25.003  11.422
53947W        W13208  24.108  11.780  12.502
53948W        W13209  28.564  15.630   1.226
53949W        W13210  12.308  25.175  14.986
53950W        W13211  23.023   5.339   4.719
53951W        W13212  35.395  16.728  13.917
53952W        W13213  39.883   8.780   2.326
53953W        W13214  18.268  42.780   1.857
53954W        W13215  32.400   7.752  13.916
53955W        W13216   1.884  26.475   4.817
53956W        W13217  22.147  23.535   0.732
53957W        W13218  43.982   1.460  12.457
53958W        W13219  10.833  24.536  10.587
53959W        W13220  14.120   4.391  14.355
53960W        W13221  38.567  13.834   3.363
53961W        W13222  31.973  41.304   3.743
53962W        W13223   3.461  10.352   2.246
53963W        W13224   1.823  40.049  11.015
53964W        W13225  30.015  30.027   0.895
53965W        W13226  29.983  38.335  12.828
53966W        W13227  43.332  26.131   4.630
53967W        W13228  33.044   8.682   9.441
53968W        W13229  32.065  12.849  12.964
53969W        W13230  26.636  34.094  12.957
53970W        W13231  38.819  44.402   4.143
53971W        W13232  26.578   8.339  11.458
53972W        W13233  14.690  22.028   2.766
53973W        W13234   1.860  23.097  12.919
53974W        W13235  26.181  21.688   4.799
53975W        W13236   8.203  43.397  14.432
53976W        W13237  42.970  43.488   5.141
53977W        W13238  44.010  29.940   0.267
53978W        W13239   6.369   0.962   4.173
53979W        W13240  30.106  30.034  13.434
53980W        W13241   3.435  17.749  14.875
53981W        W13242   7.675  14.303   4.254
53982W        W13243  20.559  44.934   2.338
53983W        W13244  34.015   7.739  10.566
53984W        W13245  43.824  33.905   3.383
53985W        W13246   5.724   9.342  10.548
53986W        W13247   7.375  16.570  12.985
53987W        W13248  11.728  17.251   2.701
53988W        W13249  36.525  21.658   3.825
53989W        W13250  20.120  30.083  10.613
53990W        W13251  23.113  32.569   1.866
53991W        W13252   2.463  30.051  11.425
53992W        W13253  43.406  39.530   1.299
53993W        W13254  38.966   9.347  12.024
53994W        W13255   0.490  38.566  12.001
53995W        W13256  21.571  41.396   1.926
53996W        W13257  22.528  23.649  14.306
53997W        W13258  14.743  35.917  11.425
53998W        W13259  15.294  36.578  11.418
53999W        W13260  33.575  20.251  12.862
54000W        W13261   0.755  38.491  11.868
54001W        W13262  27.638  26.532  10.895
54002W        W13263   3.851  17.137   3.387
54003W        W13264   8.808  34.542   3.681
54004W        W13265  20.623   6.198  10.552
54005W        W13266  14.154   9.652  13.310
54006W        W13267  12.848  11.850   1.727
54007W        W13268  22.566  43.384   4.678
54008W        W13269  14.661  31.509  14.975
54009W        W13270   0.906   1.454   0.836
54010W        W13271  20.552  19.698  13.871
54011W        W13272  28.993  35.032   1.258
54012W        W13273  35.950   7.321   3.194
54013W        W13274  19.156   1.450   2.879
54014W        W13275  35.392   2.381  11.582
54015W        W13276  32.002  29.151   4.252
54016W        W13277  41.383  33.501  14.507
54017W        W13278  32.078  41.024  10.563
54018W        W13279   6.741  37.379   3.787
54019W        W13280  43.887   7.296  13.515
54020W        W13281  18.186  19.600  11.571
54021W        W13282  31.957  23.707   0.266
54022W        W13283  19.553  23.568   9.599
54023W        W13284  25.630   5.360  13.390
54024W        W13285  44.415  26.084  10.526
54025W        W13286  14.165  20.155   4.147
54026W        W13287  33.438   8.766  14.862
54027W        W13288  36.574   1.833   3.265
54028W        W13289  38.977  34.522  14.836
54029W        W13290  38.491  10.811  11.493
54030W        W13291   0.767   0.832  11.404
54031W        W13292  10.195  22.605   3.796
54032W        W13293  24.587  13.309  12.426
54033W        W13294  40.896  17.746  12.560
54034W        W13295  14.132  36.868  10.982
54035W        W13296  30.534  30.007   0.883
54036W        W13297  44.997  18.210   3.668
54037W        W13298  33.880  26.185  11.420
54038W        W13299  18.639  14.211   3.715
54039W        W13300  28.965   5.811  14.472
54040W        W13301  16.088  32.024   1.220
54041W        W13302   7.213  16.097   1.711
54042W        W13303  14.762   1.860  13.056
54043W        W13304  18.204  25.159  10.598
54044W        W13305  10.826  43.284  12.564
54045W        W13306  18.750  17.584  10.461
54046W        W13307  12.761   9.297   4.291
54047W        W13308  32.611   2.894  11.475
54048W        W13309  14.292  23.074   3.677
54049W        W13310  32.431  21.661  11.960
54050W        W13311  15.085  28.625  14.995
54051W        W13312   8.388   9.351   2.345
54052W        W13313  30.151  20.122  10.591
54053W        W13314  27.659  29.952   4.193
54054W        W13315  15.661   1.364   1.331
54055W        W13316   2.834  31.503   2.285
54056W        W13317   2.411  40.047   1.258
54057W        W13318  11.667  38.350   1.763
54058W        W13319  31.464  17.139   0.321
54059W        W13320  37.867   5.769   3.303
54060W        W13321  22.603  28.670  13.808
54061W        W13322  28.633  20.115  12.950
54062W        W13323   7.819  14.651   3.193
54063W        W13324  32.087  18.075  12.057
54064W        W13325  37.460   9.823  14.924
54065W        W13326  15.795   8.859  13.877
54066W        W13327  21.548  38.038   4.793
54067W        W13328  37.405  29.533  11.577
54068W        W13329   8.693  34.476   2.814
54069W        W13330   3.870  29.936  14.930
54070W        W13331   1.845  44.982  13.468
54071W        W13332  26.696  13.773   4.628
54072W        W13333  19.231  19.254   4.162
54073W        W13334   7.265  25.986  10.510
54074W        W13335  20.252  39.372   2.667
54075W        W13336  25.980  26.074   0.927
54076W        W13337  36.848  24.523  14.865
54077W        W13338  33.402  29.972   0.326
54078W        W13339  21.238  43.934   3.643
54079W        W13340  24.077  12.282   4.191
54080W        W13341   4.789  29.922  11.498
54081W        W13342  37.460  38.334  13.467
54082W        W13343  21.168  21.022   3.743
54083W        W13344  12.294  13.127   0.345
54084W        W13345   0.860  18.224  14.777
54085W        W13346  35.540  39.433   1.797
54086W        W13347  11.638  29.066   2.890
54087W        W13348  28.993   4.719  13.991
54088W        W13349  14.742  26.114   1.825
54089W        W13350  10.167  22.148   3.708
54090W        W13351  18.646  17.752   4.193
54091W        W13352  30.568  21.043   2.764
54092W        W13353  23.085  41.863   4.823
54093W        W13354  31.088  14.329   0.802
54094W        W13355  32.538   9.735  12.503
54095W        W13356  27.463  26.114   5.798
54096W        W13357   1.791  27.674   4.274
54097W        W13358  44.899  20.688  14.983
54098W        W13359  39.030   6.190  13.428
54099W        W13360  38.884   6.183  11.006
54100W        W13361  44.376  15.587  12.867
54101W        W13362  24.985  24.707  13.845
54102W        W13363  12.293  43.455  11.896
54103W        W13364  43.780   7.812  11.865
54104W        W13365   6.707  19.253  12.376
54105W        W13366  26.020  40.848   4.202
54106W        W13367  25.696  28.468  12.351
54107W        W13368  15.282  33.036   0.854
54108W        W13369  22.227  39.880  11.535
54109W        W13370  23.997   5.874   4.833
54110W        W13371  29.034  31.999   4.768
54111W        W13372  32.968  23.632  12.827
54112W        W13373   6.770   8.235  13.843
54113W        W13374  29.440  23.584   1.841
54114W        W13375   9.337  13.161  13.377
54115W        W13376  34.910   1.961   1.812
54116W        W13377   2.937  26.608  14.347
54117W        W13378  18.703  13.603   2.234
54118W        W13379  10.293  44.327   1.232
54119W        W13380  36.509   3.721   1.849
54120W        W13381   2.295   5.388   4.745
54121W        W13382   1.376  17.567   1.273
54122W        W13383  12.260   5.215  11.413
54123W        W13384  10.208  12.333  12.397
54124W        W13385  35.972  23.123   3.646
54125W        W13386  11.333  36.917  14.812
54126W        W13387  29.115  24.490   3.217
54127W        W13388   8.326   7.356  11.871
54128W        W13389  36.015   2.771  13.005
54129W        W13390  44.890  37.437  10.490
54130W        W13391   9.195   0.288  14.802
54131W        W13392  28.539  24.669   0.879
54132W        W13393  35.972  35.914   2.878
54133W        W13394   5.248  34.393  13.409
54134W        W13395  41.857  18.090  10.954
54135W        W13396  44.368  10.868   4.225
54136W        W13397  20.075  24.165   4.720
54137W        W13398  42.876  15.103  10.957
54138W        W13399   5.863   7.749  12.997
54139W        W13400  14.683  39.420   4.270
54140W        W13401  33.564  10.753  13.962
54141W        W13402  44.392  17.121  12.345
54142W        W13403  39.514  19.537   1.932
54143W        W13404  37.942   7.294   1.308
54144W        W13405   9.684  39.540  11.953
54145W        W13406   6.890   8.745   0.872
54146W        W13407   4.803  26.694  11.980
54147W        W13408  36.021  32.406   1.769
54148W        W13409  25.017   4.863  14.497
54149W        W13410  40.430  31.114   3.181
54150W        W13411   7.340  40.021  12.485
54151W        W13412  20.070   7.388   3.183
54152W        W13413  10.276  44.798   4.819
54153W        W13414  26.593  27.030   0.800
54154W        W13415   6.734  36.924   4.254
54155W        W13416  18.197  18.089   4.253
54156W        W13417   6.419   8.861   0.877
54157W        W13418   3.264  32.067   3.149
54158W        W13419  24.998   4.797   4.226
54159W        W13420   4.295   9.170   1.759
54160W        W13421  17.648  41.947  13.420
54161W        W13422  44.806   6.375   3.726
54162W        W13423  18.789  18.791  11.390
54163W        W13424   6.353  32.461  12.921
54164W        W13425   3.368  28.615   4.355
54165W        W13426  11.667   6.781   1.923
54166W        W13427   1.460  28.502  12.444
54167W        W13428  31.439   9.820   1.275
54168W        W13429   2.750  18.234   3.247
54169W        W13430  43.381  44.400   1.377
54170W        W13431  38.415   6.715   2.791
54171W        W13432  32.015  34.460  12.874
54172W        W13433  34.948  21.173   1.303
54173W        W13434  18.218  27.159   0.244
54174W        W13435  33.123   5.259   3.777
54175W        W13436   5.746  23.641  12.447
54176W        W13437   9.662  21.667   2.327
54177W        W13438   3.808   6.205   0.776
54178W        W13439  23.239   4.335   3.788
54179W        W13440  16.146   9.293  11.043
54180W        W13441  22.081  10.315  12.383
54181W        W13442  18.220  22.059   1.361
54182W        W13443  10.282  35.889   1.429
54183W        W13444  21.616  32.496   4.123
54184W        W13445   8.342   6.718   1.910
54185W        W13446  32.026  36.513   0.734
54186W        W13447  15.258  26.012   3.344
54187W        W13448  19.159  43.460   4.756
54188W        W13449  19.081  11.137  11.078
54189W        W13450   5.431  17.278   3.221
54190W        W13451  22.584  37.998   2.357
54191W        W13452  27.641  29.944   3.831
54192W        W13453  15.283   2.423   1.219
54193W        W13454  24.527   0.388  10.959
54194W        W13455  24.123  19.683   3.310
54195W        W13456  36.854  28.621   4.223
54196W        W13457   1.923  29.036  11.989
54197W        W13458  27.953  34.517   3.677
54198W        W13459  29.141  19.040  10.610
54199W        W13460  35.859  25.622  14.383
54200W        W13461  33.990  17.728  14.855
54201W        W13462  28.507  25.606  10.477
54202W        W13463  35.966  38.571  12.033
54203W        W13464  44.940  23.005  13.360
54204W        W13465   2.873   3.782  11.962
54205W        W13466   0.453  13.123  10.986
54206W        W13467  43.812  39.934  13.331
54207W        W13468  35.566  38.362  12.545
54208W        W13469  31.530  35.007  11.390
54209W        W13470  22.638  29.026  11.436
54210W        W13471  12.247  30.609  14.393
54211W        W13472  34.067  35.601   5.641
54212W        W13473  41.338   4.301   1.825
54213W        W13474  39.834  44.953   3.313
54214W        W13475  20.047  33.074   0.421
54215W        W13476  19.578  30.577  11.387
54216W        W13477   6.261  11.637  14.443
54217W        W13478  18.229  12.799  11.389
54218W        W13479   5.361  15.134   2.897
54219W        W13480   9.863  14.683  10.942
54220W        W13481  27.598  23.731  11.557
54221W        W13482   2.394  38.062  10.405
54222W        W13483  39.039   3.219   0.436
54223W        W13484  40.026   0.288   3.267
54224W        W13485  15.675   8.827   3.641
54225W        W13486  10.271  18.226  13.476
54226W        W13487  23.210  15.148   4.294
54227W        W13488  30.154  12.684  12.931
54228W        W13489  32.909  15.626  12.042
54229W        W13490   9.380  19.096   4.625
54230W        W13491  34.606  11.156   5.220
54231W        W13492  21.514   9.213  13.980
54232W        W13493   8.393  23.098  13.034
54233W        W13494   6.872  38.433   4.294
54234W        W13495  20.712  39.862  12.392
54235W        W13496  19.545  24.571  13.537
54236W        W13497   9.341   8.758  13.441
54237W        W13498   4.255  13.635  10.415
54238W        W13499  26.510  35.943   4.761
54239W        W13500   3.882   9.869  11.536
54240W        W13501  33.572  19.759   3.710
54241W        W13502  24.190  36.531   3.272
54242W        W13503   6.694  13.138  14.765
54243W        W13504   1.969  16.770   2.715
54244W        W13505  31.012  10.777  10.470
54245W        W13506   2.313  39.449   0.308
54246W        W13507  25.628  10.178  13.836
54247W        W13508  13.715   6.916  10.985
54248W        W13509  20.570  14.639  11.467
54249W        W13510  22.215  32.893   3.776
54250W        W13511  38.334   1.481   3.333
54251W        W13512  37.524  42.424   9.999
54252W        W13513  32.487   9.810   9.959
54253W        W13514  34.386  34.383  13.373
54254W        W13515  22.546   1.876   4.650
54255W        W13516  16.159   1.935   4.321
54256W        W13517   6.727  22.136  13.852
54257W        W13518  22.108  20.038   3.634
54258W        W13519  25.558  44.392  11.048
54259W        W13520   9.798  20.038  13.042
54260W        W13521  32.080  24.495  10.412
54261W        W13522  40.527  43.856  11.405
54262W        W13523  39.320   9.751  12.364
54263W        W13524   0.264  25.971   4.346
54264W        W13525   2.958  24.533  14.920
54265W        W13526   7.186  25.127  13.992
54266W        W13527  35.563  19.159   3.272
54267W        W13528  13.336  12.133  14.835
54268W        W13529  22.509  17.211  11.966
54269W        W13530  16.687  32.102   0.761
54270W        W13531  15.292  40.396  12.446
54271W        W13532  13.133  39.468   3.353
54272W        W13533  23.696   2.947   4.236
54273W        W13534  15.588   2.802  12.034
54274W        W13535  15.625  41.381   0.294
54275W        W13536  21.052  40.449   4.127
54276W        W13537  29.506  13.283   4.326
54277W        W13538  32.071  22.231  12.054
54278W        W13539  23.723  20.591  12.367
54279W        W13540  35.878   3.758   0.810
54280W        W13541  13.294  21.203   3.152
54281W        W13542  41.521  13.261  11.487
54282W        W13543  35.564  32.420  11.046
54283W        W13544  10.293  41.397   2.344
54284W        W13545  15.235  28.445  11.981
54285W        W13546  27.520   6.864  10.916
54286W        W13547  15.318  15.238  11.434
54287W        W13548  30.531  34.912   1.314
54288W        W13549  27.476   0.904  12.475
54289W        W13550  43.916  24.190  10.504
54290W        W13551   5.781  41.474   1.218
54291W        W13552  25.576  33.002  13.353
54292W        W13553  39.809  37.561   2.343
54293W        W13554  19.225  30.135  11.552
54294W        W13555  17.159  19.711   1.403
54295W        W13556  25.118  16.237  14.486
54296W        W13557  12.242  27.513   0.780
54297W        W13558  14.099   8.848  13.381
54298W        W13559  44.339  26.095  14.864
54299W        W13560  33.940  11.157  12.442
54300W        W13561   9.216  22.161  12.561
54301W        W13562  33.439   9.357   4.623
54302W        W13563  25.105  16.086   1.861
54303W        W13564  28.578   6.362  10.543
54304W        W13565  31.407  10.287   0.821
54305W        W13566  18.637  16.761   0.394
54306W        W13567   2.896  30.948   4.659
54307W        W13568  15.603   4.236  13.797
54308W        W13569  20.669  37.998   1.426
54309W        W13570  39.048  40.875  13.334
54310W        W13571  40.414   2.805   4.289
54311W        W13572  12.851   6.917   0.326
54312W        W13573  39.931   8.854   2.679
54313W        W13574   0.446  22.623   1.925
54314W        W13575  28.487  24.556   1.384
54315W        W13576   8.703   4.356   4.148
54316W        W13577  23.004  41.493   0.445
54317W        W13578  25.011   8.739   9.951
54318W        W13579  28.127  29.051   4.713
54319W        W13580  17.218   9.678   4.310
54320W        W13581  35.003  34.945   3.638
54321W        W13582  36.367  18.736   4.165
54322W        W13583   4.266  43.473  14.511
54323W        W13584  36.540  10.851   0.335
54324W        W13585  12.158  28.498  11.382
54325W        W13586  34.609  31.591   0.843
54326W        W13587  39.425  35.088  12.493
54327W        W13588  15.817  34.050  13.324
54328W        W13589  24.038  11.707   3.715
54329W        W13590  27.549  31.966  10.413
54330W        W13591  29.977  37.899   0.906
54331W        W13592   2.331  43.008   3.824
54332W        W13593  23.585  14.760  13.525
54333W        W13594   7.245  20.099  12.404
54334W        W13595  20.270   3.922  11.384
54335W        W13596  38.977  24.186  13.408
54336W        W13597  36.877  36.056  13.311
54337W        W13598  41.299  38.898   0.949
54338W        W13599  20.628  32.633  11.012
54339W        W13600  24.028  21.524  10.476
54340W        W13601  10.826   5.200   0.326
54341W        W13602  21.587  13.818  13.807
54342W        W13603  36.402   3.261   4.311
54343W        W13604  31.039  17.280  12.418
54344W        W13605  30.527  25.653  14.877
54345W        W13606  42.885  12.753   1.221
54346W        W13607  17.240   8.381   4.125
54347W        W13608  18.628   6.367  10.569
54348W        W13609  34.485  41.418  13.991
54349W        W13610  34.460  13.115  11.573
54350W        W13611  26.683  34.918   0.295
54351W        W13612   5.262  26.023  14.946
54352W        W13613   3.267  14.613   5.267
54353W        W13614  20.141   3.946  10.455
54354W        W13615  21.052  33.616   0.886
54355W        W13616  21.021  11.216   3.721
54356W        W13617  36.045   0.373   3.245
54357W        W13618  40.800   3.448  13.874
54358W        W13619  22.745   1.335   1.389
54359W        W13620  21.025   4.772   1.256
54360W        W13621  26.504  40.347   5.233
54361W        W13622  27.130  17.670  11.867
54362W        W13623  16.704   6.783   4.811
54363W        W13624  27.611   1.327   4.153
54364W        W13625  19.178  28.449   1.808
54365W        W13626   5.337   4.207  13.372
54366W        W13627  41.939   9.177   3.748
54367W        W13628  32.529  10.669   5.784
54368W        W13629   6.717  13.698   4.133
54369W        W13630  16.653  43.921   1.743
54370W        W13631  33.611  10.867  13.411
54371W        W13632   8.886  39.534  12.429
54372W        W13633  19.147  23.621   3.850
54373W        W13634  27.103  41.300   5.236
54374W        W13635  42.505  19.192   2.238
54375W        W13636  43.915   4.383   3.741
54376W        W13637  32.461  41.043  14.968
54377W        W13638   1.409  44.294   4.119
54378W        W13639  42.327   8.187   1.842
54379W        W13640  44.448  34.957   4.725
54380W        W13641  30.143  31.498  14.877
54381W        W13642  26.044  18.219  11.881
54382W        W13643  37.431  12.766  12.902
54383W        W13644  44.782  35.532  12.489
54384W        W13645  13.730  21.083   5.189
54385W        W13646  34.555  11.145  13.545
54386W        W13647  34.493  12.176  12.876
54387W        W13648  15.091  19.201   9.622
54388W        W13649  25.206  22.538   1.380
54389W        W13650  27.078   9.371  12.923
54390W        W13651  40.543  23.672  14.512
54391W        W13652  39.536  19.574   1.319
54392W        W13653  19.717  12.714  11.948
54393W        W13654  16.602   4.750  11.983
54394W        W13655  29.605  13.670  12.849
54395W        W13656  40.443  44.002  10.465
54396W        W13657   3.244  34.526   3.342
54397W        W13658  22.139  43.842  11.122
54398W        W13659   0.430   3.908  14.960
54399W        W13660  19.145  16.603   5.717
54400W        W13661  24.623   7.774  13.394
54401W        W13662  43.399  16.632   1.800
54402W        W13663  28.010  16.729   1.843
54403W        W13664  13.629  21.637   3.166
54404W        W13665  16.309  29.537   4.823
54405W        W13666  15.729  13.349  13.536
54406W        W13667  42.387  32.530  12.413
54407W        W13668  38.530  36.542  14.012
54408W        W13669  16.193  27.057   0.793
54409W        W13670   0.300  36.851  14.957
54410W        W13671  38.848   8.390  14.884
54411W        W13672   7.678  14.802   4.833
54412W        W13673  13.777   8.230   4.645
54413W        W13674  43.349  25.996   1.264
54414W        W13675  28.569  10.250   1.739
54415W        W13676  20.721  22.194  14.398
54416W        W13677  21.200  19.213  14.294
54417W        W13678  23.728  37.388   0.728
54418W        W13679  12.775  31.151  14.881
54419W        W13680  44.305   0.835   2.345
54420W        W13681  35.560  44.941  10.622
54421W        W13682   3.939  40.350  10.099
54422W        W13683  28.654  31.494   1.822
54423W        W13684  12.186   9.250   4.273
54424W        W13685  33.564  40.946   2.339
54425W        W13686  14.786  19.130  11.109
54426W        W13687  41.814  28.024  11.127
54427W        W13688  44.975  21.679  13.544
54428W        W13689  27.082  40.976  14.888
54429W        W13690  25.167  35.482  12.993
54430W        W13691  23.164  44.887   4.239
54431W        W13692  20.230  21.713   2.400
54432W        W13693  29.026  10.849  11.909
54433W        W13694  29.137  29.603   1.749
54434W        W13695  22.636  27.569  11.050
54435W        W13696  38.959  44.474  11.395
54436W        W13697  38.327  29.105  14.409
54437W        W13698  44.009  29.565  11.536
54438W        W13699  21.615  31.576   0.879
54439W        W13700  29.652  33.383  10.011
54440W        W13701   1.932   0.361  14.501
54441W        W13702  28.999  13.644   5.279
54442W        W13703   1.749  36.061  12.566
54443W        W13704   3.799  10.763  11.061
54444W        W13705  25.697  12.834  10.543
54445W        W13706  17.244  12.146  14.814
54446W        W13707  39.451   6.821  14.002
54447W        W13708   1.888  29.644   4.790
54448W        W13709  32.458  11.165   9.547
54449W        W13710   5.809  25.139   1.929
54450W        W13711  30.544   0.394  13.000
54451W        W13712  29.148  12.655   1.434
54452W        W13713   0.252   2.231   0.800
54453W        W13714  12.358   7.687  10.987
54454W        W13715  26.470  15.612  10.542
54455W        W13716  44.502  42.515   1.858
54456W        W13717  15.104  34.587  11.865
54457W        W13718  38.428  26.162  12.942
54458W        W13719  13.689  34.574   2.783
54459W        W13720  23.689  24.108  11.092
54460W        W13721  43.279  30.003  13.426
54461W        W13722  28.072  44.862   2.859
54462W        W13723  40.857  34.439  12.854
54463W        W13724  43.425  33.929   3.147
54464W        W13725  14.650  33.891   4.639
54465W        W13726  41.041   3.324  11.042
54466W        W13727  42.482   8.827   1.903
54467W        W13728  25.038   1.824  13.831
54468W        W13729  40.310  30.067   1.708
54469W        W13730  11.670  35.470  14.478
54470W        W13731   5.727  25.583  14.846
54471W        W13732  19.261  16.702  10.456
54472W        W13733  20.600  20.611  14.894
54473W        W13734  40.996   7.279  13.544
54474W        W13735   4.363  36.979   3.227
54475W        W13736  38.540  43.017  10.558
54476W        W13737  42.493  43.817  11.921
54477W        W13738  12.313   7.201  13.469
54478W        W13739  11.706  11.226   2.234
54479W        W13740   2.386  39.930  13.873
54480W        W13741  36.047  11.758   4.280
54481W        W13742  29.971   6.300  10.551
54482W        W13743  34.939  25.136   3.286
54483W        W13744  44.263   2.448   1.269
54484W        W13745  23.139  23.684  14.857
54485W        W13746   4.259   0.928  13.383
54486W        W13747  17.212  32.924   3.298
54487W        W13748  35.586  24.502  11.875
54488W        W13749  39.997  35.401   2.348
54489W        W13750  30.540   1.875  13.448
54490W        W13751   6.729  20.601   0.789
54491W        W13752   7.351  36.053   4.795
54492W        W13753  34.536  29.995  12.041
54493W        W13754  36.510  14.136   3.189
54494W        W13755  22.616  10.361   4.682
54495W        W13756   4.336  43.959  10.554
54496W        W13757  12.627  31.439  14.014
54497W        W13758  19.728  12.302  13.802
54498W        W13759  42.380  15.775  13.968
54499W        W13760   6.203  42.959  10.116
54500W        W13761   7.753  24.540   1.273
54501W        W13762  30.519   8.243   1.905
54502W        W13763   3.872  40.485  10.568
54503W        W13764  18.102  31.509   2.363
54504W        W13765  42.836  34.584   2.871
54505W        W13766  16.153  12.666   0.337
54506W        W13767  30.480  10.838   0.768
54507W        W13768  10.186  39.357   3.235
54508W        W13769   5.913  18.617   0.441
54509W        W13770  42.387   7.879  10.428
54510W        W13771  13.207  12.649   5.636
54511W        W13772  35.405   7.726  13.916
54512W        W13773   9.706   3.911   1.271
54513W        W13774  25.177  22.501  12.859
54514W        W13775  22.223  27.117  14.402
54515W        W13776  38.446  15.778  12.477
54516W        W13777  37.516  24.100  11.960
54517W        W13778  26.681  40.374   3.743
54518W        W13779  23.653   3.787   4.793
54519W        W13780   7.689  28.513   4.227
54520W        W13781  25.005  31.949   3.292
54521W        W13782  19.272  16.077  14.838
54522W        W13783   3.836  39.884  10.946
54523W        W13784   4.836  36.087  14.415
54524W        W13785  42.461  34.512   1.870
54525W        W13786  33.432  38.930   3.797
54526W        W13787  12.700  14.289   3.353
54527W        W13788  18.698  11.228  11.932
54528W        W13789  12.339  41.811   4.197
54529W        W13790   0.291  12.653  10.950
54530W        W13791   2.733  42.832  13.386
54531W        W13792  31.992  20.099   4.617
54532W        W13793   2.934   9.843  10.626
54533W        W13794  31.419  22.055   1.228
54534W        W13795  20.604   0.948   2.666
54535W        W13796  18.209   8.663  11.422
54536W        W13797  38.915   5.314  13.373
54537W        W13798  19.162  21.688   1.885
54538W        W13799  35.372  34.956   1.874
54539W        W13800  21.755  34.952  11.547
54540W        W13801  34.975  44.808   1.861
54541W        W13802  24.628  17.595   2.376
54542W        W13803   0.912  16.314   3.652
54543W        W13804  24.529   4.373   4.164
54544W        W13805   8.751  37.947  13.372
54545W        W13806  39.973  44.942   2.253
54546W        W13807  41.989  14.113  11.501
54547W        W13808  15.183   2.866  12.043
54548W        W13809  29.499   7.796  10.628
54549W        W13810  25.169  12.261  10.421
54550W        W13811   9.197  36.501  14.859
54551W        W13812  39.854  35.445  12.376
54552W        W13813   8.666   4.362  13.965
54553W        W13814   1.926  27.479   0.279
54554W        W13815   4.775  31.084   4.820
54555W        W13816  15.615  39.404   2.321
54556W        W13817   5.838   6.292   3.810
54557W        W13818   8.753  28.462  11.939
54558W        W13819  39.328  43.928   2.687
54559W        W13820  43.347  32.984   0.448
54560W        W13821   5.216  33.592  12.054
54561W        W13822  30.514  21.757  10.520
54562W        W13823  16.131  21.599   4.818
54563W        W13824  14.233  19.093   2.289
54564W        W13825   1.748   1.463  13.339
54565W        W13826  21.547   8.362   1.732
54566W        W13827  13.600  33.058   2.394
54567W        W13828  18.716  39.963   4.270
54568W        W13829  38.060   4.892  10.892
54569W        W13830  37.397  34.111  11.411
54570W        W13831  42.801   3.749  13.545
54571W        W13832   3.260  27.452   2.203
54572W        W13833  25.664  23.203   2.710
54573W        W13834  38.534  25.017   1.379
54574W        W13835  29.611  32.959  11.528
54575W        W13836  26.027  20.196   3.730
54576W        W13837  11.725  26.016  13.416
54577W        W13838  26.005  26.691   4.789
54578W        W13839   1.310   1.868  12.055
54579W        W13840  17.597  33.112  14.325
54580W        W13841  10.747   7.386   2.716
54581W        W13842  29.973  24.613   4.785
54582W        W13843   1.349   4.801   4.134
54583W        W13844   6.904   3.360  12.850
54584W        W13845  18.592  37.931  13.370
54585W        W13846  31.515  38.343  13.381
54586W        W13847  16.076  40.402  14.367
54587W        W13848  14.630  42.835   5.242
54588W        W13849   7.764  27.517   4.616
54589W        W13850  31.059  26.687   0.409
54590W        W13851  18.267  12.656   4.704
54591W        W13852  26.157  39.494  10.601
54592W        W13853  15.094   9.776   1.411
54593W        W13854  27.086   9.178  14.024
54594W        W13855  26.969  30.610  10.910
54595W        W13856  19.671  38.058   2.196
54596W        W13857  42.992  39.337   0.762
54597W        W13858  34.099  21.514  14.993
54598W        W13859   9.215   4.282  13.330
54599W        W13860  23.697   4.373   2.232
54600W        W13861   2.756  21.254   4.267
54601W        W13862  35.957  16.172   0.478
54602W        W13863  24.061  24.143   5.733
54603W        W13864   8.332  12.744   3.723
54604W        W13865   8.792  34.388  12.917
54605W        W13866  26.201   6.290   2.852
54606W        W13867  12.131  34.490  12.826
54607W        W13868  43.297   9.302  12.446
54608W        W13869  21.122  16.136   1.221
54609W        W13870  13.794  28.120   4.223
54610W        W13871  26.051   5.710  13.449
54611W        W13872   1.944  35.043   4.758
54612W        W13873  30.568  33.077   9.641
54613W        W13874  12.795  16.289  13.832
54614W        W13875  36.934   8.666   3.284
54615W        W13876   6.341  21.620   0.419
54616W        W13877  44.292  19.742  13.450
54617W        W13878  35.595  11.745   3.326
54618W        W13879  37.558  39.531  12.983
54619W        W13880  14.672   8.225   0.801
54620W        W13881  40.950  21.630   3.706
54621W        W13882  11.791  40.887  11.072
54622W        W13883  38.029  41.426  12.407
54623W        W13884  25.518  19.613  13.368
54624W        W13885  17.064   4.269   4.686
54625W        W13886  39.432   1.779  10.948
54626W        W13887  19.261  32.556  13.365
54627W        W13888   2.803  22.745   0.464
54628W        W13889  25.586  10.271  14.962
54629W        W13890  18.110  10.262   4.122
54630W        W13891  30.503  26.967  14.991
54631W        W13892   5.309  42.484   4.303
54632W        W13893  12.698  35.985   2.779
54633W        W13894  34.598   0.374  14.899
54634W        W13895  11.810  22.041   2.664
54635W        W13896  13.240   2.404  11.433
54636W        W13897  43.765  20.188   0.893
54637W        W13898  22.667   9.725  12.486
54638W        W13899  40.038  14.620  10.952
54639W        W13900  42.504  23.128  12.910
54640W        W13901  13.323  25.614   0.945
54641W        W13902  12.824  12.781   2.692
54642W        W13903  18.166  39.500   3.239
54643W        W13904  15.194   2.863  12.468
54644W        W13905   8.860  18.771  12.379
54645W        W13906   0.373  16.776   0.780
54646W        W13907  19.671  14.328   0.439
54647W        W13908  40.976  36.958  12.873
54648W        W13909  28.611  34.477  12.408
54649W        W13910   6.347  26.568  12.359
54650W        W13911   2.832  28.472  11.859
54651W        W13912  10.745  23.000  12.393
54652W        W13913  14.132  31.091  13.533
54653W        W13914  43.342   5.287   4.736
54654W        W13915   5.389  31.531  12.066
54655W        W13916  35.550   3.881  12.997
54656W        W13917  30.510  43.478   0.258
54657W        W13918  17.270  30.497   2.352
54658W        W13919  30.437  24.719   2.238
54659W        W13920   0.827  22.183  12.927
54660W        W13921  31.923  36.441  13.436
54661W        W13922  27.676  15.606   0.404
54662W        W13923  34.880   4.940   3.634
54663W        W13924  33.563  30.595   2.679
54664W        W13925  18.090  25.528  12.919
54665W        W13926  14.766   0.297   3.773
54666W        W13927  39.905   2.240  14.451
54667W        W13928  17.204  25.711   0.323
54668W        W13929  29.096  26.180   0.418
54669W        W13930   0.796  14.143  13.456
54670W        W13931   4.829   7.784   2.279
54671W        W13932  38.340  11.759  14.375
54672W        W13933  34.014   9.739  12.059
54673W        W13934  42.493  38.423  12.943
54674W        W13935  13.128   6.803   1.239
54675W        W13936  11.864   9.881   2.219
54676W        W13937  18.109  27.094  11.124
54677W        W13938   2.303  40.920  10.521
54678W        W13939   0.337  41.861   1.785
54679W        W13940  20.041   7.310   0.456
54680W        W13941   9.695  32.131   2.289
54681W        W13942   3.298  18.586   1.787
54682W        W13943  14.259  34.098   2.808
54683W        W13944  26.177  40.500  13.055
54684W        W13945   2.299   1.939   2.844
54685W        W13946   4.205  28.081  13.885
54686W        W13947  43.989   3.424   4.826
54687W        W13948  28.590  41.370  13.846
54688W        W13949   6.714  33.553   3.698
54689W        W13950  34.967   5.377   4.195
54690W        W13951   3.867  12.778  13.455
54691W        W13952  30.100  12.621   2.755
54692W        W13953   9.762  28.467  10.427
54693W        W13954  22.573  20.241   1.747
54694W        W13955  18.292   1.935  14.417
54695W        W13956  11.822   1.972   0.268
54696W        W13957   8.256  37.510   1.720
54697W        W13958  23.582  16.773  11.091
54698W        W13959   1.283  41.800  12.354
54699W        W13960  40.855  44.259  11.550
54700W        W13961  11.181  21.153   1.728
54701W        W13962  15.319   2.430   4.825
54702W        W13963  44.351  40.441   2.773
54703W        W13964  34.883  14.200   3.191
54704W        W13965  36.458  11.622   5.102
54705W        W13966  32.028  14.211   2.735
54706W        W13967  39.341  25.184   0.281
54707W        W13968  17.161  43.303   3.858
54708W        W13969  37.060   6.723   3.761
54709W        W13970  35.072  37.338  13.854
54710W        W13971   1.852   4.908  11.097
54711W        W13972  15.686   5.429   3.230
54712W        W13973  29.651  42.309   0.316
54713W        W13974  41.424   0.463   3.269
54714W        W13975  37.933   6.312  14.481
54715W        W13976   5.207  43.953  11.004
54716W        W13977  29.974  42.840   1.814
54717W        W13978   1.270  39.842  13.937
54718W        W13979  37.438   5.696   3.167
54719W        W13980  39.965  19.159  11.415
54720W        W13981   8.831  40.469  11.934
54721W        W13982  42.989  43.778   2.339
54722W        W13983  37.516   7.892  12.946
54723W        W13984  44.981  26.574  11.003
54724W        W13985  19.575  41.801  12.880
54725W        W13986  32.968  30.603   0.936
54726W        W13987   7.225  13.108  11.871
54727W        W13988  23.001   6.188   4.755
54728W        W13989  19.198   2.352   0.402
54729W        W13990  24.553  29.578   2.198
54730W        W13991   0.821  43.850  12.061
54731W        W13992  20.063   4.234  14.999
54732W        W13993  28.182   6.770  14.007
54733W        W13994  18.663   8.850  11.611
54734W        W13995  42.453  44.427  11.108
54735W        W13996  31.420  41.011  11.919
54736W        W13997   2.932  33.404  11.598
54737W        W13998  36.850  30.414   0.857
54738W        W13999  33.480  20.579   0.742
54739W        W14000  14.152  39.345   1.263
54740W        W14001  19.173  26.675  10.442
54741W        W14002   3.251  43.790   9.986
54742W        W14003  12.224  32.899  14.369
54743W        W14004  19.254   7.861  11.865
54744W        W14005  31.570  32.548   1.754
54745W        W14006   1.276  15.319   1.409
54746W        W14007  17.610   1.913   4.838
54747W        W14008  11.753  33.503   1.853
54748W        W14009  18.701  22.084  14.870
54749W        W14010  21.733  25.076   3.814
54750W        W14011  42.933  27.968   2.222
54751W        W14012  42.846  22.093  14.463
54752W        W14013   7.854  26.613  10.411
54753W        W14014  27.153  23.216   2.759
54754W        W14015  33.128  23.219  11.376
54755W        W14016  25.505  28.650   3.734
54756W        W14017  17.233  29.668  11.866
54757W        W14018  31.405   9.206   4.188
54758W        W14019  34.011  11.623   2.885
54759W        W14020   0.377   7.677   4.157
54760W        W14021  24.625   4.839   1.431
54761W        W14022  19.603  31.491   1.382
54762W        W14023  26.951  31.035   0.456
54763W        W14024  27.962  16.235   3.255
54764W        W14025   8.693  25.050   4.689
54765W        W14026   8.895  25.086   3.636
54766W        W14027   4.740  38.955  11.468
54767W        W14028  28.651  20.714  11.406
54768W        W14029  11.248  22.593   1.850
54769W        W14030  31.110  39.326  11.577
54770W        W14031  18.054   2.446   4.622
54771W        W14032  29.939  26.563   4.819
54772W        W14033   1.957  26.485  14.463
54773W        W14034  11.334  14.686  14.496
54774W        W14035   6.220  28.669   1.261
54775W        W14036  30.633  41.491   9.935
54776W        W14037  20.677  16.150  11.887
54777W        W14038  17.114   0.868  12.844
54778W        W14039   5.858  22.524  10.887
54779W        W14040  35.540  37.580  11.552
54780W        W14041  40.977  13.188   2.304
54781W        W14042  29.617  13.654   3.246
54782W        W14043   1.965  20.581   3.276
54783W        W14044  17.568  30.137  14.951
54784W        W14045  37.455  29.960  10.934
54785W        W14046  36.578  30.033   3.684
54786W        W14047  32.972  17.299   4.750
54787W        W14048  30.449  11.352  12.894
54788W        W14049   4.804  17.178   2.396
54789W        W14050  42.521  29.145   2.269
54790W        W14051  17.149  43.286  10.925
54791W        W14052   5.332   5.235  14.782
54792W        W14053   4.745  13.687  12.967
54793W        W14054  41.899   3.913   3.720
54794W        W14055   8.233  18.060   2.773
54795W        W14056   4.885  33.056  11.878
54796W        W14057  39.326  20.096   4.709
54797W        W14058  42.845  40.036   4.253
54798W        W14059  28.569  35.469  11.430
54799W        W14060  39.874  15.714   2.662
54800W        W14061   4.441  44.299   2.223
54801W        W14062  20.589   2.404   2.301
54802W        W14063  20.212   0.315  14.787
54803W        W14064  36.403  38.020  10.541
54804W        W14065  16.628  42.286   1.807
54805W        W14066  17.218  28.580  12.525
54806W        W14067  43.461  11.706  14.401
54807W        W14068  10.750  37.065  11.598
54808W        W14069   1.785  30.995   0.811
54809W        W14070  43.328  29.106  12.899
54810W        W14071   0.431   8.271  13.959
54811W        W14072  40.833  26.951   2.215
54812W        W14073  16.612  16.162   0.372
54813W        W14074  18.791  31.546   3.292
54814W        W14075   0.413  28.174  12.425
54815W        W14076  44.758  28.170  10.613
54816W        W14077  23.145  43.294   1.747
54817W        W14078  19.697  24.619  10.944
54818W        W14079   2.897  40.854   4.230
54819W        W14080  44.902   1.970  11.973
54820W        W14081   5.327  44.311  11.540
54821W        W14082  15.313  13.676   3.693
54822W        W14083  43.294   8.681  13.942
54823W        W14084  42.781  18.752  13.044
54824W        W14085  27.017  29.125  14.310
54825W        W14086  17.300  23.585   4.266
54826W        W14087  43.368  37.992  13.493
54827W        W14088   4.414  11.297   3.291
54828W        W14089  26.059  40.443   3.248
54829W        W14090  35.469  25.043  13.908
54830W        W14091   5.412  33.967  11.008
54831W        W14092  11.702  23.139  13.882
54832W        W14093  20.769  28.513  11.004
54833W        W14094  26.167   3.303   0.476
54834W        W14095  36.085  38.465   4.634
54835W        W14096  25.201  22.201  12.550
54836W        W14097  33.409  37.452   0.359
54837W        W14098  29.551  22.186   3.761
54838W        W14099  42.488   2.966   2.716
54839W        W14100  36.945   9.150  11.541
54840W        W14101  33.055  44.366  12.892
54841W        W14102  28.100  22.185   1.249
54842W        W14103  44.466  35.511   0.293
54843W        W14104  10.357  31.926   4.331
54844W        W14105  38.022  23.117  10.892
54845W        W14106  41.038  37.516  14.291
54846W        W14107  34.919   3.395   4.323
54847W        W14108  40.472  12.339   3.754
54848W        W14109  27.656  23.506  10.899
54849W        W14110  24.164  44.963   2.180
54850W        W14111  27.126  24.045   4.314
54851W        W14112  42.963  36.549   4.343
54852W        W14113  15.133  17.071  10.954
54853W        W14114  29.513  43.308   4.787
54854W        W14115  32.432  30.087  11.911
54855W        W14116  35.101   8.343  13.336
54856W        W14117   4.702  36.893   1.294
54857W        W14118  29.135  41.035   4.115
54858W        W14119   1.356  15.192  10.615
54859W        W14120  18.570  15.728  13.316
54860W        W14121  10.856   6.423  13.802
54861W        W14122   2.852   4.294   0.443
54862W        W14123  17.700   9.364   2.670
54863W        W14124  33.889   8.346  10.575
54864W        W14125  21.065   3.752  12.036
54865W        W14126  30.127  27.126   1.903
54866W        W14127   5.218  25.659   3.675
54867W        W14128  11.150  31.915   2.328
54868W        W14129  41.334  33.937  13.820
54869W        W14130  13.697  35.596  14.331
54870W        W14131  26.525  19.769  14.504
54871W        W14132  42.894  18.089  12.349
54872W        W14133   8.181  38.862   1.244
54873W        W14134  13.660  25.216  13.791
54874W        W14135  38.063  26.163   0.879
54875W        W14136  17.710   4.891   3.312
54876W        W14137  11.272  19.045   1.410
54877W        W14138  38.978  18.637   0.860
54878W        W14139  18.583  23.599  13.454
54879W        W14140   2.365  43.906   1.821
54880W        W14141  21.643   1.312   4.264
54881W        W14142  18.764   1.412  12.382
54882W        W14143  41.294  26.098  14.299
54883W        W14144  24.504  35.940   3.180
54884W        W14145  21.046  11.841  14.286
54885W        W14146  36.473  37.482  13.480
54886W        W14147   5.332  38.068   0.759
54887W        W14148   2.311  24.689  10.911
54888W        W14149  18.249  25.109  14.862
54889W        W14150   5.829  32.010   4.148
54890W        W14151  35.975   7.191  13.489
54891W        W14152  42.967   9.200  14.355
54892W        W14153  19.253  14.106   3.176
54893W        W14154  30.948  29.080  10.936
54894W        W14155   4.820  13.217   0.314
54895W        W14156  41.499   3.263   1.726
54896W        W14157   4.840  38.861   2.225
54897W        W14158  38.523  34.385   2.744
54898W        W14159  13.617  18.732  14.819
54899W        W14160  30.638  42.891   4.700
54900W        W14161   0.963  18.676  13.881
54901W        W14162  13.675  42.381   4.625
54902W        W14163   6.357   4.229   4.213
54903W        W14164  32.086  21.022  12.980
54904W        W14165  29.079  22.570  13.500
54905W        W14166  12.661   9.835   1.215
54906W        W14167  25.518  10.787  11.052
54907W        W14168  25.560   2.725   1.886
54908W        W14169  34.587  11.332   4.240
54909W        W14170  44.973  14.201  14.426
54910W        W14171  17.159   9.356   0.345
54911W        W14172  27.186  31.150  14.769
54912W        W14173  37.448  14.631   4.725
54913W        W14174  37.910  26.679  13.000
54914W        W14175  39.869  18.279   0.283
54915W        W14176  19.166  15.724  12.020
54916W        W14177  39.857  40.840   1.798
54917W        W14178   0.347   1.875   4.753
54918W        W14179  21.199  30.567   3.796
54919W        W14180   8.835  10.807  12.942
54920W        W14181  41.425  40.413   2.810
54921W        W14182  12.672  41.444  12.495
54922W        W14183  25.713  38.000  12.362
54923W        W14184  34.558  28.028   4.628
54924W        W14185  43.908   1.771  14.399
54925W        W14186   4.724  18.711  14.381
54926W        W14187  35.496  15.187   1.774
54927W        W14188   7.351  24.058   4.225
54928W        W14189  11.177   6.286  11.944
54929W        W14190  31.618   2.451  11.911
54930W        W14191   2.345  23.578   4.210
54931W        W14192  33.104   6.315   0.756
54932W        W14193  37.866   4.256   3.652
54933W        W14194   4.762  42.409   4.713
54934W        W14195  31.013  13.821  11.384
54935W        W14196  15.153  14.311  12.537
54936W        W14197  15.700  28.675  14.887
54937W        W14198  14.787  16.111  13.041
54938W        W14199  22.589  42.864   5.317
54939W        W14200  11.863  17.090   3.204
54940W        W14201  19.206  11.627  14.921
54941W        W14202  41.410  24.610  11.027
54942W        W14203  27.191  22.108   4.166
54943W        W14204  44.784  25.615  11.477
54944W        W14205  33.482  34.595   0.369
54945W        W14206   1.397  23.735  10.599
54946W        W14207  19.554  18.166  12.894
54947W        W14208  14.759  41.851  14.021
54948W        W14209  34.441  33.121  14.809
54949W        W14210  30.918   7.678  13.859
54950W        W14211  43.348  31.497  11.414
54951W        W14212  22.627  15.664  10.902
54952W        W14213  24.011   9.857   0.929
54953W        W14214  36.843  38.975  12.444
54954W        W14215  17.667  30.473   1.920
54955W        W14216  36.498  40.023   2.679
54956W        W14217   3.339  38.539  13.477
54957W        W14218  12.726   2.730   1.450
54958W        W14219   8.318  36.968   4.612
54959W        W14220  42.293   9.658  11.986
54960W        W14221   8.263  31.588   1.427
54961W        W14222  29.035  39.910   3.220
54962W        W14223   9.794  26.535  14.782
54963W        W14224   5.395  39.045  14.399
54964W        W14225  34.429  12.162  14.781
54965W        W14226   8.238  28.041  14.308
54966W        W14227  33.876  11.318  13.036
54967W        W14228   4.844  42.855   4.123
54968W        W14229  26.526  17.200   4.680
54969W        W14230   8.323  12.302   2.860
54970W        W14231  11.634   2.901  12.889
54971W        W14232  24.598  34.987  10.483
54972W        W14233  15.637   0.399  11.391
54973W        W14234   7.805  26.593   3.192
54974W        W14235  22.562  35.937   2.759
54975W        W14236  12.719  44.952   1.790
54976W        W14237  39.013  32.626  13.336
54977W        W14238  42.439  36.019   2.816
54978W        W14239  39.480   1.958  12.430
54979W        W14240  36.518  12.127  13.892
54980W        W14241  44.771  21.044  12.980
54981W        W14242   2.922  26.536  10.973
54982W        W14243  36.849  44.424  13.418
54983W        W14244  19.041  17.640  12.042
54984W        W14245  12.292  44.780  11.934
54985W        W14246  36.393   9.757   0.904
54986W        W14247  18.585  20.733  13.343
54987W        W14248  40.878  37.410  11.441
54988W        W14249  29.609  17.623  13.435
54989W        W14250  11.655  14.773   5.319
54990W        W14251   4.722  14.774  14.911
54991W        W14252  33.576   5.893   3.289
54992W        W14253  24.087  30.958   2.330
54993W        W14254  42.781   1.284   0.447
54994W        W14255   3.276  30.010  11.430
54995W        W14256  39.543  37.018  11.006
54996W        W14257  29.150  24.112   0.396
54997W        W14258  27.156  34.601   0.807
54998W        W14259  29.145  23.604  12.011
54999W        W14260  17.158  33.439   1.432
55000W        W14261  38.946  24.691  14.358
55001W        W14262  39.017  27.486   4.189
55002W        W14263  10.261  17.800  10.515
55003W        W14264   5.829  41.807   2.365
55004W        W14265  34.403  38.038   1.793
55005W        W14266  16.139  42.922  10.585
55006W        W14267  18.771  42.361   4.309
55007W        W14268  29.089  12.688  10.936
55008W        W14269  11.184   0.790  14.288
55009W        W14270   5.196  15.202   1.262
55010W        W14271  12.650  40.976   4.835
55011W        W14272  21.597   8.800  14.837
55012W        W14273  23.721  16.282   2.415
55013W        W14274   3.360   4.299  11.911
55014W        W14275  19.657  37.080   1.781
55015W        W14276   5.799   5.705   1.723
55016W        W14277  39.829  12.633  12.057
55017W        W14278  38.378  26.136   4.700
55018W        W14279   3.792  21.152  11.000
55019W        W14280  26.974  12.233   3.266
55020W        W14281  37.452  24.059   3.845
55021W        W14282  41.842  19.780  13.513
55022W        W14283  41.521  33.503   4.757
55023W        W14284  43.423   3.710  13.431
55024W        W14285  36.433  13.305  12.050
55025W        W14286   0.861   7.307   2.275
55026W        W14287  28.451  42.844  12.014
55027W        W14288  27.024  29.477   0.934
55028W        W14289   4.440  13.206  10.604
55029W        W14290   0.453  39.459  12.971
55030W        W14291   5.920   8.720  13.881
55031W        W14292  22.623  37.400   0.309
55032W        W14293   3.808  16.281   3.237
55033W        W14294  29.490   5.750   2.288
55034W        W14295  10.855  41.335  12.525
55035W        W14296   6.736  32.433   2.322
55036W        W14297   8.194  20.096  14.031
55037W        W14298  32.984  24.063  11.565
55038W        W14299   5.777  31.414   4.322
55039W        W14300  13.772  22.539  13.325
55040W        W14301  36.390  12.687  14.482
55041W        W14302  18.614   9.652   1.388
55042W        W14303  13.134   0.303  13.846
55043W        W14304  13.351  11.666  12.072
55044W        W14305   4.920  20.177  12.901
55045W        W14306  41.469  25.648   3.870
55046W        W14307  18.579   3.398   3.733
55047W        W14308  24.026  10.186  13.424
55048W        W14309  34.986   2.277   2.384
55049W        W14310  38.068  35.037   2.369
55050W        W14311  35.023  23.047  13.402
55051W        W14312   5.776  28.646  12.539
55052W        W14313   6.345  31.922  12.364
55053W        W14314  18.055  22.715  10.142
55054W        W14315  37.991  11.768   2.239
55055W        W14316  20.667  17.172   1.852
55056W        W14317   8.711  21.258  11.992
55057W        W14318  19.542  29.502   1.918
55058W        W14319  40.338  30.551   1.399
55059W        W14320  27.190  24.505  12.443
55060W        W14321  44.349  11.302   3.334
55061W        W14322   8.277  31.005   0.244
55062W        W14323   8.260   8.173  13.952
55063W        W14324  17.198  41.009  10.503
55064W        W14325  18.616   6.707  13.015
55065W        W14326  26.144  23.584   4.129
55066W        W14327  23.572  23.163  10.922
55067W        W14328  27.559  19.574  10.978
55068W        W14329  13.287  44.280   4.347
55069W        W14330  15.299  22.109   1.841
55070W        W14331  24.566  23.516   4.285
55071W        W14332  15.657  35.516  13.824
55072W        W14333  16.703   3.258   2.698
55073W        W14334  18.207  35.544  10.410
55074W        W14335  32.142  35.069   3.726
55075W        W14336  22.190  21.070  14.005
55076W        W14337  28.560  19.138  14.973
55077W        W14338  42.956  21.553   1.380
55078W        W14339  37.996  32.067   1.784
55079W        W14340  19.241  17.720  14.801
55080W        W14341   1.265  12.131   4.710
55081W        W14342  31.090  14.323   3.668
55082W        W14343  43.785  30.097  12.860
55083W        W14344  14.333  14.608   0.732
55084W        W14345  44.874  40.383  11.452
55085W        W14346  30.011  44.997   1.893
55086W        W14347  14.827  41.455   3.290
55087W        W14348  27.688  27.564  12.438
55088W        W14349  37.000  29.080  14.836
55089W        W14350   4.411  25.105   2.387
55090W        W14351  14.789  34.401  13.350
55091W        W14352  43.824  40.507  14.947
55092W        W14353  33.073   4.908   3.734
55093W        W14354   5.895  30.591  14.781
55094W        W14355   3.237  36.960  14.450
55095W        W14356  24.506   7.705   2.391
55096W        W14357  36.585   4.312  14.984
55097W        W14358  36.911  44.984   3.841
55098W        W14359  44.003  24.699   3.307
55099W        W14360  15.181   5.386  12.342
55100W        W14361   8.247  37.945  12.405
55101W        W14362   3.459  34.992  12.457
55102W        W14363   0.926  32.563  12.949
55103W        W14364   7.807  19.177  14.780
55104W        W14365  11.784  37.987   2.228
55105W        W14366  42.835  19.250  13.009
55106W        W14367  29.117  40.864  13.373
55107W        W14368  39.432   9.314  11.487
55108W        W14369  12.840  21.097   3.644
55109W        W14370  31.450  13.250  13.052
55110W        W14371  13.603  12.215  11.457
55111W        W14372  15.758   2.342   3.355
55112W        W14373  16.748  31.073  14.784
55113W        W14374  10.376  19.723  11.012
55114W        W14375  27.597  44.880  11.962
55115W        W14376  41.430  14.603   2.847
55116W        W14377  20.594  19.757  14.869
55117W        W14378  26.134  42.500  11.468
55118W        W14379  19.671  11.753  13.010
55119W        W14380   2.294  36.912  11.427
55120W        W14381   2.305  37.399   4.283
55121W        W14382  36.849  39.342   4.189
55122W        W14383  44.338  20.614  12.053
55123W        W14384   0.972   4.356  13.889
55124W        W14385  33.438  38.826   0.431
55125W        W14386  33.531  10.793  10.500
55126W        W14387  29.591  38.998  11.039
55127W        W14388  16.077  34.026   4.647
55128W        W14389  26.195  23.635   1.869
55129W        W14390  19.165  23.617  13.020
55130W        W14391  30.949  41.534  11.504
55131W        W14392  30.071   2.956   1.395
55132W        W14393  40.512  38.509   3.317
55133W        W14394  22.619  44.902  11.031
55134W        W14395  11.865   0.764   1.880
55135W        W14396  22.235  16.178  13.929
55136W        W14397  34.577  37.836  10.912
55137W        W14398  37.967  43.815  12.474
55138W        W14399  30.467   1.916   4.664
55139W        W14400  23.238  40.027   3.253
55140W        W14401  38.900  14.135  14.292
55141W        W14402  35.095  26.663  11.482
55142W        W14403  39.406  36.851   2.721
55143W        W14404  27.019  21.708  11.027
55144W        W14405  30.156  14.145  13.799
55145W        W14406  29.640  24.144  10.471
55146W        W14407  44.377  41.362   2.669
55147W        W14408  14.132  40.875  13.821
55148W        W14409  28.953  17.167   4.146
55149W        W14410  10.760   9.348  11.014
55150W        W14411   4.843  38.024  11.039
55151W        W14412   9.392  30.075   0.383
55152W        W14413  37.060  26.639   0.810
55153W        W14414  35.367   2.735   3.387
55154W        W14415  34.017  44.763  10.926
55155W        W14416  29.043  33.543   4.648
55156W        W14417  26.960  25.098   4.616
55157W        W14418  36.505  23.579  10.923
55158W        W14419  12.653  36.008  11.030
55159W        W14420  25.609  29.564   4.292
55160W        W14421   2.320  36.488  10.547
55161W        W14422   9.270  31.613   0.315
55162W        W14423  35.978  38.356   2.395
55163W        W14424  39.331   9.340  13.342
55164W        W14425  30.978  39.989  10.959
55165W        W14426   0.847   4.718  14.279
55166W        W14427  20.165  18.255   1.761
55167W        W14428  13.180  14.135   2.362
55168W        W14429  33.610  33.521   2.240
55169W        W14430  32.611   4.818   0.437
55170W        W14431  33.460  38.530   3.149
55171W        W14432  29.056  28.473   4.184
55172W        W14433  44.259  26.696   1.808
55173W        W14434   8.172  14.338  13.841
55174W        W14435   8.753  28.459   4.143
55175W        W14436   2.877   5.271  13.507
55176W        W14437  27.453  19.643   2.190
55177W        W14438  21.160  21.078  10.032
55178W        W14439   7.412   5.774   0.269
55179W        W14440   1.262   3.413  12.492
55180W        W14441   1.860  17.151  11.004
55181W        W14442  20.650  29.523  14.823
55182W        W14443  27.036  39.513  14.292
55183W        W14444  28.530  16.575  11.028
55184W        W14445   0.317  34.008  13.514
55185W        W14446  26.958  38.365  12.032
55186W        W14447  23.045  41.906   2.790
55187W        W14448  39.838  44.917  14.005
55188W        W14449  29.568  38.926   2.787
55189W        W14450  13.667  44.495   1.355
55190W        W14451   1.749   0.800   3.205
55191W        W14452  12.156  15.659   1.321
55192W        W14453  15.655  43.795  14.758
55193W        W14454  25.560   5.693   2.872
55194W        W14455  39.044  34.549  13.435
55195W        W14456  25.661  12.211  12.947
55196W        W14457  26.483  33.497   0.812
55197W        W14458  38.902  27.025   3.678
55198W        W14459  17.707  18.598   1.790
55199W        W14460   4.931  34.075  12.379
55200W        W14461  11.366  34.991   4.833
55201W        W14462  11.246   4.306  14.779
55202W        W14463   7.254  21.022  13.934
55203W        W14464  40.324  20.163   2.333
55204W        W14465  41.908  32.625  12.534
55205W        W14466  20.532   6.399  14.884
55206W        W14467  36.930  33.110  14.863
55207W        W14468  25.556  35.372  10.407
55208W        W14469   8.231  37.345  12.037
55209W        W14470  19.684   3.824   5.116
55210W        W14471  13.787   0.825   3.323
55211W        W14472  44.818  24.661   0.283
55212W        W14473   8.251  24.699  13.934
55213W        W14474  41.847   2.437  11.009
55214W        W14475   8.194  26.954   1.867
55215W        W14476  36.996  20.623  14.321
55216W        W14477  22.173   1.932  12.345
55217W        W14478  23.496  25.213   3.856
55218W        W14479   6.402  28.129  10.009
55219W        W14480  35.027  10.689   3.771
55220W        W14481  10.739   6.373   3.808
55221W        W14482  19.253  40.529  13.880
55222W        W14483  33.593  19.743  10.462
55223W        W14484  25.606  27.519   2.401
55224W        W14485  33.537  39.557   3.259
55225W        W14486   4.792  15.168  11.584
55226W        W14487  26.184  16.596  12.956
55227W        W14488  11.181  25.582  13.058
55228W        W14489  21.624  37.833   4.153
55229W        W14490  40.006  42.935   3.688
55230W        W14491  17.556  28.551   1.798
55231W        W14492   1.480  30.585  13.880
55232W        W14493   8.760   0.874  10.504
55233W        W14494  21.571  15.701  10.944
55234W        W14495   4.448   7.249   1.893
55235W        W14496  37.957  27.575  13.856
55236W        W14497  33.968  16.158   0.433
55237W        W14498  39.357  32.413   3.219
55238W        W14499   8.295  42.430  13.877
55239W        W14500  22.249  40.437   2.323
55240W        W14501  32.507  11.679  11.434
55241W        W14502   5.854  14.683  13.802
55242W        W14503  33.006  40.478   2.371
55243W        W14504   4.450  13.238  11.534
55244W        W14505  20.193   5.266  13.874
55245W        W14506  22.734  19.563   2.761
55246W        W14507  38.385   5.385  10.494
55247W        W14508   6.795  19.259   3.355
55248W        W14509  41.368   2.298   0.470
55249W        W14510   6.747  23.663  13.462
55250W        W14511  21.651  25.536  14.822
55251W        W14512  21.683  29.039   1.275
55252W        W14513  28.942  39.523  13.890
55253W        W14514  44.941  14.693   0.366
55254W        W14515  21.632  32.914   2.234
55255W        W14516  39.440  16.122  14.339
55256W        W14517  28.449  25.215   2.876
55257W        W14518  38.372  42.286  11.608
55258W        W14519   9.869  14.804   0.254
55259W        W14520  14.748  34.980   2.179
55260W        W14521   9.784  22.563   4.753
55261W        W14522  38.906  31.122   1.796
55262W        W14523  26.616  37.397   2.227
55263W        W14524  21.159   3.811   3.274
55264W        W14525   6.368  18.254  12.987
55265W        W14526   9.253  35.046  11.993
55266W        W14527  22.554  34.113  13.456
55267W        W14528   7.890  41.016   2.367
55268W        W14529   6.914  36.987  14.435
55269W        W14530  24.103  22.539   1.218
55270W        W14531  30.126  18.123  13.062
55271W        W14532   4.786  38.337   1.332
55272W        W14533  12.835  41.044   0.457
55273W        W14534  43.510   5.383  12.353
55274W        W14535  19.589   0.885  12.433
55275W        W14536  42.935  43.832   0.322
55276W        W14537  22.034  18.589  10.021
55277W        W14538  18.060  17.597   3.243
55278W        W14539  29.561  25.704   2.731
55279W        W14540  34.602   1.469  10.989
55280W        W14541  38.350  35.981   0.244
55281W        W14542  27.027  42.322  11.863
55282W        W14543  17.279  27.551  14.337
55283W        W14544   1.893  24.552   1.770
55284W        W14545  14.306  31.547  12.065
55285W        W14546  17.130  10.168   4.624
55286W        W14547   9.161  17.268   1.448
55287W        W14548   0.374  11.737  13.320
55288W        W14549  42.981  35.473   4.826
55289W        W14550  43.005  27.620  11.936
55290W        W14551   4.401  42.473  12.037
55291W        W14552  25.208   2.895  12.825
55292W        W14553  12.774  28.008  12.943
55293W        W14554  12.245  30.080   4.800
55294W        W14555  14.305   1.740   2.264
55295W        W14556  34.526  34.068  13.546
55296W        W14557  17.748  20.044   1.706
55297W        W14558  40.000  31.089   2.666
55298W        W14559   7.851   8.888   0.763
55299W        W14560  40.904   1.740   4.823
55300W        W14561   3.752  42.508   3.672
55301W        W14562  18.678  13.133   2.853
55302W        W14563  17.080   9.669  11.448
55303W        W14564  24.676   7.844  14.387
55304W        W14565  16.726  41.414   3.208
55305W        W14566  16.585   0.937  14.466
55306W        W14567   5.410  37.890   1.275
55307W        W14568  29.474  23.666   3.670
55308W        W14569  42.838   4.709  14.894
55309W        W14570   0.860  35.374  12.874
55310W        W14571  24.704  26.123   0.418
55311W        W14572  16.278  39.941  10.962
55312W        W14573   6.857  34.947  11.378
55313W        W14574   4.342  28.181   2.255
55314W        W14575  40.888  27.667   4.256
55315W        W14576  12.738   2.957   1.818
55316W        W14577  38.351  43.945  14.776
55317W        W14578  31.418  42.402   2.722
55318W        W14579  22.502   4.334   2.674
55319W        W14580  43.856  44.504   3.163
55320W        W14581   1.754  28.648  13.939
55321W        W14582  40.323  27.570  11.372
55322W        W14583  10.324  35.034   5.170
55323W        W14584  33.475  12.619   9.944
55324W        W14585  36.854   9.799  14.929
55325W        W14586  11.837  21.121  11.603
55326W        W14587   4.277  28.632   4.668
55327W        W14588  31.099   8.755   4.708
55328W        W14589  38.997   0.253   2.742
55329W        W14590  32.425   9.389  10.981
55330W        W14591  32.392   3.425  13.547
55331W        W14592  44.890  43.828   4.336
55332W        W14593   6.906  29.537  13.343
55333W        W14594  17.108  17.699  10.949
55334W        W14595  16.649  35.408  11.964
55335W        W14596  37.998  40.311   4.735
55336W        W14597   9.234  31.478   3.206
55337W        W14598  21.039   8.700  13.040
55338W        W14599  33.458  12.619   1.283
55339W        W14600   4.841   2.782   3.179
55340W        W14601  23.151  24.171  13.372
55341W        W14602  32.405  22.537  13.830
55342W        W14603  21.613  25.503   0.329
55343W        W14604  33.424   0.483   1.241
55344W        W14605  32.444  23.660  10.533
55345W        W14606  10.240  33.128   3.365
55346W        W14607  40.890  17.622  10.467
55347W        W14608   0.777  31.924   2.386
55348W        W14609  38.069  17.066   2.835
55349W        W14610   2.959  41.887   0.257
55350W        W14611   3.229  44.406   4.230
55351W        W14612  18.249   1.880   0.388
55352W        W14613  11.702   4.417   3.234
55353W        W14614  35.011  12.677  10.925
55354W        W14615  32.562  17.153   9.981
55355W        W14616  28.606  22.030  14.467
55356W        W14617   8.789  25.985  14.861
55357W        W14618  16.680  43.904  14.921
55358W        W14619  14.738  36.569   4.716
55359W        W14620  44.491  32.058   1.395
55360W        W14621  14.114   0.280  11.044
55361W        W14622  30.917  19.050  12.950
55362W        W14623  40.977   4.383  14.843
55363W        W14624  21.182  37.389  11.574
55364W        W14625  17.743  17.096  14.496
55365W        W14626  32.962  29.139   3.755
55366W        W14627   7.806   1.794  11.875
55367W        W14628  17.729  14.726  13.965
55368W        W14629  31.446   3.221  10.478
55369W        W14630   4.780   2.433  11.927
55370W        W14631  16.802   5.400   9.544
55371W        W14632  12.216  36.402  13.338
55372W        W14633  22.070  30.128  11.599
55373W        W14634  13.703  32.072   3.766
55374W        W14635  31.977   3.881  11.058
55375W        W14636  13.684  23.513  11.575
55376W        W14637   4.928   7.706   1.718
55377W        W14638  38.385  15.314   0.401
55378W        W14639   5.298  11.769   1.291
55379W        W14640   2.752  26.074   1.235
55380W        W14641  19.223  14.102  12.964
55381W        W14642  35.498  18.209  11.939
55382W        W14643  24.571  44.795  10.614
55383W        W14644  31.946  44.277   3.222
55384W        W14645  32.089  24.716  13.828
55385W        W14646  15.721  36.372  11.423
55386W        W14647  10.857   1.426   4.717
55387W        W14648   8.700   8.763  11.994
55388W        W14649   5.418   3.732   1.263
55389W        W14650  27.121  31.524  11.093
55390W        W14651  39.929   6.688  10.415
55391W        W14652  15.168  43.497   2.852
55392W        W14653  20.248  39.820  12.033
55393W        W14654  38.450  40.316   4.748
55394W        W14655  32.934  37.869   0.365
55395W        W14656   2.851  35.877  10.448
55396W        W14657  31.980  33.946  12.059
55397W        W14658  31.148  44.423  11.124
55398W        W14659  31.915  26.039  13.463
55399W        W14660  35.020   8.839   1.312
55400W        W14661  13.749  23.005  12.902
55401W        W14662  37.498  23.993  14.968
55402W        W14663  21.241  30.654   3.230
55403W        W14664  11.203   4.850  14.945
55404W        W14665  39.827  24.050   3.689
55405W        W14666  21.218  38.503  10.472
55406W        W14667  37.376  44.855  13.952
55407W        W14668   4.736  35.904   1.292
55408W        W14669  43.404  11.831   0.412
55409W        W14670  41.400  35.088  13.488
55410W        W14671  16.716  44.267  11.997
55411W        W14672  29.482   2.310  11.574
55412W        W14673  24.670  17.604  10.619
55413W        W14674  28.063   3.715   2.866
55414W        W14675  41.965  11.196  14.027
55415W        W14676  11.636  15.611   0.878
55416W        W14677  23.197   5.798  11.406
55417W        W14678  34.499   8.280  11.020
55418W        W14679  24.644  24.223   1.758
55419W        W14680  32.000  33.386  10.538
55420W        W14681  37.053   8.396  14.788
55421W        W14682  11.258  11.707  12.918
55422W        W14683   1.753  24.009  14.868
55423W        W14684  22.093   4.292   3.827
55424W        W14685  39.924   4.877   1.235
55425W        W14686  18.668   0.483   1.771
55426W        W14687  31.597   8.862   3.759
55427W        W14688   7.868   4.231   3.741
55428W        W14689  25.989  16.610   3.678
55429W        W14690  15.282  44.779  10.405
55430W        W14691  39.345  18.096  12.560
55431W        W14692  12.219  29.993  13.381
55432W        W14693  28.111   5.356   4.228
55433W        W14694  39.930   4.711  11.094
55434W        W14695  21.648  29.570  11.090
55435W        W14696  39.349  38.486  13.918
55436W        W14697  11.662  16.786   1.738
55437W        W14698  28.625   4.259  12.349
55438W        W14699  17.174   3.311  12.410
55439W        W14700  18.106  39.830   3.185
55440W        W14701   7.227  44.335   4.294
55441W        W14702   9.650  14.292   2.783
55442W        W14703  21.199  19.058   4.628
55443W        W14704   7.256   0.862   3.177
55444W        W14705   5.326  29.466  13.831
55445W        W14706  39.015  12.798  10.533
55446W        W14707   1.450  17.165  11.594
55447W        W14708  44.794  29.060   2.404
55448W        W14709  27.680   3.220  10.473
55449W        W14710  11.702  29.528  12.511
55450W        W14711  43.506   5.276   1.425
55451W        W14712  25.672  36.002  14.857
55452W        W14713   1.478  39.489  13.887
55453W        W14714  37.029  43.306  11.453
55454W        W14715  44.777  38.517  11.056
55455W        W14716   4.422  27.545   3.832
55456W        W14717  30.526  28.096   4.772
55457W        W14718  20.037  24.568   0.830
55458W        W14719  17.093  34.865   3.819
55459W        W14720   4.438  32.505   2.392
55460W        W14721  40.893  25.579  13.940
55461W        W14722  31.937  15.305  13.957
55462W        W14723   6.201  19.705   3.161
55463W        W14724  25.620  10.145  13.350
55464W        W14725  31.629   8.272  11.973
55465W        W14726  35.024  27.678  10.597
55466W        W14727  30.512  44.759  13.867
55467W        W14728   5.919   8.723  10.103
55468W        W14729  44.875  42.016   1.241
55469W        W14730  31.089  34.387   2.347
55470W        W14731  40.903  30.081   2.667
55471W        W14732  22.017   6.783   2.307
55472W        W14733  29.483  35.411   5.300
55473W        W14734   2.436  11.747  12.909
55474W        W14735  34.601  27.097   4.136
55475W        W14736  22.050   9.277   2.773
55476W        W14737  43.412   4.249  11.602
55477W        W14738  38.418  23.727  12.355
55478W        W14739  40.475  27.554   0.475
55479W        W14740  30.127  38.908   4.828
55480W        W14741   3.764   3.735  10.447
55481W        W14742  20.224  26.018  10.922
55482W        W14743  20.265  31.006   2.772
55483W        W14744   7.242  30.012  10.583
55484W        W14745   9.672  28.940   0.355
55485W        W14746   4.858  25.629  10.531
55486W        W14747  14.298  18.573   4.636
55487W        W14748  19.580  41.445  13.813
55488W        W14749  32.470  14.288  10.982
55489W        W14750  42.005   4.890  10.928
55490W        W14751  25.618  39.464  11.924
55491W        W14752  23.021  32.501  10.920
55492W        W14753   0.811  33.617   0.727
55493W        W14754  15.814  21.590  11.407
55494W        W14755  17.566  25.515   4.337
55495W        W14756  18.051  19.568  13.048
55496W        W14757  10.806  40.529   4.143
55497W        W14758  37.017   5.349  11.456
55498W        W14759  11.193  11.357   5.745
55499W        W14760   2.317  33.121   4.719
55500W        W14761  32.024  13.843  12.565
55501W        W14762  37.568  24.661  12.437
55502W        W14763  11.705   2.324   1.446
55503W        W14764  29.117   2.736  13.483
55504W        W14765  25.977  21.084   3.233
55505W        W14766   8.229  31.497   3.317
55506W        W14767  38.861  36.438   4.619
55507W        W14768  41.016  21.568  13.428
55508W        W14769  19.706   0.407   3.788
55509W        W14770  25.016  22.072   2.674
55510W        W14771  28.583  34.604   9.580
55511W        W14772  24.009  34.388  13.546
55512W        W14773  44.905   0.800   3.771
55513W        W14774  21.628   3.268  14.770
55514W        W14775  39.375  17.601  12.973
55515W        W14776  44.797  29.937   3.290
55516W        W14777  21.251  22.705   1.846
55517W        W14778  41.835   7.213  10.059
55518W        W14779  19.734  24.055   4.131
55519W        W14780  33.424  20.714  10.479
55520W        W14781  40.916  14.211  12.472
55521W        W14782  30.613  15.656   3.868
55522W        W14783   6.839  34.913   2.765
55523W        W14784  44.942  21.570   4.245
55524W        W14785  34.467   9.745  13.514
55525W        W14786  15.728  25.531  12.083
55526W        W14787  26.100  23.546   2.348
55527W        W14788   4.246  21.109  12.512
55528W        W14789  25.966  14.626   0.962
55529W        W14790  17.618  41.925   2.202
55530W        W14791  15.665   1.380   3.765
55531W        W14792  20.263  29.600  10.465
55532W        W14793   3.225  29.589  11.583
55533W        W14794  17.140   9.795  10.088
55534W        W14795  40.911  43.498  10.574
55535W        W14796  19.664   1.801  10.971
55536W        W14797  39.436  34.374  14.318
55537W        W14798  18.572  24.610   5.608
55538W        W14799   7.410   7.687  11.926
55539W        W14800  31.990   1.359   2.276
55540W        W14801  11.167  16.311  12.453
55541W        W14802  31.058  19.625   1.830
55542W        W14803   8.803  40.511   4.762
55543W        W14804  42.371  23.497  13.985
55544W        W14805  29.662  42.899   4.786
55545W        W14806  13.166  41.860   3.652
55546W        W14807   4.289  13.246  14.940
55547W        W14808  18.155   5.861   2.331
55548W        W14809   9.885  36.458  10.465
55549W        W14810   0.386  28.620   0.871
55550W        W14811  21.693  24.048  14.006
55551W        W14812   4.732   9.212   1.266
55552W        W14813   0.901  33.038  10.554
55553W        W14814   2.809  18.564  13.418
55554W        W14815  28.593  43.507  14.405
55555W        W14816   7.765  15.685  10.935
55556W        W14817  33.572  22.176  10.438
55557W        W14818   4.313   3.401   3.150
55558W        W14819  23.676  14.328  10.591
55559W        W14820  35.524  23.586  12.839
55560W        W14821   3.352  41.380  11.086
55561W        W14822  40.405   5.741   2.737
55562W        W14823  24.995  37.411   2.822
55563W        W14824  40.950  41.302   3.241
55564W        W14825  28.475  15.581   1.738
55565W        W14826  20.076  34.590   1.812
55566W        W14827  39.937  30.423  12.012
55567W        W14828  39.890  22.608   1.429
55568W        W14829  25.045  42.874  11.002
55569W        W14830  33.583  28.597  11.080
55570W        W14831  40.310   1.807  13.846
55571W        W14832  44.917   1.832   2.346
55572W        W14833  39.449  35.537  10.545
55573W        W14834  23.540  26.578   1.897
55574W        W14835  17.600  22.075   3.850
55575W        W14836  26.140  35.924  13.412
55576W        W14837   0.392   6.753   3.292
55577W        W14838  16.080  18.566  13.904
55578W        W14839  18.582   8.276   4.341
55579W        W14840  31.553  35.473  14.281
55580W        W14841  12.184  36.853  13.389
55581W        W14842  43.954  35.588  14.289
55582W        W14843   8.181   5.349   2.702
55583W        W14844  21.133  23.726   4.203
55584W        W14845   0.761  19.700  11.973
55585W        W14846  10.846  35.477   2.703
55586W        W14847  32.460   7.870   1.307
55587W        W14848  36.049  31.085   0.342
55588W        W14849  42.369  17.672   3.709
55589W        W14850  29.016  16.747   2.309
55590W        W14851  26.070  39.350  11.980
55591W        W14852  39.025   0.911  12.375
55592W        W14853   9.835  44.756  11.395
55593W        W14854  10.158   8.891  14.014
55594W        W14855  24.977   0.889  12.887
55595W        W14856  44.949  11.829  11.062
55596W        W14857  34.065   3.244  14.007
55597W        W14858  44.404  42.002   2.809
55598W        W14859   0.266  30.580   3.674
55599W        W14860   5.867  36.551  12.957
55600W        W14861  38.069  39.468  13.950
55601W        W14862  13.622  15.621  11.976
55602W        W14863  27.955  40.997   4.645
55603W        W14864  25.630   8.678  13.036
55604W        W14865  36.353   1.367  14.484
55605W        W14866   8.663  30.007   2.840
55606W        W14867  38.465  11.284  14.977
55607W        W14868  33.531  35.932   2.896
55608W        W14869   9.281  12.162  11.585
55609W        W14870  27.687  29.485   4.598
55610W        W14871  12.646  33.427  14.461
55611W        W14872  29.167   9.178   4.255
55612W        W14873   3.770  37.568   2.206
55613W        W14874  23.527   1.359   0.841
55614W        W14875  24.512  19.181   2.826
55615W        W14876  23.241  33.579   0.744
55616W        W14877   6.187   8.874  13.513
55617W        W14878   0.375  42.873   0.820
55618W        W14879  41.988  12.670  13.829
55619W        W14880  11.224   1.367   2.284
55620W        W14881  43.843  11.829   0.833
55621W        W14882  30.601  18.258  14.854
55622W        W14883  40.881   1.852  13.825
55623W        W14884   9.805  41.858  13.909
55624W        W14885  15.240  23.615   0.786
55625W        W14886  42.989  16.580  13.034
55626W        W14887  35.039  23.727   3.255
55627W        W14888  24.598  28.982   0.933
55628W        W14889  18.271  21.741  11.971
55629W        W14890   0.326   9.277   2.681
55630W        W14891   9.804   9.258   2.246
55631W        W14892  11.800  37.889  14.281
55632W        W14893   1.870  28.995  13.886
55633W        W14894  10.806  15.290   2.836
55634W        W14895  36.863  21.718  13.806
55635W        W14896  41.482  35.893  14.901
55636W        W14897  11.211  36.021  14.363
55637W        W14898  24.127  22.093  14.290
55638W        W14899   2.418   2.728  12.364
55639W        W14900  10.699  13.820   1.719
55640W        W14901  26.998  15.660   4.131
55641W        W14902  23.085  30.144  14.894
55642W        W14903  17.564  26.013  12.071
55643W        W14904  38.881   8.185  10.962
55644W        W14905  35.379  30.019  14.821
55645W        W14906  31.623  33.452   9.921
55646W        W14907  15.182  33.937   2.181
55647W        W14908   8.776  14.122  14.963
55648W        W14909  42.800   3.364  11.887
55649W        W14910  27.043   1.782  12.491
55650W        W14911  15.632  22.190  14.859
55651W        W14912  14.815  34.557   1.882
55652W        W14913  10.810  36.519  14.848
55653W        W14914  23.011  15.789   3.847
55654W        W14915  21.631  21.250  10.596
55655W        W14916  13.254  28.466   3.728
55656W        W14917  14.791  43.888   1.837
55657W        W14918  21.178   3.805  14.313
55658W        W14919  36.920  43.422  10.428
55659W        W14920  13.172  42.397   4.767
55660W        W14921   9.320  35.385  10.959
55661W        W14922   0.325   5.736   4.279
55662W        W14923  41.952  27.505  11.929
55663W        W14924   5.229  28.495  12.066
55664W        W14925  19.779  27.050  10.435
55665W        W14926  10.852  34.601   3.857
55666W        W14927   5.434   7.309  14.441
55667W        W14928   0.771  20.611   2.380
55668W        W14929  28.443  21.142  12.389
55669W        W14930  35.898   2.937   1.887
55670W        W14931  23.995  31.620  12.017
55671W        W14932  37.389   6.335   5.192
55672W        W14933  33.427  32.438  14.773
55673W        W14934  21.651   7.719  10.565
55674W        W14935  18.591  26.569  12.077
55675W        W14936  42.454  23.587  11.574
55676W        W14937   5.850  22.501   3.704
55677W        W14938  14.200  32.088  13.472
55678W        W14939   6.367  13.844  14.482
55679W        W14940  15.735  44.980  11.919
55680W        W14941   6.677  28.591  12.472
55681W        W14942  23.237  35.425   2.861
55682W        W14943  23.647  37.084  12.556
55683W        W14944   7.272  10.375   3.728
55684W        W14945  38.885  15.226   4.614
55685W        W14946  44.481   1.845  14.506
55686W        W14947   3.439  40.869   4.343
55687W        W14948  39.386   2.929   3.196
55688W        W14949  36.407  19.761  14.894
55689W        W14950  30.537  12.246  11.976
55690W        W14951   2.906  40.962  11.945
55691W        W14952  35.009  13.201   3.230
55692W        W14953  31.937  21.582   2.798
55693W        W14954  13.741   3.417   1.334
55694W        W14955  24.023  33.463   3.370
55695W        W14956  39.515   5.930   2.730
55696W        W14957  32.423  30.080   4.199
55697W        W14958  16.719  42.961  11.013
55698W        W14959   2.935  20.687  14.911
55699W        W14960  10.343   5.879  12.371
55700W        W14961  31.988  10.213   3.298
55701W        W14962  18.604  18.555  14.893
55702W        W14963  23.038  12.726   0.958
55703W        W14964  10.811  27.007   0.924
55704W        W14965  22.058  41.880  11.121
55705W        W14966  26.128  34.613   3.299
55706W        W14967  14.202  13.805  14.396
55707W        W14968  16.603  38.561   4.219
55708W        W14969  16.249  38.435   1.836
55709W        W14970  22.065  22.235  10.908
55710W        W14971  16.152  22.147  14.376
55711W        W14972   6.290   6.219   1.863
55712W        W14973  42.885   9.348  13.983
55713W        W14974  41.845  22.236  13.440
55714W        W14975  13.298   3.815   3.185
55715W        W14976  31.607  27.026   1.312
55716W        W14977  36.951  26.479   3.304
55717W        W14978  35.967  26.982   4.145
55718W        W14979  11.763  12.246   4.640
55719W        W14980   8.824   4.262  10.081
55720W        W14981  22.194  24.508   3.310
55721W        W14982  42.801   9.240  13.454
55722W        W14983  19.112  14.668  11.514
55723W        W14984  26.065  25.680  12.871
55724W        W14985  32.548  35.864  14.452
55725W        W14986  18.267  15.818   3.735
55726W        W14987  37.923  36.354  12.824
55727W        W14988  42.305  24.989  12.885
55728W        W14989   0.859   9.844  14.943
55729W        W14990  21.063   2.943  14.980
55730W        W14991  17.705  10.164   2.711
55731W        W14992  22.553   1.848   0.432
55732W        W14993  19.248  14.097  11.501
55733W        W14994  39.322  44.921   4.136
55734W        W14995  27.507  37.941  14.817
55735W        W14996   3.894  32.138   5.178
55736W        W14997  27.478  16.266   1.254
55737W        W14998  18.602  26.502   0.309
55738W        W14999   3.734   7.353  11.423
55739W        W15000   1.940   5.718   4.185
55740W        W15001  42.527  26.084  14.515
55741W        W15002   4.926  32.522  11.024
55742W        W15003  37.937   2.733   2.322
55743W        W15004  24.003  43.773   4.323
55744W        W15005  29.086  19.214   3.696
55745W        W15006  40.419   1.902  13.326
55746W        W15007  29.665  36.966   2.186
55747W        W15008  22.065  37.517   1.766
55748W        W15009  25.991  36.091  11.991
55749W        W15010   5.882  21.239   4.710
55750W        W15011  19.768   3.272  10.011
55751W        W15012  42.354  14.652   4.271
55752W        W15013  24.611  10.696  12.490
55753W        W15014  44.904  12.314  12.350
55754W        W15015  27.490  31.431   2.261
55755W        W15016  38.951  17.631   3.638
55756W        W15017  18.602  37.534  10.107
55757W        W15018  31.909   1.432  14.397
55758W        W15019  14.650   8.758   4.308
55759W        W15020  31.419  43.868   2.397
55760W        W15021  39.519  43.270  13.974
55761W        W15022  31.972   9.831  11.107
55762W        W15023  31.970  32.037   1.435
55763W        W15024   6.825  33.987   1.719
55764W        W15025  43.378  19.741   0.433
55765W        W15026   5.212  15.217  11.893
55766W        W15027  31.136   8.386   1.742
55767W        W15028   4.259  42.848  11.012
55768W        W15029  21.577  32.450  11.085
55769W        W15030   6.227  12.156   0.405
55770W        W15031  42.893  38.857   0.941
55771W        W15032  27.504  27.613  11.983
55772W        W15033  15.803   9.867  10.994
55773W        W15034   0.468  17.668   1.726
55774W        W15035  36.952  44.497   4.326
55775W        W15036   0.270  30.043  11.022
55776W        W15037  22.054  44.984  11.421
55777W        W15038  31.486   2.759  13.820
55778W        W15039  33.067  32.633   2.315
55779W        W15040  35.076   3.861  13.969
55780W        W15041   3.408  39.995   3.288
55781W        W15042  13.227  27.506  14.991
55782W        W15043  21.179   0.374  10.474
55783W        W15044  15.668  14.291   1.272
55784W        W15045  29.041  30.998  12.073
55785W        W15046  19.255  21.591  12.393
55786W        W15047   5.367  33.509   2.880
55787W        W15048  20.142   7.687   1.416
55788W        W15049  16.104  44.280  14.019
55789W        W15050  38.350  22.210  12.546
55790W        W15051   3.285  29.425  14.833
55791W        W15052  23.147  14.638  11.526
55792W        W15053  30.604   1.738  14.915
55793W        W15054  28.094  20.164   1.436
55794W        W15055  10.648   3.925   0.368
55795W        W15056  35.879  19.646  11.459
55796W        W15057   3.845   3.259  12.399
55797W        W15058  29.062  33.898   3.714
55798W        W15059  42.809  31.906  14.778
55799W        W15060   9.839  34.086   3.184
55800W        W15061   2.310  39.329   4.835
55801W        W15062   9.333  13.177   3.215
55802W        W15063   4.205  38.364   1.249
55803W        W15064   8.845  38.474  11.554
55804W        W15065  25.705  19.576   1.758
55805W        W15066  42.459   2.902  10.622
55806W        W15067  14.317  33.106  10.550
55807W        W15068  27.495  33.424  11.413
55808W        W15069  29.652   9.815   1.370
55809W        W15070  33.599  20.186   2.788
55810W        W15071  18.119  33.464  13.022
55811W        W15072  36.510  14.623   2.290
55812W        W15073  23.714   1.402  10.987
55813W        W15074   9.353  35.040  14.807
55814W        W15075  27.954  26.626   5.294
55815W        W15076  39.541  36.887   4.803
55816W        W15077   6.403  29.636  14.363
55817W        W15078  10.758  13.322   1.727
55818W        W15079  13.106  23.551   2.699
55819W        W15080  23.695  27.637   4.682
55820W        W15081  38.933  25.024   2.717
55821W        W15082  20.167  40.044   3.156
55822W        W15083  30.637  35.019   3.169
55823W        W15084  38.562  29.921   3.376
55824W        W15085  31.482   9.337   1.748
55825W        W15086   7.227  18.757   4.736
55826W        W15087  15.694  26.130   0.901
55827W        W15088   8.808  31.595   2.714
55828W        W15089  39.857  18.740   0.402
55829W        W15090  12.709  29.130  11.956
55830W        W15091  31.965  16.211  11.578
55831W        W15092  15.264  10.674   4.751
55832W        W15093   8.778  17.763  10.584
55833W        W15094  15.704  40.409   0.267
55834W        W15095  40.021  23.561   0.264
55835W        W15096  41.391  34.961   4.705
55836W        W15097  31.613  13.287   3.225
55837W        W15098  34.586  28.490   4.770
55838W        W15099  16.194  43.270   2.286
55839W        W15100  27.573  14.296  13.869
55840W        W15101  31.427  31.496  12.075
55841W        W15102   0.313  39.549  13.880
55842W        W15103  13.736  41.006  12.420
55843W        W15104  42.387  35.970  13.336
55844W        W15105   8.659  42.301   3.695
55845W        W15106  29.010  43.381  11.046
55846W        W15107   9.773   4.922  12.531
55847W        W15108  12.360  42.287  10.944
55848W        W15109  28.615  24.586  11.988
55849W        W15110   8.315  34.090   2.874
55850W        W15111   1.451   2.821   2.226
55851W        W15112  31.920  18.686  13.332
55852W        W15113   6.903  26.513   1.430
55853W        W15114   7.338  13.750  14.868
55854W        W15115  34.421   3.718  13.820
55855W        W15116   8.232  17.753  14.321
55856W        W15117  38.046   7.322  13.532
55857W        W15118  39.916  27.099  11.608
55858W        W15119  33.539  33.977  13.402
55859W        W15120   7.268  22.219   3.281
55860W        W15121  21.546   2.771   0.773
55861W        W15122  18.717   1.357   4.307
55862W        W15123  37.050  31.923  14.420
55863W        W15124  10.726  33.954  13.444
55864W        W15125  15.717   2.861  10.096
55865W        W15126  42.379   1.774   1.863
55866W        W15127  40.307  35.954   1.927
55867W        W15128  38.553   1.331  11.889
55868W        W15129   1.765  37.430  10.439
55869W        W15130  13.600  33.991  11.606
55870W        W15131  29.041  43.371  13.793
55871W        W15132   6.838  31.640  11.437
55872W        W15133  20.176  40.338  10.977
55873W        W15134   6.757  11.658  10.017
55874W        W15135  19.641  43.845  13.973
55875W        W15136  26.019   4.324   2.888
55876W        W15137   4.723  26.982  14.305
55877W        W15138  12.329   2.914  13.865
55878W        W15139  13.244  14.294  10.628
55879W        W15140   4.755   8.814   2.284
55880W        W15141  41.963  21.200   2.267
55881W        W15142  25.048  17.272  12.038
55882W        W15143  25.597  40.888  12.002
55883W        W15144  35.575  34.111  14.015
55884W        W15145  44.987  43.911   0.474
55885W        W15146   4.778  40.453  14.388
55886W        W15147  41.030  26.484   3.837
55887W        W15148  13.275  18.285   1.384
55888W        W15149  22.546  10.180   0.258
55889W        W15150   5.869  25.142  13.412
55890W        W15151  19.569  10.231  11.001
55891W        W15152  40.347  39.961   0.401
55892W        W15153  44.979   1.326   2.395
55893W        W15154  14.790  24.691  10.540
55894W        W15155   5.742   2.801   3.248
55895W        W15156  16.651  12.279  13.322
55896W        W15157  19.074  43.314   2.733
55897W        W15158  13.196  13.837   1.239
55898W        W15159  43.297  15.788  14.918
55899W        W15160  30.506   4.922  14.353
55900W        W15161  13.670  18.212   2.816
55901W        W15162  38.545  41.345   3.825
55902W        W15163  42.459   1.806  14.393
55903W        W15164  30.543  43.790  12.898
55904W        W15165  26.008  31.976  14.507
55905W        W15166   9.837  44.483  11.519
55906W        W15167   8.775  29.516   1.734
55907W        W15168  35.409  29.149  13.402
55908W        W15169  14.700   7.294   3.206
55909W        W15170  42.476  32.054   0.839
55910W        W15171  41.861  38.846  12.071
55911W        W15172  14.310   3.284  14.902
55912W        W15173   9.824  34.508  10.967
55913W        W15174  11.292  34.515  14.918
55914W        W15175  34.030  21.645   2.866
55915W        W15176  12.292   4.797   0.479
55916W        W15177  17.751  36.410   1.250
55917W        W15178  38.372  35.962  10.473
55918W        W15179   8.718  22.520  14.906
55919W        W15180  34.394  14.127  14.791
55920W        W15181   9.281  15.591   3.645
55921W        W15182  11.163  23.697  14.401
55922W        W15183   4.401  17.748  13.037
55923W        W15184  17.640   6.863   3.341
55924W        W15185  18.064  28.935   4.284
55925W        W15186  15.745   0.431  12.058
55926W        W15187   4.804  42.402  11.920
55927W        W15188  28.130  26.632  10.433
55928W        W15189  34.045  13.200   3.651
55929W        W15190  38.064  29.136   1.804
55930W        W15191  41.433  19.233   0.479
55931W        W15192  30.548  15.102  13.958
55932W        W15193  43.425   1.363   1.333
55933W        W15194  34.082  41.482   2.325
55934W        W15195  29.575  31.578   0.409
55935W        W15196  14.266  18.567   3.830
55936W        W15197  37.350  42.502   5.196
55937W        W15198  29.088   0.979   3.226
55938W        W15199  18.116  23.501   2.377
55939W        W15200  16.286  39.503   2.674
55940W        W15201  37.536  23.032   2.292
55941W        W15202  34.905   3.261  11.041
55942W        W15203  42.503  23.728   2.243
55943W        W15204  17.204  28.026  13.510
55944W        W15205  21.212   8.881  11.875
55945W        W15206  12.206  20.187   4.308
55946W        W15207  33.964  39.852   3.722
55947W        W15208   4.437  35.387  10.495
55948W        W15209  25.653  36.475  13.518
55949W        W15210   2.388   6.920  14.990
55950W        W15211  44.455  43.291   0.324
55951W        W15212  31.053  34.929   0.476
55952W        W15213   5.311  38.969  11.856
55953W        W15214  31.419   5.339   1.697
55954W        W15215  37.069  35.107   2.761
55955W        W15216  38.463  40.040   2.266
55956W        W15217  41.883  22.703   1.222
55957W        W15218  30.096   1.246  12.842
55958W        W15219  43.420  25.186  10.986
55959W        W15220  24.980  23.228   1.869
55960W        W15221  40.929  15.774  12.826
55961W        W15222  13.108   9.862  11.422
55962W        W15223   4.890  10.315   0.788
55963W        W15224   5.829  44.945   2.290
55964W        W15225   5.278  38.894   0.950
55965W        W15226  10.373  43.307   0.328
55966W        W15227   2.790   0.287  12.068
55967W        W15228  25.182  38.367   0.885
55968W        W15229   3.268  44.401   2.752
55969W        W15230  16.795  40.532  14.006
55970W        W15231  42.447  18.206  13.514
55971W        W15232   6.776   3.804   4.338
55972W        W15233  26.013  11.331   3.147
55973W        W15234  24.614  18.776  12.059
55974W        W15235  40.405  10.707  10.927
55975W        W15236   4.321  41.981   3.246
55976W        W15237   1.750   8.809  13.322
55977W        W15238   9.832  11.708  11.974
55978W        W15239   0.812  39.514   2.183
55979W        W15240  38.029  36.957   3.690
55980W        W15241   1.769   3.713   3.700
55981W        W15242  22.558   2.463  13.310
55982W        W15243  33.496  32.622   5.165
55983W        W15244  43.940  28.164   4.637
55984W        W15245  23.706   3.455  13.929
55985W        W15246  34.013  27.113   2.413
55986W        W15247  41.538   5.216  13.915
55987W        W15248  23.607  13.817   0.467
55988W        W15249   2.740  26.004   0.945
55989W        W15250  19.193  31.916  12.457
55990W        W15251   8.748  12.829   0.428
55991W        W15252   5.891  43.411  12.345
55992W        W15253   7.352  17.230  13.859
55993W        W15254  44.384  21.135  14.763
55994W        W15255  16.211  35.984   3.803
55995W        W15256  36.493  36.540  11.384
55996W        W15257   6.772   2.292   0.395
55997W        W15258  12.828  28.593  13.371
55998W        W15259  23.106   8.852  14.778
55999W        W15260   1.841   8.718   3.180
56000W        W15261  19.279   3.732   1.338
56001W        W15262   0.873  23.536   3.732
56002W        W15263  24.568  13.312   0.426
56003W        W15264  36.556   4.226  11.489
56004W        W15265  40.322  27.944   1.243
56005W        W15266  32.479  24.570  14.944
56006W        W15267  11.170  35.479  10.583
56007W        W15268  19.258  42.021  10.992
56008W        W15269   3.780  34.578  14.509
56009W        W15270  19.145   4.415  12.545
56010W        W15271  23.027  24.207   1.243
56011W        W15272  44.458  25.641  10.508
56012W        W15273  39.858  20.048   0.318
56013W        W15274  17.061  16.780   3.213
56014W        W15275  21.228  17.272   0.299
56015W        W15276  38.538   0.435   4.212
56016W        W15277  44.829  11.834   2.863
56017W        W15278  26.009  24.192   0.921
56018W        W15279   8.866  43.421   2.322
56019W        W15280  31.922   6.425  11.504
56020W        W15281  28.541  21.534   2.766
56021W        W15282  31.948  16.292  14.411
56022W        W15283   2.873  36.571  14.999
56023W        W15284   4.765  15.265  12.368
56024W        W15285   5.212   5.275   3.785
56025W        W15286  16.652   9.798   4.724
56026W        W15287  38.418   7.202  12.519
56027W        W15288   4.935  27.963   4.667
56028W        W15289  32.571   6.405   3.201
56029W        W15290   0.287  34.878  14.789
56030W        W15291   3.860  11.352  13.952
56031W        W15292  10.185  36.936  11.874
56032W        W15293  23.682  44.341  12.864
56033W        W15294   4.923  41.850   1.385
56034W        W15295  27.961  14.204  12.510
56035W        W15296  11.206   6.331  13.406
56036W        W15297  19.257  20.218  13.851
56037W        W15298  22.095   0.333   1.736
56038W        W15299  15.710  29.958   3.644
56039W        W15300   1.919   8.406  13.404
56040W        W15301  35.029  27.132  13.981
56041W        W15302  29.061  26.635   0.394
56042W        W15303  21.555   8.378   2.390
56043W        W15304  16.289   3.948  12.394
56044W        W15305  21.691  15.121  11.885
56045W        W15306  23.706  23.706   0.280
56046W        W15307   5.252  17.135   0.951
56047W        W15308  26.022  35.028  11.939
56048W        W15309  40.886  27.660  11.405
56049W        W15310  38.884  39.438  13.396
56050W        W15311  19.582  12.673  11.394
56051W        W15312  44.804  36.037  14.927
56052W        W15313   1.922  29.465  13.502
56053W        W15314  22.563   1.850  14.472
56054W        W15315   2.303   6.696   0.312
56055W        W15316  41.323  13.213  13.824
56056W        W15317  24.097  43.371  10.929
56057W        W15318  24.555   7.733   4.814
56058W        W15319  35.912  12.753  12.001
56059W        W15320  37.568  33.999   4.215
56060W        W15321   0.285  37.900  14.412
56061W        W15322   1.394  15.154  11.028
56062W        W15323  17.112  26.687  10.481
56063W        W15324  25.086  33.389  13.955
56064W        W15325   6.739  42.380  13.336
56065W        W15326  41.977  30.648  11.919
56066W        W15327  35.894  12.323  10.931
56067W        W15328  34.605   1.835  14.278
56068W        W15329   3.417  39.810  13.388
56069W        W15330   4.891  12.141  11.605
56070W        W15331  25.711  30.603   0.946
56071W        W15332  32.468  19.632  11.894
56072W        W15333  21.707  31.005   4.714
56073W        W15334   7.198  10.643  13.058
56074W        W15335  41.821  31.933   4.830
56075W        W15336   0.971   7.882  11.380
56076W        W15337  21.130   7.283  10.478
56077W        W15338  39.887  37.946   0.904
56078W        W15339  35.420  40.028  14.898
56079W        W15340  29.428  37.914   0.807
56080W        W15341  14.201  22.702  12.965
56081W        W15342   4.721  32.124  14.002
56082W        W15343  44.895  26.570   1.390
56083W        W15344  37.450  22.652   2.254
56084W        W15345   6.395   6.685   2.396
56085W        W15346  36.009  32.030   5.232
56086W        W15347   1.814  17.137  13.333
56087W        W15348  38.047  34.383  14.825
56088W        W15349  15.304   2.845   0.282
56089W        W15350  38.418  43.926  14.280
56090W        W15351  38.547   7.716   3.777
56091W        W15352  14.644  40.371   3.813
56092W        W15353  27.001  11.193  13.344
56093W        W15354   6.246   5.749   4.617
56094W        W15355  39.820  21.745  10.633
56095W        W15356   4.229  38.038  12.006
56096W        W15357  23.710  19.152  13.446
56097W        W15358  28.125  34.059  13.831
56098W        W15359   2.232   7.365   2.744
56099W        W15360  38.022   5.212   0.950
56100W        W15361   2.292  38.420   1.745
56101W        W15362  33.051  23.578  13.423
56102W        W15363   1.319  31.502   3.359
56103W        W15364  14.740  25.973   4.624
56104W        W15365  18.773  28.523  14.417
56105W        W15366   7.669  35.010   2.412
56106W        W15367  23.099  21.681   3.286
56107W        W15368  35.407  10.729   0.766
56108W        W15369  24.575   2.389   3.718
56109W        W15370  41.470  32.975   4.705
56110W        W15371  10.144  25.127   4.332
56111W        W15372  40.842   0.309  10.969
56112W        W15373  36.363   2.835   3.295
56113W        W15374   3.334  13.315   5.121
56114W        W15375  13.818  32.596  14.411
56115W        W15376  11.185   1.299   3.164
56116W        W15377  16.241  43.971  14.512
56117W        W15378  29.513  24.985   5.260
56118W        W15379  36.881   5.893  14.315
56119W        W15380  23.683  44.330  11.086
56120W        W15381  14.158  30.470   1.935
56121W        W15382  39.371  10.877  11.502
56122W        W15383  25.580  22.191   1.864
56123W        W15384   0.929   8.182  11.989
56124W        W15385  13.309   3.785  13.978
56125W        W15386  18.778  15.267  11.881
56126W        W15387  20.539  39.065  10.561
56127W        W15388  36.950   5.823  11.105
56128W        W15389  18.219  20.590  14.937
56129W        W15390  44.278  24.522  11.601
56130W        W15391  44.900  20.569   4.208
56131W        W15392  14.784  29.143   0.356
56132W        W15393  35.575  22.727  12.959
56133W        W15394  39.560  37.949  12.504
56134W        W15395   9.659  42.299   3.329
56135W        W15396  39.036  12.616   2.711
56136W        W15397  29.658  41.525  11.970
56137W        W15398  18.690  38.054   0.824
56138W        W15399  11.347   2.831  10.017
56139W        W15400  28.168  14.152  12.961
56140W        W15401  18.206  33.397   1.751
56141W        W15402   4.826  20.611   0.435
56142W        W15403  31.959  13.741   1.883
56143W        W15404  31.137  40.477   3.868
56144W        W15405   1.805  26.514   1.370
56145W        W15406  33.567   5.330   4.672
56146W        W15407   3.261  21.182  11.881
56147W        W15408  10.796   7.707   3.781
56148W        W15409  21.101  19.167   4.257
56149W        W15410   0.479   2.963   0.794
56150W        W15411   8.792  39.001  11.991
56151W        W15412  42.457  18.082   1.860
56152W        W15413  42.346  13.128  14.999
56153W        W15414  10.161   2.913   1.851
56154W        W15415  37.938  33.516  12.077
56155W        W15416  12.764  30.058   0.758
56156W        W15417  36.393  15.816   0.399
56157W        W15418  41.833  43.336   3.829
56158W        W15419  11.833   4.757   0.380
56159W        W15420  40.964  39.464  11.464
56160W        W15421   2.929  22.200  13.791
56161W        W15422  12.190  22.160  12.348
56162W        W15423  35.557   7.413  12.377
56163W        W15424  37.928  17.087  12.535
56164W        W15425   6.779   7.808   9.488
56165W        W15426  43.443  41.952   1.705
56166W        W15427   4.706  34.388  12.403
56167W        W15428  30.467  20.126   1.432
56168W        W15429   4.702   7.390  13.028
56169W        W15430  25.617  32.469  10.600
56170W        W15431  13.769   0.832  11.989
56171W        W15432  20.732   5.767   0.812
56172W        W15433  23.639   1.372   4.812
56173W        W15434  15.195  17.099   1.368
56174W        W15435  21.028  30.422  10.105
56175W        W15436  28.680  14.324   2.824
56176W        W15437  43.791  41.460   0.956
56177W        W15438  10.359  17.158   1.812
56178W        W15439  34.470  34.873  14.354
56179W        W15440  36.364  30.505   5.130
56180W        W15441  44.448   7.803   1.428
56181W        W15442  41.930  39.375  13.010
56182W        W15443  33.110   4.804   4.193
56183W        W15444  11.648  43.962  12.425
56184W        W15445  44.439  27.985   1.388
56185W        W15446  39.430  19.704  13.344
56186W        W15447  34.947  40.424   5.230
56187W        W15448   8.398   4.863   1.746
56188W        W15449   5.853   6.342   0.790
56189W        W15450  40.026  37.978  13.401
56190W        W15451   9.347  44.960   2.833
56191W        W15452  19.058  19.751  13.052
56192W        W15453  20.240  24.502   3.346
56193W        W15454   9.262   9.760   5.805
56194W        W15455  20.646  27.040   1.303
56195W        W15456   7.378  35.603  12.409
56196W        W15457  17.076  28.126   0.386
56197W        W15458  26.640  36.428   3.775
56198W        W15459  17.091  24.662  12.010
56199W        W15460  18.219  21.572   1.419
56200W        W15461  36.067   6.337   3.812
56201W        W15462  42.861  42.973  13.389
56202W        W15463   0.904  17.304   3.360
56203W        W15464   7.792  20.674  14.919
56204W        W15465  13.158  16.240   3.263
56205W        W15466  23.531  31.417  11.515
56206W        W15467  39.921  41.498  14.781
56207W        W15468  26.046   5.876  11.411
56208W        W15469  18.093   0.249   2.832
56209W        W15470  35.906  26.027   2.861
56210W        W15471   6.763  36.993   2.216
56211W        W15472  43.431   0.353   2.390
56212W        W15473  26.174  22.705  14.277
56213W        W15474  22.068  37.043  11.521
56214W        W15475   2.328  38.361  13.940
56215W        W15476  24.137   2.412   3.734
56216W        W15477  27.679  28.088  14.407
56217W        W15478  31.011   8.898  13.328
56218W        W15479  41.942  22.165  12.521
56219W        W15480  11.634  25.113  14.954
56220W        W15481  42.873  44.898   2.282
56221W        W15482   5.800  29.954  14.335
56222W        W15483  19.281   1.870  14.898
56223W        W15484  23.731  15.115   0.940
56224W        W15485   6.265  26.613   4.805
56225W        W15486  20.070  19.540   3.344
56226W        W15487  15.600   5.213  11.030
56227W        W15488  37.510  23.155   1.404
56228W        W15489  30.454  42.410   3.237
56229W        W15490  39.432  38.003   4.765
56230W        W15491   9.887  20.548   1.332
56231W        W15492   7.890  20.151   2.198
56232W        W15493   8.817  28.629  13.472
56233W        W15494  43.928  41.455   0.338
56234W        W15495  44.314   6.199   3.240
56235W        W15496  32.539  24.107  13.922
56236W        W15497  18.160  21.581   4.706
56237W        W15498   0.839  43.468  11.905
56238W        W15499   3.430  23.141   1.706
56239W        W15500  16.687  20.249   0.933
56240W        W15501   2.225  40.997  12.030
56241W        W15502  31.097   8.277  11.445
56242W        W15503  44.800  12.125   4.290
56243W        W15504  18.765  31.958   9.950
56244W        W15505   0.362  41.957  11.901
56245W        W15506  21.175   7.320  14.927
56246W        W15507  33.100  15.638   4.224
56247W        W15508  17.708   2.873   2.286
56248W        W15509  28.115  31.022  12.386
56249W        W15510  26.471  34.006   0.883
56250W        W15511  33.536  44.457   2.185
56251W        W15512  32.423  43.850   0.840
56252W        W15513  28.608  18.260  11.424
56253W        W15514  32.913   7.807   0.469
56254W        W15515  43.366  36.525  11.125
56255W        W15516  43.832  15.707  13.874
56256W        W15517   3.427  12.163   2.380
56257W        W15518  28.541  30.914   4.653
56258W        W15519   2.391  26.112  14.399
56259W        W15520  26.155  24.528  10.088
56260W        W15521   2.421  20.683  10.641
56261W        W15522  37.894   3.830   3.238
56262W        W15523  39.551  17.616   4.244
56263W        W15524  40.354  22.129   1.270
56264W        W15525  10.849  43.939   2.892
56265W        W15526  22.659   4.212   3.777
56266W        W15527  30.045  37.025   3.753
56267W        W15528   4.409   8.384   2.362
56268W        W15529  32.979  30.453  13.022
56269W        W15530   6.918  16.750   1.856
56270W        W15531  21.556  20.106   0.435
56271W        W15532  20.532  28.608   4.277
56272W        W15533  34.540  22.588  11.590
56273W        W15534  17.615  33.598   4.693
56274W        W15535  29.449  26.546   1.715
56275W        W15536  28.114  22.699  10.099
56276W        W15537  28.007  39.922  10.993
56277W        W15538   6.285  22.739   2.287
56278W        W15539   1.924  18.550  13.331
56279W        W15540   5.408  36.403  12.573
56280W        W15541  14.783  28.110  12.374
56281W        W15542  33.537  12.251   0.790
56282W        W15543   4.872  17.274   2.739
56283W        W15544  23.692  15.792  13.045
56284W        W15545  24.647   6.401  14.008
56285W        W15546  17.634   9.219  12.465
56286W        W15547  28.139  18.269  11.562
56287W        W15548  32.521   5.790   0.297
56288W        W15549  36.059  16.765   3.254
56289W        W15550  33.970  37.934  14.940
56290W        W15551   5.862  31.575  14.887
56291W        W15552  23.989  12.172  12.339
56292W        W15553  35.587  14.806   2.759
56293W        W15554  13.121  21.170   4.200
56294W        W15555  28.648  11.789  11.549
56295W        W15556  20.080  23.551  11.067
56296W        W15557  18.147  24.037  14.934
56297W        W15558  16.642  31.493   3.280
56298W        W15559  34.415  34.494   9.539
56299W        W15560  42.500   0.451  14.488
56300W        W15561  27.596  21.191  13.980
56301W        W15562  38.074   6.916   0.334
56302W        W15563  15.652  10.722  10.473
56303W        W15564   6.696   1.879   3.213
56304W        W15565  24.104  21.204   9.993
56305W        W15566  26.207  40.877   2.267
56306W        W15567  18.689  20.046  13.323
56307W        W15568  40.053   7.307   0.893
56308W        W15569  26.964  38.990  10.948
56309W        W15570   8.698  23.688  11.548
56310W        W15571  27.559   8.177  10.970
56311W        W15572  24.702  25.030   2.346
56312W        W15573  41.020  20.065  11.486
56313W        W15574  44.997  26.996  13.805
56314W        W15575  35.968  22.170   0.459
56315W        W15576  44.814  11.684  14.410
56316W        W15577  20.565  38.463  12.867
56317W        W15578  35.601  42.461  13.357
56318W        W15579  27.146  39.397  13.415
56319W        W15580  36.022   8.659   3.188
56320W        W15581   1.770  10.152   2.252
56321W        W15582  25.972  30.051  13.364
56322W        W15583  33.904   1.305  13.326
56323W        W15584   7.328  12.282   0.465
56324W        W15585  40.370  14.232  10.022
56325W        W15586  21.634   8.268  11.531
56326W        W15587  18.129   0.809   0.464
56327W        W15588  15.133  20.088   3.859
56328W        W15589  11.331  34.982  12.414
56329W        W15590  20.181   4.724   4.251
56330W        W15591   8.255   1.764   1.433
56331W        W15592  29.507  36.420  14.810
56332W        W15593  23.230  23.126   0.847
56333W        W15594  43.436  16.192  10.892
56334W        W15595  28.965  33.539   1.266
56335W        W15596  22.654   3.923   0.360
56336W        W15597  36.076  22.663   2.195
56337W        W15598  28.020  26.972  12.040
56338W        W15599  11.787  44.927   4.806
56339W        W15600  28.613  24.201   2.826
56340W        W15601  41.308  33.999  14.459
56341W        W15602  13.814  15.218  10.589
56342W        W15603  15.160   9.878  13.528
56343W        W15604   5.742  20.537  14.778
56344W        W15605  29.472   4.900  10.920
56345W        W15606  17.779  31.968   4.142
56346W        W15607  43.324  38.895  12.401
56347W        W15608  29.527  25.099  13.403
56348W        W15609  26.556  11.806  14.810
56349W        W15610  36.006  43.408   3.858
56350W        W15611  35.521  23.239  14.367
56351W        W15612  30.072  27.450  13.870
56352W        W15613   9.224   2.795  10.547
56353W        W15614  35.938  29.512   4.761
56354W        W15615  43.839  26.959   2.396
56355W        W15616   6.783  28.947  11.067
56356W        W15617   4.333   3.322  12.916
56357W        W15618   8.893  17.566   4.341
56358W        W15619  41.969  26.098  14.894
56359W        W15620  26.988   3.308   2.668
56360W        W15621  27.953  39.034  11.478
56361W        W15622  39.448   6.850  12.967
56362W        W15623  17.663  25.473   3.344
56363W        W15624  43.997  18.659  12.992
56364W        W15625  11.667  30.003   1.223
56365W        W15626   4.371  23.675  11.516
56366W        W15627   7.247   4.350  11.908
56367W        W15628  37.863   6.781  14.509
56368W        W15629  24.013  25.218   2.798
56369W        W15630   9.176  33.996   3.270
56370W        W15631  13.150  18.097  14.896
56371W        W15632  22.732  35.500   3.847
56372W        W15633  31.152  15.137   1.915
56373W        W15634   4.205   4.411   1.215
56374W        W15635  11.177  31.609   3.761
56375W        W15636  11.744  26.497   0.426
56376W        W15637  12.757  24.636  12.560
56377W        W15638  21.079  29.164   2.207
56378W        W15639   3.883  43.425  10.544
56379W        W15640  26.999  28.068   9.980
56380W        W15641  21.700  23.116  10.980
56381W        W15642  20.638  21.119  13.511
56382W        W15643   0.439   4.411   0.933
56383W        W15644  10.763   9.686  10.921
56384W        W15645  25.657  32.130  12.935
56385W        W15646  43.397  34.514   2.230
56386W        W15647  19.657  15.699  12.861
56387W        W15648  34.099   5.257   2.779
56388W        W15649   2.383  26.681   4.621
56389W        W15650  25.612  13.209   3.343
56390W        W15651  35.474   8.195   2.791
56391W        W15652  30.649  18.789  12.087
56392W        W15653   8.289  33.944  10.941
56393W        W15654  23.628  28.493  14.475
56394W        W15655  16.582  18.245  13.791
56395W        W15656  30.493  43.332   3.204
56396W        W15657   6.281  25.517  14.940
56397W        W15658   6.841  42.981  14.797
56398W        W15659  40.962  40.905  13.869
56399W        W15660  32.919  19.737  14.943
56400W        W15661  36.475  19.089   1.793
56401W        W15662  15.090  15.289   1.901
56402W        W15663  25.203  13.232  11.486
56403W        W15664  10.330  13.676  12.889
56404W        W15665  30.552  25.207  13.500
56405W        W15666   6.922  44.775  12.884
56406W        W15667  34.067  39.525  13.440
56407W        W15668  23.144  11.849  14.935
56408W        W15669   3.392  34.060   4.173
56409W        W15670  42.353  14.299  11.020
56410W        W15671  19.667  36.395   1.758
56411W        W15672   0.885  40.364  12.038
56412W        W15673  26.678  44.410   5.233
56413W        W15674  10.676  35.576  12.856
56414W        W15675   2.732  19.604   3.281
56415W        W15676   1.270  18.693   2.820
56416W        W15677  26.577  39.331  14.976
56417W        W15678  24.984   8.173  12.035
56418W        W15679  41.033   2.419  11.944
56419W        W15680   5.739  44.755  13.380
56420W        W15681  13.233  28.066   5.773
56421W        W15682  11.170  24.977   4.246
56422W        W15683  14.274  39.818   1.813
56423W        W15684  43.015  24.628  12.841
56424W        W15685  22.695  20.543  11.440
56425W        W15686   1.362  26.062  10.632
56426W        W15687  36.874   1.420   2.179
56427W        W15688  36.560  32.946  12.353
56428W        W15689  13.812  22.222   2.667
56429W        W15690  34.404  31.045  11.551
56430W        W15691  33.097   4.359  10.519
56431W        W15692  42.489  13.680  11.534
56432W        W15693  32.059  24.118  12.468
56433W        W15694  36.892  33.078  11.392
56434W        W15695  15.310  10.235   3.306
56435W        W15696  33.491  33.616  10.447
56436W        W15697  17.099  41.825   4.146
56437W        W15698  40.935  39.010   4.666
56438W        W15699  22.686  35.946   0.330
56439W        W15700   3.273   6.796  12.019
56440W        W15701  24.216   5.218   1.772
56441W        W15702  32.944  12.192   3.671
56442W        W15703   7.189  38.331   1.716
56443W        W15704   7.851  44.877  14.504
56444W        W15705  40.456   5.297   4.271
56445W        W15706  40.397  30.443  12.021
56446W        W15707  25.006  22.207  10.948
56447W        W15708  20.730  12.813   1.921
56448W        W15709  36.936  26.170  13.910
56449W        W15710  20.182  21.121  11.982
56450W        W15711   1.854  38.416   3.257
56451W        W15712  29.979  38.362  12.006
56452W        W15713  35.373  43.295  13.901
56453W        W15714  29.595  30.412  11.487
56454W        W15715  14.152  12.686  14.514
56455W        W15716  38.529   9.307  14.467
56456W        W15717  36.870  22.709   2.230
56457W        W15718   2.757   7.857   2.824
56458W        W15719  26.961  13.277   4.765
56459W        W15720  42.825   7.229   0.918
56460W        W15721  38.386   3.903   4.730
56461W        W15722  43.934   9.321   2.902
56462W        W15723  12.148  39.056   0.253
56463W        W15724  29.933  28.468   1.232
56464W        W15725  39.405  35.487   1.430
56465W        W15726  12.768  27.018  12.071
56466W        W15727  40.945  19.222  11.124
56467W        W15728  40.501  32.548  13.024
56468W        W15729  11.632  35.973   0.832
56469W        W15730  36.423   5.846   4.667
56470W        W15731   0.305  31.642  13.367
56471W        W15732   3.753  20.545   0.258
56472W        W15733   7.358  20.193   2.682
56473W        W15734  39.340  29.455   3.795
56474W        W15735   5.709  32.897  14.773
56475W        W15736  13.177  27.561  13.818
56476W        W15737   4.387  25.025  12.551
56477W        W15738  24.607   8.843   2.855
56478W        W15739  38.040  34.948   0.349
56479W        W15740  29.425  38.345   2.404
56480W        W15741  38.939  44.764  11.962
56481W        W15742  42.313  19.124   4.259
56482W        W15743  33.454  19.662   0.878
56483W        W15744   7.394   0.491  12.981
56484W        W15745   5.904  28.011  11.580
56485W        W15746  22.249  20.269  11.061
56486W        W15747   8.177  22.614  12.987
56487W        W15748  21.038  33.932  13.048
56488W        W15749  35.963  22.558   1.848
56489W        W15750   1.433  30.982  14.327
56490W        W15751  40.469  41.905   3.760
56491W        W15752  34.121  28.656  13.879
56492W        W15753  34.077  13.285  14.423
56493W        W15754  31.059  26.961  10.440
56494W        W15755  33.390  42.933  13.995
56495W        W15756  36.396  24.551  13.890
56496W        W15757   5.405  11.812  14.483
56497W        W15758  31.008   9.167  11.104
56498W        W15759  29.952  30.996  14.856
56499W        W15760  21.537  24.014   2.268
56500W        W15761  40.449  18.790  13.389
56501W        W15762  13.822   6.864   1.765
56502W        W15763  23.169  18.123  14.961
56503W        W15764  16.641  24.035   1.309
56504W        W15765  39.374   1.382  10.919
56505W        W15766  31.427  20.187  14.360
56506W        W15767  41.316  27.192   0.946
56507W        W15768  10.198  23.235   1.255
56508W        W15769  28.449  28.017   2.355
56509W        W15770  43.418  10.719  13.018
56510W        W15771  42.331  31.135   2.366
56511W        W15772  13.616  20.066  13.029
56512W        W15773   4.701  18.742  11.576
56513W        W15774   4.442  24.485   3.336
56514W        W15775  27.662  26.037   1.433
56515W        W15776  11.217  13.113   1.919
56516W        W15777   1.254  35.936  13.502
56517W        W15778  20.568  35.893   4.169
56518W        W15779  23.608  19.695  10.524
56519W        W15780  17.300   7.180  12.359
56520W        W15781  26.090  25.708  14.938
56521W        W15782  13.746   7.668   1.232
56522W        W15783  30.090  34.892   0.294
56523W        W15784  12.806  18.747   2.217
56524W        W15785  13.291  24.113   0.294
56525W        W15786   1.436  33.030   1.886
56526W        W15787  27.482   5.928  13.962
56527W        W15788   9.734  17.209   0.329
56528W        W15789   6.803  34.040   2.746
56529W        W15790  43.365  36.085  10.603
56530W        W15791   8.261   3.276  13.035
56531W        W15792   4.258  25.122   0.875
56532W        W15793  40.000  19.562   0.957
56533W        W15794   3.352  15.116  12.841
56534W        W15795  41.961  34.976  14.505
56535W        W15796   8.396   9.154   3.851
56536W        W15797  15.741   1.937   1.213
56537W        W15798  38.335  44.310  11.598
56538W        W15799  15.778  23.678  11.405
56539W        W15800  22.668  18.751  13.529
56540W        W15801  35.551  14.213   2.710
56541W        W15802  17.752  30.131   0.774
56542W        W15803  30.157  30.620   4.249
56543W        W15804   0.431  26.573  13.980
56544W        W15805  22.708   9.206   2.687
56545W        W15806  38.016  31.983  14.447
56546W        W15807  23.730   6.428  10.620
56547W        W15808  12.690  13.333  13.491
56548W        W15809   2.915  25.210   4.756
56549W        W15810  29.991  21.194   2.201
56550W        W15811  27.948  12.746   4.622
56551W        W15812   1.244  25.165   4.123
56552W        W15813   6.263  27.139   2.747
56553W        W15814  17.568   6.893  12.960
56554W        W15815  15.769  14.281   4.713
56555W        W15816   4.311  31.551   2.302
56556W        W15817  38.863   5.209   3.724
56557W        W15818   5.932  33.567  14.299
56558W        W15819  42.032  38.934   0.433
56559W        W15820  32.420  24.659  11.057
56560W        W15821  31.549  39.393  11.562
56561W        W15822   4.234  16.114   4.352
56562W        W15823  12.344  37.921  14.026
56563W        W15824  16.730   4.334  11.858
56564W        W15825  12.160  28.985   2.319
56565W        W15826   2.259  43.872   1.260
56566W        W15827  19.272   1.752  14.278
56567W        W15828  38.022  13.310  12.527
56568W        W15829  29.044  13.665  12.888
56569W        W15830  23.194  38.553  14.867
56570W        W15831  27.974  13.820   0.431
56571W        W15832  17.232   5.201   2.204
56572W        W15833  32.902  25.005  12.438
56573W        W15834   1.310  25.203   3.809
56574W        W15835  37.926  43.788   4.192
56575W        W15836  33.456  19.631   3.208
56576W        W15837  32.066  29.154  10.611
56577W        W15838  37.854  34.965  13.897
56578W        W15839   4.755  14.291   3.678
56579W        W15840  18.666  21.626   2.831
56580W        W15841  25.523  34.491   3.724
56581W        W15842  17.690   0.949   2.373
56582W        W15843  44.434  30.088  12.931
56583W        W15844  20.634  15.686   4.294
56584W        W15845  11.629  38.887   0.947
56585W        W15846   8.792  34.519   1.790
56586W        W15847   8.209  43.394  14.889
56587W        W15848  16.745  40.319  10.586
56588W        W15849  15.111  38.906   3.294
56589W        W15850  36.896  14.147   3.252
56590W        W15851  18.548  38.937   1.334
56591W        W15852   9.712   5.394  10.149
56592W        W15853  37.063  40.461   2.720
56593W        W15854  20.563   7.298  12.042
56594W        W15855   9.690   3.714  10.565
56595W        W15856  21.145   1.912   0.853
56596W        W15857   4.795  11.713  11.568
56597W        W15858  13.206  17.729  12.514
56598W        W15859   5.850  15.606   1.801
56599W        W15860  30.586  35.001  12.353
56600W        W15861  19.585  14.787  14.283
56601W        W15862  18.552  40.861   2.276
56602W        W15863   8.654  31.903  10.066
56603W        W15864  33.993   9.338  13.818
56604W        W15865  30.154  18.758  14.819
56605W        W15866   8.255  19.052   4.664
56606W        W15867  40.421  35.580  12.570
56607W        W15868  38.857   0.811  12.851
56608W        W15869   1.734  21.106  12.551
56609W        W15870  26.069  29.114  12.559
56610W        W15871   4.707   8.698   2.706
56611W        W15872  42.022   0.305  12.036
56612W        W15873  31.548  14.771  14.954
56613W        W15874  22.045  22.159  11.498
56614W        W15875  42.960  20.215  13.007
56615W        W15876  43.815  25.593  12.914
56616W        W15877  30.929   0.416   0.811
56617W        W15878  44.797   8.183   3.858
56618W        W15879   2.276  38.483  11.097
56619W        W15880  38.822  37.385   0.816
56620W        W15881  15.602  44.986  11.037
56621W        W15882  17.219  24.703  13.051
56622W        W15883  23.185   0.973   4.663
56623W        W15884  43.417  12.162  11.447
56624W        W15885   6.698  23.669   3.375
56625W        W15886  39.006  33.117  13.988
56626W        W15887   8.279  35.076  14.295
56627W        W15888  15.729  14.793   3.380
56628W        W15889  28.507  38.555   0.768
56629W        W15890  31.415   8.704  12.402
56630W        W15891  38.876  26.687   0.446
56631W        W15892  13.698   2.759  11.991
56632W        W15893  24.185  28.614  12.579
56633W        W15894   6.364  33.450  11.989
56634W        W15895  35.398  19.769  13.046
56635W        W15896  41.828  26.181  10.911
56636W        W15897   8.299  20.129   3.340
56637W        W15898  31.070   0.806   2.348
56638W        W15899  26.132   0.939   2.770
56639W        W15900   7.815   5.778  10.446
56640W        W15901  15.282  30.947  13.430
56641W        W15902  31.898  13.796  11.870
56642W        W15903   5.373   1.757  13.845
56643W        W15904  30.964  21.067   0.864
56644W        W15905   1.363  30.642  13.328
56645W        W15906  25.709   4.318  10.504
56646W        W15907  15.142  44.336   2.251
56647W        W15908  31.527  33.422  14.864
56648W        W15909  25.130   3.294  10.436
56649W        W15910  19.679  13.226   3.709
56650W        W15911  19.729  18.179   0.330
56651W        W15912  31.625  16.115   2.249
56652W        W15913  34.094   4.293   2.718
56653W        W15914   1.840  25.586  13.941
56654W        W15915  13.628  43.847   2.684
56655W        W15916   0.487  42.941  11.395
56656W        W15917  29.504   1.857   0.265
56657W        W15918  21.702  30.628  13.523
56658W        W15919  34.081  41.031   2.852
56659W        W15920   4.398   8.901  11.991
56660W        W15921  15.774   8.235   4.822
56661W        W15922  22.616   7.715   1.409
56662W        W15923  19.277  36.423  11.397
56663W        W15924  44.952  40.048  12.088
56664W        W15925  12.807  40.389  11.429
56665W        W15926   2.272  38.823  12.078
56666W        W15927  17.240   5.880  12.542
56667W        W15928  11.808  27.606   0.805
56668W        W15929  23.577  22.229   0.844
56669W        W15930  17.140  22.116   1.312
56670W        W15931  18.722  17.182  13.855
56671W        W15932  33.949  12.244   1.845
56672W        W15933  20.110  21.262  10.070
56673W        W15934  24.545   8.860  14.937
56674W        W15935   4.848  29.621   1.874
56675W        W15936  43.847  18.263  13.472
56676W        W15937  18.602   2.330  14.768
56677W        W15938   2.307  17.728  13.379
56678W        W15939  35.997  16.582  10.979
56679W        W15940  42.994   1.367   1.283
56680W        W15941  32.010  27.952  12.969
56681W        W15942  35.427   6.902   3.751
56682W        W15943  23.550   9.178  13.850
56683W        W15944   1.446  27.952  14.397
56684W        W15945  18.754  43.316  14.785
56685W        W15946  28.466  39.047  12.825
56686W        W15947  31.046   6.200  14.406
56687W        W15948  25.204  19.235   3.252
56688W        W15949   6.330  25.592  13.917
56689W        W15950  29.001  28.534  13.804
56690W        W15951  32.499  29.645  10.410
56691W        W15952   8.279   4.246  13.906
56692W        W15953  31.522  17.774  14.841
56693W        W15954  10.868  41.330  10.574
56694W        W15955   6.360  38.831  13.869
56695W        W15956  10.265  30.916   0.919
56696W        W15957  42.985  23.491   3.373
56697W        W15958  24.115  34.548   3.216
56698W        W15959  17.226  34.066  13.400
56699W        W15960  32.489  24.499  11.899
56700W        W15961  28.459  17.280   4.753
56701W        W15962  16.076  22.997   0.818
56702W        W15963  35.862  39.051  14.285
56703W        W15964  33.382  40.347   4.335
56704W        W15965  15.212  11.155   2.863
56705W        W15966   2.257  11.666   2.201
56706W        W15967   9.391  29.086  10.535
56707W        W15968  12.750  42.008   2.387
56708W        W15969  13.821  14.242   3.196
56709W        W15970  10.276  19.780  11.996
56710W        W15971  41.877  28.525   4.290
56711W        W15972  36.471  10.213   3.354
56712W        W15973  31.527  41.790   3.194
56713W        W15974  24.515  29.600  12.089
56714W        W15975   3.884  14.682   4.261
56715W        W15976  35.595  18.133   0.902
56716W        W15977   6.246   3.799  14.399
56717W        W15978  22.668  36.888   1.792
56718W        W15979  36.891  29.585  13.400
56719W        W15980   8.166  16.802  14.421
56720W        W15981  17.788  41.821   2.826
56721W        W15982  29.147  29.626   0.947
56722W        W15983  43.998  44.440   1.770
56723W        W15984  29.002  27.948   4.167
56724W        W15985  19.266   2.966  13.403
56725W        W15986  27.597  12.674   0.744
56726W        W15987  24.048   9.283  13.356
56727W        W15988   8.273   9.784  13.346
56728W        W15989  12.155  32.567   2.666
56729W        W15990   8.256  26.052  13.508
56730W        W15991  14.615  37.494  13.307
56731W        W15992  44.866  42.942  11.587
56732W        W15993  27.000  36.464   4.208
56733W        W15994   1.774  11.267   3.350
56734W        W15995  33.105  12.288  13.017
56735W        W15996  11.248   8.341   3.830
56736W        W15997  25.215  25.540  14.417
56737W        W15998  42.811  10.145   1.844
56738W        W15999  33.083  23.495   2.714
56739W        W16000   2.334   9.805   3.702
56740W        W16001  10.696  28.447   0.911
56741W        W16002  34.395  36.852  11.558
56742W        W16003  18.282  14.283   2.230
56743W        W16004  34.390  10.670  10.626
56744W        W16005  39.979  17.674  14.774
56745W        W16006  24.527  21.027   4.713
56746W        W16007  22.067  44.938   1.301
56747W        W16008  35.019  26.092   3.659
56748W        W16009  39.985   4.321  11.373
56749W        W16010  26.598  34.471   2.270
56750W        W16011  31.970  20.650   0.938
56751W        W16012  17.201  33.454   3.169
56752W        W16013  40.436  42.961   1.279
56753W        W16014  25.636  34.033   3.249
56754W        W16015  38.840   6.865  13.473
56755W        W16016  11.841  32.597   4.664
56756W        W16017  12.182  21.168   0.265
56757W        W16018  41.486  28.937  14.413
56758W        W16019  21.043  38.550   3.748
56759W        W16020   4.262  24.187   4.338
56760W        W16021  35.875  31.972  11.884
56761W        W16022   3.719  43.967  12.856
56762W        W16023  10.351  24.601   3.187
56763W        W16024  31.976  40.981   2.232
56764W        W16025   0.988  39.048  12.381
56765W        W16026   0.779  21.543   1.739
56766W        W16027  17.740  40.036   3.698
56767W        W16028   4.274   6.412   2.308
56768W        W16029  31.529   8.381   4.250
56769W        W16030   7.878  21.686  13.035
56770W        W16031  33.468  25.964  10.450
56771W        W16032   9.270   1.913   1.929
56772W        W16033  26.542  27.506  10.915
56773W        W16034  15.158   0.901  13.370
56774W        W16035  18.282  10.683   2.902
56775W        W16036  14.814  22.223   1.918
56776W        W16037  13.750  33.494  11.107
56777W        W16038  18.669  40.320   3.709
56778W        W16039  28.987  41.884   3.786
56779W        W16040  10.702  24.552   4.807
56780W        W16041  10.747  38.062   4.213
56781W        W16042   0.975   0.450   0.480
56782W        W16043  42.901  19.639   2.707
56783W        W16044  22.160   3.356   3.859
56784W        W16045  33.113  15.605   4.606
56785W        W16046  30.919   6.846  14.772
56786W        W16047   4.289  14.287  10.532
56787W        W16048  33.020  10.334   4.332
56788W        W16049  13.813  23.603   1.694
56789W        W16050  40.450   4.909  11.562
56790W        W16051  30.612  37.894  12.025
56791W        W16052  16.276  27.091   4.794
56792W        W16053  37.962  13.142  11.372
56793W        W16054  26.593   3.314   3.253
56794W        W16055  36.474  38.413  12.973
56795W        W16056  36.350  36.906   1.787
56796W        W16057   4.939  26.497   2.341
56797W        W16058   7.906  13.216  13.450
56798W        W16059  31.113  30.943  13.441
56799W        W16060  31.028  40.947   0.894
56800W        W16061  32.054  40.423  11.057
56801W        W16062  23.169  19.180  11.030
56802W        W16063  44.293  37.339   3.266
56803W        W16064  26.091  20.758   2.814
56804W        W16065   3.726   1.358  14.365
56805W        W16066  10.836  30.142   4.201
56806W        W16067  35.059  11.337   0.768
56807W        W16068  43.806  20.244  11.575
56808W        W16069   1.459  37.514  12.987
56809W        W16070  15.751  17.276  12.880
56810W        W16071  23.707  28.949  11.903
56811W        W16072   8.678  25.611   4.620
56812W        W16073   6.854  28.977   3.869
56813W        W16074  22.684  30.553  10.495
56814W        W16075  21.052   7.406  11.929
56815W        W16076   0.285  30.592  14.838
56816W        W16077  23.052  38.057   0.478
56817W        W16078  26.521   2.884   3.283
56818W        W16079  40.326  16.690  14.905
56819W        W16080   8.164  34.987  14.781
56820W        W16081  25.615  33.607   3.202
56821W        W16082   9.749  33.432  14.952
56822W        W16083   2.252  17.556   3.245
56823W        W16084  44.867  26.656  14.466
56824W        W16085   3.393  20.264   1.776
56825W        W16086   3.809  14.610  10.549
56826W        W16087  31.531  37.080   3.652
56827W        W16088  42.518  12.618  13.439
56828W        W16089  37.496   4.301  11.581
56829W        W16090  26.648  29.969   0.373
56830W        W16091  38.076   4.278  12.043
56831W        W16092  19.273  36.447   2.368
56832W        W16093  23.154  12.713   2.336
56833W        W16094  42.800  30.610   0.462
56834W        W16095   2.266  15.157  14.028
56835W        W16096  26.593  39.510   4.744
56836W        W16097  30.595   8.207   3.820
56837W        W16098  33.576  42.963  15.000
56838W        W16099  17.790  18.067   3.675
56839W        W16100   7.792  22.507  12.069
56840W        W16101  15.266  41.001  13.440
56841W        W16102  43.825  30.016   4.646
56842W        W16103  24.684  40.836   3.810
56843W        W16104  33.520  15.748   4.177
56844W        W16105   5.854  43.883   3.789
56845W        W16106  39.440  43.941  14.775
56846W        W16107  13.253  12.352  11.112
56847W        W16108  36.498   9.308  11.419
56848W        W16109  35.409  15.734  13.861
56849W        W16110  35.992  33.976   0.402
56850W        W16111  24.071  20.624  12.879
56851W        W16112  37.344  18.193  10.559
56852W        W16113  34.472  35.937   2.890
56853W        W16114  42.337  11.756  13.317
56854W        W16115  41.006   7.845   2.386
56855W        W16116  44.825  16.078  11.534
56856W        W16117  41.918  37.965   0.779
56857W        W16118  14.239  40.833  14.300
56858W        W16119  10.722  30.141   0.763
56859W        W16120  16.731  35.409   4.653
56860W        W16121  10.866   5.710   1.790
56861W        W16122  33.501  36.573   0.912
56862W        W16123  36.379  10.749  13.856
56863W        W16124  11.823  17.603   9.522
56864W        W16125  28.096   7.687  11.481
56865W        W16126  14.171   8.224  14.290
56866W        W16127  21.212  34.419  11.417
56867W        W16128  20.225  25.588  14.886
56868W        W16129  30.143   5.885   1.823
56869W        W16130  40.428  10.738   0.323
56870W        W16131  26.044   5.836   0.432
56871W        W16132  30.426  13.257   0.388
56872W        W16133  43.947  16.789   3.335
56873W        W16134  19.260   9.222   3.646
56874W        W16135  27.150  39.379   3.223
56875W        W16136  28.070  44.946   1.905
56876W        W16137  28.150  21.544   4.200
56877W        W16138  37.861  18.640  11.882
56878W        W16139  41.871  12.667  11.099
56879W        W16140  17.220   1.385  13.897
56880W        W16141  34.970  39.395   0.301
56881W        W16142  44.789   5.258  13.911
56882W        W16143   7.709  19.609  14.336
56883W        W16144  14.197  38.985   1.361
56884W        W16145  11.708  33.410   4.761
56885W        W16146  20.566   5.392   2.720
56886W        W16147  13.698  10.744  12.922
56887W        W16148   9.224  15.777   1.857
56888W        W16149  33.113   3.237   4.829
56889W        W16150   3.893  28.475  10.637
56890W        W16151  30.075  17.559   1.868
56891W        W16152  11.150  24.635  13.791
56892W        W16153  26.165  37.362   0.459
56893W        W16154   7.882  34.393  13.823
56894W        W16155  24.182  39.342  10.550
56895W        W16156  17.717  31.102   1.822
56896W        W16157   2.750  24.154   3.354
56897W        W16158   6.416  22.197   1.911
56898W        W16159  43.489  13.147  10.467
56899W        W16160  22.134  26.565  12.968
56900W        W16161  20.569  41.951   2.255
56901W        W16162   0.405   6.335   1.326
56902W        W16163  18.778  44.265  13.987
56903W        W16164  28.058   9.785   1.440
56904W        W16165  31.011   6.801   0.763
56905W        W16166  26.621  11.163  13.028
56906W        W16167  21.250  23.156   4.622
56907W        W16168   6.263  28.957   1.377
56908W        W16169  16.169  26.038  10.103
56909W        W16170   4.800   3.830   1.763
56910W        W16171   2.466   9.884   1.277
56911W        W16172  15.593  27.691  11.399
56912W        W16173  13.128  18.631  14.892
56913W        W16174  11.638  26.540  14.809
56914W        W16175   2.388   6.194  10.977
56915W        W16176  13.208  35.888   1.318
56916W        W16177  11.277  16.575   4.653
56917W        W16178  41.460  18.662   3.674
56918W        W16179   4.306  18.690  11.580
56919W        W16180  28.569  42.397   3.765
56920W        W16181  31.599  10.795   0.428
56921W        W16182  39.492  36.961   2.347
56922W        W16183  19.103  28.181   0.832
56923W        W16184  21.654  40.987  12.880
56924W        W16185  41.884  32.618  12.939
56925W        W16186  10.273   2.892   0.839
56926W        W16187  41.919  21.232  11.129
56927W        W16188   8.330  25.972   1.382
56928W        W16189  11.337  28.607   0.304
56929W        W16190  13.334   4.873  12.021
56930W        W16191  41.296  18.625   2.229
56931W        W16192  25.097   7.239   1.366
56932W        W16193  22.698  42.369   3.313
56933W        W16194   7.791  23.570   3.765
56934W        W16195  40.799  29.127  13.806
56935W        W16196  42.943   9.884  13.329
56936W        W16197  12.308  36.871  11.073
56937W        W16198  13.170   6.789  11.922
56938W        W16199  12.169  29.570   4.176
56939W        W16200   0.418  42.499   0.818
56940W        W16201  26.200  38.414  13.431
56941W        W16202  20.639   8.814  13.843
56942W        W16203  11.687   4.441  10.152
56943W        W16204   7.836  30.094  10.613
56944W        W16205  16.693  27.670  14.339
56945W        W16206   9.211  20.710  12.940
56946W        W16207  14.247  27.999  13.463
56947W        W16208  31.905  17.742  14.322
56948W        W16209  22.071  40.340   1.895
56949W        W16210  32.466  31.907  14.981
56950W        W16211  34.382  35.421  10.630
56951W        W16212  11.829  35.411   1.443
56952W        W16213  41.471  18.628  14.890
56953W        W16214  30.053  40.922   2.898
56954W        W16215  33.033   9.761   4.181
56955W        W16216  33.424  15.089  11.487
56956W        W16217  34.435  42.805   5.233
56957W        W16218   0.803  16.167  13.460
56958W        W16219   3.231  40.330   5.252
56959W        W16220   2.277  26.173  14.860
56960W        W16221   5.317  42.925   1.725
56961W        W16222  28.619  12.277   1.902
56962W        W16223   8.361  34.989   4.137
56963W        W16224   4.924  28.515   1.414
56964W        W16225   9.701  25.579  13.832
56965W        W16226  43.845  13.191  10.633
56966W        W16227   5.850  31.410  11.415
56967W        W16228  31.143  35.897  14.837
56968W        W16229  39.855  24.715  12.459
56969W        W16230  23.717  16.110   0.769
56970W        W16231  29.467  31.486   2.323
56971W        W16232  32.988  33.619  12.956
56972W        W16233   9.312  25.963   0.418
56973W        W16234  10.212  33.580  10.943
56974W        W16235   5.697  15.696   2.345
56975W        W16236   0.878  32.489   4.622
56976W        W16237  32.632  38.011  11.954
56977W        W16238  18.722  14.170  12.044
56978W        W16239  32.067  42.280  11.512
56979W        W16240  20.715  35.902   2.314
56980W        W16241  41.857  34.463   4.304
56981W        W16242   9.335  25.139  11.947
56982W        W16243  37.486  20.650  11.063
56983W        W16244  42.443  42.014   2.736
56984W        W16245  29.482   2.364   0.767
56985W        W16246  40.873  18.677   3.375
56986W        W16247   3.894  19.666  12.574
56987W        W16248  23.706  12.774   4.330
56988W        W16249  39.822  24.592   0.476
56989W        W16250   7.229  17.666  14.882
56990W        W16251   3.418  18.286   4.794
56991W        W16252   5.331  18.255  13.964
56992W        W16253   2.774  43.287   2.405
56993W        W16254  17.125   5.273   4.776
56994W        W16255   3.730  15.692   0.252
56995W        W16256   1.975  19.149   2.871
56996W        W16257   3.803  31.569   1.829
56997W        W16258  29.089  42.950   4.815
56998W        W16259   9.852  13.846   9.957
56999W        W16260  37.087   2.757  14.283
57000W        W16261  17.800  21.181  14.435
57001W        W16262   0.465  14.730  11.050
57002W        W16263   9.164   8.254   1.267
57003W        W16264  26.073  32.544  14.996
57004W        W16265  39.560   7.856   4.354
57005W        W16266   7.895  20.034   3.298
57006W        W16267  29.066  24.166  12.385
57007W        W16268  20.703  21.169  10.516
57008W        W16269  26.650  19.757   1.263
57009W        W16270  30.960  44.936  10.420
57010W        W16271   6.723   6.297   1.759
57011W        W16272   0.977   7.180  10.997
57012W        W16273  28.071   7.415  14.368
57013W        W16274   3.242  26.202   1.788
57014W        W16275  20.094   7.187   3.755
57015W        W16276  35.882  21.700  12.880
57016W        W16277  17.163   5.377   4.285
57017W        W16278  40.415  19.537  11.392
57018W        W16279   0.296  44.453  13.455
57019W        W16280  43.490  24.059  11.536
57020W        W16281  10.305  20.075   3.214
57021W        W16282  39.545  37.550   2.684
57022W        W16283  21.706  17.740  11.905
57023W        W16284  16.120  29.024   1.890
57024W        W16285  28.145  42.410  12.562
57025W        W16286   2.369  39.513   2.298
57026W        W16287  20.269   0.785   3.381
57027W        W16288  31.494  30.046  11.071
57028W        W16289  41.989  10.301   4.171
57029W        W16290  34.061  31.010  12.363
57030W        W16291  12.809  44.778  10.984
57031W        W16292   7.900   9.710   2.289
57032W        W16293  21.139  13.123  14.984
57033W        W16294  38.967  44.009   0.816
57034W        W16295  42.888  26.106   1.245
57035W        W16296   1.371  34.371   1.394
57036W        W16297   2.231  24.998   2.191
57037W        W16298  37.921  27.525  12.344
57038W        W16299  18.168  38.408   0.788
57039W        W16300   9.339   6.709  11.611
57040W        W16301  32.024  32.606   0.801
57041W        W16302  44.875  13.136   4.324
57042W        W16303   4.909  42.378   2.408
57043W        W16304   1.297  30.096  14.350
57044W        W16305  20.047  23.505  13.505
57045W        W16306  34.913   5.387   1.317
57046W        W16307  13.284  27.477  11.539
57047W        W16308  16.091  35.952  10.923
57048W        W16309  27.571   0.392  12.946
57049W        W16310   8.747   5.250  11.464
57050W        W16311  16.610  35.865  13.362
57051W        W16312  12.788  10.805  12.829
57052W        W16313  43.975  44.010   3.684
57053W        W16314  11.720  36.938  10.512
57054W        W16315  26.480   6.683   1.243
57055W        W16316  13.622   3.340  11.874
57056W        W16317  10.745  42.356  12.063
57057W        W16318  40.390  27.478  12.020
57058W        W16319  40.053  22.557   1.928
57059W        W16320  26.685  43.969   4.626
57060W        W16321  16.765  14.199   4.707
57061W        W16322  10.182  32.575  12.053
57062W        W16323  12.206  24.082  14.438
57063W        W16324  44.483  20.642   1.878
57064W        W16325  31.596  10.224   3.733
57065W        W16326  22.223  13.321   4.614
57066W        W16327  36.848  44.493  11.093
57067W        W16328  25.601  35.905  13.809
57068W        W16329  14.120  26.624  14.371
57069W        W16330  30.538  31.647  14.368
57070W        W16331  34.458  27.683   2.761
57071W        W16332  43.376   5.704   0.391
57072W        W16333  36.436  20.119  13.842
57073W        W16334  18.570  32.463   4.816
57074W        W16335  33.534  35.459   4.330
57075W        W16336  28.668  20.613  14.999
57076W        W16337  43.854  22.649  14.843
57077W        W16338  31.118  19.237  12.362
57078W        W16339  27.010  31.449   1.801
57079W        W16340  14.636  17.101  13.840
57080W        W16341  12.130  28.989   1.847
57081W        W16342   3.794   8.230  13.036
57082W        W16343  16.577  27.603   1.427
57083W        W16344  19.583  16.614  10.432
57084W        W16345   2.320  30.424  11.464
57085W        W16346  28.938  25.058   0.274
57086W        W16347  22.641  17.783  11.470
57087W        W16348  11.368  23.119   4.678
57088W        W16349  39.522  40.381   0.325
57089W        W16350  23.208  30.157  11.936
57090W        W16351  40.859   7.800  11.894
57091W        W16352  22.583  15.741   4.649
57092W        W16353   3.806  17.573   0.755
57093W        W16354  12.351  17.619   2.900
57094W        W16355  28.026  23.714  13.369
57095W        W16356  12.649  20.643   4.226
57096W        W16357  10.148  43.278  11.596
57097W        W16358  31.039   9.343   2.855
57098W        W16359  11.139  23.718   3.179
57099W        W16360  28.056  13.251   1.441
57100W        W16361  26.096  33.387   3.338
57101W        W16362   9.206   7.364   3.682
57102W        W16363   4.255  13.153   0.838
57103W        W16364  15.578  33.530  12.958
57104W        W16365  41.426  30.428   3.347
57105W        W16366  22.187  14.805  13.911
57106W        W16367  17.647  17.279   5.570
57107W        W16368  10.738  34.010   4.223
57108W        W16369  16.599  10.342   2.740
57109W        W16370  43.827  21.563   1.430
57110W        W16371   6.754  17.240  12.503
57111W        W16372  13.279  41.299   4.189
57112W        W16373   9.671  35.493  14.870
57113W        W16374  22.687  37.414  12.381
57114W        W16375  38.923   6.213   4.153
57115W        W16376  42.361   3.720  12.529
57116W        W16377  35.422  19.110   4.689
57117W        W16378  28.168  40.980  10.916
57118W        W16379   9.286  42.366  10.463
57119W        W16380  18.724   6.859  11.011
57120W        W16381  12.253   6.360  12.858
57121W        W16382  33.393  16.092   4.249
57122W        W16383  13.716  40.024   2.233
57123W        W16384  20.239  30.472  10.124
57124W        W16385  15.589  25.535   2.258
57125W        W16386  39.365  39.502   3.868
57126W        W16387   8.202  31.076  14.282
57127W        W16388  44.802  33.898  14.325
57128W        W16389  27.120  28.648  12.573
57129W        W16390  20.736  35.423  10.967
57130W        W16391  31.551  41.787   1.784
57131W        W16392  30.608  37.500  13.983
57132W        W16393  25.047  35.363  11.382
57133W        W16394   8.207  32.887   2.211
57134W        W16395  41.337  24.518  14.917
57135W        W16396   1.465  11.178  14.957
57136W        W16397  22.594  38.931   3.771
57137W        W16398  39.978  31.896  13.308
57138W        W16399   0.282  10.632  14.463
57139W        W16400  39.954  17.686  12.439
57140W        W16401  25.500  24.499   2.872
57141W        W16402   9.315  27.147   1.866
57142W        W16403  24.211  35.017   0.928
57143W        W16404   2.239  10.753  13.449
57144W        W16405  43.991  37.337  11.443
57145W        W16406  42.940  19.648   4.195
57146W        W16407   8.191   7.702  14.869
57147W        W16408  21.055  21.682   3.720
57148W        W16409   7.371  34.471  11.545
57149W        W16410  25.018  14.782   0.913
57150W        W16411  34.597  40.848  11.470
57151W        W16412  17.133  36.044   0.800
57152W        W16413  30.123  24.632  14.831
57153W        W16414  11.779  15.216  14.760
57154W        W16415  44.436  24.515   3.699
57155W        W16416   7.329  23.664  13.830
57156W        W16417  39.433   6.389   2.772
57157W        W16418  43.410  34.459   1.694
57158W        W16419  18.220  15.660   1.833
57159W        W16420  39.331   9.713  12.094
57160W        W16421  33.409   8.795  11.383
57161W        W16422   3.804  18.126  10.639
57162W        W16423  25.609   5.772   0.770
57163W        W16424  41.029  24.060   1.795
57164W        W16425  32.129  14.711  12.459
57165W        W16426   8.847  13.780  12.527
57166W        W16427  20.623   0.267   1.302
57167W        W16428  14.253  17.645   4.784
57168W        W16429  11.814   5.783   4.319
57169W        W16430  13.757  37.400  12.835
57170W        W16431  14.606  41.399   0.252
57171W        W16432  28.654  19.698  11.055
57172W        W16433  44.840  37.839   4.178
57173W        W16434  17.647  31.612  10.097
57174W        W16435   4.913  33.474  14.469
57175W        W16436   4.842   1.367  13.014
57176W        W16437   2.400  25.598   3.728
57177W        W16438  28.447  35.048   3.866
57178W        W16439  13.204  19.581   4.762
57179W        W16440   1.437  24.043   4.729
57180W        W16441  11.246  10.780   1.891
57181W        W16442  10.871   3.390   9.557
57182W        W16443   8.740  34.925  10.971
57183W        W16444  13.253   2.822  13.003
57184W        W16445  42.346   1.893  12.357
57185W        W16446   9.748  44.329   4.711
57186W        W16447  31.941  17.766   4.138
57187W        W16448  15.117  34.567   0.920
57188W        W16449  31.128  36.475   1.423
57189W        W16450  35.472  36.985  13.503
57190W        W16451  12.123  36.351   2.246
57191W        W16452  29.966  10.828   4.696
57192W        W16453  15.733   1.300  13.507
57193W        W16454  38.365   6.425  13.441
57194W        W16455  33.400  25.107   3.695
57195W        W16456  32.495  30.518   5.141
57196W        W16457  15.815  39.853  12.871
57197W        W16458  32.554   4.377   3.856
57198W        W16459   3.769   6.401   2.754
57199W        W16460  10.152  41.528   9.954
57200W        W16461   7.777  28.142  14.439
57201W        W16462   4.444  20.582  11.008
57202W        W16463  39.853  10.339  10.956
57203W        W16464  15.270  17.220  13.053
57204W        W16465   4.845  16.314  14.810
57205W        W16466   5.320  10.825  11.526
57206W        W16467  18.180  22.579  13.496
57207W        W16468   8.855   1.282  14.294
57208W        W16469  40.913  11.639  14.927
57209W        W16470  23.987  17.161  10.506
57210W        W16471  26.135  10.297  12.979
57211W        W16472  16.179  23.154  10.531
57212W        W16473  33.588  43.495   0.886
57213W        W16474   5.336  15.760   3.358
57214W        W16475   3.434   6.784  12.949
57215W        W16476  25.103  25.074   2.841
57216W        W16477   1.820  32.013  13.426
57217W        W16478   6.394  13.739   0.396
57218W        W16479  40.308  11.327   2.310
57219W        W16480  20.758  43.282  13.912
57220W        W16481  37.442   9.675  14.312
57221W        W16482   7.883  25.144  12.933
57222W        W16483  37.852  31.629   3.218
57223W        W16484   8.661  40.308  14.030
57224W        W16485  33.406  34.499   2.674
57225W        W16486   0.879  18.560   4.672
57226W        W16487  23.027  14.104   3.278
57227W        W16488  28.967  36.579   2.731
57228W        W16489   8.747  15.703  11.981
57229W        W16490  39.346  27.078  10.946
57230W        W16491   9.843  14.630   2.664
57231W        W16492  39.371  13.698   0.777
57232W        W16493   7.213  28.063   3.173
57233W        W16494   8.257   2.910  10.963
57234W        W16495  37.932   6.253  12.374
57235W        W16496  37.452  23.632   3.153
57236W        W16497   4.819  12.782   1.327
57237W        W16498  25.609   4.373  14.886
57238W        W16499  23.004  40.046   4.115
57239W        W16500  14.308  18.728  13.490
57240W        W16501  35.866  15.248   1.922
57241W        W16502  24.151  41.417   1.338
57242W        W16503  12.272  30.920  14.953
57243W        W16504  42.884  29.080   9.966
57244W        W16505  34.562  44.887   3.167
57245W        W16506  15.321  12.159   1.739
57246W        W16507  44.461  31.942  12.847
57247W        W16508  32.000  37.386  12.868
57248W        W16509  38.861   2.388   0.752
57249W        W16510  17.262  10.690   3.714
57250W        W16511   5.288  38.820  13.433
57251W        W16512  11.373  13.208   0.791
57252W        W16513  26.537   3.326  12.859
57253W        W16514   6.219  43.462   1.358
57254W        W16515  41.390  15.644   1.709
57255W        W16516  35.888  29.499  14.982
57256W        W16517  21.721  34.412  14.911
57257W        W16518  43.422  16.713  11.463
57258W        W16519  37.457   2.749  14.759
57259W        W16520   5.234  38.343  11.881
57260W        W16521  22.602  11.815   0.315
57261W        W16522  12.792  10.821  12.544
57262W        W16523  14.667  31.035   0.384
57263W        W16524  21.516  22.568  12.935
57264W        W16525   2.350   9.288   0.811
57265W        W16526  21.142   2.328  13.806
57266W        W16527   6.722   6.242  12.477
57267W        W16528  25.682  21.151  10.960
57268W        W16529  34.077  19.239  10.998
57269W        W16530  34.916   7.403   1.726
57270W        W16531  43.910  33.432   2.291
57271W        W16532  34.902  16.247   1.449
57272W        W16533  32.092  15.758  10.604
57273W        W16534  39.546  20.183   1.276
57274W        W16535  37.569  40.431  13.328
57275W        W16536  24.503  23.630  11.989
57276W        W16537  33.608  18.228  14.879
57277W        W16538   4.270  39.333  12.497
57278W        W16539  28.621  40.516   2.825
57279W        W16540  15.748  39.839  12.465
57280W        W16541  36.460  37.440   4.139
57281W        W16542   4.723  13.207  10.898
57282W        W16543  26.021  32.540  14.401
57283W        W16544  21.671  19.546  10.451
57284W        W16545  34.601  28.675  14.921
57285W        W16546  38.984  10.783   2.188
57286W        W16547   9.349  14.823   3.322
57287W        W16548  18.230  33.023  11.608
57288W        W16549  19.656  38.007   3.228
57289W        W16550  35.952  21.147  14.830
57290W        W16551  13.718  14.682  13.793
57291W        W16552  15.704  13.700   4.778
57292W        W16553  23.582   0.982  10.927
57293W        W16554  44.371  14.155   2.839
57294W        W16555  21.261   7.679   3.194
57295W        W16556  23.990  36.058   5.262
57296W        W16557   1.939  23.496  11.456
57297W        W16558  14.605   4.305   0.873
57298W        W16559  14.196  26.975   0.738
57299W        W16560  28.134   1.963   3.334
57300W        W16561  28.144  13.786  12.515
57301W        W16562  17.694  26.631  11.127
57302W        W16563  37.494   3.873  13.346
57303W        W16564  12.191  32.611   3.329
57304W        W16565  11.794  34.974  11.872
57305W        W16566  18.579  14.768   2.872
57306W        W16567  39.899  34.012  11.872
57307W        W16568   8.226  44.465   0.904
57308W        W16569  13.127  28.544   3.309
57309W        W16570  38.423  33.487   0.883
57310W        W16571  22.628  39.906   1.713
57311W        W16572  41.028  36.854  12.451
57312W        W16573   9.241  32.125   4.338
57313W        W16574  33.419  26.041  14.760
57314W        W16575   8.207  15.744   4.648
57315W        W16576  34.418  27.548  13.957
57316W        W16577  43.422   1.774  12.423
57317W        W16578   1.782  28.159   0.365
57318W        W16579   7.371  35.515   3.265
57319W        W16580  44.368   2.270   3.787
57320W        W16581  20.260  31.122   4.282
57321W        W16582   0.777  12.344   1.712
57322W        W16583  12.793  22.030   4.203
57323W        W16584  44.892  23.063   4.337
57324W        W16585  12.159  11.236   3.386
57325W        W16586  22.589  44.972  14.315
57326W        W16587  24.210  23.015  13.815
57327W        W16588  23.553  17.768  14.514
57328W        W16589  31.487  22.235  12.871
57329W        W16590  37.483  25.086   2.321
57330W        W16591  42.431  42.811  14.031
57331W        W16592  34.083   6.265   1.823
57332W        W16593   1.282  18.282  10.448
57333W        W16594  42.310  44.754  11.091
57334W        W16595  11.337  11.225   3.673
57335W        W16596  41.803  20.610   3.274
57336W        W16597  27.535   3.446   3.661
57337W        W16598  38.933   8.182  11.391
57338W        W16599  38.505  18.640  12.389
57339W        W16600  25.620   1.942  13.504
57340W        W16601   4.742  33.407   4.251
57341W        W16602  17.163   6.743   0.389
57342W        W16603  35.983  14.764   1.273
57343W        W16604  16.670  37.366   4.826
57344W        W16605  37.427  28.535   0.285
57345W        W16606   6.691  19.748   3.199
57346W        W16607   9.866  44.991   1.438
57347W        W16608  14.818  41.417   4.125
57348W        W16609  29.092  43.836   0.383
57349W        W16610  33.569  24.990   2.379
57350W        W16611   8.657   2.730   3.670
57351W        W16612   9.173   5.828   4.644
57352W        W16613  29.060  29.445  13.517
57353W        W16614  10.164  22.716   1.818
57354W        W16615  27.595  22.534   0.728
57355W        W16616  23.695  43.991   1.340
57356W        W16617  37.058  21.105  13.062
57357W        W16618  43.496   9.715  10.573
57358W        W16619  31.646  14.798   0.412
57359W        W16620  43.479  11.842   2.751
57360W        W16621  38.529  16.210  12.022
57361W        W16622  35.946  29.997   3.715
57362W        W16623   5.330  43.869  12.358
57363W        W16624  31.048   8.724   0.327
57364W        W16625  28.438  38.337  13.899
57365W        W16626  25.151  33.471  12.883
57366W        W16627  19.645   1.326   1.933
57367W        W16628  37.368  24.993   1.843
57368W        W16629   7.229  12.308   0.829
57369W        W16630  24.537   9.756  11.372
57370W        W16631  10.342  29.668  14.288
57371W        W16632   5.921  17.273  14.397
57372W        W16633  20.065  28.983  12.423
57373W        W16634  44.981  21.074   0.906
57374W        W16635  27.606  34.554  12.827
57375W        W16636  21.034  28.052  14.817
57376W        W16637  43.825   6.355   0.462
57377W        W16638  28.974   7.330  10.554
57378W        W16639  10.876   5.286   1.251
57379W        W16640   3.796   4.891   0.466
57380W        W16641  26.482  28.595   3.738
57381W        W16642  20.531   7.739   2.710
57382W        W16643  37.355  36.378  10.538
57383W        W16644   4.352  37.539  14.474
57384W        W16645   5.194  29.469   0.427
57385W        W16646  22.638   3.758  11.100
57386W        W16647   0.801  32.509   3.690
57387W        W16648  10.269  29.527  11.559
57388W        W16649  15.219  29.039  14.013
57389W        W16650   7.776  21.097  12.419
57390W        W16651  10.802   5.368  13.307
57391W        W16652  10.170  34.602  11.001
57392W        W16653  40.499  24.557  14.949
57393W        W16654  40.805  38.368   4.199
57394W        W16655  41.395  43.351  14.991
57395W        W16656   7.181  22.152  12.515
57396W        W16657  28.583  39.982  13.815
57397W        W16658  13.827  29.517   4.155
57398W        W16659  14.212  29.597   3.382
57399W        W16660  13.813  43.851  13.908
57400W        W16661  34.490  16.224  11.026
57401W        W16662  11.292  35.063   0.889
57402W        W16663   4.778   4.738   1.749
57403W        W16664  19.739  19.269   0.368
57404W        W16665  26.026  42.463   2.737
57405W        W16666  19.060  23.052  14.320
57406W        W16667  35.580  16.744   2.750
57407W        W16668  13.718  35.028   3.188
57408W        W16669  33.996  16.585   2.396
57409W        W16670  37.986  39.393  11.544
57410W        W16671   0.876   0.430  10.412
57411W        W16672   1.403  29.592  11.603
57412W        W16673  11.299  38.494  12.404
57413W        W16674   9.229  17.626   1.823
57414W        W16675  12.140   0.313   3.671
57415W        W16676   6.680  16.691   3.325
57416W        W16677  19.750  21.146   2.685
57417W        W16678  37.978  42.021   3.726
57418W        W16679   5.268  27.518  13.862
57419W        W16680  13.172  27.158  12.848
57420W        W16681  40.999  44.814  13.332
57421W        W16682  32.400  30.500  12.499
57422W        W16683  33.096   3.221  11.514
57423W        W16684  28.968  37.400  13.871
57424W        W16685  15.714  38.014   1.919
57425W        W16686  20.594  13.172   4.829
57426W        W16687  33.033  30.558   2.795
57427W        W16688  26.005  44.395  11.398
57428W        W16689  14.280  21.157  10.037
57429W        W16690   5.268   4.283   0.273
57430W        W16691  39.000  26.203  13.927
57431W        W16692  33.433  31.018   3.635
57432W        W16693  26.985  14.251   4.773
57433W        W16694   5.801   5.912   2.319
57434W        W16695  10.352   1.258  12.975
57435W        W16696   2.747  40.923  10.486
57436W        W16697  19.129   7.892   3.698
57437W        W16698  32.982  24.002  12.068
57438W        W16699   5.814  34.509  11.872
57439W        W16700  22.528   0.908  10.127
57440W        W16701   9.368  14.095  10.105
57441W        W16702  28.076  38.341  14.418
57442W        W16703  13.618   3.360   0.728
57443W        W16704  20.076  12.675   5.183
57444W        W16705  12.845  26.005   3.314
57445W        W16706   7.712  39.357   0.800
57446W        W16707   5.732   0.439  11.862
57447W        W16708  36.014   4.851  13.856
57448W        W16709  17.648  44.497   3.700
57449W        W16710  21.075  28.942  10.909
57450W        W16711  20.127  11.226  13.889
57451W        W16712  16.193  44.790   4.181
57452W        W16713  38.823  37.871   0.337
57453W        W16714  31.950  16.226  10.435
57454W        W16715  12.315  37.018  10.555
57455W        W16716  27.674   7.391  14.973
57456W        W16717  26.170  13.712  12.917
57457W        W16718  23.663   2.404   4.623
57458W        W16719  32.396  33.878  13.981
57459W        W16720  14.761  16.131   4.259
57460W        W16721  13.213  12.148  13.391
57461W        W16722   2.324  26.116   3.797
57462W        W16723  18.194  20.753   1.713
57463W        W16724   2.759   1.332  10.477
57464W        W16725  41.892  10.284  10.926
57465W        W16726   9.190  43.302  13.005
57466W        W16727  43.429  44.914  13.053
57467W        W16728  21.540  34.504   3.263
57468W        W16729   1.327  18.212   2.847
57469W        W16730   8.865  19.233  14.991
57470W        W16731  16.644  33.117   3.769
57471W        W16732   7.401  19.200   4.160
57472W        W16733  26.678  34.074   1.435
57473W        W16734  30.418  31.925   3.249
57474W        W16735  40.365  17.173  13.323
57475W        W16736  26.573  33.108   4.807
57476W        W16737  17.228  44.844  12.931
57477W        W16738  25.125   5.343  12.862
57478W        W16739  17.780  25.708  11.046
57479W        W16740  42.352  28.458  11.528
57480W        W16741  10.194  13.309   1.262
57481W        W16742  27.526  28.017  11.903
57482W        W16743   8.295  31.896   3.703
57483W        W16744  25.566  37.049   4.683
57484W        W16745  37.876  35.934  14.760
57485W        W16746  41.394  25.119  13.909
57486W        W16747  11.715   3.816  14.779
57487W        W16748  37.072  14.307  11.587
57488W        W16749  13.189   3.393   4.299
57489W        W16750  28.068  27.579   1.383
57490W        W16751  26.030  24.712   2.746
57491W        W16752  10.870  35.058   0.888
57492W        W16753  27.033  21.701   3.662
57493W        W16754  35.953  33.620  14.901
57494W        W16755   6.918  18.546  12.029
57495W        W16756  34.544   5.757  12.914
57496W        W16757  34.967   1.476  14.008
57497W        W16758  29.539  24.506  13.004
57498W        W16759  43.305  31.154  14.892
57499W        W16760  22.090  26.695   4.283
57500W        W16761  10.797   2.424  11.925
57501W        W16762   0.400   4.880   3.329
57502W        W16763  32.409  11.838   4.640
57503W        W16764  44.925   0.963  14.847
57504W        W16765   5.353  26.106   3.302
57505W        W16766  36.546   4.298   1.697
57506W        W16767   0.922   2.441  13.824
57507W        W16768   2.851  36.405  13.360
57508W        W16769   9.778  42.398   1.734
57509W        W16770   2.814  29.968  14.827
57510W        W16771  33.563  38.054  14.504
57511W        W16772  26.969   7.824  11.908
57512W        W16773   9.874  10.303   1.228
57513W        W16774  35.042  36.524   0.866
57514W        W16775  44.280  36.061  11.049
57515W        W16776  26.202  30.448  13.408
57516W        W16777  24.526  26.625   5.174
57517W        W16778  21.661  37.006  13.849
57518W        W16779   0.896  42.999   2.842
57519W        W16780  22.125  43.993  12.423
57520W        W16781  30.424  30.910  11.882
57521W        W16782  19.190  11.779  13.338
57522W        W16783  18.190  35.936  14.993
57523W        W16784  12.725  32.628   3.749
57524W        W16785  13.649  39.846  12.838
57525W        W16786  35.935  11.252  13.819
57526W        W16787   4.315  32.454  12.872
57527W        W16788  36.453  40.889   0.826
57528W        W16789  15.239  25.218  12.087
57529W        W16790  16.646  25.690   3.174
57530W        W16791   9.251  25.048   0.293
57531W        W16792  14.763  24.644   3.327
57532W        W16793   5.351  15.716   1.216
57533W        W16794   7.710  16.277   1.773
57534W        W16795   5.921  16.704  11.062
57535W        W16796  23.626  33.101   1.793
57536W        W16797  34.526  23.728   3.837
57537W        W16798   0.289  16.100   0.763
57538W        W16799   6.403  10.861   4.830
57539W        W16800   2.332  14.748  13.481
57540W        W16801  18.705  26.146   1.342
57541W        W16802  23.215  42.826   0.436
57542W        W16803  40.958  12.723  10.996
57543W        W16804  29.936  39.018   4.206
57544W        W16805  26.110  20.138  11.948
57545W        W16806   2.304  40.455   1.810
57546W        W16807   1.861  28.022   1.884
57547W        W16808  13.802   1.416   1.242
57548W        W16809  21.612  21.115  13.053
57549W        W16810  40.910  18.655  11.399
57550W        W16811  24.721  29.434  11.504
57551W        W16812   1.478  16.088   0.365
57552W        W16813  34.543  11.635  13.884
57553W        W16814  13.140  33.967   0.354
57554W        W16815  12.338  36.062  10.962
57555W        W16816  19.687  39.971   1.216
57556W        W16817  23.735  21.607   4.292
57557W        W16818  26.066   1.443  10.634
57558W        W16819  31.471  16.751  11.392
57559W        W16820  20.536  25.010   2.322
57560W        W16821   4.231  14.726   2.825
57561W        W16822  15.747  17.127  12.063
57562W        W16823  38.857   4.730   0.396
57563W        W16824   2.257  21.249  13.035
57564W        W16825  35.596  41.801   3.212
57565W        W16826  34.470  38.349   9.623
57566W        W16827  13.163  17.106   3.807
57567W        W16828  14.756   2.835   0.396
57568W        W16829  28.974  38.523  12.422
57569W        W16830  30.426  14.102   1.309
57570W        W16831  26.189  20.216   1.887
57571W        W16832  38.565  11.276   1.261
57572W        W16833  40.866   4.806   2.690
57573W        W16834  20.065  38.994   3.767
57574W        W16835  19.643  23.585   5.217
57575W        W16836  23.518  13.205   3.858
57576W        W16837  29.578  33.403   0.470
57577W        W16838   3.859  42.894  14.017
57578W        W16839  37.406  33.571   0.451
57579W        W16840   7.845   9.392  13.311
57580W        W16841  18.101  29.953  13.333
57581W        W16842   8.899  33.914   4.293
57582W        W16843   3.360  21.200  10.138
57583W        W16844   9.654   2.415   3.218
57584W        W16845  25.009  31.137  14.943
57585W        W16846  31.063   2.773   1.743
57586W        W16847   7.273   1.977   3.670
57587W        W16848  35.909  31.137  12.471
57588W        W16849  20.253  32.135   3.732
57589W        W16850  19.084  12.248   2.272
57590W        W16851   8.373  14.600   3.386
57591W        W16852  38.013  11.328  13.548
57592W        W16853   9.169  42.358   4.713
57593W        W16854  43.916  19.054  11.430
57594W        W16855  13.736  16.746  12.562
57595W        W16856   1.963   0.956   4.708
57596W        W16857  24.589  23.987  14.984
57597W        W16858   7.170  23.520  12.933
57598W        W16859  31.450  10.347  13.380
57599W        W16860   0.467  42.477   3.640
57600W        W16861  13.689  42.415   2.251
57601W        W16862   4.431  41.442  11.047
57602W        W16863  21.651  10.680   2.779
57603W        W16864   2.789  23.994  11.882
57604W        W16865  35.553   3.215   0.861
57605W        W16866  38.497  38.408   1.413
57606W        W16867  39.323  24.535   0.757
57607W        W16868  26.036  26.036   0.433
57608W        W16869  19.654  15.593  10.630
57609W        W16870  30.098  39.902  12.396
57610W        W16871  20.531  18.642  13.013
57611W        W16872  25.162  43.952   3.864
57612W        W16873   7.184  19.215   1.703
57613W        W16874   8.834  18.125   2.745
57614W        W16875   5.753  10.323  11.044
57615W        W16876  29.975  28.621  10.434
57616W        W16877  32.631  18.617   0.481
57617W        W16878  26.198  34.371  11.512
57618W        W16879  23.614  18.566  13.807
57619W        W16880   4.274  36.424   4.193
57620W        W16881   8.844  31.897  14.902
57621W        W16882   5.789  30.471  13.908
57622W        W16883  10.164   9.338   0.276
57623W        W16884  12.143   6.811  11.597
57624W        W16885  26.997  38.472  14.804
57625W        W16886  42.017  19.210   1.914
57626W        W16887  22.643   1.471  12.531
57627W        W16888   8.300   7.237  10.536
57628W        W16889  20.634  30.977  14.850
57629W        W16890  15.125  37.518   3.849
57630W        W16891  12.308  17.724  11.606
57631W        W16892  39.338   2.326   4.197
57632W        W16893  23.051  30.422  13.940
57633W        W16894   4.758  11.174  12.839
57634W        W16895  17.070  25.193   0.364
57635W        W16896  19.065  13.609  11.586
57636W        W16897  40.850  17.220  13.859
57637W        W16898  14.175  26.482   5.167
57638W        W16899   3.310  19.044  12.962
57639W        W16900  27.512  19.665   4.204
57640W        W16901  37.364  29.041   3.739
57641W        W16902  35.089   1.295   4.706
57642W        W16903   7.673   3.239  14.291
57643W        W16904  39.008  20.527  10.570
57644W        W16905  10.708  14.239   5.620
57645W        W16906  19.676  15.768   4.640
57646W        W16907  41.493   2.438   1.787
57647W        W16908  34.901   0.805   0.886
57648W        W16909   0.952  40.978  14.359
57649W        W16910  33.900  40.007   0.914
57650W        W16911   0.894  34.519  10.615
57651W        W16912   3.831  40.923  10.570
57652W        W16913   5.298  32.907   2.746
57653W        W16914  25.607  11.854   4.768
57654W        W16915  25.105   1.934   4.761
57655W        W16916  31.458  27.082   2.238
57656W        W16917  40.838   3.710  11.483
57657W        W16918  44.431  32.478  13.842
57658W        W16919  26.050  13.305  12.522
57659W        W16920  19.728  23.518   4.726
57660W        W16921  44.787   9.245   4.778
57661W        W16922   1.879  10.331   1.914
57662W        W16923  22.170  36.960   1.309
57663W        W16924   1.960  12.153  11.020
57664W        W16925  36.842  31.548   2.213
57665W        W16926  10.286  20.032   4.311
57666W        W16927  36.465  11.201   0.273
57667W        W16928  18.233  18.785   0.351
57668W        W16929  22.596  12.796  14.293
57669W        W16930  16.667  33.047   1.338
57670W        W16931  14.167  43.807   3.233
57671W        W16932  43.803   0.437  13.004
57672W        W16933   8.699  18.675  14.939
57673W        W16934  22.069  16.631  13.541
57674W        W16935  37.570  13.201   4.223
57675W        W16936  44.324  10.260   2.350
57676W        W16937   5.895  12.151  13.479
57677W        W16938   9.195  29.428   3.286
57678W        W16939  11.144  13.739   1.777
57679W        W16940  29.998   8.797  14.886
57680W        W16941  42.501  44.325  10.574
57681W        W16942  21.577  14.697   2.663
57682W        W16943   1.470   9.349   3.364
57683W        W16944  20.257  12.322  14.301
57684W        W16945  28.540  44.272   1.233
57685W        W16946  29.457   6.411  13.828
57686W        W16947  19.131  19.104  14.962
57687W        W16948  14.748  12.179  10.436
57688W        W16949   0.274  31.434  14.319
57689W        W16950   2.864  40.406  11.914
57690W        W16951   3.317  32.553   4.138
57691W        W16952  28.018   1.931  11.451
57692W        W16953  43.853  33.092  14.996
57693W        W16954  23.007  41.515  13.809
57694W        W16955  39.978  32.107   4.312
57695W        W16956   2.236  19.713   4.808
57696W        W16957  30.565  42.358   3.814
57697W        W16958  17.788  31.435   3.310
57698W        W16959   3.431  18.551  13.898
57699W        W16960   6.367  27.476   1.376
57700W        W16961  37.915  29.980   4.599
57701W        W16962  36.038  14.096  14.869
57702W        W16963  40.436  11.646   4.239
57703W        W16964  21.747  36.449  12.081
57704W        W16965  29.956  33.469  10.150
57705W        W16966  21.176  38.837   4.287
57706W        W16967  37.402  33.529  13.895
57707W        W16968   2.262  23.699   3.335
57708W        W16969  36.962   6.373  12.016
57709W        W16970  12.691  19.267   4.150
57710W        W16971   3.871  14.234   2.202
57711W        W16972  36.949  10.166  11.454
57712W        W16973   0.951   7.785   1.795
57713W        W16974  43.892  16.264   0.457
57714W        W16975   9.315  33.474   1.714
57715W        W16976  16.745   5.693  12.408
57716W        W16977  21.647  29.499   1.848
57717W        W16978  24.011   3.931  11.081
57718W        W16979  13.708  35.497  12.090
57719W        W16980  43.349  16.312  12.397
57720W        W16981  25.534  36.378  12.898
57721W        W16982  35.358  22.134   0.450
57722W        W16983  23.091  19.625  10.573
57723W        W16984  31.105  27.098   2.762
57724W        W16985   3.445  14.274   1.826
57725W        W16986  12.612  14.110  11.881
57726W        W16987  33.471  23.015  11.611
57727W        W16988   1.836   3.830   4.689
57728W        W16989  34.076  44.331   3.671
57729W        W16990  23.160   8.872   1.723
57730W        W16991  14.795  21.189  12.903
57731W        W16992  19.100  38.546   0.456
57732W        W16993  14.133  11.652  13.322
57733W        W16994  18.604  44.440   3.173
57734W        W16995  29.589  17.764  12.012
57735W        W16996  43.787  15.085  12.531
57736W        W16997  11.137  25.580  10.614
57737W        W16998   1.275   1.256   4.332
57738W        W16999  26.631   1.269  10.536
57739W        W17000   5.758  36.412  12.372
57740W        W17001   7.862  11.209   4.236
57741W        W17002   6.888  41.373  13.326
57742W        W17003  39.943  18.292  12.578
57743W        W17004   3.901  20.085  12.498
57744W        W17005  40.491  26.502   0.262
57745W        W17006  14.294  23.087   2.298
57746W        W17007   0.757  35.956   3.670
57747W        W17008   5.862  10.261   5.734
57748W        W17009  29.974  14.112  14.804
57749W        W17010  44.317  42.849   1.294
57750W        W17011   4.719  15.091   1.868
57751W        W17012  41.788  43.307   3.370
57752W        W17013  13.845   2.721   2.416
57753W        W17014  39.928  25.591   1.391
57754W        W17015  10.797  21.740   0.259
57755W        W17016  30.523  22.029   4.820
57756W        W17017  18.058  36.580   4.673
57757W        W17018  35.883   0.340  10.622
57758W        W17019  24.140  35.501   1.365
57759W        W17020  33.920   3.955  14.899
57760W        W17021  16.242  11.680   0.743
57761W        W17022  38.492  21.180   5.287
57762W        W17023  14.731   8.236   1.376
57763W        W17024  39.435  18.553  10.961
57764W        W17025  29.010  13.743   2.670
57765W        W17026  34.091  25.558   1.872
57766W        W17027  10.156  23.102  12.964
57767W        W17028  10.178  19.059  11.516
57768W        W17029  12.134  43.800  14.797
57769W        W17030   9.208  28.151  12.567
57770W        W17031  36.533  33.949   9.950
57771W        W17032  43.509   1.793  10.619
57772W        W17033  30.431  17.118  11.003
57773W        W17034   7.735  29.119  11.955
57774W        W17035  39.814  19.104  14.359
57775W        W17036  14.650  19.281   1.761
57776W        W17037  19.595  33.470   1.897
57777W        W17038  17.098  39.529   4.153
57778W        W17039   5.371  35.972  11.498
57779W        W17040   3.886  39.850  14.972
57780W        W17041  18.616  31.612  14.512
57781W        W17042  22.015  15.687   3.732
57782W        W17043  15.145  42.777   4.781
57783W        W17044  42.899   1.819  10.579
57784W        W17045   4.780   7.247  10.053
57785W        W17046  10.308  22.639  11.910
57786W        W17047  39.453  21.153   4.806
57787W        W17048  11.303   8.326  14.471
57788W        W17049  12.810  29.940  12.504
57789W        W17050   9.696  27.472  13.357
57790W        W17051   8.215  36.570   4.644
57791W        W17052  24.541  16.712  13.030
57792W        W17053  10.364  28.044  13.541
57793W        W17054  42.899  36.416   3.206
57794W        W17055  12.655  43.273  12.547
57795W        W17056  34.377  32.513  11.055
57796W        W17057  21.057   1.329   4.777
57797W        W17058  42.778  41.919  11.110
57798W        W17059  41.933  43.873  10.537
57799W        W17060  42.381  43.323   2.287
57800W        W17061  20.113  10.735   1.372
57801W        W17062  39.460   8.351   1.848
57802W        W17063  27.166  38.897   2.752
57803W        W17064  19.185  27.502   3.654
57804W        W17065  10.286  34.537   2.873
57805W        W17066   2.793   6.761   3.694
57806W        W17067  15.298  43.925   2.417
57807W        W17068  22.104  24.061  10.417
57808W        W17069   0.757  21.695  12.484
57809W        W17070  36.467   8.172  14.847
57810W        W17071  19.189  38.354   4.770
57811W        W17072   0.982   5.294  10.892
57812W        W17073   7.244  35.468  13.308
57813W        W17074  26.637  15.607  11.063
57814W        W17075  38.415  22.725   2.865
57815W        W17076   6.412  32.477  14.459
57816W        W17077  18.062  40.548   0.933
57817W        W17078  12.827  24.661   2.773
57818W        W17079   4.343  42.288   4.612
57819W        W17080  17.158   1.328   3.362
57820W        W17081   2.441   3.410  13.368
57821W        W17082  41.013  41.527   1.419
57822W        W17083  28.976  24.677  11.962
57823W        W17084  28.545  12.287   4.619
57824W        W17085   6.734  35.561  11.027
57825W        W17086  17.583   0.957  12.866
57826W        W17087  23.032  35.445  11.952
57827W        W17088   3.334  29.613   4.183
57828W        W17089  11.763  15.708   3.271
57829W        W17090  12.299  38.838  10.972
57830W        W17091   4.320  36.560  14.462
57831W        W17092   4.333  16.747  11.941
57832W        W17093  31.512  33.403  11.409
57833W        W17094  40.528  23.704   1.847
57834W        W17095  32.611  17.118   1.451
57835W        W17096  19.252  27.473   1.899
57836W        W17097  35.108  30.505  13.878
57837W        W17098  19.220  38.827  11.105
57838W        W17099  39.485  43.349  13.441
57839W        W17100  38.018  33.384   9.604
57840W        W17101  20.533  37.832   0.926
57841W        W17102   1.478   2.281   2.205
57842W        W17103  44.387  43.499   2.879
57843W        W17104  12.323  33.881   4.166
57844W        W17105  44.010  43.463  11.537
57845W        W17106  13.774  28.042   0.343
57846W        W17107  29.011   7.306   3.660
57847W        W17108  36.027  21.732  13.446
57848W        W17109  39.884  15.140  13.416
57849W        W17110   1.388  16.317  10.609
57850W        W17111  11.159  36.409   2.756
57851W        W17112  16.779  18.255   4.248
57852W        W17113  41.817   7.668   3.253
57853W        W17114   5.934   9.772   4.258
57854W        W17115  21.703  43.792   1.366
57855W        W17116  25.555  25.571   1.336
57856W        W17117  23.631  31.409  13.475
57857W        W17118  34.896  28.138  12.022
57858W        W17119  25.094  13.657  12.051
57859W        W17120   6.219   2.744  11.595
57860W        W17121   2.467  34.068   1.324
57861W        W17122  24.663   7.284  11.081
57862W        W17123  31.647  17.709   1.217
57863W        W17124  44.403  17.767   3.169
57864W        W17125   1.425  10.326  12.960
57865W        W17126  10.226  20.047   2.821
57866W        W17127  44.884   5.287   3.166
57867W        W17128  29.610  10.738  11.041
57868W        W17129  22.241  29.998  13.843
57869W        W17130  18.615   3.310  10.415
57870W        W17131   5.268   5.416   0.837
57871W        W17132  27.163   4.408   2.830
57872W        W17133  36.487  29.528  13.441
57873W        W17134  20.623   9.883   1.712
57874W        W17135  43.430  28.974   4.728
57875W        W17136   1.764  22.114   2.888
57876W        W17137  24.636  34.479   2.400
57877W        W17138   4.858  34.478   3.365
57878W        W17139   8.752  13.702  10.582
57879W        W17140  35.098   0.892   1.284
57880W        W17141  20.759  25.079  14.025
57881W        W17142  31.058  41.382   1.699
57882W        W17143   2.267  25.509   0.904
57883W        W17144  42.374  44.429   2.189
57884W        W17145  41.990   8.314  12.370
57885W        W17146  35.511  15.117   3.256
57886W        W17147  42.982  35.518   1.216
57887W        W17148  26.201  43.862  13.048
57888W        W17149  26.678  15.270   0.441
57889W        W17150  40.505  21.196   4.788
57890W        W17151  12.121  29.002  12.880
57891W        W17152  32.057  30.449  10.138
57892W        W17153  23.084  43.396   1.218
57893W        W17154  20.625  32.979   3.310
57894W        W17155  36.484  31.493  14.028
57895W        W17156  23.718  25.693  11.879
57896W        W17157  12.201  31.542   2.204
57897W        W17158  38.036  19.269   2.362
57898W        W17159  36.402  35.098   3.789
57899W        W17160   7.712  39.018   0.757
57900W        W17161  37.547   5.257  10.644
57901W        W17162   2.721   3.357   3.757
57902W        W17163  15.304   8.223  13.034
57903W        W17164  13.667  35.907  10.571
57904W        W17165  20.096  44.326  13.866
57905W        W17166  10.378   8.248   2.358
57906W        W17167  30.975  31.925   2.322
57907W        W17168  17.097  42.335  13.516
57908W        W17169   8.201  37.379  10.619
57909W        W17170  25.974  22.640   1.216
57910W        W17171  25.012  10.731  11.598
57911W        W17172  16.192  40.484   2.827
57912W        W17173  36.023  38.964  11.518
57913W        W17174   0.258  31.423   1.815
57914W        W17175  24.168  11.641  13.471
57915W        W17176  27.016  21.518   2.418
57916W        W17177   3.348  17.137  12.862
57917W        W17178  36.017  40.848   3.316
57918W        W17179  34.882  19.044   3.285
57919W        W17180  23.210  11.761   0.953
57920W        W17181  20.069  14.098   3.837
57921W        W17182  43.974  22.054  13.365
57922W        W17183  43.787  24.564  10.489
57923W        W17184  42.024  10.306  12.966
57924W        W17185   8.674  42.813  12.402
57925W        W17186  24.046  14.108   3.721
57926W        W17187  39.884   4.854   4.768
57927W        W17188   0.767  26.114  14.512
57928W        W17189   3.374  17.652  12.825
57929W        W17190  39.560  39.885   0.379
57930W        W17191  16.639  12.832   2.394
57931W        W17192  10.217   8.680   4.732
57932W        W17193   3.302  35.571   0.365
57933W        W17194  32.562  12.174  10.539
57934W        W17195   4.893  34.108   3.331
57935W        W17196  19.583  10.805   2.352
57936W        W17197  23.549  23.998  14.409
57937W        W17198  13.757   1.794   1.841
57938W        W17199  14.612   0.861  10.495
57939W        W17200  18.204  34.421   4.604
57940W        W17201  13.785  16.611  13.927
57941W        W17202  17.715   1.887   1.804
57942W        W17203  15.667  11.228  11.383
57943W        W17204  16.313  33.063  12.835
57944W        W17205   8.753   2.300  13.490
57945W        W17206  43.492  24.212  12.053
57946W        W17207  23.497  33.545  13.008
57947W        W17208  16.788  30.017   2.892
57948W        W17209  30.485  20.708  13.925
57949W        W17210  44.761  29.456  10.570
57950W        W17211  41.300  17.621   1.919
57951W        W17212  24.626  39.909   3.253
57952W        W17213  27.572  26.127   3.275
57953W        W17214  32.452  20.111   1.387
57954W        W17215   4.737  15.651  10.107
57955W        W17216  10.703  38.981   4.304
57956W        W17217   9.739  10.189   1.740
57957W        W17218  26.469  33.089   3.801
57958W        W17219   4.817   2.412   0.909
57959W        W17220  11.277  26.596   3.373
57960W        W17221  33.996  42.856  12.433
57961W        W17222  41.837  26.607   0.271
57962W        W17223  24.551  43.005  11.550
57963W        W17224  12.327  19.752  12.416
57964W        W17225   3.361   6.287   3.244
57965W        W17226  20.275  36.480  12.404
57966W        W17227   8.703  43.930  11.960
57967W        W17228  25.554  24.644  10.624
57968W        W17229  20.119   4.241  10.625
57969W        W17230  15.231  14.830   2.206
57970W        W17231  23.613  24.090  10.127
57971W        W17232  39.885   4.214   2.280
57972W        W17233  12.797  27.120  13.368
57973W        W17234  38.375  26.673   4.348
57974W        W17235  20.114  42.925  10.131
57975W        W17236  42.430  42.994   3.196
57976W        W17237  38.886   4.929   3.303
57977W        W17238  42.920   3.263   3.709
57978W        W17239  35.085  33.435  13.387
57979W        W17240  27.634  42.989  13.836
57980W        W17241  10.736   5.351   4.651
57981W        W17242  20.598  14.591   3.864
57982W        W17243  18.255  43.990   1.770
57983W        W17244  37.830  37.450  12.895
57984W        W17245  20.581  43.921  11.123
57985W        W17246  21.114   3.310   0.401
57986W        W17247  14.628  35.396   4.165
57987W        W17248   1.263  31.549  13.964
57988W        W17249  31.607  16.127   2.753
57989W        W17250   0.280  20.534  12.826
57990W        W17251  29.517  40.925   1.414
57991W        W17252  29.925  19.664   1.773
57992W        W17253  33.982  35.502   2.266
57993W        W17254  11.807  32.976  13.977
57994W        W17255  35.096  42.285  12.027
57995W        W17256  15.683   3.376  12.053
57996W        W17257  24.665  40.010   2.205
57997W        W17258  23.211  15.633  12.532
57998W        W17259  28.544  30.448   0.751
57999W        W17260  44.284   6.811   2.757
58000W        W17261  30.157   6.339   0.821
58001W        W17262  43.843  36.380   3.823
58002W        W17263  22.673   0.409   2.196
58003W        W17264   0.417   8.836  12.403
58004W        W17265  13.267  28.157  10.472
58005W        W17266  25.038  28.058   2.849
58006W        W17267   8.869  18.247   2.248
58007W        W17268  33.071  19.658   1.801
58008W        W17269  19.652  18.217  12.571
58009W        W17270  23.721  25.189  11.986
58010W        W17271  22.502  14.180  12.940
58011W        W17272  36.913   7.734  11.498
58012W        W17273  39.874  29.617  11.388
58013W        W17274  39.530   8.736   1.829
58014W        W17275  39.036  40.884  12.491
58015W        W17276   3.947  19.542   4.345
58016W        W17277  37.378  21.213  14.433
58017W        W17278  40.035  31.643   3.253
58018W        W17279  33.403  18.158   0.465
58019W        W17280  25.552  40.533  12.934
58020W        W17281  32.985  37.341  13.059
58021W        W17282  21.739  38.496   2.727
58022W        W17283  11.262   5.708   2.266
58023W        W17284  41.354  27.492  12.539
58024W        W17285  40.457  19.233  13.525
58025W        W17286  37.907  13.720  14.911
58026W        W17287  16.216   3.335   1.782
58027W        W17288  17.164  14.826   1.414
58028W        W17289   5.910  18.600   4.354
58029W        W17290  26.626  43.443  10.499
58030W        W17291  15.677  11.751   2.783
58031W        W17292  22.597   2.269   3.793
58032W        W17293   4.712   1.845  11.538
58033W        W17294  12.161  39.023  12.851
58034W        W17295  27.688  36.510   2.874
58035W        W17296  39.874  17.650  13.041
58036W        W17297   1.244   2.336  12.395
58037W        W17298   3.336  34.998  10.543
58038W        W17299  18.693   9.232  11.459
58039W        W17300  30.053   2.265   0.448
58040W        W17301  32.115  31.091   0.727
58041W        W17302   6.394  27.944  10.570
58042W        W17303   3.444  24.002   5.266
58043W        W17304   0.467  34.452   1.373
58044W        W17305  12.794   8.691  11.376
58045W        W17306  20.526  37.915   3.832
58046W        W17307  25.560  32.099  11.562
58047W        W17308  11.349   0.942  13.890
58048W        W17309  23.633  38.386   2.834
58049W        W17310   5.780   3.414   3.171
58050W        W17311  19.107  25.182  13.421
58051W        W17312   6.361   5.416   4.228
58052W        W17313   9.183  19.768  11.584
58053W        W17314  11.215  17.692   0.313
58054W        W17315   3.821  10.749  12.360
58055W        W17316  21.160  31.501  12.488
58056W        W17317  11.223  21.159  12.417
58057W        W17318  36.579  42.973  12.399
58058W        W17319  39.319  13.819  11.014
58059W        W17320  40.995  24.179   1.210
58060W        W17321  19.183   6.769   4.788
58061W        W17322  33.932  14.149  13.834
58062W        W17323   6.747   6.910   4.713
58063W        W17324  24.154  36.534  13.035
58064W        W17325  32.086  40.947  14.840
58065W        W17326  29.655  44.360  13.007
58066W        W17327  43.299   4.852   0.312
58067W        W17328   0.310  19.083   3.800
58068W        W17329  20.184  38.499   3.849
58069W        W17330  29.479  14.624  13.999
58070W        W17331  34.415  37.830   2.750
58071W        W17332  25.665  35.460   1.246
58072W        W17333   7.351  31.619   1.706
58073W        W17334  28.675  16.805   0.244
58074W        W17335  23.052  32.596   0.462
58075W        W17336  29.105  38.042  11.080
58076W        W17337  18.573   1.339  13.396
58077W        W17338   7.417  10.756   0.927
58078W        W17339   1.243   5.820  10.538
58079W        W17340  31.146  43.832   4.744
58080W        W17341  38.483  21.056   9.945
58081W        W17342  22.016  16.627  11.488
58082W        W17343   6.889  14.114   1.423
58083W        W17344  25.054   7.903   3.831
58084W        W17345  28.073  36.084   5.167
58085W        W17346   9.271  38.926  13.042
58086W        W17347  43.446   6.718  12.340
58087W        W17348  18.709   7.353   9.930
58088W        W17349  38.073  13.787  10.642
58089W        W17350  35.386   6.319   4.216
58090W        W17351   6.791  13.333   4.732
58091W        W17352   2.768  22.617  10.965
58092W        W17353   7.325  19.283   0.761
58093W        W17354   3.940  19.537  10.410
58094W        W17355  24.048  26.640   3.637
58095W        W17356  23.657  26.605  13.336
58096W        W17357   0.429  15.741   1.417
58097W        W17358  33.944  20.699  11.558
58098W        W17359   7.264   7.195   4.238
58099W        W17360  25.574   0.281  14.482
58100W        W17361  18.712  27.100   0.480
58101W        W17362  17.071  10.277  10.452
58102W        W17363  41.322  20.681  14.428
58103W        W17364  17.132  12.818   4.197
58104W        W17365  15.155   2.272  12.405
58105W        W17366  36.869  15.226   3.163
58106W        W17367   0.469  28.065  10.429
58107W        W17368  12.681  40.316   0.840
58108W        W17369  32.936  30.514   3.637
58109W        W17370   4.716   0.365  10.920
58110W        W17371  37.924  22.572  12.414
58111W        W17372  14.183   3.866  10.944
58112W        W17373  35.495  21.220   0.880
58113W        W17374  33.129  31.983  13.934
58114W        W17375   6.248   5.227  12.027
58115W        W17376  10.179  37.920  12.052
58116W        W17377  12.318  12.833  11.476
58117W        W17378  20.621  17.280  13.944
58118W        W17379   7.885  10.325  13.387
58119W        W17380  20.756  11.142  14.294
58120W        W17381   5.325  13.653  12.462
58121W        W17382   9.836  25.131   0.809
58122W        W17383   7.848  44.777   2.717
58123W        W17384   8.821  14.269  11.070
58124W        W17385  37.429  25.145  10.102
58125W        W17386  27.670  33.941  11.105
58126W        W17387  34.875  39.930   3.674
58127W        W17388  36.861  10.744   4.160
58128W        W17389  28.940  16.183   1.741
58129W        W17390  21.694   6.691  11.485
58130W        W17391  35.952   0.915  14.825
58131W        W17392  26.604  17.638  13.002
58132W        W17393   9.774  30.102  11.113
58133W        W17394  11.858  41.466   9.985
58134W        W17395  26.967  36.039   0.728
58135W        W17396   9.253  21.534   1.437
58136W        W17397   7.816  39.033   9.952
58137W        W17398  28.120   0.868   5.126
58138W        W17399  26.076  32.511  11.112
58139W        W17400  30.982   6.817   4.725
58140W        W17401  38.851  19.227   1.336
58141W        W17402   4.213   4.397  10.478
58142W        W17403   2.789  29.082   1.365
58143W        W17404  24.701  41.970   1.760
58144W        W17405   7.878  20.548  10.960
58145W        W17406  18.062   6.922  13.008
58146W        W17407  29.061  17.593  12.388
58147W        W17408   2.396  37.577  13.327
58148W        W17409  22.683  30.000   1.839
58149W        W17410   8.242  37.843   4.296
58150W        W17411  20.185  43.911  11.915
58151W        W17412  14.833  17.077   4.768
58152W        W17413  16.236  16.162   3.745
58153W        W17414  29.139  19.057   3.334
58154W        W17415  18.569  38.973  14.307
58155W        W17416  28.987   7.236   2.217
58156W        W17417  10.249   1.970  13.450
58157W        W17418  42.518   5.729  11.097
58158W        W17419  30.017   2.730  13.351
58159W        W17420   9.820  40.342   3.795
58160W        W17421  37.576  25.972  11.599
58161W        W17422  15.729  33.487   2.767
58162W        W17423  31.072  32.961  11.578
58163W        W17424  29.620  26.017  11.508
58164W        W17425  32.568   9.226   0.465
58165W        W17426  18.099  25.985   2.189
58166W        W17427  14.817  22.545  13.995
58167W        W17428  34.432  24.137   0.266
58168W        W17429  12.811  40.316   1.306
58169W        W17430   7.872  28.566   0.325
58170W        W17431  12.181  13.665  14.965
58171W        W17432  39.524   9.720   3.700
58172W        W17433  26.469  33.480  12.932
58173W        W17434  34.920  39.432  12.435
58174W        W17435  20.258  21.692  12.075
58175W        W17436  30.614   7.893  11.010
58176W        W17437   2.332  10.331  10.086
58177W        W17438   1.882  31.964  12.368
58178W        W17439  34.061   9.315   3.340
58179W        W17440  25.219  32.527  12.352
58180W        W17441  40.434   3.831  12.888
58181W        W17442  27.460   3.858   0.269
58182W        W17443  29.944   7.257  10.483
58183W        W17444  14.199   9.777  14.893
58184W        W17445  12.834  38.823   1.285
58185W        W17446   6.407  18.588   1.826
58186W        W17447  39.557  11.647   0.790
58187W        W17448  32.571  30.642   1.430
58188W        W17449   5.369  32.426   3.700
58189W        W17450   8.246  27.985  10.965
58190W        W17451  42.016   0.815   5.222
58191W        W17452  42.984   0.875  13.989
58192W        W17453  26.979  33.423  14.483
58193W        W17454  10.291   6.374   0.269
58194W        W17455  30.955  13.644   0.437
58195W        W17456  16.567  15.639  14.883
58196W        W17457   7.381  10.364  10.930
58197W        W17458   4.774  20.180   4.169
58198W        W17459   2.899  44.961   1.764
58199W        W17460  12.846  27.960   1.695
58200W        W17461  42.833   3.809   0.935
58201W        W17462  40.479   8.827   0.273
58202W        W17463  34.434   5.259   0.271
58203W        W17464  29.021  25.617   4.172
58204W        W17465   8.296  42.441   1.245
58205W        W17466  15.800  26.954   4.747
58206W        W17467  19.284  22.560   3.859
58207W        W17468  20.074  16.272   4.122
58208W        W17469  35.507   7.819  11.967
58209W        W17470  36.577  41.003   2.294
58210W        W17471  36.453  28.666   0.252
58211W        W17472  42.478   6.198   2.759
58212W        W17473  13.336   5.789   5.301
58213W        W17474  40.524  37.496  13.955
58214W        W17475  19.118  21.133  12.085
58215W        W17476  23.031   7.695   3.228
58216W        W17477  18.606   1.845  11.019
58217W        W17478  11.714   8.406  10.414
58218W        W17479   2.845   1.427   3.169
58219W        W17480  13.616  19.627  10.456
58220W        W17481  29.048  44.418  11.594
58221W        W17482  24.481  31.612   1.854
58222W        W17483  43.022  40.891  12.415
58223W        W17484  43.936  18.622  12.426
58224W        W17485  30.978  28.942   3.848
58225W        W17486  11.649  42.843   4.678
58226W        W17487  36.096  15.274   2.825
58227W        W17488  43.937  32.059   1.881
58228W        W17489  14.218  40.026   2.254
58229W        W17490  13.274  23.205  10.458
58230W        W17491  30.030  34.895  12.953
58231W        W17492  44.475  20.530   3.702
58232W        W17493   5.434  34.998   3.830
58233W        W17494  11.245  27.973  11.547
58234W        W17495  22.739   5.278  13.975
58235W        W17496  30.478  30.629  13.530
58236W        W17497  28.654  35.588   4.639
58237W        W17498  15.705  15.587  12.391
58238W        W17499   6.359  42.284  12.558
58239W        W17500  26.031  13.182   2.866
58240W        W17501  16.101  23.120   3.348
58241W        W17502  30.632   0.458   4.169
58242W        W17503  16.715   5.361   0.786
58243W        W17504  21.534  39.885   2.755
58244W        W17505  37.026   3.923  13.345
58245W        W17506  42.285   5.837   1.450
58246W        W17507  31.965  44.259  14.937
58247W        W17508  42.444  23.234  13.849
58248W        W17509  40.818  26.608  10.519
58249W        W17510  23.552  24.493  12.401
58250W        W17511  15.305  20.602   1.343
58251W        W17512  23.170  37.921  11.071
58252W        W17513  21.262  38.469  13.846
58253W        W17514   1.963  24.609  13.391
58254W        W17515  30.550  38.458   1.307
58255W        W17516  20.691  39.895   2.749
58256W        W17517   9.281  11.322  13.451
58257W        W17518  25.646  20.050   4.278
58258W        W17519   6.213   4.745  12.353
58259W        W17520   3.328  21.616   3.720
58260W        W17521   9.741  37.993   2.214
58261W        W17522  18.137  23.555   3.374
58262W        W17523  11.364  24.712   2.239
58263W        W17524   3.834  41.321   4.828
58264W        W17525  21.576  39.391  10.476
58265W        W17526  13.296   6.682   3.272
58266W        W17527  37.511   4.868  10.963
58267W        W17528   8.322   2.438  12.978
58268W        W17529  11.187  26.105   0.359
58269W        W17530  12.679  15.170   0.855
58270W        W17531  16.644   1.945  14.903
58271W        W17532  27.137   7.839  11.434
58272W        W17533  40.798  44.992  13.809
58273W        W17534  21.548  22.230  12.067
58274W        W17535  40.318   9.750   0.424
58275W        W17536  20.274   1.864  10.631
58276W        W17537  32.633  22.015   3.296
58277W        W17538  40.907   5.377   0.886
58278W        W17539  33.418   5.243   1.775
58279W        W17540  13.219  23.628  12.968
58280W        W17541   2.364  31.147  14.395
58281W        W17542   6.208  27.492  13.504
58282W        W17543  26.082  15.322  12.497
58283W        W17544  39.962  25.195   3.357
58284W        W17545  27.161  13.304   2.298
58285W        W17546   2.777  17.599  13.833
58286W        W17547   4.719  34.396   5.198
58287W        W17548  25.611   5.750  10.486
58288W        W17549   1.767  41.386  10.633
58289W        W17550  16.699  25.697   1.210
58290W        W17551  10.164   8.282   1.243
58291W        W17552  36.884  36.969  13.317
58292W        W17553  12.162   4.298  12.895
58293W        W17554  41.787  18.581  13.879
58294W        W17555   9.717  37.926   4.767
58295W        W17556  15.717  34.599   1.932
58296W        W17557   9.271  30.502   5.295
58297W        W17558   8.181   9.218   0.779
58298W        W17559   7.284   7.788  10.152
58299W        W17560   7.364  25.143   1.923
58300W        W17561  26.998   6.410  14.869
58301W        W17562  26.990   0.798   0.920
58302W        W17563  26.019  43.975  10.466
58303W        W17564  11.349   1.863   3.150
58304W        W17565   5.410  29.568   1.858
58305W        W17566   3.282  42.419  14.465
58306W        W17567  14.679  21.128  14.882
58307W        W17568   9.683  11.641   3.348
58308W        W17569  39.559  43.987   1.739
58309W        W17570  26.655  37.022   2.260
58310W        W17571  29.992  39.030  11.391
58311W        W17572  13.669   7.844  11.541
58312W        W17573   5.737  13.656   2.255
58313W        W17574  41.968  11.774  11.963
58314W        W17575  18.076  42.927   4.744
58315W        W17576  14.673  26.041   1.223
58316W        W17577  40.375  44.995  10.985
58317W        W17578  36.351  27.942  11.378
58318W        W17579   5.330  32.107   2.359
58319W        W17580  24.141   9.357   4.613
58320W        W17581  42.956  17.747   4.295
58321W        W17582  11.130  29.608   1.848
58322W        W17583  40.897  22.160   3.150
58323W        W17584  12.822  10.242   2.192
58324W        W17585  34.491  17.690   1.267
58325W        W17586   2.958  36.440   1.322
58326W        W17587   3.796  39.420   4.744
58327W        W17588  44.455   8.296   5.183
58328W        W17589  38.834  24.572  12.969
58329W        W17590  38.920  21.736  12.507
58330W        W17591  13.167  30.077  11.887
58331W        W17592   7.738  13.217   2.181
58332W        W17593   1.390  29.113  11.898
58333W        W17594  15.298  26.984  13.371
58334W        W17595  28.635  24.978  13.940
58335W        W17596  20.671  13.330  13.814
58336W        W17597  22.148  24.619   3.846
58337W        W17598  34.419   2.470  12.470
58338W        W17599  38.851  23.634   2.889
58339W        W17600   1.818  24.151  13.815
58340W        W17601  14.252   4.208   5.088
58341W        W17602  20.160  23.169  12.483
58342W        W17603  16.145   7.172  10.477
58343W        W17604  21.158  35.591  11.081
58344W        W17605  42.468  39.316  11.983
58345W        W17606  32.988  24.704   1.294
58346W        W17607  28.471  18.185   0.958
58347W        W17608  17.250   8.186  11.031
58348W        W17609  18.745  12.616   1.451
58349W        W17610   0.270   4.734  12.365
58350W        W17611  44.757  38.521   0.360
58351W        W17612  20.536   2.945   0.778
58352W        W17613  16.690  12.848   0.952
58353W        W17614  22.616  10.726  14.428
58354W        W17615   7.847  15.129  13.452
58355W        W17616  13.163   9.161  11.923
58356W        W17617  43.336  32.012  10.128
58357W        W17618  39.444  10.739  13.858
58358W        W17619  14.221  16.291  14.305
58359W        W17620   9.772   3.420   3.848
58360W        W17621   2.349  38.924  14.017
58361W        W17622  22.050  24.611   0.878
58362W        W17623  20.099   7.874   2.376
58363W        W17624  15.593  36.962   4.313
58364W        W17625  32.605   0.459  14.401
58365W        W17626   3.266  11.830   2.754
58366W        W17627  25.120  18.294  14.854
58367W        W17628  37.867  32.125  10.614
58368W        W17629  36.390   1.447  13.842
58369W        W17630  13.247  20.129   3.791
58370W        W17631  43.016  26.460   3.217
58371W        W17632  25.218  22.126   1.374
58372W        W17633  32.950  28.145   4.694
58373W        W17634  12.777  32.566  14.986
58374W        W17635  20.756  16.156   3.760
58375W        W17636  30.487  28.498  11.476
58376W        W17637   5.884  26.649   4.289
58377W        W17638  38.003  26.623  10.477
58378W        W17639  17.080  44.499  12.962
58379W        W17640   9.873  13.289  14.776
58380W        W17641  26.149  38.355   4.714
58381W        W17642   3.809   4.793   4.165
58382W        W17643  35.407  42.963  10.411
58383W        W17644  37.908  42.434   4.317
58384W        W17645  28.103  38.562  13.530
58385W        W17646  22.042  18.108  14.280
58386W        W17647  21.066  29.517  14.461
58387W        W17648   4.767  39.417  10.911
58388W        W17649  41.302  19.699  13.444
58389W        W17650  15.672  30.444   0.878
58390W        W17651  38.988  36.436   2.775
58391W        W17652  38.377  26.531   2.720
58392W        W17653  37.503   4.320  14.797
58393W        W17654  25.618  20.059  12.564
58394W        W17655  25.038   5.779   2.274
58395W        W17656  27.029  35.852   1.239
58396W        W17657  22.104  38.438  14.312
58397W        W17658   8.818  12.347  11.023
58398W        W17659   6.722  21.151   2.832
58399W        W17660  39.440  20.028   2.391
58400W        W17661  32.080   2.401  13.042
58401W        W17662  33.080  39.392   4.721
58402W        W17663  11.791  30.986   2.819
58403W        W17664  32.408  11.334   1.275
58404W        W17665  13.132  28.986   3.268
58405W        W17666   3.776  20.147   4.198
58406W        W17667   7.823  36.907  11.411
58407W        W17668   9.770  24.182  12.342
58408W        W17669   9.811   0.836  12.974
58409W        W17670  24.144  10.339   3.275
58410W        W17671  29.132   5.844   3.319
58411W        W17672  26.630  28.634  13.815
58412W        W17673   7.880   6.806  12.386
58413W        W17674   8.762   6.795   1.248
58414W        W17675  36.394  29.573   0.852
58415W        W17676   8.828  11.177   0.380
58416W        W17677  40.880  14.706  10.450
58417W        W17678  34.604   6.774   1.262
58418W        W17679  21.141  32.608  12.079
58419W        W17680  25.076  43.780  11.962
58420W        W17681   2.347   9.699  10.520
58421W        W17682  11.776  39.341   2.878
58422W        W17683  10.154  39.907   1.329
58423W        W17684  40.318  39.379  13.911
58424W        W17685  10.799   9.691   3.281
58425W        W17686  16.215  25.609  11.085
58426W        W17687  33.399  10.728   0.839
58427W        W17688  10.717  24.539  11.592
58428W        W17689  29.572  37.409  12.456
58429W        W17690  22.077  40.383   1.239
58430W        W17691  10.689  25.701  13.864
58431W        W17692  12.691   7.777  13.982
58432W        W17693  12.216  23.082   4.354
58433W        W17694  37.469  40.973   5.749
58434W        W17695  26.974  15.222   3.292
58435W        W17696  36.046  16.300  11.108
58436W        W17697  27.650  34.978   2.666
58437W        W17698  34.372  13.280   3.204
58438W        W17699   4.423  22.121  13.853
58439W        W17700  43.394  36.098  11.117
58440W        W17701  12.275  15.322  13.532
58441W        W17702  36.540  12.652   0.462
58442W        W17703  35.076   4.902   1.414
58443W        W17704  11.187  44.279  10.918
58444W        W17705  39.815  39.385   2.248
58445W        W17706  36.570  25.535   3.204
58446W        W17707  33.584  44.390  14.919
58447W        W17708  34.997  19.732   1.279
58448W        W17709  22.232  38.411  10.575
58449W        W17710   0.338  25.474   2.807
58450W        W17711  14.701  19.543   1.216
58451W        W17712  18.650  38.825  11.453
58452W        W17713  26.960  16.659   4.117
58453W        W17714  19.706  44.837   2.888
58454W        W17715   0.248   6.223  12.988
58455W        W17716   2.389  22.715   3.815
58456W        W17717  11.137  16.805   2.778
58457W        W17718  15.314  35.029  14.288
58458W        W17719  33.557   8.814   1.778
58459W        W17720   5.218   7.365  13.904
58460W        W17721  15.694  12.678  12.537
58461W        W17722   5.364   0.909  14.496
58462W        W17723  41.507  16.733  11.873
58463W        W17724   8.753  12.260  12.053
58464W        W17725  13.180  37.025   4.189
58465W        W17726   8.335  17.730  10.450
58466W        W17727   9.328   2.311  11.943
58467W        W17728   4.330  38.509  10.464
58468W        W17729   4.343   3.945   2.248
58469W        W17730  30.020  32.092  11.391
58470W        W17731  12.644  33.597   4.612
58471W        W17732  25.491  25.649  12.826
58472W        W17733  15.709  36.860  14.843
58473W        W17734  27.591  27.567   2.347
58474W        W17735  24.070  11.846  13.991
58475W        W17736  43.017  34.089  13.434
58476W        W17737  12.674  40.509  14.494
58477W        W17738  14.653  21.590  11.904
58478W        W17739   7.258  40.506   2.902
58479W        W17740  12.139  33.023  10.540
58480W        W17741  11.190  37.566  13.904
58481W        W17742   4.907  29.960  14.794
58482W        W17743   8.720   5.923  11.446
58483W        W17744   4.848  15.638  10.413
58484W        W17745   5.421  41.446   0.963
58485W        W17746  29.067  20.768  12.843
58486W        W17747  11.131  30.072   1.735
58487W        W17748  26.090  36.445  11.583
58488W        W17749  14.784  20.269   0.953
58489W        W17750  35.455  28.987   3.653
58490W        W17751   7.297  33.528  11.549
58491W        W17752  18.268  27.447  13.455
58492W        W17753  34.540   3.761  13.058
58493W        W17754   5.710  30.924  14.854
58494W        W17755  18.092  43.980  14.287
58495W        W17756  40.344  32.041   0.252
58496W        W17757  38.872  17.636  14.314
58497W        W17758  33.033  21.537  14.829
58498W        W17759  27.031   8.723  14.823
58499W        W17760  33.452  29.922  13.871
58500W        W17761   1.392  43.915   0.749
58501W        W17762  17.596   7.825  11.570
58502W        W17763  14.144  36.537  11.376
58503W        W17764   9.870  14.701  10.478
58504W        W17765  36.075   7.216  13.002
58505W        W17766   5.898  28.478  11.901
58506W        W17767  32.130  27.989   1.446
58507W        W17768  29.056  12.761  12.439
58508W        W17769  10.654  36.083  11.420
58509W        W17770  42.337  11.153  12.921
58510W        W17771  26.086  19.746   4.354
58511W        W17772  18.786  22.660  14.442
58512W        W17773  36.042  26.111   3.750
58513W        W17774  17.589  44.294  14.424
58514W        W17775  10.853  41.910  11.127
58515W        W17776  13.200  29.023  12.033
58516W        W17777  27.518  14.720  14.393
58517W        W17778  25.188  11.372  12.948
58518W        W17779  22.530   0.976   2.186
58519W        W17780  25.090   7.738  13.310
58520W        W17781  21.726  17.692  11.603
58521W        W17782  18.106  41.489   4.183
58522W        W17783  24.544  12.844  14.861
58523W        W17784  10.192  41.292  11.565
58524W        W17785  35.009  43.976  10.973
58525W        W17786  27.174  20.607   4.336
58526W        W17787  19.043  31.046   3.649
58527W        W17788  44.946  44.502   4.230
58528W        W17789   5.421  39.888   2.250
58529W        W17790   5.850  33.542  11.538
58530W        W17791  21.671  14.260  12.851
58531W        W17792  10.832  36.872  11.900
58532W        W17793  44.293  34.455  14.449
58533W        W17794  23.153  37.418  12.450
58534W        W17795  32.498  27.135   4.160
58535W        W17796  18.121   4.351   2.384
58536W        W17797  40.419  16.223  10.942
58537W        W17798  36.429  28.098   1.283
58538W        W17799   9.709  20.260   2.351
58539W        W17800  18.693  29.038   3.702
58540W        W17801  32.915  22.041  13.813
58541W        W17802   6.731  18.100   1.379
58542W        W17803  10.802  12.853  13.856
58543W        W17804  37.062  25.089  13.405
58544W        W17805  17.578   7.217  12.445
58545W        W17806   1.282   1.777   2.883
58546W        W17807  28.037  34.061   4.612
58547W        W17808  12.155  31.065  11.999
58548W        W17809  30.575  12.831   1.850
58549W        W17810   4.289  40.819   0.828
58550W        W17811  43.820  19.609  11.018
58551W        W17812  15.590  32.042  11.424
58552W        W17813   1.443   8.711   1.446
58553W        W17814   1.428   6.764   4.351
58554W        W17815  18.079  32.132  13.378
58555W        W17816  14.789  18.554  11.943
58556W        W17817  11.691  27.005   3.211
58557W        W17818  25.083  12.837   3.286
58558W        W17819   5.241  15.698  10.947
58559W        W17820  41.356  41.043  11.084
58560W        W17821  39.314  12.215   3.189
58561W        W17822  44.259  42.395   2.232
58562W        W17823  32.120  14.754  12.981
58563W        W17824  35.064  27.595  10.942
58564W        W17825  42.814  40.303   2.686
58565W        W17826   9.677  20.660  11.917
58566W        W17827  17.246  19.092   3.659
58567W        W17828  21.172  31.640   3.358
58568W        W17829  40.828  32.612   5.280
58569W        W17830  18.764  24.479   0.767
58570W        W17831   1.259  25.508  13.040
58571W        W17832  27.957   0.360   3.197
58572W        W17833  10.865  20.244  13.548
58573W        W17834  18.679   1.337   2.361
58574W        W17835  32.105  28.142   2.802
58575W        W17836  32.415  33.567  13.981
58576W        W17837   9.209  22.222  11.528
58577W        W17838  40.477   7.892   3.234
58578W        W17839  13.796  18.220  14.854
58579W        W17840  38.881  34.035  10.056
58580W        W17841   3.866   2.439   3.216
58581W        W17842  17.673  18.550   1.332
58582W        W17843  23.495   7.366  13.504
58583W        W17844  28.931   4.401  13.346
58584W        W17845  36.522   3.302  13.400
58585W        W17846  18.679  10.381   0.438
58586W        W17847  23.656  26.552  13.017
58587W        W17848  17.090  29.162   0.872
58588W        W17849  33.521   1.953  13.386
58589W        W17850  10.741  42.316   2.313
58590W        W17851  30.071  30.457  11.606
58591W        W17852  26.491  37.073   1.268
58592W        W17853   8.739  20.569  10.889
58593W        W17854   1.910  23.709  12.493
58594W        W17855   2.883  33.540   1.218
58595W        W17856  29.026  30.945   4.235
58596W        W17857  35.072   4.745  13.937
58597W        W17858   1.947  22.122   0.261
58598W        W17859  32.418   5.877   1.339
58599W        W17860   9.282   3.792  10.619
58600W        W17861  26.186  24.500  12.950
58601W        W17862  12.339  11.728   5.575
58602W        W17863   2.352  27.487  12.918
58603W        W17864   8.206  21.516   1.902
58604W        W17865  11.297  16.568  14.781
58605W        W17866  24.184  28.071  14.849
58606W        W17867   8.323  22.055   3.720
58607W        W17868   8.182  14.115   2.301
58608W        W17869  12.354  15.593   3.358
58609W        W17870  44.493  27.011  10.968
58610W        W17871  24.083  17.301   3.342
58611W        W17872   8.761  11.784  14.018
58612W        W17873  12.619  14.667   1.275
58613W        W17874   7.272  12.333   3.683
58614W        W17875  37.513  44.784  12.086
58615W        W17876  22.105  37.533   4.764
58616W        W17877  26.174  30.648   2.248
58617W        W17878  19.126  41.358   0.457
58618W        W17879  40.866   4.387   3.812
58619W        W17880  17.194   4.835  10.541
58620W        W17881  26.673  10.139   3.762
58621W        W17882  11.816  28.454  12.070
58622W        W17883  38.887  27.489   0.482
58623W        W17884   2.453  28.618   2.893
58624W        W17885  30.579  21.568   4.730
58625W        W17886  39.011   6.193   0.368
58626W        W17887  32.552  40.375   4.709
58627W        W17888  11.169  43.875   2.203
58628W        W17889   5.211  29.080   3.163
58629W        W17890  22.605  34.548   3.701
58630W        W17891  22.145   1.924  12.974
58631W        W17892  35.005  20.099   2.266
58632W        W17893  30.112  36.412   2.846
58633W        W17894  40.316  30.103  13.976
58634W        W17895   4.327  37.484  13.810
58635W        W17896  40.836  24.500  14.509
58636W        W17897  11.356  44.847   4.761
58637W        W17898  24.035  38.061   0.907
58638W        W17899  33.409   9.664   1.764
58639W        W17900  10.750  44.895  14.350
58640W        W17901   2.932   7.404  14.372
58641W        W17902  26.155  34.016   3.198
58642W        W17903   2.438  38.898  10.049
58643W        W17904  42.497  37.461  13.494
58644W        W17905  38.877  40.379  12.452
58645W        W17906  21.746  15.777   0.470
58646W        W17907  14.755  39.808  13.496
58647W        W17908  13.113  31.526   3.762
58648W        W17909   9.159  21.699  11.595
58649W        W17910  32.908  10.331  12.939
58650W        W17911  40.433   0.802   4.246
58651W        W17912  41.500   5.287   0.333
58652W        W17913  43.323   4.914  13.838
58653W        W17914  11.144   0.888   2.678
58654W        W17915  27.100  34.033   1.719
58655W        W17916   9.711  29.115  10.514
58656W        W17917   2.286   6.919  13.985
58657W        W17918  12.203  35.089   0.313
58658W        W17919  19.178   1.804  12.347
58659W        W17920   0.874   6.268  10.930
58660W        W17921  23.092   3.223   4.352
58661W        W17922  32.943   2.872   3.658
58662W        W17923  37.555   2.418  10.990
58663W        W17924   7.220  21.090  11.006
58664W        W17925   3.906   9.254  12.828
58665W        W17926  41.908  33.407   0.364
58666W        W17927  28.056  25.500   3.199
58667W        W17928  12.673   1.772  13.340
58668W        W17929   0.254  21.680  14.494
58669W        W17930  31.476  22.183   2.751
58670W        W17931  28.620  34.987   1.283
58671W        W17932  42.940   9.243   4.257
58672W        W17933  43.512  35.535  14.805
58673W        W17934  21.246   9.707   9.973
58674W        W17935  36.515  29.001   0.243
58675W        W17936  11.233  36.409  13.054
58676W        W17937  17.733  28.472  12.532
58677W        W17938  38.021  40.887   1.874
58678W        W17939  12.750  39.509  11.484
58679W        W17940   7.706   0.813   1.896
58680W        W17941  41.040  23.070   3.316
58681W        W17942   7.831  40.835   0.444
58682W        W17943  26.165  28.081  12.961
58683W        W17944  33.056  44.402   1.885
58684W        W17945   7.313  34.055   1.422
58685W        W17946  21.636  32.005   2.413
58686W        W17947  16.740  17.667   3.208
58687W        W17948   2.464  33.888   2.252
58688W        W17949  44.342  18.703  13.403
58689W        W17950  39.371  35.513  12.344
58690W        W17951  10.733  43.969   3.239
58691W        W17952  15.730  35.365   3.322
58692W        W17953  41.991  25.181  10.040
58693W        W17954  17.721  26.583  12.356
58694W        W17955  18.145  37.342  14.830
58695W        W17956  15.689   7.792   2.712
58696W        W17957  23.059  14.648   2.738
58697W        W17958  28.562  38.935  12.429
58698W        W17959  25.680   2.439  11.502
58699W        W17960  43.311  43.481  13.922
58700W        W17961  42.917  25.188  11.534
58701W        W17962   9.252   3.377   4.640
58702W        W17963  19.536  12.731  14.311
58703W        W17964  23.102  21.041  14.410
58704W        W17965  17.074  16.291   4.742
58705W        W17966  19.102  13.808  12.889
58706W        W17967  23.014  33.382   0.358
58707W        W17968  11.711  41.949   4.688
58708W        W17969  40.373  17.731  13.444
58709W        W17970  41.979  18.181  13.056
58710W        W17971  30.929  13.107  10.891
58711W        W17972  40.521   9.734  14.971
58712W        W17973  26.131  39.512   3.674
58713W        W17974  32.450  42.950  14.971
58714W        W17975   7.257   3.328  13.326
58715W        W17976  35.873  40.860   1.343
58716W        W17977   7.900  35.910  13.040
58717W        W17978  36.013  11.201   1.694
58718W        W17979  22.684  18.193   1.737
58719W        W17980   1.267  31.602  10.976
58720W        W17981  22.672  11.732   2.860
58721W        W17982  37.019  12.217   1.404
58722W        W17983  41.311  25.072   4.726
58723W        W17984   1.794  18.780  12.897
58724W        W17985   6.221  34.484   1.425
58725W        W17986  13.336  40.934   1.728
58726W        W17987  13.307  26.469  12.943
58727W        W17988  19.675  29.495   2.734
58728W        W17989  23.642  27.125  10.489
58729W        W17990  27.183  42.897  13.394
58730W        W17991   9.661  29.571   3.839
58731W        W17992  30.990  15.718   1.383
58732W        W17993   5.327   3.933  13.954
58733W        W17994   7.329  29.035  11.569
58734W        W17995  39.506  21.710  11.089
58735W        W17996  14.740  20.731  11.559
58736W        W17997  43.837   9.182  13.054
58737W        W17998  14.198   6.217   0.478
58738W        W17999   2.790  28.959  12.576
58739W        W18000  23.516  17.619   0.966
58740W        W18001  11.704  44.280   0.374
58741W        W18002   8.860  23.624   4.269
58742W        W18003  33.063  34.959  11.961
58743W        W18004  29.928  16.111  13.947
58744W        W18005  20.727  41.303  11.929
58745W        W18006  31.111   1.737   1.721
58746W        W18007  30.057  43.772  13.532
58747W        W18008  15.201  16.660  14.434
58748W        W18009   2.771   8.198   5.316
58749W        W18010  24.636  22.098  12.380
58750W        W18011   8.814  22.550  14.308
58751W        W18012  43.432  23.022  14.308
58752W        W18013   7.274  19.556  10.533
58753W        W18014  36.909   5.846   4.115
58754W        W18015  28.975  28.075  14.000
58755W        W18016  16.785   6.297  12.453
58756W        W18017  38.516   1.919   4.678
58757W        W18018  12.734   8.405   1.393
58758W        W18019  10.682  39.892   4.826
58759W        W18020  37.482  43.500  11.505
58760W        W18021  11.153  43.001   4.763
58761W        W18022  37.527  35.021   1.336
58762W        W18023  21.069  36.911   0.277
58763W        W18024  17.181  41.450  11.395
58764W        W18025  11.677  34.498  12.524
58765W        W18026  41.945   9.669  10.508
58766W        W18027  30.084  10.271   1.717
58767W        W18028  14.098   7.226   4.602
58768W        W18029  19.220  29.573  12.927
58769W        W18030  20.529  14.234   4.660
58770W        W18031  40.004  42.923  11.061
58771W        W18032  24.995  14.225  14.491
58772W        W18033  20.538  13.756  12.555
58773W        W18034   9.310  42.303  11.995
58774W        W18035  42.891  42.402  10.945
58775W        W18036  25.512  13.323   1.411
58776W        W18037   7.705  42.025   0.857
58777W        W18038  31.995  29.431  11.945
58778W        W18039  14.811  37.531  11.409
58779W        W18040   4.268  24.077  12.088
58780W        W18041  13.349  32.620   1.450
58781W        W18042  17.183  36.992   4.324
58782W        W18043  19.049  32.079   0.430
58783W        W18044  42.971  10.864  11.481
58784W        W18045  41.508  32.623  14.983
58785W        W18046  43.288  10.654  10.506
58786W        W18047  27.146  25.474   2.878
58787W        W18048  42.936  20.110   1.735
58788W        W18049  30.137  26.166  11.092
58789W        W18050  29.531  28.056  13.903
58790W        W18051  18.209  23.075  10.566
58791W        W18052  37.025  12.716   3.336
58792W        W18053  22.154  31.967   4.314
58793W        W18054   4.859  34.575   2.708
58794W        W18055  19.171  36.975   2.717
58795W        W18056  39.396  30.920   4.663
58796W        W18057  42.794   6.305   0.964
58797W        W18058  19.075   7.717   1.354
58798W        W18059  34.476   5.729  12.563
58799W        W18060  42.501   7.187   3.735
58800W        W18061  23.215  21.176   4.345
58801W        W18062  28.166   4.418  10.517
58802W        W18063  13.800   2.833  14.803
58803W        W18064  20.536  30.156   4.620
58804W        W18065   6.365  31.992  13.537
58805W        W18066  37.026   2.791   2.833
58806W        W18067  37.369  26.596   5.277
58807W        W18068  16.788  27.583  12.909
58808W        W18069   4.897   3.391   4.766
58809W        W18070  42.847  18.739  11.504
58810W        W18071  42.788  17.776   0.727
58811W        W18072  39.328  26.139   1.717
58812W        W18073  39.508  18.638   1.308
58813W        W18074  15.785  12.334   0.819
58814W        W18075  25.060  44.445  12.026
58815W        W18076  42.990  21.695   4.250
58816W        W18077  42.301  14.716   1.428
58817W        W18078  43.953  15.106   4.809
58818W        W18079   2.231   7.742   4.774
58819W        W18080  29.937  43.845   3.164
58820W        W18081  29.964  41.440  12.860
58821W        W18082  34.022  20.065   4.731
58822W        W18083  21.559   2.828  13.049
58823W        W18084  33.993  38.830  12.528
58824W        W18085  29.137  19.259   0.873
58825W        W18086  23.084  38.034   2.831
58826W        W18087   2.305   9.338  10.452
58827W        W18088  39.036  24.197   4.680
58828W        W18089  18.652  22.148  12.867
58829W        W18090   9.664  28.120   2.666
58830W        W18091   6.319  39.832   3.634
58831W        W18092  11.730  31.898   1.932
58832W        W18093  30.560  21.670  11.884
58833W        W18094  24.669   1.324  12.069
58834W        W18095  33.554   3.309  11.951
58835W        W18096   2.293  18.737  13.921
58836W        W18097  44.839   9.656  13.990
58837W        W18098  39.520  10.346  11.058
58838W        W18099  19.666  25.502   3.260
58839W        W18100   6.843   0.790  12.379
58840W        W18101  28.960  23.717   0.348
58841W        W18102  29.634  36.057  14.418
58842W        W18103  44.401  39.347   2.320
58843W        W18104  33.482  19.618  12.353
58844W        W18105  39.418  36.392   5.305
58845W        W18106  35.994   3.407   3.697
58846W        W18107  17.205  43.499   3.357
58847W        W18108  27.080  28.930  10.429
58848W        W18109  24.208   7.204  11.388
58849W        W18110  32.134  25.963  12.501
58850W        W18111   4.311   1.461  14.504
58851W        W18112  28.448  23.054  12.550
58852W        W18113   4.770  36.484   4.735
58853W        W18114  44.340  19.132   3.742
58854W        W18115  15.132  35.591   4.809
58855W        W18116   0.962  26.956   2.401
58856W        W18117  20.137   1.961  13.447
58857W        W18118  16.097  29.162   3.207
58858W        W18119  26.663   3.331   1.765
58859W        W18120  26.961  40.472  10.153
58860W        W18121  39.057   4.422   2.408
58861W        W18122  14.614  10.258   3.157
58862W        W18123  21.075   7.684   4.303
58863W        W18124  16.172   2.752   0.942
58864W        W18125   9.882  43.270  13.332
58865W        W18126  13.801  28.966  13.861
58866W        W18127  24.223   7.785   0.296
58867W        W18128  35.868  21.153   0.432
58868W        W18129  42.492  25.067   3.688
58869W        W18130  33.928   9.853   4.139
58870W        W18131   4.262  27.635  13.842
58871W        W18132  34.397  26.109   3.850
58872W        W18133  33.515  13.821   1.232
58873W        W18134  31.561  24.987   0.277
58874W        W18135  39.837  26.997   1.254
58875W        W18136  30.428  36.875  14.863
58876W        W18137  20.130  11.359   4.787
58877W        W18138  18.062  17.138   1.298
58878W        W18139   8.722  29.620  14.831
58879W        W18140  37.049   5.283   4.662
58880W        W18141  21.164  13.121   2.732
58881W        W18142   2.351   6.298   0.827
58882W        W18143  15.291  20.145  14.389
58883W        W18144  22.029  18.166  11.381
58884W        W18145  23.225  44.880  13.367
58885W        W18146  26.967   5.200  10.544
58886W        W18147  12.650  24.032  13.794
58887W        W18148  12.737   4.914  14.818
58888W        W18149  12.748  31.903   3.377
58889W        W18150  37.454  14.641   4.254
58890W        W18151   4.386  12.250  12.937
58891W        W18152  43.458  42.508  13.319
58892W        W18153   1.771  43.488   0.474
58893W        W18154  28.470  31.063  12.990
58894W        W18155  44.913  39.347   2.221
58895W        W18156  33.408  23.020   1.844
58896W        W18157  31.627  27.009   4.343
58897W        W18158  35.895  24.654  11.590
58898W        W18159  42.377  10.190   2.798
58899W        W18160   1.819  34.009  10.944
58900W        W18161  24.162  16.072   4.801
58901W        W18162  35.096   1.911   9.996
58902W        W18163  12.696  16.586   4.644
58903W        W18164   6.270  28.640  11.482
58904W        W18165   9.766  16.737   0.933
58905W        W18166  22.559  18.775  13.909
58906W        W18167  42.982  28.576  14.290
58907W        W18168  34.490  25.616   2.295
58908W        W18169  25.632   3.844   4.279
58909W        W18170   9.801   9.884   9.982
58910W        W18171  34.996  10.875  10.429
58911W        W18172  12.837  21.223  11.876
58912W        W18173  39.410  14.248   3.654
58913W        W18174  22.543   4.773   4.229
58914W        W18175  38.450  26.576   3.759
58915W        W18176  18.262  26.105  12.054
58916W        W18177  21.732   4.736   4.697
58917W        W18178  24.051  33.498   1.696
58918W        W18179  21.202  14.592  11.404
58919W        W18180  30.418  10.349   2.758
58920W        W18181  18.110  28.155   3.379
58921W        W18182  23.167  19.110   2.831
58922W        W18183  22.625  41.948   2.680
58923W        W18184  31.635   1.767   2.898
58924W        W18185  26.580   2.898   1.719
58925W        W18186   2.472  35.415   1.212
58926W        W18187  28.575   9.224  13.419
58927W        W18188  33.089  32.129   0.762
58928W        W18189   6.909  18.751  13.985
58929W        W18190   3.299   0.255   2.299
58930W        W18191  28.545  40.952   2.869
58931W        W18192  16.096  27.050   0.445
58932W        W18193  31.604  20.677  10.996
58933W        W18194  24.537  42.959  12.880
58934W        W18195   9.169  22.559  10.979
58935W        W18196  38.465  31.121   1.387
58936W        W18197  12.203  21.695  14.760
58937W        W18198  17.293  35.486   1.450
58938W        W18199  17.624  21.697  10.451
58939W        W18200   6.756  20.749  11.535
58940W        W18201  37.427  25.133   3.822
58941W        W18202   1.246  28.462   1.376
58942W        W18203   4.351  18.271   1.849
58943W        W18204  18.636  38.413  11.013
58944W        W18205  13.650   5.788  14.317
58945W        W18206   9.376  28.579  12.084
58946W        W18207  23.710  17.300  10.622
58947W        W18208  32.449  10.156  13.957
58948W        W18209   9.302  10.845   1.265
58949W        W18210  15.625  11.200   1.233
58950W        W18211  23.627  13.821  10.609
58951W        W18212   7.883  34.429  14.365
58952W        W18213  39.426  19.195   0.349
58953W        W18214   7.314  27.146  12.574
58954W        W18215  22.153   8.250  11.032
58955W        W18216   1.894   1.773  12.378
58956W        W18217  18.721  33.582   1.802
58957W        W18218  29.161   5.739   0.245
58958W        W18219  19.581   2.240   2.191
58959W        W18220   7.211  24.150   3.172
58960W        W18221  21.645   2.841  11.546
58961W        W18222  13.772  20.180   3.633
58962W        W18223   1.264  18.153  14.490
58963W        W18224   9.864  23.125   4.222
58964W        W18225   4.825  34.008   3.863
58965W        W18226  19.042  44.466   1.713
58966W        W18227  34.049  39.902  11.932
58967W        W18228  34.512   1.822  11.430
58968W        W18229  37.943   1.762   1.908
58969W        W18230  27.529  11.682   1.740
58970W        W18231  28.617   6.684   1.928
58971W        W18232   2.942  23.596  14.274
58972W        W18233   8.810   0.443  12.080
58973W        W18234  32.986  14.749   0.263
58974W        W18235   9.702  26.612  11.421
58975W        W18236  24.524  41.839  14.375
58976W        W18237  15.721   8.679   2.200
58977W        W18238  38.045  44.931   1.336
58978W        W18239  21.173  14.263   1.883
58979W        W18240  44.906   7.321  13.514
58980W        W18241  28.517  27.078  14.842
58981W        W18242  43.367  37.520   4.821
58982W        W18243  26.088   9.842  14.462
58983W        W18244   2.269  43.420  12.385
58984W        W18245  22.684  18.109   3.719
58985W        W18246   9.773  23.625   1.865
58986W        W18247  32.449  24.523  13.319
58987W        W18248  36.931  17.203   3.823
58988W        W18249  25.984  31.128  12.973
58989W        W18250   7.806  13.764  13.511
58990W        W18251   2.415  33.931  13.437
58991W        W18252  27.964  38.501  12.891
58992W        W18253  11.272  25.042  12.953
58993W        W18254  34.868  19.641  14.319
58994W        W18255  22.238  44.403   3.288
58995W        W18256  10.844  14.205   5.249
58996W        W18257  30.011  43.923  12.090
58997W        W18258  44.423  39.528   1.289
58998W        W18259  44.324   5.382  14.929
58999W        W18260  19.566  26.686  12.404
59000W        W18261  20.640  38.529   3.846
59001W        W18262  41.487  11.638  13.516
59002W        W18263  29.963   2.840   2.885
59003W        W18264   2.318  38.062   0.410
59004W        W18265  26.474  10.656  11.880
59005W        W18266  39.036  30.940   3.198
59006W        W18267   9.158  15.219   5.653
59007W        W18268  35.480  15.679  13.438
59008W        W18269  30.071  14.603  12.394
59009W        W18270   8.785  27.182  12.944
59010W        W18271  15.263  25.962  13.471
59011W        W18272  10.781  34.585   0.774
59012W        W18273   0.443  11.775   3.699
59013W        W18274  40.017  13.660   2.871
59014W        W18275  37.072  37.975  14.405
59015W        W18276  41.965  34.423   1.329
59016W        W18277  41.433  18.747   1.836
59017W        W18278   8.380  35.104   1.705
59018W        W18279  22.124  15.736  11.996
59019W        W18280   2.414  12.128  14.472
59020W        W18281  39.521  42.024  11.529
59021W        W18282  44.431  36.899  12.352
59022W        W18283  22.637  35.915  10.087
59023W        W18284   1.753  10.326   5.287
59024W        W18285  21.529  17.215  14.398
59025W        W18286   6.765   9.323  13.545
59026W        W18287  35.549   3.776   0.803
59027W        W18288  33.876  44.799  11.395
59028W        W18289   5.726  42.354   0.879
59029W        W18290   2.340  28.150   2.761
59030W        W18291  43.855  32.139   0.802
59031W        W18292   3.419  27.195   5.139
59032W        W18293  38.983   9.684   3.234
59033W        W18294  26.012   9.223  12.414
59034W        W18295  10.373  43.365  12.844
59035W        W18296   1.812  44.765  14.889
59036W        W18297  20.113  41.422   3.347
59037W        W18298  25.708  37.508  11.899
59038W        W18299  10.695  27.651  11.408
59039W        W18300  35.008  15.587  13.381
59040W        W18301   8.678  16.780  13.990
59041W        W18302   3.338  10.241   0.409
59042W        W18303  44.842  24.588   2.272
59043W        W18304  32.630  12.159   1.754
59044W        W18305  36.944  39.379  14.475
59045W        W18306   9.730  15.238   0.960
59046W        W18307  18.739  14.775  10.405
59047W        W18308  18.296  27.029  12.408
59048W        W18309  16.108  21.511  14.467
59049W        W18310  16.740  30.522   4.689
59050W        W18311  25.969  10.160  14.017
59051W        W18312  14.607  24.986   3.722
59052W        W18313  44.444   9.339  11.919
59053W        W18314  44.772  29.994   0.244
59054W        W18315   2.941  10.767   2.207
59055W        W18316  35.392  32.915   9.924
59056W        W18317  26.522  15.301  13.001
59057W        W18318   0.820  15.602   0.479
59058W        W18319  23.683  21.059  11.434
59059W        W18320  41.021   1.399   0.776
59060W        W18321  10.807   1.819  14.314
59061W        W18322   9.889  33.432   1.407
59062W        W18323  11.365   8.214  12.553
59063W        W18324  16.303  40.982   0.808
59064W        W18325  36.929  20.647  12.924
59065W        W18326  17.137  44.439  14.508
59066W        W18327  12.676  44.472  14.315
59067W        W18328  24.087  20.675  13.492
59068W        W18329  20.708  21.755  11.570
59069W        W18330   7.353  27.453  10.544
59070W        W18331  32.526  40.952  14.372
59071W        W18332  43.926  41.376  11.593
59072W        W18333  16.584  15.697   3.238
59073W        W18334   5.341   7.388   3.668
59074W        W18335  12.141  38.992  12.411
59075W        W18336  35.444   3.954   1.810
59076W        W18337  25.656  11.344   2.779
59077W        W18338  37.873  37.830   4.704
59078W        W18339  43.319  30.416   3.859
59079W        W18340  16.630  21.590  12.908
59080W        W18341  29.583  23.650   2.849
59081W        W18342   3.795  24.133  10.440
59082W        W18343  12.150  11.353  11.430
59083W        W18344  20.121  36.963  10.436
59084W        W18345  11.708  39.988  14.361
59085W        W18346  42.345  34.493  13.903
59086W        W18347   7.381  14.283  14.990
59087W        W18348  39.487  12.654   2.413
59088W        W18349  30.992   8.183  13.337
59089W        W18350  39.548   3.324   2.797
59090W        W18351  36.012  40.512   0.261
59091W        W18352  27.009  37.923  14.982
59092W        W18353  11.231  40.531   4.648
59093W        W18354  39.906  28.943  12.417
59094W        W18355   7.867   5.386  14.850
59095W        W18356  24.975  40.822   2.877
59096W        W18357   9.345  28.681   0.354
59097W        W18358  14.251  28.456  11.428
59098W        W18359  29.531  39.857   0.967
59099W        W18360  36.861   7.834  12.037
59100W        W18361  33.543  17.769  12.032
59101W        W18362   9.694  36.936   3.154
59102W        W18363  31.925   4.709   0.839
59103W        W18364  11.137  38.374  11.529
59104W        W18365  17.109  33.412   1.736
59105W        W18366  42.320  24.700   4.755
59106W        W18367   7.371  31.453  14.360
59107W        W18368  23.985   9.241   1.390
59108W        W18369  17.073  37.945  11.607
59109W        W18370  11.215  44.864  10.506
59110W        W18371  28.956   7.312   0.464
59111W        W18372  38.060  27.653  10.509
59112W        W18373  33.058  12.200   0.758
59113W        W18374  43.389  43.981  10.640
59114W        W18375  29.504   7.373   4.726
59115W        W18376  44.418  30.450   4.635
59116W        W18377  36.440  34.612  13.032
59117W        W18378  40.052  27.960   3.865
59118W        W18379  11.738  15.651  10.960
59119W        W18380  21.614  31.964  10.552
59120W        W18381  34.414  16.175   4.720
59121W        W18382  14.814   7.877   1.367
59122W        W18383  33.909   0.962  11.411
59123W        W18384  21.606  15.712   3.827
59124W        W18385  31.993  26.598  13.901
59125W        W18386   8.744   6.850  12.453
59126W        W18387  42.997  16.117  10.524
59127W        W18388  32.015  27.547  10.994
59128W        W18389  24.034   8.667   1.363
59129W        W18390  34.453  22.640   0.452
59130W        W18391  44.453  32.069  13.817
59131W        W18392  29.996  18.781   3.646
59132W        W18393   6.720  11.856   4.805
59133W        W18394  22.130  12.203  14.954
59134W        W18395  17.192   7.838  11.966
59135W        W18396  16.771  12.314  13.915
59136W        W18397  16.734  40.036  12.086
59137W        W18398  42.937  42.429   3.263
59138W        W18399  34.018  16.160   2.244
59139W        W18400  26.139   3.934   4.142
59140W        W18401  34.021  39.933   9.551
59141W        W18402  30.574  34.992  11.589
59142W        W18403   1.749  38.055   4.225
59143W        W18404  17.563   7.345   2.714
59144W        W18405  17.658  26.186  14.916
59145W        W18406   2.893   5.280   0.302
59146W        W18407   8.390  43.938  11.120
59147W        W18408  44.761  31.104   1.292
59148W        W18409  13.333  18.616   2.894
59149W        W18410  20.153  30.113   3.300
59150W        W18411  34.887   0.465  12.065
59151W        W18412   0.896  26.527  10.424
59152W        W18413  40.465  18.249   1.827
59153W        W18414  27.034   4.342  11.940
59154W        W18415  41.446   1.383  12.480
59155W        W18416   1.924  13.205  10.985
59156W        W18417  38.834  10.346   0.461
59157W        W18418   8.820   8.201  13.968
59158W        W18419  15.168  19.208   3.354
59159W        W18420  22.656  22.090  10.015
59160W        W18421  12.156  39.884   1.385
59161W        W18422  17.608   0.932   1.409
59162W        W18423  13.174  29.503   3.303
59163W        W18424  38.022  42.465   0.337
59164W        W18425  44.442  31.014  11.014
59165W        W18426  17.181  39.404  13.312
59166W        W18427  15.586   4.360   2.729
59167W        W18428  18.565  44.443  10.432
59168W        W18429  29.502   5.914   0.881
59169W        W18430   8.861   6.764  13.057
59170W        W18431  25.581   2.295   4.196
59171W        W18432  29.013   3.227  14.845
59172W        W18433   4.427  41.929  14.823
59173W        W18434  41.466   2.756  10.946
59174W        W18435  38.009   0.372  10.921
59175W        W18436  37.842  24.686  11.037
59176W        W18437  44.368  12.321   4.181
59177W        W18438  21.165  24.030   3.240
59178W        W18439  31.902  44.439   1.264
59179W        W18440  33.603  22.241   1.293
59180W        W18441  35.888  19.055  11.507
59181W        W18442   3.917  12.129  13.849
59182W        W18443  42.479   2.430   0.450
59183W        W18444   7.844  30.135   2.369
59184W        W18445  13.259  41.299   0.254
59185W        W18446  42.370  23.648  12.936
59186W        W18447  34.049  41.895  10.638
59187W        W18448   8.757  11.742   2.709
59188W        W18449  23.121  12.222   4.248
59189W        W18450  22.232  29.947   4.253
59190W        W18451  39.038   1.363   0.808
59191W        W18452  10.208  41.967   0.334
59192W        W18453  41.830   6.401  14.803
59193W        W18454  30.644  37.456   2.188
59194W        W18455  10.308  41.858   2.718
59195W        W18456  31.605  41.385  13.385
59196W        W18457  32.590  39.025   4.350
59197W        W18458   8.264   1.346   0.903
59198W        W18459  10.818  16.165  13.891
59199W        W18460  18.163   6.679  10.550
59200W        W18461  19.699  24.080  11.452
59201W        W18462  10.214  30.970  10.967
59202W        W18463  44.258   6.848   1.850
59203W        W18464   5.868  38.342  14.976
59204W        W18465  29.520   0.873   1.778
59205W        W18466  15.250  35.852   1.781
59206W        W18467  31.899   8.397  14.295
59207W        W18468  25.172  32.455  10.637
59208W        W18469  20.248  44.864   0.411
59209W        W18470  30.430  11.262  14.351
59210W        W18471  27.038  32.392   3.792
59211W        W18472   5.325  22.697  11.424
59212W        W18473   5.786  19.077  12.564
59213W        W18474  16.725  37.057  11.038
59214W        W18475  39.983  42.863  14.307
59215W        W18476   9.841   2.900  14.333
59216W        W18477  43.920  24.647  10.921
59217W        W18478  25.056  27.490   0.352
59218W        W18479  13.701  17.131   2.721
59219W        W18480   0.824  39.527   0.304
59220W        W18481  38.496  19.772   3.166
59221W        W18482   9.771  33.974  13.381
59222W        W18483  26.973  29.944  12.570
59223W        W18484   1.850  15.084  11.860
59224W        W18485  42.010   5.305  10.622
59225W        W18486   7.842  44.844  10.984
59226W        W18487  14.834   0.835   1.863
59227W        W18488   8.332  17.591   1.889
59228W        W18489  38.863  12.209   1.258
59229W        W18490   4.909  14.830   0.306
59230W        W18491   3.418  11.758  13.965
59231W        W18492  15.219   8.171  14.347
59232W        W18493  12.333  11.631   4.135
59233W        W18494  34.938  39.339   2.833
59234W        W18495  24.067  24.174   3.308
59235W        W18496  33.489  42.907  10.524
59236W        W18497  19.772  33.883  12.374
59237W        W18498   9.304  26.591  10.410
59238W        W18499  33.467  17.161   3.201
59239W        W18500   6.816  17.622  12.425
59240W        W18501  33.034  43.500  11.045
59241W        W18502  44.280   0.834   4.164
59242W        W18503  12.156  31.040   4.731
59243W        W18504  21.741  12.158  12.548
59244W        W18505  42.408  28.448   0.423
59245W        W18506   2.426  37.438   0.262
59246W        W18507  25.019  25.131  13.344
59247W        W18508  14.250  34.427   4.355
59248W        W18509  16.186  42.839   4.171
59249W        W18510  27.162  38.863   4.131
59250W        W18511  15.107   9.733  11.513
59251W        W18512  36.917  13.600   0.885
59252W        W18513   4.833   7.739  14.840
59253W        W18514   0.952  37.542  12.480
59254W        W18515  41.535  26.049   3.756
59255W        W18516   2.741  21.243  14.468
59256W        W18517  27.083  40.896   2.208
59257W        W18518  30.529  12.334   2.808
59258W        W18519  22.648   6.885  13.008
59259W        W18520  27.150  31.612   3.748
59260W        W18521   8.293  18.732  13.977
59261W        W18522   0.350  24.098   1.397
59262W        W18523   5.312  23.709  14.779
59263W        W18524  29.112  30.123  14.786
59264W        W18525   4.874  44.340  13.831
59265W        W18526  28.965   2.273  11.111
59266W        W18527  17.221  13.684   4.314
59267W        W18528  40.391  37.023   0.931
59268W        W18529  43.339   2.365  11.914
59269W        W18530  10.637   5.822   3.161
59270W        W18531  22.099  26.973   3.212
59271W        W18532  39.036  38.425   1.908
59272W        W18533   4.342   6.899  14.381
59273W        W18534   7.296  14.776   1.930
59274W        W18535  22.722   6.236  11.429
59275W        W18536  13.168  35.502   1.908
59276W        W18537  41.995  25.493  10.976
59277W        W18538  37.476  22.622   3.864
59278W        W18539  21.683  25.528  11.944
59279W        W18540   9.823  20.610   3.656
59280W        W18541  27.940  17.252   2.183
59281W        W18542   5.748   2.405  11.911
59282W        W18543  40.490  23.998   3.851
59283W        W18544  40.409  40.336   4.161
59284W        W18545  17.693   2.812  13.889
59285W        W18546  30.935  32.917  14.462
59286W        W18547   4.912  36.513  13.057
59287W        W18548  19.180  21.041   0.401
59288W        W18549   1.824   4.277  10.471
59289W        W18550  37.461  19.717   1.811
59290W        W18551   1.972   1.476   4.779
59291W        W18552   6.321  10.223  12.408
59292W        W18553  31.625  18.188   2.373
59293W        W18554  24.155   0.423   0.933
59294W        W18555  30.629  35.370  11.464
59295W        W18556  19.059  41.372  14.873
59296W        W18557  17.265  36.008  11.441
59297W        W18558  16.788  42.282   3.813
59298W        W18559  32.446  18.189   1.727
59299W        W18560  15.640   4.899  14.418
59300W        W18561   8.742  21.126  13.903
59301W        W18562  10.687   0.272   2.201
59302W        W18563  39.344   3.417   1.443
59303W        W18564  38.990  17.745   2.894
59304W        W18565  31.453  44.350   1.347
59305W        W18566  43.279  36.920   3.659
59306W        W18567  23.082  35.900  12.577
59307W        W18568  37.520  41.007  11.080
59308W        W18569  28.972  12.681  13.467
59309W        W18570  11.837  41.919  13.529
59310W        W18571   3.896  21.021   3.824
59311W        W18572  13.795  20.606  12.848
59312W        W18573  41.470  37.435   0.431
59313W        W18574   6.286  32.593  11.512
59314W        W18575  38.934  21.081  14.875
59315W        W18576  24.056  29.502  13.915
59316W        W18577  12.133   2.444   4.264
59317W        W18578  19.117   7.284  11.044
59318W        W18579  22.238  28.163  12.054
59319W        W18580  27.074  17.166  14.340
59320W        W18581  24.589  36.503  11.440
59321W        W18582   0.759   0.289   1.799
59322W        W18583   6.335  33.623   1.889
59323W        W18584  13.133   5.734   1.410
59324W        W18585  24.128  12.177   0.933
59325W        W18586  25.615   8.335  13.031
59326W        W18587  18.782  25.114  13.025
59327W        W18588  29.526  28.058   1.739
59328W        W18589  21.718  44.890  13.997
59329W        W18590   9.343  21.109   0.919
59330W        W18591  33.955  41.520   0.264
59331W        W18592  20.754  30.081  13.933
59332W        W18593  38.569  19.726  12.435
59333W        W18594  33.569  28.467   0.269
59334W        W18595  28.674   7.666   1.248
59335W        W18596   2.959  27.976  10.562
59336W        W18597  21.585  26.952   2.837
59337W        W18598  28.156  29.448  12.971
59338W        W18599  19.256  24.646   2.688
59339W        W18600  21.678  12.750   2.866
59340W        W18601  12.644   9.226   1.448
59341W        W18602  17.218  31.028  14.313
59342W        W18603  36.390  33.118  14.759
59343W        W18604  31.454  37.875  10.987
59344W        W18605  28.055  40.026  12.501
59345W        W18606  34.962  44.851  12.481
59346W        W18607  33.895  18.698   2.322
59347W        W18608  43.895  17.255  11.600
59348W        W18609  12.658  30.553  11.975
59349W        W18610  15.743  22.162  12.492
59350W        W18611  17.619  43.987  13.978
59351W        W18612  16.710  44.924  12.996
59352W        W18613  34.392  29.598  13.973
59353W        W18614  21.738   4.204   4.204
59354W        W18615  28.609  11.230   0.759
59355W        W18616   2.946   5.824  10.971
59356W        W18617  10.773  21.602  13.505
59357W        W18618  21.170   7.335   1.903
59358W        W18619  36.454  42.488   3.850
59359W        W18620  33.051   3.712   4.690
59360W        W18621  21.137   7.370  11.579
59361W        W18622   7.826  40.375   3.787
59362W        W18623  27.643   1.884   2.842
59363W        W18624  23.059  16.652   1.928
59364W        W18625   5.285  10.648   0.478
59365W        W18626  21.753   5.410   4.713
59366W        W18627  12.659  18.098  12.958
59367W        W18628  17.563  30.995   0.851
59368W        W18629  26.703   2.386  13.505
59369W        W18630  38.482  34.983   2.414
59370W        W18631  18.617  15.687  14.990
59371W        W18632  30.608   8.403   1.399
59372W        W18633  42.849   9.718  14.937
59373W        W18634  44.356  41.802  11.558
59374W        W18635   2.412  24.224  14.876
59375W        W18636  43.822  10.192   1.381
59376W        W18637  10.145  25.591   0.362
59377W        W18638  10.320   2.780  13.457
59378W        W18639  42.787   4.209   0.762
59379W        W18640  18.613  10.202  11.093
59380W        W18641  21.567  42.461   3.224
59381W        W18642   9.844  21.542  14.855
59382W        W18643  13.717  37.830  11.931
59383W        W18644   3.387  21.536  14.444
59384W        W18645  36.568  41.940   1.814
59385W        W18646   3.709   0.477   1.243
59386W        W18647  13.115  16.100  13.848
59387W        W18648   4.256  42.826  13.042
59388W        W18649  24.088  31.546  10.527
59389W        W18650   0.465  19.624   1.765
59390W        W18651   8.361  44.767   2.403
59391W        W18652  33.959  31.566  10.914
59392W        W18653   5.325  40.932  14.784
59393W        W18654   3.756  24.179   0.400
59394W        W18655  43.465   0.426  11.927
59395W        W18656  21.530  13.796  14.347
59396W        W18657  30.619  25.190   2.820
59397W        W18658  22.234  34.609   0.368
59398W        W18659  37.981  12.124   1.239
59399W        W18660  31.587  24.172  14.917
59400W        W18661  39.063  40.816   3.193
59401W        W18662  31.064   2.437  14.352
59402W        W18663  44.273  14.098  10.065
59403W        W18664  23.042   6.364  11.528
59404W        W18665  36.580   0.301  10.411
59405W        W18666  40.346   9.800  13.416
59406W        W18667  11.261   3.430  13.812
59407W        W18668  33.034  32.500  10.097
59408W        W18669  37.389  20.218  10.898
59409W        W18670   3.416  35.019   0.861
59410W        W18671  18.761  39.343  11.115
59411W        W18672  20.583  10.230  11.446
59412W        W18673  18.093  42.334   0.738
59413W        W18674  26.197  42.930  13.974
59414W        W18675   1.765  30.984   4.308
59415W        W18676  43.015  18.156  10.632
59416W        W18677  19.581  28.651  11.484
59417W        W18678  25.572  32.565   4.244
59418W        W18679   1.751   1.748  12.968
59419W        W18680   7.354   8.206  13.460
59420W        W18681  16.792  40.872  14.941
59421W        W18682  20.233  19.060   0.298
59422W        W18683   6.695  35.391  13.350
59423W        W18684  21.062   9.666   0.918
59424W        W18685  31.558   8.774   0.794
59425W        W18686  33.889  34.068   3.843
59426W        W18687  37.834  27.126  13.058
59427W        W18688  31.971  26.537   1.708
59428W        W18689  40.858  30.934  10.957
59429W        W18690  32.455   9.786   4.148
59430W        W18691  23.234  29.643  14.488
59431W        W18692  15.192  28.044   1.302
59432W        W18693   4.885  21.249   9.936
59433W        W18694  11.127  20.258  13.506
59434W        W18695   3.443  20.222  13.064
59435W        W18696  25.625  11.727  11.995
59436W        W18697  29.970   9.316   4.784
59437W        W18698  17.654  23.121  11.119
59438W        W18699  38.442   7.273   0.427
59439W        W18700   0.972  15.621   3.859
59440W        W18701  41.442  18.272   2.339
59441W        W18702  23.622  27.602   5.764
59442W        W18703   3.766   7.742  12.957
59443W        W18704  34.056  35.082   0.258
59444W        W18705  16.092  30.946   4.153
59445W        W18706  37.835   7.766  12.550
59446W        W18707  17.243  40.959   3.629
59447W        W18708  10.197   4.296   4.653
59448W        W18709  36.053  13.192   0.264
59449W        W18710  27.118  17.254  12.574
59450W        W18711  19.677   0.934  13.357
59451W        W18712   6.283  13.251  13.886
59452W        W18713  19.742  10.140  14.868
59453W        W18714  16.133  24.179  14.441
59454W        W18715   1.866   8.190   3.671
59455W        W18716  22.641  35.478   2.785
59456W        W18717  10.146  24.978   4.723
59457W        W18718  41.354  15.106  12.857
59458W        W18719   9.172  18.099   1.898
59459W        W18720  31.525   8.241  11.436
59460W        W18721   2.254  37.376   5.152
59461W        W18722  37.077  38.331   0.844
59462W        W18723  12.658  28.672   2.246
59463W        W18724  41.927  17.071  10.106
59464W        W18725  39.871  19.147  13.010
59465W        W18726  16.651  44.393   1.274
59466W        W18727  37.851  43.793  13.988
59467W        W18728  38.330  41.993  11.047
59468W        W18729  30.557  33.917  14.807
59469W        W18730  25.036  37.367   4.757
59470W        W18731  35.490  13.192   0.919
59471W        W18732   5.271  33.441   1.386
59472W        W18733   3.265  24.622  14.984
59473W        W18734  39.381   4.254   3.796
59474W        W18735   3.407  18.184   4.156
59475W        W18736  13.253   1.847   3.808
59476W        W18737  18.159  17.222  13.444
59477W        W18738  12.309   9.379  11.610
59478W        W18739  30.623  39.820  13.031
59479W        W18740  14.804  21.151  11.870
59480W        W18741  28.114  34.499   1.372
59481W        W18742  44.326  19.209   1.893
59482W        W18743  11.854   4.408  13.546
59483W        W18744  39.924  38.980  13.449
59484W        W18745   0.875   5.748   4.722
59485W        W18746  20.759   9.200   1.400
59486W        W18747   0.768  15.770  14.965
59487W        W18748  36.406  33.906   1.257
59488W        W18749   6.772  32.605   2.780
59489W        W18750   1.301  29.623  13.028
59490W        W18751  37.083  24.655   1.269
59491W        W18752   5.365  37.547   2.873
59492W        W18753   9.241  25.116   1.884
59493W        W18754  21.024  22.559  14.938
59494W        W18755  43.459  32.984   2.292
59495W        W18756  26.573   9.185   4.806
59496W        W18757  27.629   8.283   2.706
59497W        W18758  34.378  38.349   2.291
59498W        W18759  23.083  17.692  14.920
59499W        W18760  27.459  40.975  13.855
59500W        W18761  40.318  15.779  14.364
59501W        W18762   7.323   1.964   0.819
59502W        W18763  29.049   7.196  13.974
59503W        W18764  18.239  39.893  11.557
59504W        W18765  38.539  13.635   4.757
59505W        W18766   1.960  42.864   0.796
59506W        W18767  41.342  37.541  11.881
59507W        W18768  15.715  13.617   1.869
59508W        W18769  24.005  39.363   3.365
59509W        W18770  44.995  35.967  13.416
59510W        W18771  10.305  10.767   2.281
59511W        W18772  25.498  18.097   2.256
59512W        W18773  33.993   5.327  11.020
59513W        W18774  36.897  21.027   3.278
59514W        W18775  10.309  33.554  12.513
59515W        W18776  43.770  21.027  11.064
59516W        W18777  10.258   1.936  11.991
59517W        W18778  23.123   8.696   5.308
59518W        W18779   8.663  40.488  13.354
59519W        W18780  31.628  14.692  13.407
59520W        W18781   7.704   5.232  14.017
59521W        W18782  29.640  12.651   0.279
59522W        W18783  21.223  33.964   4.757
59523W        W18784  15.611  27.080  10.001
59524W        W18785  20.633  20.274   1.269
59525W        W18786  20.729  18.579   2.845
59526W        W18787  27.190  33.455  13.338
59527W        W18788  37.561  28.081   4.719
59528W        W18789  25.638   0.781  13.914
59529W        W18790  16.791  24.546   4.653
59530W        W18791  41.378  39.436  10.535
59531W        W18792  14.610  36.370  11.909
59532W        W18793   7.352  16.206   4.180
59533W        W18794  34.985  27.015   0.729
59534W        W18795  31.140  42.461   1.375
59535W        W18796  21.658  27.941   1.892
59536W        W18797   0.480   5.288   1.745
59537W        W18798  23.041  36.904   2.742
59538W        W18799  43.350   9.874   4.171
59539W        W18800  26.962   5.837  12.930
59540W        W18801  25.605  18.083   0.749
59541W        W18802   2.445   4.209  13.803
59542W        W18803  41.956  35.591   1.804
59543W        W18804  39.410  32.430   5.151
59544W        W18805  36.438  13.764   4.680
59545W        W18806  36.496   8.217   2.406
59546W        W18807  14.713  14.166  11.027
59547W        W18808  31.924   2.956  12.461
59548W        W18809  38.493   4.368   1.224
59549W        W18810  41.943  40.317  13.364
59550W        W18811  37.396  12.825  10.590
59551W        W18812  28.932  41.943   2.318
59552W        W18813   2.260  21.668  10.468
59553W        W18814  12.161  18.248  13.813
59554W        W18815  38.362  44.289  13.355
59555W        W18816   7.775  24.694   4.182
59556W        W18817  36.083  10.365  14.319
59557W        W18818  42.945  33.467  11.484
59558W        W18819  29.006  39.500   3.165
59559W        W18820   1.829  28.137  11.489
59560W        W18821   1.951   8.329   1.331
59561W        W18822  40.359  30.463   4.607
59562W        W18823   3.365   6.212   2.342
59563W        W18824  27.691  13.686   3.185
59564W        W18825  36.356   2.327  12.419
59565W        W18826  18.556  22.641  11.958
59566W        W18827  43.435  29.642   3.187
59567W        W18828   2.394   0.940   1.765
59568W        W18829  42.371  41.030   4.299
59569W        W18830   7.371  23.122  11.594
59570W        W18831  30.634  33.492  11.436
59571W        W18832   7.197  24.699   0.883
59572W        W18833   8.800   3.716  11.877
59573W        W18834  35.029  42.443   1.864
59574W        W18835  30.651  41.807  14.289
59575W        W18836  25.674  38.075  11.505
59576W        W18837  28.953  32.105   2.298
59577W        W18838  13.658  39.934  11.998
59578W        W18839  34.072  43.787  12.929
59579W        W18840  42.016   5.276  13.492
59580W        W18841  30.548  16.255  14.974
59581W        W18842  19.193  18.705  11.605
59582W        W18843  23.611   5.251  14.016
59583W        W18844  27.561   7.673  11.107
59584W        W18845   9.330  13.226   5.159
59585W        W18846   3.258  21.695   3.347
59586W        W18847  34.902  30.544   4.305
59587W        W18848  24.503  31.053   3.639
59588W        W18849  44.892  33.578   0.755
59589W        W18850  19.261  15.273  14.853
59590W        W18851   9.784  35.074  13.049
59591W        W18852  16.118  39.988   0.463
59592W        W18853  27.951  28.670   3.827
59593W        W18854   1.261  44.262  11.379
59594W        W18855  27.582  15.659  10.552
59595W        W18856  22.600  26.103   1.934
59596W        W18857  36.378   2.853   1.838
59597W        W18858  40.410  10.651  13.424
59598W        W18859   8.877  30.598  10.945
59599W        W18860  27.002  20.587   1.362
59600W        W18861  36.924  16.213  12.958
59601W        W18862  23.172   1.415  13.861
59602W        W18863  25.585  25.470   9.470
59603W        W18864  40.860   6.246   0.343
59604W        W18865  26.507   0.826  12.867
59605W        W18866  43.348  12.197  14.378
59606W        W18867  27.966  20.603   3.859
59607W        W18868  30.008  42.318   3.745
59608W        W18869  44.891   0.252   3.835
59609W        W18870  38.349  36.874  12.356
59610W        W18871   6.829  39.416  13.031
59611W        W18872  28.173  28.453  13.013
59612W        W18873  23.556  14.129   2.746
59613W        W18874  15.281  25.053   0.456
59614W        W18875  25.664  35.060  11.524
59615W        W18876  38.875  44.988   2.895
59616W        W18877  40.339  20.267   4.185
59617W        W18878  39.493  12.719   5.246
59618W        W18879  20.067  12.161   4.299
59619W        W18880  30.017  19.221   4.131
59620W        W18881  29.561  28.676   0.836
59621W        W18882   7.729  20.597  12.004
59622W        W18883  21.075  29.614   2.390
59623W        W18884   4.891  32.008  14.321
59624W        W18885  32.096   7.780  14.397
59625W        W18886   8.255   6.911   2.788
59626W        W18887  15.211  30.067  11.490
59627W        W18888   8.204  39.040   1.892
59628W        W18889   0.413  21.194   0.962
59629W        W18890  24.515  43.865  13.400
59630W        W18891  19.091  23.713  11.106
59631W        W18892  34.027   6.397  14.920
59632W        W18893  26.007   4.384  11.958
59633W        W18894  18.577  14.296  11.070
59634W        W18895   9.668  42.410   3.764
59635W        W18896  36.872  23.191  13.977
59636W        W18897   3.444  40.321  14.929
59637W        W18898  13.308   2.807  11.524
59638W        W18899  28.485   2.429   2.266
59639W        W18900  32.468  42.931  11.559
59640W        W18901  40.840  25.096   2.393
59641W        W18902  16.697  28.531  14.452
59642W        W18903  11.209  17.189   0.776
59643W        W18904  29.551  17.131   1.346
59644W        W18905  29.104  30.634  13.833
59645W        W18906  30.946  27.619   4.162
59646W        W18907  19.099  29.549   1.869
59647W        W18908  41.405   5.758   0.388
59648W        W18909  38.032  40.444   3.288
59649W        W18910  43.984  23.990   3.735
59650W        W18911  26.139  37.831   2.880
59651W        W18912   8.276  20.666  11.088
59652W        W18913   5.699  32.045   2.777
59653W        W18914   8.693  25.116  13.442
59654W        W18915  38.433  42.841   1.399
59655W        W18916  38.942  25.156  10.618
59656W        W18917   6.904   7.180  10.557
59657W        W18918   2.247  18.760  12.089
59658W        W18919  39.960  40.468   2.868
59659W        W18920  36.918  28.157   2.749
59660W        W18921  32.048  42.339  13.314
59661W        W18922  20.084  44.805   0.782
59662W        W18923  26.188  12.736  12.999
59663W        W18924   7.289  26.630  12.008
59664W        W18925  42.292  12.136   4.279
59665W        W18926  16.084  31.954  13.041
59666W        W18927  36.578  28.146   2.332
59667W        W18928  20.202  17.111   4.632
59668W        W18929  10.756  43.984   1.922
59669W        W18930  21.570  24.559  12.004
59670W        W18931  21.055   7.279   4.667
59671W        W18932  20.710  44.794   4.692
59672W        W18933  25.968  27.472   0.903
59673W        W18934   4.328  22.094  11.557
59674W        W18935  13.812   7.783  14.813
59675W        W18936  32.923  30.539   0.458
59676W        W18937  24.991  20.592  11.576
59677W        W18938   2.252  16.158  14.018
59678W        W18939   0.803  31.445   3.380
59679W        W18940  23.630  13.343  13.382
59680W        W18941  23.593  14.641  10.592
59681W        W18942  25.996  18.574   2.238
59682W        W18943  44.320   0.753  10.897
59683W        W18944  26.459  22.512  12.424
59684W        W18945  20.046  35.934   4.326
59685W        W18946  34.871  36.990  12.478
59686W        W18947   9.677   1.966  10.132
59687W        W18948  20.084  35.941   1.367
59688W        W18949   9.237  24.658   3.780
59689W        W18950   3.424   2.333   0.753
59690W        W18951  30.017  14.104   0.750
59691W        W18952  18.114  18.605   1.267
59692W        W18953  44.901  33.025   4.733
59693W        W18954   2.408  29.143   9.985
59694W        W18955  32.597  13.296   5.313
59695W        W18956  12.694  26.107  11.375
59696W        W18957  16.642  24.998   4.225
59697W        W18958  30.429   0.819  12.506
59698W        W18959  12.239  11.204   2.362
59699W        W18960  15.329  20.737   2.406
59700W        W18961  39.943  14.785   4.284
59701W        W18962   4.825  39.321   1.371
59702W        W18963  30.100  31.046  11.946
59703W        W18964  28.503   8.785   3.164
59704W        W18965  19.238  11.163   0.472
59705W        W18966  18.060   3.295  10.938
59706W        W18967  44.365  24.107  14.865
59707W        W18968  38.829  44.463  11.039
59708W        W18969  35.021   3.436   2.712
59709W        W18970  30.111  19.216   0.467
59710W        W18971  33.549  44.826   1.366
59711W        W18972  41.976  37.468   9.920
59712W        W18973   2.774  29.938  14.513
59713W        W18974  29.932  17.072   4.622
59714W        W18975   4.809  36.975  11.934
59715W        W18976  16.804  40.502  14.352
59716W        W18977  39.500  26.694  14.871
59717W        W18978  20.624  26.123   2.874
59718W        W18979  17.265  15.179  12.850
59719W        W18980  25.697  31.904  13.485
59720W        W18981  33.479  40.461   1.359
59721W        W18982  19.596  15.318  14.774
59722W        W18983  39.868  38.481   4.317
59723W        W18984  11.740  40.534   2.327
59724W        W18985  23.090  20.061  14.872
59725W        W18986  41.335   7.208  10.556
59726W        W18987  24.539  30.640   1.862
59727W        W18988  10.696  31.522   2.718
59728W        W18989  28.159  17.667   0.807
59729W        W18990  14.132  26.187   0.456
59730W        W18991  13.646  26.163  11.422
59731W        W18992  44.789  36.549   2.871
59732W        W18993  12.116  44.390  11.425
59733W        W18994  14.635   4.698  13.975
59734W        W18995  34.495  31.896   0.795
59735W        W18996  28.540  28.019  10.551
59736W        W18997  43.416  31.557   0.366
59737W        W18998  44.975  29.601  11.375
59738W        W18999  30.464   2.466  13.409
59739W        W19000  23.651  36.546   3.814
59740W        W19001  27.583  43.973   3.279
59741W        W19002  43.356  33.105   4.616
59742W        W19003  24.612  15.799  13.434
59743W        W19004  36.570  38.856   2.809
59744W        W19005  39.964   2.804   4.646
59745W        W19006  19.750  21.068  13.989
59746W        W19007  34.865  11.724   5.251
59747W        W19008   0.931  34.386  11.106
59748W        W19009   6.895  24.625   4.227
59749W        W19010  26.056  41.302  10.592
59750W        W19011  11.292  42.859  13.313
59751W        W19012   3.797  21.160   2.724
59752W        W19013  17.778  15.295   3.305
59753W        W19014  32.949   1.345   3.797
59754W        W19015  31.931   0.870  13.483
59755W        W19016  32.133  12.815   2.895
59756W        W19017  34.058  24.573   0.341
59757W        W19018  21.732  41.419  10.922
59758W        W19019   4.802  32.016  12.906
59759W        W19020  20.730   3.862   2.740
59760W        W19021  20.245  35.536   2.344
59761W        W19022   3.807   6.411   2.330
59762W        W19023  39.959   4.864   0.803
59763W        W19024  21.754  35.563  10.564
59764W        W19025  30.576  44.408  12.400
59765W        W19026  13.275   4.327   1.857
59766W        W19027  25.089   5.200   3.675
59767W        W19028  15.313   5.395   0.834
59768W        W19029  22.163  43.306   0.916
59769W        W19030  23.533  21.676   3.334
59770W        W19031  10.854   9.647  11.858
59771W        W19032  25.699  28.034   3.784
59772W        W19033  37.503  42.010   4.823
59773W        W19034  38.828  19.705  13.026
59774W        W19035   9.742  30.443   4.130
59775W        W19036  32.624  13.214   5.569
59776W        W19037   2.247   5.733  12.410
59777W        W19038   9.240  24.990   4.818
59778W        W19039  30.990  26.515   0.811
59779W        W19040   8.391   6.363  14.440
59780W        W19041   8.284  23.689   2.856
59781W        W19042  12.662  13.712  12.457
59782W        W19043   9.379  22.206   2.289
59783W        W19044  31.474  41.911   2.185
59784W        W19045  39.519   7.273   3.151
59785W        W19046  11.244  24.678   3.792
59786W        W19047  10.138  42.502   2.222
59787W        W19048  33.603  23.523   4.124
59788W        W19049  34.575  37.351  12.963
59789W        W19050  25.070  41.946   4.805
59790W        W19051  11.173   7.828  10.905
59791W        W19052  42.944  42.321  12.527
59792W        W19053  29.005  38.538   3.661
59793W        W19054  20.067  41.530   3.849
59794W        W19055   5.434  25.113  12.434
59795W        W19056  12.740  35.482  12.089
59796W        W19057  26.688   8.189   3.801
59797W        W19058  32.553  29.142   4.339
59798W        W19059  16.813  38.916  14.770
59799W        W19060   5.788  16.203   2.396
59800W        W19061  27.501   5.207  13.384
59801W        W19062  28.020  19.180   3.840
59802W        W19063  41.803  14.330  10.963
59803W        W19064   0.249  11.247   3.718
59804W        W19065  37.418   2.960   4.157
59805W        W19066  21.209   1.455  12.964
59806W        W19067   2.921  19.536  12.840
59807W        W19068  21.693  18.208   4.830
59808W        W19069  30.949  35.098   1.438
59809W        W19070  21.152  24.599  14.448
59810W        W19071   7.321  32.636   4.807
59811W        W19072  42.851  27.106   2.368
59812W        W19073  23.656  27.572  12.006
59813W        W19074  26.010  34.906  14.852
59814W        W19075  19.679  37.442  11.082
59815W        W19076   2.876  16.124   4.788
59816W        W19077  18.592  37.400   2.815
59817W        W19078  41.888   8.743  13.439
59818W        W19079  23.139  11.683   1.424
59819W        W19080   6.366   1.856  10.031
59820W        W19081  16.132  11.151  12.042
59821W        W19082   0.950  10.831  13.377
59822W        W19083  12.210  35.521  13.360
59823W        W19084  10.144   1.948   0.918
59824W        W19085  40.472  27.537   3.321
59825W        W19086  29.103  24.560  12.904
59826W        W19087  33.567  42.357  12.477
59827W        W19088   5.696  23.696  11.902
59828W        W19089  22.677  20.639   1.249
59829W        W19090   5.794  28.119   0.410
59830W        W19091  15.755  33.877  10.471
59831W        W19092  30.588  38.431   0.347
59832W        W19093  13.137  35.374   1.252
59833W        W19094   9.662  36.064  13.047
59834W        W19095  43.958  34.933   0.885
59835W        W19096   8.353  16.573  13.897
59836W        W19097  17.096  40.431   4.603
59837W        W19098   0.395   0.789  14.842
59838W        W19099   9.783   8.349   1.312
59839W        W19100  11.327  26.201  11.947
59840W        W19101  37.858  16.115   4.122
59841W        W19102  33.131  20.232   3.649
59842W        W19103  29.998   8.706  12.850
59843W        W19104  34.097  22.044   4.663
59844W        W19105   1.322  22.048  10.600
59845W        W19106  23.218  40.880  12.067
59846W        W19107  41.454  42.810  12.887
59847W        W19108  44.482   5.798  13.995
59848W        W19109  41.998   5.239  10.933
59849W        W19110   2.345  38.542   2.234
59850W        W19111   8.227  24.187   3.372
59851W        W19112  31.051  25.174  13.354
59852W        W19113  12.129   3.911   3.867
59853W        W19114  35.002  27.674   2.771
59854W        W19115   2.400   5.260  11.437
59855W        W19116  41.908  24.096  10.085
59856W        W19117  42.975  40.043   2.742
59857W        W19118   0.761  16.295  14.896
59858W        W19119   6.394  11.855   1.761
59859W        W19120  13.223   9.695   2.842
59860W        W19121  33.432   2.913   4.316
59861W        W19122  19.633   2.264  14.498
59862W        W19123  17.587  40.445   3.248
59863W        W19124  24.619  32.038  11.099
59864W        W19125  28.101  42.995  10.106
59865W        W19126  26.456   7.729   4.597
59866W        W19127  38.905  21.262  11.526
59867W        W19128  13.161  25.571   3.832
59868W        W19129   7.829  20.669   3.210
59869W        W19130   2.345   7.759  11.910
59870W        W19131  33.974  35.967  10.916
59871W        W19132  20.710  26.180  12.836
59872W        W19133  19.547  14.257   3.243
59873W        W19134  38.041  37.013  13.388
59874W        W19135  20.137   0.269   0.324
59875W        W19136  41.997   5.412  14.375
59876W        W19137  39.533  24.712   1.860
59877W        W19138  24.580  40.364   4.169
59878W        W19139  23.699   8.679   2.386
59879W        W19140   6.375  17.244   5.082
59880W        W19141  16.811  19.179   5.177
59881W        W19142  24.721  18.703   1.765
59882W        W19143  34.474  19.671   3.354
59883W        W19144   0.275  11.653  14.507
59884W        W19145  41.379  14.603  14.797
59885W        W19146  43.375   1.836   2.756
59886W        W19147  40.432   1.816  14.340
59887W        W19148  27.486  33.014  11.914
59888W        W19149  11.204  19.166   2.756
59889W        W19150  12.619  24.018  11.558
59890W        W19151  39.987  11.828  10.921
59891W        W19152  41.982   5.436   4.250
59892W        W19153  14.833   7.715   2.805
59893W        W19154  39.009  10.831  12.068
59894W        W19155  14.129  17.613  13.380
59895W        W19156  30.038  34.513  14.484
59896W        W19157  31.940   4.730  10.474
59897W        W19158  12.354  26.552  11.989
59898W        W19159  44.889   7.358   0.769
59899W        W19160  38.875   3.413  14.392
59900W        W19161   5.415  19.566   1.359
59901W        W19162  42.320  44.946   1.306
59902W        W19163  18.743  10.165  14.322
59903W        W19164   5.774  33.033  12.373
59904W        W19165  36.843  26.604  13.419
59905W        W19166  31.561  32.493   2.757
59906W        W19167   9.355   0.444  12.369
59907W        W19168  18.561  37.913   0.307
59908W        W19169  16.214  29.103  12.428
59909W        W19170  13.640   0.432  11.894
59910W        W19171  32.626  39.907   2.856
59911W        W19172   3.219  11.785   0.775
59912W        W19173  20.064  23.099   0.780
59913W        W19174   6.208  27.088  11.966
59914W        W19175   7.791  37.986   0.763
59915W        W19176  26.465  26.543  11.379
59916W        W19177   7.816  10.209   4.149
59917W        W19178   4.424  10.681  13.459
59918W        W19179  29.976  41.814   0.758
59919W        W19180  15.817  32.467  14.001
59920W        W19181  33.624   8.841  11.936
59921W        W19182  20.140   1.441  12.027
59922W        W19183  29.125   3.425  12.545
59923W        W19184  24.206  23.177   9.996
59924W        W19185  13.266  11.328  11.005
59925W        W19186  26.984  21.066   1.846
59926W        W19187  26.494  35.399  13.448
59927W        W19188   6.780  18.077   4.257
59928W        W19189  44.989   4.446   4.733
59929W        W19190   2.842  39.043  12.548
59930W        W19191  30.973  23.547   2.687
59931W        W19192  34.895   5.870   0.327
59932W        W19193  37.351  19.055   0.894
59933W        W19194  17.193  24.580   1.708
59934W        W19195  15.697  29.154  11.880
59935W        W19196  26.577  28.521  14.293
59936W        W19197  24.637   3.258  14.470
59937W        W19198  23.580  37.540  11.976
59938W        W19199  15.649   8.807  11.568
59939W        W19200  36.029  28.551   3.841
59940W        W19201  18.167   3.717   4.258
59941W        W19202   9.356  40.918  12.493
59942W        W19203   5.350  33.930   0.914
59943W        W19204  10.665   8.737   3.852
59944W        W19205   8.402  34.095  11.886
59945W        W19206  30.132  31.514   0.333
59946W        W19207  23.204  24.551   2.200
59947W        W19208  31.118   4.221   3.842
59948W        W19209  29.655  10.775   2.708
59949W        W19210  10.865  25.094   2.789
59950W        W19211   6.310  21.177   3.832
59951W        W19212   7.393  11.173  13.794
59952W        W19213  33.048  30.593  12.060
59953W        W19214  10.761  10.651  14.405
59954W        W19215  27.589   3.252  11.066
59955W        W19216  10.837  39.989   3.755
59956W        W19217  25.593  21.235  14.978
59957W        W19218  35.590  16.698  11.462
59958W        W19219  38.955  32.010   1.381
59959W        W19220  17.200  18.763  14.953
59960W        W19221   0.981  26.093  14.836
59961W        W19222   6.857  29.438  14.015
59962W        W19223   9.850  33.100  14.365
59963W        W19224  17.286  34.925   1.245
59964W        W19225  36.512  41.423  12.543
59965W        W19226   8.700  40.884   1.345
59966W        W19227  15.157  33.556   0.375
59967W        W19228  38.888  13.106  14.511
59968W        W19229  44.310  10.146   3.381
59969W        W19230   0.883  44.966  14.390
59970W        W19231  38.836   1.971  10.938
59971W        W19232  15.593  44.278   4.206
59972W        W19233  19.041  28.088   1.927
59973W        W19234  34.543  21.160  11.878
59974W        W19235   7.802  39.454  10.995
59975W        W19236   0.836   0.747   2.725
59976W        W19237  13.149  34.524   1.875
59977W        W19238  40.528  35.961   4.801
59978W        W19239  36.996  44.940  13.344
59979W        W19240  14.130  37.555  11.486
59980W        W19241  37.858   7.219   2.308
59981W        W19242  24.527  19.771  14.829
59982W        W19243  33.112   7.216  10.510
59983W        W19244  10.361  39.472   9.995
59984W        W19245  25.115  36.406   3.868
59985W        W19246  12.645   0.921  13.834
59986W        W19247   2.824  34.865   4.244
59987W        W19248   1.290  23.079  13.329
59988W        W19249  17.586  19.167  11.394
59989W        W19250   6.771   3.848   3.378
59990W        W19251  15.638  21.610  14.002
59991W        W19252   2.832  27.452   4.195
59992W        W19253   1.275   0.340   4.761
59993W        W19254  36.484  22.503  11.584
59994W        W19255  18.733  37.960  14.967
59995W        W19256  37.530  18.223  13.849
59996W        W19257  18.239  17.762  10.127
59997W        W19258  36.452   3.455   1.881
59998W        W19259  41.953  12.264  12.908
59999W        W19260  14.279   5.718  14.458
60000W        W19261  10.792  17.077   0.882
60001W        W19262   0.938  16.190   1.436
60002W        W19263  30.630   8.347   4.675
60003W        W19264  24.496  10.833  10.991
60004W        W19265  20.107  40.427  12.971
60005W        W19266   7.171  33.939  14.769
60006W        W19267  15.616  41.827   0.923
60007W        W19268  22.656  24.680   1.240
60008W        W19269  13.157  41.831  11.373
60009W        W19270   0.767  33.444   4.783
60010W        W19271  17.073   3.303   3.235
60011W        W19272  16.254   9.344   3.268
60012W        W19273  19.053  36.490   0.479
60013W        W19274  29.492  40.304  14.818
60014W        W19275   5.694  30.440   3.729
60015W        W19276  15.250   7.753  14.356
60016W        W19277  16.105  30.085   4.262
60017W        W19278  40.307  39.410  11.496
60018W        W19279  33.618  37.041   0.249
60019W        W19280  39.916  21.225   2.823
60020W        W19281  39.476  11.285  11.054
60021W        W19282   1.250  17.674  11.048
60022W        W19283   3.270  15.601   9.973
60023W        W19284  34.947  17.574   4.329
60024W        W19285  38.488  32.110  11.373
60025W        W19286   1.759   7.822   5.089
60026W        W19287   6.716   6.807   1.765
60027W        W19288  30.570  19.628   0.753
60028W        W19289  25.585  26.137   4.613
60029W        W19290   5.390   9.312  14.398
60030W        W19291  34.057  44.882   4.740
60031W        W19292  38.859  40.437   1.252
60032W        W19293  20.218  12.333  12.861
60033W        W19294  10.202  24.983  10.451
60034W        W19295  25.079   3.254   5.194
60035W        W19296  23.578  23.994   0.359
60036W        W19297   8.809   3.747   4.636
60037W        W19298  24.526   2.860   2.282
60038W        W19299  14.678   1.473   3.805
60039W        W19300  22.189  24.589   1.721
60040W        W19301   3.392   9.206  11.592
60041W        W19302   3.847  19.138  11.094
60042W        W19303  35.961   8.893  11.946
60043W        W19304  26.469  12.716  10.641
60044W        W19305  44.327   3.800  10.925
60045W        W19306  10.846  16.640   2.713
60046W        W19307  30.997  38.447  13.517
60047W        W19308   5.932   0.906  12.973
60048W        W19309  32.945  19.633   0.926
60049W        W19310  21.738  30.098   1.446
60050W        W19311  24.558  34.556  11.031
60051W        W19312  40.415  40.943  13.820
60052W        W19313  14.227  41.015   3.659
60053W        W19314   5.271  21.210   1.744
60054W        W19315   3.278  17.216  10.571
60055W        W19316   8.804  29.082  14.506
60056W        W19317  10.635  41.436  11.547
60057W        W19318  20.536  16.154   0.905
60058W        W19319  11.139  10.313   4.136
60059W        W19320  22.213  37.429   4.283
60060W        W19321  44.985   4.797  12.572
60061W        W19322   5.230  32.999  14.842
60062W        W19323  43.442  33.942   0.323
60063W        W19324  38.022  22.613  12.972
60064W        W19325   6.802  33.904   3.658
60065W        W19326  14.289  35.860   3.182
60066W        W19327   5.213  32.938  12.384
60067W        W19328  27.594  39.394  11.872
60068W        W19329  23.510  32.085  11.871
60069W        W19330   4.257   3.945   4.116
60070W        W19331   1.775  21.107  11.094
60071W        W19332  34.492  16.597   3.355
60072W        W19333  36.039  42.818   2.223
60073W        W19334  14.114  44.867  13.904
60074W        W19335  43.979   6.375  13.986
60075W        W19336  42.978  14.306  10.501
60076W        W19337  44.885  30.489   0.386
60077W        W19338  35.984  37.544   4.669
60078W        W19339   4.788   4.306   0.275
60079W        W19340   6.400  28.948  13.350
60080W        W19341  36.918  34.542  11.874
60081W        W19342  43.339   2.745   1.364
60082W        W19343  41.424  35.361  11.015
60083W        W19344  28.178  33.004  11.116
60084W        W19345   3.360  31.990   1.212
60085W        W19346  25.490  28.481  12.907
60086W        W19347  15.771  14.634   5.133
60087W        W19348   0.307  27.179   3.773
60088W        W19349  33.874  16.740   0.291
60089W        W19350  21.076  37.462  10.577
60090W        W19351  15.659  11.697   1.821
60091W        W19352  33.465  34.588  11.445
60092W        W19353   0.808  39.343  13.440
60093W        W19354  20.752  25.709  14.425
60094W        W19355   3.364   8.741  14.437
60095W        W19356   2.756   4.282  10.502
60096W        W19357  43.277  23.036  10.623
60097W        W19358  24.018  18.051  13.434
60098W        W19359  22.036  40.806   0.825
60099W        W19360  33.057  33.420   1.836
60100W        W19361  16.729  11.694   3.344
60101W        W19362  21.084  25.627   5.621
60102W        W19363  30.971  39.008  14.317
60103W        W19364   9.702  42.988  14.841
60104W        W19365  42.405  43.335   1.908
60105W        W19366   9.758  33.101   2.835
60106W        W19367  42.909  23.578   0.783
60107W        W19368  36.431   7.771   4.269
60108W        W19369  17.598  34.407   4.276
60109W        W19370  10.200  43.448   1.793
60110W        W19371  41.336  21.660   3.746
60111W        W19372  10.332  37.941  10.989
60112W        W19373  23.621  14.221   0.961
60113W        W19374  39.325  15.148  13.336
60114W        W19375   7.398  13.682  13.351
60115W        W19376  33.428  24.130  14.888
60116W        W19377  32.623  44.783   3.865
60117W        W19378  42.358  36.540  11.098
60118W        W19379  26.154   9.229   3.684
60119W        W19380  41.998  33.424  13.952
60120W        W19381   2.368  29.144   3.697
60121W        W19382  15.786  40.837   4.326
60122W        W19383   4.356  43.368   3.737
60123W        W19384  28.161  35.100  14.350
60124W        W19385  42.975  22.223  13.836
60125W        W19386  18.669  30.088  12.410
60126W        W19387   4.839  21.056   2.803
60127W        W19388  18.183  25.093  12.925
60128W        W19389   6.913  37.079   1.884
60129W        W19390  20.148  28.466  12.427
60130W        W19391  11.340   8.351  13.055
60131W        W19392  44.980  25.695   3.200
60132W        W19393  11.766  37.070  11.522
60133W        W19394  43.361   9.172  11.931
60134W        W19395  33.613  25.211  12.873
60135W        W19396   5.718  12.799  12.963
60136W        W19397  24.591  37.992  14.411
60137W        W19398  10.875  28.121   0.262
60138W        W19399  26.604  11.148  11.531
60139W        W19400  39.445  41.861  10.929
60140W        W19401  30.029  43.279   4.798
60141W        W19402  42.356  43.003  12.080
60142W        W19403   3.403  43.327   0.920
60143W        W19404  32.098  30.468   4.820
60144W        W19405  20.684   6.309  13.874
60145W        W19406  16.690  18.668   3.194
60146W        W19407  43.768  12.637   0.829
60147W        W19408  32.527  16.213  14.918
60148W        W19409  23.513  35.569   0.858
60149W        W19410  15.298  11.786  14.422
60150W        W19411  14.134   7.861  14.986
60151W        W19412   4.800  44.263  11.579
60152W        W19413  10.286   6.757  11.545
60153W        W19414  29.007  38.889   0.448
60154W        W19415  33.600   7.325  13.364
60155W        W19416  18.672   2.729   3.312
60156W        W19417  42.927  20.262   3.712
60157W        W19418  44.936  15.812   2.395
60158W        W19419   0.389   0.309   3.838
60159W        W19420   3.880  33.039   3.796
60160W        W19421  28.151  15.730  11.981
60161W        W19422   6.744  12.235  11.398
60162W        W19423   0.434  15.187   4.238
60163W        W19424  16.702  24.638   1.765
60164W        W19425   4.291  42.854  11.521
60165W        W19426  38.547  28.973   2.412
60166W        W19427  25.079  13.608   4.136
60167W        W19428   9.754  13.132   9.616
60168W        W19429  27.041  16.126  14.339
60169W        W19430  36.351  31.090   0.265
60170W        W19431  36.971  17.596   1.763
60171W        W19432  25.711  42.951  10.502
60172W        W19433  37.430   5.778   0.886
60173W        W19434  19.613  13.691  11.030
60174W        W19435  21.522  40.847  11.505
60175W        W19436  19.597  44.276   4.168
60176W        W19437   6.702  16.247   0.411
60177W        W19438  16.672  23.023  12.440
60178W        W19439  23.074  15.139   2.222
60179W        W19440   8.798  21.536  13.416
60180W        W19441  13.646  33.083  14.022
60181W        W19442  28.949  27.602   3.642
60182W        W19443  42.791   4.398  10.406
60183W        W19444  32.528  16.193  14.348
60184W        W19445  40.362  14.713   0.291
60185W        W19446  43.897  22.518   0.357
60186W        W19447   4.803  30.080   3.347
60187W        W19448  25.587  43.894   4.339
60188W        W19449  12.808   4.365  11.492
60189W        W19450  36.025  25.172   0.277
60190W        W19451  10.300   0.299   3.322
60191W        W19452  21.206   6.360   3.767
60192W        W19453  14.834  15.269  14.815
60193W        W19454  43.876   2.333  11.066
60194W        W19455  16.576  21.734   1.785
60195W        W19456   1.449  12.259   4.119
60196W        W19457   6.681  35.982  12.431
60197W        W19458  42.424  38.353  13.908
60198W        W19459  19.140  39.461   4.202
60199W        W19460  11.161   5.278  10.440
60200W        W19461   2.781  34.405  14.341
60201W        W19462  15.652  36.472   3.306
60202W        W19463  33.941   2.858  12.409
60203W        W19464  36.358  19.610   3.677
60204W        W19465  29.529   6.220   3.257
60205W        W19466  10.663  37.463   1.921
60206W        W19467  14.184  32.074   3.772
60207W        W19468   4.709  36.071  11.952
60208W        W19469  35.565  27.070   2.405
60209W        W19470   7.242  27.162   0.747
60210W        W19471  29.578  31.901  10.084
60211W        W19472  31.059  16.793   0.850
60212W        W19473  42.513  41.501   3.349
60213W        W19474   3.222  10.742   4.220
60214W        W19475  26.459   3.402  14.391
60215W        W19476  30.601  34.886  13.467
60216W        W19477  43.329   7.705  12.465
60217W        W19478  36.040  17.658   2.867
60218W        W19479   2.297  16.704  10.931
60219W        W19480   9.742   2.434  14.294
60220W        W19481   2.861  13.697   2.741
60221W        W19482  19.058  37.882  12.068
60222W        W19483  16.713  26.955  10.574
60223W        W19484  16.576  31.057   3.335
60224W        W19485  13.301   1.381  13.422
60225W        W19486  35.549  12.815  10.464
60226W        W19487  21.523  34.458   0.393
60227W        W19488  26.531  29.006  11.926
60228W        W19489  32.442  26.534   0.967
60229W        W19490   7.328  24.133  14.280
60230W        W19491   9.334  35.916   4.120
60231W        W19492  36.924  34.563  14.794
60232W        W19493  30.034  20.720  10.439
60233W        W19494  41.399  23.705   0.260
60234W        W19495  32.891  43.466  11.587
60235W        W19496  17.679  14.099  13.374
60236W        W19497  22.713   4.238  12.070
60237W        W19498  25.176   9.377  14.344
60238W        W19499   9.274  24.551  13.425
60239W        W19500  42.455   2.964   3.633
60240W        W19501  39.057  10.869  14.429
60241W        W19502   9.815  34.558  10.594
60242W        W19503  39.955  28.509   1.217
60243W        W19504  18.579   8.685  12.908
60244W        W19505   6.378   9.859  12.952
60245W        W19506  36.382  30.161  11.535
60246W        W19507  27.660  20.200  14.289
60247W        W19508  29.535  23.498   0.403
60248W        W19509  31.529   9.792  11.091
60249W        W19510  18.627  35.381   0.846
60250W        W19511  13.614  10.873   4.786
60251W        W19512  31.069  33.621  10.547
60252W        W19513  18.118  41.850  14.483
60253W        W19514  40.465  27.475  10.419
60254W        W19515  11.750  39.387  11.037
60255W        W19516  43.008   8.816  12.073
60256W        W19517  44.313   6.186   1.911
60257W        W19518  12.129  20.688  10.584
60258W        W19519  42.776  39.032   3.382
60259W        W19520  36.982  12.788  14.368
60260W        W19521  42.510  35.965  12.986
60261W        W19522   3.899  18.259  14.902
60262W        W19523  12.723   4.741   4.669
60263W        W19524  20.554  35.484  13.828
60264W        W19525  31.007  38.551   1.893
60265W        W19526  36.045  19.095  12.082
60266W        W19527  22.728  20.583  12.073
60267W        W19528  14.720  15.772   3.870
60268W        W19529  24.539  16.301   1.252
60269W        W19530  35.924  31.514  13.816
60270W        W19531  40.941  10.204   0.479
60271W        W19532  38.985   9.888  14.897
60272W        W19533  43.845  25.637  11.900
60273W        W19534  13.329  42.339  14.471
60274W        W19535  35.563   9.741  11.470
60275W        W19536  27.532  31.941  14.280
60276W        W19537   0.249  37.867   3.819
60277W        W19538  20.108  13.210  13.525
60278W        W19539   2.463  22.538   0.311
60279W        W19540  41.403  13.726   1.352
60280W        W19541   5.706   2.311  13.341
60281W        W19542  21.112  38.387  13.046
60282W        W19543  11.860  42.342   2.210
60283W        W19544  41.322  34.380   2.729
60284W        W19545  37.992  28.442  11.611
60285W        W19546   3.774  35.027  12.005
60286W        W19547  42.847  19.604   3.311
60287W        W19548  43.970  23.576  10.476
60288W        W19549  21.199   0.985  13.417
60289W        W19550  24.523  13.714   1.450
60290W        W19551   3.430  37.855   3.171
60291W        W19552  26.101  20.718   1.298
60292W        W19553  23.537   5.711  13.535
60293W        W19554  42.415  10.338   4.331
60294W        W19555  41.397  16.182   2.239
60295W        W19556  40.521  11.631  12.458
60296W        W19557   1.427  33.597  10.639
60297W        W19558   1.382   4.869  11.411
60298W        W19559  15.649   2.759  14.000
60299W        W19560  19.647  13.790   1.330
60300W        W19561  16.795  34.592   0.858
60301W        W19562  21.701  26.652   4.281
60302W        W19563   7.270   9.704  10.621
60303W        W19564  16.202  17.739   3.259
60304W        W19565  16.670  17.303   4.305
60305W        W19566  29.064  42.347  11.016
60306W        W19567  25.533  18.242  13.536
60307W        W19568  13.639  17.225  11.397
60308W        W19569  16.286   2.431  10.127
60309W        W19570  20.740  38.914  11.570
60310W        W19571   6.305  19.589   1.322
60311W        W19572  12.662  18.727  13.905
60312W        W19573  23.675  28.449  14.896
60313W        W19574   7.389  19.143   1.291
60314W        W19575  22.074  29.494   2.210
60315W        W19576  27.522   0.751  11.947
60316W        W19577  17.265  43.270   1.711
60317W        W19578   1.241  13.113   0.937
60318W        W19579  20.715  38.922  14.333
60319W        W19580   3.356  34.027   1.701
60320W        W19581  15.186  28.018  11.994
60321W        W19582  27.983  29.597   2.761
60322W        W19583  35.066  19.200   0.251
60323W        W19584  13.809  21.703   2.879
60324W        W19585  28.001  21.757  10.457
60325W        W19586  34.894  38.918   5.291
60326W        W19587  32.065  18.232  10.522
60327W        W19588  33.604  24.690  14.764
60328W        W19589  30.008   6.416  10.953
60329W        W19590  44.871  29.650   1.291
60330W        W19591   3.756  44.431  10.103
60331W        W19592   9.763  29.947  12.091
60332W        W19593  28.588  43.279  12.467
60333W        W19594  30.436  29.512   1.401
60334W        W19595  20.726  35.574  14.805
60335W        W19596   4.705  14.646  10.441
60336W        W19597  39.939   7.178   1.863
60337W        W19598   0.846  10.815  12.935
60338W        W19599  33.914   6.879  14.786
60339W        W19600  26.185  11.168   4.699
60340W        W19601  43.440   3.723  14.387
60341W        W19602  21.666  12.762   3.746
60342W        W19603  18.771  35.566  13.936
60343W        W19604  14.108  26.116  11.897
60344W        W19605  44.357  14.183  11.547
60345W        W19606  19.117   5.423   4.711
60346W        W19607  39.537  13.734   2.780
60347W        W19608  15.758  35.602  11.086
60348W        W19609   4.767  19.651  13.972
60349W        W19610   9.314  17.700  11.061
60350W        W19611  39.856   0.794   1.317
60351W        W19612  18.648  24.016  13.529
60352W        W19613  42.445  43.299  13.944
60353W        W19614   2.463  32.057   3.818
60354W        W19615  19.723   1.483  13.794
60355W        W19616   4.359  42.504   2.765
60356W        W19617  35.885  29.934  11.025
60357W        W19618  15.179  29.606  12.954
60358W        W19619  28.613   9.798   3.726
60359W        W19620  39.939  27.533   2.255
60360W        W19621  38.525  30.451  13.861
60361W        W19622  24.145  10.633  10.906
60362W        W19623  22.709  19.242   4.756
60363W        W19624   7.284   6.230  13.885
60364W        W19625  17.631  16.690  14.449
60365W        W19626  11.645  11.179   4.740
60366W        W19627  30.947  30.471   2.704
60367W        W19628  29.020  18.182   2.336
60368W        W19629  32.430  18.548  10.957
60369W        W19630  18.693  20.651  11.986
60370W        W19631  12.149  15.745   0.338
60371W        W19632  28.485  37.983   4.221
60372W        W19633  43.469   2.796   0.760
60373W        W19634  40.417   0.325   2.367
60374W        W19635  44.780  26.993  12.445
60375W        W19636   7.275   4.903  12.575
60376W        W19637   7.261  35.081  10.895
60377W        W19638  36.937  20.116  13.970
60378W        W19639  40.464  25.550   4.343
60379W        W19640   6.346  30.544   2.200
60380W        W19641   8.202  26.194   4.697
60381W        W19642  26.581  36.940  14.899
60382W        W19643   2.361  14.832  11.498
60383W        W19644   5.747   8.198   2.270
60384W        W19645  34.505  30.483  10.534
60385W        W19646  40.545  43.908   2.270
60386W        W19647  25.166   9.362   2.312
60387W        W19648  18.081  31.118  14.838
60388W        W19649  39.502  28.966   1.300
60389W        W19650  30.139  23.563  13.006
60390W        W19651  30.537  11.827   0.416
60391W        W19652  35.895  43.413   1.338
60392W        W19653  30.526  20.028   4.689
60393W        W19654   5.756  30.444  10.634
60394W        W19655   4.924  30.582  14.997
60395W        W19656  39.531  17.272  14.323
60396W        W19657  17.614  25.006  12.394
60397W        W19658   5.348  44.403   9.954
60398W        W19659  15.745  24.541  13.366
60399W        W19660   1.279  29.154   1.286
60400W        W19661  19.050  10.205   1.285
60401W        W19662  24.689  13.789  10.604
60402W        W19663  42.925  31.050   3.286
60403W        W19664  25.684  43.364   4.654
60404W        W19665  43.347  16.245   0.452
60405W        W19666   1.458  43.413  10.444
60406W        W19667  27.154  29.566   3.741
60407W        W19668   0.409  30.627  12.343
60408W        W19669  42.934  34.445  10.090
60409W        W19670  15.680  40.358   4.777
60410W        W19671  42.012   6.250   0.901
60411W        W19672  14.184  32.932  11.878
60412W        W19673  37.409   9.197  12.577
60413W        W19674  36.979   7.239  13.538
60414W        W19675  39.550  12.817  11.610
60415W        W19676  40.435   9.330  12.859
60416W        W19677  10.264  32.428   1.274
60417W        W19678   4.358   0.838  11.532
60418W        W19679  16.121  44.374   0.947
60419W        W19680  30.438  18.089  11.404
60420W        W19681  27.193  27.611  14.808
60421W        W19682  23.584   6.837   4.716
60422W        W19683   1.879  34.424   2.775
60423W        W19684   3.426   8.899   1.756
60424W        W19685  12.816  29.021  13.385
60425W        W19686  39.461  37.544  12.540
60426W        W19687  31.601  27.964  10.610
60427W        W19688  10.764  28.456   1.377
60428W        W19689  21.601  13.234  12.467
60429W        W19690  43.342  33.407   2.690
60430W        W19691  39.063   6.265  12.898
60431W        W19692   5.753  20.658  11.085
60432W        W19693  13.653  43.320   1.812
60433W        W19694  10.311   4.762   1.402
60434W        W19695   0.328  40.412   1.389
60435W        W19696   0.766  23.192   4.727
60436W        W19697   3.390  23.229  10.612
60437W        W19698  21.733  21.671   4.835
60438W        W19699  40.376  38.569   3.809
60439W        W19700  32.901  35.488  14.888
60440W        W19701  11.799   8.292   2.831
60441W        W19702  38.400  21.071  13.862
60442W        W19703  25.524  30.027  14.308
60443W        W19704  44.933  16.165  14.368
60444W        W19705   3.840  12.178   0.318
60445W        W19706  14.674  20.169   1.222
60446W        W19707  18.113  23.984  11.414
60447W        W19708  42.452  19.710  14.433
60448W        W19709  12.246   4.383  13.316
60449W        W19710   9.334  32.400  13.378
60450W        W19711   9.279  40.463  14.888
60451W        W19712  14.230  11.358  14.883
60452W        W19713  22.537  33.506  10.454
60453W        W19714  35.393  33.444  14.997
60454W        W19715  18.743  17.192   3.349
60455W        W19716   9.267  15.748  11.037
60456W        W19717  37.913  21.584   3.181
60457W        W19718  36.455  32.537   1.220
60458W        W19719   3.763  14.681  12.892
60459W        W19720   3.951  11.775  13.504
60460W        W19721  40.814  31.476   4.354
60461W        W19722  12.137  37.335   0.730
60462W        W19723   9.357   4.852   3.214
60463W        W19724  40.315  11.789   0.350
60464W        W19725  17.164  31.027   0.910
60465W        W19726  39.028  18.735   3.368
60466W        W19727  10.723  30.938  11.979
60467W        W19728  42.347  33.932   2.213
60468W        W19729  33.396  33.620   3.699
60469W        W19730  42.979  13.779  13.930
60470W        W19731  30.977  18.280   0.801
60471W        W19732  12.731  11.663   1.429
60472W        W19733  14.806  38.365  12.569
60473W        W19734   0.331  35.053  14.019
60474W        W19735   3.718  26.208  13.033
60475W        W19736   2.453  40.441  11.605
60476W        W19737  42.001   4.302  11.914
60477W        W19738  44.778  25.583   0.479
60478W        W19739  44.345  39.484  12.916
60479W        W19740  21.250  28.071  12.481
60480W        W19741  30.925  14.340   1.430
60481W        W19742  11.212  38.055  12.079
60482W        W19743   4.427   0.350  10.908
60483W        W19744  30.598  17.802   4.322
60484W        W19745  41.293  41.892   0.881
60485W        W19746   8.293  23.691   0.815
60486W        W19747   0.763  15.183  12.497
60487W        W19748  31.629  28.151  11.511
60488W        W19749  30.994  12.275  13.857
60489W        W19750  16.790  32.408   4.263
60490W        W19751  16.301   4.869  13.915
60491W        W19752  20.653   0.282  13.025
60492W        W19753  42.915  43.284   0.365
60493W        W19754   1.339   8.806   3.330
60494W        W19755  29.974   8.227  11.104
60495W        W19756  41.534  24.491  10.510
60496W        W19757  28.623   0.882   3.641
60497W        W19758  10.791   8.394   0.771
60498W        W19759  28.949   6.325   4.289
60499W        W19760  44.766  24.715  10.897
60500W        W19761  11.257   9.352  13.435
60501W        W19762  22.117  29.495   3.859
60502W        W19763  41.003  11.346  11.085
60503W        W19764  25.497  28.178   1.898
60504W        W19765   2.368  11.353   3.863
60505W        W19766  32.918  28.182  14.841
60506W        W19767  20.042  29.544  14.471
60507W        W19768   9.701  14.751   3.779
60508W        W19769  32.505  10.145  10.979
60509W        W19770  21.204  25.692   0.279
60510W        W19771  24.577   8.252  12.083
60511W        W19772  18.167  26.629  14.799
60512W        W19773  16.120  31.596  12.875
60513W        W19774  36.363  25.669  11.564
60514W        W19775  23.515   2.437  11.460
60515W        W19776  26.681  34.405   3.264
60516W        W19777  23.665  37.557  12.536
60517W        W19778  25.491  39.873   3.813
60518W        W19779  41.517  36.466   4.209
60519W        W19780  44.402  37.975   4.785
60520W        W19781  24.642  34.561  10.583
60521W        W19782   6.696  38.056   3.763
60522W        W19783  21.554  19.149  13.356
60523W        W19784   7.870   9.760   1.215
60524W        W19785  20.057  23.698   5.225
60525W        W19786   4.359  37.429   1.925
60526W        W19787   0.291  25.629   1.311
60527W        W19788  23.549  26.482   4.120
60528W        W19789  28.629  13.191   2.704
60529W        W19790  15.643  20.215   0.754
60530W        W19791   2.752   9.863  11.409
60531W        W19792   4.438  22.073   1.323
60532W        W19793  37.043  12.735   4.137
60533W        W19794  40.973   7.728   3.775
60534W        W19795  22.528  39.063  11.447
60535W        W19796  11.270  16.095  12.914
60536W        W19797  15.189   0.903   1.720
60537W        W19798   6.419  32.985   2.265
60538W        W19799  42.801  34.608  14.387
60539W        W19800   8.218  12.847  14.023
60540W        W19801  33.984  11.718  14.808
60541W        W19802  36.044  23.554  12.508
60542W        W19803  30.921  19.049  13.935
60543W        W19804   1.906  40.885  14.866
60544W        W19805  24.677  33.447   1.340
60545W        W19806  21.532  32.888  14.367
60546W        W19807  43.846   4.334  11.475
60547W        W19808  30.549  20.693   0.866
60548W        W19809  12.759  11.158   0.810
60549W        W19810  44.902   2.942   2.228
60550W        W19811   0.264   0.984   0.352
60551W        W19812  12.856  42.817  12.391
60552W        W19813  20.158  39.470   2.358
60553W        W19814  31.012  44.313   2.779
60554W        W19815  11.791  10.303   0.245
60555W        W19816  42.028  38.948  11.424
60556W        W19817   5.794  44.399   1.840
60557W        W19818  31.627  13.612   2.852
60558W        W19819   1.800  19.732  11.099
60559W        W19820  15.117  32.612   0.277
60560W        W19821  37.060  19.598  13.879
60561W        W19822   0.760  27.547  12.388
60562W        W19823  17.226  25.151   3.871
60563W        W19824  15.143  44.990  12.395
60564W        W19825  13.832  29.554  13.365
60565W        W19826  27.016  34.995   1.888
60566W        W19827   9.315  24.109  14.858
60567W        W19828   4.342  33.078  12.902
60568W        W19829  39.881   7.850  12.535
60569W        W19830  15.214  14.791   0.401
60570W        W19831   9.698  35.094  11.949
60571W        W19832  27.571  26.463   5.231
60572W        W19833  10.636   5.833  13.432
60573W        W19834  40.870  39.499  12.559
60574W        W19835  22.037  22.650  11.018
60575W        W19836   3.433   9.851   2.335
60576W        W19837   9.735   0.387  14.788
60577W        W19838  12.204   7.385   5.259
60578W        W19839  24.565   2.379  11.461
60579W        W19840  25.708   1.347  14.933
60580W        W19841  30.093  36.532   0.303
60581W        W19842  22.167  41.920  14.920
60582W        W19843  31.095  42.971  14.857
60583W        W19844  21.213  24.540  11.940
60584W        W19845  15.631  29.599   2.385
60585W        W19846  16.162  21.687  11.553
60586W        W19847   4.229   5.722   4.145
60587W        W19848   0.378  23.659  10.550
60588W        W19849  42.911  38.495   0.958
60589W        W19850  23.563   7.673  11.441
60590W        W19851  13.617  28.622   2.342
60591W        W19852  43.507  36.903   1.214
60592W        W19853  32.431  44.832   2.846
60593W        W19854  10.841  13.603  14.987
60594W        W19855  36.027  17.710  13.021
60595W        W19856  10.346  11.325  12.497
60596W        W19857  43.506  23.205  11.078
60597W        W19858  25.604  31.641   4.302
60598W        W19859  11.744  22.197   1.807
60599W        W19860  30.127  42.922   2.372
60600W        W19861  23.503  21.063  14.458
60601W        W19862  30.950  12.339   1.841
60602W        W19863  43.490   7.288   3.193
60603W        W19864  34.027  37.850  10.532
60604W        W19865  42.407   9.769   2.317
60605W        W19866  28.508   0.296  11.599
60606W        W19867   3.737  27.581  14.456
60607W        W19868  14.203  26.502   0.406
60608W        W19869  34.398  25.148  10.590
60609W        W19870  29.965  31.117  13.852
60610W        W19871  14.299  15.217  12.339
60611W        W19872  15.202  44.337  14.782
60612W        W19873  16.167  18.291   4.700
60613W        W19874  27.054  36.593  14.323
60614W        W19875  13.706  12.361   4.773
60615W        W19876   8.785   8.190  13.498
60616W        W19877  21.161  11.236  14.455
60617W        W19878   4.894  19.256  11.421
60618W        W19879  15.303  11.722  12.873
60619W        W19880   8.768  25.481   3.800
60620W        W19881   0.839  20.038  11.445
60621W        W19882   9.847  37.913  12.895
60622W        W19883  28.040  41.456  10.981
60623W        W19884  39.935  13.755   1.322
60624W        W19885  12.621   1.345   1.748
60625W        W19886  23.030  36.380   2.400
60626W        W19887  33.959   0.279   1.421
60627W        W19888   3.430  43.883   0.399
60628W        W19889  16.123  25.145   4.626
60629W        W19890  35.526  13.313  10.467
60630W        W19891  20.202   8.264   3.197
60631W        W19892  33.071   2.355   0.873
60632W        W19893  32.486  17.561   4.694
60633W        W19894  26.473   1.745   4.262
60634W        W19895   5.887  42.889   2.324
60635W        W19896   3.290  30.618  10.904
60636W        W19897  19.089  35.911   2.716
60637W        W19898  18.245   4.403  12.461
60638W        W19899   1.759  23.501   3.661
60639W        W19900  44.334  25.499   5.305
60640W        W19901  14.276  20.573   3.780
60641W        W19902  29.547  24.081  13.031
60642W        W19903  39.370  41.374  10.624
60643W        W19904  26.569  28.640   1.915
60644W        W19905   2.268  12.729  14.851
60645W        W19906  33.925  16.607  10.418
60646W        W19907  15.768  33.484  13.956
60647W        W19908  40.549   1.952   0.434
60648W        W19909  24.138  39.414  12.043
60649W        W19910  13.825   6.721  12.852
60650W        W19911   9.247   5.873  11.496
60651W        W19912   8.311  20.227  10.446
60652W        W19913   6.742  33.598  11.556
60653W        W19914   3.802  16.758   3.667
60654W        W19915  41.925   1.876   0.894
60655W        W19916  33.904  22.553   1.855
60656W        W19917  32.999  31.116  10.415
60657W        W19918   8.727  16.792   0.379
60658W        W19919  30.909  30.415  10.547
60659W        W19920  44.964  43.000   5.204
60660W        W19921  20.218  30.593  11.571
60661W        W19922  13.299   0.897   1.336
60662W        W19923  26.496   6.332   4.351
60663W        W19924   7.884  18.596   3.243
60664W        W19925  17.208  21.199   2.227
60665W        W19926   1.754  19.155   3.754
60666W        W19927  41.932  21.035  12.372
60667W        W19928  42.365  10.202  14.837
60668W        W19929  37.485  13.244  13.310
60669W        W19930   3.916   2.460  14.488
60670W        W19931  37.985  23.080   3.176
60671W        W19932  36.356  31.440  10.597
60672W        W19933  19.081  27.950  10.585
60673W        W19934  27.114  43.988   0.748
60674W        W19935  23.125  23.578   3.704
60675W        W19936  43.837  13.115  14.885
60676W        W19937  14.199  35.044   2.258
60677W        W19938  37.896  31.417   5.714
60678W        W19939  40.375  16.731   2.211
60679W        W19940   5.386  25.603  13.943
60680W        W19941  31.645  17.243   4.336
60681W        W19942  16.129  14.297   0.867
60682W        W19943  24.694   8.336  12.431
60683W        W19944  15.312  28.628  12.517
60684W        W19945  22.541  35.497   2.406
60685W        W19946  17.730   7.893  13.823
60686W        W19947  10.772   6.194   0.915
60687W        W19948  34.961  30.476  11.110
60688W        W19949  27.184   3.889   2.872
60689W        W19950  23.540  20.029   3.799
60690W        W19951  27.597   2.366  12.009
60691W        W19952  11.226  27.954  12.014
60692W        W19953  29.508  26.620  10.964
60693W        W19954   2.238  23.008   2.721
60694W        W19955  13.346  21.722   3.826
60695W        W19956  22.556  35.094   3.763
60696W        W19957  29.497   8.320  13.486
60697W        W19958   2.450  26.136   2.206
60698W        W19959  42.015  39.394   0.336
60699W        W19960   5.751  38.827   2.331
60700W        W19961  44.826   7.364   1.871
60701W        W19962  24.543  31.568  11.901
60702W        W19963   1.864  26.078  13.475
60703W        W19964  16.710  24.693   0.380
60704W        W19965  20.207  26.091   4.270
60705W        W19966  43.491  34.430  13.535
60706W        W19967   3.294  17.302   1.851
60707W        W19968  14.733  44.905  13.036
60708W        W19969  43.305  37.550   2.778
60709W        W19970  20.259  35.401  12.454
60710W        W19971  13.674   2.791  12.939
60711W        W19972   9.225  35.949  13.941
60712W        W19973  23.064  13.840   2.672
60713W        W19974   1.847  42.301   4.169
60714W        W19975   3.845   9.222  14.824
60715W        W19976   1.931  38.863   2.229
60716W        W19977  33.956  41.927   1.805
60717W        W19978   1.265  24.179   1.695
60718W        W19979  43.406  32.528  13.800
60719W        W19980  31.601  34.910  14.450
60720W        W19981   0.880  43.478   4.738
60721W        W19982  40.305  33.875   2.418
60722W        W19983  24.488   1.763   3.368
60723W        W19984  41.988   1.475   2.268
60724W        W19985  24.976  29.961  13.471
60725W        W19986  15.188  37.941  13.308
60726W        W19987   5.280  26.180  10.582
60727W        W19988  24.604  12.222  12.368
60728W        W19989  21.241   2.341   0.395
60729W        W19990  16.800  13.146   3.177
60730W        W19991   4.436  43.995  10.942
60731W        W19992  11.255   5.353   3.224
60732W        W19993  11.768  27.543   3.767
60733W        W19994  22.076   4.312  11.538
60734W        W19995  17.689  29.966  13.537
60735W        W19996  19.677   0.376   1.759
60736W        W19997  22.697   4.917   0.744
60737W        W19998  10.380   8.742   3.375
60738W        W19999  32.107  32.443   1.347
60739W        W20000  41.874  15.648   3.664
60740W        W20001  22.632   4.873  14.806
60741W        W20002  33.976  11.659   1.918
60742W        W20003  21.225  25.488   3.772
60743W        W20004   3.850  41.480   3.342
60744W        W20005   1.969  16.224   1.251
60745W        W20006  19.694  32.516  13.413
60746W        W20007  18.614  22.008   1.230
60747W        W20008  36.849  20.031  11.047
60748W        W20009  13.709  38.919  12.373
60749W        W20010  31.051   9.805   3.360
60750W        W20011   2.756  43.366  13.919
60751W        W20012  15.119  14.270  10.027
60752W        W20013   8.325  41.809   4.769
60753W        W20014  37.050  10.276   1.698
60754W        W20015   1.932  44.825   4.792
60755W        W20016  16.748  13.296   2.792
60756W        W20017  28.131  26.624   0.338
60757W        W20018   0.842   5.915   1.297
60758W        W20019  18.210  26.962  12.068
60759W        W20020  24.697  14.107   0.270
60760W        W20021   0.452  14.712  11.953
60761W        W20022  23.734  40.502   4.728
60762W        W20023  15.154  40.488   1.786
60763W        W20024  30.529  25.608  10.902
60764W        W20025   5.725  19.141   4.783
60765W        W20026   1.345   2.350  10.501
60766W        W20027  41.497  13.792   4.305
60767W        W20028  33.887   5.908  12.891
60768W        W20029  14.593  31.616   1.773
60769W        W20030  15.314  42.018  12.831
60770W        W20031   5.308  23.533   4.164
60771W        W20032  23.149  30.624  10.968
60772W        W20033  19.539  14.160  10.901
60773W        W20034  44.891  14.818   1.779
60774W        W20035  17.136  32.569  13.521
60775W        W20036   6.767  42.410   0.464
60776W        W20037  29.956  36.368  10.538
60777W        W20038  27.011  29.445  12.412
60778W        W20039  34.070  40.996  14.793
60779W        W20040  42.821   6.678  13.917
60780W        W20041  42.909  26.612  12.044
60781W        W20042   1.913  29.552  12.369
60782W        W20043  14.295   3.779  12.024
60783W        W20044  37.070  41.002   3.151
60784W        W20045  24.710  12.211   4.137
60785W        W20046   0.455  39.524  13.333
60786W        W20047  24.560  11.346   0.372
60787W        W20048  28.163  15.750   2.258
60788W        W20049  17.578  36.371   2.760
60789W        W20050  40.544  32.593   1.438
60790W        W20051  19.189  28.574  12.967
60791W        W20052  38.356  42.929   4.337
60792W        W20053  10.870  38.380  14.923
60793W        W20054  29.938  18.268   0.813
60794W        W20055  21.739   6.787  10.575
60795W        W20056  29.432  21.025  10.577
60796W        W20057  20.229  10.822   0.837
60797W        W20058  35.543  38.350   4.751
60798W        W20059  18.057  19.148   2.327
60799W        W20060  26.117   8.691  12.941
60800W        W20061  37.357  13.180   0.426
60801W        W20062  44.396  38.337   2.271
60802W        W20063  41.533  10.721  12.083
60803W        W20064  25.157  29.984   2.818
60804W        W20065  13.158  28.499  14.841
60805W        W20066  40.546   5.761   3.656
60806W        W20067   2.424   9.185  10.888
60807W        W20068   7.724  29.528   4.333
60808W        W20069  28.597  19.776  14.359
60809W        W20070  41.406  40.407  14.873
60810W        W20071   6.697  25.092  13.035
60811W        W20072   8.378  43.879   1.279
60812W        W20073  42.906  25.078  13.437
60813W        W20074  26.105   7.262   0.842
60814W        W20075  21.171  21.655  12.031
60815W        W20076  38.565   9.347   3.343
60816W        W20077  41.451  35.574   1.436
60817W        W20078  13.340  39.952   3.792
60818W        W20079  13.251   5.784   1.903
60819W        W20080  16.282  41.994  12.540
60820W        W20081  35.968  14.801   2.772
60821W        W20082  26.628  27.009   1.254
60822W        W20083  34.926  24.978   0.434
60823W        W20084  26.187  35.973   4.315
60824W        W20085  13.210  36.894  13.839
60825W        W20086  30.103   6.847  10.543
60826W        W20087  14.631  34.968  14.952
60827W        W20088  39.812   3.866   4.324
60828W        W20089  10.221  39.315   0.289
60829W        W20090  41.829  37.553   2.859
60830W        W20091   8.737  33.083  10.946
60831W        W20092  34.442  21.245   2.216
60832W        W20093  25.063  18.075  13.801
60833W        W20094  24.604  26.698   0.822
60834W        W20095  34.000   3.258   3.640
60835W        W20096  12.652  10.341  14.001
60836W        W20097  17.121   5.870  11.386
60837W        W20098  10.189  38.377  10.559
60838W        W20099   2.856  17.143   4.354
60839W        W20100  16.584  26.995   4.200
60840W        W20101  23.097  33.901   1.231
60841W        W20102  10.831  18.721   2.302
60842W        W20103   7.759   0.831   1.410
60843W        W20104  39.498  16.088  10.506
60844W        W20105  41.794  24.128   5.162
60845W        W20106  28.518   0.401  12.020
60846W        W20107  17.148  32.403  12.939
60847W        W20108  28.948  38.414  11.578
60848W        W20109  10.696  20.552  14.361
60849W        W20110   2.768   1.850  14.284
60850W        W20111  34.371  40.962  12.868
60851W        W20112   8.856  15.156   9.612
60852W        W20113  24.518  26.009  12.949
60853W        W20114  41.338  11.739  14.764
60854W        W20115  34.962  39.500  10.526
60855W        W20116  42.866  40.846  11.903
60856W        W20117   8.319  41.952  14.032
60857W        W20118   3.315  39.520   1.727
60858W        W20119   1.284  15.819  10.531
60859W        W20120  27.112   3.930   1.216
60860W        W20121  36.444  16.724  12.024
60861W        W20122  21.727  25.989  12.340
60862W        W20123  17.293  36.507   3.735
60863W        W20124  41.320  10.760   2.674
60864W        W20125  28.055   2.725  12.879
60865W        W20126   8.655  12.198  10.453
60866W        W20127  37.462  32.947   2.200
60867W        W20128  11.211  17.090  11.517
60868W        W20129  38.011  17.670   3.852
60869W        W20130   7.731  21.072  10.016
60870W        W20131  17.665  42.326  11.038
60871W        W20132  24.625  35.857   2.273
60872W        W20133  37.880  20.041   0.963
60873W        W20134  43.363   4.353   4.116
60874W        W20135  21.579  14.332  12.069
60875W        W20136  41.852  24.094  12.489
60876W        W20137   5.194  22.696  13.362
60877W        W20138  22.617   5.227   4.640
60878W        W20139   3.785  13.690   4.226
60879W        W20140  41.908  24.101   1.849
60880W        W20141  16.284  35.933   1.908
60881W        W20142  22.101  35.016  13.052
60882W        W20143  10.248  14.236   1.809
60883W        W20144  28.974  43.836  13.307
60884W        W20145  39.395  26.191   1.309
60885W        W20146  22.201  16.636   4.253
60886W        W20147  19.773  30.470   0.854
60887W        W20148  42.858  24.977  13.912
60888W        W20149  35.893  38.824  13.510
60889W        W20150   7.377  34.074  12.423
60890W        W20151  17.244  21.225   5.272
60891W        W20152  20.630  19.650   9.986
60892W        W20153  32.607  25.036   2.269
60893W        W20154  24.192   9.652   1.292
60894W        W20155  17.266  31.407  11.520
60895W        W20156  10.209  37.407   2.773
60896W        W20157  28.598   1.450   3.172
60897W        W20158  36.578  39.533  10.943
60898W        W20159  12.328   9.210   2.362
60899W        W20160  27.959  34.960  11.474
60900W        W20161  41.532  24.019  12.995
60901W        W20162   8.758  38.463   4.285
60902W        W20163  35.910  44.360   0.806
60903W        W20164  20.749  23.237   2.843
60904W        W20165  43.771  34.991   3.684
60905W        W20166   5.693  37.055  14.301
60906W        W20167  39.419  24.072   2.389
60907W        W20168  30.044  18.131   2.298
60908W        W20169  33.028  35.454  11.410
60909W        W20170  17.186  39.977  14.912
60910W        W20171  36.904  27.515   4.708
60911W        W20172   4.344  23.202   1.361
60912W        W20173   0.365  11.186   1.408
60913W        W20174  28.503  18.572   2.770
60914W        W20175  43.823  24.534   1.852
60915W        W20176   0.874  31.411  11.931
60916W        W20177   3.239   3.435   3.645
60917W        W20178  19.087  12.306   1.893
60918W        W20179  37.489  38.032  14.315
60919W        W20180   7.692   7.773   0.279
60920W        W20181  20.173  15.129  14.516
60921W        W20182  39.384  28.653  10.624
60922W        W20183  35.428  33.060   2.226
60923W        W20184   0.268  17.564   2.242
60924W        W20185   5.335   7.368   0.475
60925W        W20186  39.818   9.394  12.023
60926W        W20187  27.542  36.091   1.857
60927W        W20188  24.094  42.930   1.214
60928W        W20189   3.277   3.871   4.232
60929W        W20190  26.698  12.837   2.666
60930W        W20191  43.496  13.832  14.910
60931W        W20192  32.946  25.969   2.669
60932W        W20193  24.548  32.550   1.280
60933W        W20194  13.730  33.561   0.271
60934W        W20195  15.814  29.118   2.240
60935W        W20196  18.183  29.479   3.248
60936W        W20197  23.586  35.472   1.896
60937W        W20198  30.114  16.755  11.522
60938W        W20199  23.532   8.873  11.508
60939W        W20200  15.171   6.269  13.056
60940W        W20201   9.883  37.939   2.664
60941W        W20202  42.803  21.261   3.234
60942W        W20203  11.160  24.050  11.045
60943W        W20204  23.049  43.382   4.228
60944W        W20205   0.822  43.472  13.409
60945W        W20206  44.497  32.888  11.399
60946W        W20207  12.709  30.007   4.348
60947W        W20208  28.973  38.894   1.351
60948W        W20209  25.551  27.561   0.265
60949W        W20210   4.768  43.355  13.811
60950W        W20211   1.950  38.349  13.037
60951W        W20212  18.168  29.542   2.398
60952W        W20213  24.659  14.330  11.060
60953W        W20214  33.542  18.251  12.481
60954W        W20215  12.292   4.412  14.983
60955W        W20216  27.691  28.077  11.439
60956W        W20217  15.294  16.691   2.224
60957W        W20218   2.787   0.382   2.862
60958W        W20219  37.372  16.079   3.156
60959W        W20220  17.268  12.655  10.892
60960W        W20221   1.421  29.155   0.459
60961W        W20222  32.984  39.929  13.819
60962W        W20223  43.441   1.377  13.064
60963W        W20224  30.078  22.112  13.831
60964W        W20225  26.206  17.304  12.502
60965W        W20226  19.194  17.623  12.413
60966W        W20227  22.030  19.241  12.023
60967W        W20228  15.212   1.430  14.416
60968W        W20229  44.339  19.676   1.213
60969W        W20230  13.813  18.718  14.435
60970W        W20231  37.846  38.410   2.419
60971W        W20232  31.080  25.065  11.003
60972W        W20233   0.369  44.317  10.463
60973W        W20234  26.583  40.948  11.000
60974W        W20235  12.629  40.816   2.251
60975W        W20236   0.821  39.841   1.339
60976W        W20237  42.456  34.533   0.833
60977W        W20238  11.201  11.226   2.737
60978W        W20239   7.374   5.901   4.318
60979W        W20240  22.164   9.366   1.926
60980W        W20241  20.244  31.068  12.570
60981W        W20242  15.231  42.878  10.517
60982W        W20243  33.088  40.312  12.418
60983W        W20244  24.018  26.142  12.993
60984W        W20245   7.181  10.382   0.296
60985W        W20246  18.771  14.247  12.480
60986W        W20247  39.425  29.953   1.897
60987W        W20248  31.122  33.412   3.203
60988W        W20249  34.483   9.875  12.397
60989W        W20250  32.503  13.630   4.814
60990W        W20251   2.862  28.595   1.349
60991W        W20252  22.629  30.952   3.213
60992W        W20253  21.040  19.767   3.341
60993W        W20254  14.170  30.108  14.920
60994W        W20255  18.738   2.283  10.957
60995W        W20256  40.342  20.594  11.536
60996W        W20257  38.356  21.747  10.579
60997W        W20258  38.536   7.412   3.834
60998W        W20259  20.760  29.146   2.856
60999W        W20260  31.413  29.919  11.380
61000W        W20261  23.234  31.965  13.915
61001W        W20262  15.774  11.233  14.986
61002W        W20263  31.995  25.120   4.206
61003W        W20264  37.449  41.410   0.943
61004W        W20265  38.341   1.781   0.463
61005W        W20266   5.800  13.251  11.407
61006W        W20267  36.067  23.118  13.957
61007W        W20268  17.588  28.438   1.344
61008W        W20269  19.612  31.405   3.345
61009W        W20270  24.576  38.419   1.406
61010W        W20271  43.920  42.501  14.029
61011W        W20272  25.693  28.064  11.016
61012W        W20273  33.556  32.556   0.471
61013W        W20274  18.295  34.567  14.351
61014W        W20275  33.537   3.297   4.123
61015W        W20276  41.001  17.297  14.282
61016W        W20277  17.704   8.858   0.262
61017W        W20278   6.409   4.266   1.295
61018W        W20279  15.732  18.296   5.116
61019W        W20280  26.021  28.633  11.095
61020W        W20281   3.454  18.569  14.961
61021W        W20282   1.810  20.768  10.943
61022W        W20283   7.374  20.147   3.365
61023W        W20284  26.053  16.266  10.519
61024W        W20285  15.264   1.734   4.737
61025W        W20286  10.709  35.455  12.432
61026W        W20287   4.449  14.116  14.984
61027W        W20288  13.182   0.827  14.849
61028W        W20289  32.393  18.615  13.877
61029W        W20290   9.330  11.184  10.918
61030W        W20291  16.697  33.536  11.112
61031W        W20292   9.770  18.123  11.412
61032W        W20293   1.863  15.682  13.001
61033W        W20294  19.047  23.521   4.189
61034W        W20295  22.652  37.399   5.141
61035W        W20296   4.357  17.085   0.842
61036W        W20297   5.882   5.255   4.297
61037W        W20298  18.699  23.150   1.700
61038W        W20299  21.097  19.674   4.279
61039W        W20300   8.817  37.493   1.217
61040W        W20301  15.157   1.310  10.949
61041W        W20302   5.326   2.459  13.059
61042W        W20303  35.572  37.959  12.945
61043W        W20304  41.421  41.942  14.869
61044W        W20305  40.512   8.267   4.206
61045W        W20306   6.863  17.086   0.255
61046W        W20307  17.141  26.118  13.397
61047W        W20308  41.342  17.067   1.811
61048W        W20309  10.178   6.746   0.913
61049W        W20310  33.113  22.055   1.804
61050W        W20311  42.500  10.650   3.662
61051W        W20312  25.116  19.553  10.942
61052W        W20313   8.247  21.235   4.661
61053W        W20314  26.090  30.089  11.377
61054W        W20315   7.837   8.350   2.340
61055W        W20316  22.581   0.387   0.271
61056W        W20317  19.174  42.437   2.726
61057W        W20318   9.166   2.921   2.269
61058W        W20319   9.199  36.067  14.372
61059W        W20320  11.678  44.835   0.736
61060W        W20321  43.269  31.457   1.305
61061W        W20322   5.277  18.780  14.905
61062W        W20323  20.214  29.134   3.377
61063W        W20324  34.984  30.527   1.869
61064W        W20325  22.177  18.613  13.942
61065W        W20326  18.782   2.826   1.847
61066W        W20327  40.032  10.349  11.989
61067W        W20328  36.549   3.438   2.852
61068W        W20329   6.421  36.997   0.482
61069W        W20330  44.866  40.438   2.221
61070W        W20331  44.437   5.822   2.382
61071W        W20332  19.638   1.878   3.696
61072W        W20333  13.219   3.371  11.590
61073W        W20334  37.342  41.914  10.974
61074W        W20335  36.037  12.723  10.966
61075W        W20336  33.586  37.417   9.971
61076W        W20337  33.505  43.327   1.848
61077W        W20338  24.628  28.142   4.672
61078W        W20339   1.397  19.534  11.474
61079W        W20340  43.371  21.552  12.560
61080W        W20341  34.368   7.854  12.033
61081W        W20342  14.697  40.899   3.800
61082W        W20343  37.873   0.315  13.528
61083W        W20344  14.289  25.572   2.346
61084W        W20345   5.688   6.303   9.984
61085W        W20346  30.058  40.974   9.497
61086W        W20347  26.195  23.699   3.345
61087W        W20348  34.396   5.891   1.401
61088W        W20349  28.173  30.157   1.797
61089W        W20350  22.166  14.828  11.457
61090W        W20351  41.976  30.518   5.295
61091W        W20352   8.322  29.547  13.853
61092W        W20353  23.521  44.433  12.394
61093W        W20354   0.362  26.093   1.840
61094W        W20355  41.870  24.667   4.323
61095W        W20356  25.106  16.710   3.832
61096W        W20357  11.333  44.803  12.950
61097W        W20358  32.556  31.621   1.401
61098W        W20359  11.649  28.150   4.204
61099W        W20360  26.642  19.697  12.438
61100W        W20361  39.836   8.672  12.012
61101W        W20362  35.018  26.078   0.317
61102W        W20363  11.251   1.820  12.075
61103W        W20364  36.420  29.557  12.031
61104W        W20365   5.800  19.086  13.427
61105W        W20366  24.552  38.842  14.808
61106W        W20367  34.566   4.745   3.707
61107W        W20368  22.066  44.853  10.423
61108W        W20369   1.785   4.236  13.417
61109W        W20370   4.782  32.128   1.918
61110W        W20371  33.027  25.542   4.305
61111W        W20372  23.618  30.929   0.944
61112W        W20373  19.072  42.836  13.988
61113W        W20374  44.830  42.006   0.927
61114W        W20375  31.511  20.158  14.796
61115W        W20376  39.878  44.825  14.402
61116W        W20377   4.408  10.856   3.724
61117W        W20378  23.519   4.261  14.501
61118W        W20379  14.154   9.768  11.590
61119W        W20380   4.824   4.866  10.436
61120W        W20381  38.002  20.766  12.410
61121W        W20382  24.641   0.314  14.905
61122W        W20383  41.961  40.933  10.986
61123W        W20384   5.363  34.542  13.979
61124W        W20385  16.733  12.844  14.789
61125W        W20386  33.982  12.189   0.945
61126W        W20387  37.345   2.884  13.987
61127W        W20388  11.868  19.168   0.848
61128W        W20389  31.629  22.094  14.507
61129W        W20390   1.370   5.751   0.790
61130W        W20391   5.857  41.030  14.349
61131W        W20392  15.615   4.439  11.943
61132W        W20393  28.496   1.779  14.492
61133W        W20394  10.198  40.423   5.278
61134W        W20395   8.738  29.626   4.751
61135W        W20396  12.790  26.997   0.923
61136W        W20397  36.995   0.353   1.838
61137W        W20398  29.431  17.626  11.544
61138W        W20399  36.487   5.346  11.489
61139W        W20400  43.966  35.476   4.184
61140W        W20401  23.041   3.898  10.634
61141W        W20402   1.431  35.517  12.985
61142W        W20403  15.676  26.060  11.016
61143W        W20404  44.827  39.828   3.686
61144W        W20405   3.415  17.249  11.580
61145W        W20406  40.966  35.999  12.514
61146W        W20407   2.341  11.215   0.845
61147W        W20408   6.746  34.929   0.286
61148W        W20409  41.376   8.793   1.719
61149W        W20410   5.803  37.830   2.391
61150W        W20411   6.762   4.868   1.305
61151W        W20412  15.122   7.291   2.299
61152W        W20413  43.400  24.578   0.289
61153W        W20414  43.322  13.830  13.874
61154W        W20415   2.456   9.849   4.810
61155W        W20416  14.098  21.525  12.349
61156W        W20417  22.507  20.549  10.104
61157W        W20418  31.997  21.167   4.300
61158W        W20419   5.866  35.358   1.932
61159W        W20420  21.239  33.596  10.423
61160W        W20421  24.220  17.129   1.824
61161W        W20422  34.459   5.863   0.432
61162W        W20423   4.438  37.976  12.417
61163W        W20424   2.965  13.260  10.556
61164W        W20425  44.755   0.938   4.787
61165W        W20426   8.173  40.934  11.413
61166W        W20427   9.202   5.414  12.982
61167W        W20428  38.352  36.091  13.414
61168W        W20429  13.172  39.024   1.417
61169W        W20430  35.364  40.874   2.376
61170W        W20431  30.533  38.034  14.367
61171W        W20432  11.170  24.610   2.854
61172W        W20433  26.522  23.659   2.898
61173W        W20434  44.337   9.225   2.694
61174W        W20435  14.218  24.111  10.564
61175W        W20436  18.207  38.984  11.442
61176W        W20437  29.580  43.407   0.905
61177W        W20438  27.084  18.749   3.673
61178W        W20439  26.489  42.386  12.451
61179W        W20440  44.373  37.882   2.800
61180W        W20441   8.830  22.208  13.391
61181W        W20442   5.714  13.324  14.456
61182W        W20443  21.717  43.406  12.881
61183W        W20444  11.309  17.719  11.912
61184W        W20445  16.698  21.130   1.221
61185W        W20446  43.918   4.717   0.850
61186W        W20447  27.679   8.832   3.760
61187W        W20448  15.798  22.566  14.450
61188W        W20449  26.168  27.499   0.437
61189W        W20450  39.856  12.835  13.427
61190W        W20451  17.687  12.698  13.973
61191W        W20452  16.592  28.012   2.229
61192W        W20453  30.539  16.626   3.829
61193W        W20454  24.144  44.457  10.559
61194W        W20455   9.235  23.223  13.896
61195W        W20456   0.446   0.443  11.890
61196W        W20457  16.738   3.417  12.887
61197W        W20458  28.586  36.030   0.836
61198W        W20459  41.807  37.433  12.089
61199W        W20460   0.384  28.006  12.031
61200W        W20461   8.303  33.977   3.849
61201W        W20462  23.592   6.270  13.430
61202W        W20463  16.123  20.680   1.445
61203W        W20464  39.354  43.007   0.743
61204W        W20465  13.757   8.870  14.009
61205W        W20466   1.404  27.129   3.780
61206W        W20467   7.817  18.773   1.444
61207W        W20468  24.642  29.566   4.720
61208W        W20469  18.206  24.178  10.644
61209W        W20470  16.098  39.993  14.492
61210W        W20471  16.577  14.789   4.608
61211W        W20472   1.914  35.381  12.945
61212W        W20473  22.563  41.840  13.050
61213W        W20474  40.808   8.877   2.709
61214W        W20475  30.486   3.853   2.373
61215W        W20476  34.075  12.215  12.844
61216W        W20477   8.304  37.887   3.364
61217W        W20478   8.697  28.608  12.381
61218W        W20479  22.570  14.698  10.571
61219W        W20480   6.897   1.778   2.236
61220W        W20481   8.350  10.215  11.612
61221W        W20482  37.973  17.099  10.485
61222W        W20483  35.546  32.440   1.751
61223W        W20484   6.285   2.775   3.674
61224W        W20485   9.151  35.559  14.904
61225W        W20486   4.425  43.868  12.527
61226W        W20487  23.558   9.237   4.785
61227W        W20488  33.447   9.173   1.738
61228W        W20489  32.109  27.448   3.152
61229W        W20490  29.062   8.399  10.507
61230W        W20491   8.327  36.581   0.395
61231W        W20492  17.727  19.766   1.879
61232W        W20493  18.056  43.503  12.975
61233W        W20494  27.976  32.583   4.219
61234W        W20495  35.972  32.521   5.119
61235W        W20496  42.946   2.329  14.908
61236W        W20497  27.038  14.647   4.640
61237W        W20498  32.077   0.876   3.779
61238W        W20499  40.822  43.011  10.593
61239W        W20500  16.725   9.149  10.588
61240W        W20501   5.929  33.960   4.684
61241W        W20502  23.005   6.865   2.782
61242W        W20503  33.086  18.599   3.223
61243W        W20504  31.908  44.438   9.969
61244W        W20505  23.585  31.898  12.545
61245W        W20506  40.474  33.453   4.751
61246W        W20507  19.259  42.472   0.948
61247W        W20508  28.677  32.552  14.278
61248W        W20509  42.877  11.367  11.077
61249W        W20510   3.352  37.835   1.450
61250W        W20511   7.811   0.302  14.348
61251W        W20512  29.069   0.453  11.570
61252W        W20513  16.188  28.172   0.954
61253W        W20514  44.990  19.651  11.906
61254W        W20515  20.231  44.291   2.772
61255W        W20516  12.845   1.424   1.420
61256W        W20517  17.099  38.899  11.085
61257W        W20518  36.936   2.454   1.878
61258W        W20519  44.478  38.897  13.917
61259W        W20520  28.132  18.675  12.934
61260W        W20521   8.213  25.973  10.959
61261W        W20522  41.887  28.182  10.503
61262W        W20523   8.192  36.405  10.932
61263W        W20524  30.529  29.641   0.867
61264W        W20525  34.582  14.340  12.058
61265W        W20526  31.012  36.348   2.726
61266W        W20527  28.582  39.444   2.189
61267W        W20528  13.278  44.375   3.786
61268W        W20529  33.997  19.648   3.282
61269W        W20530  11.766  12.281  13.995
61270W        W20531   2.273  16.706  12.462
61271W        W20532  13.791  16.706  11.950
61272W        W20533   1.781  36.084  14.294
61273W        W20534   2.277  13.807   4.692
61274W        W20535  37.053   5.318  13.523
61275W        W20536  29.985  41.373   3.270
61276W        W20537  42.841  23.535   3.675
61277W        W20538  24.140  22.204  13.803
61278W        W20539  32.041  25.135   0.944
61279W        W20540  27.566  12.248   1.862
61280W        W20541  18.203  33.945  13.983
61281W        W20542  26.086  40.042  11.480
61282W        W20543   3.841  20.192   1.777
61283W        W20544  43.005   8.850  12.544
61284W        W20545  39.468   8.393   4.704
61285W        W20546  28.141   1.467   2.845
61286W        W20547  18.635  44.820   0.806
61287W        W20548  30.433  23.670  12.939
61288W        W20549  30.483  25.976  11.088
61289W        W20550  44.292  25.159  12.935
61290W        W20551  36.982   3.230  10.529
61291W        W20552   3.935  24.704   3.369
61292W        W20553  23.187   9.756  11.385
61293W        W20554  37.391  39.372   1.915
61294W        W20555  22.686   9.283  11.596
61295W        W20556  38.852  40.832  11.964
61296W        W20557  29.502  16.653  12.961
61297W        W20558  35.465  21.019  12.954
61298W        W20559   6.805  11.808  10.475
61299W        W20560  16.084  33.509  11.918
61300W        W20561  43.514  34.421   4.127
61301W        W20562  31.933  27.965  13.365
61302W        W20563   3.244  30.518   1.783
61303W        W20564  15.164  13.325   4.613
61304W        W20565  34.927  10.299  10.595
61305W        W20566  33.079  22.221   0.832
61306W        W20567  44.361  27.119   4.737
61307W        W20568   3.379  36.965  12.551
61308W        W20569  25.076  27.533  14.841
61309W        W20570  30.524  17.703   2.258
61310W        W20571  41.000  36.476  12.010
61311W        W20572   5.280  30.963   2.842
61312W        W20573  30.651  29.608   4.832
61313W        W20574  19.177  23.164  11.112
61314W        W20575   6.700  22.693   1.909
61315W        W20576  19.257   3.363   0.758
61316W        W20577  44.281  27.607   4.317
61317W        W20578   6.759   7.326  12.900
61318W        W20579  16.095   0.373   0.824
61319W        W20580  21.158  32.530   0.347
61320W        W20581  15.663  11.313   9.979
61321W        W20582   5.748  32.529   4.758
61322W        W20583  31.011  36.368   4.141
61323W        W20584  13.801  22.567   0.455
61324W        W20585  23.661  10.309  14.783
61325W        W20586  10.775  20.096  14.916
61326W        W20587   1.847  29.081  13.456
61327W        W20588  17.194  36.575   1.234
61328W        W20589  23.672  25.134  10.535
61329W        W20590  23.109  13.728  13.377
61330W        W20591  31.563  36.966  13.906
61331W        W20592  24.127   8.659   0.736
61332W        W20593  37.962  15.298   4.248
61333W        W20594  35.037  43.429   0.802
61334W        W20595  26.609  11.857   3.281
61335W        W20596  44.942  19.205  13.407
61336W        W20597   2.924  15.142   2.671
61337W        W20598  41.325  29.667  12.925
61338W        W20599  39.370  26.551   2.297
61339W        W20600  23.671  21.026  12.050
61340W        W20601  20.042  28.465   2.864
61341W        W20602  25.581  16.726  11.545
61342W        W20603  38.562  21.738  12.558
61343W        W20604  25.208  23.175   0.367
61344W        W20605  32.985  29.456   1.376
61345W        W20606  44.327  25.604  11.961
61346W        W20607  32.096  41.487  13.819
61347W        W20608   4.835  36.463  13.899
61348W        W20609  32.621   0.399   4.804
61349W        W20610  17.159  11.260   2.352
61350W        W20611  24.124  35.064  14.484
61351W        W20612  33.880  18.169   1.696
61352W        W20613  27.949  22.685  11.590
61353W        W20614   4.860  35.466   1.703
61354W        W20615  35.998  15.248   0.759
61355W        W20616  26.161  23.090  12.874
61356W        W20617  13.299   9.766  14.871
61357W        W20618  40.046  10.325   3.798
61358W        W20619  41.876   0.410  13.315
61359W        W20620  32.592  26.562  14.816
61360W        W20621  15.822   8.831  11.042
61361W        W20622   2.416  40.342  14.839
61362W        W20623  26.032  12.188   1.391
61363W        W20624  25.174   5.726  11.408
61364W        W20625  41.909  38.362  14.968
61365W        W20626  20.067  30.635  10.438
61366W        W20627  42.905  31.409   3.678
61367W        W20628  20.045  18.085  13.466
61368W        W20629  40.835  23.707  10.996
61369W        W20630  25.521  24.153   1.296
61370W        W20631   0.300  26.465  10.937
61371W        W20632   1.388  21.113  11.051
61372W        W20633  31.128  36.959  10.430
61373W        W20634  22.511  29.533   2.811
61374W        W20635  36.932  20.718   0.784
61375W        W20636  13.603  14.769   4.246
61376W        W20637  33.555  10.366  12.441
61377W        W20638  24.558  44.300  10.486
61378W        W20639  41.942   3.263   1.298
61379W        W20640  28.151  39.556   2.292
61380W        W20641  44.441  23.665  13.464
61381W        W20642  38.458  30.975  14.498
61382W        W20643  10.307  29.083   1.444
61383W        W20644  18.745  43.825   4.354
61384W        W20645  30.641  27.067   4.236
61385W        W20646  16.643  24.166  14.346
61386W        W20647   8.897  19.771  14.328
61387W        W20648   3.251  20.670  11.081
61388W        W20649  20.535   6.413  13.492
61389W        W20650  17.307  33.483   0.276
61390W        W20651   3.813  30.030  14.338
61391W        W20652  18.187  11.128  11.453
61392W        W20653  14.725  22.744   5.271
61393W        W20654  28.073  18.568  11.973
61394W        W20655   4.244   2.909  11.978
61395W        W20656   1.385  39.391  11.954
61396W        W20657  15.619   2.457  14.461
61397W        W20658   0.388   1.479  12.395
61398W        W20659   9.388  41.043   1.776
61399W        W20660  22.216  25.519  14.478
61400W        W20661  14.725  41.884  10.929
61401W        W20662  30.160  44.914  11.405
61402W        W20663  43.388  23.229   3.643
61403W        W20664  20.729  40.430  11.062
61404W        W20665   8.853  22.119   0.944
61405W        W20666  40.485   9.701  11.929
61406W        W20667  17.715  27.109  13.856
61407W        W20668  30.536  38.419   0.745
61408W        W20669  28.678  37.364   2.875
61409W        W20670   0.342   4.741   4.140
61410W        W20671   7.727  35.024  12.966
61411W        W20672  10.646  25.619  11.089
61412W        W20673  37.478  41.815   1.869
61413W        W20674  40.017   5.861  13.948
61414W        W20675  22.215  35.378   2.381
61415W        W20676  27.583  15.279   4.181
61416W        W20677  37.068  22.639   0.893
61417W        W20678   9.322  12.131  12.485
61418W        W20679   5.243   4.397  12.891
61419W        W20680   0.825  40.537   1.381
61420W        W20681   4.286  11.775  10.611
61421W        W20682  29.104  18.588  11.076
61422W        W20683  42.939   2.766   1.446
61423W        W20684  25.134  34.419  14.402
61424W        W20685   1.949   8.345   0.295
61425W        W20686  25.668  26.517   1.754
61426W        W20687  43.875  44.391   4.349
61427W        W20688  36.421  25.513  14.340
61428W        W20689  31.924  42.972   4.606
61429W        W20690   3.864  30.061   1.717
61430W        W20691   3.397  40.508  13.367
61431W        W20692  32.051  39.425  13.477
61432W        W20693  19.658  21.642   4.695
61433W        W20694  40.864  11.758   1.757
61434W        W20695  26.698  36.562   3.375
61435W        W20696  39.368  42.908  11.431
61436W        W20697  14.197  30.135  12.464
61437W        W20698  29.567  21.620   1.423
61438W        W20699  29.608  31.921  14.836
61439W        W20700   3.810  38.058   0.400
61440W        W20701  23.086   3.422  13.996
61441W        W20702  15.730  24.562   2.823
61442W        W20703  23.985   6.864   3.849
61443W        W20704  30.080   7.736   2.232
61444W        W20705  19.748  27.468   0.944
61445W        W20706  15.203  12.221   2.278
61446W        W20707  23.005  23.987   0.377
61447W        W20708  21.681  23.641   3.223
61448W        W20709  27.101  38.510  11.586
61449W        W20710  33.472  40.382  11.394
61450W        W20711  21.189   1.871  12.341
61451W        W20712   6.877  41.486   3.151
61452W        W20713   5.242   4.257  13.886
61453W        W20714  26.661  37.080   3.866
61454W        W20715  19.606  38.454  14.292
61455W        W20716  35.893   9.319   1.369
61456W        W20717  17.188  15.277   4.616
61457W        W20718  22.141  12.199  10.900
61458W        W20719  44.449  30.459   5.240
61459W        W20720  31.605  35.506   3.203
61460W        W20721  15.131  16.293  10.133
61461W        W20722  16.645  19.145   4.836
61462W        W20723  31.931   7.720   2.415
61463W        W20724  18.683  43.297  10.909
61464W        W20725  27.195  34.598   0.396
61465W        W20726  42.004  30.600  14.453
61466W        W20727  21.111   5.313   2.361
61467W        W20728  11.672  21.526  11.859
61468W        W20729   1.795  26.040  11.428
61469W        W20730   0.950  32.915  12.042
61470W        W20731  16.163  17.259   1.271
61471W        W20732  37.378  37.365  11.929
61472W        W20733  30.912  44.439   3.337
61473W        W20734   9.818  29.081   3.740
61474W        W20735  35.504  40.476   4.123
61475W        W20736  18.555  24.207  11.456
61476W        W20737  14.239  31.916   0.910
61477W        W20738  16.691  29.619  10.937
61478W        W20739  42.918  40.869  13.416
61479W        W20740  12.774  28.010  10.605
61480W        W20741  11.804  11.811  14.474
61481W        W20742   0.886  38.943   0.257
61482W        W20743  43.890   3.222   4.166
61483W        W20744  32.082   5.782   4.348
61484W        W20745  18.688  44.800   1.387
61485W        W20746  32.038  20.718   2.871
61486W        W20747  22.228  14.812  10.496
61487W        W20748   0.882  15.783   5.242
61488W        W20749  14.224  38.841   3.847
61489W        W20750  35.422  26.171   1.294
61490W        W20751  37.416  42.439  14.427
61491W        W20752  15.762  30.145   0.916
61492W        W20753  38.877  28.973   0.755
61493W        W20754  38.549   6.903   0.924
61494W        W20755  42.916  21.629   3.632
61495W        W20756   7.901   0.923   4.285
61496W        W20757  30.568  18.064  10.948
61497W        W20758  16.811  37.354  12.504
61498W        W20759  11.689  18.658  13.058
61499W        W20760  18.116  23.706  14.017
61500W        W20761   3.454   4.714   0.886
61501W        W20762  16.311  24.614   4.750
61502W        W20763  10.704  18.253   1.215
61503W        W20764  33.977  33.942   4.601
61504W        W20765  26.564  20.760   0.787
61505W        W20766  34.495  22.038   1.817
61506W        W20767   0.332   1.909   2.687
61507W        W20768  40.380  26.589   1.783
61508W        W20769  36.858  23.165  12.517
61509W        W20770  11.307   6.328   3.310
61510W        W20771  32.043   6.284   0.462
61511W        W20772  43.353   3.418  12.461
61512W        W20773  42.477  34.031   5.287
61513W        W20774   5.927  38.423  14.003
61514W        W20775   5.823   8.400   1.838
61515W        W20776  31.632  33.509   4.228
61516W        W20777  31.025  44.944   1.893
61517W        W20778  36.572  44.463   1.422
61518W        W20779  24.018   0.282   3.793
61519W        W20780   5.722   4.362  10.417
61520W        W20781  41.518  25.996  11.936
61521W        W20782  38.970  34.945  13.939
61522W        W20783  21.563   2.953   0.463
61523W        W20784  21.632  22.234   1.860
61524W        W20785  37.046  30.979   4.319
61525W        W20786  22.203  34.019   2.674
61526W        W20787  38.546  12.693  13.468
61527W        W20788  43.961   8.398   1.865
61528W        W20789  27.143  13.248   3.863
61529W        W20790   6.806   9.289   1.738
61530W        W20791   3.840  12.123   1.722
61531W        W20792  30.555  34.577   3.161
61532W        W20793  14.131  30.413   0.283
61533W        W20794  26.685  18.589  14.910
61534W        W20795   3.815  19.701  14.009
61535W        W20796  18.789  14.619  11.929
61536W        W20797  24.604  29.093   1.336
61537W        W20798  20.559  20.168  13.359
61538W        W20799   2.744   9.884  13.001
61539W        W20800  33.557  12.207  14.409
61540W        W20801  12.166   9.281  13.040
61541W        W20802   7.878   6.716   0.359
61542W        W20803  38.926  41.452   0.471
61543W        W20804  10.767  37.421  14.516
61544W        W20805  18.787   2.937  12.435
61545W        W20806  24.087  14.817   0.743
61546W        W20807  31.618   7.749  13.898
61547W        W20808  12.328  21.723   3.349
61548W        W20809  36.893  14.638   2.238
61549W        W20810  26.603   1.483   2.828
61550W        W20811  28.465  11.135  12.474
61551W        W20812   7.673  42.406  14.435
61552W        W20813  15.790  21.739   5.578
61553W        W20814   7.228  24.066   1.838
61554W        W20815   6.416  11.803  14.965
61555W        W20816  35.601  18.222   3.838
61556W        W20817  42.392   8.781   3.806
61557W        W20818  28.024  23.115   4.297
61558W        W20819  31.001  43.851   0.437
61559W        W20820  35.538  21.020   1.273
61560W        W20821   6.792   6.426   3.676
61561W        W20822  17.076  13.707  13.799
61562W        W20823  21.165  14.742   0.435
61563W        W20824  43.960  37.565  14.801
61564W        W20825  43.983   3.258  13.829
61565W        W20826  22.197   8.193  12.379
61566W        W20827   8.338  30.988   1.804
61567W        W20828  34.866  10.165   4.657
61568W        W20829  33.578  14.636   3.375
61569W        W20830   8.387  37.052  12.992
61570W        W20831  22.180   8.786  10.410
61571W        W20832  12.265  28.965   2.758
61572W        W20833  10.694  36.499   0.309
61573W        W20834  22.153  13.194   3.661
61574W        W20835  31.996  27.041  13.459
61575W        W20836  15.762  22.168   0.362
61576W        W20837   9.264  43.454   1.276
61577W        W20838  29.065   9.302   3.839
61578W        W20839  23.662  27.617  12.948
61579W        W20840  35.084  25.522   0.318
61580W        W20841   5.354   2.295  12.345
61581W        W20842  40.443  32.083  10.519
61582W        W20843  17.584  41.483   3.867
61583W        W20844  11.238  11.232   2.215
61584W        W20845  29.563  25.677  14.006
61585W        W20846  38.841  30.641  12.462
61586W        W20847  23.075  12.687   1.857
61587W        W20848  18.725  22.078  11.890
61588W        W20849  38.010   2.753   4.346
61589W        W20850  23.186  43.444  10.996
61590W        W20851  31.129  35.007  11.504
61591W        W20852  12.691  35.363   4.347
61592W        W20853  20.647  13.774   2.791
61593W        W20854  20.612  20.179   0.482
61594W        W20855  34.501  19.257   3.304
61595W        W20856  32.480  33.995  13.399
61596W        W20857  32.531   4.276   0.818
61597W        W20858  14.308   3.902   3.847
61598W        W20859  41.953  17.663  14.415
61599W        W20860  21.535  34.894   1.696
61600W        W20861  26.177   9.226  14.870
61601W        W20862  38.356  27.457  11.951
61602W        W20863  14.814  10.838  11.102
61603W        W20864   0.352  36.912  13.371
61604W        W20865  34.401  39.474  14.914
61605W        W20866  25.568  26.531   4.810
61606W        W20867  44.316   8.862   1.214
61607W        W20868  16.687  23.700   3.381
61608W        W20869   8.896  34.875   0.320
61609W        W20870  33.906  28.540   1.706
61610W        W20871  26.580   7.729  12.945
61611W        W20872  13.685  27.464  13.324
61612W        W20873  39.487   8.242  13.033
61613W        W20874   2.229  44.280  12.867
61614W        W20875   6.691  40.965   3.794
61615W        W20876   6.375  21.123   4.170
61616W        W20877  22.572   1.309  11.598
61617W        W20878   5.247   2.745  10.473
61618W        W20879  10.243  24.054  11.595
61619W        W20880   4.217  34.042  12.369
61620W        W20881  21.189  29.083  12.089
61621W        W20882  28.118  44.465   0.805
61622W        W20883  31.526  22.016   3.699
61623W        W20884  37.057   4.806  14.771
61624W        W20885   5.365   6.363  11.476
61625W        W20886   3.333  44.004   2.676
61626W        W20887  39.355  40.947   0.945
61627W        W20888  35.372   7.214  11.023
61628W        W20889   2.746  44.975  14.763
61629W        W20890  37.530  26.070   2.225
61630W        W20891  20.724  42.015   1.233
61631W        W20892  35.919  22.130  13.957
61632W        W20893  39.980   0.288  14.853
61633W        W20894  18.778  41.311  13.051
61634W        W20895  43.337  14.124  12.909
61635W        W20896  14.623  33.491  12.536
61636W        W20897   1.822  34.388   3.670
61637W        W20898   7.184  12.171   1.879
61638W        W20899  22.235   6.737  11.600
61639W        W20900  35.429  36.487   2.391
61640W        W20901  26.976  16.575   3.280
61641W        W20902  20.645  43.844  12.546
61642W        W20903  36.846  21.142  12.444
61643W        W20904  30.548   2.372  12.507
61644W        W20905  40.450   1.462   2.387
61645W        W20906  24.120  21.244   4.255
61646W        W20907   4.407   0.986  10.959
61647W        W20908  23.175   5.738  13.970
61648W        W20909  23.180  40.903   0.939
61649W        W20910  44.416  13.831  11.445
61650W        W20911  37.866  21.553   4.207
61651W        W20912   3.927   3.355  10.472
61652W        W20913  35.990  24.665   4.233
61653W        W20914   4.741  29.038  14.299
61654W        W20915  42.333  14.123   3.762
61655W        W20916  43.345  44.947  11.992
61656W        W20917  10.269  13.256  11.061
61657W        W20918   2.399   5.359   1.238
61658W        W20919   4.916  23.170  14.960
61659W        W20920   3.411  23.495  14.412
61660W        W20921  43.313  41.502  10.964
61661W        W20922  25.983  25.170  14.314
61662W        W20923  30.649  30.635   1.439
61663W        W20924  37.431  16.705  14.432
61664W        W20925  30.530  23.573   0.464
61665W        W20926   4.311  35.867  14.356
61666W        W20927   3.331   5.835  13.431
61667W        W20928  11.158   2.353   0.320
61668W        W20929   6.253  24.119  11.101
61669W        W20930  11.651  25.606  11.977
61670W        W20931  29.159   1.974  13.002
61671W        W20932  17.258  42.850  10.042
61672W        W20933  19.662  24.697  12.033
61673W        W20934  10.817  15.687   0.933
61674W        W20935  11.725  33.957   3.194
61675W        W20936  19.711  28.020  10.457
61676W        W20937   3.789  17.619  12.018
61677W        W20938  23.124  43.875  14.877
61678W        W20939  16.572  19.625  11.088
61679W        W20940  22.085  37.031  13.890
61680W        W20941  30.435  19.156   0.940
61681W        W20942  25.130  44.855   2.328
61682W        W20943  39.054   6.193  11.469
61683W        W20944  31.936  28.582   0.252
61684W        W20945  38.529  32.534   2.763
61685W        W20946  16.122  42.868  11.091
61686W        W20947  18.761  25.988   3.189
61687W        W20948  39.031  36.050  10.628
61688W        W20949  10.671  42.021  12.050
61689W        W20950   0.286  13.106   3.665
61690W        W20951  16.152  40.362   1.393
61691W        W20952  28.548  25.022   1.242
61692W        W20953  43.891  10.726  11.439
61693W        W20954  29.657  43.797   2.184
61694W        W20955  11.669  10.706  14.513
61695W        W20956  34.993  11.332   0.382
61696W        W20957  14.154  11.140  14.030
61697W        W20958  20.248  14.306  11.504
61698W        W20959  21.744  34.953   2.379
61699W        W20960  33.978   8.820  10.997
61700W        W20961  32.129  43.865  10.620
61701W        W20962  31.143  27.670   1.241
61702W        W20963  43.344  10.325   1.279
61703W        W20964  39.981  43.385   2.743
61704W        W20965  13.700  19.231   0.827
61705W        W20966  19.759  28.122   4.220
61706W        W20967   2.311  19.261   0.910
61707W        W20968  25.642  19.137   4.724
61708W        W20969  42.957  28.153  10.421
61709W        W20970  14.676  20.093   1.840
61710W        W20971   9.317  34.053   2.825
61711W        W20972  29.136  39.345   2.772
61712W        W20973  23.662  24.029   2.872
61713W        W20974  16.135  24.103   4.186
61714W        W20975  34.494  26.999   1.435
61715W        W20976   2.277  39.318   1.358
61716W        W20977   1.894   8.348   4.134
61717W        W20978  34.990  36.883  11.936
61718W        W20979  31.611  38.880   0.264
61719W        W20980   6.803  12.274   3.721
61720W        W20981  11.310  11.371  14.460
61721W        W20982  42.032   1.815   0.264
61722W        W20983  34.395  11.809   3.213
61723W        W20984  34.032  23.133   2.870
61724W        W20985  27.099  16.568  12.933
61725W        W20986  41.461  29.496  14.285
61726W        W20987  21.262  16.808  13.874
61727W        W20988  41.899  32.009   3.846
61728W        W20989  24.993   6.428   2.743
61729W        W20990  15.787  42.365  10.928
61730W        W20991   4.861  35.055  14.285
61731W        W20992  44.867  39.863   2.351
61732W        W20993  14.742  39.370  12.982
61733W        W20994  38.336  15.137   1.294
61734W        W20995   5.838  32.052   4.642
61735W        W20996  15.736  16.121   4.691
61736W        W20997  31.124  16.104  12.928
61737W        W20998  38.026  16.782  14.813
61738W        W20999  31.123  29.428  10.957
61739W        W21000   7.360  39.880   0.285
61740W        W21001  32.564  19.099  12.544
61741W        W21002  23.662  28.147  12.370
61742W        W21003  15.644   9.657   1.892
61743W        W21004   6.399  29.959  10.922
61744W        W21005   0.945  26.577  14.275
61745W        W21006  31.448  42.956   3.765
61746W        W21007  14.156   2.366   1.728
61747W        W21008  16.078  37.014   0.408
61748W        W21009  44.451  26.143  10.019
61749W        W21010   7.681  31.467  11.601
61750W        W21011  29.143  28.567  13.371
61751W        W21012  16.312   6.761  12.533
61752W        W21013  11.366  14.732   2.771
61753W        W21014   1.310  13.756  14.391
61754W        W21015  15.229  40.954  10.585
61755W        W21016  22.724  12.750  11.425
61756W        W21017  36.567  29.066   2.801
61757W        W21018  24.486  18.095   0.315
61758W        W21019  20.252  25.656  10.428
61759W        W21020   6.299  20.215  14.973
61760W        W21021  21.051  32.398  14.384
61761W        W21022  33.941  19.131  11.444
61762W        W21023   4.730  17.118   4.659
61763W        W21024  21.067  21.252  12.024
61764W        W21025  41.364  14.124   1.429
61765W        W21026  44.464   1.481  14.477
61766W        W21027  25.628  34.985  11.906
61767W        W21028  28.546   4.325  13.939
61768W        W21029  36.431  25.158   3.223
61769W        W21030  42.929  16.775  13.472
61770W        W21031   9.822  38.325  14.435
61771W        W21032  15.691  16.280   0.794
61772W        W21033  36.994   5.882  13.813
61773W        W21034  27.971  43.800   4.116
61774W        W21035  11.628  31.639  11.991
61775W        W21036  10.813   3.798   2.762
61776W        W21037  18.595  16.250  13.045
61777W        W21038   9.214  25.479  12.476
61778W        W21039  37.571   1.817  14.504
61779W        W21040  11.756  23.135  11.976
61780W        W21041  40.455   8.731  10.532
61781W        W21042  12.316  28.505  13.879
61782W        W21043  18.576  37.014  10.478
61783W        W21044   8.359  29.950  13.018
61784W        W21045  33.050   6.418  10.614
61785W        W21046  41.439  35.108  14.018
61786W        W21047  43.283  19.718  13.902
61787W        W21048  16.183  31.548  14.787
61788W        W21049   7.887  25.570  13.059
61789W        W21050  39.345  14.204   0.245
61790W        W21051  13.846   8.399   3.862
61791W        W21052  40.943  11.130  14.997
61792W        W21053  40.052  31.431   0.279
61793W        W21054  30.996  14.697   0.890
61794W        W21055  33.931   7.757  11.943
61795W        W21056  17.076  32.980  14.329
61796W        W21057   1.463  21.652  10.459
61797W        W21058  40.971  41.789  12.577
61798W        W21059   2.335  24.108   0.751
61799W        W21060  26.184  27.131  12.360
61800W        W21061  34.532  27.462   1.829
61801W        W21062  35.390  15.202  11.956
61802W        W21063  21.143   8.166   2.710
61803W        W21064  14.740  42.505   3.168
61804W        W21065  12.850  42.390   2.309
61805W        W21066  27.673   5.734  10.995
61806W        W21067  12.224  36.842  13.956
61807W        W21068  34.594  43.767   5.227
61808W        W21069  35.498  21.748   3.679
61809W        W21070   8.835   3.836   0.382
61810W        W21071  14.247  22.720   2.204
61811W        W21072  38.498  20.707   1.914
61812W        W21073  41.503  30.551  13.956
61813W        W21074  35.011  32.534   2.757
61814W        W21075  37.955  44.395  10.965
61815W        W21076  16.118  15.696   3.232
61816W        W21077  32.006   6.320   4.336
61817W        W21078  16.242  25.179  13.385
61818W        W21079  44.868  20.232   2.202
61819W        W21080  35.598  16.237   2.764
61820W        W21081  14.834  27.452  11.041
61821W        W21082  28.077  22.708  11.120
61822W        W21083  44.835  43.364   4.139
61823W        W21084  31.507   5.764  10.426
61824W        W21085  25.615  21.116  10.574
61825W        W21086  38.954  38.468   3.332
61826W        W21087  15.645  16.201   2.361
61827W        W21088  20.077  44.915   4.607
61828W        W21089  27.627   4.942  13.545
61829W        W21090  11.303  31.430   2.282
61830W        W21091  20.084  31.448  10.941
61831W        W21092  14.215  42.456  11.550
61832W        W21093  32.514  14.751  14.438
61833W        W21094  24.108  35.047  11.089
61834W        W21095  22.643  36.584  10.618
61835W        W21096  14.106  28.628   2.818
61836W        W21097   5.751  19.591   0.308
61837W        W21098   0.970  31.031  13.515
61838W        W21099  32.600   8.253   1.863
61839W        W21100  38.522  33.015   9.498
61840W        W21101  32.599  17.802   3.819
61841W        W21102  11.720  32.392   4.243
61842W        W21103  35.556  26.089  14.870
61843W        W21104  27.011  21.577   0.293
61844W        W21105  35.862  44.482   3.643
61845W        W21106  11.654  43.402  13.929
61846W        W21107  43.317  27.000   1.266
61847W        W21108  30.447  37.441  13.356
61848W        W21109   3.279  22.691  13.314
61849W        W21110  26.623  32.591  14.358
61850W        W21111  16.193  22.517  14.503
61851W        W21112  19.220   5.755   2.308
61852W        W21113  34.869  16.639  11.377
61853W        W21114  31.907   2.799  10.496
61854W        W21115  32.413  21.568   4.743
61855W        W21116   9.206  36.461  10.639
61856W        W21117  35.049   7.739   0.941
61857W        W21118  41.864  13.242  13.946
61858W        W21119  28.483  11.281   1.441
61859W        W21120  17.175  39.358   2.354
61860W        W21121  42.372  38.903  13.403
61861W        W21122  31.549  33.010   3.335
61862W        W21123  18.666  21.090  11.079
61863W        W21124  33.404   6.774  11.582
61864W        W21125  27.551  44.395   2.375
61865W        W21126   2.422  13.773   0.868
61866W        W21127  38.350  33.956   3.790
61867W        W21128  39.001  33.460   0.916
61868W        W21129  17.685   7.819   4.133
61869W        W21130  38.350  28.043   2.678
61870W        W21131  31.942  22.133   3.312
61871W        W21132   3.225  40.825  12.003
61872W        W21133   4.416   6.280   3.188
61873W        W21134   0.471  28.668  14.869
61874W        W21135  43.017  35.954   4.651
61875W        W21136  19.747  22.228  13.924
61876W        W21137  16.653  37.066   3.249
61877W        W21138  23.004  20.235   2.807
61878W        W21139  39.328  27.000  12.409
61879W        W21140  36.368  34.869  12.938
61880W        W21141  28.644  25.476   3.150
61881W        W21142  21.143  14.595  11.895
61882W        W21143  39.904  16.177   0.833
61883W        W21144   9.269  29.975   0.922
61884W        W21145  11.862  27.466  10.946
61885W        W21146  43.305  11.294   0.255
61886W        W21147  39.886  26.703   3.309
61887W        W21148  11.206   0.845   4.326
61888W        W21149  35.019   9.176  13.465
61889W        W21150  37.401   4.261  10.546
61890W        W21151   0.816   9.365  14.424
61891W        W21152  15.188  14.709   0.802
61892W        W21153  32.932  23.038  11.855
61893W        W21154  32.635   9.269  12.959
61894W        W21155  39.056  21.213   0.482
61895W        W21156  23.613  42.805  13.887
61896W        W21157  18.142   5.737  13.037
61897W        W21158  43.825  44.779   1.388
61898W        W21159  13.346  13.287   2.180
61899W        W21160   1.873  22.128   1.221
61900W        W21161  38.985  33.507  11.105
61901W        W21162  31.488  40.017  11.860
61902W        W21163  26.467  16.295  11.584
61903W        W21164  41.801  14.696  12.376
61904W        W21165   5.707  11.846   0.911
61905W        W21166  33.427  40.440  14.967
61906W        W21167  10.779  40.039  13.991
61907W        W21168  25.208  19.553  10.483
61908W        W21169  23.605  15.767   1.302
61909W        W21170  35.547  26.603  14.329
61910W        W21171  43.821  15.681   2.707
61911W        W21172   8.216  26.162   4.208
61912W        W21173  27.154   9.831   3.666
61913W        W21174  44.295  26.665   1.295
61914W        W21175  29.448   7.224   0.361
61915W        W21176  27.189  26.094  13.486
61916W        W21177   7.842  33.108  13.486
61917W        W21178   6.187  29.009  11.903
61918W        W21179  22.637   2.855  11.574
61919W        W21180  33.970  15.217  13.833
61920W        W21181   4.273  37.065   1.819
61921W        W21182  44.296  25.124   1.445
61922W        W21183  33.572  37.549   2.221
61923W        W21184  34.505   8.312   4.264
61924W        W21185  13.647   6.700   3.283
61925W        W21186   3.949  11.279   1.737
61926W        W21187  14.785   1.932  10.919
61927W        W21188  20.259  40.338   4.779
61928W        W21189  22.699   6.802   4.736
61929W        W21190  14.743  31.469   3.147
61930W        W21191  39.472  11.233  11.907
61931W        W21192  36.006  13.278   4.119
61932W        W21193  36.041  16.147   1.808
61933W        W21194   5.432  33.072   3.641
61934W        W21195  31.024  13.252   4.818
61935W        W21196  11.128  14.820  12.930
61936W        W21197  42.787   9.735  12.991
61937W        W21198  38.839   5.806   0.273
61938W        W21199  31.980   8.214  12.502
61939W        W21200  14.803  38.890   2.191
61940W        W21201   0.965  22.573   2.810
61941W        W21202  13.290   2.356  10.090
61942W        W21203  33.100   0.853   0.880
61943W        W21204  11.224  26.525   1.308
61944W        W21205  10.633  23.536  14.848
61945W        W21206  42.938   7.266   2.768
61946W        W21207  13.668   0.812  10.454
61947W        W21208  10.241  19.230  10.541
61948W        W21209  44.355   3.898   1.317
61949W        W21210  14.786   4.294   2.367
61950W        W21211  30.063  35.967  11.968
61951W        W21212  14.746  13.329   2.816
61952W        W21213  12.257   7.305   1.239
61953W        W21214   1.369  41.806  11.429
61954W        W21215  28.973  26.542  13.939
61955W        W21216   3.895  45.000  14.424
61956W        W21217  25.474  29.098   1.918
61957W        W21218  42.852   6.400  11.075
61958W        W21219  39.868   1.412   4.118
61959W        W21220  18.088  13.769  11.569
61960W        W21221  36.958   0.297  10.451
61961W        W21222   0.815  13.807   1.843
61962W        W21223  27.628  38.567  11.389
61963W        W21224  30.529   5.275   2.366
61964W        W21225  35.601  13.766  12.448
61965W        W21226  36.561   1.249   4.815
61966W        W21227  20.644  21.575  12.459
61967W        W21228   1.284  39.376  12.391
61968W        W21229  44.267  12.715  11.037
61969W        W21230   7.314  34.962   1.412
61970W        W21231  26.653  15.623   0.473
61971W        W21232  17.070  37.879  12.025
61972W        W21233  22.506  44.949  12.396
61973W        W21234   7.309  12.244  10.457
61974W        W21235   9.673  24.225   2.417
61975W        W21236  24.985  40.808  12.345
61976W        W21237  16.266  38.395   1.403
61977W        W21238  34.377  12.845  13.365
61978W        W21239   8.208  16.154  11.980
61979W        W21240  14.178  43.917   2.377
61980W        W21241  29.150  34.938  12.914
61981W        W21242  13.683  20.713   0.877
61982W        W21243  26.014  16.110   1.931
61983W        W21244  13.158   5.238  12.012
61984W        W21245  26.084  42.881   0.880
61985W        W21246  40.428  14.340  14.976
61986W        W21247  11.268  41.321  13.428
61987W        W21248  29.019   3.900  13.812
61988W        W21249   6.873  16.184  11.937
61989W        W21250  14.148  15.297  10.427
61990W        W21251  19.748  28.154   3.673
61991W        W21252   7.292  36.550   3.333
61992W        W21253  28.101  19.731  12.409
61993W        W21254  30.607   6.840   4.228
61994W        W21255  26.134   7.399  13.055
61995W        W21256  39.353  18.194  12.891
61996W        W21257  44.975   6.270   2.739
61997W        W21258  22.626   5.249  11.917
61998W        W21259  34.485  14.152   0.344
61999W        W21260  18.160  39.494  14.953
62000W        W21261  42.933  23.176   1.883
62001W        W21262  42.969  10.262   3.779
62002W        W21263  20.571   2.870   2.393
62003W        W21264  37.575   6.306  12.824
62004W        W21265  34.471   4.319   3.165
62005W        W21266  24.610   1.257   2.409
62006W        W21267  33.433   5.832   2.841
62007W        W21268  37.403  24.083  14.032
62008W        W21269  16.619  15.325   4.257
62009W        W21270  13.673   2.312  13.490
62010W        W21271  39.051   3.371  12.845
62011W        W21272  17.783  36.443  13.341
62012W        W21273  18.646  31.535  10.959
62013W        W21274  37.574  15.761   2.188
62014W        W21275   0.469   7.316   1.933
62015W        W21276  26.996  35.974   9.980
62016W        W21277  25.578   1.476   3.673
62017W        W21278  27.499  30.489  12.065
62018W        W21279  15.600  17.063  11.005
62019W        W21280  40.520  32.053   1.712
62020W        W21281   3.411  30.049   4.632
62021W        W21282   1.280  40.480  14.478
62022W        W21283  15.784  35.367   1.379
62023W        W21284  26.021  35.451  11.593
62024W        W21285  21.217   6.250  10.412
62025W        W21286  35.056  16.110   2.783
62026W        W21287  28.464  10.803   4.699
62027W        W21288  22.222  21.641  13.343
62028W        W21289  11.273  24.072  11.549
62029W        W21290   5.858  43.492  13.894
62030W        W21291  33.594  19.121  10.981
62031W        W21292  17.077   0.465  11.433
62032W        W21293  30.069  41.882  10.994
62033W        W21294  40.017  19.655  12.413
62034W        W21295  13.130  33.977  13.482
62035W        W21296  22.082  12.672   3.242
62036W        W21297   1.769   6.224  13.534
62037W        W21298  10.361   9.744  11.885
62038W        W21299  16.602  19.665  13.038
62039W        W21300  18.225  17.744   5.228
62040W        W21301  32.617  24.666   2.267
62041W        W21302  35.854  44.940  13.377
62042W        W21303   7.299  31.595  14.915
62043W        W21304  17.270  10.871  12.958
62044W        W21305   4.845  16.628   0.960
62045W        W21306  20.249  41.441   4.814
62046W        W21307  13.160   4.736   4.712
62047W        W21308  15.823  42.488  14.457
62048W        W21309   6.761  13.240   5.284
62049W        W21310  10.650  26.507  13.805
62050W        W21311  22.715  38.330   4.762
62051W        W21312  32.624  29.165   0.905
62052W        W21313   2.447  33.905  14.953
62053W        W21314   2.821   3.374  11.909
62054W        W21315  37.019  34.101  14.354
62055W        W21316  21.118  31.638   2.356
62056W        W21317  20.236  29.470  12.550
62057W        W21318   5.868  23.725   2.202
62058W        W21319   1.268  26.696   4.792
62059W        W21320  13.313  38.485   3.694
62060W        W21321   5.817  12.225   1.747
62061W        W21322  40.942  40.380   4.740
62062W        W21323   8.663   1.376  12.949
62063W        W21324   7.819  33.115   1.315
62064W        W21325   1.926   8.701   2.877
62065W        W21326  27.672  24.173   2.787
62066W        W21327  34.904  23.720  14.792
62067W        W21328  34.601  21.726   1.328
62068W        W21329  17.586   7.350   2.191
62069W        W21330  15.142  40.942   0.324
62070W        W21331  22.141   8.162   1.295
62071W        W21332  12.793  37.573  14.487
62072W        W21333  13.217   4.828  11.532
62073W        W21334  28.950   8.708   0.903
62074W        W21335  11.785  34.370   1.832
62075W        W21336  36.407  28.138   3.166
62076W        W21337  14.675   0.429  10.452
62077W        W21338  34.464  23.103   3.691
62078W        W21339  33.525   0.951   4.658
62079W        W21340  28.534  31.102   0.849
62080W        W21341  43.310   9.807   1.249
62081W        W21342  18.756  25.603   3.362
62082W        W21343  24.500  31.996  14.829
62083W        W21344   6.229  41.498  14.892
62084W        W21345  23.200  19.556  12.490
62085W        W21346  33.471   0.797  12.025
62086W        W21347  39.889  44.762  12.921
62087W        W21348  16.709  40.891  13.891
62088W        W21349   3.922  17.192  10.905
62089W        W21350  21.090  10.336  11.082
62090W        W21351  24.118  30.445   1.774
62091W        W21352  44.799   5.697  10.908
62092W        W21353   5.237  13.753  13.530
62093W        W21354  35.880   9.288   2.743
62094W        W21355  37.903   3.403  11.065
62095W        W21356  17.302  38.988   4.185
62096W        W21357  22.625  43.466  10.512
62097W        W21358   3.234  19.779  10.959
62098W        W21359  37.838  34.562   1.284
62099W        W21360  44.796  19.620   3.858
62100W        W21361  24.161  25.042  13.793
62101W        W21362  22.046   9.836   3.191
62102W        W21363  10.145  32.542   2.762
62103W        W21364  33.434  25.120  11.047
62104W        W21365  13.814  33.609  12.439
62105W        W21366  25.978  41.372   4.251
62106W        W21367  16.168  30.135   0.736
62107W        W21368  28.988  19.067   1.745
62108W        W21369   8.403  13.122  13.354
62109W        W21370  24.623  16.731  11.380
62110W        W21371  21.026  41.803  12.904
62111W        W21372  29.058  29.619   1.313
62112W        W21373  41.309  44.364   0.424
62113W        W21374  42.321  25.008  12.009
62114W        W21375  33.058  27.672  13.802
62115W        W21376   7.211  10.248  10.583
62116W        W21377  30.923  34.611  14.321
62117W        W21378  34.957  37.364   1.815
62118W        W21379  18.058  42.946   2.205
62119W        W21380   0.864  11.208  10.009
62120W        W21381  23.082  21.191   3.750
62121W        W21382   1.917  39.388  14.319
62122W        W21383  32.589  44.460  12.473
62123W        W21384   4.270  32.496  11.032
62124W        W21385  39.926  25.109  12.495
62125W        W21386  12.179  24.224  12.537
62126W        W21387   1.948  32.004  10.426
62127W        W21388  25.001  20.096   0.963
62128W        W21389  30.102  39.977   3.209
62129W        W21390  31.618  38.874  13.956
62130W        W21391  41.922  10.240  14.299
62131W        W21392  38.394   8.231  12.049
62132W        W21393   4.722  18.569   0.841
62133W        W21394  26.053   9.798   3.718
62134W        W21395   3.275   5.840  12.022
62135W        W21396  39.951   6.191   2.735
62136W        W21397  43.981  14.289   4.240
62137W        W21398  31.405  14.771   3.670
62138W        W21399   0.325   2.435   0.380
62139W        W21400  33.052   2.439   3.323
62140W        W21401  34.416  10.264  12.053
62141W        W21402  38.460  15.769  13.315
62142W        W21403  23.687   1.971  10.484
62143W        W21404  14.760  10.169   3.774
62144W        W21405   3.946  43.870   4.164
62145W        W21406  19.670  23.538  11.523
62146W        W21407   8.753  13.300   1.300
62147W        W21408  11.307  18.158   1.259
62148W        W21409   8.854  40.316   5.230
62149W        W21410  43.398  14.273   3.815
62150W        W21411  31.432  29.984   3.240
62151W        W21412  24.654  25.613  14.975
62152W        W21413  13.808   3.854  10.635
62153W        W21414  40.494  34.401   4.123
62154W        W21415   0.309  22.587  14.031
62155W        W21416   1.901  10.279  11.557
62156W        W21417   1.892  34.905   0.795
62157W        W21418  28.663   4.300  14.801
62158W        W21419  41.536  25.200   3.634
62159W        W21420  10.714  31.503  14.773
62160W        W21421  33.920  10.197   0.935
62161W        W21422  15.254  18.659   3.287
62162W        W21423  26.483  27.583   4.619
62163W        W21424  44.389  28.080  13.959
62164W        W21425   7.232  17.676  13.416
62165W        W21426  22.164  13.707  11.094
62166W        W21427  40.475  29.160  12.851
62167W        W21428   8.375  39.356  10.935
62168W        W21429  38.902  41.960   1.342
62169W        W21430  29.612  31.572   2.863
62170W        W21431  13.623   6.247  14.839
62171W        W21432  11.201  20.222   3.257
62172W        W21433  28.502  35.363  14.764
62173W        W21434  22.532  37.548   4.307
62174W        W21435  27.690  19.233   0.418
62175W        W21436  42.026  39.538   2.820
62176W        W21437  13.808  38.971   2.329
62177W        W21438  35.085   1.883  10.893
62178W        W21439   0.957  43.856  10.415
62179W        W21440  31.495   9.868  13.862
62180W        W21441  44.874  12.834  10.942
62181W        W21442   0.327  33.112   0.447
62182W        W21443  33.481  18.200  12.842
62183W        W21444  10.853  25.471  13.521
62184W        W21445  31.964   7.248  12.967
62185W        W21446  30.593  10.735  13.023
62186W        W21447  12.824  22.511   1.396
62187W        W21448  40.321  30.981  14.460
62188W        W21449   1.255  38.473  13.334
62189W        W21450  40.442  13.238   3.646
62190W        W21451  33.575  21.039  12.548
62191W        W21452  42.360  36.380   2.685
62192W        W21453  11.731  35.465  11.569
62193W        W21454  13.323  26.039  11.387
62194W        W21455   6.378  23.167  10.636
62195W        W21456  19.650   7.687  13.025
62196W        W21457  12.755  13.626  13.996
62197W        W21458  15.184  42.969  12.441
62198W        W21459  20.703  27.010   5.150
62199W        W21460   9.204  26.684  13.391
62200W        W21461  35.534  14.664   1.227
62201W        W21462  20.158   7.692   4.171
62202W        W21463  41.495  33.072  11.605
62203W        W21464  36.855   8.368  13.978
62204W        W21465  23.690  31.073  11.075
62205W        W21466  27.949  30.977  11.974
62206W        W21467  13.835   6.198  12.083
62207W        W21468  34.055  41.933   3.240
62208W        W21469  43.339  25.166  13.498
62209W        W21470  18.122  10.842   0.446
62210W        W21471  23.101  22.704   3.275
62211W        W21472  16.154   8.774  14.514
62212W        W21473  39.321  42.881  10.570
62213W        W21474  18.208  34.387   2.734
62214W        W21475  37.397   2.286  13.025
62215W        W21476   9.206  37.560  13.020
62216W        W21477  17.153  19.719  12.949
62217W        W21478   1.327   1.433  11.862
62218W        W21479  22.592  25.055  14.765
62219W        W21480  39.823  14.320   2.307
62220W        W21481  20.676  28.949   4.747
62221W        W21482  28.492  38.329  12.386
62222W        W21483  37.464  44.413   4.162
62223W        W21484  17.671  19.071  13.962
62224W        W21485   9.181   0.856  11.535
62225W        W21486   2.795  26.047  11.915
62226W        W21487  17.266  44.833   1.928
62227W        W21488  39.504  41.425  11.901
62228W        W21489  25.658  44.847   2.330
62229W        W21490  39.359  30.153   4.190
62230W        W21491  15.649  12.808   9.443
62231W        W21492  32.108  36.084   2.374
62232W        W21493  29.062   8.360   3.356
62233W        W21494  23.111  25.080  14.347
62234W        W21495  44.398  42.493   4.139
62235W        W21496   0.287  29.668  11.443
62236W        W21497   8.208  16.677   2.310
62237W        W21498  10.861  42.489   1.710
62238W        W21499   0.880  38.567  13.520
62239W        W21500   7.717  21.237  11.859
62240W        W21501  25.552  30.158  10.463
62241W        W21502  27.655  22.217   2.339
62242W        W21503   5.916  40.921   0.433
62243W        W21504  37.908  38.845  11.053
62244W        W21505   0.333  32.569   0.955
62245W        W21506  37.072   4.936   3.793
62246W        W21507  11.844  21.627  14.452
62247W        W21508  16.568   3.846  12.899
62248W        W21509  12.736  42.506  14.333
62249W        W21510  27.998  34.453  13.336
62250W        W21511  33.992  42.954  11.404
62251W        W21512  29.104   2.414  12.839
62252W        W21513  44.866   5.194   3.720
62253W        W21514  10.148  38.023   3.865
62254W        W21515  26.660  41.029   3.283
62255W        W21516   0.752  20.669  12.913
62256W        W21517   7.175  18.653   0.753
62257W        W21518  33.512  38.433   1.222
62258W        W21519  33.441  40.930   3.359
62259W        W21520  25.979  36.454  10.918
62260W        W21521  27.999  10.221   4.243
62261W        W21522   8.774  40.000   4.673
62262W        W21523  33.971   6.282   2.237
62263W        W21524   2.850  37.046   4.808
62264W        W21525  25.601  30.481  14.893
62265W        W21526  33.103  38.963  10.913
62266W        W21527  13.346   1.478  11.890
62267W        W21528   8.836   2.455   4.615
62268W        W21529  35.561  19.777   3.282
62269W        W21530  41.395  15.109  10.621
62270W        W21531  42.952  18.555  10.990
62271W        W21532   0.950  35.542   2.234
62272W        W21533  33.075  42.871  14.025
62273W        W21534   3.219  14.153   2.186
62274W        W21535  16.306  11.670   3.761
62275W        W21536  28.671  41.514   4.339
62276W        W21537  34.549  42.305  14.326
62277W        W21538  38.058   9.380   1.267
62278W        W21539   2.796  15.256   4.781
62279W        W21540  35.500  37.006   4.194
62280W        W21541  29.158  26.571  14.506
62281W        W21542  41.790  42.815  12.413
62282W        W21543  31.542  35.965   5.133
62283W        W21544  12.824  25.543   1.236
62284W        W21545  14.675  42.882  14.471
62285W        W21546  13.819  30.037  13.861
62286W        W21547  37.439  28.577   1.838
62287W        W21548  37.057  27.531   3.732
62288W        W21549  26.701  21.061  12.062
62289W        W21550  14.315  11.157   3.640
62290W        W21551   2.742  41.002   3.737
62291W        W21552  14.628  32.935  10.413
62292W        W21553   7.688  42.399   3.697
62293W        W21554  33.604  32.613   1.714
62294W        W21555  36.857  32.142   4.333
62295W        W21556   7.316  19.275   2.684
62296W        W21557  12.183  43.295   4.137
62297W        W21558  39.926  43.353  12.914
62298W        W21559   5.308  20.095   1.829
62299W        W21560   8.385  41.925  11.373
62300W        W21561  17.267  29.934   0.250
62301W        W21562  42.452  23.509  12.486
62302W        W21563  15.205  24.070   4.131
62303W        W21564  10.690  21.075   9.958
62304W        W21565  24.693  26.691  14.985
62305W        W21566  26.466  40.921   4.612
62306W        W21567  22.566  26.180  13.487
62307W        W21568  21.167   9.184  14.281
62308W        W21569  42.310  15.644   3.815
62309W        W21570  39.322   7.781   2.684
62310W        W21571  16.748   9.386  13.848
62311W        W21572   3.454  41.823  13.448
62312W        W21573   4.730  10.770  11.412
62313W        W21574  23.588  30.984  11.431
62314W        W21575  38.907  23.607  12.067
62315W        W21576   1.918  13.216  12.520
62316W        W21577   4.426  30.122   4.301
62317W        W21578  36.515  39.387   2.322
62318W        W21579  33.947  26.966  10.629
62319W        W21580  29.641  39.855  13.855
62320W        W21581  27.664  36.962   3.331
62321W        W21582  18.054  31.973   4.139
62322W        W21583  19.689  10.330   1.888
62323W        W21584   1.898  33.608   0.389
62324W        W21585   0.845  29.164   1.818
62325W        W21586  43.871  25.492   0.306
62326W        W21587  10.718   6.194  12.925
62327W        W21588  35.505   5.306   3.230
62328W        W21589   4.730  35.563   2.731
62329W        W21590  37.544   2.965  14.462
62330W        W21591  21.018  19.561   2.773
62331W        W21592  23.577  28.142   0.899
62332W        W21593  10.188  18.729  10.586
62333W        W21594  15.204  25.700  13.999
62334W        W21595   5.902  22.508  14.454
62335W        W21596  11.176  41.822  13.503
62336W        W21597  19.133  31.111  13.945
62337W        W21598  11.231  21.697  12.497
62338W        W21599  44.846   8.382  12.008
62339W        W21600  26.673   0.440   2.887
62340W        W21601  28.580   4.399   4.141
62341W        W21602   6.370  40.017  14.416
62342W        W21603   9.357  22.647  13.464
62343W        W21604  28.990  18.237  12.981
62344W        W21605   9.713  10.733   3.302
62345W        W21606  20.028   3.786   0.771
62346W        W21607  14.237  30.146   4.335
62347W        W21608   4.235  42.929   1.873
62348W        W21609   5.782  20.066   4.786
62349W        W21610   0.851   3.408   1.877
62350W        W21611   4.327  13.317  13.062
62351W        W21612   9.160  12.659   3.788
62352W        W21613  40.336  35.410   1.236
62353W        W21614  36.922  26.042   2.180
62354W        W21615   4.351  22.037   0.961
62355W        W21616  27.965  43.838   3.716
62356W        W21617  41.306  30.632  11.043
62357W        W21618   9.277   6.414  12.414
62358W        W21619   5.373  16.240   3.151
62359W        W21620  20.226  16.152  14.981
62360W        W21621  13.694   9.274   4.603
62361W        W21622  32.571  28.077  13.332
62362W        W21623  34.575  33.579  14.462
62363W        W21624  41.401  42.479  14.392
62364W        W21625  35.560  40.960  13.363
62365W        W21626  37.418   9.838  11.128
62366W        W21627   5.311  24.007  11.892
62367W        W21628  30.984  19.660   3.223
62368W        W21629  42.345   7.756  11.599
62369W        W21630  22.568  10.171   4.340
62370W        W21631  41.382  34.963  12.495
62371W        W21632  20.098  14.779   0.931
62372W        W21633  15.735  11.316   1.712
62373W        W21634  32.515   6.396   2.802
62374W        W21635  21.095  40.431   1.833
62375W        W21636  25.472  21.703   0.955
62376W        W21637  35.398  19.069  11.979
62377W        W21638  13.105  35.541  10.514
62378W        W21639  13.317  37.482  14.471
62379W        W21640  31.908  18.278  13.849
62380W        W21641  25.468   3.277  10.117
62381W        W21642  21.559   0.892   4.703
62382W        W21643  41.348  26.608   1.419
62383W        W21644  33.391  39.986  12.542
62384W        W21645  25.652  12.147   1.817
62385W        W21646  18.568  16.772  13.912
62386W        W21647  14.324  37.568  13.896
62387W        W21648   3.790  32.396  12.848
62388W        W21649  33.085  43.486   1.876
62389W        W21650  19.179  37.443   1.892
62390W        W21651   7.711  36.999   4.699
62391W        W21652  19.555  14.683  10.415
62392W        W21653  40.303  43.286   3.793
62393W        W21654  17.233  33.963   1.279
62394W        W21655   2.422  40.478  13.532
62395W        W21656   7.798  25.571  11.037
62396W        W21657  36.085  42.982  12.995
62397W        W21658  25.218  41.001   1.935
62398W        W21659  23.225   8.392  12.976
62399W        W21660  28.129  29.962   2.286
62400W        W21661  44.331  12.849  14.853
62401W        W21662  11.658   8.249   2.216
62402W        W21663   5.807  18.248  11.861
62403W        W21664  32.555  41.820  12.854
62404W        W21665  39.034  39.496  12.002
62405W        W21666  18.165  30.947  12.076
62406W        W21667   5.263  11.136  14.881
62407W        W21668  21.753  33.408  14.335
62408W        W21669  38.067   3.286  11.384
62409W        W21670   8.879  31.539  12.990
62410W        W21671   6.744  42.776   0.759
62411W        W21672  16.287  16.704  11.999
62412W        W21673  41.522  23.076   1.388
62413W        W21674   0.952  23.036   0.870
62414W        W21675   3.859  25.186   3.179
62415W        W21676  39.942  18.126  14.999
62416W        W21677  33.388  22.158   2.791
62417W        W21678  24.033   1.889  13.502
62418W        W21679   3.454   1.853   3.782
62419W        W21680   1.895  16.205  11.966
62420W        W21681   9.855  36.467   1.397
62421W        W21682   4.205  34.983   1.838
62422W        W21683  41.950  13.241   5.279
62423W        W21684  11.320  27.052  14.430
62424W        W21685  24.057  38.326   1.445
62425W        W21686  36.541   9.783  10.447
62426W        W21687  15.309  40.546  13.956
62427W        W21688  16.165  22.693  13.055
62428W        W21689  39.943  16.195   3.167
62429W        W21690  22.009  28.133   1.397
62430W        W21691   6.699  16.075   2.227
62431W        W21692  43.372   4.381  10.957
62432W        W21693  23.024  38.033   2.419
62433W        W21694   2.955  16.634   0.924
62434W        W21695  16.120  17.685   9.923
62435W        W21696  15.135   6.910   1.797
62436W        W21697   1.952   1.825   0.812
62437W        W21698  43.905  15.704  11.974
62438W        W21699  20.582  15.251  14.403
62439W        W21700  37.948  26.093  11.042
62440W        W21701   7.340  14.685  14.947
62441W        W21702  38.364   4.794  11.407
62442W        W21703  11.673  22.036   0.827
62443W        W21704   4.334  12.645  12.535
62444W        W21705  40.536  42.911   3.765
62445W        W21706   9.771  24.673   3.281
62446W        W21707  24.047  25.708   3.167
62447W        W21708  36.473   0.749  10.903
62448W        W21709  24.102  25.626   4.240
62449W        W21710  30.514  14.330  13.054
62450W        W21711   8.656  18.652   3.170
62451W        W21712  30.656  43.456   4.249
62452W        W21713   1.955   7.784  11.947
62453W        W21714  14.626  17.219   3.187
62454W        W21715   4.725  39.316  13.805
62455W        W21716  25.614  39.473  14.368
62456W        W21717   0.915  36.502   3.243
62457W        W21718   7.205  39.921  10.563
62458W        W21719  37.860   2.387   1.929
62459W        W21720  22.040   7.324   1.243
62460W        W21721  22.734   2.784   2.244
62461W        W21722  29.080   2.862  12.912
62462W        W21723   3.375   2.779  10.547
62463W        W21724  22.684  23.107   2.380
62464W        W21725  43.960  17.723  12.973
62465W        W21726   0.878   3.790  14.936
62466W        W21727   2.732   1.873  11.501
62467W        W21728  23.664  13.636  11.426
62468W        W21729   9.883   2.783  10.599
62469W        W21730  25.523   6.817   4.780
62470W        W21731   5.336  24.703  12.431
62471W        W21732   7.226  37.376  12.554
62472W        W21733  36.433  34.451   4.193
62473W        W21734  14.289  14.757  13.548
62474W        W21735  40.547  15.183  12.956
62475W        W21736  44.302  29.648   3.805
62476W        W21737   4.702  34.498   1.450
62477W        W21738  43.366  40.916  11.456
62478W        W21739  28.078  14.332   3.233
62479W        W21740   8.882  32.419  12.398
62480W        W21741   8.862  15.306  14.817
62481W        W21742  31.023   9.692  13.916
62482W        W21743  13.330  15.649  12.546
62483W        W21744   3.393  16.093  10.952
62484W        W21745  38.912  29.131  10.140
62485W        W21746  28.961  22.083  13.982
62486W        W21747  17.233   8.324   1.416
62487W        W21748  17.617  10.835   3.321
62488W        W21749  23.075  38.987   3.357
62489W        W21750   1.297   4.708  11.906
62490W        W21751  36.434  32.098  10.954
62491W        W21752  11.301  28.070  13.932
62492W        W21753  44.359  36.881   2.193
62493W        W21754  24.174   0.369   4.716
62494W        W21755  34.067  30.536   1.789
62495W        W21756  13.710   6.254  12.394
62496W        W21757  13.198  12.350   3.287
62497W        W21758  40.511   6.385   4.266
62498W        W21759  42.419  18.612  13.468
62499W        W21760   1.262  29.500   0.333
62500W        W21761  25.549   1.379   3.294
62501W        W21762  13.244   6.357  10.587
62502W        W21763  16.242  33.029  13.853
62503W        W21764  27.034  34.012   0.817
62504W        W21765  43.962  14.321  13.365
62505W        W21766  26.201  37.846   1.882
62506W        W21767   1.889  18.690   0.387
62507W        W21768   7.239  25.698  11.025
62508W        W21769   0.373   3.947  11.915
62509W        W21770  29.653  10.725  14.479
62510W        W21771   2.414  38.877   1.385
62511W        W21772  12.627   5.195   4.321
62512W        W21773  38.333  33.037   3.755
62513W        W21774  21.700  22.732   4.323
62514W        W21775  23.590   5.323  14.850
62515W        W21776  10.740   4.773  14.364
62516W        W21777  20.734  11.305  11.543
62517W        W21778  28.946  21.206   0.254
62518W        W21779   1.301  29.568   1.853
62519W        W21780   4.750  14.712  13.020
62520W        W21781   9.872  10.282   0.862
62521W        W21782  36.451  10.262  12.023
62522W        W21783  40.923  23.223  14.770
62523W        W21784  21.116  36.404   0.446
62524W        W21785  34.540  18.706  10.589
62525W        W21786   9.677  18.753   0.753
62526W        W21787  35.515   6.861   3.283
62527W        W21788  12.196  20.097   3.192
62528W        W21789  25.608  15.313   3.856
62529W        W21790  22.642  16.567  10.903
62530W        W21791   2.804   8.680  10.636
62531W        W21792  40.904   8.816   1.450
62532W        W21793  22.112  10.300   3.778
62533W        W21794  33.102  29.082  14.943
62534W        W21795  31.494  25.998  10.463
62535W        W21796  15.229   0.971   3.703
62536W        W21797  41.966  27.993  13.944
62537W        W21798   4.414  26.630  11.547
62538W        W21799  36.485  21.193   4.656
62539W        W21800  31.456  15.104  12.481
62540W        W21801  12.616  26.960   3.202
62541W        W21802   0.811  17.593   4.825
62542W        W21803  16.722  17.751   1.230
62543W        W21804  32.084  17.234  14.298
62544W        W21805   2.280  42.908  12.503
62545W        W21806  32.057  30.628   2.182
62546W        W21807   5.237  20.610  11.943
62547W        W21808   7.196  43.867   0.785
62548W        W21809  35.574  35.557   4.740
62549W        W21810  26.610   6.389  10.629
62550W        W21811  34.930  17.636  11.043
62551W        W21812  22.541   7.341  10.946
62552W        W21813  29.560  24.156  11.451
62553W        W21814  27.104  17.089   1.810
62554W        W21815  40.851  25.564  12.901
62555W        W21816  16.598  43.354  14.353
62556W        W21817  28.068  28.651   2.735
62557W        W21818  41.456  16.646   1.219
62558W        W21819  24.179  11.136   3.264
62559W        W21820  23.041  36.443  13.062
62560W        W21821  35.570  20.566   2.269
62561W        W21822  29.501  27.627   3.841
62562W        W21823  29.929  38.067   3.326
62563W        W21824  25.200  23.726  14.912
62564W        W21825  26.105  43.317  12.859
62565W        W21826  27.040  37.907   3.247
62566W        W21827  26.479  23.119  12.439
62567W        W21828  44.759  16.611   4.813
62568W        W21829  23.155  11.254  12.431
62569W        W21830  20.084   3.285   0.808
62570W        W21831  31.953  22.594  13.385
62571W        W21832   8.316  17.651  14.921
62572W        W21833  11.167  34.441  12.847
62573W        W21834   8.835  13.640   2.742
62574W        W21835   6.377  18.675  10.960
62575W        W21836  40.389  15.777   4.149
62576W        W21837   8.875  16.285   1.433
62577W        W21838   6.426  39.942   1.812
62578W        W21839  29.516  18.131  13.980
62579W        W21840  43.278  37.984   3.655
62580W        W21841  21.150  28.584   4.608
62581W        W21842  40.909   0.906  13.008
62582W        W21843   1.244   2.724   1.300
62583W        W21844   6.259   0.885   0.364
62584W        W21845   8.201  42.458  10.495
62585W        W21846  20.217  12.230  13.359
62586W        W21847  27.130   1.382   0.911
62587W        W21848   4.330   3.832   4.684
62588W        W21849  29.168   8.259   0.778
62589W        W21850  31.964  27.082   0.740
62590W        W21851   4.323  24.212  14.928
62591W        W21852  20.131  16.774   2.811
62592W        W21853  17.250   4.442  14.449
62593W        W21854  32.576  43.008   0.965
62594W        W21855  43.018   1.779  11.014
62595W        W21856  13.759  17.249   0.422
62596W        W21857  27.942   9.381  10.106
62597W        W21858  12.227   8.731   0.396
62598W        W21859   8.687  18.700   1.773
62599W        W21860   9.711  16.173   9.450
62600W        W21861  37.502  39.443   2.243
62601W        W21862  17.733  33.501  11.102
62602W        W21863  16.571  41.441  10.994
62603W        W21864  11.143  44.333  11.445
62604W        W21865  27.106  13.236  10.934
62605W        W21866  30.562   2.293  11.993
62606W        W21867   2.961  17.236   0.844
62607W        W21868  42.016  38.548  11.411
62608W        W21869  16.752  16.656   1.830
62609W        W21870  12.630  21.232   1.418
62610W        W21871  13.771  21.215  12.984
62611W        W21872  19.562  31.591   1.779
62612W        W21873  18.723  35.524  11.530
62613W        W21874   1.925  13.607  12.524
62614W        W21875  26.594  43.495   3.168
62615W        W21876  44.340  43.340  14.309
62616W        W21877  25.626   4.891  12.512
62617W        W21878   3.812  37.048   1.328
62618W        W21879  24.575  19.631  12.866
62619W        W21880  19.253  16.601   1.711
62620W        W21881  29.096  14.188   2.684
62621W        W21882  44.910  35.500   4.268
62622W        W21883  37.496   6.882  10.630
62623W        W21884  15.644  12.178   4.164
62624W        W21885  37.494   1.458  10.966
62625W        W21886   7.861  12.663   0.738
62626W        W21887  43.484  18.161   4.133
62627W        W21888   7.857  25.159  11.032
62628W        W21889  28.560   7.379   4.185
62629W        W21890  25.057  28.181   2.361
62630W        W21891  22.506  32.634   2.865
62631W        W21892  15.183  31.039  12.490
62632W        W21893   1.894  38.901  11.492
62633W        W21894  23.230   9.787  12.907
62634W        W21895  41.464  35.059  12.000
62635W        W21896  15.090   6.707   9.949
62636W        W21897   4.728  34.082  11.428
62637W        W21898  34.040   9.701   1.889
62638W        W21899  34.116  44.906   1.322
62639W        W21900  22.131  35.060  11.859
62640W        W21901  23.577   5.391   4.608
62641W        W21902   5.333   7.374  10.427
62642W        W21903  20.273  39.877  13.537
62643W        W21904   6.867  21.215   1.922
62644W        W21905  11.172  10.234   1.260
62645W        W21906  15.320  44.387  11.867
62646W        W21907  28.551  18.108  10.446
62647W        W21908  37.344  20.567  13.803
62648W        W21909  37.997  11.245  14.800
62649W        W21910  20.067  32.540   0.278
62650W        W21911   9.846   2.958   1.697
62651W        W21912  34.957  11.641  12.879
62652W        W21913  24.100  40.436  10.470
62653W        W21914   7.825  26.652   2.879
62654W        W21915  28.067  44.439   5.291
62655W        W21916  13.265  22.706   2.782
62656W        W21917   0.751   9.704   1.427
62657W        W21918  35.054   8.748   2.259
62658W        W21919  33.597  27.625   3.724
62659W        W21920  37.490   0.380  13.835
62660W        W21921   9.724  12.193  10.891
62661W        W21922  40.927   6.195  12.823
62662W        W21923  39.547   0.932   4.674
62663W        W21924  37.995  38.389  12.492
62664W        W21925  13.786  16.670   1.895
62665W        W21926  36.468  43.373  11.005
62666W        W21927   1.259  21.072   2.202
62667W        W21928  13.297  22.698   0.423
62668W        W21929  19.557  39.057  10.476
62669W        W21930  26.032   2.382  12.546
62670W        W21931  32.997  24.602   1.862
62671W        W21932  15.781  33.501   1.819
62672W        W21933   8.824   9.866  14.023
62673W        W21934  36.357  29.980  10.421
62674W        W21935  18.616   0.850  11.572
62675W        W21936  32.416  23.205   4.312
62676W        W21937  14.588  27.497   4.647
62677W        W21938  24.642  29.490  10.132
62678W        W21939  10.871  14.646  10.489
62679W        W21940  14.792  37.467   5.175
62680W        W21941  39.916  42.350  13.970
62681W        W21942  42.031   6.829   0.868
62682W        W21943   1.865  35.555   2.679
62683W        W21944  23.685  32.067  10.554
62684W        W21945  26.700   7.784   4.147
62685W        W21946  21.669  21.584  14.451
62686W        W21947  17.286  13.748  11.405
62687W        W21948   8.734  31.962   2.666
62688W        W21949  19.580  27.164  13.892
62689W        W21950  16.717  34.039   2.259
62690W        W21951   1.450  40.916  14.297
62691W        W21952  35.029   7.878  13.925
62692W        W21953  27.039   0.309  14.818
62693W        W21954  15.229  32.035  12.994
62694W        W21955   5.439  20.047  12.419
62695W        W21956  10.356  15.142  12.987
62696W        W21957   8.221   2.734   1.406
62697W        W21958  12.180  44.371   2.252
62698W        W21959  16.139  33.888  12.860
62699W        W21960  19.765  36.553   5.116
62700W        W21961   1.959  22.048  11.603
62701W        W21962  15.151  10.869  11.534
62702W        W21963  21.523  33.452   0.911
62703W        W21964  42.501  27.180  14.880
62704W        W21965  18.598  20.165  10.994
62705W        W21966  12.342  44.292  14.402
62706W        W21967  23.708  29.473   1.734
62707W        W21968  17.628  43.328  11.544
62708W        W21969  20.524  41.476  11.460
62709W        W21970   7.190  39.045   4.819
62710W        W21971  14.173   8.892   4.255
62711W        W21972  12.691  11.184   2.210
62712W        W21973  26.186  11.200  14.351
62713W        W21974   4.208  20.681   2.752
62714W        W21975  10.325  35.601  12.410
62715W        W21976  23.224  24.011  12.980
62716W        W21977  34.519   1.863  11.870
62717W        W21978  25.192  30.960   1.721
62718W        W21979  11.300  32.123   5.090
62719W        W21980  38.830  18.688   0.401
62720W        W21981  23.214  27.652  10.965
62721W        W21982  33.939  31.488   3.746
62722W        W21983  13.683  41.879  11.505
62723W        W21984   6.241   9.693  13.456
62724W        W21985  21.168   7.689   0.770
62725W        W21986  11.311   4.274   0.853
62726W        W21987  43.003  38.999  14.926
62727W        W21988  36.386  11.213   3.638
62728W        W21989  41.988  22.532   3.854
62729W        W21990  24.979  34.382  11.591
62730W        W21991   1.387   8.288  10.512
62731W        W21992  19.136  13.797   2.401
62732W        W21993  28.971  11.715  10.644
62733W        W21994   4.234   8.794   3.178
62734W        W21995  17.208   4.400  13.059
62735W        W21996  27.126  40.453   3.661
62736W        W21997  10.843  44.446  13.351
62737W        W21998  31.646  38.905  12.072
62738W        W21999  26.032  22.668  12.382
62739W        W22000  22.583  15.749   1.750
62740W        W22001  16.569  27.046  14.853
62741W        W22002  40.047  24.053  11.402
62742W        W22003   4.900  17.287   3.732
62743W        W22004  28.111  36.969  10.985
62744W        W22005  43.403   8.379  13.882
62745W        W22006  33.433  23.129  13.927
62746W        W22007   3.731  30.016  10.589
62747W        W22008   9.868  41.866  11.958
62748W        W22009  31.004  39.405   4.808
62749W        W22010  23.095  35.018   4.158
62750W        W22011  11.229  20.057   3.724
62751W        W22012  14.816  19.757  12.844
62752W        W22013   5.228  14.686   4.661
62753W        W22014  12.688  20.216   1.371
62754W        W22015  12.208  10.209  12.503
62755W        W22016  40.815  37.003  13.931
62756W        W22017  30.508   3.318  13.325
62757W        W22018  13.313  40.470   1.270
62758W        W22019  27.188   6.782   1.855
62759W        W22020  32.417  12.840   3.687
62760W        W22021   7.722  27.645   0.476
62761W        W22022  42.466  13.601  13.477
62762W        W22023  19.074  42.512   1.933
62763W        W22024  21.207  34.048   0.246
62764W        W22025  24.656   9.705  11.922
62765W        W22026   9.878  30.520  14.991
62766W        W22027  29.989  13.178   1.346
62767W        W22028  42.942  29.022   2.232
62768W        W22029  24.622  18.617   2.370
62769W        W22030  24.982  29.540   3.240
62770W        W22031  40.797   3.354  10.428
62771W        W22032  10.641   7.884   0.268
62772W        W22033  29.080  11.270   1.792
62773W        W22034  24.126  37.540  14.002
62774W        W22035   3.830  41.996   3.375
62775W        W22036  27.483  27.194   3.161
62776W        W22037   9.248  38.460  13.479
62777W        W22038  39.034  38.395   0.878
62778W        W22039  38.530  43.959   2.795
62779W        W22040  29.618  21.704   2.786
62780W        W22041  34.926  40.006   0.742
62781W        W22042  18.686  41.458   2.251
62782W        W22043   2.805   4.931   4.350
62783W        W22044  27.076  16.797   0.339
62784W        W22045  24.187  21.215   1.426
62785W        W22046  18.681  41.942   3.355
62786W        W22047  23.021   4.830  13.460
62787W        W22048  38.986   8.258  10.542
62788W        W22049   7.293   8.261  13.962
62789W        W22050   2.842  25.682   2.418
62790W        W22051  44.277  32.484   4.119
62791W        W22052  31.428  21.067  11.079
62792W        W22053  26.968  19.647   1.252
62793W        W22054  35.590  38.961   2.672
62794W        W22055  14.623  38.860   4.626
62795W        W22056   8.393   0.282  12.027
62796W        W22057  14.615  25.637  14.985
62797W        W22058   1.241  14.253   1.321
62798W        W22059  24.161  13.339  12.447
62799W        W22060  40.389  14.131  11.110
62800W        W22061  18.273  33.564   1.393
62801W        W22062  37.416  38.481   1.837
62802W        W22063  11.800  15.268  12.951
62803W        W22064  17.670  38.504   3.748
62804W        W22065  22.696  17.623  14.420
62805W        W22066  43.904  36.572   3.204
62806W        W22067  20.171  27.631   5.102
62807W        W22068  31.412   8.356   9.466
62808W        W22069   9.822  43.368   2.182
62809W        W22070  36.496  18.094   2.707
62810W        W22071  33.508  26.126  13.938
62811W        W22072  25.039  10.756  13.893
62812W        W22073  12.634   1.782   0.379
62813W        W22074  21.096  30.491   2.850
62814W        W22075   3.343   0.787  11.424
62815W        W22076   9.180  15.595  11.951
62816W        W22077   9.324  25.527  13.910
62817W        W22078  35.430   8.248  12.570
62818W        W22079  17.250   0.794  12.050
62819W        W22080  34.435  30.973   4.721
62820W        W22081  26.607  41.349   4.233
62821W        W22082  31.459   9.736   5.228
62822W        W22083  33.975  27.640   1.819
62823W        W22084   4.811  16.674   1.697
62824W        W22085  17.674  11.714  13.329
62825W        W22086  29.173  27.490  12.902
62826W        W22087   5.350  40.942   0.822
62827W        W22088  31.073  39.946   1.224
62828W        W22089  20.567  11.673   3.805
62829W        W22090  13.707  22.742  14.886
62830W        W22091  29.467   7.853   3.178
62831W        W22092   3.454   6.332   0.266
62832W        W22093  13.743   1.798   2.809
62833W        W22094  18.274  37.343  10.983
62834W        W22095   2.753   8.340  11.387
62835W        W22096  33.424   2.422   1.262
62836W        W22097  26.677   0.814  14.302
62837W        W22098   1.949   0.830   2.277
62838W        W22099  33.064   8.880   5.113
62839W        W22100  20.158   5.814   0.923
62840W        W22101  41.875  30.072  12.436
62841W        W22102   3.334   5.848  10.974
62842W        W22103   5.744   4.859  12.021
62843W        W22104  24.107   2.863  13.407
62844W        W22105  11.332  10.268  10.613
62845W        W22106   5.396  25.202  14.835
62846W        W22107  43.436  30.555   4.724
62847W        W22108  41.371  42.495  11.395
62848W        W22109  30.053   4.793   1.843
62849W        W22110  28.567  13.205   4.196
62850W        W22111  34.475  19.664   2.360
62851W        W22112   2.372   3.332   2.740
62852W        W22113  36.538  13.840   4.349
62853W        W22114  41.429   2.282   2.839
62854W        W22115  35.977  17.174   3.646
62855W        W22116  16.721  41.039   0.457
62856W        W22117  32.501  13.112  10.043
62857W        W22118  15.178   1.324   3.686
62858W        W22119  43.310   8.209   1.755
62859W        W22120  38.036  43.501  13.044
62860W        W22121  25.215  23.703  14.465
62861W        W22122  19.645  36.999   2.799
62862W        W22123  23.679  23.505  12.998
62863W        W22124  32.571  37.515   1.325
62864W        W22125  18.721  20.712  13.010
62865W        W22126   6.192  27.512   4.818
62866W        W22127  20.065  44.321   0.778
62867W        W22128  23.989  24.185  11.406
62868W        W22129   7.171   6.362  13.013
62869W        W22130  16.753   8.897  13.963
62870W        W22131  25.963  28.621   5.209
62871W        W22132   5.878  21.259   1.927
62872W        W22133  28.541   7.405  12.029
62873W        W22134   4.210  21.097  13.898
62874W        W22135  23.985  20.532   1.343
62875W        W22136  42.355  33.933  11.859
62876W        W22137  26.663  32.049  13.961
62877W        W22138  27.549  37.538   2.854
62878W        W22139   9.725  13.719  12.429
62879W        W22140  25.699  38.374   4.326
62880W        W22141   3.336  43.498  12.554
62881W        W22142   6.198  22.145  14.952
62882W        W22143  17.710  10.844  14.403
62883W        W22144  21.515  35.509  12.381
62884W        W22145  42.336  27.692  12.982
62885W        W22146  22.671  29.567   0.453
62886W        W22147  31.503  39.830   0.759
62887W        W22148  37.386   2.758   0.944
62888W        W22149  22.243  30.429   4.175
62889W        W22150   0.880  16.641   0.410
62890W        W22151  39.392  27.043  10.470
62891W        W22152  39.893  40.546  12.341
62892W        W22153  24.108   0.758  13.546
62893W        W22154  40.378  24.226   5.139
62894W        W22155  32.930  32.102  12.390
62895W        W22156  29.980   8.675  13.931
62896W        W22157   8.189  30.591   0.950
62897W        W22158  12.313  28.439  11.889
62898W        W22159  35.911   8.305   2.413
62899W        W22160   7.323   2.346   2.192
62900W        W22161  30.472   0.942   1.342
62901W        W22162  31.571  26.520   4.696
62902W        W22163   0.441  42.787   3.341
62903W        W22164  14.817   6.427  13.429
62904W        W22165   1.851  14.258  13.794
62905W        W22166   7.767  38.478   1.729
62906W        W22167  42.366  34.039  10.927
62907W        W22168  33.028  44.271   0.809
62908W        W22169  31.627   5.386   0.759
62909W        W22170   8.324  20.682  10.545
62910W        W22171  20.730  11.716   2.685
62911W        W22172  39.525  36.422   5.692
62912W        W22173  39.406  27.072  13.975
62913W        W22174   0.923  16.119  13.050
62914W        W22175  28.626   2.375  11.093
62915W        W22176  16.217   0.745  13.481
62916W        W22177  23.104  13.804  12.561
62917W        W22178  25.669  36.988  11.523
62918W        W22179   2.304   5.776   3.196
62919W        W22180  44.895  41.007  14.928
62920W        W22181  30.957  11.857   1.217
62921W        W22182  24.981  11.798  13.334
62922W        W22183   4.769  30.550  13.526
62923W        W22184  30.094   3.324   0.243
62924W        W22185  35.056  37.856   4.814
62925W        W22186   7.303   6.421   2.843
62926W        W22187  30.999   5.193   3.665
62927W        W22188  31.013   8.275   4.192
62928W        W22189  29.507   0.377  13.919
62929W        W22190  31.604  39.519  13.908
62930W        W22191  24.553  42.790  12.380
62931W        W22192  23.603  35.421  13.534
62932W        W22193   6.697  37.980  13.432
62933W        W22194   3.906  15.713  12.518
62934W        W22195  12.654  24.179   0.322
62935W        W22196   3.336  43.005   2.773
62936W        W22197  22.103  42.963  10.600
62937W        W22198  33.436  11.859  12.492
62938W        W22199  19.084  21.219   4.725
62939W        W22200   5.766  43.900  14.836
62940W        W22201  20.262  39.466  12.027
62941W        W22202  20.694  27.481   9.652
62942W        W22203   3.933  39.008   2.701
62943W        W22204  15.616  28.537  12.830
62944W        W22205   8.774  14.104  12.829
62945W        W22206  20.080   3.308   5.103
62946W        W22207   1.946   0.432  14.001
62947W        W22208   6.702  24.547   0.866
62948W        W22209  26.998   5.838   0.937
62949W        W22210  14.788  31.643  11.425
62950W        W22211  10.335  21.758  13.423
62951W        W22212  22.161   1.258  11.986
62952W        W22213  12.166  43.801  14.305
62953W        W22214  12.252  21.655  11.535
62954W        W22215   2.364   1.966  11.413
62955W        W22216  18.653  16.157   3.162
62956W        W22217  28.483  13.758  14.875
62957W        W22218  25.161   1.843  11.855
62958W        W22219  42.482   9.382  14.292
62959W        W22220  38.934   0.389  12.056
62960W        W22221  26.496  32.949   1.444
62961W        W22222  25.575   7.277   2.750
62962W        W22223  27.573  25.066  10.548
62963W        W22224  20.568   0.744   1.388
62964W        W22225  33.527  41.929  14.350
62965W        W22226   4.829  13.165  14.283
62966W        W22227  25.989  37.445   1.414
62967W        W22228  40.430  30.588  11.453
62968W        W22229  30.066   7.322   1.709
62969W        W22230  34.092  39.419   0.404
62970W        W22231  32.485   1.364  10.518
62971W        W22232  20.080  29.026   1.372
62972W        W22233  43.022  33.535  10.561
62973W        W22234  27.668  23.610  13.023
62974W        W22235  16.142  40.010   4.298
62975W        W22236  23.606  20.256   0.336
62976W        W22237  16.187  14.258  13.471
62977W        W22238  31.553  29.619   4.346
62978W        W22239  31.960  41.839  12.367
62979W        W22240  27.159  13.768   1.772
62980W        W22241  37.004  12.838   0.831
62981W        W22242  23.549  16.649   0.748
62982W        W22243  13.214  39.042  11.073
62983W        W22244  44.920  44.268  14.505
62984W        W22245   4.384  28.181  14.321
62985W        W22246  19.210  12.216  13.416
62986W        W22247   4.204  12.155  14.346
62987W        W22248  13.109  10.205   5.317
62988W        W22249  17.557   6.388  14.501
62989W        W22250  12.235  18.106   2.890
62990W        W22251  11.248  23.209  11.457
62991W        W22252  43.014   2.334   3.778
62992W        W22253   2.877  16.219  14.820
62993W        W22254  37.925  13.756   4.299
62994W        W22255   6.780   6.694  12.392
62995W        W22256  19.138  44.992  12.030
62996W        W22257  43.432   0.906  13.327
62997W        W22258  43.945  36.581   4.274
62998W        W22259  29.127  29.988  13.001
62999W        W22260  38.950  16.076   1.348
63000W        W22261  15.115  17.655   4.711
63001W        W22262  37.508  26.685   2.866
63002W        W22263  30.600  36.857  12.470
63003W        W22264  33.582   5.839  11.093
63004W        W22265  25.030  31.494   0.853
63005W        W22266  23.533   0.306   2.393
63006W        W22267  12.749  18.602   1.732
63007W        W22268  11.345  33.480  13.464
63008W        W22269  29.040  19.154   2.205
63009W        W22270  35.853   1.762   0.878
63010W        W22271  18.781  37.012   3.632
63011W        W22272  12.209  23.153  14.821
63012W        W22273  10.207  39.001  13.355
63013W        W22274   9.337   8.843  11.970
63014W        W22275   8.382   8.738   1.766
63015W        W22276  21.126  30.490  12.864
63016W        W22277  36.581  38.329   3.861
63017W        W22278  38.449   5.932  11.998
63018W        W22279  20.141  42.302   1.733
63019W        W22280  39.915  13.750  10.451
63020W        W22281   8.266  23.138   1.291
63021W        W22282   4.240  20.622   2.208
63022W        W22283  35.364  25.190  12.921
63023W        W22284   8.403  24.613  11.523
63024W        W22285  29.570  22.662  10.980
63025W        W22286   1.789  19.239  10.644
63026W        W22287  40.889  39.849   1.400
63027W        W22288  28.654  26.037  14.468
63028W        W22289   2.251   9.871   9.983
63029W        W22290  29.959  43.885   1.386
63030W        W22291  44.360  38.889  10.434
63031W        W22292  40.318   5.251   2.210
63032W        W22293  19.147   1.877  13.026
63033W        W22294  30.103  16.790  12.520
63034W        W22295  38.847  25.607  10.543
63035W        W22296  19.768   5.332  10.542
63036W        W22297   0.752  43.315   0.908
63037W        W22298  32.444  18.289  14.782
63038W        W22299  17.622  33.581  14.347
63039W        W22300  25.503  27.655   2.826
63040W        W22301  38.933  12.844   0.357
63041W        W22302  41.969  18.272   0.257
63042W        W22303   7.325   5.399  14.815
63043W        W22304   5.771  44.896  14.362
63044W        W22305  24.565  44.322   2.359
63045W        W22306  44.875  13.131   4.776
63046W        W22307  43.352   3.764  14.999
63047W        W22308  40.352  14.232  13.823
63048W        W22309   0.354  12.802  12.517
63049W        W22310  38.016  16.770  10.973
63050W        W22311  16.106  17.770   2.183
63051W        W22312   7.407   9.275   3.335
63052W        W22313  36.361   9.672   1.229
63053W        W22314  30.149   3.244  12.899
63054W        W22315  17.270  38.906   0.330
63055W        W22316  34.117  28.091  11.378
63056W        W22317   7.900   5.723  10.992
63057W        W22318  16.642  16.706   0.414
63058W        W22319  18.134   1.337  12.027
63059W        W22320  32.554  18.660   3.276
63060W        W22321  15.193  44.871  12.048
63061W        W22322  11.847  10.159  13.021
63062W        W22323  28.614  39.043  12.077
63063W        W22324  37.487  27.564  13.522
63064W        W22325  39.920  30.540   0.429
63065W        W22326  19.118  23.615  13.335
63066W        W22327  38.048  15.190  11.924
63067W        W22328   2.889  32.563  11.479
63068W        W22329  37.394   5.773  10.094
63069W        W22330   0.256  10.805  12.454
63070W        W22331   0.881  11.131  14.952
63071W        W22332   4.810   2.877  10.915
63072W        W22333  17.631  13.296  12.953
63073W        W22334   2.867   4.918   3.811
63074W        W22335  11.769  42.852  11.999
63075W        W22336  23.520  14.676   1.302
63076W        W22337  25.637  39.453   0.349
63077W        W22338  26.493   9.261  12.071
63078W        W22339  39.844  29.013  14.871
63079W        W22340  25.179  37.501  13.986
63080W        W22341  24.583  44.913  13.793
63081W        W22342  31.575  22.172   4.318
63082W        W22343  19.564  44.436   3.745
63083W        W22344   0.378  40.023  12.015
63084W        W22345  38.345  38.421  12.865
63085W        W22346   3.289  18.200   1.444
63086W        W22347  29.444  36.885  13.396
63087W        W22348   6.377   9.680  12.493
63088W        W22349  23.595  28.175  14.515
63089W        W22350  21.745  42.405  14.802
63090W        W22351  36.880   3.262  13.014
63091W        W22352  13.745  44.307  10.424
63092W        W22353  21.663  26.561  13.043
63093W        W22354   4.230  29.082   1.901
63094W        W22355  42.875  10.280   4.626
63095W        W22356   5.364  37.423   3.160
63096W        W22357  16.184  20.679   4.832
63097W        W22358  27.188  40.826  11.399
63098W        W22359  25.640  16.173  11.051
63099W        W22360  43.789   8.203   1.355
63100W        W22361  29.570  14.775   3.359
63101W        W22362  34.980   4.806   2.210
63102W        W22363  16.763  10.285   2.281
63103W        W22364  22.513  42.923   0.455
63104W        W22365  34.097  21.670  11.915
63105W        W22366  41.043  44.321   3.740
63106W        W22367  23.510  14.166   2.408
63107W        W22368  16.171  19.134  14.897
63108W        W22369  34.517  16.129  10.584
63109W        W22370  39.974  33.097   2.763
63110W        W22371  22.567  36.563   2.249
63111W        W22372  21.214   3.744   0.751
63112W        W22373  13.762  12.740   4.296
63113W        W22374  17.285   8.764   4.259
63114W        W22375   6.694  14.598   4.670
63115W        W22376  30.941  41.868   0.463
63116W        W22377  35.358  14.690   4.123
63117W        W22378  13.249  31.455  10.490
63118W        W22379  17.121  12.723  10.603
63119W        W22380  12.673  25.648  11.385
63120W        W22381  12.356  23.491  12.343
63121W        W22382  31.648  34.025   2.842
63122W        W22383  40.836  31.521  12.540
63123W        W22384   9.848  40.893  12.466
63124W        W22385  21.260  30.054   1.869
63125W        W22386  42.858  40.526   2.365
63126W        W22387   5.326  21.137   1.373
63127W        W22388  28.143  17.260  13.428
63128W        W22389  12.247  28.588   2.817
63129W        W22390  40.855  25.654   0.301
63130W        W22391  41.479  42.794   1.331
63131W        W22392   7.343   5.800   1.929
63132W        W22393  20.178   5.765  10.418
63133W        W22394  38.846   2.778   3.328
63134W        W22395  39.040  37.924  11.959
63135W        W22396  11.178  24.562  12.087
63136W        W22397  22.679  14.602  14.424
63137W        W22398  32.581  44.389   4.154
63138W        W22399  28.618  29.000   2.304
63139W        W22400  12.319  37.436   1.778
63140W        W22401  34.575   3.235   2.362
63141W        W22402   1.965   9.649   3.666
63142W        W22403  12.271  11.212  12.472
63143W        W22404  17.583  21.540  13.001
63144W        W22405  24.182  41.024   2.887
63145W        W22406  33.538  26.117   2.717
63146W        W22407  40.012  23.203   2.236
63147W        W22408  13.780  26.171  13.890
63148W        W22409  35.468  28.447   4.170
63149W        W22410  27.646   6.203  10.956
63150W        W22411   1.934  12.225   2.300
63151W        W22412  17.580  11.674  14.354
63152W        W22413  11.180  14.222  12.033
63153W        W22414  21.078  20.141   3.761
63154W        W22415  22.108   9.279  13.871
63155W        W22416  37.574  20.611   0.888
63156W        W22417   4.386  23.647   1.285
63157W        W22418  24.674   6.773  11.409
63158W        W22419  18.759  38.055   2.355
63159W        W22420  16.731  16.312  14.801
63160W        W22421  27.557  35.472  13.022
63161W        W22422  34.916   6.318   2.252
63162W        W22423  15.782  22.578   4.121
63163W        W22424   0.308  27.068  14.382
63164W        W22425  25.038  44.787  12.933
63165W        W22426  34.916  20.700  11.096
63166W        W22427  36.094  30.085  14.343
63167W        W22428  24.088  18.142  14.497
63168W        W22429  27.593  14.222  14.447
63169W        W22430   6.902  17.598   4.811
63170W        W22431   5.439  29.139   3.724
63171W        W22432  42.506  36.907   0.890
63172W        W22433  19.213  41.808  11.540
63173W        W22434  28.107  20.586   3.289
63174W        W22435  40.978  18.218   0.810
63175W        W22436  35.862   3.836   2.789
63176W        W22437  21.054  38.048   1.759
63177W        W22438  15.654  20.248   1.739
63178W        W22439  19.697  26.129   3.643
63179W        W22440  20.734  14.763   1.794
63180W        W22441  29.519  11.303  11.926
63181W        W22442  26.696  38.528   0.874
63182W        W22443  29.125  43.788   2.340
63183W        W22444   1.287  14.788  10.411
63184W        W22445  25.033  41.505  10.933
63185W        W22446  40.867  10.861  14.279
63186W        W22447  18.661  12.124  10.628
63187W        W22448  40.994  40.437   0.874
63188W        W22449  32.129  33.479   0.399
63189W        W22450  17.266  39.341   0.294
63190W        W22451  44.989   5.323  11.100
63191W        W22452  10.198  33.018  14.277
63192W        W22453  14.647  12.685   1.334
63193W        W22454   0.399  14.661  12.492
63194W        W22455  26.966  40.354   1.340
63195W        W22456  39.552  16.659   4.637
63196W        W22457  42.477  30.057  13.357
63197W        W22458  19.670  28.443  10.957
63198W        W22459  26.538  22.675   4.247
63199W        W22460  30.586  34.898   4.251
63200W        W22461  17.148  41.338   4.327
63201W        W22462  11.839   3.723   1.228
63202W        W22463   2.802   2.805  13.971
63203W        W22464  11.271  31.465  12.509
63204W        W22465  17.301  14.643  13.798
63205W        W22466  43.987  38.482   0.859
63206W        W22467   3.932  40.005  11.590
63207W        W22468  35.601  34.589   2.714
63208W        W22469  14.788  19.535   3.650
63209W        W22470  42.857  15.712   0.330
63210W        W22471  15.801  37.358  13.848
63211W        W22472  36.479  31.909   5.317
63212W        W22473   3.319  44.469  12.558
63213W        W22474  30.951   5.711  13.350
63214W        W22475  10.282   6.400  10.470
63215W        W22476   3.360   8.317   0.825
63216W        W22477  16.125  22.998   9.951
63217W        W22478  23.002  44.393  12.511
63218W        W22479  43.449  38.442   4.164
63219W        W22480  37.864  30.958  11.400
63220W        W22481  10.186  10.360   3.323
63221W        W22482  32.567  28.962   2.877
63222W        W22483  27.598  42.787  10.605
63223W        W22484  37.383  32.064   5.236
63224W        W22485  22.211  33.457   0.308
63225W        W22486   9.229  38.549  12.451
63226W        W22487  25.187  41.451   0.824
63227W        W22488  44.904  30.000  13.862
63228W        W22489   4.717  35.527   4.303
63229W        W22490  26.083  33.618   0.471
63230W        W22491   2.913  21.620   0.910
63231W        W22492   7.410  32.478  11.597
63232W        W22493  37.050  10.852  11.939
63233W        W22494   5.325  24.631   4.196
63234W        W22495  17.597  13.678  13.875
63235W        W22496   0.384  34.887   3.795
63236W        W22497  40.518  26.565   2.777
63237W        W22498  22.139  32.578  12.854
63238W        W22499   6.740  38.006   0.297
63239W        W22500   9.692  16.577  12.543
63240W        W22501   0.883  34.462   4.158
63241W        W22502   6.788  10.296   3.866
63242W        W22503  17.081  40.405  12.961
63243W        W22504   0.332  28.630   1.849
63244W        W22505  14.748   7.311   5.293
63245W        W22506   2.850  32.561  10.581
63246W        W22507  21.024  25.481   2.799
63247W        W22508  35.946  18.672   4.334
63248W        W22509  13.188  12.300   5.155
63249W        W22510  42.790  13.770   3.721
63250W        W22511  26.701  38.880  11.460
63251W        W22512   4.431  41.986  12.063
63252W        W22513  22.676  24.564   0.325
63253W        W22514  14.175  21.055   2.352
63254W        W22515  36.045  19.046  14.428
63255W        W22516  20.030  22.046   2.693
63256W        W22517   9.754  32.485  13.393
63257W        W22518  39.372   1.781   4.230
63258W        W22519  17.560  18.288  14.992
63259W        W22520   6.894  15.124   1.911
63260W        W22521  43.800  10.750  14.303
63261W        W22522  37.358   1.261   1.746
63262W        W22523  21.045  32.082   0.449
63263W        W22524  33.017   9.250  14.854
63264W        W22525   3.845  15.714  10.107
63265W        W22526  17.215  42.523   4.191
63266W        W22527  29.982  42.850   0.830
63267W        W22528  35.478  30.106  12.992
63268W        W22529  39.529  27.501  11.982
63269W        W22530  44.463  19.269  10.023
63270W        W22531  17.191  35.094  12.946
63271W        W22532   8.814  37.562  14.301
63272W        W22533   2.312  29.543   5.307
63273W        W22534  44.446  34.436  12.370
63274W        W22535  31.131   0.889   1.818
63275W        W22536  16.672  14.244  11.464
63276W        W22537  39.440   2.399   2.875
63277W        W22538  43.293   9.275  10.641
63278W        W22539   2.392  30.614  12.411
63279W        W22540  23.627  42.345   2.876
63280W        W22541  27.468  41.339  13.927
63281W        W22542  12.799   6.848  14.480
63282W        W22543  29.628  10.813   0.880
63283W        W22544  36.488   7.825  14.450
63284W        W22545  44.352  27.115  11.387
63285W        W22546  20.040  28.566   1.372
63286W        W22547  38.516  41.365  10.987
63287W        W22548  11.853  16.739   3.677
63288W        W22549  34.575  17.188   2.760
63289W        W22550   1.373  28.181  12.515
63290W        W22551   6.919  36.981   4.806
63291W        W22552   8.406  18.572  13.044
63292W        W22553  26.494  18.272   3.821
63293W        W22554  42.916  33.061  11.971
63294W        W22555  31.998  19.644  11.012
63295W        W22556  19.565  18.180  10.549
63296W        W22557   2.949  13.180  12.432
63297W        W22558  26.022  40.888   4.630
63298W        W22559  38.886  41.879  12.906
63299W        W22560  27.049  44.970  13.886
63300W        W22561  44.881   2.964  13.369
63301W        W22562  44.868  11.741   4.149
63302W        W22563  11.648   0.358  14.008
63303W        W22564   0.445  19.551  10.558
63304W        W22565  24.008   4.438   4.743
63305W        W22566  39.949  41.317  13.059
63306W        W22567   0.941  15.644   3.264
63307W        W22568   2.379  18.119   1.758
63308W        W22569  34.939   0.988  12.016
63309W        W22570   3.259  11.166   2.302
63310W        W22571   5.381   2.353  14.980
63311W        W22572  17.097  38.363   1.747
63312W        W22573   1.917   3.326  12.990
63313W        W22574   3.790  42.835   1.816
63314W        W22575  25.513   4.911   3.861
63315W        W22576  37.519  17.686  11.602
63316W        W22577  40.800  16.724  13.813
63317W        W22578  34.555  22.138  11.490
63318W        W22579  12.303  20.716  14.324
63319W        W22580  41.011  10.308  13.914
63320W        W22581  26.188   3.941  12.966
63321W        W22582  32.035   5.828  14.357
63322W        W22583  16.203   3.861   2.731
63323W        W22584  27.077  22.525  10.488
63324W        W22585  30.417  32.632   2.902
63325W        W22586  34.507   6.783  13.419
63326W        W22587  12.674  25.037   3.234
63327W        W22588  15.619  41.369   4.273
63328W        W22589  44.948  31.027  12.397
63329W        W22590  16.174  25.073   4.239
63330W        W22591  35.365  23.149   0.802
63331W        W22592  14.199  21.668  12.971
63332W        W22593  42.294   1.910  10.636
63333W        W22594  32.537  23.107  10.629
63334W        W22595  36.858  43.858  12.389
63335W        W22596  20.125  16.588   1.912
63336W        W22597   3.318   3.937  11.086
63337W        W22598  14.168  11.684   0.379
63338W        W22599  38.005  41.873  10.614
63339W        W22600  17.626  15.716  13.800
63340W        W22601   9.664  25.593   2.335
63341W        W22602  44.882   5.407  12.889
63342W        W22603  33.881  34.560   2.862
63343W        W22604  13.328  43.480  12.067
63344W        W22605  25.115  25.567   1.429
63345W        W22606  28.455  41.953  14.501
63346W        W22607  26.161  16.648   1.818
63347W        W22608  25.534   9.294  11.109
63348W        W22609  21.707   9.833  13.329
63349W        W22610  19.554  21.687  12.509
63350W        W22611  14.831   1.753   2.311
63351W        W22612  35.375   7.195   1.771
63352W        W22613  20.562  11.659   1.254
63353W        W22614  10.764   4.250  12.896
63354W        W22615  30.552  36.363  14.800
63355W        W22616  28.579  41.401   4.704
63356W        W22617  36.525  36.350  14.410
63357W        W22618  37.408   5.911  11.487
63358W        W22619  33.059   2.448  14.301
63359W        W22620  18.672   6.186   2.809
63360W        W22621  27.528   9.843  11.939
63361W        W22622  43.971   8.654   3.370
63362W        W22623  10.238  31.409  11.389
63363W        W22624  34.927   9.713   0.482
63364W        W22625  34.988  17.294   2.391
63365W        W22626  20.669  28.966   0.803
63366W        W22627   1.305  17.293  12.996
63367W        W22628  27.652  35.546  12.473
63368W        W22629  44.894  12.140  13.443
63369W        W22630  24.591  44.301  12.894
63370W        W22631  22.201   9.258  10.481
63371W        W22632  17.657  17.120  11.057
63372W        W22633  14.205  38.429  14.945
63373W        W22634  41.907  10.382   3.697
63374W        W22635  34.897  17.170   1.718
63375W        W22636  24.002  31.465   4.352
63376W        W22637  41.993  34.385   0.449
63377W        W22638  27.086   4.709   1.265
63378W        W22639   3.844   0.969   4.319
63379W        W22640  22.715  27.579  12.484
63380W        W22641  39.487  10.318  13.056
63381W        W22642  18.141  21.718  14.993
63382W        W22643  31.069  32.431   3.699
63383W        W22644  17.675  34.391  14.761
63384W        W22645  22.074  33.079  10.435
63385W        W22646   2.410  11.642   0.274
63386W        W22647  32.902  30.954  12.340
63387W        W22648  31.493  43.413   2.806
63388W        W22649   2.321  27.967  13.905
63389W        W22650  41.894   9.208  10.456
63390W        W22651  32.545  27.063   4.704
63391W        W22652  23.055  17.238   1.865
63392W        W22653   7.720  29.582   0.789
63393W        W22654  37.500   6.846  12.931
63394W        W22655  31.503  33.464   1.404
63395W        W22656  44.404  29.616   3.311
63396W        W22657  42.827  26.173   3.183
63397W        W22658   8.877  19.051   2.882
63398W        W22659  43.351  25.096  13.816
63399W        W22660  12.168  22.712   2.887
63400W        W22661  40.949  22.186  13.795
63401W        W22662   5.874  32.432  13.005
63402W        W22663  12.275  41.841  11.516
63403W        W22664  20.110  43.868  14.891
63404W        W22665   5.751   6.859  12.418
63405W        W22666  38.944  36.046  14.814
63406W        W22667  15.794   1.778   0.895
63407W        W22668  20.154  15.749  10.526
63408W        W22669   1.290  34.905  14.858
63409W        W22670   9.363  15.139  12.005
63410W        W22671   8.880  39.397  10.889
63411W        W22672  25.682  34.496  14.029
63412W        W22673  33.402   3.251  12.434
63413W        W22674  16.601  38.047   2.335
63414W        W22675   6.724  41.934  14.430
63415W        W22676  36.349  28.509   1.754
63416W        W22677  36.914  41.512  11.467
63417W        W22678  24.093  15.677  14.309
63418W        W22679  16.582  21.260  14.315
63419W        W22680   7.348   9.818   4.350
63420W        W22681  41.847   8.846   0.740
63421W        W22682  42.423  38.566  11.062
63422W        W22683  37.918  32.986   9.629
63423W        W22684   7.410  40.510  11.120
63424W        W22685  25.654  25.580   3.152
63425W        W22686  36.478   6.245  12.497
63426W        W22687  17.256  28.481   3.738
63427W        W22688  30.101   5.417  14.409
63428W        W22689  12.171  20.644   1.352
63429W        W22690   9.284  30.151  12.520
63430W        W22691  41.463  23.507  12.985
63431W        W22692  36.919  21.696   2.684
63432W        W22693  30.469  17.715  11.106
63433W        W22694  44.319  30.524  12.085
63434W        W22695  20.261  18.646  12.568
63435W        W22696  32.993  10.701   3.284
63436W        W22697   6.379  31.511   1.905
63437W        W22698  20.599  38.846  14.031
63438W        W22699  35.597  11.139  11.863
63439W        W22700  30.583  35.489   3.638
63440W        W22701   7.738  39.966  11.551
63441W        W22702  35.922   5.856  13.965
63442W        W22703  21.671   4.767  13.509
63443W        W22704  29.082  19.182  14.992
63444W        W22705   7.230   9.772  10.906
63445W        W22706  41.004  39.500   2.780
63446W        W22707  22.098  24.495   5.712
63447W        W22708   1.404   8.345  13.519
63448W        W22709  20.078   1.850   0.418
63449W        W22710   1.436  24.658  11.402
63450W        W22711  41.017  16.733  14.408
63451W        W22712   3.245  17.080  12.504
63452W        W22713  31.583  40.832   1.326
63453W        W22714   5.759  20.626  13.317
63454W        W22715  21.077  17.593  12.867
63455W        W22716  26.517  10.244   0.951
63456W        W22717  28.589  25.580   1.443
63457W        W22718  16.237   5.222   2.880
63458W        W22719  19.145   9.747   4.638
63459W        W22720  37.554  23.216  10.910
63460W        W22721  12.706  28.064   0.924
63461W        W22722  33.949  18.083   2.229
63462W        W22723  34.933  42.293  10.940
63463W        W22724   3.300  34.602  14.853
63464W        W22725  39.811   4.719  14.780
63465W        W22726  38.925   3.918   4.721
63466W        W22727  25.648  21.639   1.339
63467W        W22728   8.242  17.183   3.725
63468W        W22729  24.598  22.080  13.011
63469W        W22730  14.633  36.955   3.275
63470W        W22731  38.018  37.390   2.214
63471W        W22732  27.517  34.418   4.826
63472W        W22733  11.337  30.108  12.020
63473W        W22734  38.976  37.043  14.941
63474W        W22735   4.369  34.027   1.739
63475W        W22736  26.600   7.273  11.051
63476W        W22737  21.741   8.169   3.778
63477W        W22738  35.968   0.471   3.857
63478W        W22739  10.352  22.162  12.550
63479W        W22740  38.526  43.795  11.443
63480W        W22741   7.907  39.059   3.374
63481W        W22742  33.414  29.126  14.428
63482W        W22743  25.168  35.495   1.731
63483W        W22744   8.811  30.415  11.388
63484W        W22745  25.988  18.120  14.503
63485W        W22746  43.478   8.299   2.196
63486W        W22747  12.309   9.756  13.049
63487W        W22748  18.292   2.371  14.911
63488W        W22749  14.277  33.395  10.892
63489W        W22750   4.943  21.025  14.841
63490W        W22751  25.186  10.768   1.236
63491W        W22752  40.402   4.939   9.989
63492W        W22753   0.348  38.429  14.926
63493W        W22754   4.723   9.275   0.939
63494W        W22755  24.496  39.922  11.569
63495W        W22756  20.147  26.698   3.670
63496W        W22757  11.307  38.379   3.342
63497W        W22758  44.362   4.729  14.795
63498W        W22759  27.660   8.257  13.954
63499W        W22760  28.038  13.797   3.175
63500W        W22761  37.986  30.600   3.210
63501W        W22762  26.652   4.929  14.022
63502W        W22763  20.104  31.058  14.353
63503W        W22764  15.617  24.045   2.732
63504W        W22765  32.559  34.959  12.360
63505W        W22766   0.301  21.647  11.093
63506W        W22767  32.613   6.319  12.344
63507W        W22768   8.669  15.185   1.215
63508W        W22769   8.848  32.933  10.498
63509W        W22770  25.610  36.099   4.829
63510W        W22771   0.437  31.647   4.279
63511W        W22772  42.285   4.792  11.865
63512W        W22773  21.587   6.791   1.895
63513W        W22774  16.804   6.300  14.764
63514W        W22775  32.965   2.363  13.837
63515W        W22776  12.118   9.716  10.599
63516W        W22777  42.313  16.148  11.393
63517W        W22778  26.203  31.044   1.417
63518W        W22779  22.619  27.168   2.796
63519W        W22780  30.561   1.382   2.190
63520W        W22781  17.305  23.620  10.541
63521W        W22782  37.538  13.119   3.724
63522W        W22783  20.267  20.653  11.549
63523W        W22784  33.451  28.594  12.905
63524W        W22785   1.259  20.075   4.167
63525W        W22786   9.645   3.316  12.368
63526W        W22787  15.119  21.147   2.871
63527W        W22788   1.238  10.283  10.524
63528W        W22789  20.539  39.967  10.408
63529W        W22790  10.247  33.880  13.055
63530W        W22791  19.204  17.241  12.020
63531W        W22792   4.756  16.255  13.426
63532W        W22793  11.324   4.388  13.984
63533W        W22794  19.190  17.733  10.407
63534W        W22795  23.225  21.594  14.782
63535W        W22796  29.480  32.913   3.733
63536W        W22797  29.922  36.975  12.474
63537W        W22798  31.627  26.135   3.356
63538W        W22799  11.197   2.926   9.520
63539W        W22800  14.684  41.440   1.822
63540W        W22801  30.539  35.911   0.784
63541W        W22802  14.202   1.274   0.471
63542W        W22803  24.121   9.763  11.043
63543W        W22804  29.097   8.702   3.630
63544W        W22805  30.953   2.891  11.004
63545W        W22806  16.743  41.823  11.916
63546W        W22807  41.482  26.119  13.489
63547W        W22808   7.263   0.465   3.739
63548W        W22809   2.337   0.958   5.129
63549W        W22810  18.656  44.975  11.972
63550W        W22811  13.762  27.955   3.802
63551W        W22812  37.837   4.418  14.278
63552W        W22813  11.248  21.056  14.973
63553W        W22814  10.199  37.918   0.443
63554W        W22815  32.536  44.398   1.349
63555W        W22816  18.153  37.541   1.808
63556W        W22817  15.763   7.241  12.400
63557W        W22818  22.211   4.252   0.433
63558W        W22819  42.947  31.486  14.414
63559W        W22820  18.754   2.740  14.489
63560W        W22821  24.680  36.413  14.793
63561W        W22822  16.097   9.229  10.477
63562W        W22823  41.834  26.969  13.018
63563W        W22824  33.121  30.628  10.939
63564W        W22825  41.439   3.709  13.010
63565W        W22826  18.158  18.781  10.608
63566W        W22827   8.729  43.298  14.390
63567W        W22828  19.655  44.365   3.302
63568W        W22829   2.826   3.856  12.990
63569W        W22830   0.356  22.550   4.199
63570W        W22831   3.338  14.635  12.551
63571W        W22832   5.904  35.926   1.872
63572W        W22833   9.693  18.554  10.444
63573W        W22834  40.438  17.618   0.826
63574W        W22835   1.935  31.946   4.699
63575W        W22836  12.159  28.444   1.706
63576W        W22837   2.306   8.224   1.862
63577W        W22838  13.199  39.379   2.257
63578W        W22839  21.254  23.067   3.186
63579W        W22840  26.960  44.846  11.869
63580W        W22841  16.674  13.186  12.471
63581W        W22842  42.944  19.085   1.264
63582W        W22843  24.101  22.609   1.711
63583W        W22844  38.829   0.816  11.073
63584W        W22845  38.865  23.207   3.354
63585W        W22846  21.623  25.709   1.410
63586W        W22847  37.370  38.408  10.510
63587W        W22848  31.566  27.195   0.849
63588W        W22849  28.083  10.747   4.152
63589W        W22850  43.421  16.178   2.699
63590W        W22851   3.842  17.096  10.405
63591W        W22852  33.623   8.376   1.308
63592W        W22853   7.831  35.494  10.645
63593W        W22854  42.467  25.086   3.262
63594W        W22855   7.366  29.598   3.332
63595W        W22856   4.392  10.284   3.377
63596W        W22857  29.090  38.397   1.401
63597W        W22858   7.198  36.877  14.759
63598W        W22859  39.360  40.453   0.811
63599W        W22860  21.068   0.462   2.866
63600W        W22861  40.871  13.137   3.383
63601W        W22862  32.470   0.891  14.336
63602W        W22863  43.926  35.918  12.879
63603W        W22864   8.780  12.806  13.531
63604W        W22865  23.100   4.238   3.296
63605W        W22866  35.543   5.772  12.083
63606W        W22867  32.022   3.919   1.384
63607W        W22868   5.193  36.988   2.316
63608W        W22869  29.604   3.420   4.349
63609W        W22870  40.373  25.171  14.000
63610W        W22871  44.361  36.032   1.859
63611W        W22872  41.020   2.952  14.958
63612W        W22873  25.063   5.298   4.203
63613W        W22874   5.934  26.671   1.232
63614W        W22875  14.341  44.462   1.860
63615W        W22876  11.283  31.555  11.430
63616W        W22877   4.313  26.560  11.124
63617W        W22878  23.121   0.807   0.961
63618W        W22879  14.257  15.323  14.894
63619W        W22880  22.730  22.527  11.514
63620W        W22881  42.488   1.299   2.217
63621W        W22882  39.820  20.128   4.790
63622W        W22883  20.125  17.620  11.127
63623W        W22884  21.066  35.483  12.528
63624W        W22885  38.905  35.023   3.674
63625W        W22886   9.855  36.045   4.173
63626W        W22887  29.097  23.135   0.957
63627W        W22888  32.419  22.052  14.855
63628W        W22889  41.418   3.766   4.207
63629W        W22890  12.331  33.905  11.940
63630W        W22891  10.732  41.896   0.411
63631W        W22892   9.182  14.172   2.745
63632W        W22893  41.948  43.965   3.862
63633W        W22894  26.171  17.253   3.271
63634W        W22895  11.252   4.392  11.060
63635W        W22896  14.768  38.900  11.485
63636W        W22897  26.034  29.920   2.892
63637W        W22898   1.919   0.468  13.524
63638W        W22899   9.814   2.743  12.873
63639W        W22900  42.886  41.938  13.031
63640W        W22901  13.599  16.801  12.868
63641W        W22902  34.072  41.872  14.858
63642W        W22903  25.606  23.205  11.973
63643W        W22904   1.460  43.335  13.497
63644W        W22905  27.075  35.068  11.877
63645W        W22906  34.519  20.766  10.914
63646W        W22907  14.811  27.630   5.098
63647W        W22908  42.789  10.209   0.414
63648W        W22909  19.256   7.761   2.415
63649W        W22910  15.172  42.949  13.410
63650W        W22911  12.635   2.414   9.507
63651W        W22912  37.368   6.815  11.400
63652W        W22913  24.063  23.062   3.698
63653W        W22914  13.320  39.318  13.456
63654W        W22915  17.557  25.090   0.405
63655W        W22916  22.662  36.486  12.489
63656W        W22917  17.149   6.728  14.964
63657W        W22918   4.889  25.592  11.506
63658W        W22919   4.330  24.710  14.447
63659W        W22920  42.884  44.452  12.063
63660W        W22921   9.858  22.567  11.591
63661W        W22922  17.674   9.203   3.359
63662W        W22923  41.345  29.539  11.373
63663W        W22924  24.533   5.350  10.937
63664W        W22925   8.296  35.988   1.372
63665W        W22926  27.638  42.781   0.803
63666W        W22927  23.701  37.404   1.275
63667W        W22928  12.714   2.925  11.544
63668W        W22929  34.116  40.497  12.549
63669W        W22930   4.364  12.135   4.295
63670W        W22931  41.966  28.625  13.376
63671W        W22932   5.752  21.583  13.472
63672W        W22933  13.663  12.756  11.057
63673W        W22934  24.478   9.315   1.426
63674W        W22935  11.723  29.484  13.460
63675W        W22936  38.406  13.248  13.338
63676W        W22937  24.217   8.249   0.870
63677W        W22938  22.134  19.634   1.289
63678W        W22939  31.533   2.955  10.997
63679W        W22940  39.982  12.120   4.311
63680W        W22941  12.141  31.544   4.803
63681W        W22942  25.619  34.480   4.654
63682W        W22943  15.119   4.708   2.888
63683W        W22944  22.606  28.066   3.367
63684W        W22945  15.270  23.138  11.097
63685W        W22946  11.144  24.168   2.723
63686W        W22947   7.892  44.803   3.803
63687W        W22948  35.853   0.494  12.902
63688W        W22949  42.299  21.665   2.789
63689W        W22950  29.529  33.035  14.867
63690W        W22951  31.111   6.842   3.364
63691W        W22952  24.014   3.871   2.297
63692W        W22953  34.947  14.317  12.345
63693W        W22954  40.008  38.463   1.317
63694W        W22955  31.108  20.525  13.346
63695W        W22956  37.895  12.134   0.910
63696W        W22957  34.932  42.919   1.418
63697W        W22958  18.056  34.018   2.820
63698W        W22959  22.253  11.229   4.649
63699W        W22960  36.459  38.427  12.347
63700W        W22961  42.839  24.722  14.361
63701W        W22962   9.764  33.938   2.778
63702W        W22963  24.654  37.444   1.874
63703W        W22964  13.270  31.022   0.902
63704W        W22965  21.105   6.330  11.486
63705W        W22966  44.756  37.461  13.806
63706W        W22967  15.117  28.987  12.087
63707W        W22968  37.405  15.819  13.995
63708W        W22969  37.498  18.137   0.451
63709W        W22970   5.921  22.634   1.352
63710W        W22971  34.075  13.182  14.002
63711W        W22972   4.934  15.193   5.169
63712W        W22973  41.809  32.403   1.738
63713W        W22974   6.312  25.051   4.619
63714W        W22975  27.530  30.910   2.877
63715W        W22976  38.490  34.464  12.417
63716W        W22977   1.260  42.939   4.350
63717W        W22978   4.783  31.451   1.827
63718W        W22979  12.151  22.026   0.788
63719W        W22980   4.832  34.046  14.993
63720W        W22981   8.189   2.271  13.435
63721W        W22982  10.858  42.400   3.788
63722W        W22983  41.383  43.923   1.704
63723W        W22984  12.253  38.076  13.027
63724W        W22985  34.604  39.935   3.761
63725W        W22986  26.139  40.981   1.758
63726W        W22987   7.275   1.933  14.428
63727W        W22988  27.522  23.078  12.013
63728W        W22989  13.809  42.509   2.822
63729W        W22990  39.851   5.240   3.345
63730W        W22991   0.926  44.902   4.116
63731W        W22992  32.948  11.302   0.387
63732W        W22993  35.031  35.891   0.310
63733W        W22994  26.182  27.091  10.439
63734W        W22995  35.010  21.078   2.776
63735W        W22996  10.154  34.503   1.334
63736W        W22997  26.499  37.980  13.859
63737W        W22998   0.924  39.830   2.331
63738W        W22999  23.012   1.805   1.852
63739W        W23000   5.902  24.178  11.469
63740W        W23001   8.658  19.574   5.149
63741W        W23002   7.695  22.654  10.102
63742W        W23003  15.739  44.474  10.632
63743W        W23004  19.281  28.175   4.135
63744W        W23005  34.947  44.444  10.050
63745W        W23006  38.502   1.775  14.761
63746W        W23007  22.168  22.636  13.491
63747W        W23008  44.757  38.918   2.830
63748W        W23009  33.037  29.955   1.889
63749W        W23010  19.162  41.943  12.900
63750W        W23011  34.038   4.410   2.399
63751W        W23012  39.030  44.302  12.076
63752W        W23013   8.832  41.330   1.765
63753W        W23014   3.449   7.188   3.796
63754W        W23015  36.956  18.696  14.353
63755W        W23016  12.633  43.974  14.323
63756W        W23017  23.578  16.679   2.381
63757W        W23018  33.951  29.530  13.057
63758W        W23019  38.418  19.040  11.117
63759W        W23020  42.513  10.218  12.003
63760W        W23021   4.826   5.834   1.924
63761W        W23022  36.961  36.505   3.284
63762W        W23023  33.497  15.602   3.151
63763W        W23024  38.358  30.912  12.840
63764W        W23025  21.036  39.056   3.813
63765W        W23026  10.652  33.938   3.250
63766W        W23027  36.894  33.885   1.745
63767W        W23028   4.449  23.008  14.819
63768W        W23029  34.542  31.096   3.346
63769W        W23030  30.480  24.525  13.464
63770W        W23031  35.561   5.698  12.884
63771W        W23032  30.659  11.637   3.258
63772W        W23033  43.309  31.515   2.214
63773W        W23034  21.566   8.844  11.543
63774W        W23035  13.299  24.603  11.543
63775W        W23036  37.016  12.742  10.973
63776W        W23037   2.468   3.313   4.137
63777W        W23038  26.050  39.411  12.550
63778W        W23039   8.328  19.275   3.176
63779W        W23040  18.247  10.348  13.995
63780W        W23041   1.260   7.761  11.075
63781W        W23042  18.174   2.881  10.986
63782W        W23043   6.817   0.972  10.509
63783W        W23044  12.148  14.241   0.897
63784W        W23045  18.181  26.494   1.855
63785W        W23046   3.297   6.709   9.969
63786W        W23047  42.982  43.451  14.021
63787W        W23048  44.922  38.825   4.206
63788W        W23049  36.057   9.729   2.702
63789W        W23050  17.637  44.833  12.021
63790W        W23051  10.835  41.917  12.540
63791W        W23052   9.312  39.361  10.497
63792W        W23053  39.469   8.886  12.948
63793W        W23054  13.161  43.818   3.769
63794W        W23055  40.316  26.039   2.332
63795W        W23056  13.676  40.492   4.633
63796W        W23057   8.341  18.646  13.463
63797W        W23058  35.036  35.986  11.054
63798W        W23059  26.018   9.213  14.435
63799W        W23060   2.361  35.473  12.090
63800W        W23061  13.656  27.048  12.447
63801W        W23062  11.181  15.667   1.845
63802W        W23063  17.109  21.709  14.804
63803W        W23064  29.532  18.625  13.368
63804W        W23065  16.116  26.677  13.524
63805W        W23066  40.426  20.053   1.754
63806W        W23067  38.508   1.879  12.431
63807W        W23068   3.396   4.374   1.842
63808W        W23069  14.278  11.315   0.250
63809W        W23070  41.401  42.804   0.384
63810W        W23071  13.184  34.539   4.158
63811W        W23072  16.593  10.847  10.475
63812W        W23073   0.433  38.849   4.670
63813W        W23074  42.861  27.132   3.348
63814W        W23075  16.640  18.656   2.392
63815W        W23076  22.523  40.932  10.957
63816W        W23077   2.284   6.841  11.857
63817W        W23078  19.264   6.391   2.718
63818W        W23079  24.036   0.282  11.459
63819W        W23080  31.639   7.206  11.414
63820W        W23081  23.046   0.818   3.686
63821W        W23082  43.286  15.699  11.050
63822W        W23083  40.960  33.395  10.453
63823W        W23084  44.279  22.625   0.446
63824W        W23085  39.966   8.695   1.401
63825W        W23086  10.261   4.809   0.780
63826W        W23087  22.089  29.607   2.724
63827W        W23088  19.250  38.406  14.984
63828W        W23089  22.116  38.569  12.036
63829W        W23090   5.255  23.562   0.259
63830W        W23091  38.362  10.292  11.010
63831W        W23092  18.625   8.654   3.840
63832W        W23093   4.928   1.889   9.987
63833W        W23094  40.306   6.424   2.768
63834W        W23095  20.626  19.598  10.894
63835W        W23096  34.927  40.523   3.222
63836W        W23097  30.968  42.519   0.949
63837W        W23098  36.489   1.743  10.617
63838W        W23099  34.603  31.522  13.366
63839W        W23100  44.789  25.101   0.853
63840W        W23101  35.976  25.193   1.363
63841W        W23102   6.226  33.105   0.966
63842W        W23103  19.136  37.567  11.483
63843W        W23104  35.564  35.066  12.513
63844W        W23105  33.126  20.636  14.844
63845W        W23106  20.138  31.095   0.334
63846W        W23107  31.104  38.845  11.461
63847W        W23108  28.456  14.337  14.500
63848W        W23109   8.275  21.060   4.159
63849W        W23110  34.595  22.183  14.349
63850W        W23111   7.852  23.151  14.433
63851W        W23112  18.186  25.199  12.059
63852W        W23113  24.725  24.129  13.967
63853W        W23114  31.540  24.556   0.274
63854W        W23115  23.727  32.550   1.776
63855W        W23116  30.912   7.809   4.122
63856W        W23117  42.426   2.436   0.890
63857W        W23118  29.969  20.197   2.213
63858W        W23119   4.767  20.077   1.328
63859W        W23120  13.717  20.606   3.356
63860W        W23121  31.148  32.900  11.881
63861W        W23122   1.467  21.648  13.028
63862W        W23123   3.290  41.399  14.435
63863W        W23124  26.539  43.292   4.278
63864W        W23125   4.748  34.921  12.402
63865W        W23126  33.532  18.636   2.310
63866W        W23127  39.026  19.766  14.369
63867W        W23128  36.392   9.241   0.753
63868W        W23129  26.017   6.196   1.748
63869W        W23130  26.564   7.333   2.191
63870W        W23131  15.125  10.196  10.064
63871W        W23132  27.069  23.124   3.690
63872W        W23133  23.654  19.162   0.400
63873W        W23134  32.513  25.104  12.512
63874W        W23135  44.264  43.996   4.337
63875W        W23136  41.372  43.768  10.492
63876W        W23137   6.196   5.420   2.776
63877W        W23138  16.652   1.750   3.270
63878W        W23139  22.698   5.929  11.379
63879W        W23140   0.930  33.472   4.272
63880W        W23141  43.810  30.438  13.533
63881W        W23142   8.700  40.945  13.491
63882W        W23143   7.258  17.203   0.828
63883W        W23144  24.974  22.670  10.512
63884W        W23145  19.729  23.106   5.801
63885W        W23146   5.928  16.223   3.633
63886W        W23147  10.726  14.633   0.425
63887W        W23148  42.512   8.355   2.829
63888W        W23149  22.511   5.715  10.977
63889W        W23150  13.835  36.429  11.525
63890W        W23151  43.385  43.834   1.372
63891W        W23152  23.581  36.543   0.892
63892W        W23153  23.036  30.074   2.672
63893W        W23154  36.970  22.074  14.491
63894W        W23155  44.387  21.600   1.324
63895W        W23156  22.013  28.648  12.544
63896W        W23157  39.825  31.991  10.526
63897W        W23158  13.690  35.022   2.274
63898W        W23159  33.595   8.264  11.414
63899W        W23160  19.052  14.296   1.425
63900W        W23161   6.184  13.706  12.011
63901W        W23162  40.486  11.854   1.746
63902W        W23163  21.022  40.416   5.206
63903W        W23164   6.348  17.579   0.395
63904W        W23165  39.006   9.394  12.406
63905W        W23166  39.415   3.919  12.914
63906W        W23167  38.564  22.198   1.925
63907W        W23168  37.470  37.937   2.321
63908W        W23169   1.422   3.800   0.967
63909W        W23170  18.757  37.402  10.893
63910W        W23171  24.693  30.922  12.932
63911W        W23172   2.874  29.612  10.592
63912W        W23173  13.784  19.129  10.630
63913W        W23174   3.427   2.941  12.470
63914W        W23175  18.115   2.749  11.418
63915W        W23176  32.480  23.233  11.048
63916W        W23177  36.004   5.931  10.596
63917W        W23178   1.462  43.865   1.292
63918W        W23179  33.383  34.614  13.368
63919W        W23180  38.067  19.571  12.426
63920W        W23181  36.417  22.553  13.049
63921W        W23182   3.792  37.581   3.731
63922W        W23183  28.042  14.241   0.279
63923W        W23184   3.887  42.308   3.276
63924W        W23185  34.608  20.081   1.874
63925W        W23186  35.579  17.116  12.341
63926W        W23187  18.230  41.844  14.900
63927W        W23188  37.838   8.206   0.433
63928W        W23189  13.788   7.315   5.673
63929W        W23190   1.804  38.846   0.957
63930W        W23191  25.102  37.995  12.362
63931W        W23192  31.976  25.616   2.366
63932W        W23193   0.914  12.688   1.840
63933W        W23194   1.876   0.744  10.472
63934W        W23195  24.538  16.637   4.753
63935W        W23196   8.254  30.445  14.429
63936W        W23197  31.987  23.537  13.477
63937W        W23198  16.248   4.900   9.630
63938W        W23199  10.153  43.858  10.515
63939W        W23200  38.866   3.375   0.751
63940W        W23201  27.971  20.633   2.832
63941W        W23202  20.125  33.457  11.999
63942W        W23203  30.979  40.050   4.334
63943W        W23204  14.313  44.440  13.964
63944W        W23205  44.912  32.488   4.220
63945W        W23206  23.629  15.596   4.286
63946W        W23207  28.080  17.084  14.455
63947W        W23208  13.213  38.990  11.964
63948W        W23209  38.930  35.924   0.780
63949W        W23210  14.242  24.228  11.408
63950W        W23211  22.246  25.978  13.939
63951W        W23212   9.318  29.084  14.818
63952W        W23213  30.474  23.068  11.091
63953W        W23214  43.395   3.812  12.473
63954W        W23215  44.786   2.233   4.613
63955W        W23216  42.833  30.038   1.448
63956W        W23217  31.487   9.810  11.963
63957W        W23218  10.290   0.985   4.699
63958W        W23219  19.720  20.202  12.080
63959W        W23220   2.866  15.164  13.035
63960W        W23221  32.915  33.001  10.538
63961W        W23222  35.549  40.998   3.324
63962W        W23223  36.412  39.978  10.911
63963W        W23224   0.862  11.223  11.085
63964W        W23225  43.926  30.569  11.427
63965W        W23226   6.900  28.639   1.284
63966W        W23227  31.473  29.090   1.381
63967W        W23228  34.564  37.464   3.635
63968W        W23229  14.292  15.329  13.818
63969W        W23230   2.871   1.455  13.918
63970W        W23231  30.100  24.628  11.373
63971W        W23232  42.306  32.132  12.943
63972W        W23233  44.916  23.648   1.746
63973W        W23234   3.954  31.417  12.001
63974W        W23235  10.746  42.500  12.559
63975W        W23236  38.963   3.392   5.195
63976W        W23237   4.340  15.166  12.979
63977W        W23238  42.283  41.474   2.771
63978W        W23239  28.138  16.602  13.825
63979W        W23240  24.999   7.233   4.125
63980W        W23241   8.219  11.752  13.491
63981W        W23242  44.477  35.448   4.133
63982W        W23243  28.534  41.415  11.444
63983W        W23244   1.939  35.109   3.206
63984W        W23245   5.701  37.399  12.520
63985W        W23246  25.177  16.138   4.656
63986W        W23247   1.783  39.060   0.330
63987W        W23248  33.494  17.188   4.741
63988W        W23249  32.631  30.943  12.519
63989W        W23250  20.650  28.651   2.178
63990W        W23251  40.473  16.663  13.455
63991W        W23252  30.478  43.476  12.009
63992W        W23253   2.247  41.929  13.485
63993W        W23254  25.126   3.751  11.580
63994W        W23255  23.732   1.408  14.900
63995W        W23256  40.931   4.860   0.345
63996W        W23257   8.679  33.984   3.861
63997W        W23258  26.683   5.752  14.364
63998W        W23259   8.364   5.744  10.489
63999W        W23260   0.865  29.427  10.625
64000W        W23261   7.785  23.605  12.429
64001W        W23262  43.449   8.790   2.361
64002W        W23263  10.868  43.799   0.245
64003W        W23264  15.310  16.626   1.908
64004W        W23265  40.999  36.525   2.357
64005W        W23266  10.737   6.271   0.443
64006W        W23267  27.005  21.585   3.294
64007W        W23268  15.284  15.723   2.202
64008W        W23269  23.007  37.354   1.352
64009W        W23270  44.002  29.501  14.463
64010W        W23271  16.152  29.480  12.509
64011W        W23272   5.930   4.309  13.811
64012W        W23273  13.777   8.785   3.304
64013W        W23274   0.778  25.042   2.789
64014W        W23275  18.705   2.242   1.788
64015W        W23276  33.596  29.497   4.347
64016W        W23277  16.602   2.361   1.906
64017W        W23278  30.564  28.168   1.235
64018W        W23279  27.642  21.038   2.208
64019W        W23280  41.940  12.182  13.504
64020W        W23281  19.050   2.760  14.968
64021W        W23282   8.900  32.571  12.909
64022W        W23283  16.230   8.240  10.522
64023W        W23284   4.733  28.036  11.605
64024W        W23285   7.756  22.052   4.153
64025W        W23286  25.978  13.165   1.262
64026W        W23287  11.806   2.248  13.826
64027W        W23288  14.154  38.423   4.736
64028W        W23289  28.575  22.567  13.409
64029W        W23290  33.573  18.602   4.674
64030W        W23291  23.517  17.174   2.389
64031W        W23292  12.128   8.832   4.738
64032W        W23293  35.397  24.016  10.898
64033W        W23294   8.884  36.364   3.866
64034W        W23295  30.036  15.704   3.766
64035W        W23296   7.387  30.024  13.424
64036W        W23297  30.989   1.313   2.341
64037W        W23298  44.437  11.189  12.388
64038W        W23299  44.289  31.047  11.564
64039W        W23300  38.927   8.350  12.913
64040W        W23301  32.412  42.329   4.255
64041W        W23302  44.983  24.614   4.786
64042W        W23303  29.431   1.973   5.202
64043W        W23304   2.341  37.374  13.795
64044W        W23305  21.197  43.016   1.298
64045W        W23306  35.081  15.815  10.625
64046W        W23307  39.906  18.774   4.331
64047W        W23308   1.802  14.109   3.868
64048W        W23309  41.023  37.337  12.034
64049W        W23310  10.646   0.950  12.967
64050W        W23311  15.113  25.033  14.500
64051W        W23312  33.608   0.379  11.371
64052W        W23313  28.040  11.791   4.739
64053W        W23314  25.554  21.710   4.206
64054W        W23315  25.638  20.694  12.463
64055W        W23316  19.097  28.475  13.923
64056W        W23317  24.008  11.622   4.669
64057W        W23318  42.941   5.857   3.735
64058W        W23319  42.286  32.910   4.308
64059W        W23320   7.256  19.638   0.811
64060W        W23321  13.602  37.569   3.237
64061W        W23322  21.716  25.189   5.240
64062W        W23323  28.618  14.128   3.867
64063W        W23324  15.801  39.916  13.975
64064W        W23325  43.308  29.048  14.282
64065W        W23326  24.548  27.510  12.881
64066W        W23327  38.394  32.904  10.006
64067W        W23328  15.329   9.153   2.755
64068W        W23329  23.213  17.608  14.367
64069W        W23330  15.121  10.346   2.331
64070W        W23331  31.091   9.855   2.721
64071W        W23332  24.185  37.962  14.357
64072W        W23333  43.778  15.630   2.183
64073W        W23334  15.730  11.235  10.606
64074W        W23335  38.539  32.105   1.736
64075W        W23336  39.942   7.840  14.012
64076W        W23337  44.396   5.884  14.974
64077W        W23338  25.542  29.930   0.327
64078W        W23339  11.817   5.366  13.842
64079W        W23340  40.526   9.198   4.306
64080W        W23341  12.685   5.814  12.460
64081W        W23342  40.991  17.251  10.899
64082W        W23343  20.675   7.306  14.281
64083W        W23344   5.809  13.249   2.275
64084W        W23345   1.792  41.412  12.856
64085W        W23346  13.776  31.411   1.336
64086W        W23347  24.992  26.955   3.838
64087W        W23348  15.790  31.428  13.834
64088W        W23349  27.158  21.518  12.564
64089W        W23350   5.391  12.355   0.947
64090W        W23351  15.760  41.438  13.832
64091W        W23352  22.650  18.173   3.356
64092W        W23353  18.288   4.359   4.779
64093W        W23354  27.984   6.902   4.763
64094W        W23355  27.463  37.011   2.900
64095W        W23356  34.906   8.876  14.316
64096W        W23357  30.972  28.107   3.164
64097W        W23358  27.066  10.175   2.185
64098W        W23359   9.206  12.329   3.688
64099W        W23360   5.320  13.639   0.802
64100W        W23361  10.277  15.149   2.344
64101W        W23362  40.494  16.610   2.666
64102W        W23363  10.669  28.019   3.324
64103W        W23364  16.094  17.286   2.838
64104W        W23365   2.469  42.901  11.088
64105W        W23366  38.974  33.973   5.743
64106W        W23367   4.235  12.242   3.323
64107W        W23368  36.847   9.770   0.881
64108W        W23369  36.026   5.894   2.372
64109W        W23370  28.625   6.193   0.824
64110W        W23371   1.885  29.650   1.819
64111W        W23372  44.331  17.559  11.969
64112W        W23373   4.759  31.057   1.765
64113W        W23374  36.506  15.679  11.391
64114W        W23375  26.586  33.894  14.418
64115W        W23376  42.892  19.188   2.872
64116W        W23377  33.029   9.216  11.079
64117W        W23378   8.854   4.423   1.398
64118W        W23379  22.577  11.627  14.007
64119W        W23380  18.664   9.887   0.391
64120W        W23381   7.353  23.525  11.496
64121W        W23382  26.512   1.863  11.563
64122W        W23383  17.663  31.129   3.192
64123W        W23384  41.466  32.926  13.032
64124W        W23385  44.965  19.676   1.224
64125W        W23386  31.478  25.560  14.837
64126W        W23387   9.230   3.258  13.822
64127W        W23388   5.829  30.564   3.190
64128W        W23389  43.451  31.934   4.633
64129W        W23390   8.766  24.219  12.062
64130W        W23391  17.077  35.404  14.942
64131W        W23392  39.913   8.674  13.038
64132W        W23393  18.191  17.151  12.505
64133W        W23394   4.702   3.252   3.748
64134W        W23395  22.150  39.367   0.917
64135W        W23396  18.760  35.411   1.231
64136W        W23397  36.377  19.684   0.920
64137W        W23398   6.183  28.606   4.605
64138W        W23399  25.693  33.393  12.364
64139W        W23400  40.813  10.795  12.875
64140W        W23401  18.764   9.296  10.615
64141W        W23402  29.117  12.155  11.903
64142W        W23403  34.919  29.001  13.336
64143W        W23404  42.326  41.305   1.876
64144W        W23405  30.439  10.761   4.681
64145W        W23406  36.585  22.642  13.940
64146W        W23407  36.441   9.741  12.826
64147W        W23408  30.589  38.539   1.932
64148W        W23409  37.456  14.130   1.300
64149W        W23410  23.568  21.141  13.883
64150W        W23411   2.419   3.308  11.059
64151W        W23412  17.207  35.001   4.132
64152W        W23413  14.740   3.799   0.734
64153W        W23414  39.063  33.419  13.881
64154W        W23415  28.555  16.787   1.437
64155W        W23416  23.627  33.493  13.414
64156W        W23417  36.041  27.476   1.782
64157W        W23418  37.444   6.848  14.423
64158W        W23419   1.978   0.479  11.509
64159W        W23420  11.744   4.782  13.465
64160W        W23421  20.095   9.727   4.688
64161W        W23422  34.863  28.629   0.322
64162W        W23423  39.389  41.519  13.003
64163W        W23424  11.316  14.221  14.385
64164W        W23425  42.479  44.387   0.963
64165W        W23426   8.364  24.497   1.323
64166W        W23427   7.234  25.087  14.493
64167W        W23428  28.038  34.942   2.403
64168W        W23429   8.283  32.911  13.035
64169W        W23430  19.255  39.836  11.397
64170W        W23431  13.208  22.527   1.286
64171W        W23432  27.111  10.669   1.401
64172W        W23433  11.152  39.396  14.872
64173W        W23434  28.157   0.413  11.544
64174W        W23435  15.813   7.378  12.050
64175W        W23436  19.201   0.358   2.272
64176W        W23437  23.658  41.951   3.839
64177W        W23438  19.635  41.887   2.387
64178W        W23439  20.736   5.792  10.581
64179W        W23440  44.278  31.903  11.541
64180W        W23441  22.545   0.908  13.870
64181W        W23442   0.441  21.117  13.418
64182W        W23443  44.393  15.780  13.821
64183W        W23444   5.819  19.629  11.571
64184W        W23445  36.960  12.187  12.411
64185W        W23446   1.890  44.004   2.773
64186W        W23447  35.429  10.785  11.477
64187W        W23448  39.057   2.751   4.822
64188W        W23449  35.957  34.546   2.873
64189W        W23450  44.463  35.867   0.359
64190W        W23451  24.186  24.023   9.602
64191W        W23452   4.350  17.108  13.343
64192W        W23453  30.081  26.487  11.005
64193W        W23454  44.917  32.964  11.038
64194W        W23455  18.765  42.834   4.136
64195W        W23456  27.062  14.166  11.118
64196W        W23457  21.711  18.713   0.750
64197W        W23458   3.880   4.820   3.698
64198W        W23459  27.508  14.261   2.798
64199W        W23460  25.997   7.894  11.979
64200W        W23461   8.884  10.694   3.649
64201W        W23462  18.264  16.645  12.375
64202W        W23463  25.165  33.055   4.778
64203W        W23464  17.139  43.341   4.664
64204W        W23465  30.627   6.376  13.531
64205W        W23466  26.113  37.564  10.435
64206W        W23467  37.876   6.375  13.388
64207W        W23468   3.903   3.811   4.638
64208W        W23469  33.003  40.410   3.770
64209W        W23470  22.658  21.200   3.787
64210W        W23471  24.492   1.289   0.376
64211W        W23472  31.924  22.522   5.120
64212W        W23473  25.531  14.804  11.538
64213W        W23474  25.526  43.853  10.559
64214W        W23475   7.344  29.007   3.312
64215W        W23476   1.272   4.398  14.399
64216W        W23477  37.504   3.284   0.263
64217W        W23478  34.013  36.005  12.559
64218W        W23479  43.967   3.307   3.156
64219W        W23480   7.713   1.366   1.429
64220W        W23481  17.233  39.020   3.725
64221W        W23482  15.226  35.556   0.291
64222W        W23483  28.137  22.602  12.006
64223W        W23484   3.792  32.069   2.217
64224W        W23485  38.887  10.182   3.266
64225W        W23486  36.087   4.311  13.995
64226W        W23487  42.867  29.074   4.784
64227W        W23488   2.802  19.190   3.184
64228W        W23489   3.280  21.565  12.046
64229W        W23490  31.427  25.500  12.996
64230W        W23491  41.906  41.328  12.023
64231W        W23492  21.588  28.096  13.023
64232W        W23493  12.836  44.968  12.005
64233W        W23494  23.597  23.156   1.250
64234W        W23495  10.786  11.160  11.010
64235W        W23496  36.351  25.074  13.870
64236W        W23497  43.896  30.463  12.934
64237W        W23498   7.792  22.096   3.705
64238W        W23499  41.986  42.852   4.737
64239W        W23500  26.471  37.862   2.737
64240W        W23501   1.467  34.421   3.706
64241W        W23502  39.839   4.220   0.320
64242W        W23503   5.773  44.405   4.183
64243W        W23504  35.085  26.082  11.585
64244W        W23505  19.546  13.634  14.409
64245W        W23506  41.862  22.091  11.892
64246W        W23507   8.281  44.921   4.646
64247W        W23508  10.869  18.781   4.766
64248W        W23509  16.172  14.203   0.292
64249W        W23510  33.960  15.802   0.308
64250W        W23511   1.338   2.379   2.696
64251W        W23512  11.209  41.972   0.435
64252W        W23513  14.640  40.406   4.710
64253W        W23514  15.659  22.210   1.912
64254W        W23515  30.125  31.961   5.082
64255W        W23516  19.251  30.947  14.285
64256W        W23517   5.903  17.281   3.151
64257W        W23518  21.580  13.816   2.340
64258W        W23519  11.707  20.272   0.838
64259W        W23520  25.040  33.022   0.819
64260W        W23521  32.469  44.467  12.886
64261W        W23522  22.063  29.928  14.883
64262W        W23523  32.601  41.469  12.508
64263W        W23524  15.307  41.307   4.618
64264W        W23525   4.901  36.470  13.431
64265W        W23526  24.616  33.019   3.798
64266W        W23527  31.508   0.809   4.828
64267W        W23528  21.068  22.995  14.907
64268W        W23529   9.287  29.940   4.191
64269W        W23530  35.891  20.678  13.474
64270W        W23531  26.490  39.329   0.959
64271W        W23532  29.938   5.931   2.848
64272W        W23533  24.714  12.127  10.566
64273W        W23534   5.834  12.273  13.970
64274W        W23535  18.283   1.868  12.941
64275W        W23536  22.166   1.434   0.320
64276W        W23537  13.140  24.705   3.717
64277W        W23538   0.981  14.777   4.305
64278W        W23539  25.139  10.860  14.485
64279W        W23540  44.787  39.061   4.766
64280W        W23541  15.305   3.387   3.734
64281W        W23542  11.785  12.237  12.048
64282W        W23543  41.354  24.544   4.302
64283W        W23544  23.690  14.801   2.262
64284W        W23545  24.668   4.433  10.992
64285W        W23546  35.370   0.970  12.516
64286W        W23547  19.165   4.849  12.929
64287W        W23548  25.523   6.772  14.916
64288W        W23549  13.153  33.111  12.577
64289W        W23550   8.827  30.416  12.893
64290W        W23551  44.888  33.573  12.928
64291W        W23552   2.278  15.708  11.025
64292W        W23553  30.645  37.830  10.041
64293W        W23554  36.002  14.783   0.834
64294W        W23555   3.380  34.034   2.362
64295W        W23556  37.376  22.530  10.443
64296W        W23557  21.639  10.677  13.983
64297W        W23558  38.329  28.962  14.995
64298W        W23559  17.150  29.071  11.869
64299W        W23560  41.382   0.795   0.455
64300W        W23561  42.846  25.701   4.730
64301W        W23562   5.851  11.755   2.201
64302W        W23563  44.814  14.673   4.761
64303W        W23564  35.531   5.722  11.053
64304W        W23565  20.257   6.698   2.718
64305W        W23566  14.781  15.215   4.685
64306W        W23567  15.754   8.743   0.925
64307W        W23568   3.774  15.308   3.653
64308W        W23569  22.237  20.769   0.916
64309W        W23570  32.004  28.939  12.931
64310W        W23571  43.407   3.271  12.076
64311W        W23572  13.677  41.984   2.397
64312W        W23573  29.663   8.221  11.950
64313W        W23574  30.040  30.446   2.718
64314W        W23575  33.570  27.107  13.498
64315W        W23576   2.894  17.801   2.727
64316W        W23577  25.146   0.964  13.389
64317W        W23578  34.529  11.271   1.766
64318W        W23579  25.569  39.040   1.731
64319W        W23580  18.086  14.166  13.462
64320W        W23581  21.515  43.947   0.340
64321W        W23582   1.887  20.215  14.933
64322W        W23583  18.247  15.747  11.607
64323W        W23584  29.072  16.638  10.614
64324W        W23585  40.414  23.672  13.018
64325W        W23586  26.117  43.512   1.883
64326W        W23587  20.673  35.603   0.820
64327W        W23588   7.216  36.087  13.364
64328W        W23589  37.986  34.069   2.800
64329W        W23590  30.645   5.892   0.832
64330W        W23591  43.909  36.503  13.955
64331W        W23592  23.145  27.007  12.348
64332W        W23593  31.485  42.885  12.540
64333W        W23594  19.705  16.256  11.043
64334W        W23595  40.410  42.435   1.253
64335W        W23596  40.836  16.165   1.380
64336W        W23597  33.597  16.097  11.047
64337W        W23598  33.944  44.342  14.430
64338W        W23599  44.768  28.151   0.389
64339W        W23600   2.346  27.617   4.788
64340W        W23601  42.873  17.605  12.475
64341W        W23602  22.128  18.545  10.481
64342W        W23603  17.762  22.585   3.749
64343W        W23604  34.978  28.996   0.314
64344W        W23605  42.906   5.910  14.770
64345W        W23606  19.258  20.111   1.853
64346W        W23607  33.599  15.671  11.938
64347W        W23608  24.207  15.812  13.059
64348W        W23609  43.858   9.366   1.792
64349W        W23610  15.815  44.291  14.759
64350W        W23611  37.558  10.200   2.854
64351W        W23612  12.765   9.681  14.772
64352W        W23613  29.984  38.982  11.863
64353W        W23614  36.922  31.629  12.532
64354W        W23615   5.399  12.685   0.452
64355W        W23616  27.470  14.308  12.876
64356W        W23617  21.251  23.532  12.458
64357W        W23618  36.534  18.168   0.294
64358W        W23619  34.614  23.136  12.919
64359W        W23620  11.850  26.185   4.163
64360W        W23621   0.758  28.117  12.865
64361W        W23622   5.767  11.291  12.520
64362W        W23623  21.681   1.886  12.995
64363W        W23624  26.667  21.226   3.228
64364W        W23625  31.092  14.334  13.986
64365W        W23626  15.603   0.346  14.470
64366W        W23627   5.876   1.869  13.395
64367W        W23628   1.975   7.229   2.854
64368W        W23629  29.516   4.415   1.423
64369W        W23630   8.834   4.890   4.740
64370W        W23631  12.663   1.858   4.740
64371W        W23632  41.502  22.213   4.746
64372W        W23633  36.922  30.467   2.744
64373W        W23634   5.768  18.243   2.823
64374W        W23635  39.370   7.733  13.832
64375W        W23636  26.029   1.977   2.416
64376W        W23637  32.465  14.805   4.188
64377W        W23638  13.667  12.307  11.970
64378W        W23639  35.566   8.363  12.971
64379W        W23640  15.248  20.705  12.568
64380W        W23641   8.818  35.857   2.709
64381W        W23642  17.088   2.429   4.289
64382W        W23643  44.754   8.849   2.373
64383W        W23644  36.001  13.817   4.263
64384W        W23645  21.138  32.424   1.799
64385W        W23646   0.285   6.919  10.941
64386W        W23647  32.913  33.380   3.760
64387W        W23648   2.316  32.059   1.914
64388W        W23649  40.048   6.908   4.810
64389W        W23650  24.670  40.050  13.432
64390W        W23651  15.321  15.681   1.699
64391W        W23652  17.737  36.915   1.251
64392W        W23653   1.367   3.303  11.487
64393W        W23654  29.108  37.872   1.748
64394W        W23655  20.673  38.400   0.458
64395W        W23656   2.750  14.252  14.001
64396W        W23657  41.415   1.827  14.770
64397W        W23658   8.322   2.264   1.878
64398W        W23659  34.092  36.977   1.380
64399W        W23660  41.794  43.332   1.338
64400W        W23661  25.695  28.519   0.318
64401W        W23662  27.587  33.964   4.197
64402W        W23663  20.541  34.405  12.971
64403W        W23664  21.132  39.420  11.542
64404W        W23665   2.923  13.611   0.250
64405W        W23666   2.942  26.068  10.438
64406W        W23667  26.181   3.438   1.793
64407W        W23668  14.682  41.408   1.211
64408W        W23669  21.559  21.162  11.051
64409W        W23670  24.560  20.647  14.029
64410W        W23671  41.390   3.723  12.456
64411W        W23672  30.025  39.991   0.813
64412W        W23673  25.065  23.641  13.525
64413W        W23674  35.360  23.232  13.926
64414W        W23675  14.335  36.924   2.338
64415W        W23676  19.635  17.567  11.020
64416W        W23677   8.192  41.395  12.578
64417W        W23678  13.823  38.845  10.531
64418W        W23679   9.685  42.979   3.273
64419W        W23680  40.411   1.960  11.037
64420W        W23681  34.467  36.361  11.052
64421W        W23682   3.921   9.193  10.463
64422W        W23683  26.085   3.917   0.269
64423W        W23684   7.308   3.757   1.908
64424W        W23685   4.851  31.628  10.538
64425W        W23686  38.027  26.669   1.849
64426W        W23687  23.028  34.963  13.307
64427W        W23688   5.234  23.691  12.849
64428W        W23689  12.216  16.176  12.968
64429W        W23690  41.359  31.122  14.398
64430W        W23691  43.989  12.144  12.889
64431W        W23692  28.117  19.562   1.441
64432W        W23693   1.338  31.954  12.007
64433W        W23694   1.259   1.878  12.890
64434W        W23695  23.019   9.846   1.310
64435W        W23696  25.663  44.258  13.510
64436W        W23697   4.405  17.704  13.978
64437W        W23698  27.655  29.097   0.838
64438W        W23699  23.182  13.614   3.806
64439W        W23700   0.470   1.733  11.398
64440W        W23701  33.098   8.785  10.012
64441W        W23702  11.818  21.145   3.667
64442W        W23703  35.602   7.759   1.222
64443W        W23704  37.413  32.943   2.672
64444W        W23705  42.002  21.586  12.491
64445W        W23706   4.759  12.664  14.827
64446W        W23707   8.731  39.867  11.593
64447W        W23708  27.177  43.345   1.885
64448W        W23709  13.105  17.584  14.007
64449W        W23710  31.521  22.231   3.380
64450W        W23711   7.269  37.488   3.203
64451W        W23712  37.993  42.958  10.074
64452W        W23713  19.040   6.293  13.984
64453W        W23714  26.001  42.294  10.431
64454W        W23715   5.797  20.585   4.127
64455W        W23716  40.860   7.280  12.572
64456W        W23717  30.050  14.145   3.167
64457W        W23718  31.918  30.000  12.371
64458W        W23719  30.993   3.883   2.313
64459W        W23720  41.036   4.258  12.007
64460W        W23721  41.427   6.236   1.411
64461W        W23722  25.069  31.592  11.574
64462W        W23723  19.580  25.075  14.880
64463W        W23724  42.325  41.787   2.352
64464W        W23725  35.539  11.867  10.896
64465W        W23726  34.413   4.391  14.992
64466W        W23727  30.503  19.040  12.455
64467W        W23728   9.689  27.023   2.316
64468W        W23729  39.376  14.760  10.421
64469W        W23730   6.311  41.903  14.011
64470W        W23731  10.838  29.628   3.678
64471W        W23732  37.507  24.978   0.455
64472W        W23733   5.393  42.936   3.381
64473W        W23734  27.449  35.482   1.379
64474W        W23735  42.459  27.993   3.718
64475W        W23736  28.120  43.901   1.211
64476W        W23737   4.737   1.445  13.389
64477W        W23738  36.893  24.559   1.713
64478W        W23739  23.502  35.531  11.105
64479W        W23740  29.536  15.782  12.077
64480W        W23741   8.209  12.752  11.025
64481W        W23742  36.894  43.921  10.642
64482W        W23743   5.348  15.143  13.938
64483W        W23744  31.424  28.655  11.969
64484W        W23745  17.772  15.134  10.413
64485W        W23746  10.218  27.014   1.828
64486W        W23747  43.854   2.870   0.390
64487W        W23748   7.241   9.234  12.528
64488W        W23749  39.365  26.204   3.774
64489W        W23750  18.766  29.970   1.856
64490W        W23751   1.820  18.289  13.413
64491W        W23752  24.086  25.153  13.006
64492W        W23753  18.600   8.885  13.455
64493W        W23754  40.407   0.311  13.361
64494W        W23755  20.134  30.107  13.953
64495W        W23756  21.181   4.857  10.913
64496W        W23757  16.726   9.150   3.278
64497W        W23758   4.278   0.463   0.418
64498W        W23759  21.145  44.943   0.290
64499W        W23760  40.401  33.123  12.840
64500W        W23761  16.285  10.797   1.918
64501W        W23762  16.713   0.408   0.351
64502W        W23763  29.013  25.039  14.291
64503W        W23764  28.497   5.856  13.437
64504W        W23765  35.409  22.604   0.875
64505W        W23766  16.634  13.290   3.721
64506W        W23767  43.377  20.624  13.993
64507W        W23768   8.194   4.777   4.250
64508W        W23769  32.536  35.907  10.053
64509W        W23770   7.346  23.996  12.489
64510W        W23771  28.468   3.847  10.644
64511W        W23772   0.801  29.598  11.532
64512W        W23773  28.583   4.937   1.751
64513W        W23774  31.451  27.637   4.266
64514W        W23775  44.007  29.637  12.044
64515W        W23776   6.374  38.063  10.921
64516W        W23777   9.664  17.740   4.182
64517W        W23778   1.405  16.757  12.419
64518W        W23779   3.354   5.229  14.997
64519W        W23780  12.638  44.964   4.146
64520W        W23781   3.431  31.494  13.318
64521W        W23782   1.266  21.047   5.264
64522W        W23783  14.234  42.842   4.219
64523W        W23784  26.011   8.894   1.274
64524W        W23785  20.226  27.548   1.894
64525W        W23786  14.217  32.465   2.246
64526W        W23787  10.696  29.638   0.243
64527W        W23788  19.058  13.611  12.063
64528W        W23789  37.862   9.643   0.851
64529W        W23790  43.333  34.873   1.849
64530W        W23791  14.168  29.438   2.704
64531W        W23792   6.715  25.140   0.752
64532W        W23793  14.775  12.194   0.479
64533W        W23794  38.404  21.264  11.583
64534W        W23795   4.214  22.078  12.481
64535W        W23796  28.138  22.668  14.902
64536W        W23797  22.036  10.805   1.276
64537W        W23798  14.191  35.008  12.428
64538W        W23799  41.884   0.763   0.243
64539W        W23800  43.300  19.558  10.979
64540W        W23801  28.186  30.059   0.438
64541W        W23802  39.380  19.132   0.899
64542W        W23803   5.231  35.446  12.960
64543W        W23804  27.617  25.644   4.695
64544W        W23805  36.946  28.471   4.712
64545W        W23806  12.633  34.089  12.445
64546W        W23807  40.880  15.176   0.939
64547W        W23808  23.565   7.828   2.265
64548W        W23809  35.588  24.173  12.522
64549W        W23810  37.548   5.404   0.309
64550W        W23811   6.766  29.584  10.976
64551W        W23812   0.323   8.846   0.245
64552W        W23813  28.162   8.204   1.721
64553W        W23814   8.750  41.908   2.314
64554W        W23815  19.262  35.486  13.024
64555W        W23816  13.761  22.505  11.509
64556W        W23817   7.837  36.884  13.038
64557W        W23818  34.419  10.324  10.984
64558W        W23819  34.882  42.807   0.837
64559W        W23820  29.450  44.356   0.309
64560W        W23821  23.165  28.060   3.160
64561W        W23822  36.939  19.226   1.796
64562W        W23823  15.094  41.338  11.868
64563W        W23824  31.641   7.331   4.734
64564W        W23825   6.325   6.279  13.375
64565W        W23826   1.289  15.256   2.665
64566W        W23827   3.332  44.422   2.334
64567W        W23828   1.760  26.054   2.192
64568W        W23829  36.512  24.608   4.829
64569W        W23830  14.778   5.828   0.297
64570W        W23831  13.696  42.851  10.435
64571W        W23832  13.175  39.861   5.226
64572W        W23833  16.144  23.015   0.422
64573W        W23834   1.366  32.473  14.771
64574W        W23835  11.344  10.802   3.347
64575W        W23836  32.054   2.240  11.519
64576W        W23837   0.937  34.050   2.695
64577W        W23838   5.752  19.569   4.193
64578W        W23839  29.608  23.644   4.188
64579W        W23840   2.818   3.847   0.764
64580W        W23841   6.220  30.014   3.220
64581W        W23842   1.881  21.078   0.364
64582W        W23843   9.223  18.271   3.868
64583W        W23844  18.672  43.821  14.875
64584W        W23845   0.976  36.369  10.513
64585W        W23846  40.899  37.502   3.855
64586W        W23847  13.130  20.654  12.833
64587W        W23848  26.525  22.095   1.321
64588W        W23849   0.380  27.141  11.867
64589W        W23850  22.140   5.251   1.325
64590W        W23851   3.732  19.072  13.386
64591W        W23852  40.432  30.033   4.221
64592W        W23853  40.842  11.700  12.021
64593W        W23854   5.350  25.513  13.336
64594W        W23855  14.695   4.904  14.317
64595W        W23856  43.348   4.249  14.976
64596W        W23857  11.735  15.633  12.823
64597W        W23858  24.155  30.562   0.833
64598W        W23859  20.749  42.355  11.986
64599W        W23860  40.416   1.336   2.815
64600W        W23861  37.977   2.419   3.835
64601W        W23862  22.558  30.481   0.778
64602W        W23863   7.350  25.053  10.955
64603W        W23864  17.308  33.958   0.923
64604W        W23865  19.199  11.321   3.373
64605W        W23866  33.610  36.926  10.564
64606W        W23867   1.976  28.625  11.556
64607W        W23868  19.176  19.097  13.457
64608W        W23869  11.167  10.163   3.232
64609W        W23870  25.658  33.066   3.773
64610W        W23871   0.321  12.223  10.617
64611W        W23872  10.333  38.456   2.850
64612W        W23873  14.726  32.616  12.488
64613W        W23874  39.050  35.901   3.636
64614W        W23875  41.358  33.875   2.336
64615W        W23876   9.883  43.965   0.482
64616W        W23877   6.697  42.986  12.985
64617W        W23878  15.612  15.110  12.008
64618W        W23879  30.026  44.906  10.416
64619W        W23880   6.393  39.456   4.220
64620W        W23881  12.664  17.161  13.393
64621W        W23882  30.554  29.046   2.898
64622W        W23883   6.343   6.722  13.409
64623W        W23884  43.938   9.282  10.897
64624W        W23885  26.105  43.915   1.817
64625W        W23886  19.774  34.615   1.298
64626W        W23887  42.918  38.333  10.523
64627W        W23888   7.221   7.247   1.900
64628W        W23889   5.339   2.944   3.207
64629W        W23890  31.502   2.848  10.562
64630W        W23891  14.146  34.963  12.936
64631W        W23892  36.023  36.502   3.672
64632W        W23893  38.919  10.663   0.275
64633W        W23894  23.210  15.169   3.201
64634W        W23895  34.555  14.717  13.063
64635W        W23896  39.538  42.924   4.130
64636W        W23897  16.722  18.275   3.840
64637W        W23898  33.095  38.504   9.535
64638W        W23899  28.069  38.403  11.422
64639W        W23900   2.959   3.234   0.834
64640W        W23901  27.450   8.338  13.518
64641W        W23902  31.543  36.591  12.068
64642W        W23903  28.607  25.026   0.913
64643W        W23904  38.925  43.290   2.363
64644W        W23905  11.734  28.588  12.505
64645W        W23906  36.353   1.430  12.414
64646W        W23907  26.478   8.828   2.698
64647W        W23908  24.661   0.462   0.378
64648W        W23909   7.246  27.997  11.556
64649W        W23910  34.040   6.791   4.307
64650W        W23911  11.810   6.738   2.789
64651W        W23912  36.008  28.047  12.992
64652W        W23913  21.076  11.181  10.890
64653W        W23914  33.611  43.364  12.058
64654W        W23915   9.356   1.366   1.720
64655W        W23916  40.826   5.768   2.777
64656W        W23917  27.157  28.530   1.270
64657W        W23918   9.702  43.926   4.837
64658W        W23919  43.812  19.545  10.454
64659W        W23920  33.939  44.428   1.746
64660W        W23921  22.107   3.260  13.405
64661W        W23922   0.784  29.092   2.409
64662W        W23923  28.580   3.875   2.825
64663W        W23924  19.544  31.947  12.885
64664W        W23925  20.195  42.340   4.605
64665W        W23926  10.184  31.062   1.782
64666W        W23927  18.107   8.250   1.375
64667W        W23928   6.196  31.598  11.531
64668W        W23929  17.097  14.616  10.408
64669W        W23930  28.013   8.707   2.378
64670W        W23931   3.244  10.770  14.384
64671W        W23932  23.082  31.031  11.021
64672W        W23933  19.640   6.692   0.913
64673W        W23934  44.325   5.756  12.887
64674W        W23935  19.775  36.051  11.552
64675W        W23936   9.263  13.195  13.825
64676W        W23937  38.508  26.152   4.249
64677W        W23938   6.850  13.743  11.411
64678W        W23939  33.616   3.841  12.551
64679W        W23940  15.750  25.070  11.562
64680W        W23941  24.193  15.820   1.267
64681W        W23942   7.410  29.565   4.695
64682W        W23943  38.841  24.202  10.506
64683W        W23944  28.068  26.507   0.854
64684W        W23945  28.655   9.350  12.839
64685W        W23946   4.896  35.442   2.367
64686W        W23947   8.733  38.016  13.940
64687W        W23948   4.336  36.971   0.733
64688W        W23949  27.041  35.026  10.891
64689W        W23950  13.599  23.053  12.495
64690W        W23951  16.615  28.631   3.240
64691W        W23952  40.363  36.447  13.320
64692W        W23953  32.979   5.895  11.993
64693W        W23954   6.220  18.671   3.320
64694W        W23955  21.163  32.089   3.805
64695W        W23956  31.542  22.501   3.182
64696W        W23957  32.021  11.285   0.821
64697W        W23958   2.405   6.363  11.587
64698W        W23959  30.469  17.637  14.952
64699W        W23960  10.318  43.806   3.366
64700W        W23961  20.136   2.372  14.861
64701W        W23962  11.346  43.888  12.493
64702W        W23963  26.192  26.054  10.892
64703W        W23964   2.781  31.485   2.748
64704W        W23965  40.838  24.205  11.496
64705W        W23966  37.912  16.317  13.813
64706W        W23967  14.167  10.239   1.782
64707W        W23968   7.240  20.638  11.987
64708W        W23969  15.613  28.655  14.375
64709W        W23970   5.380  36.981   0.757
64710W        W23971  22.507  11.622  14.966
64711W        W23972   9.660   4.435   0.473
64712W        W23973  40.475  21.110  13.341
64713W        W23974  11.149   6.212   1.721
64714W        W23975  13.244   9.329  14.334
64715W        W23976  30.035  30.032   4.796
64716W        W23977  39.501   1.385  12.445
64717W        W23978  20.147  21.650  14.368
64718W        W23979   1.322  22.585  13.952
64719W        W23980  28.163   6.385   1.803
64720W        W23981  15.169  44.961  12.916
64721W        W23982  12.239   9.819  10.918
64722W        W23983  30.072  26.475   0.453
64723W        W23984  39.452  14.630   0.264
64724W        W23985  42.882  36.945   0.310
64725W        W23986  22.117  29.926   3.869
64726W        W23987  28.125  24.547   4.643
64727W        W23988  23.018  19.573   4.788
64728W        W23989  19.665   3.763   1.908
64729W        W23990  16.086  12.641  13.433
64730W        W23991  31.551  33.592   5.146
64731W        W23992  38.408  39.425   0.842
64732W        W23993  11.309   5.382  14.884
64733W        W23994  22.502  41.823  11.935
64734W        W23995  26.574   9.826   2.270
64735W        W23996  33.502  25.993  10.071
64736W        W23997  32.417  38.381  12.016
64737W        W23998  38.411  22.120   0.788
64738W        W23999  26.573  16.611  10.443
64739W        W24000  26.089  20.116  13.437
64740W        W24001  22.040  32.447   0.747
64741W        W24002   3.745  12.227   0.933
64742W        W24003   3.225  34.424   2.873
64743W        W24004  34.961  35.963   1.327
64744W        W24005  13.831  19.772   2.229
64745W        W24006  11.315  34.925  14.409
64746W        W24007  23.185  14.771   1.816
64747W        W24008  20.573  25.012   9.604
64748W        W24009  41.341  31.100   5.223
64749W        W24010  22.192  29.994   2.759
64750W        W24011  35.930  19.083   4.228
64751W        W24012  36.522  21.741  14.385
64752W        W24013  26.601  39.816   3.315
64753W        W24014  27.528  40.365  13.315
64754W        W24015  14.642   1.923   3.275
64755W        W24016   7.821   1.476  12.467
64756W        W24017  42.483  24.635  11.882
64757W        W24018  15.687  41.858   4.661
64758W        W24019  36.444   4.811   9.934
64759W        W24020  13.205   9.155   1.906
64760W        W24021   4.872  25.479  14.925
64761W        W24022   0.423  33.393   0.404
64762W        W24023   0.472   0.353   4.757
64763W        W24024   0.964  38.893  10.627
64764W        W24025  13.162  38.058  12.417
64765W        W24026  36.096  38.467  12.840
64766W        W24027  12.202  44.925  11.531
64767W        W24028  27.167  22.039  13.406
64768W        W24029  33.913  17.294  10.406
64769W        W24030  28.106  41.433  12.460
64770W        W24031  13.185  27.090  10.432
64771W        W24032  30.429   4.877  12.035
64772W        W24033  42.928   2.428  10.530
64773W        W24034  35.528  29.457   3.308
64774W        W24035  19.085  19.690   3.161
64775W        W24036  22.554  38.060  10.999
64776W        W24037  42.919   7.758  11.933
64777W        W24038   5.750  16.767  12.059
64778W        W24039  37.002  39.914   0.913
64779W        W24040   0.447  32.540   3.356
64780W        W24041  32.409  22.715  11.862
64781W        W24042   5.362   6.825  10.405
64782W        W24043  35.062  25.560   1.397
64783W        W24044  44.001  13.683   3.149
64784W        W24045  12.276   7.205  10.431
64785W        W24046  41.024  27.193   3.728
64786W        W24047   6.743  39.820  14.460
64787W        W24048  11.844  17.077   4.641
64788W        W24049  23.563   9.858  12.512
64789W        W24050  27.947  37.410  14.957
64790W        W24051  37.575  19.599  13.339
64791W        W24052  22.608  27.083   0.812
64792W        W24053   9.687   8.886  10.512
64793W        W24054   5.375  26.158  12.486
64794W        W24055   5.337  12.772   0.867
64795W        W24056  29.051  18.195   4.228
64796W        W24057  23.519  27.021   0.332
64797W        W24058  10.298  20.728  11.028
64798W        W24059   7.225  18.165  10.426
64799W        W24060  34.476   9.690  13.814
64800W        W24061  28.677  39.847  14.287
64801W        W24062  28.481  34.074   1.327
64802W        W24063  14.295   2.398  10.904
64803W        W24064  24.553   2.884   3.193
64804W        W24065  21.179  21.212   1.346
64805W        W24066  23.721  32.892   0.840
64806W        W24067  24.003  36.369  10.588
64807W        W24068  43.511   8.883   1.920
64808W        W24069  17.216  16.114   0.442
64809W        W24070  27.087  35.031  12.910
64810W        W24071   1.288  41.829  12.055
64811W        W24072   0.341  41.973  12.992
64812W        W24073  10.347  26.648   1.337
64813W        W24074  20.058  36.976  12.861
64814W        W24075   4.396  10.642   2.900
64815W        W24076  32.513  23.668  14.758
64816W        W24077  43.009  41.985   3.712
64817W        W24078   5.765  32.627  14.346
64818W        W24079  18.192  29.167   0.893
64819W        W24080  24.047  11.270  11.412
64820W        W24081   9.172   6.842   9.983
64821W        W24082  14.180   7.909   4.156
64822W        W24083  13.268  15.227   2.810
64823W        W24084  12.195  20.548  12.518
64824W        W24085  27.454  31.141  14.886
64825W        W24086  10.694   7.900   1.848
64826W        W24087  44.897  27.460   1.298
64827W        W24088   9.707  26.574   4.287
64828W        W24089  16.599  43.869  12.051
64829W        W24090  25.678   9.743  13.827
64830W        W24091  34.936  10.186   1.411
64831W        W24092  25.092  27.959   4.664
64832W        W24093   6.187  21.131  11.086
64833W        W24094  24.993  35.383  11.962
64834W        W24095  24.528  15.606   9.989
64835W        W24096  24.216  22.045  14.876
64836W        W24097  39.023  15.660   1.269
64837W        W24098  44.984  32.890   3.309
64838W        W24099   4.902  42.972   4.622
64839W        W24100  17.765  11.135  12.468
64840W        W24101   9.236  20.671   4.654
64841W        W24102  38.950  28.519  11.030
64842W        W24103  20.238  39.515   0.954
64843W        W24104  31.517  17.687  11.386
64844W        W24105  34.586   9.801   1.828
64845W        W24106  34.067  13.697   3.659
64846W        W24107   8.843   6.347   3.333
64847W        W24108  30.161  42.986  11.902
64848W        W24109  34.534  42.291   1.834
64849W        W24110   8.695  36.008  10.579
64850W        W24111  24.492  31.594   0.953
64851W        W24112  16.660  13.645   0.315
64852W        W24113  23.619   3.267   1.827
64853W        W24114  25.061  14.229   2.799
64854W        W24115  33.552  40.898  13.029
64855W        W24116   7.665   6.803   2.725
64856W        W24117  29.919  15.651  11.537
64857W        W24118  20.739   0.269   3.304
64858W        W24119  11.836  23.614   4.646
64859W        W24120  38.883  34.872   1.711
64860W        W24121   7.352   7.186  10.516
64861W        W24122   9.262  27.009  11.928
64862W        W24123  10.683   5.821  12.387
64863W        W24124   4.755  21.553  11.409
64864W        W24125  22.219   6.332  11.496
64865W        W24126  34.603  36.513   1.730
64866W        W24127  15.110  18.149   4.207
64867W        W24128  29.450  13.691   4.280
64868W        W24129  11.647  22.216  14.009
64869W        W24130  39.436  28.574  11.568
64870W        W24131   9.348  21.195   1.839
64871W        W24132  40.839  37.078   2.265
64872W        W24133   9.761  39.814   4.258
64873W        W24134  44.382  14.127   1.728
64874W        W24135  32.948  26.526   0.333
64875W        W24136  21.667  32.077  14.000
64876W        W24137  34.610  36.963   1.860
64877W        W24138   9.275  30.598   2.344
64878W        W24139  20.206  20.597   3.817
64879W        W24140  33.120  26.600   1.433
64880W        W24141   5.229  40.328   0.398
64881W        W24142  19.194  43.350  14.998
64882W        W24143  25.582  16.805   2.302
64883W        W24144  36.586  40.807  10.071
64884W        W24145   9.867  38.399   2.252
64885W        W24146   6.388  32.012   0.456
64886W        W24147   7.682  17.654  13.941
64887W        W24148  15.604   8.228   3.631
64888W        W24149  35.919  43.446  12.875
64889W        W24150  10.364  31.493   3.334
64890W        W24151  42.869  42.336   0.284
64891W        W24152  37.507  11.284  13.027
64892W        W24153  11.366   8.384   3.145
64893W        W24154  19.620   1.430   3.206
64894W        W24155  23.032  28.119  13.356
64895W        W24156  16.794   5.840  14.363
64896W        W24157  32.451  32.448  14.313
64897W        W24158  23.693   6.823   4.177
64898W        W24159  36.974  24.608  11.933
64899W        W24160  33.016  17.285  11.067
64900W        W24161  14.666  15.313   3.745
64901W        W24162   6.750  27.636  14.480
64902W        W24163  32.456  20.644   3.363
64903W        W24164   5.868  31.404  13.457
64904W        W24165  21.546  40.991   1.759
64905W        W24166  29.511   2.919  13.902
64906W        W24167   2.808  28.967  14.470
64907W        W24168  35.882  40.479  14.468
64908W        W24169  27.563   2.838   3.169
64909W        W24170  19.684   8.225  10.454
64910W        W24171  32.069  31.490   0.355
64911W        W24172  33.439  42.380   3.322
64912W        W24173  26.582  40.919  10.625
64913W        W24174  26.150   2.385  14.310
64914W        W24175   2.393  17.244   5.266
64915W        W24176  43.844  19.570   0.885
64916W        W24177  37.344  24.686  10.436
64917W        W24178   6.400  12.773   0.856
64918W        W24179  40.424  10.849   1.873
64919W        W24180  24.579  35.415  11.573
64920W        W24181   6.253  42.971  13.896
64921W        W24182  27.943   5.434   4.716
64922W        W24183  31.611  23.598   4.174
64923W        W24184  15.646  17.095  13.909
64924W        W24185  12.787   3.777   1.820
64925W        W24186   6.701  13.677   4.612
64926W        W24187  11.303  12.315   4.828
64927W        W24188  39.435  12.163   2.259
64928W        W24189  20.664  42.440  12.448
64929W        W24190  37.408  13.628   3.735
64930W        W24191  16.241  40.475  12.044
64931W        W24192  30.444  26.191   1.229
64932W        W24193   1.743  20.255  12.985
64933W        W24194  17.645  18.217   4.178
64934W        W24195  11.249  30.481   3.204
64935W        W24196  28.642  23.599   2.233
64936W        W24197  23.647  16.083  12.016
64937W        W24198  18.079  40.956   3.732
64938W        W24199  37.960  23.587  13.367
64939W        W24200  13.675  29.621  12.914
64940W        W24201  25.582  36.985  12.365
64941W        W24202  32.136   4.433   3.854
64942W        W24203  18.051  35.414   4.239
64943W        W24204  27.557   7.261   1.433
64944W        W24205  34.435   0.320  13.049
64945W        W24206   7.327  36.405   1.840
64946W        W24207  34.611   8.688  13.406
64947W        W24208   2.239  28.541   1.730
64948W        W24209  13.148  28.457  10.983
64949W        W24210  26.011  27.453  11.997
64950W        W24211  19.096  18.101   3.375
64951W        W24212  44.382  42.929   9.973
64952W        W24213  25.694  17.203   0.861
64953W        W24214  21.179  22.710   3.195
64954W        W24215  11.649  16.100  13.536
64955W        W24216   8.794  40.537   3.254
64956W        W24217  38.329  44.311  11.097
64957W        W24218  44.443  22.572  11.411
64958W        W24219  38.839  39.007  12.943
64959W        W24220  12.143  21.067  13.851
64960W        W24221   5.433  25.631  10.975
64961W        W24222   8.659  43.336  13.317
64962W        W24223   6.382  44.392   0.350
64963W        W24224  31.585  17.274  11.465
64964W        W24225  30.490  41.439   5.092
64965W        W24226  26.556  22.166   4.632
64966W        W24227  32.046  31.967   9.937
64967W        W24228  42.777   9.813  10.562
64968W        W24229   8.802   0.760  12.400
64969W        W24230  21.750  31.057   3.749
64970W        W24231  13.680  23.598   4.836
64971W        W24232  13.798  38.533  14.512
64972W        W24233   1.807  15.133   4.195
64973W        W24234   9.159   4.429  14.382
64974W        W24235   0.849  35.550  13.342
64975W        W24236  36.934  18.676   0.843
64976W        W24237  33.083  36.094   3.337
64977W        W24238  21.524  15.736   9.956
64978W        W24239  34.577  32.481  13.862
64979W        W24240  21.166  42.974  11.015
64980W        W24241  18.784  43.457   0.824
64981W        W24242  19.147   6.743   1.254
64982W        W24243  22.051  31.575  12.990
64983W        W24244  25.505  28.619   4.670
64984W        W24245  37.846  19.072   4.311
64985W        W24246  40.373  19.135  12.056
64986W        W24247  17.226  21.101  12.871
64987W        W24248  23.612  25.016  10.943
64988W        W24249   8.319  21.212   2.358
64989W        W24250  44.886  17.101  14.002
64990W        W24251  15.261  11.186   0.945
64991W        W24252   6.735  35.050   2.282
64992W        W24253  28.539   6.393   0.453
64993W        W24254  16.177  35.919  14.375
64994W        W24255  44.396  25.191  14.863
64995W        W24256  18.219   8.706   5.247
64996W        W24257  44.852  27.657  13.345
64997W        W24258  32.103  14.177  11.402
64998W        W24259   4.741  37.971  14.944
64999W        W24260   3.383  33.952  14.367
65000W        W24261  27.449  15.313   1.843
65001W        W24262  38.534  19.147   3.835
65002W        W24263  43.430  34.907  10.939
65003W        W24264   8.727   2.723   1.220
65004W        W24265  34.509  14.165  10.907
65005W        W24266  14.324   7.329   3.752
65006W        W24267   8.825  11.142  12.489
65007W        W24268  33.951  35.945   1.274
65008W        W24269  32.903   0.418  10.936
65009W        W24270   8.807  32.438  14.895
65010W        W24271  16.181  18.624   0.379
65011W        W24272   2.771  17.720  11.528
65012W        W24273   1.837  43.966   3.289
65013W        W24274  14.591  30.976  11.084
65014W        W24275  39.513  33.976  13.406
65015W        W24276  41.488  38.851   2.228
65016W        W24277  14.832   1.862  13.483
65017W        W24278  26.595   8.351  11.865
65018W        W24279  41.530  44.955  12.506
65019W        W24280   9.747  34.064   3.819
65020W        W24281  28.107   8.185  10.474
65021W        W24282  35.422  42.380   3.344
65022W        W24283  32.888  12.186  12.533
65023W        W24284  25.089  27.504  10.909
65024W        W24285  15.150  25.484   0.726
65025W        W24286  18.729   8.236  10.644
65026W        W24287  24.550   7.305   0.424
65027W        W24288  28.984  26.615   3.815
65028W        W24289   3.265  13.706   4.826
65029W        W24290  39.390  19.737   3.660
65030W        W24291  19.567  22.624  13.517
65031W        W24292  41.511  10.378   0.431
65032W        W24293  21.758  35.507   0.454
65033W        W24294  25.702  14.206  12.017
65034W        W24295  43.395   2.770   1.704
65035W        W24296  42.374  37.969  14.849
65036W        W24297  33.945  20.737  11.124
65037W        W24298  27.118  10.346   3.303
65038W        W24299   8.709   9.353  12.988
65039W        W24300  23.619   9.889   4.626
65040W        W24301   9.766  21.126  14.857
65041W        W24302  35.070  24.586  14.912
65042W        W24303  26.580  19.780   3.172
65043W        W24304   0.321   6.358   4.672
65044W        W24305  21.171  37.427   4.762
65045W        W24306  14.209  14.612  12.000
65046W        W24307  31.128  35.365   4.259
65047W        W24308  36.418  30.534  12.479
65048W        W24309  36.881  44.943  10.964
65049W        W24310  12.787  13.729   0.815
65050W        W24311  25.962  30.028  12.550
65051W        W24312  41.381  21.736   4.775
65052W        W24313  33.972  29.571   0.314
65053W        W24314  41.855  17.099  11.913
65054W        W24315  21.546  25.104  14.026
65055W        W24316  11.343   8.779  12.560
65056W        W24317   6.195  30.653  13.031
65057W        W24318  29.157  26.185  11.552
65058W        W24319  17.627  38.466  10.564
65059W        W24320  18.132  39.986  13.545
65060W        W24321   0.772  43.275   1.741
65061W        W24322  10.279  42.308  13.488
65062W        W24323  27.157   2.448   4.208
65063W        W24324  34.012  41.906   2.669
65064W        W24325  19.698  42.878   1.736
65065W        W24326   0.349  40.024  12.532
65066W        W24327  10.243   8.783  14.503
65067W        W24328  30.483  23.565   1.792
65068W        W24329   6.743  16.737  13.501
65069W        W24330   7.281  28.592  10.898
65070W        W24331  25.481   6.900   4.174
65071W        W24332  43.388  16.663   4.712
65072W        W24333   5.918   8.676  11.931
65073W        W24334  11.799  13.712  12.936
65074W        W24335   1.435  12.824  10.523
65075W        W24336  31.973  39.551  13.965
65076W        W24337  41.415  33.454   4.299
65077W        W24338  35.445  19.117   2.203
65078W        W24339  13.670  17.611  10.445
65079W        W24340  16.183  29.971   4.701
65080W        W24341  40.802   7.867  13.510
65081W        W24342   1.416  38.489   1.695
65082W        W24343   2.398  22.731   1.413
65083W        W24344  19.558  11.753   0.752
65084W        W24345   2.751  34.610  10.540
65085W        W24346  18.270  26.053   0.343
65086W        W24347  17.087   8.874   4.720
65087W        W24348  21.203  25.180   5.676
65088W        W24349  13.818  12.176   0.916
65089W        W24350   1.938  40.521  13.378
65090W        W24351  22.570  43.350   2.409
65091W        W24352  44.878  35.054  14.299
65092W        W24353  14.648  40.931  11.408
65093W        W24354  32.493  18.122   5.251
65094W        W24355   8.253   9.230  11.881
65095W        W24356   0.367  11.187   2.375
65096W        W24357  20.598  37.984  13.052
65097W        W24358  19.140  29.501  14.979
65098W        W24359  17.091   7.677  12.360
65099W        W24360  36.414  21.577   1.253
65100W        W24361  14.725  20.606   4.251
65101W        W24362  32.603  20.185   1.807
65102W        W24363  24.185  41.489  12.998
65103W        W24364  29.978  23.199  12.418
65104W        W24365  18.669   3.454   3.368
65105W        W24366  17.798  10.809   1.705
65106W        W24367  17.597  34.536  13.899
65107W        W24368  32.427  38.418   1.337
65108W        W24369  18.656   2.806  11.471
65109W        W24370   9.157  27.948  11.425
65110W        W24371  18.152  38.487  12.486
65111W        W24372   8.308   0.342   4.311
65112W        W24373   8.860   0.773   4.777
65113W        W24374  10.808   7.744   3.280
65114W        W24375  17.665  31.928   0.385
65115W        W24376  25.697   5.417  10.410
65116W        W24377  34.017  29.511  14.430
65117W        W24378  32.073  34.430  12.548
65118W        W24379  41.811  31.463   4.752
65119W        W24380   5.240   5.880   4.283
65120W        W24381  35.423  20.637  14.317
65121W        W24382  28.020  31.457   3.277
65122W        W24383  10.834  36.925   3.707
65123W        W24384  17.164  15.694  12.879
65124W        W24385  39.535  10.187   9.936
65125W        W24386  11.635  44.766  13.392
65126W        W24387  24.671  24.116  12.468
65127W        W24388  27.156  38.845   3.806
65128W        W24389  29.522   0.428   0.412
65129W        W24390  43.381   2.407  11.549
65130W        W24391  28.974   8.176   4.317
65131W        W24392  44.009  26.095  12.380
65132W        W24393  18.257  11.809  14.439
65133W        W24394  35.380  42.939  14.335
65134W        W24395  17.263  44.401   0.443
65135W        W24396  11.348  23.604  10.953
65136W        W24397  12.736  39.044  14.893
65137W        W24398  29.666  18.117   5.144
65138W        W24399  12.641  44.769  10.549
65139W        W24400  29.603  16.588   4.225
65140W        W24401  17.147  17.669  14.444
65141W        W24402  23.066  38.510   1.287
65142W        W24403   8.809  43.421  10.626
65143W        W24404  28.614  18.627   4.344
65144W        W24405   3.356  33.979   3.369
65145W        W24406   8.316  40.820   3.313
65146W        W24407  15.296  22.739  11.070
65147W        W24408  22.073  18.747   4.161
65148W        W24409   5.858  19.777   2.781
65149W        W24410  22.659   5.288  14.784
65150W        W24411  42.895  10.677  13.413
65151W        W24412   9.730  34.085  14.015
65152W        W24413   4.906  18.060  11.876
65153W        W24414  43.866  13.777  13.518
65154W        W24415   8.782  27.468  11.111
65155W        W24416  33.121  23.240  10.425
65156W        W24417  31.458  10.209  12.031
65157W        W24418  33.591   5.286  13.918
65158W        W24419  38.833  32.437   0.957
65159W        W24420  28.560  32.405  11.451
65160W        W24421  36.098  31.479  12.941
65161W        W24422   7.907  28.151  13.799
65162W        W24423  42.312  36.842   4.700
65163W        W24424  35.406  28.019   4.795
65164W        W24425  16.749  17.763  14.962
65165W        W24426  14.234  40.946   3.191
65166W        W24427  35.884  25.512   0.376
65167W        W24428  27.008  32.924   3.328
65168W        W24429  18.642   9.262  14.353
65169W        W24430  10.762  13.174   1.355
65170W        W24431  37.397  21.151  11.415
65171W        W24432   4.302  23.716   4.207
65172W        W24433   4.903  14.332  10.977
65173W        W24434  10.183  30.918  14.291
65174W        W24435  18.289   0.937   4.743
65175W        W24436   7.409  35.400   2.901
65176W        W24437  11.756  43.817  11.506
65177W        W24438  31.024  35.077  13.350
65178W        W24439  17.102  40.960   3.297
65179W        W24440  17.602  18.171   3.164
65180W        W24441  32.962  16.089  11.422
65181W        W24442   9.202  25.116  14.968
65182W        W24443  25.069  27.548   1.251
65183W        W24444  44.999  42.921   0.838
65184W        W24445  32.519   4.912   3.710
65185W        W24446   4.288  14.658   0.780
65186W        W24447  13.728  22.597   2.307
65187W        W24448  44.966   9.721   0.451
65188W        W24449  35.882  30.052   0.303
65189W        W24450   6.303  20.206   0.437
65190W        W24451  27.978  13.622  12.020
65191W        W24452  34.907  31.093  13.817
65192W        W24453   0.430  10.143   0.915
65193W        W24454  21.139   8.779   2.864
65194W        W24455  30.648   2.755   3.229
65195W        W24456  31.980  41.924  12.068
65196W        W24457  20.105   8.372   4.668
65197W        W24458  11.167  38.553   4.272
65198W        W24459  12.116   6.398  12.541
65199W        W24460  29.567   6.689   2.837
65200W        W24461  13.655  23.034  11.527
65201W        W24462  35.545  24.480  12.971
65202W        W24463  36.401   1.817  14.017
65203W        W24464  13.784   9.159   0.313
65204W        W24465  12.671  42.494   3.234
65205W        W24466  24.123  12.766   2.700
65206W        W24467  43.392   9.802  12.352
65207W        W24468  37.849   0.376   1.364
65208W        W24469  34.591  13.260  14.021
65209W        W24470   7.722  26.624  12.401
65210W        W24471  40.034   9.833   3.871
65211W        W24472  38.944  30.135  13.429
65212W        W24473  28.951  39.943   2.385
65213W        W24474   2.244  10.848   4.153
65214W        W24475   4.339  23.564   2.200
65215W        W24476  21.184  15.632   4.684
65216W        W24477  23.622  44.931   1.376
65217W        W24478  22.509  42.947  14.849
65218W        W24479  24.715   0.401   4.802
65219W        W24480  32.589  26.576   2.333
65220W        W24481  35.545   0.790   0.306
65221W        W24482   9.658  22.743  13.405
65222W        W24483  11.206  11.373  10.608
65223W        W24484  42.924  22.735  13.857
65224W        W24485  20.051  12.286  10.556
65225W        W24486  19.776  34.117   2.840
65226W        W24487  27.490   5.341   2.310
65227W        W24488   0.465  15.324  14.780
65228W        W24489  19.279   8.735   2.755
65229W        W24490   0.468  19.591   0.857
65230W        W24491  28.556  11.696  11.964
65231W        W24492   1.807   2.407  13.503
65232W        W24493  35.367  33.058   4.344
65233W        W24494  26.681  31.010  10.447
65234W        W24495  43.345  26.611  11.902
65235W        W24496  39.930  17.130  13.805
65236W        W24497   6.897   2.831   4.303
65237W        W24498  19.241  31.015  11.531
65238W        W24499  28.534   7.847  14.865
65239W        W24500  14.689  20.224  12.527
65240W        W24501   1.939  32.605  11.881
65241W        W24502   8.801  18.241  10.441
65242W        W24503  36.949  10.714   1.844
65243W        W24504  18.777  38.854   2.748
65244W        W24505   0.433   8.901  13.034
65245W        W24506  12.341   5.281   1.827
65246W        W24507  42.914  15.128   1.237
65247W        W24508  41.892  17.268   3.373
65248W        W24509  35.863  27.548  10.524
65249W        W24510  22.095  31.006   0.960
65250W        W24511   5.898  35.059   1.768
65251W        W24512  15.705   0.296   1.769
65252W        W24513  32.939   5.257   0.428
65253W        W24514  26.055  41.845   1.926
65254W        W24515  41.043  20.149  10.945
65255W        W24516  16.587  18.737  13.824
65256W        W24517  27.091   8.343   0.754
65257W        W24518  15.316  33.942   0.291
65258W        W24519  10.863  34.481   4.736
65259W        W24520  37.534  35.861   5.225
65260W        W24521  35.532   5.828   1.384
65261W        W24522  28.978  33.904   1.800
65262W        W24523  21.597  28.676  12.494
65263W        W24524  19.745   6.424   1.931
65264W        W24525   6.761  15.681   2.238
65265W        W24526  32.057  44.347  11.607
65266W        W24527   9.764  17.201   5.144
65267W        W24528  23.166  36.497   0.299
65268W        W24529  20.143  15.110   0.317
65269W        W24530  26.570  28.958  10.035
65270W        W24531  10.169  42.356   0.476
65271W        W24532  28.986   4.842  11.597
65272W        W24533   5.907  28.037  13.404
65273W        W24534  30.606  28.178  10.894
65274W        W24535  40.835  32.130   3.147
65275W        W24536  26.169  37.001  14.387
65276W        W24537  18.719  26.091  10.449
65277W        W24538  18.163  32.539  14.969
65278W        W24539  34.987  36.461  12.552
65279W        W24540   4.743  32.522  14.768
65280W        W24541  34.023   9.323   1.911
65281W        W24542  39.884  18.767  10.500
65282W        W24543   2.442  37.391   1.897
65283W        W24544  35.397  43.003   5.155
65284W        W24545  23.691  29.109  13.915
65285W        W24546   7.742  37.383   1.776
65286W        W24547  26.004   0.345   0.777
65287W        W24548  28.546  41.372  11.075
65288W        W24549  35.087  11.629   3.731
65289W        W24550  10.191  23.577  13.821
65290W        W24551  41.436   6.268  13.064
65291W        W24552   1.876  13.132   2.417
65292W        W24553  24.193   0.409  14.023
65293W        W24554  36.977  44.850  11.421
65294W        W24555  23.498  18.097   3.374
65295W        W24556   1.454  35.582  11.497
65296W        W24557   0.789   5.425   3.294
65297W        W24558  19.198  41.329  11.410
65298W        W24559  10.164  23.501  11.489
65299W        W24560  17.679  33.901  14.871
65300W        W24561  38.877  43.006   1.888
65301W        W24562  33.588  43.011   0.294
65302W        W24563  37.358  29.488  12.940
65303W        W24564  35.050  44.366  12.400
65304W        W24565   8.717  36.477   3.376
65305W        W24566  43.418   9.771   0.764
65306W        W24567  37.881  44.820  13.336
65307W        W24568   3.439  37.460  13.370
65308W        W24569  21.026   0.440  14.783
65309W        W24570  20.636  11.203  12.993
65310W        W24571  32.004  32.539   1.787
65311W        W24572  21.698  15.145  14.823
65312W        W24573   0.267  39.913   3.368
65313W        W24574  14.200  19.073  14.837
65314W        W24575   7.821   4.834  10.547
65315W        W24576   3.393   0.307   4.228
65316W        W24577  31.636  31.033   1.823
65317W        W24578  27.052   7.311   1.253
65318W        W24579  30.046   9.180   2.260
65319W        W24580  36.871  15.673  10.545
65320W        W24581  44.380  44.848   4.642
65321W        W24582  29.636  33.588   4.722
65322W        W24583  31.459   4.897  14.809
65323W        W24584  27.619  13.200   3.668
65324W        W24585  34.091   5.404   1.382
65325W        W24586  19.666   5.756  10.544
65326W        W24587  16.722  13.601  12.089
65327W        W24588  17.692  18.684  11.988
65328W        W24589  29.945  24.553  12.466
65329W        W24590  32.054  19.576   3.313
65330W        W24591  40.431  17.108  14.030
65331W        W24592  31.508  27.950  14.516
65332W        W24593  44.815  25.618   1.343
65333W        W24594  32.423  37.878   4.258
65334W        W24595  28.107  35.548  11.417
65335W        W24596   5.248  13.240   5.280
65336W        W24597  19.147  19.535  11.863
65337W        W24598   2.772  27.145  11.595
65338W        W24599   9.798   7.779  10.936
65339W        W24600  35.540  27.631   4.348
65340W        W24601   5.372  32.458  12.572
65341W        W24602  13.627  24.985  12.887
65342W        W24603  23.095  16.594  13.510
65343W        W24604  19.765   9.678  10.467
65344W        W24605  25.545  19.058  14.880
65345W        W24606  22.118   2.309   3.239
65346W        W24607   5.281  26.103   0.280
65347W        W24608  32.635  19.131  14.460
65348W        W24609  16.185  31.489  14.327
65349W        W24610  33.615  25.680  11.487
65350W        W24611   6.192   6.841   5.289
65351W        W24612  28.522  26.112  13.447
65352W        W24613  23.076  14.135  13.981
65353W        W24614  14.620  34.434  12.345
65354W        W24615  39.349  43.815   4.668
65355W        W24616   0.341   9.161  13.002
65356W        W24617  25.071  35.412  11.044
65357W        W24618  38.401  18.062   4.285
65358W        W24619  24.004  38.872  10.049
65359W        W24620  43.357   2.950  14.815
65360W        W24621  44.825  31.021   1.763
65361W        W24622  31.511  13.811  12.474
65362W        W24623  21.571  16.750  14.376
65363W        W24624  14.776  29.557   1.816
65364W        W24625   8.674  27.586   3.720
65365W        W24626  35.085  30.095  11.418
65366W        W24627  15.714  28.163  14.021
65367W        W24628  35.085   6.862  10.615
65368W        W24629   3.355  42.926   2.381
65369W        W24630  23.185  13.296   3.331
65370W        W24631  13.147  28.464  11.912
65371W        W24632  39.891  19.599  13.945
65372W        W24633  34.602   2.381   0.340
65373W        W24634  26.172   1.806   0.901
65374W        W24635  13.207  27.588   3.745
65375W        W24636  39.962  32.114  12.378
65376W        W24637  25.136   0.785   3.250
65377W        W24638  15.242  39.958   0.346
65378W        W24639  32.917   9.806  10.436
65379W        W24640  15.141   8.881   4.191
65380W        W24641  18.117  31.936   2.331
65381W        W24642  25.652  24.224  13.474
65382W        W24643  13.754  43.779   3.802
65383W        W24644  22.186  11.322   2.367
65384W        W24645   0.905  34.867  13.461
65385W        W24646  17.222  36.050   5.319
65386W        W24647  22.711  28.503   4.760
65387W        W24648  32.099   7.712  13.342
65388W        W24649  22.696  18.760   3.298
65389W        W24650  37.945  34.388  13.546
65390W        W24651  19.233  24.033  14.471
65391W        W24652  17.119  10.248  14.784
65392W        W24653  11.247   1.760  14.431
65393W        W24654  29.155  15.117   0.763
65394W        W24655  40.966  27.061  14.904
65395W        W24656  12.335  13.145   2.724
65396W        W24657  36.523  38.994   2.407
65397W        W24658  12.718  17.204  12.845
65398W        W24659  44.779  23.525  12.912
65399W        W24660   6.725  25.553  11.610
65400W        W24661  18.634  39.056  11.096
65401W        W24662  24.148  26.160   5.170
65402W        W24663  27.634  26.955   4.630
65403W        W24664   1.754  42.883  12.390
65404W        W24665  41.865  35.380   0.748
65405W        W24666  21.756   9.347  11.997
65406W        W24667  41.353   2.256  14.426
65407W        W24668  21.203  39.058  13.946
65408W        W24669  14.744  36.392   0.290
65409W        W24670   7.189  38.441  14.372
65410W        W24671  39.041  37.042  10.922
65411W        W24672  34.525  22.672  13.506
65412W        W24673  39.954  20.686   1.841
65413W        W24674  42.336   0.283  11.472
65414W        W24675   2.290  12.275   0.821
65415W        W24676  10.371  25.525   4.349
65416W        W24677  17.727  20.544  14.375
65417W        W24678  43.457   6.355   2.184
65418W        W24679   7.876  32.907   3.273
65419W        W24680  31.419   5.759   0.368
65420W        W24681  20.553  13.679  12.042
65421W        W24682   1.426  10.848  14.909
65422W        W24683  26.182  37.517   1.877
65423W        W24684   5.764  19.738   1.755
65424W        W24685  40.888   8.242  12.031
65425W        W24686  25.602   4.839  11.435
65426W        W24687  37.559   4.732  12.498
65427W        W24688  40.346   5.268  13.343
65428W        W24689   0.804   4.447   2.303
65429W        W24690  27.944  39.451  13.541
65430W        W24691   8.895  16.743   2.297
65431W        W24692   4.323  32.464   4.772
65432W        W24693  12.263  16.797   1.345
65433W        W24694  35.491  31.958  10.477
65434W        W24695  29.934   4.373   4.300
65435W        W24696  44.785  22.636  11.893
65436W        W24697   4.392   7.901   1.389
65437W        W24698  13.612   6.680   5.187
65438W        W24699   3.231  40.362   3.261
65439W        W24700  32.078  34.557   1.370
65440W        W24701  22.031  33.938   2.274
65441W        W24702  40.041  22.527  11.437
65442W        W24703  29.092   8.191  14.964
65443W        W24704   0.844   3.785   0.798
65444W        W24705  29.568  41.523   5.118
65445W        W24706  26.128  26.495  14.920
65446W        W24707  26.137  42.863   4.332
65447W        W24708  36.407  44.800   2.387
65448W        W24709   1.758  26.989  13.494
65449W        W24710  37.955  38.979   4.351
65450W        W24711  42.926  11.847  10.444
65451W        W24712  43.287  18.596   0.380
65452W        W24713   9.185  14.664   4.302
65453W        W24714   8.182  15.807   3.319
65454W        W24715  30.977  33.507  14.396
65455W        W24716   0.403  38.836  13.347
65456W        W24717  25.217  30.987  13.935
65457W        W24718   5.386  12.208   2.251
65458W        W24719  39.404   7.197  13.449
65459W        W24720  36.071  23.711  12.047
65460W        W24721  33.432  38.368  11.595
65461W        W24722  25.151   6.738  13.436
65462W        W24723  28.084  29.019   4.120
65463W        W24724  32.974  41.870  12.447
65464W        W24725  31.401  18.140  14.908
65465W        W24726  20.767  28.488  12.472
65466W        W24727  23.196  19.753  14.286
65467W        W24728  24.579  13.652   2.888
65468W        W24729  37.463  11.222   1.296
65469W        W24730   7.747   1.744  10.095
65470W        W24731  22.563  32.527   2.260
65471W        W24732  41.509  16.663  11.564
65472W        W24733  16.652  11.307   3.155
65473W        W24734  28.515  13.130  12.488
65474W        W24735  38.046  34.496  14.344
65475W        W24736  38.457   3.715   3.349
65476W        W24737  15.278   0.910   2.695
65477W        W24738  11.234  12.129   2.792
65478W        W24739  44.801   4.825   0.405
65479W        W24740  29.581  37.492  13.988
65480W        W24741  42.005  19.674   4.340
65481W        W24742  18.701   1.899  13.882
65482W        W24743  31.006  32.960   5.273
65483W        W24744  23.723  29.997  13.923
65484W        W24745  13.315  27.540   2.330
65485W        W24746  33.605  18.620   2.670
65486W        W24747   8.828  38.549   4.761
65487W        W24748  27.024  37.535  11.035
65488W        W24749  40.843  33.906  11.958
65489W        W24750  37.387  42.417   5.733
65490W        W24751  35.999  23.580   3.755
65491W        W24752  14.315  41.925  14.021
65492W        W24753  38.920   8.784   5.230
65493W        W24754  19.545   9.292   1.416
65494W        W24755  42.826  41.463   2.230
65495W        W24756   7.342  12.256   3.313
65496W        W24757   8.882  23.206  12.046
65497W        W24758  28.072  18.279  14.381
65498W        W24759  28.610  17.296  12.949
65499W        W24760  43.828  12.610   0.436
65500W        W24761  22.094   1.844   1.237
65501W        W24762  26.998  30.468  11.470
65502W        W24763  31.997   8.207  11.537
65503W        W24764   0.252  32.565   1.389
65504W        W24765  10.805  25.215  10.917
65505W        W24766  29.650  20.662   0.842
65506W        W24767   1.891  38.979  14.032
65507W        W24768   0.367   8.178   1.906
65508W        W24769   6.324  26.142   4.817
65509W        W24770   9.200   9.853  10.418
65510W        W24771  38.336  32.886  11.891
65511W        W24772  35.062  39.972   2.278
65512W        W24773  29.009  19.057   1.337
65513W        W24774  12.286  43.791   2.213
65514W        W24775  25.059   1.859   1.694
65515W        W24776  37.477  12.344  13.827
65516W        W24777  29.110  14.121   1.401
65517W        W24778  24.703  28.528  14.388
65518W        W24779   5.913   7.262   0.774
65519W        W24780   4.243   1.243  11.509
65520W        W24781  32.043  19.647   0.791
65521W        W24782  44.934  17.136  10.630
65522W        W24783   4.439  12.339  11.375
65523W        W24784   4.861  25.988  12.881
65524W        W24785  13.786  12.761  14.818
65525W        W24786  41.034  38.389   0.264
65526W        W24787  29.437  15.148  13.980
65527W        W24788  37.077  21.619   3.798
65528W        W24789  13.642  14.591   1.788
65529W        W24790  30.119   4.374   3.295
65530W        W24791  21.550  14.122  11.044
65531W        W24792  20.106  35.428  11.469
65532W        W24793  11.139  32.931   0.253
65533W        W24794   5.699  10.682  14.794
65534W        W24795  40.459  34.599  13.063
65535W        W24796  12.717   4.361   2.749
65536W        W24797  29.646  37.032  13.857
65537W        W24798  41.920  12.236   1.290
65538W        W24799   0.434   3.927   3.224
65539W        W24800  27.132  19.737   0.958
65540W        W24801  11.833  34.006   2.803
65541W        W24802  35.102  23.111   0.449
65542W        W24803  17.209  20.709   4.173
65543W        W24804   0.890  17.774  13.492
65544W        W24805  43.874   5.239   3.222
65545W        W24806  37.074  37.435  14.965
65546W        W24807   1.308  35.857   2.744
65547W        W24808  25.520   7.867  10.618
65548W        W24809  30.475  37.513   4.609
65549W        W24810  24.580  16.693   2.851
65550W        W24811  18.073  21.195   1.903
65551W        W24812   9.809  27.135  11.455
65552W        W24813   7.813  15.762   0.270
65553W        W24814   3.421  14.834  13.813
65554W        W24815  34.482  32.460  13.531
65555W        W24816  16.221  40.897   3.759
65556W        W24817  26.983  27.534  11.468
65557W        W24818   3.911  24.153  14.454
65558W        W24819  38.355  19.686  11.076
65559W        W24820  34.568   7.768   2.226
65560W        W24821  28.544  37.498   0.374
65561W        W24822   4.225  29.968   1.785
65562W        W24823  31.117  12.334  11.545
65563W        W24824  20.059  19.225   3.206
65564W        W24825   7.410  10.878  12.004
65565W        W24826  28.179   3.365  12.989
65566W        W24827  18.165   6.707   4.685
65567W        W24828   3.413  10.275   3.630
65568W        W24829  24.508  33.116  12.908
65569W        W24830   1.283   6.845  10.593
65570W        W24831   8.849   8.746   3.705
65571W        W24832  10.634  11.151  11.880
65572W        W24833  37.973  25.546   4.211
65573W        W24834  30.649   0.843  11.086
65574W        W24835   2.267  29.636  14.899
65575W        W24836  17.620   4.378  13.951
65576W        W24837  37.368  22.200  13.425
65577W        W24838  41.444   1.810  12.843
65578W        W24839  33.918  23.719   4.631
65579W        W24840  43.951  36.093   2.284
65580W        W24841   1.268  39.948  14.809
65581W        W24842   9.667  21.116  14.354
65582W        W24843  19.767  23.051   2.841
65583W        W24844   1.829   6.370   4.628
65584W        W24845  31.005  10.246  14.315
65585W        W24846  19.697   3.412  13.487
65586W        W24847  34.977   8.282  12.368
65587W        W24848  24.516   4.211   0.892
65588W        W24849  30.651  30.596   4.722
65589W        W24850   9.213  25.481  13.328
65590W        W24851  34.441  23.081  13.829
65591W        W24852  38.986  30.053  12.494
65592W        W24853   2.873  27.030  13.050
65593W        W24854  40.317  31.564  13.461
65594W        W24855  40.505   2.889  14.497
65595W        W24856   9.739  32.510   1.364
65596W        W24857  42.354  31.975   3.354
65597W        W24858  38.997  13.765  10.566
65598W        W24859   4.379  16.813  13.368
65599W        W24860   9.313  23.216   0.742
65600W        W24861  22.559  36.987   3.177
65601W        W24862  41.333  12.193   0.444
65602W        W24863  23.700  10.825  11.913
65603W        W24864   1.339  44.855   3.160
65604W        W24865  37.888  40.539   0.803
65605W        W24866  33.027  29.627   0.765
65606W        W24867   5.408  30.524   3.676
65607W        W24868  19.594  20.146  13.412
65608W        W24869   3.239  38.357   4.246
65609W        W24870  15.253  10.157   4.319
65610W        W24871  33.074   4.224  11.867
65611W        W24872  39.435  24.523  14.798
65612W        W24873   5.341  43.302   0.291
65613W        W24874  21.236  30.930   3.347
65614W        W24875  10.379  17.142  14.902
65615W        W24876  20.128  34.581  14.507
65616W        W24877  12.712  21.106   2.700
65617W        W24878   7.179   1.976  14.888
65618W        W24879  40.519  24.555  11.606
65619W        W24880  15.744  38.528  14.024
65620W        W24881  35.516  37.045  10.536
65621W        W24882  24.659   8.230   0.903
65622W        W24883   4.932  16.635  14.917
65623W        W24884  32.397  19.060   3.280
65624W        W24885  11.668   5.227   3.386
65625W        W24886  37.062  42.889   2.888
65626W        W24887  26.983  21.221   0.345
65627W        W24888  33.929  38.049   0.755
65628W        W24889  12.264  17.223   3.228
65629W        W24890  17.270  14.104  14.471
65630W        W24891  22.163  14.669  11.122
65631W        W24892   3.407  33.109  13.422
65632W        W24893  11.325   5.770   0.315
65633W        W24894  25.001  41.959  12.836
65634W        W24895  19.624  12.835   3.672
65635W        W24896  39.910  37.436  14.974
65636W        W24897  27.605  26.610   1.919
65637W        W24898  39.979  11.192   4.310
65638W        W24899  22.247  37.381   2.853
65639W        W24900  40.440  39.513  12.547
65640W        W24901   7.692  43.892  13.987
65641W        W24902  25.604  10.383  12.915
65642W        W24903  32.610   8.239   3.210
65643W        W24904   4.880  43.515   2.239
65644W        W24905  15.191  10.711   2.235
65645W        W24906  14.259  39.934  12.516
65646W        W24907  38.993  26.121  12.475
65647W        W24908  32.936  40.462  10.933
65648W        W24909  12.176  25.208   0.836
65649W        W24910   0.376  32.891  12.085
65650W        W24911   8.195  25.511  14.310
65651W        W24912  31.094  31.421   1.388
65652W        W24913  10.852   7.770  13.854
65653W        W24914   9.773  44.391   1.328
65654W        W24915   4.443  32.945  14.351
65655W        W24916  27.004  42.295  11.385
65656W        W24917  11.276  25.707   1.402
65657W        W24918   2.375  15.207  14.859
65658W        W24919   3.396   8.707   2.361
65659W        W24920  18.176  37.513   2.783
65660W        W24921  18.075   7.667   2.744
65661W        W24922  15.744  10.300   3.334
65662W        W24923  26.666  23.087  14.355
65663W        W24924  25.712  30.587  10.890
65664W        W24925  24.052  41.998  12.926
65665W        W24926   1.928  10.711   1.368
65666W        W24927  22.715  11.278   0.747
65667W        W24928   3.250  25.615   2.221
65668W        W24929   8.168  30.443  10.491
65669W        W24930  21.149  28.678  11.068
65670W        W24931  40.930   9.206   2.839
65671W        W24932  13.801  22.232  12.961
65672W        W24933  22.127  44.811  13.358
65673W        W24934  33.982  25.583   1.438
65674W        W24935   8.194   3.445   0.404
65675W        W24936  32.090  41.873   0.848
65676W        W24937  33.940  39.897  10.416
65677W        W24938  39.503  23.679   4.603
65678W        W24939  37.581  35.604  13.317
65679W        W24940  18.751  38.503   0.805
65680W        W24941   0.873  38.501  11.574
65681W        W24942  11.312  39.352   4.748
65682W        W24943  39.414  26.527   1.341
65683W        W24944  27.073  40.472   1.841
65684W        W24945  39.514   4.209  14.992
65685W        W24946  30.579   0.822   0.445
65686W        W24947   1.829  24.498   2.866
65687W        W24948   8.379  13.116  10.044
65688W        W24949  24.072  10.349  10.430
65689W        W24950  10.778  43.019  11.943
65690W        W24951   4.238  44.927   2.739
65691W        W24952  13.110   9.858  12.881
65692W        W24953  15.712  19.183   4.174
65693W        W24954  18.781  39.979  14.481
65694W        W24955  21.668  39.028   2.796
65695W        W24956  12.273  38.357   3.162
65696W        W24957  39.997  21.066  13.801
65697W        W24958   3.235   7.386   2.682
65698W        W24959  33.059   3.785   0.726
65699W        W24960   8.395  11.310   4.162
65700W        W24961   6.254  34.583   4.208
65701W        W24962  21.046  31.474  14.801
65702W        W24963  38.892  34.073  14.807
65703W        W24964  21.144  24.131  11.498
65704W        W24965  26.658  18.568   0.444
65705W        W24966  29.164  19.691  11.385
65706W        W24967  15.655  33.522   1.250
65707W        W24968   5.866  25.193  11.934
65708W        W24969  34.911   4.874  13.392
65709W        W24970  42.357  26.110  11.894
65710W        W24971  18.730   7.239  11.399
65711W        W24972  37.980  29.498   1.360
65712W        W24973  34.463   8.311   0.877
65713W        W24974   6.808  25.668   3.369
65714W        W24975   9.277  21.222   4.799
65715W        W24976  37.361  16.630   4.127
65716W        W24977  26.115  23.234   1.432
65717W        W24978  17.235   1.755   4.185
65718W        W24979  12.744  21.209  11.108
65719W        W24980   5.401  25.680   3.359
65720W        W24981  25.968  23.503   2.767
65721W        W24982  10.677  32.400  14.290
65722W        W24983   2.334  11.865  14.341
65723W        W24984  15.718  32.953   0.306
65724W        W24985  17.193  26.962   4.317
65725W        W24986  22.069   9.241   0.403
65726W        W24987   3.442  18.708   3.385
65727W        W24988  25.670  19.216   3.700
65728W        W24989  14.270  24.614   0.413
65729W        W24990  31.643  44.775   0.874
65730W        W24991  21.650  43.369  11.993
65731W        W24992  35.556  29.062   1.252
65732W        W24993   2.275   2.355   0.330
65733W        W24994  36.871  19.534  14.858
65734W        W24995  34.392  16.670  12.988
65735W        W24996  15.660  39.986   3.298
65736W        W24997  44.264  15.122   0.260
65737W        W24998  30.454  19.178   2.398
65738W        W24999  43.461   0.833   2.699
65739W        W25000   6.208  43.273   3.382
65740W        W25001  34.102   8.815   2.241
65741W        W25002   8.756  36.086  13.821
65742W        W25003   1.900  13.604   3.242
65743W        W25004   0.291  30.601   0.783
65744W        W25005  10.334   3.389   3.772
65745W        W25006   0.893  33.043   2.680
65746W        W25007  38.490   5.721   3.179
65747W        W25008  33.549  10.697  14.484
65748W        W25009  23.631  17.649   4.700
65749W        W25010  22.701  30.958   4.135
65750W        W25011  37.026   2.808  13.351
65751W        W25012  35.894  32.098  11.582
65752W        W25013  40.857   6.229   1.705
65753W        W25014  24.580  37.885  12.478
65754W        W25015  41.999  25.579   2.417
65755W        W25016   5.313  10.280   3.698
65756W        W25017  18.689  15.228  11.071
65757W        W25018   2.846  17.586   3.793
65758W        W25019  20.032  10.690  12.061
65759W        W25020  27.461  21.717   2.340
65760W        W25021   0.856  42.807   2.301
65761W        W25022   5.231  22.539   1.770
65762W        W25023  13.227  24.989   4.726
65763W        W25024  27.576  42.394   0.321
65764W        W25025   6.182  44.953   1.318
65765W        W25026  25.475  11.656   0.258
65766W        W25027  12.232  22.111  13.984
65767W        W25028  20.608  19.693   5.172
65768W        W25029  15.677  10.332   0.329
65769W        W25030   2.381  38.919   0.880
65770W        W25031  29.440  39.939  11.592
65771W        W25032  17.751  20.065   0.793
65772W        W25033  36.471   1.968  10.085
65773W        W25034   3.878   6.253  11.463
65774W        W25035  26.986   9.325   1.734
65775W        W25036  27.524  44.479   4.667
65776W        W25037   9.871   7.206  11.044
65777W        W25038   0.767  26.968  12.042
65778W        W25039  41.997   7.248  11.869
65779W        W25040  12.797  10.854   5.588
65780W        W25041  12.670  29.491  13.018
65781W        W25042   8.737   3.780   3.275
65782W        W25043  39.867  40.849   3.150
65783W        W25044  27.118   7.181  12.989
65784W        W25045   5.850  24.551  11.896
65785W        W25046  20.768  41.005   4.281
65786W        W25047  43.004  21.550   4.703
65787W        W25048  32.050  13.708   0.964
65788W        W25049   3.264  14.323  14.994
65789W        W25050  32.119   2.790  12.916
65790W        W25051  21.075  30.659   0.945
65791W        W25052  35.448   5.397  13.419
65792W        W25053   3.903   3.879   2.849
65793W        W25054  41.001  35.368   3.847
65794W        W25055  16.639  37.882   0.312
65795W        W25056  12.133  44.402   2.695
65796W        W25057  41.880  35.953  11.885
65797W        W25058  42.409  38.999  13.911
65798W        W25059   6.918  12.831  10.637
65799W        W25060  31.019  41.494  13.997
65800W        W25061  22.163  38.876   4.233
65801W        W25062  19.729   5.752   3.735
65802W        W25063  11.836  26.110   2.303
65803W        W25064  24.594  30.522  11.111
65804W        W25065  22.692  39.548   3.681
65805W        W25066  44.392  42.780  10.948
65806W        W25067  35.565  33.883   0.777
65807W        W25068  29.972  34.007   2.218
65808W        W25069  26.608  23.591  12.427
65809W        W25070  35.437   0.289  14.302
65810W        W25071  22.226  34.016   1.782
65811W        W25072  24.178  21.019  12.543
65812W        W25073  35.885  10.679  11.612
65813W        W25074  15.814  13.237   2.400
65814W        W25075  27.999  26.973   2.264
65815W        W25076  13.164  18.172  13.032
65816W        W25077   0.308  20.587   4.622
65817W        W25078   0.313  38.343   3.716
65818W        W25079  39.472  17.597  12.417
65819W        W25080  23.141  33.387  13.888
65820W        W25081  30.534  27.074   2.389
65821W        W25082  25.669  20.727  14.353
65822W        W25083   5.317  42.963   4.333
65823W        W25084  31.961   4.698  13.000
65824W        W25085  16.167  10.321  13.835
65825W        W25086  34.528  40.470   2.881
65826W        W25087  44.413  37.427  11.905
65827W        W25088   1.918  24.522  10.925
65828W        W25089  19.655  10.189   9.927
65829W        W25090  24.057  44.403  14.920
65830W        W25091  11.153  43.503  11.079
65831W        W25092  23.721  13.340  14.513
65832W        W25093  27.613  37.873   1.793
65833W        W25094  18.593  22.619  11.478
65834W        W25095  25.086  15.591   9.967
65835W        W25096  42.349  29.002   0.939
65836W        W25097  25.657  23.026   3.864
65837W        W25098  32.015  24.054  14.001
65838W        W25099  14.658  23.155   1.796
65839W        W25100  19.720  33.029  10.592
65840W        W25101  20.536  43.275   3.833
65841W        W25102  39.892  27.999   4.808
65842W        W25103  27.111  35.072  12.468
65843W        W25104  23.503  12.137  14.386
65844W        W25105  19.737  30.415   3.715
65845W        W25106  32.515  24.113  13.401
65846W        W25107  23.004  26.700  13.048
65847W        W25108  42.477  44.407   2.673
65848W        W25109   8.718  43.932   3.712
65849W        W25110  44.956  43.310   4.759
65850W        W25111  23.667  38.042   0.481
65851W        W25112  43.314  16.746  12.465
65852W        W25113  32.579  11.865   3.698
65853W        W25114  11.149  40.837  12.368
65854W        W25115   6.885  34.390   1.695
65855W        W25116  13.274  26.138   1.245
65856W        W25117  29.038  19.757  11.070
65857W        W25118  28.537   9.804   0.394
65858W        W25119   9.681  29.556   1.228
65859W        W25120  36.427  12.746  14.800
65860W        W25121  25.061  29.471   0.260
65861W        W25122  25.524   3.882  10.624
65862W        W25123   7.877  42.815   3.794
65863W        W25124   9.150  12.291   1.218
65864W        W25125   5.813  31.071   4.132
65865W        W25126  15.316  31.529  14.804
65866W        W25127   7.751  13.678   4.718
65867W        W25128  30.554   4.250  11.467
65868W        W25129  38.963   1.769   0.267
65869W        W25130  28.083   2.262  12.474
65870W        W25131  14.591   5.427   4.311
65871W        W25132  11.167   8.686  11.122
65872W        W25133  23.515  22.510   4.751
65873W        W25134  23.685  38.991   3.689
65874W        W25135  21.088  36.845   2.751
65875W        W25136  37.967  12.201  11.942
65876W        W25137   0.870   1.891  14.439
65877W        W25138  33.957  39.399  13.985
65878W        W25139  15.796  31.954  10.526
65879W        W25140   2.374  14.173   4.280
65880W        W25141  24.724   0.899  10.938
65881W        W25142   8.271   2.751   0.359
65882W        W25143  12.727  38.897   2.356
65883W        W25144   6.811   5.334   4.256
65884W        W25145  12.837  13.659   1.363
65885W        W25146   7.828  11.684  12.039
65886W        W25147   1.352  30.059  12.091
65887W        W25148   2.732  24.486   0.752
65888W        W25149  14.803   3.852   2.345
65889W        W25150  39.419  12.854  13.933
65890W        W25151  29.631   1.956  11.911
65891W        W25152  26.960   1.464  12.030
65892W        W25153  36.979  41.948   0.446
65893W        W25154  41.944   1.399   1.741
65894W        W25155   8.160  34.052  11.513
65895W        W25156  37.574   0.344  12.340
65896W        W25157  30.527   8.189  11.018
65897W        W25158  39.956  27.643  10.492
65898W        W25159  17.738  42.283  13.464
65899W        W25160  28.114   5.931  14.813
65900W        W25161   8.725  14.626  10.611
65901W        W25162  35.996   7.311   4.764
65902W        W25163   5.428  39.527   0.831
65903W        W25164  13.331  14.104  11.477
65904W        W25165  30.039  23.618   2.242
65905W        W25166  25.690  36.553   1.843
65906W        W25167  14.630  37.909  13.880
65907W        W25168  14.715  39.943  14.432
65908W        W25169  31.563  36.482  14.798
65909W        W25170  11.182  15.657   2.364
65910W        W25171  43.933  27.652  10.528
65911W        W25172  23.711  40.453   0.446
65912W        W25173  36.915  41.417   0.874
65913W        W25174  14.310  15.282   1.237
65914W        W25175   6.355  22.623  12.570
65915W        W25176   3.951  41.423  13.833
65916W        W25177  39.913  21.526  14.887
65917W        W25178   8.367  17.305  14.846
65918W        W25179   8.169   1.972   2.737
65919W        W25180  37.521  42.504   1.215
65920W        W25181   0.925  24.573   3.828
65921W        W25182  14.294  29.586  12.559
65922W        W25183   4.838  33.068  14.282
65923W        W25184  28.076  37.839   3.330
65924W        W25185  27.188  39.025  14.398
65925W        W25186  25.671  31.974  10.989
65926W        W25187  28.144   4.812  13.891
65927W        W25188  32.394  19.117   2.233
65928W        W25189  12.646  25.021   3.666
65929W        W25190   2.885  36.582  14.414
65930W        W25191  15.760  14.779  11.457
65931W        W25192  40.884  40.824   4.781
65932W        W25193   2.944  11.265  12.389
65933W        W25194  13.667  20.253   0.771
65934W        W25195  28.604  42.808   0.330
65935W        W25196  18.789  20.672  14.969
65936W        W25197   0.324   6.887  13.005
65937W        W25198   4.936  36.062   3.680
65938W        W25199  15.127  22.152   1.260
65939W        W25200  42.321   0.934   0.484
65940W        W25201   4.259  34.872  14.327
65941W        W25202  14.832  12.312  14.806
65942W        W25203  31.151  38.994   3.362
65943W        W25204  34.946  16.708  14.804
65944W        W25205  25.206  14.622   3.638
65945W        W25206  34.893   3.315  12.084
65946W        W25207  12.629  26.622  13.918
65947W        W25208  10.639  37.478   1.408
65948W        W25209  10.691  20.646  10.452
65949W        W25210  20.721   0.745  11.876
65950W        W25211  38.552  32.577  11.463
65951W        W25212   2.782  32.461  13.499
65952W        W25213  26.168  10.166   2.845
65953W        W25214  17.744  23.042  14.331
65954W        W25215  43.794  30.113  11.021
65955W        W25216  37.949  39.454   3.150
65956W        W25217  29.948   0.299  10.577
65957W        W25218  44.426  37.479   0.889
65958W        W25219  18.161  23.036   1.287
65959W        W25220  11.840  39.442   0.472
65960W        W25221  31.910  14.138  12.860
65961W        W25222   7.856  19.573  10.924
65962W        W25223   9.661   9.189   0.434
65963W        W25224  33.381  19.260  13.940
65964W        W25225  27.500   0.354   4.750
65965W        W25226  21.680  43.281   0.913
65966W        W25227  20.081   7.416   1.896
65967W        W25228  30.142  14.159   1.893
65968W        W25229  30.513   3.863   4.322
65969W        W25230   0.305  39.344  10.417
65970W        W25231  44.953  13.773  13.424
65971W        W25232  21.559   6.300   1.271
65972W        W25233   4.349  27.667  11.006
65973W        W25234  20.752  32.141  11.095
65974W        W25235  32.065  27.151   4.172
65975W        W25236  21.558  14.610   4.148
65976W        W25237   3.357   6.348   9.986
65977W        W25238  20.061  19.250   1.864
65978W        W25239   7.367   5.929  12.935
65979W        W25240  34.460  34.014  10.640
65980W        W25241   6.735  30.619  10.992
65981W        W25242  34.031   2.426  11.073
65982W        W25243  26.962  20.743  12.960
65983W        W25244  29.491  33.441  13.472
65984W        W25245   5.408  37.503   3.809
65985W        W25246  32.582  29.026  14.855
65986W        W25247   7.892  26.087  11.436
65987W        W25248  33.429  28.090   4.755
65988W        W25249   3.743  26.593  10.067
65989W        W25250  40.342  12.229   0.861
65990W        W25251  35.416  31.130  12.357
65991W        W25252   4.778  23.606  12.419
65992W        W25253  17.756  43.418   3.309
65993W        W25254  25.659   8.803   2.323
65994W        W25255  21.173  29.615  14.907
65995W        W25256  43.779  21.515  14.830
65996W        W25257  17.605  43.776   3.829
65997W        W25258  41.436  41.531   0.432
65998W        W25259  25.033  43.434  11.538
65999W        W25260  38.852  25.043   5.133
66000W        W25261  20.253  14.210   5.200
66001W        W25262   8.231  40.425  12.571
66002W        W25263  31.138  39.976  12.524
66003W        W25264  16.592  17.300  14.006
66004W        W25265  38.031  32.425  12.378
66005W        W25266  25.053  14.662   3.318
66006W        W25267   8.820  12.645   4.191
66007W        W25268   0.455  26.157   3.381
66008W        W25269  35.983  14.325  14.494
66009W        W25270  20.722  39.342  14.908
66010W        W25271   2.315  41.436  11.449
66011W        W25272  34.981   9.337   3.682
66012W        W25273  22.165  11.721  13.400
66013W        W25274  28.951  11.791   2.876
66014W        W25275  27.011  28.616  11.542
66015W        W25276  35.380  41.023   9.586
66016W        W25277   7.316  39.535  13.490
66017W        W25278  34.059  35.553   3.257
66018W        W25279  24.024  43.909  14.332
66019W        W25280   2.457  39.850   3.201
66020W        W25281  25.993   1.424   4.783
66021W        W25282   7.374   7.736   2.726
66022W        W25283  33.393  44.988  14.512
66023W        W25284  25.968  10.684   2.200
66024W        W25285  32.973  36.956  14.414
66025W        W25286  23.014   9.657  11.898
66026W        W25287  31.590  30.471   0.388
66027W        W25288  44.790  41.342   4.160
66028W        W25289  21.043   9.206  14.799
66029W        W25290  22.566   0.323   0.886
66030W        W25291   3.817  34.487  11.894
66031W        W25292  34.934  17.241  12.390
66032W        W25293  31.003  19.629  13.546
66033W        W25294  27.652   3.255   0.921
66034W        W25295   5.893  12.722   4.624
66035W        W25296   5.208  20.751  12.447
66036W        W25297  37.044  15.326  14.360
66037W        W25298  19.083   8.238   0.372
66038W        W25299  30.157  20.266   0.327
66039W        W25300   5.287  11.204  12.097
66040W        W25301  43.329  14.795  11.479
66041W        W25302  16.742  35.978  13.877
66042W        W25303  13.706   1.269  11.862
66043W        W25304  25.202  24.228   4.324
66044W        W25305  18.228   6.763   2.183
66045W        W25306  23.493  43.504  14.419
66046W        W25307   6.724  33.484   0.942
66047W        W25308   9.730   5.220   1.870
66048W        W25309  29.489  31.581  12.561
66049W        W25310   5.327  22.514  12.359
66050W        W25311  23.197  31.475   0.260
66051W        W25312  24.052  25.157  12.498
66052W        W25313  44.895  16.112  11.043
66053W        W25314  35.929   6.918   1.783
66054W        W25315  29.565  34.505   0.326
66055W        W25316  28.635  34.029   3.152
66056W        W25317  32.438  15.775  13.954
66057W        W25318  14.284  16.252  14.822
66058W        W25319  34.029  37.549   5.258
66059W        W25320  11.645  12.138  11.495
66060W        W25321   2.724  39.385  14.817
66061W        W25322   7.839  36.085  12.051
66062W        W25323  22.157   8.324  14.816
66063W        W25324  28.659  12.318  13.511
66064W        W25325  30.139  29.486  13.376
66065W        W25326   6.326   5.782   0.838
66066W        W25327  43.956  34.523   0.350
66067W        W25328  41.500  12.151   4.739
66068W        W25329   3.783  27.640  10.600
66069W        W25330  25.104  10.196   4.804
66070W        W25331  22.158  31.900  13.805
66071W        W25332  30.064   0.467  12.458
66072W        W25333  34.404  23.098   1.926
66073W        W25334  33.898  22.596   3.189
66074W        W25335  23.068  24.103  10.620
66075W        W25336   7.368  15.819  10.957
66076W        W25337  16.771  23.156  14.383
66077W        W25338  33.538   5.329   2.244
66078W        W25339  38.356  43.915   2.233
66079W        W25340  26.178  34.918   1.346
66080W        W25341  15.227  13.685   2.888
66081W        W25342  26.673  31.643  13.810
66082W        W25343  34.480  28.566  13.008
66083W        W25344   4.291  12.847  10.930
66084W        W25345   1.321  15.090  11.483
66085W        W25346  34.999  25.548   4.233
66086W        W25347  22.237  44.943   4.713
66087W        W25348  18.736  24.662  12.355
66088W        W25349  18.734  24.125   4.306
66089W        W25350  33.506  36.846  11.508
66090W        W25351   7.837   2.346  14.900
66091W        W25352  13.642  34.418   0.824
66092W        W25353  25.119  43.346  14.277
66093W        W25354  38.381  39.808  11.962
66094W        W25355  12.737   3.418   3.685
66095W        W25356  16.733  27.146   5.246
66096W        W25357  37.480  35.432  13.870
66097W        W25358  44.452  39.402  10.569
66098W        W25359  31.615  39.450  12.385
66099W        W25360  28.958  14.278   4.260
66100W        W25361  34.606  42.932   1.344
66101W        W25362  34.966  18.651   2.317
66102W        W25363  19.102  17.297  14.287
66103W        W25364  24.676  30.033   2.900
66104W        W25365   9.767  10.208  11.598
66105W        W25366   8.196   5.438   0.803
66106W        W25367   7.186  17.215  11.876
66107W        W25368  22.533   5.906  11.941
66108W        W25369   4.279  37.935  14.844
66109W        W25370  34.586  26.610   1.836
66110W        W25371  41.372  39.352   4.237
66111W        W25372  10.830  30.612  12.941
66112W        W25373   1.243   0.885   2.863
66113W        W25374   9.731   9.267   1.396
66114W        W25375  44.985  20.543   2.747
66115W        W25376  12.645  40.815   1.254
66116W        W25377   2.740   8.369   5.758
66117W        W25378  20.174  24.101  11.551
66118W        W25379  14.175  13.804   0.328
66119W        W25380   9.196   5.335  12.378
66120W        W25381   2.248  20.670  11.599
66121W        W25382  33.496  11.366  13.337
66122W        W25383  42.465  37.488   4.190
66123W        W25384   3.447  32.967  12.086
66124W        W25385  11.847  10.269  11.938
66125W        W25386  16.237  35.570   3.355
66126W        W25387  19.719  22.699   3.147
66127W        W25388  17.715  33.917  12.922
66128W        W25389  19.062  10.327  13.825
66129W        W25390  16.255   0.866   1.875
66130W        W25391  16.097  33.071   2.215
66131W        W25392  28.608  34.900  14.940
66132W        W25393  43.276  29.489   1.239
66133W        W25394   5.727  35.556  13.956
66134W        W25395  39.348  23.710  14.775
66135W        W25396   1.346  15.145   1.736
66136W        W25397  42.790  29.149   3.247
66137W        W25398  12.706  16.749   0.256
66138W        W25399  16.641  24.678   0.796
66139W        W25400  26.701  19.556   0.419
66140W        W25401   7.333   9.255  11.934
66141W        W25402  38.035   5.923   2.766
66142W        W25403  33.044  28.484  13.038
66143W        W25404  30.624  34.112  12.876
66144W        W25405  13.281   4.439   2.320
66145W        W25406   9.379  44.441  14.941
66146W        W25407  25.532  24.201  12.001
66147W        W25408  29.957   7.218   0.349
66148W        W25409  39.008  36.895   1.422
66149W        W25410  39.812  30.530   3.824
66150W        W25411  23.082   8.316  14.414
66151W        W25412   5.843  21.697  10.489
66152W        W25413  41.306  14.814   2.409
66153W        W25414  26.687   3.884  14.853
66154W        W25415  44.007  39.905  11.953
66155W        W25416  16.737  38.560  12.532
66156W        W25417  12.782  32.635  10.445
66157W        W25418  28.152  27.007  10.639
66158W        W25419  33.493  20.624   3.654
66159W        W25420   3.797  17.199   0.834
66160W        W25421  33.619  12.186  12.844
66161W        W25422  34.598  10.368  11.502
66162W        W25423  38.430  35.460   1.932
66163W        W25424   9.309   8.263  11.384
66164W        W25425  13.762   0.339  14.904
66165W        W25426  10.650   1.790  11.505
66166W        W25427  21.622  27.652  10.983
66167W        W25428   6.843  33.892  14.418
66168W        W25429  21.196  40.882   0.818
66169W        W25430  15.230  24.148   4.719
66170W        W25431  21.119   1.792   4.661
66171W        W25432   7.732  11.707   0.757
66172W        W25433  27.452   2.730   2.358
66173W        W25434  43.445  29.576   3.789
66174W        W25435  25.990  38.987  14.411
66175W        W25436  24.595  33.056   2.862
66176W        W25437   8.802  43.974  10.008
66177W        W25438   9.769  11.730  13.883
66178W        W25439  26.596  20.062   4.335
66179W        W25440  11.779  12.340   0.270
66180W        W25441  39.061  20.719  14.465
66181W        W25442  19.042  32.945  13.827
66182W        W25443  14.827  11.686   1.710
66183W        W25444  24.491  35.021  12.887
66184W        W25445  37.559  23.141  13.372
66185W        W25446  15.671  23.074   0.911
66186W        W25447  27.458  12.824  13.516
66187W        W25448  29.920  24.143  12.013
66188W        W25449  25.108  22.092   4.680
66189W        W25450   8.216  41.481   1.904
66190W        W25451  12.344  34.894   1.311
66191W        W25452   9.740   6.805  11.472
66192W        W25453  21.129  17.612   3.863
66193W        W25454  25.697  37.887  14.982
66194W        W25455   1.465  11.736   3.716
66195W        W25456  18.640  40.947  11.121
66196W        W25457  19.247  40.303   0.748
66197W        W25458   1.450  21.132  10.098
66198W        W25459  38.431  11.823  11.462
66199W        W25460  10.326  20.610  14.931
66200W        W25461   4.422  17.173  13.004
66201W        W25462  27.100  37.520   3.851
66202W        W25463  40.365  29.163  10.487
66203W        W25464  36.011  26.680  11.434
66204W        W25465  18.291  17.790   2.829
66205W        W25466   6.834  25.012  11.112
66206W        W25467  22.178   1.450   2.276
66207W        W25468   2.427  37.510  12.949
66208W        W25469  35.434  11.324  13.317
66209W        W25470   5.333  32.470  14.432
66210W        W25471  22.630  23.996  14.857
66211W        W25472  15.207  13.722  13.875
66212W        W25473  12.184  13.808   1.294
66213W        W25474  26.480   0.320  14.350
66214W        W25475   6.901  43.778  14.866
66215W        W25476   1.766   3.285   4.758
66216W        W25477  39.415  40.985   1.235
66217W        W25478  12.249  23.531   3.646
66218W        W25479  37.414   1.890   0.828
66219W        W25480  24.692  10.867  13.901
66220W        W25481  30.550  38.375  14.805
66221W        W25482  14.590  32.109  10.638
66222W        W25483  10.679  41.832  12.980
66223W        W25484   4.280  33.971   2.788
66224W        W25485  30.130  13.704   2.671
66225W        W25486  15.642  32.946   3.636
66226W        W25487  17.673  24.130  11.453
66227W        W25488  20.726  14.607  13.351
66228W        W25489  39.448  30.558   4.814
66229W        W25490  14.797   9.261  14.406
66230W        W25491  16.147  25.962   3.186
66231W        W25492  41.829  34.978   0.442
66232W        W25493   2.894  26.536   0.764
66233W        W25494  41.861  38.849   2.836
66234W        W25495  43.458  30.514  14.347
66235W        W25496  21.187  12.818   2.768
66236W        W25497  34.047  24.011  10.492
66237W        W25498  25.475  22.094  10.545
66238W        W25499  26.056  11.365   0.843
66239W        W25500  34.564  13.305   4.767
66240W        W25501   9.247  41.514   3.726
66241W        W25502  18.174  21.601   1.719
66242W        W25503  41.933  40.824  14.030
66243W        W25504  33.529   4.322  13.447
66244W        W25505  38.825  42.778  12.829
66245W        W25506  34.994  17.084   4.780
66246W        W25507  16.783  20.082   2.666
66247W        W25508  26.694  24.154   4.353
66248W        W25509  25.209  44.902   4.621
66249W        W25510  25.975   5.740   2.689
66250W        W25511  25.693  22.228  11.590
66251W        W25512   1.296   9.206  11.046
66252W        W25513  42.814  28.580   0.391
66253W        W25514  22.613  43.015   0.862
66254W        W25515   2.331  38.956   3.227
66255W        W25516  21.753  17.243   4.633
66256W        W25517  21.175   4.314   0.340
66257W        W25518   6.749  42.466   3.719
66258W        W25519   2.428  13.134   2.206
66259W        W25520  13.786  24.563   3.637
66260W        W25521  27.060  33.126  12.096
66261W        W25522   6.886   2.341   2.851
66262W        W25523  17.118   5.814  14.007
66263W        W25524   5.351  15.820   0.427
66264W        W25525  25.670  33.044   4.760
66265W        W25526  20.702  21.559  12.948
66266W        W25527  23.684  29.933  12.070
66267W        W25528  10.303  24.712   2.831
66268W        W25529   4.353  19.606   4.323
66269W        W25530  35.383   0.435  12.553
66270W        W25531  13.708  32.593  11.385
66271W        W25532  23.052  32.889  14.024
66272W        W25533  31.485   1.237   4.261
66273W        W25534  14.644  40.321   2.757
66274W        W25535  44.374  11.857   4.215
66275W        W25536  28.538   2.950   4.256
66276W        W25537   9.371  23.182  10.519
66277W        W25538  14.786   9.223  10.929
66278W        W25539  34.105   6.212   0.439
66279W        W25540  22.525  26.549  13.502
66280W        W25541  44.987  10.742  12.844
66281W        W25542  17.615  38.898  10.640
66282W        W25543  39.049  30.456   5.251
66283W        W25544  10.740  20.740  12.397
66284W        W25545  35.947  20.539  13.025
66285W        W25546  25.004   7.226  12.469
66286W        W25547  37.905   7.301   0.356
66287W        W25548  24.644  22.512  11.541
66288W        W25549  21.525   4.823   3.335
66289W        W25550   4.254  40.489   4.325
66290W        W25551  11.225  37.440   4.293
66291W        W25552   6.344  12.813  12.377
66292W        W25553  18.592  29.934   3.685
66293W        W25554  42.784  23.225  14.888
66294W        W25555   9.836   9.885   1.761
66295W        W25556  26.077   6.854   2.388
66296W        W25557  37.906  28.561   4.658
66297W        W25558  39.860  19.747  11.981
66298W        W25559  40.373  33.949  12.495
66299W        W25560  20.132   6.708   0.926
66300W        W25561  20.600  15.170  13.972
66301W        W25562  32.561   6.246   0.910
66302W        W25563  18.123  39.506   0.945
66303W        W25564  16.312  27.076   2.253
66304W        W25565  22.020  44.840  13.872
66305W        W25566  26.535  23.067  12.034
66306W        W25567  11.261  13.342  14.927
66307W        W25568  27.630  39.370  14.976
66308W        W25569  38.360  39.448  11.494
66309W        W25570  16.156  34.104  11.557
66310W        W25571  11.283  17.692  14.950
66311W        W25572   7.196  34.082  11.443
66312W        W25573   1.839  41.329  13.940
66313W        W25574  20.747  14.308  13.999
66314W        W25575   4.742  30.437  12.836
66315W        W25576  18.117  14.710   2.900
66316W        W25577  30.018  35.948  11.023
66317W        W25578  35.423  31.062  11.862
66318W        W25579  18.212   1.836   2.263
66319W        W25580  31.995  24.106   1.770
66320W        W25581  36.902  13.792   3.293
66321W        W25582   5.290  11.842   0.396
66322W        W25583  11.324  42.306   2.390
66323W        W25584  37.899  18.198   3.731
66324W        W25585  33.911  36.899   4.789
66325W        W25586  22.049   9.354  11.547
66326W        W25587   2.925  36.543  12.867
66327W        W25588  27.621  19.259   2.775
66328W        W25589  24.619  32.472  11.527
66329W        W25590   0.359  12.343  12.998
66330W        W25591  20.636   0.266   4.151
66331W        W25592  32.036  44.910   3.223
66332W        W25593  10.276  31.982   1.292
66333W        W25594  36.054  18.775  12.396
66334W        W25595  25.066  28.457   4.766
66335W        W25596  11.637   4.846   1.908
66336W        W25597  27.092   9.717   0.390
66337W        W25598  36.425  12.176  12.996
66338W        W25599  12.338   0.882  14.432
66339W        W25600  36.074  33.452   4.675
66340W        W25601   7.342  19.672  13.872
66341W        W25602  31.125  41.811  14.830
66342W        W25603   4.238  21.122   0.780
66343W        W25604  29.639  16.228   0.400
66344W        W25605  12.653  39.482  12.448
66345W        W25606  22.717  19.189  11.005
66346W        W25607  25.079   0.300   3.752
66347W        W25608  38.042  38.463   3.282
66348W        W25609  11.662  18.547  13.337
66349W        W25610   3.265   2.410   4.155
66350W        W25611   6.264  39.988  11.860
66351W        W25612  30.031  42.949  11.418
66352W        W25613   4.854  12.205  10.139
66353W        W25614  21.723   0.371  14.936
66354W        W25615   5.915   5.787  12.481
66355W        W25616  41.919  41.357   0.963
66356W        W25617  17.785  10.763   2.350
66357W        W25618   1.950   2.883   1.354
66358W        W25619  12.236  36.918  12.441
66359W        W25620  34.380  29.651  12.506
66360W        W25621  21.065  26.570  10.138
66361W        W25622  27.476  20.674  13.905
66362W        W25623  16.594  29.521  11.531
66363W        W25624  31.490   7.834   3.734
66364W        W25625   9.827  21.679   1.231
66365W        W25626  31.912   3.854   2.224
66366W        W25627  30.491  34.473  10.542
66367W        W25628  16.745  29.510   4.791
66368W        W25629  26.690   8.338   2.222
66369W        W25630  42.287   9.873   4.338
66370W        W25631  41.822   9.646   4.211
66371W        W25632  38.042  43.311  13.868
66372W        W25633  43.412  31.066   2.362
66373W        W25634  31.106  23.186  13.468
66374W        W25635  31.023  11.180   9.582
66375W        W25636  32.436  26.612   4.199
66376W        W25637  20.266  28.440   4.322
66377W        W25638   9.718  31.139  10.481
66378W        W25639  39.017  14.602  12.994
66379W        W25640   6.384  10.640  12.451
66380W        W25641  38.427  15.212  13.505
66381W        W25642  31.647  23.667  14.445
66382W        W25643  42.393   7.237  12.520
66383W        W25644  42.474  39.929   2.396
66384W        W25645  15.328  22.029  13.819
66385W        W25646  37.581  18.215   3.183
66386W        W25647  36.095   2.830  12.368
66387W        W25648  36.949  32.043  11.502
66388W        W25649  21.557  12.697   2.197
66389W        W25650  20.150  27.995   3.244
66390W        W25651  36.404  36.418   3.206
66391W        W25652  10.670  21.624   4.682
66392W        W25653  25.186  35.998   1.711
66393W        W25654  11.349   2.353  12.008
66394W        W25655   9.351  28.032  11.014
66395W        W25656  34.603  44.468  14.993
66396W        W25657  15.713  15.108  13.504
66397W        W25658  22.581  23.537   1.422
66398W        W25659  21.034  14.131  13.005
66399W        W25660  20.744  30.919   2.213
66400W        W25661  32.930   0.317  11.938
66401W        W25662  19.573  13.239   0.834
66402W        W25663  43.428  27.119  12.554
66403W        W25664  11.674  42.368  12.871
66404W        W25665   6.350  18.632  12.978
66405W        W25666   4.894   7.708  12.941
66406W        W25667  44.845  11.236  14.450
66407W        W25668   5.251  14.250   3.150
66408W        W25669  23.157  37.485  11.062
66409W        W25670  32.996  13.168   0.280
66410W        W25671  17.652  22.594  11.431
66411W        W25672   8.317  39.050  14.762
66412W        W25673   5.206  29.531   3.821
66413W        W25674  25.972   7.881   3.333
66414W        W25675  28.556  39.882  10.953
66415W        W25676  30.095  21.516   4.715
66416W        W25677  39.004  14.161  10.034
66417W        W25678  26.608  14.123  14.459
66418W        W25679  30.000   1.238   4.649
66419W        W25680  39.434  11.143  13.547
66420W        W25681   5.818  27.107  12.036
66421W        W25682  33.105  15.595  13.927
66422W        W25683  25.555  14.676   4.642
66423W        W25684  25.079  41.386   4.615
66424W        W25685  19.556  37.553   2.812
66425W        W25686  38.875  25.714   4.611
66426W        W25687  21.260   4.345   4.344
66427W        W25688   2.768  22.658   2.720
66428W        W25689  36.414  21.208   0.760
66429W        W25690  26.986  39.925   0.456
66430W        W25691  23.680  23.503   3.311
66431W        W25692  28.579  37.851  11.937
66432W        W25693  19.570  13.757  14.794
66433W        W25694  27.491  32.942  10.945
66434W        W25695   8.354  35.060  11.574
66435W        W25696   9.199  14.639  12.421
66436W        W25697  18.162  38.019  13.962
66437W        W25698   3.251  33.051  12.552
66438W        W25699  43.868  36.526   0.264
66439W        W25700  13.762  41.881   3.781
66440W        W25701   6.419  35.982  12.880
66441W        W25702  34.392   4.210  10.487
66442W        W25703  13.343  29.151  10.009
66443W        W25704   1.445  30.506  10.527
66444W        W25705   8.719  16.221   4.718
66445W        W25706  11.694   6.882   5.265
66446W        W25707  41.021  34.497   3.784
66447W        W25708  43.942  37.459   1.927
66448W        W25709  31.982  27.604   1.449
66449W        W25710  11.248  33.973  14.929
66450W        W25711  19.268  17.148   3.843
66451W        W25712  15.663  31.094  14.029
66452W        W25713  21.757  18.640   3.209
66453W        W25714  39.970  13.302  12.580
66454W        W25715  30.141   5.748  13.490
66455W        W25716  26.462  19.108  11.103
66456W        W25717   3.804  16.092   3.763
66457W        W25718  30.933  42.837  12.038
66458W        W25719  13.241  22.565  10.155
66459W        W25720  38.850  26.559   1.862
66460W        W25721   2.784  41.895  13.382
66461W        W25722   3.452  22.115   1.266
66462W        W25723  43.935   7.300   4.129
66463W        W25724   6.388  39.908   3.178
66464W        W25725  28.460  25.700  11.433
66465W        W25726  39.905  15.613   4.647
66466W        W25727  26.991  10.171   2.820
66467W        W25728  13.666  28.627   9.970
66468W        W25729  44.853  44.809  11.004
66469W        W25730   4.879  11.765   2.344
66470W        W25731   3.910  20.254  12.903
66471W        W25732  36.997  19.760  11.603
66472W        W25733  44.298   3.434   3.633
66473W        W25734  31.470  27.083   3.293
66474W        W25735  42.314   8.344   3.315
66475W        W25736  37.087  10.373   4.303
66476W        W25737  37.061  28.648  14.771
66477W        W25738  10.163  35.512   0.399
66478W        W25739  10.726  43.326  14.019
66479W        W25740  34.011  40.041  11.548
66480W        W25741  11.654  34.469  14.352
66481W        W25742  15.753  17.118   0.268
66482W        W25743  41.500  24.538   2.763
66483W        W25744  28.548  28.490  14.030
66484W        W25745  26.977  31.641   1.350
66485W        W25746  34.508  12.328   2.733
66486W        W25747  29.145  26.968   2.685
66487W        W25748  11.741  34.451   1.371
66488W        W25749   3.803  44.453   1.913
66489W        W25750  44.754  15.116   2.765
66490W        W25751  42.819  39.547  10.634
66491W        W25752   0.832   4.827  13.822
66492W        W25753  10.236  40.532  13.791
66493W        W25754  18.631  43.838   1.271
66494W        W25755  27.569  43.443   2.695
66495W        W25756  15.207  10.635   4.209
66496W        W25757  29.057  37.370  12.867
66497W        W25758  35.920  36.395  14.313
66498W        W25759  12.726  17.621   2.347
66499W        W25760   3.445  23.117   2.737
66500W        W25761  24.082  37.480   1.714
66501W        W25762   0.391   3.277  13.394
66502W        W25763   2.948   6.374  11.935
66503W        W25764  16.179  17.157   1.765
66504W        W25765   4.438  12.756   0.333
66505W        W25766   6.760  22.695  14.927
66506W        W25767  43.483  15.754   2.325
66507W        W25768  37.960  24.053   2.413
66508W        W25769  11.845  25.035  10.945
66509W        W25770  28.540  12.742   4.746
66510W        W25771   3.227  20.065  11.442
66511W        W25772  24.601  41.339  10.426
66512W        W25773   6.285  12.148   3.270
66513W        W25774  16.191  11.834   3.275
66514W        W25775  38.972  43.315   1.363
66515W        W25776   4.307  12.854   2.224
66516W        W25777  17.228  32.501   1.927
66517W        W25778   3.365  43.511  12.906
66518W        W25779  37.930  22.030  13.986
66519W        W25780  36.895  26.524   2.218
66520W        W25781  38.403  37.436  14.910
66521W        W25782  25.108  17.123  12.472
66522W        W25783  16.099  22.572  14.022
66523W        W25784  25.042  27.653   4.647
66524W        W25785  18.733  12.693  14.959
66525W        W25786   4.378  30.460  11.594
66526W        W25787  10.708  21.075  10.949
66527W        W25788  41.908  31.917   3.199
66528W        W25789  22.239  30.429   4.733
66529W        W25790  15.614   6.191   0.794
66530W        W25791  24.632   9.843   0.469
66531W        W25792   1.255  25.485  12.399
66532W        W25793  24.681  42.000   2.206
66533W        W25794  43.806  26.584   1.694
66534W        W25795  16.269  37.383  12.479
66535W        W25796  33.569  39.544  14.972
66536W        W25797  15.599   1.254  10.993
66537W        W25798  12.343  44.288   3.336
66538W        W25799   9.290  44.503   1.243
66539W        W25800   3.929  30.918   1.270
66540W        W25801  35.382   0.286   1.286
66541W        W25802   9.393  44.306   4.273
66542W        W25803  43.340  10.710   2.187
66543W        W25804  42.881  11.622  14.363
66544W        W25805  14.631  27.501   9.436
66545W        W25806  28.958   3.427  13.329
66546W        W25807   8.366  12.197  14.900
66547W        W25808  11.767  38.535   3.286
66548W        W25809  15.126  38.857   2.794
66549W        W25810  16.736  21.205  14.984
66550W        W25811  20.078   1.803   4.231
66551W        W25812  19.104  12.690  14.776
66552W        W25813  42.463   5.775  10.500
66553W        W25814  37.865  41.950  11.995
66554W        W25815  26.200  18.561  13.800
66555W        W25816  40.407  15.688   2.667
66556W        W25817  14.249  20.180  13.352
66557W        W25818  17.744   4.923   1.291
66558W        W25819  18.706  28.962   2.213
66559W        W25820  40.988  28.463  12.346
66560W        W25821   0.863  36.403  13.021
66561W        W25822  29.496  16.665  14.338
66562W        W25823  33.908   6.409   2.707
66563W        W25824  39.030  40.479  13.837
66564W        W25825  14.270  16.275  11.913
66565W        W25826  13.813  37.522  11.983
66566W        W25827  30.938  26.517  13.844
66567W        W25828  16.807  27.681   2.882
66568W        W25829  25.590  24.643  14.773
66569W        W25830   7.887  28.121  10.500
66570W        W25831  37.536  21.587   0.918
66571W        W25832  43.812  19.745  11.527
66572W        W25833   9.668   8.712   4.734
66573W        W25834   9.284  10.859   3.208
66574W        W25835   1.413   3.730  12.506
66575W        W25836  44.430  22.651   1.406
66576W        W25837  24.085  40.482  12.003
66577W        W25838  16.159   5.240   1.300
66578W        W25839   7.255  27.611  10.992
66579W        W25840   1.428  36.571   1.291
66580W        W25841   7.358  13.163  13.478
66581W        W25842   0.987  33.453  14.320
66582W        W25843  30.985  35.091  13.908
66583W        W25844  12.255  44.010  13.368
66584W        W25845  15.270  36.589  14.872
66585W        W25846  14.599  30.084   0.838
66586W        W25847   1.432  38.939   3.766
66587W        W25848  35.073  28.622  13.375
66588W        W25849  23.101  27.958  10.904
66589W        W25850   0.885  10.822  13.873
66590W        W25851  16.648  12.808  13.531
66591W        W25852  28.076  18.118   0.246
66592W        W25853  42.446  29.485   4.604
66593W        W25854   7.904   7.340   0.296
66594W        W25855  16.593  13.110  14.399
66595W        W25856  10.193  44.835   0.832
66596W        W25857  23.595   5.928  14.024
66597W        W25858  12.654   4.273   0.782
66598W        W25859  24.650  29.436   1.787
66599W        W25860  20.644  26.685   0.954
66600W        W25861  22.250  24.481  12.082
66601W        W25862   3.419  36.573  12.893
66602W        W25863  34.108  16.584  14.989
66603W        W25864  36.442   6.240  13.033
66604W        W25865   5.895   0.449   3.749
66605W        W25866  26.635  40.809  14.337
66606W        W25867  42.980  16.080  14.835
66607W        W25868  40.523  43.906  12.947
66608W        W25869  10.151  24.574  14.958
66609W        W25870  11.804   3.362   0.426
66610W        W25871  41.857   6.880   1.336
66611W        W25872  18.544  34.081  11.948
66612W        W25873  23.237  28.485   3.356
66613W        W25874  32.542   5.845  12.856
66614W        W25875  38.343  27.515  11.436
66615W        W25876   2.439  18.651   4.260
66616W        W25877  20.618  12.268  12.555
66617W        W25878  25.492  34.101  11.984
66618W        W25879  20.236  14.278  13.905
66619W        W25880  41.040  42.482   3.273
66620W        W25881  16.812  33.914   0.736
66621W        W25882   1.841   1.361  13.979
66622W        W25883  34.518  28.133   1.366
66623W        W25884  20.711  25.512   0.738
66624W        W25885  28.178  29.620   1.887
66625W        W25886  11.216  30.533  11.463
66626W        W25887  12.720  26.558  10.047
66627W        W25888   7.320  32.407   0.903
66628W        W25889   3.791  43.276   0.755
66629W        W25890  40.012  18.275   1.885
66630W        W25891  16.197  13.215   9.953
66631W        W25892  31.043  30.462  12.423
66632W        W25893   7.701  12.243  11.485
66633W        W25894   4.327   7.228  10.618
66634W        W25895  34.489  24.982   1.723
66635W        W25896   5.844  36.976  13.815
66636W        W25897  10.183   3.232   0.868
66637W        W25898  44.919  40.495   3.653
66638W        W25899  24.100  30.041  12.048
66639W        W25900   9.373  19.282   0.446
66640W        W25901  14.636   2.953  13.939
66641W        W25902   4.754  30.921  10.921
66642W        W25903  28.045  26.071   2.253
66643W        W25904  22.525  36.410  14.371
66644W        W25905  11.210  30.912  10.518
66645W        W25906   6.772  26.515   3.823
66646W        W25907  24.012  18.054  11.404
66647W        W25908  42.437  23.219   2.267
66648W        W25909  12.841  37.877  14.915
66649W        W25910  33.569  18.076   2.838
66650W        W25911  42.404  38.936   3.197
66651W        W25912  23.224  29.623  14.868
66652W        W25913  41.337  18.690   4.195
66653W        W25914   1.341  13.142   3.848
66654W        W25915  41.501  12.186   2.718
66655W        W25916  39.905  17.580   0.843
66656W        W25917  31.540  19.056   1.272
66657W        W25918   6.183  31.612  13.429
66658W        W25919  29.957  40.812   4.260
66659W        W25920  21.709  11.626   1.771
66660W        W25921  33.120  11.808   0.950
66661W        W25922   9.380  19.188   3.193
66662W        W25923   5.902  11.833  11.471
66663W        W25924  36.581  27.942   2.716
66664W        W25925  26.553  29.652  13.407
66665W        W25926  44.343  44.756   2.813
66666W        W25927  28.623  43.983  14.275
66667W        W25928  18.544  13.748   0.733
66668W        W25929   4.737  37.338  10.126
66669W        W25930  24.713   5.839  13.449
66670W        W25931  11.650  37.565   2.406
66671W        W25932  18.636  11.202   3.703
66672W        W25933  23.013   4.919   0.469
66673W        W25934   2.926  13.775  13.025
66674W        W25935  35.518  23.067   2.207
66675W        W25936   3.382  24.051   0.395
66676W        W25937  26.635  38.418  13.464
66677W        W25938  14.143  14.705   5.139
66678W        W25939   8.749  34.484   0.265
66679W        W25940  13.269   7.416  14.873
66680W        W25941  34.892  29.482   4.651
66681W        W25942  35.981   5.319  11.397
66682W        W25943  22.539  38.075   4.689
66683W        W25944  37.886  30.990  14.425
66684W        W25945  12.839   5.790  13.926
66685W        W25946  20.723  39.912   0.331
66686W        W25947   1.858  39.026  10.472
66687W        W25948  20.635  11.717  11.975
66688W        W25949  41.024  10.381  12.374
66689W        W25950  22.642  13.730  14.478
66690W        W25951   1.785  33.038   2.306
66691W        W25952   4.814  31.128   3.380
66692W        W25953   7.904  42.023  12.385
66693W        W25954  16.610  35.581   3.850
66694W        W25955  24.216  31.636  11.554
66695W        W25956  30.477   4.835   2.707
66696W        W25957  37.492  18.659  12.824
66697W        W25958  44.356  20.605  11.496
66698W        W25959  11.659  22.203  11.451
66699W        W25960  10.810   7.908   1.246
66700W        W25961   3.442  20.674   3.313
66701W        W25962  15.182   7.859   1.802
66702W        W25963   5.195  21.708  11.482
66703W        W25964  16.250  17.711   4.719
66704W        W25965  43.368  16.809  11.955
66705W        W25966  25.056   4.777   1.302
66706W        W25967  11.706   8.251  13.402
66707W        W25968  12.234  21.138   3.658
66708W        W25969   3.752  44.757  10.413
66709W        W25970  17.132  44.781   0.828
66710W        W25971  42.317   8.691   0.425
66711W        W25972  28.457  31.151  14.759
66712W        W25973  41.479   0.358   4.189
66713W        W25974  25.975  24.049   3.744
66714W        W25975  38.885   1.381   1.419
66715W        W25976   4.347  18.259  13.813
66716W        W25977  38.499  22.106   2.851
66717W        W25978   7.200  44.009   2.290
66718W        W25979   4.774  17.258   5.235
66719W        W25980  40.032  17.629  12.025
66720W        W25981  42.021  37.511  11.521
66721W        W25982  27.572  41.452   1.906
66722W        W25983   6.342  33.977  10.893
66723W        W25984   5.929  37.838  12.891
66724W        W25985  43.876  10.714   1.435
66725W        W25986   6.770  17.682  12.010
66726W        W25987  38.485  29.538  12.896
66727W        W25988  44.443  18.121  11.431
66728W        W25989  37.345  26.999  12.488
66729W        W25990   0.743  37.484   0.370
66730W        W25991  39.014   2.326   4.736
66731W        W25992  31.142  30.156   3.837
66732W        W25993  37.549  15.669  13.033
66733W        W25994  21.243  41.517   4.605
66734W        W25995  20.759  16.280   4.633
66735W        W25996  29.495  14.335  13.537
66736W        W25997   6.333  36.957   2.235
66737W        W25998  15.765  16.258  13.862
66738W        W25999  36.009  27.570  13.867
66739W        W26000   1.950   7.353   0.476
66740W        W26001   6.923  37.015  11.435
66741W        W26002  21.177  20.703   4.605
66742W        W26003  19.173  27.964   4.808
66743W        W26004   0.976  25.486  13.522
66744W        W26005   7.820  35.063  11.943
66745W        W26006  21.258   1.947   1.344
66746W        W26007  34.915   5.383  13.796
66747W        W26008  16.230  37.371  13.010
66748W        W26009   1.945  27.093  13.896
66749W        W26010   9.362   3.311  14.888
66750W        W26011  25.104  18.112  11.502
66751W        W26012  16.284  29.571   1.412
66752W        W26013  24.152  21.044   0.853
66753W        W26014  17.802  37.033  13.423
66754W        W26015  31.914  39.316   1.859
66755W        W26016  16.093  12.838   3.217
66756W        W26017  22.190  18.581   3.256
66757W        W26018  35.361  19.112  11.442
66758W        W26019  30.116  22.240  14.955
66759W        W26020  10.715   8.746  11.093
66760W        W26021  21.560   8.167  13.469
66761W        W26022  37.025  33.012   0.749
66762W        W26023  34.505  43.768   3.360
66763W        W26024  41.894  40.900   0.877
66764W        W26025  14.766  14.661   3.330
66765W        W26026   0.959  28.966  14.947
66766W        W26027  27.582   3.243  13.922
66767W        W26028  41.812  33.031  12.395
66768W        W26029  15.820  40.895   3.856
66769W        W26030  14.263  18.119  12.967
66770W        W26031   0.459  16.745   4.723
66771W        W26032  24.173  16.250   3.712
66772W        W26033  19.224  33.065  11.556
66773W        W26034  16.650  20.724  12.970
66774W        W26035  27.619  10.339  13.546
66775W        W26036  17.196  35.004  11.467
66776W        W26037  13.606  26.673  14.353
66777W        W26038   2.231   0.820   1.428
66778W        W26039  32.396  38.028  12.861
66779W        W26040   5.856  44.359  14.006
66780W        W26041  29.068  25.175   4.701
66781W        W26042  38.867   6.708  10.503
66782W        W26043  22.031  42.021   0.358
66783W        W26044  39.441   7.414  14.827
66784W        W26045  25.691   8.701   5.123
66785W        W26046  19.746  38.374  13.378
66786W        W26047  21.023  12.353   3.384
66787W        W26048   8.749  33.927  14.380
66788W        W26049  12.735  12.119  10.459
66789W        W26050  25.647  32.922   2.396
66790W        W26051  14.604  40.946   3.302
66791W        W26052  14.817  13.739   1.821
66792W        W26053  31.985   4.870   4.229
66793W        W26054  21.087  36.363  13.880
66794W        W26055  34.004  23.533  10.482
66795W        W26056  21.027  12.722  14.006
66796W        W26057  25.511  16.175  13.531
66797W        W26058  40.538  26.620   4.263
66798W        W26059  14.817  44.892  13.477
66799W        W26060  15.642  35.554  14.980
66800W        W26061  24.584  26.525  11.946
66801W        W26062  10.364  27.679   2.245
66802W        W26063  11.715  18.244   0.335
66803W        W26064  15.106  23.534  13.435
66804W        W26065  33.057  33.537   0.873
66805W        W26066  14.228  11.269  14.297
66806W        W26067   3.266  25.165   1.697
66807W        W26068  22.547  34.614   1.884
66808W        W26069  13.804  39.022   3.837
66809W        W26070   1.731  13.785   1.790
66810W        W26071  11.360  38.993   1.428
66811W        W26072   7.769  30.910   4.634
66812W        W26073  32.942  31.433  12.896
66813W        W26074   4.312  28.974  11.118
66814W        W26075   0.920  42.447  12.346
66815W        W26076   7.196  24.593   0.309
66816W        W26077  10.860  42.394  10.512
66817W        W26078  20.262  29.551   9.964
66818W        W26079   6.845  25.115   3.162
66819W        W26080  20.084   7.791  12.953
66820W        W26081  17.201  43.501   4.209
66821W        W26082  17.689  13.670  10.986
66822W        W26083   2.400  31.523   3.708
66823W        W26084  41.861  28.614  10.906
66824W        W26085  32.523  33.125   4.311
66825W        W26086   9.337   2.390   2.840
66826W        W26087  35.491   3.904   3.181
66827W        W26088   4.757  39.064  13.360
66828W        W26089  35.043  30.437  10.072
66829W        W26090  29.450  39.345  14.422
66830W        W26091   3.326  17.219   4.332
66831W        W26092  21.186  25.155   3.272
66832W        W26093  14.765  28.078   2.193
66833W        W26094  19.190   6.701   0.735
66834W        W26095  20.600  21.072   0.362
66835W        W26096  33.090   6.312  14.311
66836W        W26097  25.141  25.994   1.368
66837W        W26098   9.688   3.892  12.473
66838W        W26099   7.392  34.432   4.255
66839W        W26100   7.318  20.749   1.330
66840W        W26101  40.349  23.041  10.632
66841W        W26102  21.724  11.371  10.566
66842W        W26103  41.909  15.707  14.993
66843W        W26104  14.784   7.901   2.201
66844W        W26105  11.273  39.554  12.350
66845W        W26106   7.903  23.995   0.903
66846W        W26107   2.892   6.282   2.743
66847W        W26108  29.591  16.809  11.518
66848W        W26109   5.297  28.647   0.837
66849W        W26110   1.847  11.864   4.721
66850W        W26111   8.740  26.493   0.389
66851W        W26112  43.319   5.699  14.359
66852W        W26113  29.985   5.814  12.425
66853W        W26114  38.076  12.360  13.954
66854W        W26115  40.030  30.509  13.941
66855W        W26116  29.637   3.312  10.904
66856W        W26117  39.497  15.102  14.994
66857W        W26118  35.545  24.052   1.286
66858W        W26119   7.416  17.629  10.560
66859W        W26120  25.477  21.146   4.836
66860W        W26121   3.954   7.841   9.665
66861W        W26122  18.677  22.130   0.416
66862W        W26123  36.453  19.594  13.826
66863W        W26124   5.206  16.077  12.893
66864W        W26125  14.669  25.110   2.702
66865W        W26126  41.917  15.637   0.805
66866W        W26127   5.744  12.199  11.426
66867W        W26128  26.633  44.920   3.294
66868W        W26129  20.527  25.023   4.183
66869W        W26130  25.533  15.700   4.321
66870W        W26131   5.863   5.236   2.767
66871W        W26132  24.159  17.245  11.500
66872W        W26133  26.073  44.797  12.956
66873W        W26134  14.181  12.287  13.393
66874W        W26135  16.272  17.225  12.882
66875W        W26136  31.976  22.244   1.327
66876W        W26137  37.520  38.528   0.346
66877W        W26138  35.090   1.334  14.369
66878W        W26139  17.272  19.102  12.003
66879W        W26140   4.872  14.685  13.913
66880W        W26141   3.447  24.170   2.284
66881W        W26142  10.202  41.491  13.886
66882W        W26143  17.599  10.295  11.382
66883W        W26144  32.603  38.395   0.308
66884W        W26145  41.015  26.533   1.714
66885W        W26146  31.964  39.330   2.212
66886W        W26147   5.223  37.579   4.801
66887W        W26148  29.156  28.970  12.866
66888W        W26149  18.091   2.252  12.490
66889W        W26150  26.628   0.987   4.178
66890W        W26151  42.323   5.870  12.397
66891W        W26152   8.189   2.742   2.799
66892W        W26153  15.192  22.704  14.977
66893W        W26154  13.118  38.897   4.836
66894W        W26155  16.590  21.145   3.308
66895W        W26156  29.033  44.473   0.730
66896W        W26157  23.712  38.014  10.638
66897W        W26158  39.446  41.944   2.299
66898W        W26159  23.513  24.585  11.452
66899W        W26160  21.707   0.760   2.835
66900W        W26161  33.532  23.121  10.038
66901W        W26162   3.848   8.870  14.903
66902W        W26163   5.296  19.740  13.977
66903W        W26164  31.926   8.397  14.930
66904W        W26165   4.311   5.264   3.194
66905W        W26166  26.072  38.571   2.871
66906W        W26167  37.077  11.129   4.238
66907W        W26168   4.328  31.942  11.889
66908W        W26169  31.406  17.666  14.416
66909W        W26170  12.619  25.639  13.364
66910W        W26171  33.918  11.291   0.872
66911W        W26172   2.818  14.171   1.932
66912W        W26173  23.530  38.533   0.806
66913W        W26174  11.716   1.779   2.278
66914W        W26175   9.839  25.510  12.418
66915W        W26176  38.918  11.319  13.499
66916W        W26177   1.948   5.438   1.371
66917W        W26178  33.945  10.696  14.816
66918W        W26179  40.961   1.771   2.879
66919W        W26180  31.896  26.115  14.459
66920W        W26181  22.505  22.158  11.488
66921W        W26182   5.333  31.580   1.902
66922W        W26183  10.738  37.932   2.884
66923W        W26184  42.958  44.480   2.355
66924W        W26185  37.912   4.920  11.510
66925W        W26186  33.982   9.360  14.463
66926W        W26187  32.934  30.588  13.397
66927W        W26188  29.645  19.072   1.869
66928W        W26189   6.865  25.013  11.507
66929W        W26190  43.359  36.965   2.258
66930W        W26191  10.703  33.527  14.471
66931W        W26192  14.616  22.521  13.415
66932W        W26193   5.832  34.559   2.803
66933W        W26194  23.235  42.418   2.765
66934W        W26195  30.970   3.839   1.731
66935W        W26196  15.716  18.619   4.725
66936W        W26197   3.454   2.283  14.848
66937W        W26198  44.380   7.266  12.341
66938W        W26199  16.257   5.908   4.649
66939W        W26200  42.802  21.700  11.864
66940W        W26201   3.276  31.982   1.780
66941W        W26202  35.480  21.745   1.329
66942W        W26203  42.508  32.468   4.641
66943W        W26204  34.575  10.296  13.544
66944W        W26205  33.127  15.821  14.379
66945W        W26206  30.525   1.325  12.973
66946W        W26207  14.699  18.246   3.284
66947W        W26208  33.922   9.368  13.322
66948W        W26209  25.528  29.585  11.893
66949W        W26210  25.966  27.014  14.371
66950W        W26211  39.434  23.657   1.261
66951W        W26212  38.398  17.127  13.957
66952W        W26213  28.644  33.435   1.876
66953W        W26214  32.495  13.663   3.244
66954W        W26215   1.974  20.620  14.824
66955W        W26216  32.067  24.634   4.123
66956W        W26217  16.737  30.058   0.947
66957W        W26218  10.257  38.429  11.473
66958W        W26219  26.102  26.034   2.707
66959W        W26220  10.362  38.515   3.214
66960W        W26221  23.725  12.312   3.225
66961W        W26222  33.017  29.160  13.397
66962W        W26223  41.800  27.948   4.617
66963W        W26224  29.658  30.603   1.905
66964W        W26225  14.802   1.300  12.955
66965W        W26226   8.339  20.527   3.731
66966W        W26227  19.086  15.269   2.818
66967W        W26228  38.896   4.358  14.287
66968W        W26229  12.615  39.011  12.851
66969W        W26230  11.863  21.583   1.438
66970W        W26231  14.763  30.130   2.270
66971W        W26232   0.955   4.214  13.515
66972W        W26233  28.168  10.754  14.013
66973W        W26234  14.335  12.182   3.180
66974W        W26235  17.610   8.297   0.778
66975W        W26236   6.699  18.561  12.845
66976W        W26237   9.372  36.367  13.863
66977W        W26238  30.940   4.399   2.809
66978W        W26239  18.096  31.945  12.889
66979W        W26240  20.184   5.366   1.768
66980W        W26241  32.004  28.093  11.478
66981W        W26242   2.374  32.955   4.182
66982W        W26243   7.785  33.518   0.827
66983W        W26244   8.188  40.918   3.857
66984W        W26245  30.571  27.498  14.333
66985W        W26246  40.908  41.516  12.549
66986W        W26247  38.413  29.053  13.965
66987W        W26248  21.030   1.378   3.301
66988W        W26249  40.391  39.907  13.008
66989W        W26250  38.327  20.206   2.180
66990W        W26251   9.677   6.903   0.763
66991W        W26252   4.755  21.722  12.862
66992W        W26253   6.346   2.466  12.520
66993W        W26254  39.421  31.435  10.137
66994W        W26255  33.047  18.136  12.891
66995W        W26256  12.332  40.464   2.358
66996W        W26257  12.288   4.325   0.787
66997W        W26258   8.893  15.274  11.613
66998W        W26259  32.444  21.135   4.713
66999W        W26260  38.035  14.307   2.837
67000W        W26261  22.166  32.632   2.244
67001W        W26262  31.034   3.332   1.708
67002W        W26263  37.530  31.531   0.921
67003W        W26264  43.474  30.595  13.546
67004W        W26265  28.529  28.094  13.868
67005W        W26266  37.439  37.871   2.755
67006W        W26267  18.773  20.695  13.842
67007W        W26268   5.320  21.231   4.338
67008W        W26269  14.337   2.794   9.494
67009W        W26270  20.742  34.575  14.934
67010W        W26271  37.421  25.511   4.621
67011W        W26272   5.268  19.217   3.358
67012W        W26273  22.019   7.819  11.486
67013W        W26274  21.200   3.292   4.786
67014W        W26275   0.787  11.134   2.313
67015W        W26276  12.290   8.843   0.784
67016W        W26277  32.600  15.215   0.306
67017W        W26278  42.452  20.632  12.069
67018W        W26279  18.706   9.760  13.026
67019W        W26280   0.355   9.298   0.796
67020W        W26281   4.375  39.843   4.820
67021W        W26282  22.709   7.374  13.038
67022W        W26283  44.364  10.319  10.455
67023W        W26284  37.463  27.168   2.235
67024W        W26285  20.087   5.741   3.333
67025W        W26286   0.300  20.274   1.368
67026W        W26287  28.579  35.955  12.428
67027W        W26288   8.720  36.401   1.856
67028W        W26289  33.612  12.738  13.844
67029W        W26290  34.914  40.054  11.042
67030W        W26291  28.083  35.481   3.279
67031W        W26292   8.185  29.176   2.708
67032W        W26293  43.896  42.959   3.683
67033W        W26294   2.778   6.268  14.461
67034W        W26295  20.719  16.151   2.707
67035W        W26296   4.814   2.282  14.403
67036W        W26297  16.645  32.554  13.487
67037W        W26298  41.913   5.268  12.950
67038W        W26299  24.706  36.982  12.082
67039W        W26300  43.359   9.287   3.242
67040W        W26301   1.385  39.809  13.503
67041W        W26302  28.959  12.261  14.903
67042W        W26303  38.044  31.037   0.830
67043W        W26304   2.834  21.229  10.895
67044W        W26305   3.276  44.806   1.223
67045W        W26306  38.976  11.810   2.843
67046W        W26307  44.398   1.857  10.503
67047W        W26308  14.295  44.912  10.973
67048W        W26309   0.255  30.069  14.361
67049W        W26310   6.799  42.957  10.453
67050W        W26311   0.889   4.713  12.398
67051W        W26312   1.925  33.579  13.003
67052W        W26313  30.017  23.984   2.235
67053W        W26314   4.770  19.212   2.892
67054W        W26315  17.582   0.365   3.361
67055W        W26316  21.020   4.871  10.507
67056W        W26317  43.423  40.810  12.079
67057W        W26318  39.497  42.349   3.654
67058W        W26319  26.690  38.848  13.366
67059W        W26320  41.530  14.607   1.808
67060W        W26321  24.643  11.310   4.309
67061W        W26322  26.691  35.106  10.429
67062W        W26323  39.363  30.656   3.313
67063W        W26324  30.470  27.189   4.626
67064W        W26325   0.829  15.188  14.814
67065W        W26326  40.972  21.243  13.455
67066W        W26327  10.272  14.163  11.574
67067W        W26328  31.906  22.040  11.423
67068W        W26329  25.002  11.737  12.558
67069W        W26330  33.005  26.059  14.850
67070W        W26331  28.512  14.253  12.906
67071W        W26332   9.370   8.259  14.373
67072W        W26333   1.258  44.275  14.795
67073W        W26334  17.163  32.579   2.732
67074W        W26335   9.374  19.549   0.260
67075W        W26336  37.057  16.615  12.432
67076W        W26337  32.452  31.922   5.251
67077W        W26338  34.578  10.236  13.832
67078W        W26339  38.844  33.054   4.263
67079W        W26340  37.024  18.775  13.470
67080W        W26341  16.627  22.204  12.888
67081W        W26342  32.479  31.079   4.731
67082W        W26343  16.116   6.271  13.847
67083W        W26344  35.587  29.650  14.766
67084W        W26345  27.145  15.291   0.804
67085W        W26346  24.723  25.625  13.873
67086W        W26347  19.550  26.571  14.369
67087W        W26348  38.000  34.881   1.772
67088W        W26349  44.443  14.643   0.912
67089W        W26350   0.414  27.686  11.376
67090W        W26351   1.845  13.823  14.464
67091W        W26352  34.972  43.294   1.337
67092W        W26353  17.653   1.811  11.926
67093W        W26354  30.090  12.326   5.570
67094W        W26355  22.193  29.074   1.243
67095W        W26356  29.639  40.493   0.838
67096W        W26357  18.171  16.197  10.999
67097W        W26358  17.100  31.897   0.256
67098W        W26359  10.725   5.874  14.897
67099W        W26360  22.550  21.571  10.572
67100W        W26361  20.267   9.803  11.386
67101W        W26362  38.034  20.049  13.852
67102W        W26363  43.933  16.227   3.761
67103W        W26364  23.618  36.047   1.217
67104W        W26365   9.760  22.728  10.980
67105W        W26366  36.549  37.893   1.907
67106W        W26367  38.428  29.467   0.374
67107W        W26368  23.618  26.010   2.844
67108W        W26369  38.410  23.069  12.575
67109W        W26370   0.401  16.665  13.051
67110W        W26371   6.356  28.118  10.927
67111W        W26372  43.937   6.817   2.685
67112W        W26373   4.897  29.109   1.372
67113W        W26374   6.745  17.282   2.223
67114W        W26375  32.538   6.879  10.515
67115W        W26376  29.046  36.379   3.770
67116W        W26377  19.139  34.078   3.687
67117W        W26378  26.677  26.061   1.858
67118W        W26379  12.125  11.775   2.329
67119W        W26380   0.967  20.075   4.643
67120W        W26381   6.337  26.624  13.335
67121W        W26382  27.669  21.104  13.542
67122W        W26383   0.417   4.435   1.759
67123W        W26384  28.478  38.043  14.980
67124W        W26385  39.908  23.133   0.369
67125W        W26386  34.455  24.216   3.362
67126W        W26387  43.784   4.843  11.596
67127W        W26388  29.140  15.785   3.149
67128W        W26389  20.725  22.738  11.971
67129W        W26390  25.136  36.434   0.746
67130W        W26391  32.035  43.957   0.384
67131W        W26392   0.983   5.694  13.436
67132W        W26393  12.264  11.362  10.639
67133W        W26394   6.716  31.635   4.616
67134W        W26395   4.440  36.059  14.828
67135W        W26396   8.392  21.041  13.439
67136W        W26397  32.911  22.550   0.760
67137W        W26398  28.500   7.836   0.267
67138W        W26399  22.014   5.272  10.610
67139W        W26400  12.314  31.019   2.291
67140W        W26401   3.776  16.258  12.434
67141W        W26402   5.312  13.120  13.314
67142W        W26403   6.198  42.788   2.869
67143W        W26404  27.574  43.864  13.520
67144W        W26405  10.828  28.566   4.781
67145W        W26406  17.177  32.470   0.425
67146W        W26407  44.804   8.784   0.896
67147W        W26408   0.383  31.980  11.417
67148W        W26409  39.401  29.574  13.930
67149W        W26410  36.418  44.279  10.559
67150W        W26411   2.336  35.969  10.518
67151W        W26412  29.660  32.914  11.938
67152W        W26413  33.430  28.491  14.923
67153W        W26414  39.926   3.720  11.013
67154W        W26415  42.873  35.875  14.793
67155W        W26416   1.412  29.597   3.374
67156W        W26417  10.728  18.726  14.873
67157W        W26418  30.536   8.703   2.666
67158W        W26419  14.817  40.983  13.458
67159W        W26420   2.297  22.730  11.557
67160W        W26421   2.748  12.645  12.859
67161W        W26422  44.874  29.169  10.443
67162W        W26423  43.494   7.792  11.121
67163W        W26424   1.739   9.393   2.198
67164W        W26425  16.673  31.604   0.815
67165W        W26426  22.010   3.454  12.348
67166W        W26427  40.308  25.027  10.018
67167W        W26428  14.196  27.485  14.852
67168W        W26429   5.242   3.350  10.059
67169W        W26430  14.121  22.114  12.447
67170W        W26431  31.081  14.172  13.375
67171W        W26432  37.350  36.505  11.393
67172W        W26433  41.422  43.781  14.357
67173W        W26434  20.116  23.653   5.766
67174W        W26435   8.302  14.813  12.948
67175W        W26436  36.576   4.752   2.835
67176W        W26437  15.663  10.709  12.412
67177W        W26438  18.573  17.725  11.918
67178W        W26439   2.271  38.824   2.180
67179W        W26440   1.292  29.615  14.987
67180W        W26441  17.786  31.979   5.606
67181W        W26442   1.238   8.889  10.949
67182W        W26443  11.791   9.738  13.330
67183W        W26444  33.930  24.674   2.380
67184W        W26445  42.398   3.436  11.128
67185W        W26446  11.295  22.545  13.032
67186W        W26447   7.717  17.123  13.404
67187W        W26448  31.020  22.164   3.652
67188W        W26449   0.278  40.806   3.778
67189W        W26450  37.063  23.092   1.738
67190W        W26451   7.226  32.460  10.460
67191W        W26452  12.775   2.322   3.850
67192W        W26453   1.883  44.447   3.215
67193W        W26454  21.031  39.963  14.481
67194W        W26455  25.132  12.144   0.427
67195W        W26456  41.414  17.300   4.158
67196W        W26457  28.076   8.265  12.050
67197W        W26458   0.371  35.582  12.521
67198W        W26459  22.011   0.832   0.827
67199W        W26460  43.371  32.071   2.841
67200W        W26461  28.597  41.434   3.330
67201W        W26462  34.999  15.211  10.594
67202W        W26463  14.220  16.588   2.829
67203W        W26464  21.029  42.937   4.260
67204W        W26465  42.459  44.270   4.731
67205W        W26466  38.504  24.611   0.401
67206W        W26467  41.393  44.826   2.289
67207W        W26468  19.282  25.139   4.714
67208W        W26469  41.891  20.046   0.290
67209W        W26470  37.920  28.561  10.607
67210W        W26471  39.377   3.242   1.811
67211W        W26472  28.541   1.935  13.035
67212W        W26473   9.173  16.084   2.356
67213W        W26474  10.285  41.957   3.175
67214W        W26475  16.244   4.779  11.089
67215W        W26476  44.005  15.169   2.801
67216W        W26477  15.706  31.526   4.327
67217W        W26478  40.330  29.998  11.064
67218W        W26479  24.642   2.901  13.415
67219W        W26480   3.789  10.714  14.439
67220W        W26481  19.737   0.871  10.945
67221W        W26482  21.087   1.327  10.527
67222W        W26483  36.510  21.246  10.516
67223W        W26484   1.301  32.394   1.288
67224W        W26485  40.958   8.272   0.733
67225W        W26486  19.092  18.119  14.955
67226W        W26487   2.328  17.284  13.435
67227W        W26488  13.834  37.468   4.633
67228W        W26489   1.346  30.489   0.313
67229W        W26490   7.884  20.112  14.825
67230W        W26491  38.454  12.234  12.395
67231W        W26492   4.446  31.535  14.832
67232W        W26493  33.455   5.781   4.740
67233W        W26494   8.654   5.697  12.517
67234W        W26495   1.973  44.947  12.048
67235W        W26496  16.194  31.009   0.916
67236W        W26497  21.101  11.350   4.287
67237W        W26498  25.987  40.549  11.469
67238W        W26499  12.187  25.012  12.899
67239W        W26500  34.069  36.500   3.783
67240W        W26501  23.094  13.733   3.166
67241W        W26502  24.515   4.895   2.223
67242W        W26503  34.609  40.992   2.416
67243W        W26504  12.768   1.461   5.289
67244W        W26505   2.760  44.495  14.770
67245W        W26506  40.484  14.749   0.927
67246W        W26507  31.572  31.542   9.951
67247W        W26508  41.513  13.679   3.831
67248W        W26509  39.454  32.433  14.883
67249W        W26510  10.280  38.461   3.795
67250W        W26511   4.939  37.859  10.586
67251W        W26512  27.119  14.726   4.156
67252W        W26513  15.284  31.464  13.012
67253W        W26514  18.552   5.766   1.213
67254W        W26515  11.270  37.963   4.330
67255W        W26516  44.894   4.323  11.450
67256W        W26517   7.180  12.762   1.923
67257W        W26518   1.967  14.323  12.549
67258W        W26519  17.293  44.464   4.319
67259W        W26520  17.144  34.517   1.327
67260W        W26521   6.700  18.156  10.477
67261W        W26522  38.416   5.710  14.493
67262W        W26523  20.100  14.224  14.403
67263W        W26524  19.097   5.289  13.522
67264W        W26525   9.187  38.358   1.419
67265W        W26526  25.059  37.912   4.213
67266W        W26527  18.653  29.435   1.354
67267W        W26528  40.934  25.655   3.376
67268W        W26529  44.003  31.950  10.602
67269W        W26530  33.547  36.889  10.894
67270W        W26531  40.947   0.785  13.396
67271W        W26532  27.101  12.772  10.597
67272W        W26533  21.253  17.086  12.896
67273W        W26534  15.678   5.394  13.855
67274W        W26535  13.815   4.776   5.778
67275W        W26536  44.872  23.574  10.576
67276W        W26537  17.094   2.371   2.774
67277W        W26538  15.174  38.401   1.330
67278W        W26539  27.683  14.237  11.590
67279W        W26540  14.213  37.344  12.350
67280W        W26541  31.991  20.764  11.991
67281W        W26542  35.061   8.735  10.574
67282W        W26543   4.338  13.631   1.755
67283W        W26544  27.449  44.335  10.403
67284W        W26545   3.312   8.371  12.422
67285W        W26546  28.482  27.661  11.511
67286W        W26547  43.941  39.481  13.011
67287W        W26548  15.577  14.781   0.822
67288W        W26549  23.612   6.864   1.251
67289W        W26550  34.529   3.227   2.845
67290W        W26551  39.830  44.482   0.391
67291W        W26552  36.964  36.947   2.710
67292W        W26553  22.205  23.660   1.338
67293W        W26554  42.315  30.533  10.897
67294W        W26555   6.347   7.210   0.804
67295W        W26556  39.844  27.609  14.417
67296W        W26557  26.595  12.736   4.144
67297W        W26558  13.220  15.583   3.753
67298W        W26559  27.178   7.720  12.838
67299W        W26560   9.747  30.926   3.381
67300W        W26561  28.104  37.569   0.940
67301W        W26562   4.379  36.934  11.095
67302W        W26563  24.702  14.254  11.873
67303W        W26564   2.435   8.245   9.933
67304W        W26565  16.631  39.332   3.654
67305W        W26566  16.767  12.757  11.920
67306W        W26567  25.072  10.756  13.032
67307W        W26568   7.778  13.761  12.486
67308W        W26569  15.297  15.258  10.475
67309W        W26570  37.987  42.500  10.963
67310W        W26571   8.300   8.746  13.813
67311W        W26572  15.137   9.355   2.361
67312W        W26573  38.407  23.600   0.330
67313W        W26574  22.126  31.092   4.802
67314W        W26575   6.292  33.510  10.428
67315W        W26576  12.752  11.212  14.907
67316W        W26577  19.074  24.146  11.018
67317W        W26578  19.157  38.919  12.034
67318W        W26579  13.600  26.098   2.838
67319W        W26580  32.601  23.044   2.280
67320W        W26581   2.759   6.386   4.332
67321W        W26582  24.061   4.374   2.406
67322W        W26583  16.762  17.704   0.824
67323W        W26584  22.545  21.718   3.700
67324W        W26585  22.544   1.286  14.804
67325W        W26586  44.433   6.889  14.795
67326W        W26587  31.014   3.818   4.332
67327W        W26588  20.557   7.273  10.907
67328W        W26589  11.168  26.655   2.225
67329W        W26590  39.446   4.309  12.956
67330W        W26591  30.418  44.755  10.075
67331W        W26592  25.506   6.284   4.236
67332W        W26593  16.783   1.778  13.051
67333W        W26594  35.052   1.384  14.766
67334W        W26595  22.694  21.736   2.306
67335W        W26596  14.096  41.325   2.828
67336W        W26597   8.306  12.179  14.447
67337W        W26598   9.837   6.184  14.289
67338W        W26599   3.810  37.481  14.494
67339W        W26600  17.081  44.770   3.776
67340W        W26601  44.297  35.927   1.308
67341W        W26602  20.669  11.312  10.914
67342W        W26603  15.126   1.803   0.838
67343W        W26604  26.128  41.836  12.921
67344W        W26605  44.282  15.803   4.320
67345W        W26606  41.508  27.074   3.826
67346W        W26607  16.110  43.819  11.032
67347W        W26608   4.788   2.333  10.891
67348W        W26609  26.582  33.470  10.626
67349W        W26610   2.265   6.230   3.767
67350W        W26611  33.999  14.683  13.990
67351W        W26612  26.679   3.447   5.177
67352W        W26613   3.712  12.169  11.566
67353W        W26614   1.937   4.802  11.961
67354W        W26615  22.203  28.040  11.427
67355W        W26616  44.459   7.189   3.857
67356W        W26617  18.208  12.341  11.870
67357W        W26618   8.396   0.474   2.319
67358W        W26619  12.242  15.605   9.503
67359W        W26620   4.748   8.266   3.279
67360W        W26621  29.016  18.703   3.201
67361W        W26622  18.108  30.547  12.055
67362W        W26623  40.924  26.012   3.157
67363W        W26624  42.869   3.851  13.979
67364W        W26625   3.805  11.647   1.787
67365W        W26626  24.062  24.138  14.509
67366W        W26627  36.914  34.873  12.546
67367W        W26628  35.382  23.207  11.376
67368W        W26629  38.069  18.150  13.463
67369W        W26630   2.758   9.678  14.367
67370W        W26631  30.560  33.528   4.330
67371W        W26632  27.553  44.480  11.017
67372W        W26633  13.268   4.818   0.365
67373W        W26634   6.343  17.650   3.274
67374W        W26635   3.404  39.382   2.233
67375W        W26636  35.938  32.951   4.176
67376W        W26637  36.853  28.650  13.518
67377W        W26638  12.797  38.330  13.533
67378W        W26639  18.181  33.104   0.854
67379W        W26640  34.032  33.975  11.856
67380W        W26641  17.641   9.305  14.501
67381W        W26642  14.658  17.142  14.787
67382W        W26643  29.070   4.222  10.567
67383W        W26644  32.458  10.642   4.738
67384W        W26645  24.027  30.951   3.721
67385W        W26646  24.135  17.628  12.021
67386W        W26647  30.454  31.085  12.981
67387W        W26648   7.314  31.944  11.450
67388W        W26649   6.679  38.442   2.815
67389W        W26650  29.561   8.882   0.775
67390W        W26651  34.974  21.071   3.321
67391W        W26652   2.882  10.865  14.498
67392W        W26653  30.576  41.521  13.364
67393W        W26654  31.066  33.391  10.916
67394W        W26655  44.417  17.233   0.345
67395W        W26656   0.920   0.298  13.866
67396W        W26657  35.866  35.595  11.424
67397W        W26658   5.736  21.550  12.424
67398W        W26659  43.973   2.237   1.781
67399W        W26660  27.031  33.497   4.136
67400W        W26661  28.063  33.897   3.704
67401W        W26662  20.640  42.016  14.295
67402W        W26663  33.581   0.937  13.317
67403W        W26664  25.091  14.817  14.465
67404W        W26665  17.132  35.890  14.937
67405W        W26666  28.680  35.002  13.426
67406W        W26667  23.699  43.487   2.234
67407W        W26668   9.827  27.077   3.198
67408W        W26669  44.502  27.131   2.184
67409W        W26670  27.632  29.078  11.494
67410W        W26671  31.119  32.930   5.739
67411W        W26672  37.052  14.795   3.652
67412W        W26673  22.095   4.880  10.611
67413W        W26674  40.004  31.910  14.275
67414W        W26675  26.641  31.631  12.460
67415W        W26676   0.946  33.416   3.196
67416W        W26677   3.874   1.467   0.426
67417W        W26678   3.294  26.017  10.451
67418W        W26679  13.620  24.056   4.659
67419W        W26680  29.008  12.225   1.228
67420W        W26681  15.681  15.247   2.781
67421W        W26682  42.905  27.652  14.893
67422W        W26683  43.878  35.455   2.331
67423W        W26684   2.394  40.402  14.466
67424W        W26685  22.076  16.187  12.508
67425W        W26686  38.327  20.745  10.488
67426W        W26687  10.341   5.860  10.921
67427W        W26688  22.127  28.588   5.202
67428W        W26689  22.570   2.733  10.038
67429W        W26690  30.624  29.056   4.346
67430W        W26691  42.469  41.332   0.441
67431W        W26692  19.645  41.877   0.779
67432W        W26693  19.059   5.392  11.001
67433W        W26694  28.669  42.900  10.597
67434W        W26695  35.518  18.780   3.856
67435W        W26696  18.599   5.228  10.617
67436W        W26697  44.767  14.323   1.248
67437W        W26698  26.656  15.594  11.581
67438W        W26699  43.428  29.613   0.297
67439W        W26700  27.972  35.985   2.748
67440W        W26701  33.478  34.547   3.322
67441W        W26702  13.610  40.368   4.354
67442W        W26703  27.681  27.035   2.857
67443W        W26704  32.093   8.832   2.852
67444W        W26705   0.983  44.356   5.220
67445W        W26706   2.379  10.343  14.862
67446W        W26707  10.334   5.432  10.903
67447W        W26708  30.562   2.891  14.478
67448W        W26709  14.631  25.494   4.270
67449W        W26710   1.410  26.493   2.862
67450W        W26711  32.519   1.856  13.310
67451W        W26712  43.851  27.456  13.351
67452W        W26713  12.679  34.043  13.906
67453W        W26714   2.780  26.618  12.573
67454W        W26715  10.878  44.314  14.835
67455W        W26716   8.802  18.603   0.816
67456W        W26717  11.203  19.644   2.846
67457W        W26718   3.274  34.884   1.861
67458W        W26719  26.544  24.170   0.868
67459W        W26720  10.787  41.431   2.828
67460W        W26721  31.028  11.229   4.233
67461W        W26722  10.733  42.825   0.389
67462W        W26723  39.448  17.100  12.852
67463W        W26724  37.565  22.673  13.864
67464W        W26725  21.745  39.031  12.404
67465W        W26726  35.481   6.918  13.811
67466W        W26727  28.138  40.940  14.493
67467W        W26728  38.914   6.919  11.075
67468W        W26729   6.768  12.253   1.836
67469W        W26730  22.095  14.100  11.958
67470W        W26731  35.570   6.748   2.317
67471W        W26732   9.887  23.241  14.934
67472W        W26733  10.298   5.769   0.275
67473W        W26734  25.201  21.128  12.916
67474W        W26735  40.464  43.371   2.749
67475W        W26736  26.465  23.110   2.886
67476W        W26737  13.162  28.519   1.364
67477W        W26738  25.218   8.785   3.665
67478W        W26739  20.615  39.841   2.354
67479W        W26740  14.130  37.002  12.381
67480W        W26741  27.488  15.271   3.834
67481W        W26742  27.990  44.809  11.372
67482W        W26743  22.052   1.935  13.848
67483W        W26744  35.969   8.817   4.164
67484W        W26745  14.259  35.982  14.867
67485W        W26746  29.456  10.744  10.437
67486W        W26747  27.581  29.425   3.204
67487W        W26748  26.667  12.774  13.442
67488W        W26749  32.919  31.479  10.531
67489W        W26750  19.602  24.531  10.620
67490W        W26751   8.860  21.236  14.852
67491W        W26752   8.189   8.825   0.246
67492W        W26753  19.049   0.748  13.979
67493W        W26754   5.817  25.709   2.208
67494W        W26755  20.182   6.678  10.983
67495W        W26756  18.100  18.238  11.419
67496W        W26757   1.935   1.874   3.788
67497W        W26758   0.821   7.738   1.265
67498W        W26759  27.618  28.671   2.197
67499W        W26760  12.657  43.452   4.718
67500W        W26761   3.755  18.639   1.829
67501W        W26762  32.461   0.436  12.832
67502W        W26763   8.752  22.072   2.364
67503W        W26764  37.985  13.652  11.552
67504W        W26765  35.459  11.751  13.440
67505W        W26766  42.833  30.046   0.448
67506W        W26767  20.140  16.144   2.675
67507W        W26768   2.938  14.688   4.609
67508W        W26769  25.548  40.318   1.436
67509W        W26770  13.801  31.046  14.831
67510W        W26771  15.255  25.549  12.389
67511W        W26772   6.904  20.628   2.807
67512W        W26773   4.279  21.104  13.357
67513W        W26774   6.276  19.256  12.850
67514W        W26775   5.201  15.666   2.264
67515W        W26776  38.900  10.215  10.488
67516W        W26777  30.577   3.810  11.113
67517W        W26778  32.045  38.906  12.385
67518W        W26779  21.606  26.624  10.893
67519W        W26780  21.123  26.575   1.428
67520W        W26781  18.072  37.956  14.287
67521W        W26782  13.204  43.958  10.633
67522W        W26783  10.711  41.457   1.391
67523W        W26784  26.646  12.638  14.770
67524W        W26785  10.204  32.133   3.635
67525W        W26786   2.917  39.356  11.946
67526W        W26787  11.797  13.678   2.753
67527W        W26788  16.086  14.337   2.287
67528W        W26789   0.775  19.627   3.209
67529W        W26790   2.749  44.964   4.116
67530W        W26791  23.123  36.076  12.925
67531W        W26792  20.588   8.847   1.239
67532W        W26793  28.536  30.517   4.773
67533W        W26794  29.667  35.550   1.244
67534W        W26795   1.896  38.009   0.746
67535W        W26796  11.839   6.199  14.853
67536W        W26797  34.564  30.125  11.484
67537W        W26798  27.479  44.764  14.941
67538W        W26799  28.099  21.111   5.206
67539W        W26800  39.469  29.613   1.723
67540W        W26801  41.509  14.211  12.960
67541W        W26802  32.916  43.001   1.708
67542W        W26803  26.625   0.829   0.318
67543W        W26804  11.288  24.224   0.823
67544W        W26805  27.086  33.421   2.188
67545W        W26806  15.622  10.774  13.430
67546W        W26807  42.974  14.727  13.047
67547W        W26808  25.673   9.188   2.409
67548W        W26809  41.985   0.275  11.559
67549W        W26810  28.617   9.203  14.966
67550W        W26811   0.337  18.717   3.189
67551W        W26812  42.459  22.184  13.962
67552W        W26813  27.149  42.905   2.823
67553W        W26814  14.109  15.581  10.907
67554W        W26815   3.316  13.165  14.797
67555W        W26816  29.128  32.039  14.480
67556W        W26817   7.326  42.396   4.799
67557W        W26818  23.065  12.153   3.738
67558W        W26819   6.783   6.793   2.786
67559W        W26820  39.848  20.063  14.871
67560W        W26821  42.396  39.851   4.729
67561W        W26822   3.789   3.238  11.972
67562W        W26823  31.429  30.926   4.218
67563W        W26824   9.723  37.988   1.933
67564W        W26825  32.619  26.013  10.603
67565W        W26826  20.144  13.829  11.859
67566W        W26827   5.312  15.156   4.777
67567W        W26828  37.872  22.631   1.328
67568W        W26829   3.347   5.933  13.052
67569W        W26830  22.996  40.304  10.888
67570W        W26831  22.010  30.960  11.542
67571W        W26832  32.537  26.048  13.043
67572W        W26833  40.333  19.721   1.770
67573W        W26834  14.220  17.681   3.835
67574W        W26835  16.583  13.272   4.723
67575W        W26836  34.596   6.203   3.366
67576W        W26837   0.864   1.328  12.085
67577W        W26838  11.228  18.208  13.475
67578W        W26839   3.811  29.105  11.537
67579W        W26840  26.175  34.003   4.314
67580W        W26841  13.611   9.689   0.275
67581W        W26842  11.265  12.685  14.300
67582W        W26843  14.627   2.351   2.395
67583W        W26844  13.700  19.155   2.900
67584W        W26845  16.077  38.432  11.425
67585W        W26846  37.483  34.470   0.248
67586W        W26847  43.874  18.235   0.914
67587W        W26848  21.639   7.241   1.362
67588W        W26849  12.751  24.556  14.399
67589W        W26850  16.624  15.218   2.280
67590W        W26851   3.419  41.036  14.280
67591W        W26852   6.277  41.485  10.931
67592W        W26853  14.594  28.043   2.821
67593W        W26854  13.652  18.744   3.863
67594W        W26855   1.822  12.634  14.788
67595W        W26856  12.348  26.458  12.386
67596W        W26857   9.154   3.247  12.429
67597W        W26858  26.129  38.327  11.589
67598W        W26859  10.302   8.230  14.027
67599W        W26860   5.733  38.378   0.814
67600W        W26861   6.364  37.853   0.282
67601W        W26862   1.295  16.104  13.867
67602W        W26863  21.690  23.524  12.994
67603W        W26864  33.068  17.721   2.213
67604W        W26865   8.815  43.448  11.074
67605W        W26866  36.904  27.549   0.451
67606W        W26867  40.445   9.666   1.214
67607W        W26868  19.668  12.855  14.784
67608W        W26869  37.474  10.810  12.580
67609W        W26870   8.214   6.833  10.513
67610W        W26871  29.151  24.503   1.224
67611W        W26872  33.626   6.268   3.646
67612W        W26873   6.357  21.552   2.699
67613W        W26874  24.210   8.164  14.473
67614W        W26875  21.142  36.890  10.979
67615W        W26876  31.612  14.250  12.459
67616W        W26877  38.833   8.847   3.815
67617W        W26878  32.931  43.404  13.941
67618W        W26879  13.684  31.092  11.106
67619W        W26880  29.036  36.093   0.372
67620W        W26881   8.772  44.992   3.266
67621W        W26882  27.150  31.045   4.176
67622W        W26883  17.204  23.515   9.922
67623W        W26884  15.215  33.941   3.842
67624W        W26885  16.108   7.702   3.841
67625W        W26886  35.041  34.121   5.153
67626W        W26887  19.092  20.611  14.390
67627W        W26888  38.358  26.047  14.504
67628W        W26889   8.284   2.238  11.971
67629W        W26890   7.391  14.774   2.823
67630W        W26891  22.098  40.825  10.542
67631W        W26892  40.800   2.790  13.476
67632W        W26893  16.738  11.337   1.715
67633W        W26894   5.305  34.600  10.479
67634W        W26895  40.473   4.815  10.993
67635W        W26896  33.462  21.590   1.406
67636W        W26897  29.595   4.353   4.622
67637W        W26898  31.969  44.885   4.195
67638W        W26899  42.880  18.085  11.456
67639W        W26900   2.363   1.462  11.433
67640W        W26901  11.786  18.247  14.488
67641W        W26902  26.993  28.600   1.762
67642W        W26903  22.577  41.490  12.969
67643W        W26904  27.172   5.219  13.935
67644W        W26905   6.232  41.314   0.326
67645W        W26906  31.946  24.200   2.333
67646W        W26907   5.691  18.099   1.334
67647W        W26908  39.050  33.023   1.293
67648W        W26909  23.223  30.437  14.420
67649W        W26910  10.285  25.575   1.248
67650W        W26911   0.963   9.834   0.252
67651W        W26912  12.312   6.916   4.229
67652W        W26913  22.071  39.016  12.579
67653W        W26914  36.070   2.308  11.494
67654W        W26915  15.292  25.183   4.211
67655W        W26916  24.536   6.334   0.912
67656W        W26917  34.910  11.686  12.463
67657W        W26918  27.480  22.051  12.030
67658W        W26919  30.583  26.004  13.929
67659W        W26920  13.779   3.352  14.384
67660W        W26921  17.273  16.587  12.422
67661W        W26922  32.907  39.492   1.302
67662W        W26923   7.234  41.499  13.318
67663W        W26924  29.981  11.228   4.160
67664W        W26925  28.096  18.707  11.583
67665W        W26926  42.301  27.103   1.773
67666W        W26927  33.084  37.408   0.859
67667W        W26928   0.476  27.592   3.858
67668W        W26929  24.033  19.664   1.333
67669W        W26930  25.993   1.893   3.301
67670W        W26931  36.014  23.986  12.994
67671W        W26932  24.978  34.379   2.258
67672W        W26933  22.624  43.951   3.197
67673W        W26934   2.386  33.545  13.975
67674W        W26935   4.244  31.975   3.268
67675W        W26936   9.388  24.118   3.149
67676W        W26937   2.274  40.823   1.390
67677W        W26938  39.874  30.570  11.404
67678W        W26939  17.770  23.612  11.581
67679W        W26940  20.031   3.759  10.991
67680W        W26941  24.114  14.334  14.960
67681W        W26942  21.670  26.143  14.024
67682W        W26943  38.374  26.041  11.428
67683W        W26944  20.098  21.676   1.365
67684W        W26945  35.003  42.445  12.562
67685W        W26946  14.324   0.396  11.533
67686W        W26947  32.102  32.447   2.235
67687W        W26948   4.850   7.348   5.134
67688W        W26949  13.351  37.373   4.631
67689W        W26950  32.000  36.984   4.720
67690W        W26951  14.689  32.455   0.922
67691W        W26952  27.647  14.160   1.325
67692W        W26953  19.673  22.705  14.398
67693W        W26954  33.060  30.617   4.750
67694W        W26955  30.568  28.551   3.745
67695W        W26956  28.047  26.698  14.503
67696W        W26957  29.980  36.894   2.837
67697W        W26958  29.039  44.793   4.310
67698W        W26959  14.158   5.240   0.935
67699W        W26960   2.406  29.484   2.768
67700W        W26961  23.650   0.367  11.913
67701W        W26962   5.786  41.974   0.752
67702W        W26963  26.062  26.570   0.790
67703W        W26964  27.098   4.935   4.188
67704W        W26965  37.963   7.189  12.929
67705W        W26966   2.286  13.120   4.312
67706W        W26967  39.009  11.336  10.603
67707W        W26968  13.188  24.672   1.879
67708W        W26969   9.655  17.788   4.728
67709W        W26970  28.472  23.720  10.446
67710W        W26971  38.825  19.071  12.346
67711W        W26972  16.599  36.906  14.766
67712W        W26973  26.010  30.983  14.339
67713W        W26974  40.050  26.176   4.676
67714W        W26975  27.010   9.190  11.893
67715W        W26976  36.379  36.474  10.934
67716W        W26977  44.488   9.858  10.917
67717W        W26978  38.450  40.422  13.528
67718W        W26979   3.812  27.129  11.084
67719W        W26980  37.434   9.390   3.313
67720W        W26981   4.754   3.278   3.166
67721W        W26982   4.798  38.438  12.447
67722W        W26983  41.500  36.893  12.372
67723W        W26984   7.715  42.378   4.745
67724W        W26985   9.681  43.799  14.028
67725W        W26986   5.291  25.032   4.653
67726W        W26987  20.260  29.040   3.676
67727W        W26988  30.032  22.639  11.875
67728W        W26989  43.397  43.824   0.893
67729W        W26990  14.283  25.646  12.394
67730W        W26991  10.335  30.515   0.903
67731W        W26992  22.175  19.560   1.856
67732W        W26993  43.847  17.581  12.491
67733W        W26994  38.872  12.620  14.816
67734W        W26995  27.534   8.308   0.762
67735W        W26996  40.952  34.001   0.463
67736W        W26997  12.235  23.215   4.695
67737W        W26998  41.928   0.832   2.404
67738W        W26999  27.027   6.200   0.414
67739W        W27000  15.148  25.564  11.565
67740W        W27001  36.986  27.588   2.697
67741W        W27002  16.662  22.653   1.223
67742W        W27003   1.463  23.495  11.916
67743W        W27004  36.448   6.345   4.309
67744W        W27005  28.062   6.195  12.990
67745W        W27006  15.271  23.017  10.056
67746W        W27007  13.153  39.062  13.924
67747W        W27008  26.025  24.628   5.258
67748W        W27009  14.711  24.558   2.743
67749W        W27010  39.447  11.131  12.994
67750W        W27011  37.478  39.010  12.520
67751W        W27012  44.834   6.370  13.055
67752W        W27013  11.302  43.408  12.500
67753W        W27014  26.530   4.912  14.946
67754W        W27015  13.146   9.295  12.562
67755W        W27016  18.057   4.369  11.484
67756W        W27017  10.247  19.279  14.278
67757W        W27018  30.918  37.004   1.759
67758W        W27019   0.962  16.635   2.810
67759W        W27020   6.761  13.757  10.599
67760W        W27021  32.560  21.023   3.251
67761W        W27022   9.266  31.464   3.757
67762W        W27023  44.283  31.028  10.426
67763W        W27024  43.866  11.180  12.577
67764W        W27025  21.232  41.526  10.989
67765W        W27026  13.661   4.398  12.934
67766W        W27027  30.521  19.236  10.557
67767W        W27028  43.496  21.551  13.912
67768W        W27029  34.477   5.768   2.391
67769W        W27030  36.882   1.400  10.534
67770W        W27031  17.651  42.799  13.029
67771W        W27032  25.182   2.837   1.310
67772W        W27033  21.615  19.660  11.877
67773W        W27034  17.719  10.142   3.264
67774W        W27035  29.001  31.150   1.723
67775W        W27036  41.796   4.366   1.884
67776W        W27037  22.195  24.566  12.525
67777W        W27038   0.334  18.244  13.378
67778W        W27039  13.315  11.281   4.219
67779W        W27040  14.617   8.680  13.859
67780W        W27041  39.984   3.370  10.012
67781W        W27042  22.573  19.736   5.175
67782W        W27043  15.118  34.075  14.349
67783W        W27044  32.592  35.860  11.517
67784W        W27045  27.060  24.007   3.838
67785W        W27046   1.272  40.966  13.807
67786W        W27047  40.886  23.540  12.384
67787W        W27048  23.079   7.859  11.125
67788W        W27049  23.034  27.615   0.818
67789W        W27050  44.353   9.838   3.319
67790W        W27051   1.769  33.976  11.509
67791W        W27052  15.136  19.230  11.446
67792W        W27053  42.309  13.232   4.722
67793W        W27054  26.025  21.149  12.374
67794W        W27055  35.043   1.419   0.268
67795W        W27056  12.296  35.928  13.372
67796W        W27057  13.693  18.184  13.524
67797W        W27058   4.893  32.089  11.481
67798W        W27059  43.969  33.514  14.443
67799W        W27060  43.005  19.223   0.348
67800W        W27061   3.346  19.575   3.365
67801W        W27062  27.619   3.915   1.928
67802W        W27063   9.835  35.506   0.463
67803W        W27064   9.154  33.549  10.560
67804W        W27065  30.603  29.544  14.446
67805W        W27066  15.296  32.989  14.959
67806W        W27067  22.647  10.270  12.009
67807W        W27068  17.081  13.751   2.735
67808W        W27069  33.618  31.552  11.525
67809W        W27070  30.461  27.685   1.698
67810W        W27071  34.440  11.792  14.933
67811W        W27072   9.783  12.205   2.827
67812W        W27073  11.741   9.862   1.763
67813W        W27074  13.201  32.074  13.008
67814W        W27075  23.648   9.287   2.713
67815W        W27076   3.783  19.663   4.653
67816W        W27077  12.617  21.123   4.676
67817W        W27078  20.114  26.523   0.832
67818W        W27079   6.340  29.960   1.753
67819W        W27080  35.392  33.921   2.745
67820W        W27081   2.262  27.019   1.887
67821W        W27082  10.288   4.738   3.738
67822W        W27083  25.609  29.524  10.625
67823W        W27084  29.050  29.980   1.743
67824W        W27085  28.587  28.043   3.809
67825W        W27086  44.462  39.029  11.960
67826W        W27087  13.788  33.432   2.847
67827W        W27088  16.283  20.112   0.772
67828W        W27089  31.632   1.827   4.699
67829W        W27090  38.370   2.293  12.002
67830W        W27091  16.704  21.018   2.382
67831W        W27092  16.303  11.362   1.829
67832W        W27093  43.852  35.436  13.994
67833W        W27094  36.036  30.075   2.364
67834W        W27095   6.706   7.237  14.900
67835W        W27096  36.941   2.733  11.531
67836W        W27097  42.897  27.960   1.894
67837W        W27098  39.482  14.276  12.450
67838W        W27099  12.270  13.147  11.094
67839W        W27100  32.427  19.604   0.444
67840W        W27101   8.371   3.751  12.032
67841W        W27102  27.624   1.901   1.752
67842W        W27103  12.789   2.353   9.922
67843W        W27104  14.224  31.597  13.893
67844W        W27105  39.817  12.768  14.824
67845W        W27106   8.202  13.692  13.863
67846W        W27107  28.496  30.515  10.563
67847W        W27108  13.757  27.688  11.050
67848W        W27109  25.132  38.946  14.458
67849W        W27110   8.190  43.878   1.782
67850W        W27111  28.494   8.329  13.030
67851W        W27112  16.717  41.479   1.282
67852W        W27113   6.264  44.420  13.517
67853W        W27114  11.201  21.551   3.244
67854W        W27115  16.203  41.318   1.323
67855W        W27116  12.639  13.338  13.896
67856W        W27117  25.514  26.690  11.566
67857W        W27118  41.916  42.894  10.411
67858W        W27119  44.907  28.955  13.497
67859W        W27120  43.451   7.870  10.494
67860W        W27121  23.996   8.709   5.282
67861W        W27122  16.620  13.755   2.884
67862W        W27123  24.192  14.268   4.808
67863W        W27124  27.571  25.709   3.670
67864W        W27125  18.616  16.203  10.897
67865W        W27126  38.951  27.600  11.423
67866W        W27127  24.672  37.464  12.040
67867W        W27128  25.702  14.181   1.310
67868W        W27129  17.271   3.913   4.345
67869W        W27130  16.790  40.517   3.364
67870W        W27131  32.056  42.344   0.949
67871W        W27132  19.196  35.976  12.977
67872W        W27133   4.868  19.084  11.894
67873W        W27134   4.434  34.030  11.459
67874W        W27135  14.597   1.333   2.838
67875W        W27136  42.469  43.825   3.839
67876W        W27137  22.100  39.050   3.775
67877W        W27138   3.292  14.737  13.015
67878W        W27139  37.054   7.756   4.168
67879W        W27140  32.460  33.541   4.688
67880W        W27141  32.502  42.954   2.681
67881W        W27142  13.768  28.619  14.878
67882W        W27143  42.314  27.040   3.307
67883W        W27144  12.807  22.628   0.388
67884W        W27145  30.557   2.370  12.894
67885W        W27146  15.595   9.828   0.364
67886W        W27147   3.712  19.752  12.008
67887W        W27148  39.967  18.771  14.955
67888W        W27149  14.755  40.923   2.239
67889W        W27150  13.837   7.289  13.025
67890W        W27151  34.907  38.523  12.908
67891W        W27152  14.751  12.785  10.478
67892W        W27153   6.370   9.376  11.077
67893W        W27154  31.076  17.155   4.353
67894W        W27155   2.851  29.507  12.860
67895W        W27156  12.352  44.837   1.393
67896W        W27157  35.996  40.894  11.112
67897W        W27158  42.907  24.652  10.929
67898W        W27159   9.251  21.690   2.336
67899W        W27160  18.684  30.583   2.739
67900W        W27161  11.250  28.668   3.355
67901W        W27162  21.708  24.102  14.337
67902W        W27163  44.349  21.672   0.951
67903W        W27164   8.658  43.993  13.481
67904W        W27165   1.442  20.074   2.874
67905W        W27166  14.691  36.538   0.756
67906W        W27167   7.401  12.355  13.390
67907W        W27168  25.112   4.788  13.467
67908W        W27169  35.521  12.288  12.454
67909W        W27170  29.635  26.674  13.841
67910W        W27171  35.548  35.099   3.336
67911W        W27172  26.461  22.605  11.080
67912W        W27173   7.813  13.747  14.314
67913W        W27174  22.693  23.563   0.908
67914W        W27175   2.333  30.418   1.409
67915W        W27176  10.287   7.720  14.452
67916W        W27177  37.916  32.964   9.936
67917W        W27178  40.888  16.125   1.893
67918W        W27179  17.590   6.287   3.213
67919W        W27180  44.429  22.660  14.777
67920W        W27181  44.939   4.328   4.218
67921W        W27182  27.481  12.813  10.550
67922W        W27183  36.006  32.464  12.004
67923W        W27184  12.146  29.133  11.096
67924W        W27185  20.151  13.289   1.279
67925W        W27186  29.477   3.807   1.387
67926W        W27187   2.385   0.811  11.505
67927W        W27188  28.551  34.425  14.920
67928W        W27189  17.179  12.302  13.004
67929W        W27190   9.259   1.900  12.026
67930W        W27191  14.674   0.978  11.011
67931W        W27192  19.255   7.181  13.926
67932W        W27193   1.804   9.822   4.214
67933W        W27194   6.759  29.979  13.050
67934W        W27195  11.637  21.136   1.432
67935W        W27196  34.416  31.970  11.515
67936W        W27197  25.498  30.434  11.568
67937W        W27198  32.424  26.127   2.738
67938W        W27199  22.680  24.028  13.992
67939W        W27200  28.458   8.351   4.803
67940W        W27201  27.648  33.580  11.008
67941W        W27202  19.622  24.175  14.457
67942W        W27203  16.740  27.480  13.931
67943W        W27204  33.456  28.006   1.291
67944W        W27205  20.156  31.955  13.500
67945W        W27206  34.986  27.071   2.407
67946W        W27207  12.822  24.525  14.022
67947W        W27208   1.409  41.023   3.293
67948W        W27209  15.126  26.075   0.419
67949W        W27210  40.515  32.907   1.288
67950W        W27211  41.461  38.861   5.246
67951W        W27212  44.940  32.946  12.903
67952W        W27213   6.860  38.494   1.841
67953W        W27214  26.047  31.604  12.944
67954W        W27215   2.822  39.920  13.519
67955W        W27216  18.072  41.385  13.933
67956W        W27217  20.640  10.252  12.061
67957W        W27218  39.350  42.310  13.001
67958W        W27219  17.267  11.681   1.871
67959W        W27220   0.779  38.820   3.206
67960W        W27221  11.627  33.963  10.467
67961W        W27222  10.166  17.769   1.277
67962W        W27223  34.570  18.614  12.511
67963W        W27224   9.774  24.638  12.535
67964W        W27225  38.885  44.354  12.998
67965W        W27226  40.511  38.954   3.235
67966W        W27227  34.875  37.942  14.871
67967W        W27228   4.212  36.377  11.442
67968W        W27229  39.026  39.378   5.252
67969W        W27230   6.228  10.662  11.881
67970W        W27231  25.592  36.958   0.959
67971W        W27232  37.892  37.344   1.721
67972W        W27233  15.696  27.097   5.138
67973W        W27234  36.579  35.966  11.531
67974W        W27235   6.282  24.694   3.773
67975W        W27236  26.667   5.776  10.613
67976W        W27237   1.829  30.010  13.893
67977W        W27238  35.042  23.622   3.774
67978W        W27239  21.203  20.162   5.140
67979W        W27240  26.128   5.314   2.732
67980W        W27241  22.218  39.990  10.405
67981W        W27242  43.784  26.196  11.064
67982W        W27243   8.655   7.193  13.869
67983W        W27244  28.483  15.701  13.039
67984W        W27245  13.187  32.498   2.374
67985W        W27246  32.465  12.268  11.385
67986W        W27247  34.048   8.844   0.805
67987W        W27248  22.190  40.035   3.695
67988W        W27249   8.890   8.860   0.371
67989W        W27250  44.827   9.353  14.436
67990W        W27251  13.671  28.663   0.349
67991W        W27252  44.271  43.438   1.767
67992W        W27253   4.365  34.016  12.846
67993W        W27254  38.857   9.796   4.598
67994W        W27255  13.249  11.308   0.939
67995W        W27256  30.530  11.846  14.308
67996W        W27257  42.926  21.206  11.601
67997W        W27258  29.136  15.780   0.285
67998W        W27259  16.708  30.076  14.788
67999W        W27260  29.937  21.567  10.447
68000W        W27261   2.962  35.507  14.437
68001W        W27262  22.204   6.857  10.540
68002W        W27263   9.835   7.833   0.477
68003W        W27264  11.202  19.077   3.355
68004W        W27265   6.341   0.471  12.552
68005W        W27266  23.647  40.542   1.904
68006W        W27267   8.284  18.107   4.683
68007W        W27268  31.455  30.987  13.497
68008W        W27269  21.527   8.711   4.251
68009W        W27270  19.640  23.666   3.228
68010W        W27271  17.768  26.030   0.363
68011W        W27272  19.577  32.936  14.428
68012W        W27273  29.635  11.632  11.899
68013W        W27274  16.153  30.512  14.416
68014W        W27275  24.003  31.114   1.301
68015W        W27276  31.138  22.215  11.982
68016W        W27277  11.692  42.486  14.915
68017W        W27278  14.734   0.751   9.988
68018W        W27279  32.496  18.750   1.781
68019W        W27280  38.502   6.380   3.762
68020W        W27281  28.172   4.763   2.796
68021W        W27282   0.483  44.919   1.712
68022W        W27283  30.914  41.478   0.731
68023W        W27284   0.812  31.949  11.452
68024W        W27285   8.761  16.623   0.966
68025W        W27286  28.165   9.378   1.909
68026W        W27287  17.303  16.206  12.014
68027W        W27288  26.503  28.066  14.906
68028W        W27289  15.698   9.722   1.404
68029W        W27290  10.153  33.460   0.773
68030W        W27291  21.119   9.754  12.534
68031W        W27292  17.735  28.498  13.400
68032W        W27293   7.213   5.372   3.351
68033W        W27294   4.935  40.882  14.820
68034W        W27295  27.603  25.130  12.065
68035W        W27296  34.495   5.746  14.849
68036W        W27297  30.103  20.168   3.284
68037W        W27298  15.095  33.471   1.836
68038W        W27299  12.774  43.319  12.018
68039W        W27300   4.261  44.009   2.864
68040W        W27301   7.357  16.759  13.537
68041W        W27302  41.948   6.234   2.386
68042W        W27303   4.283  11.286   2.845
68043W        W27304  36.972  15.692   3.643
68044W        W27305  36.943  11.214  13.944
68045W        W27306   7.903   8.735  13.529
68046W        W27307  37.490  43.338   2.182
68047W        W27308   9.196  13.798   2.890
68048W        W27309  35.597   0.940   4.145
68049W        W27310  28.664   3.254   3.368
68050W        W27311  37.356  22.234  14.506
68051W        W27312  34.465  14.752  14.843
68052W        W27313  11.718  30.942  10.626
68053W        W27314  16.081  24.102  13.824
68054W        W27315  16.120  20.090   9.537
68055W        W27316  43.886  31.611   4.715
68056W        W27317  27.656  41.852   3.678
68057W        W27318  11.627  29.473  11.410
68058W        W27319  18.631  25.168   2.237
68059W        W27320   8.281  19.264   3.639
68060W        W27321  12.724  28.609  10.024
68061W        W27322  44.280  15.615   1.410
68062W        W27323  33.905  31.045   2.842
68063W        W27324   4.868  43.986   4.200
68064W        W27325  16.593   0.368   4.122
68065W        W27326   2.819  12.333  10.603
68066W        W27327  38.065  43.771   0.444
68067W        W27328  23.172  22.618   2.415
68068W        W27329   7.216  41.406   1.833
68069W        W27330  31.146  42.786  10.083
68070W        W27331  39.433  42.393  10.907
68071W        W27332  29.105  16.298   2.219
68072W        W27333   5.802  20.041   2.182
68073W        W27334  24.082  10.795   0.891
68074W        W27335  38.504  28.476   3.287
68075W        W27336  19.197  38.478  10.620
68076W        W27337  21.052   4.447  13.375
68077W        W27338  29.645   2.275  10.461
68078W        W27339  27.685   8.204  11.999
68079W        W27340   8.253  26.540   4.726
68080W        W27341  24.713  35.592   3.224
68081W        W27342  11.130  33.624  11.407
68082W        W27343  44.349  26.564  12.528
68083W        W27344  22.686   8.240   0.727
68084W        W27345  29.598   5.439  12.832
68085W        W27346  24.549  27.137   0.794
68086W        W27347  34.386  15.797   3.345
68087W        W27348  34.410  38.397  14.497
68088W        W27349   0.270  43.402  11.585
68089W        W27350  39.817   6.315   3.819
68090W        W27351  28.597  44.410  10.999
68091W        W27352  35.885  30.125  12.552
68092W        W27353  26.547   3.449   0.943
68093W        W27354  44.395  38.455  14.954
68094W        W27355  33.487   8.386  12.948
68095W        W27356   9.782   4.731   0.787
68096W        W27357  34.045  36.577   3.386
68097W        W27358  26.073  42.897   3.666
68098W        W27359  40.508   5.277   1.271
68099W        W27360   1.365  30.518   3.324
68100W        W27361  16.654  18.088   3.303
68101W        W27362  30.961   9.211   3.356
68102W        W27363  12.185   4.435  12.544
68103W        W27364   9.257  31.142   1.434
68104W        W27365   0.331  22.014   2.192
68105W        W27366   0.339  20.582  14.409
68106W        W27367  12.828  39.419  14.486
68107W        W27368   4.735   6.762  12.469
68108W        W27369  42.989  30.529  12.994
68109W        W27370  14.153  13.115  14.996
68110W        W27371  38.064  33.895  11.953
68111W        W27372  13.295   3.821   1.865
68112W        W27373  23.522  42.457   0.315
68113W        W27374   8.815  33.001   3.819
68114W        W27375  28.983  31.436  10.463
68115W        W27376  31.603   3.785  12.343
68116W        W27377  44.801  19.654  12.923
68117W        W27378   2.244  29.502  10.563
68118W        W27379  16.600   1.271   1.273
68119W        W27380  13.110  34.555   2.895
68120W        W27381  21.182  23.230   9.978
68121W        W27382  15.224   7.691  11.601
68122W        W27383   7.780  14.290   3.300
68123W        W27384  27.475   2.745   1.236
68124W        W27385   4.928  37.342  10.990
68125W        W27386  35.515  29.931  11.590
68126W        W27387  10.760  27.147  12.044
68127W        W27388  22.199  42.875  13.031
68128W        W27389  11.803  20.708   3.164
68129W        W27390  37.927  40.910  10.909
68130W        W27391   3.408  11.770  12.364
68131W        W27392  24.702  17.578   0.752
68132W        W27393   1.373   2.730   0.821
68133W        W27394  18.720   1.793   2.770
68134W        W27395   8.301  14.288  11.009
68135W        W27396  32.971  15.306  12.439
68136W        W27397   0.968  25.708  11.121
68137W        W27398   2.929  14.630   4.224
68138W        W27399  11.337  37.551  11.866
68139W        W27400  34.592  36.084   1.879
68140W        W27401  38.388  23.678   2.895
68141W        W27402   6.342  13.132   1.334
68142W        W27403  31.098  12.828   2.710
68143W        W27404  12.204   6.303   5.127
68144W        W27405  33.876  38.439   3.173
68145W        W27406  20.582  32.411   0.453
68146W        W27407  28.959  30.595  14.767
68147W        W27408  42.492   5.228  11.598
68148W        W27409   0.272  32.485  14.340
68149W        W27410  16.091  17.147   4.330
68150W        W27411  11.673   9.822  11.004
68151W        W27412  13.773  23.509  12.880
68152W        W27413  39.943   9.150   3.190
68153W        W27414  42.960  38.367  13.001
68154W        W27415  31.014   0.251  14.940
68155W        W27416  11.648  17.077   5.299
68156W        W27417  10.165   6.899   1.306
68157W        W27418  21.132  27.602  13.893
68158W        W27419  19.264   9.322   2.405
68159W        W27420  20.648  32.032   1.368
68160W        W27421  12.166   5.400   4.718
68161W        W27422  43.903  23.023   4.754
68162W        W27423  43.270  26.461   2.764
68163W        W27424  18.608  25.615  14.372
68164W        W27425  17.671  31.004   9.948
68165W        W27426  30.494   2.750  12.356
68166W        W27427  16.110  22.183   3.732
68167W        W27428  41.881  21.226   1.871
68168W        W27429  10.747  24.536   1.306
68169W        W27430  39.342   8.659  13.942
68170W        W27431  39.519  35.856  13.004
68171W        W27432  31.590  17.747   2.245
68172W        W27433  13.108  17.690   9.985
68173W        W27434  32.468  24.983   1.814
68174W        W27435  13.250  10.334   2.212
68175W        W27436  33.399  23.497  11.568
68176W        W27437  15.792  10.230  10.007
68177W        W27438   6.275  22.020   3.341
68178W        W27439  25.007  37.369  14.370
68179W        W27440  37.354  18.581  14.908
68180W        W27441  22.707  16.200  11.509
68181W        W27442  19.646  35.940  10.606
68182W        W27443  17.613  13.287  10.535
68183W        W27444  12.314   8.291  14.466
68184W        W27445  23.696   2.738   0.883
68185W        W27446  35.999  41.513   2.825
68186W        W27447  37.394  27.644   0.796
68187W        W27448  21.224  34.413  12.003
68188W        W27449  38.326   6.679  11.946
68189W        W27450  38.894  15.228  12.981
68190W        W27451  36.417  35.491  12.535
68191W        W27452  18.132   6.726  14.887
68192W        W27453   1.958  15.268   3.631
68193W        W27454  33.567  33.990   3.239
68194W        W27455  29.127  17.582   2.877
68195W        W27456  33.020  30.988   2.871
68196W        W27457   2.843   8.223  13.010
68197W        W27458   9.775  25.142   1.405
68198W        W27459  16.124  12.239   1.741
68199W        W27460  25.156   4.848   3.152
68200W        W27461  28.443  35.998  10.959
68201W        W27462  27.973  22.569  13.429
68202W        W27463  38.021   6.268   3.305
68203W        W27464  33.586  20.679  11.941
68204W        W27465  37.533  17.234   5.125
68205W        W27466   9.389   6.824   0.913
68206W        W27467  40.982  19.539  12.054
68207W        W27468  20.105   5.713   2.889
68208W        W27469  23.178   2.296  14.424
68209W        W27470  40.800  29.428  12.032
68210W        W27471   6.219  28.132  12.065
68211W        W27472  38.885  35.925   1.706
68212W        W27473   1.929   5.774   1.374
68213W        W27474  33.026  34.396  14.416
68214W        W27475  39.406  24.656  12.945
68215W        W27476  22.506  41.424  13.432
68216W        W27477  20.644  29.656   0.953
68217W        W27478  22.528  11.285   0.347
68218W        W27479  20.620  12.153   4.269
68219W        W27480  33.444  36.069   0.263
68220W        W27481  39.965  10.262   1.775
68221W        W27482  11.776   2.233  10.929
68222W        W27483  19.696   7.749  14.794
68223W        W27484   0.391  23.716   3.709
68224W        W27485  27.504   3.900  14.790
68225W        W27486  20.756  20.685   5.716
68226W        W27487   7.782  43.300  12.399
68227W        W27488  23.578  29.070   0.900
68228W        W27489   5.855  16.807   0.807
68229W        W27490   8.363  16.653  12.036
68230W        W27491  44.430  37.844   4.161
68231W        W27492  20.108  22.708   5.685
68232W        W27493  35.044  26.589  11.968
68233W        W27494  40.389  39.324   4.306
68234W        W27495  27.979   0.254   0.245
68235W        W27496  18.644  10.729  14.415
68236W        W27497  38.488  37.394  12.068
68237W        W27498   2.453  26.665   3.656
68238W        W27499  39.404   1.943  13.322
68239W        W27500  25.702  41.434  10.631
68240W        W27501  28.435  26.184   1.249
68241W        W27502  32.923   9.295  12.473
68242W        W27503   4.803  12.239  13.435
68243W        W27504  38.512  18.265   0.455
68244W        W27505  29.427  37.831  12.508
68245W        W27506  18.615  15.627  14.021
68246W        W27507  41.341  34.954  10.944
68247W        W27508  14.266  37.925  12.564
68248W        W27509  19.055   6.307  11.969
68249W        W27510  31.111  22.566  13.364
68250W        W27511   0.849  29.557  11.924
68251W        W27512  30.589  22.036  14.772
68252W        W27513  12.200  43.871  11.991
68253W        W27514  31.456  37.840  12.022
68254W        W27515  27.513  43.506  12.452
68255W        W27516  16.139  18.292  14.937
68256W        W27517  33.568  30.454   2.299
68257W        W27518   8.201   8.320  11.512
68258W        W27519  14.615   9.206   4.648
68259W        W27520  38.371  28.134   4.771
68260W        W27521  34.422  39.446  14.278
68261W        W27522  17.070  40.468  11.956
68262W        W27523  37.354  36.489  13.851
68263W        W27524  14.706   4.280   1.851
68264W        W27525  14.663   8.752   1.322
68265W        W27526  36.346  16.739   1.868
68266W        W27527  44.876  30.955  13.992
68267W        W27528  16.291   5.318  13.439
68268W        W27529  12.650  12.172  14.879
68269W        W27530  21.719  29.961   1.874
68270W        W27531  26.464  25.661  13.491
68271W        W27532  32.112  39.332   0.837
68272W        W27533  23.122  23.713  11.997
68273W        W27534  33.905  42.994   1.821
68274W        W27535  23.736  34.034  13.393
68275W        W27536  17.213  24.509   2.325
68276W        W27537  22.734  15.754   1.228
68277W        W27538  35.929  13.282   3.164
68278W        W27539  44.831  39.496   3.385
68279W        W27540  40.332  36.550  13.882
68280W        W27541  17.713  14.334   2.379
68281W        W27542   4.262  14.652  11.559
68282W        W27543  41.976  25.110   3.336
68283W        W27544  26.197   3.766  11.960
68284W        W27545  10.780  14.095   2.293
68285W        W27546  20.645  26.496   0.273
68286W        W27547  24.657  41.326  14.952
68287W        W27548  12.171  40.013   4.183
68288W        W27549   7.255  19.138  12.986
68289W        W27550  20.062  43.964  12.394
68290W        W27551  40.919  32.532   1.851
68291W        W27552   1.952   4.258   4.710
68292W        W27553  37.973  17.687   2.225
68293W        W27554  20.752  13.732  14.337
68294W        W27555  43.771  44.932  13.867
68295W        W27556  27.061  20.034   4.317
68296W        W27557   5.925   2.265  11.600
68297W        W27558   8.836   7.842  14.922
68298W        W27559  20.578  27.450  13.841
68299W        W27560  26.111  18.728  14.352
68300W        W27561   4.718  32.968   0.957
68301W        W27562  42.376  15.662   4.139
68302W        W27563  30.071  16.719   1.418
68303W        W27564  13.817  18.675  12.437
68304W        W27565  18.108   1.891  11.562
68305W        W27566  24.114   0.401  11.986
68306W        W27567   2.735  43.499   0.928
68307W        W27568  13.829  29.074   1.873
68308W        W27569   7.344  22.137   3.818
68309W        W27570   6.812   9.337  12.349
68310W        W27571  25.639  14.175   0.964
68311W        W27572   0.468   8.754   3.190
68312W        W27573  30.156  39.333  10.417
68313W        W27574  13.821   5.196  12.506
68314W        W27575  19.128  38.932   0.834
68315W        W27576   4.214  16.809   0.882
68316W        W27577   9.712  21.038  10.033
68317W        W27578  30.561  11.309   4.155
68318W        W27579  11.717  24.058   4.622
68319W        W27580  36.573   0.785   0.357
68320W        W27581   1.918  10.219  10.551
68321W        W27582  20.710   9.831  14.889
68322W        W27583  15.587  36.064   0.426
68323W        W27584  39.050  23.117  11.508
68324W        W27585   4.353  36.435   2.382
68325W        W27586  41.932  20.648  11.071
68326W        W27587  34.602  17.078  11.595
68327W        W27588  28.007  33.102  12.463
68328W        W27589   2.239   4.206  11.387
68329W        W27590   1.428  41.892  12.902
68330W        W27591  26.496  20.532  11.051
68331W        W27592  28.936  36.516  13.962
68332W        W27593  35.484   1.366  11.590
68333W        W27594  27.168  38.014   0.943
68334W        W27595   6.372  43.005   1.370
68335W        W27596  10.731  22.567  13.799
68336W        W27597  21.546  23.047  14.935
68337W        W27598   3.776   0.333   1.752
68338W        W27599  41.462  32.612   1.845
68339W        W27600  15.752  17.725  13.460
68340W        W27601   6.891  13.713  14.817
68341W        W27602  41.451  36.575   2.222
68342W        W27603  37.514  33.507  11.930
68343W        W27604   0.319  40.310   4.313
68344W        W27605  40.890  32.441   2.329
68345W        W27606  26.628  28.166   2.181
68346W        W27607   5.402  13.267  12.838
68347W        W27608  41.376  14.114   3.361
68348W        W27609   5.787  31.076   2.851
68349W        W27610  34.424  25.614  12.425
68350W        W27611  33.610  33.999   0.290
68351W        W27612   8.658  33.966   2.733
68352W        W27613  20.092  27.540   2.378
68353W        W27614  34.925  18.088   0.738
68354W        W27615  22.054  43.316   4.259
68355W        W27616   7.699  39.412   3.273
68356W        W27617  24.053   3.250   0.304
68357W        W27618   8.354  38.996   2.282
68358W        W27619   0.866   0.291   2.235
68359W        W27620   6.870  12.188   0.410
68360W        W27621  37.911  37.083   0.738
68361W        W27622  32.968  33.626   4.301
68362W        W27623  41.382   4.359  13.943
68363W        W27624  43.450   7.878  11.885
68364W        W27625   9.845  40.456  10.478
68365W        W27626  26.011  26.460   2.410
68366W        W27627  18.180  22.029   2.369
68367W        W27628  39.550  38.514  11.057
68368W        W27629  30.954  43.377  14.926
68369W        W27630  32.622  18.136  12.079
68370W        W27631  31.422  16.221  14.820
68371W        W27632  13.240  34.375   4.658
68372W        W27633   1.806  12.742   1.387
68373W        W27634   2.302   2.733   0.800
68374W        W27635   6.209   3.879   1.439
68375W        W27636  16.804  32.578  11.080
68376W        W27637   6.352   4.891   4.836
68377W        W27638   1.941  12.138   1.235
68378W        W27639  31.024  19.670   2.310
68379W        W27640   3.428  38.442  11.046
68380W        W27641  26.655  32.622   1.241
68381W        W27642   4.717  21.048  13.935
68382W        W27643   9.793  15.282   3.313
68383W        W27644  42.380  35.416   3.729
68384W        W27645  13.808  16.289   0.426
68385W        W27646   0.950  20.598   4.117
68386W        W27647  17.672  25.032  14.798
68387W        W27648  38.018   8.248   0.852
68388W        W27649   7.281  32.085   4.625
68389W        W27650  22.647  27.084   2.310
68390W        W27651  34.399  32.995  13.798
68391W        W27652  14.607  10.348  13.353
68392W        W27653  16.660  27.583   9.995
68393W        W27654  24.616   9.746   4.646
68394W        W27655   7.307   2.763   1.705
68395W        W27656  11.266  39.043  14.332
68396W        W27657   2.351   6.310  12.969
68397W        W27658  17.068  43.491   2.662
68398W        W27659  17.690  32.060  14.771
68399W        W27660  13.629  27.163   3.358
68400W        W27661  10.263   4.445   1.360
68401W        W27662  37.936  16.583  12.922
68402W        W27663  33.072  18.756  12.090
68403W        W27664   2.444  17.256  12.460
68404W        W27665  38.871  26.549  11.042
68405W        W27666  29.568  28.598  13.336
68406W        W27667   9.733  43.405   4.599
68407W        W27668  25.082  20.572   1.762
68408W        W27669   9.866  18.182   3.733
68409W        W27670   2.928  10.746  11.612
68410W        W27671   4.373   5.918   2.824
68411W        W27672   9.889  19.689  14.941
68412W        W27673   1.245  44.944  13.044
68413W        W27674  32.601  40.946   2.371
68414W        W27675  17.607  44.350   2.181
68415W        W27676  30.465   5.207   4.300
68416W        W27677  28.579  13.287  13.939
68417W        W27678  19.591  28.941   4.125
68418W        W27679  22.696  10.647   0.944
68419W        W27680  16.768  22.717  14.278
68420W        W27681  34.543  38.559   1.836
68421W        W27682   8.281   1.798  14.436
68422W        W27683  17.166   6.795  10.943
68423W        W27684   0.942   2.887  11.517
68424W        W27685  29.023  24.223   1.263
68425W        W27686   4.769  39.321   1.767
68426W        W27687  37.543   3.715  11.415
68427W        W27688   7.767  31.040  14.405
68428W        W27689  19.766  32.571  10.918
68429W        W27690  31.958   5.777  13.415
68430W        W27691  31.961   0.354  14.342
68431W        W27692   1.386  43.795  11.080
68432W        W27693  39.062  38.558   4.164
68433W        W27694   3.379  12.141  11.002
68434W        W27695   0.894  26.133   4.738
68435W        W27696   5.714  14.634   1.800
68436W        W27697  18.669  11.715   1.790
68437W        W27698  41.300   5.252  10.475
68438W        W27699  14.189  29.485  13.928
68439W        W27700  39.454  17.670   2.336
68440W        W27701   3.924  27.942   4.822
68441W        W27702  44.412  40.027  14.415
68442W        W27703   5.880  33.892  13.543
68443W        W27704  22.638   2.260  13.802
68444W        W27705  41.339  32.081   0.335
68445W        W27706   8.321   2.791  12.518
68446W        W27707   1.807  19.609  13.927
68447W        W27708  34.060  25.171   2.243
68448W        W27709  32.545  10.638  10.481
68449W        W27710  10.338  10.173  14.276
68450W        W27711  41.961  12.840  14.418
68451W        W27712  32.518   8.828   3.788
68452W        W27713   1.452  43.860  13.315
68453W        W27714   3.325   5.908   1.826
68454W        W27715   2.885  40.007   3.336
68455W        W27716   2.462  30.060   3.695
68456W        W27717   3.409  15.122   2.898
68457W        W27718  13.253  18.664  11.092
68458W        W27719  29.571  30.012  11.105
68459W        W27720  19.073  44.473   4.129
68460W        W27721  24.001  32.583  12.346
68461W        W27722  30.998  27.089   1.409
68462W        W27723  11.810  33.900   4.212
68463W        W27724  11.853  23.158  14.373
68464W        W27725  40.905   2.894   4.701
68465W        W27726  38.854  28.078   0.768
68466W        W27727   5.218  23.066  11.961
68467W        W27728   8.207  15.246  14.405
68468W        W27729  15.209   6.715  14.496
68469W        W27730  33.968  40.812  10.141
68470W        W27731   5.251  23.187   1.431
68471W        W27732  25.470  41.022  10.644
68472W        W27733  31.534  20.712  14.989
68473W        W27734  31.426   8.676   2.691
68474W        W27735   8.713  22.024   3.787
68475W        W27736  39.945   8.206   4.129
68476W        W27737  19.683  22.160  13.003
68477W        W27738  42.426  24.019   2.221
68478W        W27739   8.381   5.278  11.105
68479W        W27740  35.930   6.911  11.105
68480W        W27741   3.759  23.060   0.825
68481W        W27742  27.967  33.549   2.840
68482W        W27743  28.159  16.239  12.365
68483W        W27744  14.299   5.298   1.416
68484W        W27745   1.460  39.386  14.355
68485W        W27746  40.417  15.627  11.376
68486W        W27747  41.329  44.465   3.249
68487W        W27748  33.068  42.856  10.575
68488W        W27749  32.999   1.894  11.059
68489W        W27750   3.290  34.574   4.640
68490W        W27751   0.362   1.340   1.350
68491W        W27752  12.748   2.742  11.990
68492W        W27753  25.030   7.366   2.273
68493W        W27754  17.753  31.141   2.331
68494W        W27755  28.090  30.121  12.409
68495W        W27756  20.238  22.656  11.555
68496W        W27757   3.386  39.051   4.736
68497W        W27758   0.425  35.900  11.457
68498W        W27759  33.953  41.302   1.374
68499W        W27760   9.647  32.630   2.855
68500W        W27761  22.164  43.893   2.275
68501W        W27762  24.063  34.494   2.414
68502W        W27763  18.056  40.441  13.518
68503W        W27764   1.861  21.228  11.481
68504W        W27765  19.766  14.275  14.861
68505W        W27766  39.922   2.364   1.828
68506W        W27767  27.651   0.437  11.055
68507W        W27768  29.054   2.416  14.373
68508W        W27769  32.605  40.451  13.034
68509W        W27770  19.727  39.513  12.928
68510W        W27771  23.714  39.953   0.310
68511W        W27772  35.990  14.678   2.219
68512W        W27773   8.253   4.249   0.819
68513W        W27774   7.199  32.524   3.226
68514W        W27775  42.413  37.963  13.323
68515W        W27776   7.856  12.812   3.820
68516W        W27777   4.433  23.656  11.023
68517W        W27778  23.501  39.362   1.299
68518W        W27779  11.684  17.107   1.888
68519W        W27780  43.348  41.941   3.785
68520W        W27781  19.235   3.305  11.880
68521W        W27782  31.597  17.181  14.337
68522W        W27783  44.996  24.172   1.364
68523W        W27784  17.788  14.257   3.852
68524W        W27785  23.703  31.934  14.293
68525W        W27786  40.871   2.826  10.440
68526W        W27787   8.219  36.899   1.405
68527W        W27788   1.307   5.389   0.309
68528W        W27789  20.221   2.884   3.818
68529W        W27790  15.795  23.098  14.928
68530W        W27791  33.042  30.915   4.183
68531W        W27792  22.636  44.850   4.663
68532W        W27793  39.373  15.293   4.296
68533W        W27794  38.551  18.066  14.300
68534W        W27795  21.748  42.495   2.673
68535W        W27796  19.668  22.615   2.663
68536W        W27797   7.739  43.016   2.351
68537W        W27798  34.031   8.797  13.797
68538W        W27799  25.691  16.734   3.798
68539W        W27800  34.891  15.288   2.398
68540W        W27801  43.336  40.372   4.799
68541W        W27802  18.560  43.999  12.947
68542W        W27803  16.693  26.648  12.943
68543W        W27804  17.570  44.346   1.854
68544W        W27805  38.910   7.692  11.069
68545W        W27806  28.109   8.693   0.274
68546W        W27807   9.832  14.623   0.755
68547W        W27808  35.407   0.277   0.953
68548W        W27809  12.225  33.500   1.364
68549W        W27810  41.878  22.680  10.517
68550W        W27811  27.010  39.512   3.866
68551W        W27812  43.324  16.189  13.365
68552W        W27813   9.726  25.128  12.893
68553W        W27814  43.822  31.135  12.974
68554W        W27815  14.244  23.707   4.270
68555W        W27816  30.120  25.591  12.032
68556W        W27817  12.265  43.933  13.849
68557W        W27818  21.191   2.753   4.736
68558W        W27819   0.879  10.790   4.287
68559W        W27820   0.920  12.326   0.387
68560W        W27821   9.269   9.806  14.015
68561W        W27822  10.742   6.710  11.032
68562W        W27823   4.922  37.393   5.274
68563W        W27824  39.985   9.257   3.765
68564W        W27825  11.716  38.480  10.932
68565W        W27826  44.834  39.834  11.588
68566W        W27827   7.869  31.928  10.120
68567W        W27828  39.005  31.937   3.202
68568W        W27829  19.257  33.466  13.441
68569W        W27830  23.029  34.571  13.959
68570W        W27831   4.395  41.903  14.350
68571W        W27832  20.626  36.039  13.057
68572W        W27833  15.579   9.210  14.327
68573W        W27834  15.810  40.345  14.347
68574W        W27835  27.022  42.028   4.251
68575W        W27836  34.415  29.530  11.401
68576W        W27837  15.310  18.172   1.214
68577W        W27838   5.296  18.112   1.796
68578W        W27839  42.995  40.309  14.913
68579W        W27840  36.505  40.438  13.826
68580W        W27841  29.425  31.064  12.396
68581W        W27842   7.308   3.281   2.814
68582W        W27843  11.712  11.148  12.882
68583W        W27844  13.777  17.144  13.378
68584W        W27845  21.732  35.402  14.770
68585W        W27846  29.611  24.209  14.899
68586W        W27847  31.456  28.511   2.201
68587W        W27848  10.678   0.758   1.216
68588W        W27849  42.839  32.524   1.766
68589W        W27850  17.600  11.264  10.414
68590W        W27851  29.469  27.116   1.765
68591W        W27852  39.461  17.764   0.451
68592W        W27853  18.572  23.006   2.693
68593W        W27854  36.503  43.996  12.467
68594W        W27855  18.265  33.936  10.644
68595W        W27856  23.504  33.425   3.242
68596W        W27857  16.300  23.113  11.474
68597W        W27858   1.901  43.996  14.405
68598W        W27859   8.703  39.455   0.850
68599W        W27860  29.560   3.828  12.081
68600W        W27861   5.272  21.175   3.781
68601W        W27862   4.210  25.493  10.531
68602W        W27863  36.078  26.491   3.751
68603W        W27864   0.385  41.833   3.676
68604W        W27865  42.791  39.039   4.122
68605W        W27866  22.640   1.880  14.859
68606W        W27867  37.082  25.190   1.790
68607W        W27868   4.868  40.344  11.492
68608W        W27869  27.100  24.556   0.787
68609W        W27870  44.925  20.257   2.741
68610W        W27871  25.554  28.623   0.797
68611W        W27872  16.650  30.472  13.413
68612W        W27873  20.118  15.246  10.911
68613W        W27874  39.485  12.236  12.496
68614W        W27875  31.937  17.138   3.376
68615W        W27876   9.242  40.008   4.820
68616W        W27877  39.024  43.867   5.321
68617W        W27878   7.899  37.836  12.426
68618W        W27879  42.318   8.720  11.548
68619W        W27880   4.447  32.927  11.099
68620W        W27881  15.217  38.348   0.766
68621W        W27882  21.046  21.715   1.796
68622W        W27883  30.518  36.063   4.811
68623W        W27884  34.929  25.683  11.880
68624W        W27885  18.090   4.851   3.764
68625W        W27886  27.622  23.137   1.838
68626W        W27887   5.750  19.114   4.289
68627W        W27888  14.605  28.948   2.806
68628W        W27889  28.053  17.066  12.376
68629W        W27890   6.331  31.102   3.315
68630W        W27891  16.635  23.018  11.109
68631W        W27892  40.348   3.831   1.260
68632W        W27893  21.143  40.475  14.308
68633W        W27894  34.472  43.002  11.500
68634W        W27895  23.158  35.426   3.777
68635W        W27896  37.938  13.210   1.216
68636W        W27897  34.010   3.930  12.943
68637W        W27898   6.886  13.693   0.751
68638W        W27899  25.697   4.355  13.793
68639W        W27900  42.946  37.021  12.579
68640W        W27901  33.530  28.673   0.957
68641W        W27902  15.668   0.842  10.521
68642W        W27903  42.505  26.607  14.484
68643W        W27904  22.060  44.006  11.523
68644W        W27905  28.965  22.020   0.935
68645W        W27906  10.744  43.851   2.305
68646W        W27907  30.105  21.035   4.293
68647W        W27908  35.434  23.096  11.086
68648W        W27909  28.118  20.152   0.822
68649W        W27910   8.238   2.333   0.399
68650W        W27911  15.213  29.983  11.914
68651W        W27912  42.345  43.974   4.218
68652W        W27913  42.374   4.212   4.623
68653W        W27914   1.425  41.886   2.388
68654W        W27915  15.328  14.205  11.498
68655W        W27916  44.315   0.414  14.777
68656W        W27917  20.056   9.162  13.462
68657W        W27918   9.235  36.070  10.902
68658W        W27919  24.679  23.571  13.523
68659W        W27920  31.619  25.144  11.100
68660W        W27921   9.813  16.194  11.931
68661W        W27922  36.901  20.524  11.088
68662W        W27923  29.450  31.970   0.868
68663W        W27924  24.177   7.373   3.267
68664W        W27925  24.503   4.940  10.494
68665W        W27926  21.179  41.882  13.839
68666W        W27927  37.017  26.496  13.867
68667W        W27928  32.566  14.238   1.847
68668W        W27929  41.953  40.358  11.010
68669W        W27930   2.447  15.809  10.137
68670W        W27931  12.155  41.390  12.999
68671W        W27932  18.150  22.516  12.489
68672W        W27933   0.429  24.618  14.289
68673W        W27934  44.365  39.410   2.679
68674W        W27935  33.483   3.884   4.154
68675W        W27936  17.601  33.597   2.346
68676W        W27937  26.481  11.629  11.988
68677W        W27938  17.632   6.745   4.606
68678W        W27939  36.357   0.300   4.195
68679W        W27940   5.406  17.133   4.283
68680W        W27941   3.459   9.349   3.153
68681W        W27942  22.016  39.909   0.741
68682W        W27943  14.282  10.790   3.357
68683W        W27944  23.006  41.438   4.601
68684W        W27945   6.714   6.244  12.053
68685W        W27946  32.482  35.589  11.988
68686W        W27947  39.368   7.852  13.371
68687W        W27948   6.230  22.699   1.256
68688W        W27949   4.347  38.871  13.423
68689W        W27950  12.806  17.749  14.442
68690W        W27951  35.410  20.031  13.883
68691W        W27952   3.403  23.689   9.956
68692W        W27953   7.237  42.789  14.847
68693W        W27954  44.363  23.497   0.945
68694W        W27955  33.492  10.178   2.343
68695W        W27956   5.736  29.603   1.870
68696W        W27957  38.390  33.502  11.906
68697W        W27958   3.889  39.411   1.346
68698W        W27959  37.071  32.410  10.928
68699W        W27960   3.421  15.730  12.488
68700W        W27961   4.723   6.871   3.784
68701W        W27962   2.934  16.192   2.784
68702W        W27963  30.526  38.070   3.265
68703W        W27964  31.996   9.739  13.380
68704W        W27965  31.541   4.252  11.515
68705W        W27966  37.477   8.251  13.050
68706W        W27967  27.983  11.163  12.050
68707W        W27968  41.389  10.169   4.796
68708W        W27969  32.995  36.068  14.401
68709W        W27970   1.814   4.916   1.879
68710W        W27971   7.198  25.495   0.882
68711W        W27972   8.166   7.766   0.813
68712W        W27973   4.288  21.750   1.438
68713W        W27974   1.869  37.404  12.858
68714W        W27975  34.425  17.245  14.869
68715W        W27976  21.043  11.773   2.798
68716W        W27977  20.523  31.419  13.917
68717W        W27978   0.397   3.279  12.414
68718W        W27979  42.801  38.359  13.878
68719W        W27980   1.935  16.123  14.872
68720W        W27981  11.662   0.906  13.990
68721W        W27982   6.758   0.422  12.830
68722W        W27983  10.166  38.422  11.036
68723W        W27984  36.510   2.226   0.881
68724W        W27985  32.395  26.654  11.116
68725W        W27986  13.183  38.394  13.830
68726W        W27987  14.307   1.377   2.706
68727W        W27988  38.904  34.065   5.139
68728W        W27989   5.761  18.744  13.910
68729W        W27990  12.125  39.556  14.982
68730W        W27991  40.941   3.715   4.158
68731W        W27992  17.307   8.699   0.920
68732W        W27993  43.888  37.046  11.541
68733W        W27994   9.237   8.831   2.788
68734W        W27995  26.550  20.088   3.171
68735W        W27996  24.193   2.363   4.343
68736W        W27997  13.122  44.904   3.165
68737W        W27998  12.775  35.563   0.778
68738W        W27999   9.724  16.606  12.043
68739W        W28000  20.539  43.347  12.901
68740W        W28001  11.719   0.398   0.895
68741W        W28002  21.582  13.259   3.282
68742W        W28003  18.182   4.375  11.035
68743W        W28004   1.738  13.232  11.438
68744W        W28005  11.670  22.642   2.256
68745W        W28006  29.129   4.851   0.275
68746W        W28007  42.789  26.043   3.832
68747W        W28008  36.087   6.407   2.814
68748W        W28009  19.685  38.509   1.773
68749W        W28010  34.559  18.735   2.393
68750W        W28011  30.547  12.719  14.931
68751W        W28012  29.025  37.992  14.764
68752W        W28013  30.571  33.537   5.172
68753W        W28014   5.807  35.980  13.365
68754W        W28015  41.328   2.910  13.048
68755W        W28016  13.261  44.904  13.807
68756W        W28017   3.924  34.087  11.529
68757W        W28018  42.458  42.957  12.530
68758W        W28019  42.810  25.174   2.804
68759W        W28020  42.301   9.699   0.867
68760W        W28021  31.027  38.884  13.356
68761W        W28022  13.177  25.654  14.770
68762W        W28023  30.518  21.729   1.896
68763W        W28024  39.429   6.859  13.434
68764W        W28025  17.271  40.982  13.969
68765W        W28026  44.923  41.356   3.380
68766W        W28027  30.501  14.758   9.955
68767W        W28028  32.099  14.202  14.380
68768W        W28029  19.765  34.098   4.638
68769W        W28030   7.713  17.220   4.623
68770W        W28031  38.329  37.042   3.371
68771W        W28032  34.112  11.349  13.489
68772W        W28033  17.660  15.581   1.424
68773W        W28034  34.895  43.453   1.867
68774W        W28035   6.901  22.606  10.495
68775W        W28036  23.736  12.280  13.924
68776W        W28037  31.440   8.704  14.939
68777W        W28038   9.318  26.073  14.795
68778W        W28039  34.919  32.970   1.432
68779W        W28040  10.143  35.968   5.183
68780W        W28041  25.181   3.354   3.322
68781W        W28042  20.214   0.943   0.463
68782W        W28043  18.684  16.686   1.752
68783W        W28044  17.281  15.650   0.752
68784W        W28045  10.249  20.635  10.526
68785W        W28046  28.662   7.700   3.664
68786W        W28047  13.684  12.730  11.570
68787W        W28048  18.152  13.116  14.967
68788W        W28049   3.316  38.352   2.822
68789W        W28050  36.527  37.578   1.732
68790W        W28051  31.982   3.834   5.254
68791W        W28052  27.106  25.058   2.357
68792W        W28053   2.277   7.313   1.885
68793W        W28054  24.166  37.394   0.338
68794W        W28055   9.815  32.079  12.363
68795W        W28056  28.950  13.251  13.358
68796W        W28057   8.261   0.829   4.693
68797W        W28058   3.739  34.923   4.727
68798W        W28059  36.534  22.625  10.521
68799W        W28060   4.384  25.517  10.951
68800W        W28061  32.531  22.224   1.723
68801W        W28062   7.276   4.414   3.826
68802W        W28063   1.854  40.978   0.312
68803W        W28064  30.007  27.569   1.796
68804W        W28065  13.619  23.190   1.396
68805W        W28066  12.257  22.182   4.658
68806W        W28067  39.905  42.468  12.490
68807W        W28068  11.284  20.220   1.853
68808W        W28069  10.217  20.193  10.945
68809W        W28070  18.715  22.125   2.358
68810W        W28071  23.009  29.963  13.370
68811W        W28072   1.812  11.801   5.133
68812W        W28073  23.694  35.885   4.625
68813W        W28074  31.462  34.914   0.393
68814W        W28075  20.534  37.955   2.787
68815W        W28076  11.823  12.641  12.867
68816W        W28077   2.385  30.086   0.829
68817W        W28078  35.073  44.888   5.605
68818W        W28079   8.305  20.651   4.713
68819W        W28080   5.722  19.689   3.169
68820W        W28081  43.944   4.274   4.306
68821W        W28082  18.729  13.674   1.411
68822W        W28083   0.817  30.652   2.779
68823W        W28084   7.792  21.515   2.361
68824W        W28085   5.733  31.046  10.494
68825W        W28086   3.447  15.608  12.070
68826W        W28087  25.573  42.000  11.570
68827W        W28088  30.977  31.967   2.691
68828W        W28089  22.133  20.687   1.829
68829W        W28090  42.421  22.144   0.382
68830W        W28091   4.333   5.333  12.535
68831W        W28092   3.343   9.749  13.012
68832W        W28093  19.763  31.563  13.396
68833W        W28094  12.808  43.823  13.964
68834W        W28095  30.927  23.027   4.328
68835W        W28096  21.237  28.441   9.965
68836W        W28097  31.032  44.770  12.910
68837W        W28098  15.722  21.231   4.770
68838W        W28099  17.634  41.469  11.483
68839W        W28100  12.622  16.108  13.370
68840W        W28101  22.600  14.720   1.409
68841W        W28102  42.876  32.577   4.120
68842W        W28103  15.235  34.033  13.938
68843W        W28104   6.805  28.577  10.427
68844W        W28105   6.280  17.078  13.047
68845W        W28106  26.997  17.689  14.974
68846W        W28107  18.701   5.316  10.969
68847W        W28108  33.440  29.605  14.514
68848W        W28109   9.237  29.524  10.900
68849W        W28110  30.083  29.122  14.997
68850W        W28111   4.341  20.229  14.317
68851W        W28112  13.840   0.464  11.440
68852W        W28113  42.357   1.409  14.503
68853W        W28114  27.982  28.514   0.749
68854W        W28115  35.402  24.499   3.871
68855W        W28116  30.967  29.507   1.301
68856W        W28117  28.037  30.029   4.232
68857W        W28118  22.075  38.474  12.445
68858W        W28119   0.449   6.312  13.930
68859W        W28120  26.520  21.590   4.740
68860W        W28121  38.908  19.576   0.458
68861W        W28122   1.425  35.101   0.484
68862W        W28123  39.547  37.045   0.266
68863W        W28124   4.825  21.542   5.245
68864W        W28125  41.996  24.719   4.643
68865W        W28126  41.951  39.967  11.861
68866W        W28127  20.768  41.412  10.530
68867W        W28128  18.568  37.999  10.510
68868W        W28129   6.699   2.467   1.256
68869W        W28130  18.571   9.770   1.929
68870W        W28131  17.754   3.880  11.079
68871W        W28132  21.249  16.680  12.947
68872W        W28133   0.387  43.790   3.194
68873W        W28134  29.576  28.467   1.437
68874W        W28135  18.715  36.591  14.383
68875W        W28136  28.121  14.166  11.564
68876W        W28137  10.687  16.644  11.074
68877W        W28138   2.277   1.764  14.779
68878W        W28139  36.093  33.009  12.515
68879W        W28140  32.538  37.856   0.363
68880W        W28141  25.489  40.955   3.687
68881W        W28142  26.136  11.636   0.414
68882W        W28143  42.466  15.084  14.896
68883W        W28144   4.372  10.767   4.161
68884W        W28145  18.788  41.933  14.936
68885W        W28146  36.904   6.865  10.996
68886W        W28147  26.062  16.694  13.897
68887W        W28148  39.391  19.624  14.964
68888W        W28149   9.312  22.649   1.854
68889W        W28150  37.891  37.997   1.220
68890W        W28151  44.499  19.714   3.246
68891W        W28152  41.852  35.453  12.896
68892W        W28153   5.785  37.500  14.858
68893W        W28154  41.348  37.473  13.418
68894W        W28155  17.173  24.034  11.549
68895W        W28156  14.730  25.518   2.235
68896W        W28157  29.932  28.984  14.471
68897W        W28158  21.557  36.873   0.383
68898W        W28159   4.336   6.219   4.166
68899W        W28160  44.857  42.450  11.435
68900W        W28161  18.640  25.653  12.513
68901W        W28162   1.452  41.308   1.877
68902W        W28163  30.138   8.816   0.892
68903W        W28164   4.396  21.261   1.342
68904W        W28165   8.657  42.834   4.213
68905W        W28166  30.042  39.059  13.022
68906W        W28167  42.330   4.900  13.863
68907W        W28168   8.365   4.294   4.624
68908W        W28169  20.073  13.286  11.982
68909W        W28170  44.979  25.180   4.219
68910W        W28171  28.629  16.768  11.525
68911W        W28172  15.578   5.693  14.475
68912W        W28173   9.772  42.519   0.260
68913W        W28174  15.285  15.708   1.384
68914W        W28175   7.311  39.959   3.228
68915W        W28176   2.790  24.165  13.349
68916W        W28177  11.811   3.379  12.891
68917W        W28178   7.294  15.163  13.455
68918W        W28179   5.256  21.541  11.855
68919W        W28180   6.399   4.212  12.852
68920W        W28181  42.345  22.586  13.417
68921W        W28182  27.470  33.058   5.729
68922W        W28183  31.901  17.768   1.384
68923W        W28184  21.081  14.795   1.772
68924W        W28185  24.580   3.713   0.379
68925W        W28186   2.866  35.998  12.557
68926W        W28187   0.389  41.797   4.152
68927W        W28188  27.945  34.904   3.168
68928W        W28189  10.874  13.641   0.915
68929W        W28190  40.974   1.316   4.221
68930W        W28191   8.349  35.026  10.413
68931W        W28192  40.382  37.894   0.264
68932W        W28193  38.329  37.404   1.333
68933W        W28194  15.611  25.149   3.255
68934W        W28195  10.232  32.005  11.534
68935W        W28196  21.076  37.833   3.377
68936W        W28197  44.467  41.957   0.968
68937W        W28198   2.763   6.867  13.044
68938W        W28199  16.249  31.587  12.427
68939W        W28200  43.334  29.933  13.943
68940W        W28201  36.937  44.931   0.955
68941W        W28202   2.274  15.269   1.318
68942W        W28203  25.540  41.829   4.725
68943W        W28204   9.881   3.279  14.387
68944W        W28205  34.891   7.703  12.368
68945W        W28206   7.374  33.504   3.168
68946W        W28207  29.994   8.809   3.157
68947W        W28208  20.531  33.069  13.371
68948W        W28209  13.138  41.443   3.266
68949W        W28210  22.149  25.578  11.996
68950W        W28211   5.414  12.806  12.943
68951W        W28212  16.632   2.364   0.866
68952W        W28213  42.282  17.159  12.395
68953W        W28214  19.136  18.203  13.548
68954W        W28215  27.082  18.161   0.256
68955W        W28216   5.783   7.350   2.787
68956W        W28217  39.357  37.885   0.836
68957W        W28218   6.204   3.800   3.272
68958W        W28219  36.028   3.860  11.380
68959W        W28220   5.232  29.045  10.951
68960W        W28221  11.286  29.527   0.274
68961W        W28222   7.749   6.300  12.530
68962W        W28223  23.020  30.025  12.444
68963W        W28224   2.782  27.464   3.676
68964W        W28225  44.315  21.621  13.422
68965W        W28226  30.639  39.901   2.184
68966W        W28227  31.144   0.282  13.433
68967W        W28228  13.304  34.947   3.719
68968W        W28229  42.807  30.000   2.861
68969W        W28230  19.080   9.284   4.336
68970W        W28231  40.527  37.462   0.959
68971W        W28232   5.879  29.085   3.270
68972W        W28233  40.395   7.319   3.382
68973W        W28234  40.512  20.704   3.217
68974W        W28235  11.795  25.014  10.602
68975W        W28236  29.979  22.542   2.706
68976W        W28237  20.038  13.709   4.198
68977W        W28238  38.823   4.331   0.779
68978W        W28239  31.534  14.764   3.180
68979W        W28240   1.254  18.267  14.820
68980W        W28241  43.789  31.914  12.069
68981W        W28242  43.338  31.645  12.482
68982W        W28243  11.765  39.502   1.324
68983W        W28244  43.828   1.400  14.484
68984W        W28245  14.800  21.665  14.998
68985W        W28246  19.145   7.232  12.016
68986W        W28247   7.398  21.531  11.467
68987W        W28248  40.536  16.747   0.884
68988W        W28249  36.862   5.726  11.529
68989W        W28250  30.930  14.721   4.310
68990W        W28251  24.582  19.059   2.186
68991W        W28252  36.382  24.637  14.513
68992W        W28253  15.323  34.440  11.046
68993W        W28254  36.463  44.864  11.862
68994W        W28255  36.035  36.494   5.695
68995W        W28256   8.199   3.721  12.968
68996W        W28257  40.965  41.373  13.795
68997W        W28258  33.958  14.814   0.283
68998W        W28259  24.092   3.838  10.415
68999W        W28260  12.657  16.775  10.912
69000W        W28261  30.934   3.368   9.926
69001W        W28262  14.320  22.679   0.815
69002W        W28263  33.470   4.912   0.770
69003W        W28264  37.388  26.564   1.390
69004W        W28265  33.001   9.726   2.746
69005W        W28266  23.627  28.589   3.251
69006W        W28267  44.375  40.354  12.924
69007W        W28268  39.937   6.266   1.420
69008W        W28269  25.667   5.337   0.390
69009W        W28270  15.327   4.777   1.880
69010W        W28271  39.815  39.428  13.972
69011W        W28272  12.729  16.106   3.647
69012W        W28273  22.571  20.124   3.347
69013W        W28274  16.099   9.160  14.805
69014W        W28275  24.621  18.227   1.835
69015W        W28276  19.570  16.295  12.438
69016W        W28277  14.782  42.510  10.981
69017W        W28278   1.748  32.559  14.010
69018W        W28279   5.842   3.255  11.955
69019W        W28280  35.432  24.490  13.319
69020W        W28281  13.291  10.380  13.888
69021W        W28282  18.235  19.253   1.245
69022W        W28283   2.403  17.100  12.853
69023W        W28284  39.948   4.368  12.845
69024W        W28285  10.639  29.937  12.872
69025W        W28286  25.529  17.165  12.467
69026W        W28287  20.580   0.823   1.818
69027W        W28288   9.292  23.174   2.392
69028W        W28289  31.976  28.644   0.735
69029W        W28290  11.855  17.790   5.634
69030W        W28291  44.381  20.670  10.092
69031W        W28292  36.947   1.244   0.457
69032W        W28293  16.770  19.177  10.524
69033W        W28294  12.780  26.956   1.934
69034W        W28295  36.953   5.821  12.865
69035W        W28296  20.699  38.054   4.255
69036W        W28297  26.557  28.000   2.870
69037W        W28298  20.122  16.312   3.240
69038W        W28299  31.630  22.540   3.768
69039W        W28300  11.285  32.063   0.402
69040W        W28301   9.349   9.190   0.434
69041W        W28302  12.848  42.502  11.115
69042W        W28303   1.751  13.268  11.887
69043W        W28304  13.336   7.260  11.998
69044W        W28305  42.482  31.946  13.401
69045W        W28306  24.636  36.508   0.314
69046W        W28307  32.446  34.415  12.521
69047W        W28308   3.290  16.711   3.718
69048W        W28309  38.443  37.885  10.580
69049W        W28310   9.161   0.761  12.882
69050W        W28311  31.608   9.298  10.454
69051W        W28312  37.499  35.484   3.344
69052W        W28313   9.289   9.842   1.319
69053W        W28314   9.265  29.955   3.718
69054W        W28315  24.661  31.927  14.400
69055W        W28316  36.007   8.232   0.749
69056W        W28317  40.869  27.486  11.882
69057W        W28318  22.537  39.390  12.551
69058W        W28319   3.260  19.279   4.659
69059W        W28320  14.624  13.604  13.041
69060W        W28321  41.362  19.594   0.331
69061W        W28322  15.083  43.304  12.487
69062W        W28323   5.235  32.593   2.414
69063W        W28324  10.184  28.487  13.816
69064W        W28325  13.112  17.183  14.335
69065W        W28326  24.020  32.936  10.964
69066W        W28327  20.653   6.794  11.490
69067W        W28328   7.855  36.912   1.226
69068W        W28329  23.054   7.360  10.925
69069W        W28330  42.968  27.643   1.313
69070W        W28331  27.120  17.187   1.378
69071W        W28332  39.835   2.376   1.305
69072W        W28333  25.518  21.119   3.364
69073W        W28334   5.220  30.653   3.345
69074W        W28335   1.471  22.531   0.468
69075W        W28336  44.321  43.893   1.280
69076W        W28337  41.531  33.411   2.204
69077W        W28338  12.161   8.394   1.231
69078W        W28339   6.905  17.670   0.879
69079W        W28340   4.333  24.503   4.719
69080W        W28341  18.257   7.216   4.124
69081W        W28342  37.882   9.681  10.459
69082W        W28343  32.095  35.546  11.484
69083W        W28344  34.046  34.555  14.423
69084W        W28345  21.022  16.313   0.791
69085W        W28346   2.325  38.479  10.592
69086W        W28347  24.082  44.813  13.972
69087W        W28348  19.665  35.041  11.113
69088W        W28349  22.620  29.171   1.859
69089W        W28350  40.403   8.693   4.600
69090W        W28351   7.346  36.389  13.511
69091W        W28352   5.863  21.037  12.360
69092W        W28353  13.196  43.903  14.461
69093W        W28354  44.979  22.126  14.295
69094W        W28355  23.073   2.353   0.766
69095W        W28356  28.980  21.071   2.902
69096W        W28357  12.267  31.997   4.728
69097W        W28358   1.780  32.578  12.530
69098W        W28359  15.290   2.376  13.998
69099W        W28360  30.049  23.685   3.751
69100W        W28361  29.964  41.374  10.548
69101W        W28362  25.476  42.914   1.243
69102W        W28363   9.267   6.303   1.378
69103W        W28364  38.923  41.033   0.733
69104W        W28365   5.339  30.126  13.439
69105W        W28366  40.387  26.125   3.228
69106W        W28367  16.264  34.072   3.675
69107W        W28368   9.195  42.426   0.359
69108W        W28369  20.645  18.719   1.213
69109W        W28370  21.713  38.893   1.408
69110W        W28371  42.440  43.389  11.509
69111W        W28372  20.592  11.294   1.388
69112W        W28373  15.660  24.713  13.950
69113W        W28374  26.576   7.763  10.916
69114W        W28375   3.238  33.893   0.938
69115W        W28376  30.080  13.738  10.921
69116W        W28377  38.947  39.548   1.736
69117W        W28378  13.203  26.994  13.966
69118W        W28379  43.506  20.579  13.404
69119W        W28380  36.452  30.102   1.933
69120W        W28381  24.581  13.719  12.858
69121W        W28382  32.606   5.831   1.747
69122W        W28383  15.651  18.636  12.898
69123W        W28384  37.867  16.131  12.463
69124W        W28385  39.059  23.619  10.645
69125W        W28386  18.783  34.900   4.334
69126W        W28387  12.758  35.107   3.635
69127W        W28388  18.688  28.598  13.386
69128W        W28389   0.422  25.668  12.879
69129W        W28390   0.751  15.639   2.296
69130W        W28391  22.568   7.331   1.436
69131W        W28392  21.751  24.082   3.768
69132W        W28393   8.390  43.957  13.828
69133W        W28394  21.241  26.016   1.247
69134W        W28395  17.149  14.833  11.052
69135W        W28396  40.943  22.537   4.716
69136W        W28397  11.307  33.568   3.747
69137W        W28398  29.492   2.766  13.484
69138W        W28399  18.162  36.906  13.353
69139W        W28400  19.216  33.107   4.823
69140W        W28401  31.941  22.589   4.336
69141W        W28402  25.639  39.982  10.929
69142W        W28403  32.121  31.896  13.375
69143W        W28404  37.501  16.152  12.994
69144W        W28405  40.516  13.816  12.364
69145W        W28406  25.510  13.762   3.286
69146W        W28407  26.070  31.518  11.517
69147W        W28408  14.325  35.399  11.973
69148W        W28409  10.312   5.369   1.427
69149W        W28410  16.658  16.618  11.010
69150W        W28411  15.580  37.907  14.019
69151W        W28412  42.017   7.229  10.900
69152W        W28413  41.463  29.526  12.485
69153W        W28414  13.216   1.313   5.252
69154W        W28415  41.397  10.718  13.355
69155W        W28416  26.096  31.637  13.388
69156W        W28417  24.577   2.878   4.721
69157W        W28418  18.271  23.987   3.762
69158W        W28419  14.693   9.384   2.862
69159W        W28420  16.145  38.552   4.346
69160W        W28421   6.794  33.058   3.748
69161W        W28422   6.789  30.606   3.297
69162W        W28423  28.436  40.040  11.503
69163W        W28424   9.848  43.472   3.658
69164W        W28425  29.549  16.642  10.444
69165W        W28426   6.254  35.483   2.293
69166W        W28427  38.009   0.441  10.099
69167W        W28428  34.083  20.084  11.462
69168W        W28429  37.944  35.378   0.733
69169W        W28430  25.548  28.163  11.456
69170W        W28431   6.349   1.316  12.477
69171W        W28432  35.447  21.532  10.445
69172W        W28433  38.935  42.417   4.829
69173W        W28434   8.289  31.991   3.157
69174W        W28435  35.871  24.087  11.906
69175W        W28436  20.150  31.558  14.467
69176W        W28437  34.530   0.874  10.931
69177W        W28438  16.627  14.189  13.048
69178W        W28439  16.746  32.889   4.188
69179W        W28440  41.473  42.783  10.620
69180W        W28441  29.669  15.619   2.417
69181W        W28442  24.510  29.082  11.553
69182W        W28443   8.279   6.403  14.022
69183W        W28444  29.927  26.147  12.054
69184W        W28445  21.624  15.178  13.803
69185W        W28446  39.343  25.982   2.181
69186W        W28447  24.562  39.324  10.484
69187W        W28448   5.800   5.917  10.928
69188W        W28449   4.760  43.774  12.994
69189W        W28450   5.783   0.888   2.264
69190W        W28451   7.173  24.075   4.734
69191W        W28452  32.042  19.779   3.782
69192W        W28453   3.237  36.537  14.442
69193W        W28454  27.561  18.688  11.402
69194W        W28455  25.682   6.683  11.535
69195W        W28456  15.146  38.494   2.278
69196W        W28457   1.816  27.657  13.821
69197W        W28458  30.974   7.732  14.312
69198W        W28459  21.596  41.880   4.292
69199W        W28460  39.995  20.709  13.422
69200W        W28461  12.652  23.699  14.952
69201W        W28462  16.159  40.378  10.425
69202W        W28463  24.544  39.473   0.380
69203W        W28464  17.697   0.389   2.807
69204W        W28465  39.837  41.954  11.571
69205W        W28466  23.532  39.951   2.783
69206W        W28467  24.577  26.052  10.557
69207W        W28468   8.742  14.804  11.486
69208W        W28469  14.792  43.001   1.723
69209W        W28470  35.570  23.692  14.998
69210W        W28471   9.149  39.815  14.778
69211W        W28472  39.881  10.336  12.843
69212W        W28473  19.538  31.458   4.255
69213W        W28474   0.307  35.599  13.372
69214W        W28475   4.920  40.926   4.783
69215W        W28476  42.349  32.041  13.845
69216W        W28477  14.330   1.907  12.531
69217W        W28478   0.444  30.979  13.471
69218W        W28479  30.953  30.064  13.859
69219W        W28480  36.410  27.140  11.483
69220W        W28481  43.332  28.947  13.496
69221W        W28482   3.731  38.509  14.886
69222W        W28483  28.092   1.908  10.531
69223W        W28484  39.893  43.414  12.449
69224W        W28485   5.694   7.875   2.331
69225W        W28486  15.257  38.359  11.570
69226W        W28487   1.461   7.303   2.194
69227W        W28488  17.697  17.175   4.696
69228W        W28489  14.768  22.572  11.381
69229W        W28490   6.374   7.235  10.024
69230W        W28491  12.148   9.270   3.843
69231W        W28492   6.905  22.504   1.384
69232W        W28493   4.281   2.410  12.004
69233W        W28494   4.818  22.672  14.856
69234W        W28495  41.369  30.010   4.838
69235W        W28496   9.728   5.846  13.419
69236W        W28497  25.015   9.648   4.647
69237W        W28498   3.755  26.480   3.367
69238W        W28499   4.238   5.731  14.372
69239W        W28500   9.302   5.864   1.422
69240W        W28501  40.371  10.356   3.761
69241W        W28502  10.145  16.281  14.309
69242W        W28503  41.901  22.609  11.962
69243W        W28504   3.803  28.444  12.534
69244W        W28505  24.175  26.498  14.851
69245W        W28506  16.127  35.863   4.672
69246W        W28507  40.431   0.317   0.443
69247W        W28508  22.739  17.709  11.892
69248W        W28509   4.399  17.144  11.602
69249W        W28510  28.149  28.131   0.779
69250W        W28511   9.202  24.604   0.846
69251W        W28512  12.811  11.202  12.066
69252W        W28513  23.116   2.879  11.093
69253W        W28514  34.057   9.651   0.319
69254W        W28515  26.172  14.095  13.838
69255W        W28516  34.925  15.708   4.132
69256W        W28517  44.919  20.653  11.117
69257W        W28518  21.054   6.255   2.691
69258W        W28519  14.690  25.154  11.088
69259W        W28520  32.941  20.699   2.704
69260W        W28521   9.696   1.805   2.352
69261W        W28522  19.270  12.129  10.452
69262W        W28523  38.989  24.098   0.295
69263W        W28524  23.046   9.866  14.952
69264W        W28525  26.506  30.912   3.311
69265W        W28526  17.264  38.959  11.966
69266W        W28527   6.323  34.524  13.968
69267W        W28528  19.672  40.304  14.474
69268W        W28529  44.495  44.451   1.333
69269W        W28530  16.122  14.134   4.792
69270W        W28531  41.978  27.073   3.801
69271W        W28532  32.095  24.482   1.384
69272W        W28533  28.636  13.661  10.582
69273W        W28534  33.046  14.110   9.959
69274W        W28535  41.004   1.869   3.357
69275W        W28536  38.992  18.179   4.735
69276W        W28537  23.109   2.736  11.857
69277W        W28538  33.964   0.745  10.960
69278W        W28539  28.656   6.856  11.939
69279W        W28540  25.061  42.002   0.462
69280W        W28541  30.645  13.348  14.365
69281W        W28542  39.536  16.659  13.941
69282W        W28543  20.702  15.678   3.735
69283W        W28544  28.990  28.073  10.972
69284W        W28545   8.859  25.004  14.320
69285W        W28546   2.366  10.775  10.465
69286W        W28547  36.099  31.963  12.427
69287W        W28548   8.745  28.163   2.297
69288W        W28549  20.729  35.034   3.853
69289W        W28550  13.755  35.370   0.766
69290W        W28551  26.091  19.676  11.593
69291W        W28552  20.244  23.191   2.366
69292W        W28553  33.983  27.584   4.227
69293W        W28554  30.913  23.585  10.924
69294W        W28555  42.871   1.273  11.017
69295W        W28556  35.109  21.554   3.785
69296W        W28557   6.267  18.766  11.937
69297W        W28558  14.812  21.165   0.446
69298W        W28559  36.583  16.612   0.406
69299W        W28560  15.595  20.534   4.120
69300W        W28561  38.541   1.426   2.253
69301W        W28562  29.541  13.224  10.955
69302W        W28563  39.896  14.194   4.175
69303W        W28564  18.721  25.585   0.426
69304W        W28565  14.180  12.306   3.696
69305W        W28566  14.145   4.414   0.814
69306W        W28567  15.083  12.738  13.516
69307W        W28568  42.414  43.970  14.016
69308W        W28569  30.918  19.258   2.724
69309W        W28570  29.100  29.946  12.479
69310W        W28571  43.411  31.122  11.398
69311W        W28572  34.459  24.146   4.211
69312W        W28573  40.525  23.717   0.850
69313W        W28574  43.482  37.356  10.082
69314W        W28575  14.677  22.145  11.424
69315W        W28576   7.820  41.294  12.902
69316W        W28577  39.348  15.741  12.007
69317W        W28578  20.056  20.610   0.392
69318W        W28579  33.426  26.538   2.692
69319W        W28580  34.576  13.179   3.705
69320W        W28581   6.366  18.161   1.846
69321W        W28582  44.479  41.983   2.293
69322W        W28583   9.169  35.914   3.822
69323W        W28584   6.397  11.308   1.255
69324W        W28585  42.306  21.565  11.045
69325W        W28586  41.302  27.598  14.411
69326W        W28587  28.563  31.045  11.436
69327W        W28588   5.219  28.040  12.884
69328W        W28589  15.148  11.281  14.013
69329W        W28590  44.897  39.869   0.264
69330W        W28591  36.069  38.425   4.214
69331W        W28592  14.252  18.621   1.917
69332W        W28593  33.983  23.080  10.496
69333W        W28594   1.468  36.847  12.933
69334W        W28595  21.667  27.626   1.340
69335W        W28596  18.704  17.151   4.601
69336W        W28597  26.571  35.883   1.212
69337W        W28598  33.876  17.596   0.261
69338W        W28599  43.955  37.996  12.929
69339W        W28600   4.823  37.973   1.372
69340W        W28601   5.755  26.609  12.543
69341W        W28602  39.927  19.228   4.768
69342W        W28603  40.837  44.318   4.773
69343W        W28604   9.747  40.437   0.473
69344W        W28605  33.967  15.174   3.210
69345W        W28606  27.174  42.897  12.026
69346W        W28607   9.250   4.340  11.033
69347W        W28608   0.266  19.257   4.134
69348W        W28609   4.291  26.604   1.406
69349W        W28610  26.678  29.929   3.329
69350W        W28611   4.896  42.306   9.955
69351W        W28612  15.580  31.059   3.204
69352W        W28613  31.035   9.341  12.847
69353W        W28614  14.759  20.079  10.530
69354W        W28615  40.043  42.014   0.337
69355W        W28616   8.253  20.730  12.447
69356W        W28617  29.469   0.394  12.566
69357W        W28618  38.326  19.139  14.938
69358W        W28619  43.345   8.749  12.511
69359W        W28620  42.848  12.172  11.438
69360W        W28621  14.303  23.525  12.944
69361W        W28622  11.243  37.394  14.295
69362W        W28623  42.846   7.668  14.277
69363W        W28624   0.453  43.505   2.669
69364W        W28625  12.847  39.877   0.789
69365W        W28626  33.071   1.890   1.366
69366W        W28627  18.651  25.672   1.783
69367W        W28628  36.359  28.995  12.541
69368W        W28629  19.683  34.999   4.229
69369W        W28630  32.569   0.381   1.861
69370W        W28631   5.902  44.757   3.371
69371W        W28632   0.442   9.755   2.739
69372W        W28633  25.486  28.661   1.352
69373W        W28634  20.638   4.370   2.182
69374W        W28635  40.303  42.886  10.905
69375W        W28636  21.598  36.958  11.995
69376W        W28637  29.643  11.292   9.995
69377W        W28638  17.091   2.839  12.031
69378W        W28639  41.981   9.745  14.411
69379W        W28640  34.457  28.081  11.123
69380W        W28641  29.116  20.240   0.250
69381W        W28642  17.164  16.569   0.967
69382W        W28643  40.453  44.774  13.526
69383W        W28644  35.853  40.798  10.555
69384W        W28645  19.761  13.125  14.362
69385W        W28646  18.588  32.590  11.402
69386W        W28647   2.248   0.440   4.240
69387W        W28648  36.903  11.165   2.852
69388W        W28649  30.654   5.242   1.834
69389W        W28650  21.626  44.856   3.344
69390W        W28651  20.206  29.431   1.820
69391W        W28652  36.941  11.802   2.259
69392W        W28653  38.479   2.258  13.831
69393W        W28654  18.772   4.286   1.259
69394W        W28655  42.918  12.216   3.756
69395W        W28656  29.648  28.031   2.248
69396W        W28657  10.634  30.085  13.340
69397W        W28658  12.204  28.068   4.142
69398W        W28659  30.559  22.014   4.215
69399W        W28660  43.459  14.207  11.891
69400W        W28661  37.374  36.845   1.775
69401W        W28662  11.164  39.990  11.039
69402W        W28663  27.036  10.180   3.778
69403W        W28664   4.752  38.845  11.064
69404W        W28665   6.358  16.805   2.892
69405W        W28666   7.287  15.626   2.366
69406W        W28667  27.670  32.392   1.422
69407W        W28668   4.869   8.855  13.344
69408W        W28669  35.873  15.156   3.702
69409W        W28670  20.650  36.882   4.752
69410W        W28671  15.180  22.249   4.230
69411W        W28672  24.529  11.647   1.414
69412W        W28673  21.577  16.243   3.334
69413W        W28674  18.553  27.137   1.409
69414W        W28675  16.107  21.525   3.740
69415W        W28676  13.121  29.462   4.754
69416W        W28677  20.549  11.245  14.006
69417W        W28678  36.959  26.644   4.658
69418W        W28679  35.031  23.696   4.792
69419W        W28680   0.811  13.781  13.003
69420W        W28681  20.602  23.176  11.401
69421W        W28682  24.508  16.788  11.966
69422W        W28683  16.086   9.248  14.461
69423W        W28684   0.377  32.082  11.051
69424W        W28685  17.096  30.964  13.975
69425W        W28686  26.682  27.689  12.891
69426W        W28687  37.904  39.877  14.395
69427W        W28688  15.279  37.924   2.193
69428W        W28689  42.852  26.090   2.359
69429W        W28690  22.109  13.769  10.621
69430W        W28691   3.709  26.113   2.831
69431W        W28692  27.080  16.292   0.344
69432W        W28693  40.313   7.704  11.405
69433W        W28694  36.003  39.813   1.702
69434W        W28695  38.368  36.855  12.896
69435W        W28696   9.296   2.333  13.027
69436W        W28697  10.190  41.009  14.318
69437W        W28698  37.041  19.564  14.332
69438W        W28699  27.564   1.819  11.575
69439W        W28700  39.425  26.664  11.407
69440W        W28701  24.225  35.397   4.835
69441W        W28702  41.417  10.302  12.357
69442W        W28703  43.889  26.628  13.546
69443W        W28704  18.207   4.721  13.511
69444W        W28705  25.057  40.936  10.597
69445W        W28706  44.911  15.109   0.462
69446W        W28707   5.421  17.179   0.257
69447W        W28708  14.205  19.612   2.217
69448W        W28709  29.127  11.178  13.363
69449W        W28710  17.653  33.942  11.467
69450W        W28711  42.900  42.976  14.391
69451W        W28712  40.394  16.154  11.558
69452W        W28713  43.427  11.829  11.985
69453W        W28714   6.841  44.886   2.899
69454W        W28715  25.193  36.976  11.421
69455W        W28716  37.059   3.772   2.192
69456W        W28717  41.964  38.028   4.766
69457W        W28718  41.307   9.296   1.902
69458W        W28719  12.249  22.104   2.729
69459W        W28720  13.225  21.695  14.493
69460W        W28721  25.483   8.402   4.828
69461W        W28722   1.828   9.755  12.029
69462W        W28723  17.777  14.812   2.683
69463W        W28724   6.235  15.623  12.491
69464W        W28725   6.815  10.163   2.897
69465W        W28726   2.320  43.934  10.419
69466W        W28727  16.680  39.993   1.900
69467W        W28728  26.169  28.146   2.845
69468W        W28729  18.737  17.563   0.382
69469W        W28730  43.485  40.354  10.132
69470W        W28731   5.872   1.248   0.735
69471W        W28732  30.617  43.437  11.471
69472W        W28733  43.399  21.711   2.869
69473W        W28734   6.208   2.962  14.395
69474W        W28735  43.833  40.374   1.734
69475W        W28736  26.014   8.235  12.549
69476W        W28737  39.032  11.621  10.460
69477W        W28738   9.779  10.160  12.351
69478W        W28739  27.025   4.296  11.585
69479W        W28740   2.883  25.170   2.834
69480W        W28741  15.311  16.301   4.709
69481W        W28742  44.328  27.529  12.095
69482W        W28743  33.911  11.740  14.494
69483W        W28744   8.732  15.807   2.789
69484W        W28745  34.893  38.338   4.748
69485W        W28746  10.202  31.961   2.814
69486W        W28747  25.497  24.989  12.083
69487W        W28748   3.942  40.327  11.976
69488W        W28749  16.135  34.087  12.091
69489W        W28750  29.152  37.857   0.340
69490W        W28751   4.426  16.661   3.664
69491W        W28752  13.746  17.685   1.773
69492W        W28753  34.065   9.673   3.646
69493W        W28754  27.112   1.244   4.737
69494W        W28755   0.421  23.514   0.297
69495W        W28756   8.192  13.781   1.722
69496W        W28757   1.737  21.678   1.748
69497W        W28758   2.285  33.410   3.332
69498W        W28759  36.506   3.955   1.296
69499W        W28760  15.228   3.231  11.920
69500W        W28761  37.469  13.792   0.733
69501W        W28762   1.456  31.605  12.413
69502W        W28763  18.686  26.696  12.460
69503W        W28764  20.527  26.080   0.894
69504W        W28765  19.226  43.425   1.266
69505W        W28766   1.427  44.322   2.419
69506W        W28767  35.003  22.069   1.439
69507W        W28768  15.729   5.254   3.826
69508W        W28769  44.493  35.030   1.401
69509W        W28770  44.996  12.853  14.988
69510W        W28771  22.228  22.064  12.094
69511W        W28772  41.344   3.945   1.406
69512W        W28773  42.967  25.539  11.933
69513W        W28774   4.311   4.843  11.956
69514W        W28775  14.237  15.803   0.472
69515W        W28776  25.643   3.908   3.842
69516W        W28777   5.355  38.074  11.010
69517W        W28778  37.984   8.850   3.261
69518W        W28779  25.481  38.007   0.381
69519W        W28780  42.302   0.268  12.362
69520W        W28781  38.512  12.151  13.515
69521W        W28782  22.734  16.623   1.924
69522W        W28783  19.579  29.593  13.877
69523W        W28784  18.221  37.064  12.488
69524W        W28785  24.691   7.876   3.383
69525W        W28786  19.247  13.176  14.812
69526W        W28787  13.629   9.791  11.077
69527W        W28788  26.624  35.934   0.902
69528W        W28789  10.372  15.801  12.845
69529W        W28790  16.572   2.746   2.721
69530W        W28791  25.530  13.225   3.802
69531W        W28792   6.868  36.474  14.000
69532W        W28793  36.451   3.784  12.976
69533W        W28794  38.483  38.835   5.695
69534W        W28795  29.589  29.076  13.402
69535W        W28796  12.359  12.302   5.681
69536W        W28797  19.599  12.127  13.541
69537W        W28798  20.684  13.818  12.973
69538W        W28799  19.757   3.276  12.882
69539W        W28800  39.907  44.791   3.688
69540W        W28801  41.419  20.716  12.828
69541W        W28802  35.101   7.346  10.944
69542W        W28803  19.688  11.826   2.811
69543W        W28804  11.846  14.804   1.894
69544W        W28805  21.150  44.832   4.245
69545W        W28806   1.936   0.949   3.710
69546W        W28807  41.846  41.416   3.188
69547W        W28808  18.652   2.394   1.223
69548W        W28809   0.408  27.045   0.316
69549W        W28810  10.180  31.049  13.883
69550W        W28811  26.997  18.703   2.851
69551W        W28812  15.265   3.310   2.279
69552W        W28813  43.317  32.531  12.067
69553W        W28814  33.057  17.613   1.349
69554W        W28815  37.845  38.076  10.078
69555W        W28816  24.039  27.661   1.329
69556W        W28817  23.986  14.605  10.603
69557W        W28818  14.140  24.052   2.872
69558W        W28819  42.817   2.960  10.645
69559W        W28820  15.810  17.777   4.734
69560W        W28821  36.897  36.864   1.335
69561W        W28822  42.836   3.854   1.328
69562W        W28823  21.538  15.692   4.820
69563W        W28824  20.219  33.939  12.572
69564W        W28825   9.308  34.889   1.363
69565W        W28826  15.208  33.074   2.216
69566W        W28827  39.483  35.380   0.773
69567W        W28828  28.676   5.394  14.797
69568W        W28829  25.016  38.947  13.920
69569W        W28830  24.040  24.207   3.798
69570W        W28831  15.122   4.909  10.420
69571W        W28832  43.483  26.532   1.807
69572W        W28833  30.623  34.474   1.798
69573W        W28834   0.910  30.607   0.960
69574W        W28835  38.985  27.183  12.362
69575W        W28836  39.369  16.596  11.596
69576W        W28837  37.396  32.583   3.300
69577W        W28838  27.578  39.327   2.378
69578W        W28839  25.487  43.857  11.571
69579W        W28840   0.917  44.826  10.422
69580W        W28841   6.888  24.212  12.474
69581W        W28842   5.361  10.773  13.528
69582W        W28843  28.104   1.333   1.354
69583W        W28844  18.633  11.854   5.191
69584W        W28845  36.412  39.043   1.298
69585W        W28846  24.598  15.667  13.932
69586W        W28847  33.612  44.323  10.929
69587W        W28848  12.687   6.767  11.596
69588W        W28849  34.074  17.199   2.347
69589W        W28850   1.906  35.552  11.453
69590W        W28851  18.090  36.898   2.780
69591W        W28852   9.358  41.878   2.213
69592W        W28853  18.759  30.118   4.736
69593W        W28854   0.342  20.603  13.514
69594W        W28855   6.247  41.316   9.959
69595W        W28856  19.759   5.399  13.450
69596W        W28857  30.634  42.006   0.357
69597W        W28858  25.572   5.921  13.946
69598W        W28859  31.578  38.020  10.550
69599W        W28860  36.902  41.458   3.866
69600W        W28861  38.069  37.402   1.397
69601W        W28862  20.225  23.602   1.411
69602W        W28863  27.169  19.239   0.416
69603W        W28864   5.790  39.863  12.417
69604W        W28865   3.431  16.802   1.808
69605W        W28866   3.840  35.855   2.775
69606W        W28867  15.641  21.661  14.352
69607W        W28868  43.467  29.059  11.856
69608W        W28869  12.348  38.986  11.866
69609W        W28870  25.973  33.415  12.410
69610W        W28871  40.538   2.258   4.723
69611W        W28872  32.900  35.441   1.300
69612W        W28873  20.618  28.121  12.396
69613W        W28874   0.299  20.270   1.878
69614W        W28875  14.726  12.679   2.863
69615W        W28876  37.976  19.654  11.969
69616W        W28877  40.455  42.879   5.087
69617W        W28878  28.591  42.508   0.878
69618W        W28879  43.450  26.676   3.306
69619W        W28880  18.554  15.249   0.817
69620W        W28881  26.486  44.472  10.920
69621W        W28882   2.872   0.386  13.509
69622W        W28883  35.975   4.823  10.413
69623W        W28884  34.569  26.584  10.605
69624W        W28885  21.195  24.203  11.086
69625W        W28886   5.899  32.496   0.266
69626W        W28887  33.500  26.645  11.918
69627W        W28888  15.123  14.293   0.358
69628W        W28889  23.156  21.244  10.576
69629W        W28890  37.475  25.198  10.515
69630W        W28891  43.401  21.593   4.810
69631W        W28892   3.364  28.071   3.162
69632W        W28893  43.977  10.864   4.292
69633W        W28894  22.663  16.191  14.328
69634W        W28895  19.647  33.596  11.613
69635W        W28896   9.275  34.909   3.191
69636W        W28897  29.492  37.846  11.892
69637W        W28898  13.622  41.388   1.292
69638W        W28899  22.591  41.916  11.571
69639W        W28900  36.408   0.346   1.912
69640W        W28901   1.765  24.149   3.764
69641W        W28902   3.867  10.353  11.876
69642W        W28903  23.682  25.518   3.199
69643W        W28904  18.609  40.876  12.412
69644W        W28905   2.862  15.815   2.883
69645W        W28906  19.170  31.608  11.386
69646W        W28907  44.435  23.085  11.103
69647W        W28908  29.566  10.879  13.054
69648W        W28909  27.622  26.623  12.871
69649W        W28910  24.681  17.235  14.889
69650W        W28911  22.020  23.008   4.277
69651W        W28912  29.012  23.538  11.109
69652W        W28913  43.354  10.853  13.517
69653W        W28914  44.974  14.666  10.986
69654W        W28915   8.779  42.779  12.844
69655W        W28916  35.964  42.792   0.324
69656W        W28917   0.451  14.828  10.431
69657W        W28918  28.571   2.772   2.805
69658W        W28919   6.866  16.229  12.467
69659W        W28920  35.492   0.828   1.803
69660W        W28921  38.831  11.718   5.176
69661W        W28922  16.684  40.967   4.192
69662W        W28923   3.441  43.309   1.718
69663W        W28924  21.734   6.690   1.220
69664W        W28925  31.559  28.979  10.924
69665W        W28926  24.670   2.789   1.369
69666W        W28927  39.438   0.808  13.831
69667W        W28928  34.972  33.601   2.261
69668W        W28929  23.521  26.586  11.865
69669W        W28930  42.452  33.973  10.535
69670W        W28931  11.633  35.537  13.020
69671W        W28932  22.586  27.517  11.415
69672W        W28933  20.614  41.357   1.230
69673W        W28934  17.781   7.711   2.851
69674W        W28935   6.693  10.280   4.335
69675W        W28936   4.359  15.761   2.876
69676W        W28937  28.989  38.332  10.987
69677W        W28938  29.977  11.178   3.219
69678W        W28939  42.438  10.796   4.672
69679W        W28940  11.795   3.324   1.796
69680W        W28941  17.623  41.033   3.809
69681W        W28942  15.658   2.232   4.231
69682W        W28943  44.764  42.977   4.316
69683W        W28944  28.564  38.341  13.013
69684W        W28945   5.768  22.240  11.578
69685W        W28946  40.025  12.744   2.841
69686W        W28947  11.621  19.047   0.418
69687W        W28948  34.448  23.994  13.521
69688W        W28949  36.533  20.149  12.357
69689W        W28950   4.266  21.693   0.755
69690W        W28951  31.116   0.366   3.306
69691W        W28952  37.073  28.972  13.063
69692W        W28953  19.667  16.699  14.297
69693W        W28954  13.720  10.145  10.486
69694W        W28955  43.997  11.194   4.114
69695W        W28956   0.474  24.093  11.602
69696W        W28957  44.265  10.281  13.330
69697W        W28958  36.508   7.280   1.357
69698W        W28959  24.230  36.854  14.821
69699W        W28960   6.225   3.248  10.006
69700W        W28961  24.130   6.689   1.220
69701W        W28962   1.342  25.141  10.559
69702W        W28963  22.219  12.732  13.803
69703W        W28964  18.159   4.364  14.510
69704W        W28965   4.791   3.226  11.917
69705W        W28966  20.043  18.566  11.394
69706W        W28967  30.926  40.900   3.683
69707W        W28968  32.912  12.722  14.941
69708W        W28969  17.592   5.422   3.163
69709W        W28970   9.869  10.276   3.822
69710W        W28971  14.212   0.416   4.264
69711W        W28972  30.914   8.314  11.001
69712W        W28973  44.786  35.481   0.739
69713W        W28974  41.414  18.275  11.463
69714W        W28975  20.045  25.485   4.263
69715W        W28976  29.143   5.844   3.686
69716W        W28977  22.151   8.160  13.536
69717W        W28978  17.780  31.590   9.543
69718W        W28979  17.723  14.245   3.381
69719W        W28980  15.699  26.042   1.799
69720W        W28981  44.974  21.171  11.014
69721W        W28982  42.937  22.631   1.878
69722W        W28983  33.421  39.341   5.218
69723W        W28984  26.673  15.097  10.022
69724W        W28985  42.427  31.987   2.407
69725W        W28986   6.868  12.358   1.406
69726W        W28987  34.885  15.789   1.332
69727W        W28988  35.407  37.927   4.820
69728W        W28989  32.962  28.583  12.409
69729W        W28990  20.228   8.281   0.283
69730W        W28991  44.344  26.030   1.885
69731W        W28992   0.746  28.092   2.370
69732W        W28993  43.902  41.975   2.306
69733W        W28994  32.566  34.371  11.512
69734W        W28995  33.467  19.201   1.375
69735W        W28996  25.022  15.172   1.363
69736W        W28997   0.476   7.707  12.859
69737W        W28998  40.366  19.561   5.086
69738W        W28999  25.697  29.578   3.739
69739W        W29000   0.947  22.022   1.868
69740W        W29001  42.309  39.314  12.349
69741W        W29002  37.352  27.106   1.801
69742W        W29003  22.066  14.104  14.387
69743W        W29004  32.493  10.675  13.956
69744W        W29005  21.547   6.759  14.837
69745W        W29006  16.319  16.244   2.864
69746W        W29007   4.300   9.839   0.880
69747W        W29008  28.519   2.439  13.324
69748W        W29009  44.368  28.012  12.508
69749W        W29010  40.436  15.108  14.351
69750W        W29011   8.195  17.156  13.480
69751W        W29012   5.849  43.892  12.455
69752W        W29013  18.083  43.907  11.563
69753W        W29014   7.689  36.994   2.899
69754W        W29015  31.012  21.254   3.183
69755W        W29016   3.842  39.815   4.285
69756W        W29017  27.561   4.753  14.454
69757W        W29018  23.190   2.312   2.901
69758W        W29019  12.810  22.607  14.969
69759W        W29020  42.902   7.830   2.321
69760W        W29021   5.235  41.518   3.264
69761W        W29022  42.307  40.336   4.316
69762W        W29023  12.713  27.492  10.600
69763W        W29024  24.504  39.060   2.861
69764W        W29025  12.172   8.377  13.399
69765W        W29026  11.272  39.447   3.727
69766W        W29027  24.705   3.417  14.903
69767W        W29028   2.893  37.835  14.923
69768W        W29029  31.023  34.553   3.853
69769W        W29030  39.383   0.965   9.983
69770W        W29031  32.512  28.040   1.290
69771W        W29032  14.266   8.369  11.396
69772W        W29033  22.044  39.993   0.346
69773W        W29034  41.459  21.217   4.310
69774W        W29035  24.621  38.882  14.443
69775W        W29036  29.023  27.169   1.214
69776W        W29037  42.380  34.987  10.578
69777W        W29038  40.990  24.010  14.407
69778W        W29039  29.969   1.764   2.694
69779W        W29040  28.604   4.799   2.711
69780W        W29041  44.981  18.574  12.017
69781W        W29042  22.742  20.549   1.821
69782W        W29043  20.577  29.427   3.785
69783W        W29044   8.264   5.336  12.383
69784W        W29045  30.547  37.012   2.723
69785W        W29046  35.387  37.881   3.690
69786W        W29047  20.114   1.847   5.205
69787W        W29048  44.934  44.494  11.870
69788W        W29049  13.293  41.507  12.902
69789W        W29050   6.703  20.552   4.719
69790W        W29051  26.983  25.538   4.631
69791W        W29052  27.985  24.560   3.244
69792W        W29053  17.639  44.853   2.222
69793W        W29054  30.949  41.836   0.940
69794W        W29055  31.147  31.457  10.481
69795W        W29056  30.533   8.307  13.946
69796W        W29057  26.111   8.212  13.939
69797W        W29058   6.265  38.850  10.460
69798W        W29059  41.483  20.620   4.600
69799W        W29060  41.998  34.574   0.798
69800W        W29061  15.589   3.743  12.445
69801W        W29062   6.709  41.890   4.263
69802W        W29063  29.636  33.923  11.983
69803W        W29064  16.114  33.623   4.795
69804W        W29065   8.690  13.807  12.002
69805W        W29066  43.915  25.111   0.760
69806W        W29067  34.087   1.387  11.032
69807W        W29068  42.958  37.547  14.439
69808W        W29069  13.150  29.469   2.235
69809W        W29070   0.816   1.387   2.791
69810W        W29071  31.089  31.913   0.385
69811W        W29072  28.998  35.479   3.790
69812W        W29073  43.959  15.702  10.412
69813W        W29074   7.276  40.869  12.965
69814W        W29075  34.913  38.865   4.761
69815W        W29076   5.851   1.971  11.435
69816W        W29077  15.672  36.413   3.669
69817W        W29078   1.437   1.961   4.682
69818W        W29079  25.089  13.194  13.813
69819W        W29080  39.323  13.815   4.685
69820W        W29081   9.646  43.909   0.960
69821W        W29082  15.297  37.378  10.896
69822W        W29083  28.149  10.674   1.811
69823W        W29084  27.116  35.886  10.896
69824W        W29085  12.360  21.237   0.857
69825W        W29086  41.310  20.111   4.192
69826W        W29087  34.414  42.854  14.956
69827W        W29088  39.405  32.983   4.236
69828W        W29089  28.607   5.380  14.463
69829W        W29090  39.025  17.605  10.902
69830W        W29091   3.830  44.460  11.104
69831W        W29092  35.443  22.063   4.337
69832W        W29093  36.878  17.574   2.319
69833W        W29094  27.454  31.984  13.500
69834W        W29095   4.823  31.971   4.728
69835W        W29096  21.733   0.269   4.831
69836W        W29097  34.603   5.416  11.022
69837W        W29098  11.786  35.050  14.894
69838W        W29099   9.868  21.753  14.496
69839W        W29100  20.127  44.963  12.070
69840W        W29101  31.077  34.466  13.010
69841W        W29102   7.687  10.296  11.566
69842W        W29103   5.863  43.949   3.259
69843W        W29104  26.614  36.074  11.040
69844W        W29105  43.367  17.766  14.919
69845W        W29106  42.004  42.887  12.833
69846W        W29107  41.801  16.205  13.326
69847W        W29108  28.599  39.390  11.446
69848W        W29109  24.706  37.397   1.366
69849W        W29110   9.157  34.896   2.750
69850W        W29111   3.449   5.218  13.792
69851W        W29112  21.733  15.645   4.189
69852W        W29113  27.686   8.865   1.376
69853W        W29114  35.868   3.392  11.537
69854W        W29115  39.424  28.174  13.520
69855W        W29116  29.170   9.789   1.391
69856W        W29117   7.869  26.645   2.358
69857W        W29118  40.481  36.098  13.890
69858W        W29119  17.110  39.996   9.972
69859W        W29120  19.245  17.797  13.491
69860W        W29121   2.280   0.813  14.005
69861W        W29122  43.444  31.044   1.765
69862W        W29123   9.788  19.574  12.366
69863W        W29124  31.907  29.937   1.288
69864W        W29125  34.985   2.272   3.207
69865W        W29126   0.257   6.382  11.458
69866W        W29127  22.607  17.076  14.418
69867W        W29128  30.929  25.187  12.891
69868W        W29129  13.649   0.760  11.515
69869W        W29130   3.813  10.786  14.013
69870W        W29131  43.904  29.637   4.326
69871W        W29132   9.237  26.968   3.728
69872W        W29133  27.583   7.878  13.402
69873W        W29134  23.150  38.898   2.195
69874W        W29135   2.764  25.597   4.201
69875W        W29136  40.506  31.999  13.510
69876W        W29137  15.757  35.432  12.368
69877W        W29138   6.868  37.896  10.972
69878W        W29139  38.023  15.108   2.793
69879W        W29140  41.960  10.173  11.560
69880W        W29141   9.663   0.297   0.425
69881W        W29142  18.268   2.892   2.772
69882W        W29143  29.541  32.007  13.460
69883W        W29144  44.484  26.479   3.355
69884W        W29145  29.038  26.974  13.488
69885W        W29146  22.115  33.532  14.314
69886W        W29147  44.342  20.249  14.378
69887W        W29148  29.978  42.422   4.821
69888W        W29149  16.296  21.061   0.777
69889W        W29150  35.461   7.742  12.489
69890W        W29151  15.812  11.222   4.802
69891W        W29152   9.309  12.331   2.406
69892W        W29153   6.703  38.512   1.411
69893W        W29154  42.495  40.978   0.875
69894W        W29155  43.929   5.344   0.886
69895W        W29156  23.174  15.124   2.805
69896W        W29157  30.498   0.454  10.914
69897W        W29158   0.825   9.750   3.853
69898W        W29159  11.369  33.928   3.191
69899W        W29160  33.547  17.783  12.552
69900W        W29161   2.898   5.814   3.299
69901W        W29162   9.184   6.296   0.933
69902W        W29163  25.111  27.944   0.417
69903W        W29164   6.225  13.271  12.005
69904W        W29165   7.818  32.466  12.932
69905W        W29166  35.922  41.443   3.697
69906W        W29167  41.404  36.979   4.764
69907W        W29168  30.610  39.446   3.870
69908W        W29169  31.409  21.182  14.289
69909W        W29170  31.072   6.682  11.608
69910W        W29171   5.842   6.747   4.260
69911W        W29172  15.203  28.102   3.246
69912W        W29173   8.197  22.616   3.175
69913W        W29174  35.929  40.307  13.876
69914W        W29175   8.827  20.690  10.534
69915W        W29176  42.984   4.845   3.634
69916W        W29177  34.996   0.860  11.054
69917W        W29178  24.694   4.888  12.999
69918W        W29179  40.977  31.614   2.770
69919W        W29180   9.654  13.676  11.882
69920W        W29181  33.100   7.685  13.338
69921W        W29182  36.931   9.880  14.336
69922W        W29183  27.008  31.462  12.057
69923W        W29184  19.758  28.492   4.174
69924W        W29185  15.232  23.989  11.886
69925W        W29186  18.650   8.397  12.478
69926W        W29187  35.991  42.372   1.270
69927W        W29188  29.667  10.197  11.074
69928W        W29189  37.491  29.924  14.926
69929W        W29190  26.130  15.109   2.700
69930W        W29191   3.346  41.017   3.324
69931W        W29192  41.994  38.336   0.883
69932W        W29193   7.751  44.365   0.405
69933W        W29194   5.372  34.937  14.797
69934W        W29195  20.605  11.741   0.784
69935W        W29196  23.119  12.817   1.411
69936W        W29197  42.427   8.393   2.242
69937W        W29198   2.795  28.493   4.172
69938W        W29199  29.957   7.669   4.119
69939W        W29200   0.445  22.156   0.479
69940W        W29201  15.249  40.001  11.907
69941W        W29202   3.315  12.845  13.866
69942W        W29203  13.228  32.091   1.268
69943W        W29204   5.203   6.397   3.192
69944W        W29205  32.498  23.187   1.729
69945W        W29206  44.998  15.273   4.788
69946W        W29207  19.619   1.353  14.363
69947W        W29208  35.876  17.300   5.275
69948W        W29209  29.491   9.721  11.902
69949W        W29210   1.338  10.663  12.497
69950W        W29211  23.599  31.517   2.379
69951W        W29212  39.951   8.328  11.437
69952W        W29213  10.833  12.749  14.350
69953W        W29214  42.333  33.593   3.641
69954W        W29215  20.550  28.116   1.421
69955W        W29216  30.097  12.710   0.867
69956W        W29217   8.305  22.585   1.407
69957W        W29218   5.288  43.990  12.070
69958W        W29219  23.664  28.016   2.664
69959W        W29220  37.527   8.761  14.890
69960W        W29221  29.448  17.774  12.896
69961W        W29222   6.864  10.677   2.834
69962W        W29223  37.344   8.696  12.493
69963W        W29224  34.913  21.228  12.510
69964W        W29225  16.685  33.035  11.544
69965W        W29226  43.998   2.748   0.768
69966W        W29227  25.472  38.987  13.989
69967W        W29228  33.473  38.551   0.483
69968W        W29229  21.192  35.989   4.350
69969W        W29230   9.366  41.418  14.818
69970W        W29231   0.383   5.422   4.836
69971W        W29232  22.127  17.177   4.265
69972W        W29233   7.289  28.023  13.356
69973W        W29234  40.352   2.915  12.969
69974W        W29235  19.651  18.747   4.304
69975W        W29236  18.727  12.824   0.431
69976W        W29237   9.366  31.638   2.827
69977W        W29238  24.682  10.871  13.395
69978W        W29239  31.006  15.179   4.731
69979W        W29240  29.458   8.168  10.978
69980W        W29241  36.434  40.035   0.260
69981W        W29242  10.155  20.641   9.955
69982W        W29243   8.869  37.499   2.291
69983W        W29244  28.970   9.350  14.894
69984W        W29245  43.326   3.437  13.817
69985W        W29246  43.279   6.843   4.339
69986W        W29247  28.169  38.455  11.008
69987W        W29248   1.732  35.897  13.329
69988W        W29249  15.724  24.493   3.152
69989W        W29250   9.251  44.302  11.014
69990W        W29251   3.711   5.203   1.302
69991W        W29252  23.055   4.793  11.480
69992W        W29253  15.799   2.740   0.295
69993W        W29254  31.502  14.760   2.666
69994W        W29255  12.701   0.475   0.316
69995W        W29256  15.595   9.318   0.248
69996W        W29257   7.235  40.348  13.499
69997W        W29258  34.985   9.335   4.122
69998W        W29259   5.897  26.564  12.911
69999W        W29260  15.147  35.581   3.367
70000W        W29261   2.347   7.804  12.411
70001W        W29262  41.940  36.967   2.397
70002W        W29263  15.787  35.060   2.242
70003W        W29264  28.569  14.286  13.518
70004W        W29265  35.109  21.544  12.442
70005W        W29266   8.388  33.612   3.300
70006W        W29267   1.384   1.292   0.789
70007W        W29268  35.548  21.076   4.664
70008W        W29269  28.008   6.834   4.299
70009W        W29270   1.465  37.365   0.919
70010W        W29271   0.298  14.205   1.277
70011W        W29272  33.497   1.437  10.987
70012W        W29273  19.620  34.010  11.601
70013W        W29274  41.394  16.092   1.267
70014W        W29275  16.786  37.413  10.601
70015W        W29276  37.918  26.596  12.080
70016W        W29277  11.765  27.038  11.606
70017W        W29278  40.940   6.849  13.989
70018W        W29279  12.166  17.617   4.309
70019W        W29280  44.435   7.413   2.358
70020W        W29281  33.130  34.034  12.386
70021W        W29282  29.010  10.876  12.531
70022W        W29283  25.498  22.577   9.954
70023W        W29284  41.477   4.800  13.472
70024W        W29285  37.407  31.971  12.027
70025W        W29286  33.997  43.903  10.053
70026W        W29287  22.701  35.453   4.614
70027W        W29288  43.846  42.976  14.835
70028W        W29289  27.108  36.878   2.186
70029W        W29290  19.765   7.191   1.710
70030W        W29291  37.087  17.168  11.020
70031W        W29292  32.002  44.935  10.907
70032W        W29293  16.148  10.817   2.196
70033W        W29294  29.598  44.990   2.663
70034W        W29295  28.505  30.467  14.424
70035W        W29296  43.363  43.826   3.261
70036W        W29297  14.331  32.448   1.304
70037W        W29298  27.675  36.463   0.278
70038W        W29299  30.486  18.267  10.499
70039W        W29300  26.589  28.673  11.443
70040W        W29301  11.303  17.796   4.257
70041W        W29302  18.150  11.249   1.916
70042W        W29303  24.500  23.112   1.834
70043W        W29304  18.631  14.699  13.031
70044W        W29305  32.975  37.071   0.910
70045W        W29306  16.573   1.352  10.985
70046W        W29307  36.020  13.815   0.398
70047W        W29308  40.899   2.355   2.208
70048W        W29309  18.193   5.357  10.919
70049W        W29310   1.246  35.929  10.571
70050W        W29311  13.639  18.177   3.375
70051W        W29312  41.524   1.285   2.188
70052W        W29313  20.749   3.922  13.446
70053W        W29314  29.024  14.220   0.809
70054W        W29315  43.496  15.694  10.015
70055W        W29316   6.199  25.149   1.851
70056W        W29317  17.612  22.517  11.064
70057W        W29318  38.420  40.942  14.404
70058W        W29319   0.282  26.580   4.280
70059W        W29320  42.515   6.213   3.289
70060W        W29321  12.241   2.463   2.196
70061W        W29322  30.032   9.735   1.736
70062W        W29323  40.318  39.559   3.294
70063W        W29324  41.326  39.888   1.764
70064W        W29325  22.169  11.762  14.475
70065W        W29326  33.013  40.909  12.579
70066W        W29327  24.674  42.283  11.099
70067W        W29328  23.539  32.580   2.357
70068W        W29329  32.010   3.424   2.686
70069W        W29330  28.592  29.028   3.345
70070W        W29331  23.154  13.606   2.205
70071W        W29332  44.261  25.052   4.161
70072W        W29333   6.215   1.422   2.799
70073W        W29334  25.492  13.344  12.564
70074W        W29335   5.390  12.612  13.542
70075W        W29336  32.516  30.433   4.251
70076W        W29337  22.715  34.602   0.328
70077W        W29338  18.104   7.403  12.043
70078W        W29339  18.659  30.018   0.798
70079W        W29340  38.994  44.885   1.327
70080W        W29341  39.841  44.894  12.035
70081W        W29342  14.238  44.287   3.864
70082W        W29343  39.326   5.731   2.268
70083W        W29344  37.915  16.307  14.365
70084W        W29345  37.962  16.111   0.952
70085W        W29346  35.034  44.942   4.147
70086W        W29347   0.446  44.793  14.009
70087W        W29348  26.147  18.219  10.406
70088W        W29349  25.654   0.433   1.397
70089W        W29350  36.937  33.970  12.028
70090W        W29351  41.892  43.932   3.275
70091W        W29352  36.951  19.133   0.956
70092W        W29353  36.505  28.185  12.952
70093W        W29354   3.746  23.632  10.928
70094W        W29355   9.691   7.267  13.844
70095W        W29356   8.863  41.340   2.718
70096W        W29357  15.657  17.127   4.319
70097W        W29358   3.273  21.119   1.331
70098W        W29359  41.332  26.604   3.713
70099W        W29360  34.057   9.887   2.405
70100W        W29361  22.653  16.738   2.709
70101W        W29362  27.103  38.403  13.935
70102W        W29363  17.625  41.388   4.622
70103W        W29364  40.942   7.359  10.449
70104W        W29365  16.607  24.218  11.601
70105W        W29366   3.243  29.087  14.859
70106W        W29367  34.036  35.082   3.682
70107W        W29368   0.742   5.392   2.374
70108W        W29369  14.177  13.718   1.766
70109W        W29370  16.619  30.917  13.958
70110W        W29371   5.898  17.234  10.989
70111W        W29372  41.802  44.501  12.897
70112W        W29373  42.438   7.771   4.597
70113W        W29374  16.691  24.692   2.746
70114W        W29375   2.907  44.939  14.433
70115W        W29376  20.116  24.027   9.662
70116W        W29377   3.253  14.203   0.435
70117W        W29378  11.300  11.835   1.275
70118W        W29379  40.998  39.833   3.271
70119W        W29380   2.346  37.355   2.872
70120W        W29381  35.575   4.243  14.318
70121W        W29382  12.154  18.701  14.888
70122W        W29383  16.569   6.185  13.934
70123W        W29384  10.281  34.063   3.640
70124W        W29385  21.701  44.934   0.433
70125W        W29386  16.120   8.827  12.940
70126W        W29387  19.226  10.868   1.863
70127W        W29388   2.242  38.381   0.313
70128W        W29389  24.540  26.531   4.195
70129W        W29390  34.413   9.247   3.334
70130W        W29391  19.047  31.001   4.616
70131W        W29392   4.364  27.145  13.972
70132W        W29393  26.523  36.527  11.514
70133W        W29394   5.857  14.108  10.543
70134W        W29395   3.877  37.041  10.576
70135W        W29396  17.219  44.456   1.846
70136W        W29397  24.006  21.562   4.167
70137W        W29398  12.826  40.004   1.921
70138W        W29399  11.701  28.491   4.655
70139W        W29400  31.950  37.957  14.803
70140W        W29401  16.784  37.363   3.170
70141W        W29402  40.910  32.577   2.748
70142W        W29403   3.421  18.259  13.971
70143W        W29404  13.812  39.880   1.813
70144W        W29405  42.488  38.946  14.801
70145W        W29406  44.004   3.396  13.037
70146W        W29407  29.508  12.834   1.706
70147W        W29408  38.959  43.456   4.133
70148W        W29409  43.453  39.840   2.367
70149W        W29410   5.242  37.889   0.302
70150W        W29411  39.952   3.357   4.717
70151W        W29412   1.860  34.439  11.984
70152W        W29413   7.287  39.412  10.633
70153W        W29414  16.674  25.963  14.503
70154W        W29415  39.066  36.558  13.989
70155W        W29416   2.307  25.181   3.326
70156W        W29417   2.944  30.018   1.779
70157W        W29418  34.100   0.434  14.955
70158W        W29419  34.434  23.005  14.960
70159W        W29420  17.247   4.815   0.829
70160W        W29421   9.685  31.598  10.945
70161W        W29422  42.904  12.729   2.418
70162W        W29423  39.897   1.369  11.032
70163W        W29424  35.107  16.712  12.878
70164W        W29425  21.024  35.549  13.881
70165W        W29426  42.305  40.443   1.234
70166W        W29427  28.621  39.001   0.248
70167W        W29428   0.480  39.923   3.796
70168W        W29429  14.288   5.312  13.048
70169W        W29430  26.551  38.329  14.499
70170W        W29431   7.342  29.497  12.990
70171W        W29432  39.848   6.288   3.382
70172W        W29433  36.517  40.514   3.339
70173W        W29434  17.787   8.282  13.520
70174W        W29435  20.063   9.728  13.421
70175W        W29436  25.592  20.581  10.421
70176W        W29437   6.921  25.577  12.424
70177W        W29438   1.386   0.443   0.854
70178W        W29439  24.524  40.416  12.979
70179W        W29440  20.732  13.638  13.873
70180W        W29441   3.299  27.458  13.814
70181W        W29442  44.392  25.614   3.863
70182W        W29443  42.440   3.900  12.059
70183W        W29444   4.708  19.563   2.863
70184W        W29445  23.004   1.764   2.757
70185W        W29446  39.935  25.997   0.952
70186W        W29447  24.646  27.688  12.440
70187W        W29448  29.129  37.357   1.280
70188W        W29449  30.534  30.607   0.789
70189W        W29450  25.482  17.653   0.913
70190W        W29451  42.806  32.510  13.874
70191W        W29452  15.625  18.213  13.996
70192W        W29453  30.503  27.082  10.591
70193W        W29454  13.675  10.707   4.129
70194W        W29455   2.745  34.433  13.443
70195W        W29456   6.424  36.977   4.211
70196W        W29457  16.141  38.984  13.985
70197W        W29458   4.227  41.456   1.350
70198W        W29459   5.800  16.724   1.262
70199W        W29460  43.914  18.106  11.099
70200W        W29461  14.275  24.723  10.424
70201W        W29462   4.783  20.260  10.460
70202W        W29463  21.511  32.946  12.427
70203W        W29464  16.142  35.061   3.223
70204W        W29465  24.623  21.254  10.958
70205W        W29466   2.858  18.051   0.959
70206W        W29467  11.804  29.081  14.931
70207W        W29468  27.011   5.403   1.256
70208W        W29469  23.195   7.180   0.744
70209W        W29470   2.339  34.984   0.897
70210W        W29471   9.794   7.771   3.313
70211W        W29472   6.264  33.579  13.945
70212W        W29473   3.351  13.671  14.788
70213W        W29474  32.531   7.721  14.341
70214W        W29475  17.125  26.457   3.353
70215W        W29476   6.182  34.111  14.328
70216W        W29477  39.953  30.116   3.800
70217W        W29478  12.273  20.761   2.767
70218W        W29479  24.617  39.487   1.832
70219W        W29480  28.049   3.821   0.775
70220W        W29481  40.872  33.921  14.294
70221W        W29482  39.912  23.019  12.001
70222W        W29483  23.006   8.800  12.441
70223W        W29484  28.554  18.227   3.233
70224W        W29485   4.392   3.290   0.846
70225W        W29486  22.148  15.640  10.484
70226W        W29487   4.335   4.267   4.799
70227W        W29488  40.321  17.100   1.221
70228W        W29489  12.793   0.750   4.811
70229W        W29490  33.612   5.825   4.273
70230W        W29491  25.117  43.349   1.318
70231W        W29492   8.237  36.077   4.616
70232W        W29493  12.763  43.898  13.355
70233W        W29494  18.778   5.847   0.307
70234W        W29495  37.051   1.297   1.828
70235W        W29496  31.044  32.967  10.981
70236W        W29497  37.422   7.747   1.250
70237W        W29498  39.977  37.573   9.582
70238W        W29499  29.968  35.031   2.764
70239W        W29500  18.751  19.613   1.250
70240W        W29501   5.700  44.303  13.488
70241W        W29502   3.862  37.836   4.633
70242W        W29503   8.246  42.308   4.177
70243W        W29504  42.973  14.711  10.435
70244W        W29505   8.349  34.480  10.474
70245W        W29506   2.293   0.388   1.422
70246W        W29507   3.715  30.598  11.381
70247W        W29508   3.726  25.496  12.531
70248W        W29509  36.579  30.551   1.903
70249W        W29510  40.920  38.391   4.675
70250W        W29511  19.141   0.823   0.831
70251W        W29512   6.774  32.977  11.565
70252W        W29513   2.748  10.705   0.799
70253W        W29514  28.088  44.767   0.949
70254W        W29515  10.699   9.202   3.250
70255W        W29516  42.017  42.825   0.355
70256W        W29517  27.990  24.137   0.442
70257W        W29518  16.239   4.208   2.772
70258W        W29519  29.113  25.121   0.763
70259W        W29520  27.548   8.350   1.348
70260W        W29521   3.893  30.425  12.052
70261W        W29522  22.118  26.205   0.924
70262W        W29523  34.593  44.371  10.636
70263W        W29524  31.956  30.495  12.498
70264W        W29525  11.764  28.518   0.732
70265W        W29526  41.830  39.880   4.754
70266W        W29527  40.920  26.112   3.813
70267W        W29528  29.466  32.942  10.964
70268W        W29529   8.868  30.573  14.360
70269W        W29530   2.383  37.447   3.721
70270W        W29531  25.176   4.924  13.931
70271W        W29532  14.269  32.419   4.741
70272W        W29533   6.892   5.399   4.610
70273W        W29534  20.071  27.172   5.724
70274W        W29535   4.716  18.709   1.363
70275W        W29536   5.321  21.540  10.952
70276W        W29537  33.564  36.080   4.775
70277W        W29538  44.911  20.729   0.451
70278W        W29539  22.167  42.354   0.418
70279W        W29540   7.233   9.838   3.762
70280W        W29541  13.160  14.646   2.279
70281W        W29542  24.054   7.844  13.327
70282W        W29543  13.742  35.507  10.895
70283W        W29544  31.069  28.018   1.865
70284W        W29545  29.466   8.299  14.770
70285W        W29546   1.405  37.374  11.429
70286W        W29547  39.491  35.483  10.935
70287W        W29548  23.509   2.939   2.380
70288W        W29549  33.050   4.923  11.084
70289W        W29550   5.826  25.048   4.311
70290W        W29551  37.904  19.770   3.187
70291W        W29552  29.605   7.710   2.259
70292W        W29553  33.509  11.712   2.358
70293W        W29554  32.448  12.627   1.904
70294W        W29555  21.626  22.551  13.380
70295W        W29556  27.603   7.279   4.827
70296W        W29557  40.047  35.505   0.453
70297W        W29558  33.383   2.809   2.820
70298W        W29559   2.908  10.740   3.683
70299W        W29560  22.535  20.663   3.159
70300W        W29561  42.468  35.491  12.399
70301W        W29562   9.165  27.468  12.010
70302W        W29563   1.436   8.259  13.999
70303W        W29564  34.441  42.379  13.980
70304W        W29565  11.775  23.729  12.453
70305W        W29566   2.269  14.698  14.353
70306W        W29567  34.564  18.621  12.946
70307W        W29568  40.382  39.334  10.582
70308W        W29569   5.234   5.912   3.219
70309W        W29570  12.176  26.973  12.357
70310W        W29571  21.139  31.515  11.009
70311W        W29572  39.445  21.208  13.511
70312W        W29573  28.942  41.421  11.017
70313W        W29574  38.329  20.598  11.926
70314W        W29575  41.299   5.921  13.498
70315W        W29576  36.398  37.394  11.608
70316W        W29577  25.089  30.628  13.802
70317W        W29578  13.729  12.301   3.686
70318W        W29579  42.854  44.295   4.805
70319W        W29580  42.937  28.662  11.974
70320W        W29581  27.550   7.722   4.178
70321W        W29582  30.606   0.369   2.229
70322W        W29583  34.871   2.820   2.844
70323W        W29584  31.414  25.556   1.774
70324W        W29585  42.284  35.450  11.029
70325W        W29586   0.985  37.988   2.325
70326W        W29587  25.706   7.398   3.203
70327W        W29588   2.384  17.770   4.194
70328W        W29589  22.511  38.398   4.246
70329W        W29590  29.598  18.136  11.872
70330W        W29591   0.374  39.019  14.812
70331W        W29592  24.575  22.692   9.946
70332W        W29593  27.572  14.721   0.455
70333W        W29594   4.749  30.517   2.774
70334W        W29595  14.292  40.416   0.905
70335W        W29596  37.457   3.338  11.928
70336W        W29597   5.291   6.353   3.837
70337W        W29598  27.006  42.411   0.808
70338W        W29599  18.266   6.916   1.218
70339W        W29600   5.407  37.999  14.388
70340W        W29601  30.482   6.832  12.900
70341W        W29602  35.983   0.291  13.543
70342W        W29603   6.872  43.924   3.864
70343W        W29604   3.287  31.430  14.478
70344W        W29605  24.525  16.086  14.818
70345W        W29606   0.909  28.495   2.792
70346W        W29607   0.377  31.631  10.973
70347W        W29608   9.813   3.353   4.807
70348W        W29609  24.200  18.224   3.719
70349W        W29610  20.039  24.538   9.485
70350W        W29611  44.296  29.481   1.916
70351W        W29612  19.681   6.833  13.344
70352W        W29613   5.299  23.661   4.626
70353W        W29614  37.067  44.852  10.564
70354W        W29615  11.285   9.769  11.960
70355W        W29616  34.113   8.696   3.336
70356W        W29617  27.150  39.911  14.799
70357W        W29618  12.721  17.125   1.366
70358W        W29619  30.922  27.624  13.464
70359W        W29620   0.832  14.628  13.955
70360W        W29621  15.616   2.227  13.011
70361W        W29622  37.839   1.838  12.870
70362W        W29623  42.343  42.992  14.995
70363W        W29624  34.410  41.953   2.845
70364W        W29625  37.439  23.557  14.884
70365W        W29626  25.632  15.823   0.961
70366W        W29627  10.160  31.599  11.030
70367W        W29628  12.612  14.787   3.274
70368W        W29629   7.304  14.144   3.312
70369W        W29630   1.245  12.845  10.891
70370W        W29631  43.359  43.404   3.838
70371W        W29632  11.300  35.935   0.293
70372W        W29633  10.373  22.244  11.511
70373W        W29634   3.269   0.797   0.775
70374W        W29635  34.519   8.805  11.611
70375W        W29636  14.110   2.373  13.519
70376W        W29637  17.755  29.430  11.976
70377W        W29638  26.984  39.472   1.754
70378W        W29639  10.309  21.085  14.320
70379W        W29640  18.102  42.943   0.305
70380W        W29641   1.738  10.813  10.627
70381W        W29642  39.924  16.299   1.887
70382W        W29643  37.349   2.226  13.984
70383W        W29644  43.429  33.427   4.621
70384W        W29645  18.093  40.906   1.805
70385W        W29646   3.805  15.239  11.095
70386W        W29647  41.963  22.684   4.222
70387W        W29648  34.541  16.135   3.236
70388W        W29649  43.409  33.563  10.889
70389W        W29650  13.287  23.730   0.912
70390W        W29651   1.952   0.418   1.847
70391W        W29652  31.559  35.531  10.553
70392W        W29653  16.759  14.742  13.331
70393W        W29654  13.106  14.761  14.487
70394W        W29655  16.191  21.028   2.307
70395W        W29656   7.904  40.535  14.457
70396W        W29657  35.484   8.171   0.292
70397W        W29658  18.624  31.491  13.021
70398W        W29659  12.794  42.864   0.856
70399W        W29660   3.419   4.366   4.177
70400W        W29661  28.631  39.467  10.502
70401W        W29662  21.184  16.261  11.972
70402W        W29663  10.720   4.343  10.466
70403W        W29664   4.409  42.478   0.346
70404W        W29665  21.212  35.401  11.425
70405W        W29666  20.549  10.202   3.847
70406W        W29667  29.921  27.572   4.270
70407W        W29668   6.400  37.376   0.859
70408W        W29669   5.425  44.975   3.811
70409W        W29670  30.974   8.681   5.097
70410W        W29671   3.420   3.245  10.439
70411W        W29672  34.588  33.593  13.422
70412W        W29673  12.772   7.698  14.509
70413W        W29674   7.796  31.934   1.778
70414W        W29675  37.001  32.020  13.465
70415W        W29676  36.859  25.175  11.895
70416W        W29677   6.221   6.708   3.309
70417W        W29678  13.217  14.822   5.101
70418W        W29679  24.012   5.932  14.924
70419W        W29680  34.610   7.330  12.969
70420W        W29681   2.767  20.566   3.243
70421W        W29682  44.347   8.861   3.166
70422W        W29683  27.555  34.442   2.751
70423W        W29684  30.500  25.637   4.783
70424W        W29685   2.270  29.484  11.976
70425W        W29686  37.341  12.704  12.396
70426W        W29687  38.465   3.749   0.742
70427W        W29688  10.727  30.546   3.355
70428W        W29689   9.837  17.561  10.926
70429W        W29690   8.838  30.599   0.844
70430W        W29691  41.510   1.337  13.938
70431W        W29692  31.621   1.341  12.477
70432W        W29693  10.875   3.861   0.952
70433W        W29694  40.388  28.580   0.857
70434W        W29695  13.243  20.119   2.206
70435W        W29696  18.092  16.100   3.293
70436W        W29697  35.042   3.378  14.804
70437W        W29698  19.670  19.269   3.752
70438W        W29699  11.641  11.826   4.272
70439W        W29700   1.238  26.655   3.231
70440W        W29701  10.712   3.745   9.985
70441W        W29702   1.834  20.657  11.609
70442W        W29703  36.467  18.272  13.448
70443W        W29704  15.083  16.761  10.913
70444W        W29705  44.836  10.866   2.718
70445W        W29706  19.203  38.429  12.573
70446W        W29707  43.950   5.755  10.936
70447W        W29708  22.692  20.084   0.455
70448W        W29709  11.661  21.158  10.603
70449W        W29710   6.322  12.333   3.686
70450W        W29711  15.136  38.465   4.649
70451W        W29712   3.313  26.135  14.445
70452W        W29713  39.014  42.947   4.716
70453W        W29714   4.846   8.881   1.217
70454W        W29715   3.724  25.200   0.287
70455W        W29716  10.762  40.914   2.668
70456W        W29717  17.190   9.205  13.401
70457W        W29718  37.077  10.237  13.316
70458W        W29719  34.019  10.764   0.258
70459W        W29720  26.611  34.497   0.346
70460W        W29721  14.187   7.781   2.872
70461W        W29722  35.393  15.103   4.758
70462W        W29723   5.707  23.525  11.373
70463W        W29724  26.635   3.921   3.736
70464W        W29725   5.247   7.772   3.382
70465W        W29726  38.473  21.570  14.446
70466W        W29727   8.203   8.896   2.721
70467W        W29728  19.762  19.239   5.733
70468W        W29729  26.612   0.340  10.015
70469W        W29730  15.814  26.569  14.769
70470W        W29731  33.998  39.327   5.221
70471W        W29732   1.827  16.681  12.968
70472W        W29733  35.395  31.997   0.735
70473W        W29734  18.736  39.431   3.634
70474W        W29735  29.628  30.093   4.752
70475W        W29736  25.990   8.191   3.726
70476W        W29737  17.684  39.467  14.289
70477W        W29738  14.625  14.649  14.806
70478W        W29739  27.044  17.641   0.382
70479W        W29740  10.190  36.074   2.388
70480W        W29741   5.345  34.612   3.854
70481W        W29742  18.778  44.979   0.479
70482W        W29743   5.259  19.779  10.581
70483W        W29744  24.656  21.561  14.847
70484W        W29745  19.226  42.798  13.375
70485W        W29746   4.290   0.265  14.891
70486W        W29747   2.371  11.149   2.282
70487W        W29748  18.605   5.778  12.995
70488W        W29749  43.357  41.946  12.032
70489W        W29750  22.037  21.607   2.707
70490W        W29751   0.969  35.402  10.122
70491W        W29752   9.199  26.562   0.932
70492W        W29753  43.505  28.498   3.864
70493W        W29754  17.792   7.708   0.400
70494W        W29755   7.385  26.995   1.344
70495W        W29756  37.512  32.049  10.032
70496W        W29757  18.245  34.052  11.066
70497W        W29758  37.020   5.194   0.938
70498W        W29759   3.444  28.648  12.547
70499W        W29760  39.928  15.168  12.093
70500W        W29761   0.337  41.492   4.190
70501W        W29762  40.050  12.778   4.279
70502W        W29763  10.649  11.336   0.803
70503W        W29764  39.408  43.287   0.457
70504W        W29765   4.266  16.808  12.557
70505W        W29766  22.538   0.482  14.504
70506W        W29767  31.066  29.628   4.302
70507W        W29768  16.215   8.754   4.831
70508W        W29769  14.594   7.309  11.999
70509W        W29770  31.074  16.211  13.519
70510W        W29771   8.291  33.006   3.640
70511W        W29772  25.505  26.554   3.381
70512W        W29773  16.728  40.946  12.885
70513W        W29774  30.555  22.582  13.473
70514W        W29775  11.658   6.813  13.421
70515W        W29776  15.121  17.244   2.778
70516W        W29777  29.965  36.391  11.951
70517W        W29778  18.742  15.099   2.415
70518W        W29779  31.033   2.743  10.612
70519W        W29780  25.689  11.208  14.282
70520W        W29781  10.240  12.844  12.084
70521W        W29782  38.432  44.822  10.888
70522W        W29783  20.256  26.660   5.267
70523W        W29784  31.963  28.471   3.198
70524W        W29785  34.889  36.902  14.824
70525W        W29786   7.370  21.219  12.052
70526W        W29787  13.316  26.143  13.514
70527W        W29788  22.721  33.604   1.914
70528W        W29789  29.102   8.331   3.635
70529W        W29790   9.230  32.919   0.464
70530W        W29791   6.862  30.515   1.214
70531W        W29792  33.466  21.738  11.390
70532W        W29793  13.296   7.236  13.837
70533W        W29794  32.615   0.766  13.320
70534W        W29795   8.800   3.887  14.450
70535W        W29796  16.084   9.321  13.804
70536W        W29797   1.771  33.462  12.048
70537W        W29798  27.633   8.324   3.211
70538W        W29799  20.039  38.956   1.301
70539W        W29800  26.164  27.141   4.631
70540W        W29801  37.501  38.927  10.617
70541W        W29802  20.746  20.168  12.065
70542W        W29803   3.352  43.414  13.388
70543W        W29804  37.972  31.493  11.503
70544W        W29805   8.668  10.234  14.396
70545W        W29806   9.755  28.037  14.459
70546W        W29807  22.519  36.876   2.244
70547W        W29808  38.992   0.325  13.458
70548W        W29809  21.648  36.427  11.048
70549W        W29810   7.258   9.675  13.012
70550W        W29811   1.806  13.236  14.782
70551W        W29812   7.813  29.087   3.664
70552W        W29813  16.115   4.763  13.432
70553W        W29814  25.492   2.342   1.864
70554W        W29815  43.808  44.473   0.944
70555W        W29816  13.671   6.841  11.499
70556W        W29817  42.793  10.179   4.309
70557W        W29818  44.356  43.981  12.997
70558W        W29819   0.913  16.666   2.292
70559W        W29820  17.145  29.158   9.994
70560W        W29821  31.587  32.543   3.679
70561W        W29822  14.106   1.823  10.926
70562W        W29823   7.206  14.647   4.664
70563W        W29824   6.862  35.895   2.729
70564W        W29825  33.892  10.315  11.071
70565W        W29826  31.957  12.203  12.941
70566W        W29827   4.891  16.727  10.151
70567W        W29828  26.501  34.075  11.490
70568W        W29829  43.441  23.567  13.541
70569W        W29830  23.717   1.884  12.060
70570W        W29831  37.986   1.360   4.707
70571W        W29832  16.216   5.233   1.745
70572W        W29833  19.142  12.142   0.929
70573W        W29834  36.957  41.820   1.774
70574W        W29835  24.085  21.701   2.719
70575W        W29836  21.250  31.906   0.922
70576W        W29837  44.461  18.172  14.877
70577W        W29838  44.481   0.762   4.694
70578W        W29839   3.244  20.184   2.345
70579W        W29840   7.824  39.040  11.380
70580W        W29841   8.252  42.372  12.567
70581W        W29842  36.527  29.085   4.296
70582W        W29843  35.856  16.077  14.784
70583W        W29844   8.313  10.321   2.358
70584W        W29845  19.209  12.303  12.903
70585W        W29846  37.563  22.150   2.391
70586W        W29847   5.923  35.370   3.306
70587W        W29848  14.732  12.690   4.280
70588W        W29849   4.781  44.915   2.226
70589W        W29850  33.502   9.745  10.892
70590W        W29851   1.733   3.783  14.896
70591W        W29852  27.577  19.544  11.534
70592W        W29853  10.761  21.027  11.915
70593W        W29854  31.933  25.999   1.300
70594W        W29855  30.481  20.125   0.935
70595W        W29856  10.662   4.723  11.974
70596W        W29857   4.304  25.672   0.465
70597W        W29858  21.615  10.226   0.378
70598W        W29859  32.980  22.567   3.285
70599W        W29860   4.402  31.026  14.827
70600W        W29861  20.541  27.132   5.615
70601W        W29862   6.851  11.168   5.086
70602W        W29863  12.118   6.840   0.261
70603W        W29864   1.435   2.872  10.579
70604W        W29865  44.890  35.952  10.518
70605W        W29866  18.147  20.071  10.924
70606W        W29867  24.080  30.033   3.290
70607W        W29868  30.909  33.061  10.532
70608W        W29869  20.059  36.472   3.278
70609W        W29870  24.614  13.705   4.126
70610W        W29871  39.870  34.932   1.285
70611W        W29872   9.370  38.503  10.539
70612W        W29873  33.131  16.653  13.903
70613W        W29874  39.418  36.883   0.783
70614W        W29875  24.617  43.367  10.560
70615W        W29876  21.081   5.710  14.759
70616W        W29877  10.156  43.911   0.905
70617W        W29878  18.065  27.140  13.984
70618W        W29879   4.284  28.943  10.588
70619W        W29880  22.743   3.797  13.008
70620W        W29881  18.127  18.223  11.110
70621W        W29882   1.267  28.553  10.620
70622W        W29883   1.302  28.948  14.941
70623W        W29884  43.947  13.757   1.849
70624W        W29885   7.827  44.331  13.057
70625W        W29886  11.349  31.600   2.845
70626W        W29887  20.268  14.268   1.767
70627W        W29888  42.504  41.534  13.390
70628W        W29889  23.988   1.358  12.915
70629W        W29890  22.146  32.496   2.830
70630W        W29891  44.422  20.224  13.037
70631W        W29892  16.308  20.069   2.832
70632W        W29893  35.488  37.528  11.114
70633W        W29894  17.097  11.186  13.906
70634W        W29895   1.812  33.024  14.864
70635W        W29896  14.801  39.880   4.657
70636W        W29897   7.200   1.309  14.878
70637W        W29898  33.389  32.913  14.485
70638W        W29899  32.460  28.156   2.228
70639W        W29900   4.240  21.212  10.494
70640W        W29901   0.258  37.850  10.419
70641W        W29902  44.407   5.207   3.845
70642W        W29903  28.448   8.763   2.263
70643W        W29904  29.527  32.482  13.859
70644W        W29905  34.387   8.716   2.752
70645W        W29906  23.498  23.003   3.727
70646W        W29907  27.566  17.703  14.370
70647W        W29908  42.524  21.202  12.439
70648W        W29909  40.352   7.695  12.875
70649W        W29910  28.180   5.382   2.772
70650W        W29911  26.698  40.377   1.418
70651W        W29912   3.789   0.475  12.946
70652W        W29913   2.783  15.676  14.911
70653W        W29914  32.986   1.432  13.874
70654W        W29915  39.008  28.162  13.356
70655W        W29916  19.709  16.615  14.813
70656W        W29917   3.718  33.505   2.231
70657W        W29918   0.939  34.943   5.094
70658W        W29919   9.257  31.432   4.606
70659W        W29920  26.082  23.686  10.549
70660W        W29921  41.887  24.722  14.451
70661W        W29922  22.157   9.645   4.610
70662W        W29923  30.023   2.867   1.725
70663W        W29924  42.920  41.531  10.983
70664W        W29925  26.561  21.236   4.753
70665W        W29926  22.231  32.417  14.787
70666W        W29927   7.895  19.273  11.975
70667W        W29928  44.949   1.359  11.528
70668W        W29929  43.918  10.712   2.817
70669W        W29930  12.309   0.383   2.775
70670W        W29931  36.581  22.690   3.323
70671W        W29932  11.301  25.187   1.901
70672W        W29933  31.905  38.330  11.396
70673W        W29934  20.185   6.755   3.259
70674W        W29935   4.364   2.758   4.199
70675W        W29936  17.567  21.722  12.409
70676W        W29937  24.521  20.631   0.888
70677W        W29938  42.000   3.332   4.327
70678W        W29939  27.946  11.294  11.394
70679W        W29940  44.307  42.469  13.879
70680W        W29941  35.872  20.268  14.792
70681W        W29942  18.073  28.966  11.441
70682W        W29943  14.746  37.061  12.018
70683W        W29944  43.781  19.761  14.991
70684W        W29945  22.145  33.986  13.859
70685W        W29946  19.241   0.386   0.364
70686W        W29947   5.912  25.138  12.460
70687W        W29948  27.973  38.045   4.152
70688W        W29949  18.149  19.213  11.064
70689W        W29950  19.226  26.135   0.396
70690W        W29951  43.337  19.745  10.541
70691W        W29952  34.374  17.189   0.387
70692W        W29953  38.973   6.810   0.317
70693W        W29954  11.211  14.212  12.871
70694W        W29955  22.628  34.904  14.827
70695W        W29956   6.815  28.137  13.512
70696W        W29957  41.296  13.794   3.204
70697W        W29958  34.099   5.285  13.507
70698W        W29959  29.623  30.155  14.983
70699W        W29960  19.079  30.604   1.833
70700W        W29961   9.316  44.010   2.395
70701W        W29962  36.969  16.794   1.219
70702W        W29963  31.590   2.269   4.686
70703W        W29964  20.555  34.443  10.968
70704W        W29965   9.711   5.384   5.650
70705W        W29966  14.627  16.575  12.506
70706W        W29967   4.759  23.713  11.024
70707W        W29968  37.859  24.570   2.746
70708W        W29969   6.214  19.126  14.893
70709W        W29970  43.282   4.852  10.528
70710W        W29971  23.601   0.826  11.608
70711W        W29972  35.014   6.889   3.756
70712W        W29973   0.849  19.562   4.833
70713W        W29974  20.041  39.021  14.973
70714W        W29975  18.177  30.019   4.192
70715W        W29976  39.039  28.128   1.793
70716W        W29977   8.753   2.765  11.058
70717W        W29978   7.780  34.431   1.297
70718W        W29979  12.325  30.659   0.362
70719W        W29980  44.308  17.306  11.537
70720W        W29981  36.475  34.013  14.921
70721W        W29982  18.723  15.747  11.082
70722W        W29983  40.403  18.754  12.440
70723W        W29984  12.696  42.444   4.638
70724W        W29985   4.746   5.848   5.254
70725W        W29986  12.673   4.339   1.392
70726W        W29987  13.620  34.874  12.495
70727W        W29988  21.178   8.709   2.368
70728W        W29989  26.045  14.743   4.812
70729W        W29990  18.699  17.190  10.515
70730W        W29991  16.570  20.125   0.310
70731W        W29992  39.912  39.866  10.522
70732W        W29993   7.225  29.501  13.542
70733W        W29994   5.800   5.722  13.015
70734W        W29995   3.334  13.201   1.349
70735W        W29996  17.248   6.397  14.329
70736W        W29997  29.428   6.813   1.748
70737W        W29998  26.622  38.927  11.916
70738W        W29999  18.101   0.770   2.328
70739W        W30000  23.503   1.316   0.444
70740W        W30001   4.401   4.320   4.301
70741W        W30002  15.620  14.263  14.864
70742W        W30003  43.454  37.520  12.887
70743W        W30004  21.570  33.024   3.778
70744W        W30005  14.181   0.466   1.228
70745W        W30006  15.164  11.724  13.434
70746W        W30007  15.589   5.772  13.366
70747W        W30008  28.979  38.851   0.894
70748W        W30009  27.674  15.802   4.633
70749W        W30010  16.178   0.922   3.164
70750W        W30011  34.404  32.607   4.144
70751W        W30012   3.339  22.181  11.454
70752W        W30013  31.103   4.269  11.613
70753W        W30014   3.395  24.147  10.582
70754W        W30015  22.559  24.691   1.777
70755W        W30016   8.743   0.315   1.389
70756W        W30017  15.227  39.344   3.372
70757W        W30018  17.247   3.455   0.877
70758W        W30019   5.230  30.631  14.913
70759W        W30020   1.463   1.256   3.815
70760W        W30021   6.251  28.511  14.858
70761W        W30022  17.741  29.463  14.902
70762W        W30023  26.663  11.199   0.377
70763W        W30024  34.901  14.291  13.962
70764W        W30025  32.414  28.156  11.505
70765W        W30026  11.217  39.385  13.845
70766W        W30027  18.644  26.656   4.207
70767W        W30028  24.500  25.707  13.378
70768W        W30029  11.684  39.939   1.242
70769W        W30030   3.336   1.417   0.937
70770W        W30031  19.267  22.742  11.885
70771W        W30032   1.401  26.487  13.311
70772W        W30033  16.314  19.614   1.241
70773W        W30034  22.034  38.910   0.856
70774W        W30035  23.002  19.541   0.330
70775W        W30036  33.967  42.954   4.202
70776W        W30037  10.209  30.425   0.290
70777W        W30038  19.100  15.253  13.972
70778W        W30039  36.451  29.460   1.348
70779W        W30040  13.252  18.091   1.812
70780W        W30041  43.939  20.042  14.994
70781W        W30042  21.132  37.339  13.996
70782W        W30043  33.568  32.937   2.306
70783W        W30044   0.763  35.056  12.442
70784W        W30045  42.842  10.712  13.823
70785W        W30046  41.903  44.273  12.560
70786W        W30047  33.919  43.823   2.850
70787W        W30048  21.676  35.891  11.419
70788W        W30049   3.410  21.611  10.586
70789W        W30050  16.686  36.521   2.765
70790W        W30051   2.966   2.320   2.335
70791W        W30052  37.337  14.645   3.709
70792W        W30053  36.917  16.301   0.396
70793W        W30054  37.083   3.791  11.546
70794W        W30055   3.371  11.776   3.334
70795W        W30056  27.128  31.448   2.248
70796W        W30057   9.643  15.098  13.799
70797W        W30058  27.125  13.131  10.503
70798W        W30059  22.151  17.256   1.399
70799W        W30060   9.178  37.067  10.984
70800W        W30061  20.234   8.371  12.968
70801W        W30062  35.465  44.993   2.326
70802W        W30063  31.485   3.793   2.250
70803W        W30064  28.929  33.504  10.613
70804W        W30065  28.600  15.814  13.954
70805W        W30066  38.993   2.914  12.991
70806W        W30067  20.115  34.415  12.430
70807W        W30068  36.496  10.293  12.908
70808W        W30069  34.908  20.749  11.945
70809W        W30070  13.137   5.277   4.267
70810W        W30071  17.695   7.197  10.452
70811W        W30072  34.497   6.735  10.989
70812W        W30073  31.599  44.423   0.318
70813W        W30074  24.058  31.925   1.712
70814W        W30075  38.532  18.687   3.676
70815W        W30076   9.256  29.482   2.871
70816W        W30077  39.012  37.053  14.335
70817W        W30078   8.390  11.257   2.363
70818W        W30079  10.341  44.330   3.787
70819W        W30080  13.180  31.430   2.240
70820W        W30081  11.694   9.651  12.018
70821W        W30082  34.396  39.032   2.333
70822W        W30083  22.097  12.164   4.675
70823W        W30084  31.051  16.789  10.470
70824W        W30085  15.287   7.239  13.003
70825W        W30086  35.562  24.610   4.804
70826W        W30087  16.257   0.851   2.676
70827W        W30088  20.764  38.989  12.896
70828W        W30089  15.773   0.867   5.233
70829W        W30090  44.797  23.189   3.373
70830W        W30091  10.255  38.512  10.151
70831W        W30092  17.674  26.535  14.835
70832W        W30093   6.376   9.667  13.800
70833W        W30094  42.348  15.807  10.897
70834W        W30095  32.460  19.650   2.699
70835W        W30096   3.831  41.314  12.006
70836W        W30097   1.770  30.949  10.585
70837W        W30098  21.711  35.516   1.408
70838W        W30099  39.558  39.499  12.096
70839W        W30100  43.304  22.675   4.145
70840W        W30101  33.062  39.481   2.366
70841W        W30102  11.159  36.875   1.764
70842W        W30103  11.647  14.623   9.921
70843W        W30104  43.769  12.643  13.894
70844W        W30105  19.558  25.581   0.861
70845W        W30106  43.808  25.067  12.526
70846W        W30107   1.964  34.454   3.294
70847W        W30108  36.087   6.730   2.859
70848W        W30109   4.764  25.474   2.404
70849W        W30110  39.446  39.938   0.816
70850W        W30111  25.514   7.740   2.693
70851W        W30112  26.988  35.502   2.777
70852W        W30113   3.398  14.246  13.465
70853W        W30114  36.485  43.869  11.510
70854W        W30115  11.752  16.198   5.636
70855W        W30116   5.361  20.261   1.260
70856W        W30117   8.335  35.544   4.179
70857W        W30118   2.290  19.135  13.062
70858W        W30119  31.052   2.896  14.960
70859W        W30120  22.085  10.262   4.826
70860W        W30121  20.159  41.859  14.508
70861W        W30122  24.568  39.485   1.424
70862W        W30123  23.058   9.650   2.754
70863W        W30124  29.442   1.333  11.116
70864W        W30125  16.643   0.839  11.043
70865W        W30126  17.162  21.563   2.665
70866W        W30127  40.316  27.634  13.917
70867W        W30128   3.454  22.559  14.896
70868W        W30129  39.344  40.505   4.626
70869W        W30130   4.304  33.999   4.744
70870W        W30131  11.623  15.660  12.449
70871W        W30132  21.216  28.100  11.379
70872W        W30133  20.072  26.178   4.671
70873W        W30134   6.310   4.752  14.280
70874W        W30135   1.266   4.394   4.289
70875W        W30136  34.007  19.282  12.861
70876W        W30137   3.839  26.030   3.680
70877W        W30138  38.330  36.913  14.998
70878W        W30139  42.333  31.079  12.357
70879W        W30140   1.884  21.543   2.667
70880W        W30141   3.801  17.762   3.824
70881W        W30142   3.883   2.245  12.876
70882W        W30143  26.070  32.975   1.734
70883W        W30144  15.607  39.532  12.527
70884W        W30145  40.810  26.079  12.932
70885W        W30146  39.968  35.987  14.839
70886W        W30147  39.974  20.600  12.057
70887W        W30148  20.742  11.815  10.915
70888W        W30149  40.492  14.175  14.275
70889W        W30150   1.383  25.631   2.305
70890W        W30151   0.330  19.068   0.956
70891W        W30152  20.753  19.671   3.223
70892W        W30153  25.620  41.309  11.572
70893W        W30154   9.886  38.525   4.281
70894W        W30155  19.604   6.894  14.359
70895W        W30156  33.100  11.759  14.797
70896W        W30157  35.371   0.886   1.243
70897W        W30158  34.561   3.799   1.829
70898W        W30159  27.598   5.885  13.473
70899W        W30160   3.253  26.619  14.292
70900W        W30161  12.829  31.916  11.023
70901W        W30162  26.025  29.511  11.999
70902W        W30163  13.710  31.118   4.634
70903W        W30164   2.431  21.715   2.701
70904W        W30165  43.427   4.699   1.886
70905W        W30166  28.572  40.452   9.973
70906W        W30167  13.789  29.944  11.474
70907W        W30168  13.677  43.781  11.105
70908W        W30169  41.334  15.219   2.673
70909W        W30170  15.301  42.305  10.562
70910W        W30171  31.118   4.265   0.304
70911W        W30172  12.645  39.374   3.350
70912W        W30173   6.209   6.278  12.854
70913W        W30174  15.091  28.562   1.218
70914W        W30175  16.229  28.646  14.770
70915W        W30176  27.624  11.655   0.868
70916W        W30177  34.589  18.784   4.178
70917W        W30178  16.629  39.460  11.068
70918W        W30179  21.548  23.576  11.113
70919W        W30180  36.852  22.695   2.771
70920W        W30181  18.634   8.368  14.931
70921W        W30182  19.736  28.141  12.391
70922W        W30183  27.625   3.923  14.006
70923W        W30184  16.190  17.783   5.290
70924W        W30185  30.416   5.727   2.835
70925W        W30186  10.680  20.574   4.629
70926W        W30187  15.136   3.263  13.891
70927W        W30188  35.359  14.687   1.772
70928W        W30189  22.163   0.757  12.035
70929W        W30190  36.394  14.831  11.503
70930W        W30191  17.768   5.927  14.960
70931W        W30192  23.084  35.489   1.215
70932W        W30193  32.039   7.263   2.220
70933W        W30194  26.593  23.159   3.729
70934W        W30195  15.305  19.716  11.016
70935W        W30196  28.510  28.150   4.740
70936W        W30197   4.859   2.782  14.391
70937W        W30198  34.871   3.285  13.372
70938W        W30199   6.886  16.255   1.726
70939W        W30200  16.713   6.182  13.545
70940W        W30201  35.893   1.862   1.726
70941W        W30202  29.975  28.640  13.483
70942W        W30203   4.357  35.378   3.198
70943W        W30204  44.995  36.856  13.477
70944W        W30205  41.537  31.127  13.979
70945W        W30206   5.334   3.897   3.851
70946W        W30207  31.002  37.426   1.794
70947W        W30208  12.166   2.795   1.880
70948W        W30209   9.844  44.319   2.713
70949W        W30210  38.020  14.778   4.647
70950W        W30211   1.467  26.132   1.425
70951W        W30212  25.153   2.345   2.721
70952W        W30213  12.277  25.637   2.360
70953W        W30214  35.871  18.764   1.721
70954W        W30215  12.781  41.337  13.816
70955W        W30216  29.431   2.886   1.838
70956W        W30217  25.683   7.361  12.855
70957W        W30218   0.932   9.373   3.239
70958W        W30219  36.054  18.118   0.324
70959W        W30220  39.885  20.614   0.384
70960W        W30221  41.970   5.690   4.326
70961W        W30222   7.882  25.515  11.390
70962W        W30223  13.157  21.105  11.976
70963W        W30224  36.484  37.957  13.344
70964W        W30225  24.656  13.609   3.855
70965W        W30226  38.967  27.675   0.841
70966W        W30227  39.026  36.568  12.040
70967W        W30228   4.325  14.145  14.287
70968W        W30229  41.043  21.155  11.470
70969W        W30230  24.171  30.962  11.967
70970W        W30231   5.305  11.652   3.871
70971W        W30232  43.836  36.060  10.424
70972W        W30233  34.615  24.158   0.787
70973W        W30234   6.401  30.918   1.410
70974W        W30235  36.893  39.405   4.746
70975W        W30236  36.847  39.454   1.928
70976W        W30237  13.172  20.039  14.291
70977W        W30238  25.554  26.163   2.344
70978W        W30239   0.469   8.392   3.821
70979W        W30240  37.847  28.123   1.785
70980W        W30241  17.592  28.087   2.801
70981W        W30242  33.538   2.322  13.829
70982W        W30243   3.740  10.162  13.357
70983W        W30244  12.757  36.987   0.772
70984W        W30245  44.412  23.135  11.987
70985W        W30246  20.252  25.165  12.543
70986W        W30247  39.509  10.256  14.485
70987W        W30248  16.587   4.780   4.644
70988W        W30249  34.572  34.942   4.774
70989W        W30250  37.967  41.465   0.812
70990W        W30251  30.571  22.102   3.763
70991W        W30252   9.278  16.747   1.437
70992W        W30253   2.361  10.238   3.236
70993W        W30254  38.943   5.891   3.147
70994W        W30255  26.542  37.933   4.636
70995W        W30256  14.802  32.976   3.820
70996W        W30257  19.692  43.985   3.338
70997W        W30258  20.102  31.576   4.694
70998W        W30259   5.917  43.834   4.815
70999W        W30260   9.157  24.172  14.441
71000W        W30261  40.425   9.866  11.563
71001W        W30262  41.497  44.476   1.919
71002W        W30263   6.864  29.513   3.314
71003W        W30264  23.027   3.749   0.284
71004W        W30265  15.749  36.991  14.448
71005W        W30266   7.236  13.822   1.927
71006W        W30267  15.744   5.430   4.225
71007W        W30268   5.279  11.625  12.078
71008W        W30269  14.642  11.170   1.850
71009W        W30270  24.647  12.832   2.675
71010W        W30271   5.340  20.166   3.377
71011W        W30272  26.995   5.400  10.947
71012W        W30273  21.215  27.138  11.540
71013W        W30274  37.513  14.262  13.399
71014W        W30275  29.948  12.327   2.686
71015W        W30276   4.346  23.615   0.465
71016W        W30277  38.554   9.168  14.897
71017W        W30278  20.764  26.518  10.522
71018W        W30279  21.637  32.483   4.651
71019W        W30280  41.900  34.446  10.486
71020W        W30281  32.400  33.076   1.925
71021W        W30282  30.454  36.556   9.950
71022W        W30283  12.326   9.809   1.805
71023W        W30284  41.803   8.815   4.672
71024W        W30285   6.404  30.978  13.994
71025W        W30286  12.360  26.682  13.887
71026W        W30287  14.770  22.689  11.100
71027W        W30288  20.050  27.584   4.245
71028W        W30289  13.615  31.941  13.506
71029W        W30290  12.161  20.582  11.596
71030W        W30291   9.705  35.583   2.397
71031W        W30292  39.383  17.119  10.076
71032W        W30293  37.934   9.382   4.136
71033W        W30294  31.148  31.498  12.986
71034W        W30295  11.179   5.317   0.769
71035W        W30296  21.711   0.787  13.058
71036W        W30297  13.708  37.968   3.321
71037W        W30298   5.711  30.003  10.596
71038W        W30299  11.205  17.742   2.368
71039W        W30300  44.392   9.238   3.825
71040W        W30301   9.155  30.538  11.455
71041W        W30302  33.505  16.775  13.331
71042W        W30303  37.021  30.110   3.861
71043W        W30304  25.974  31.473  12.416
71044W        W30305  36.586  19.102   4.341
71045W        W30306  18.722  14.136   5.285
71046W        W30307  28.476  41.903  10.956
71047W        W30308   7.178   3.787   3.154
71048W        W30309   4.912  30.439  11.923
71049W        W30310   1.798  25.550  11.497
71050W        W30311  19.046  13.239  12.435
71051W        W30312   6.206  16.248   4.320
71052W        W30313  18.064   4.403   0.351
71053W        W30314  39.385  42.465   2.394
71054W        W30315   7.325  27.014   3.317
71055W        W30316  30.461  23.732   4.185
71056W        W30317  36.970  19.136  12.442
71057W        W30318  19.128  35.868   2.282
71058W        W30319   6.912  34.576  11.101
71059W        W30320   2.784  39.531  13.434
71060W        W30321  27.458  34.939  12.521
71061W        W30322   9.865  28.057   3.727
71062W        W30323  11.206  39.971   0.750
71063W        W30324  19.685  15.150  12.998
71064W        W30325   4.887  36.473  10.063
71065W        W30326  21.602  20.743  12.445
71066W        W30327  11.793  19.595  14.380
71067W        W30328  14.664  23.048   3.854
71068W        W30329  22.058   1.409  14.415
71069W        W30330   2.349  25.145  11.449
71070W        W30331  14.826  11.354  12.898
71071W        W30332  20.644  13.311  13.355
71072W        W30333  12.771  10.229  11.498
71073W        W30334  43.478  39.475  10.905
71074W        W30335  42.350  28.534   3.659
71075W        W30336  17.625   8.261  11.914
71076W        W30337  34.942  33.935   1.306
71077W        W30338  26.202   1.458  11.919
71078W        W30339  12.150  43.829   1.863
71079W        W30340  39.945   3.836  10.516
71080W        W30341  44.816  25.134  13.854
71081W        W30342  19.777  29.453   2.343
71082W        W30343   7.809   9.847   1.901
71083W        W30344  11.217  13.325   3.315
71084W        W30345  25.202  27.033   1.798
71085W        W30346  27.537   2.314   2.271
71086W        W30347  27.148  40.440  10.990
71087W        W30348   5.276  41.427  11.402
71088W        W30349  28.136   2.927  10.900
71089W        W30350  34.553   9.171  12.052
71090W        W30351   9.765  23.067  11.119
71091W        W30352  17.086  43.443  14.960
71092W        W30353   8.699  20.768  13.025
71093W        W30354  36.032  44.399   5.773
71094W        W30355  16.696   2.375  11.881
71095W        W30356   1.483  20.716  14.445
71096W        W30357  10.311  21.208   4.665
71097W        W30358  17.675  21.585   1.225
71098W        W30359  36.350  32.432   3.686
71099W        W30360  12.194  19.267  14.476
71100W        W30361  43.972  13.283   2.317
71101W        W30362  34.390  17.070  10.508
71102W        W30363  38.445   0.338  11.495
71103W        W30364   6.819  38.931  10.896
71104W        W30365  22.665  31.097   3.766
71105W        W30366  39.905   5.367   0.913
71106W        W30367  36.472  34.589  12.462
71107W        W30368  30.604  22.656   2.866
71108W        W30369  26.131  10.867  11.434
71109W        W30370  16.727  11.677   2.323
71110W        W30371   1.239   5.400   2.196
71111W        W30372  35.379  26.988  11.010
71112W        W30373  33.991  24.205  10.933
71113W        W30374  43.481  16.146   3.373
71114W        W30375  27.573  12.334   3.360
71115W        W30376  44.504  43.781  10.043
71116W        W30377  11.703  36.475  12.363
71117W        W30378  40.938   8.205  12.997
71118W        W30379  38.459  13.133  12.566
71119W        W30380  44.981  19.154   1.286
71120W        W30381  18.104   8.759  11.954
71121W        W30382  39.001  19.628   3.182
71122W        W30383  30.482   4.796  11.102
71123W        W30384  28.625  15.130   1.932
71124W        W30385  26.126   3.425   3.744
71125W        W30386   0.859  32.411   1.705
71126W        W30387   7.327  16.211  14.382
71127W        W30388  44.904  26.182   1.409
71128W        W30389  29.450  42.436  14.979
71129W        W30390  12.178  27.511  11.443
71130W        W30391  35.082   2.275   1.710
71131W        W30392  30.971  13.606   3.866
71132W        W30393  38.524   0.747  13.499
71133W        W30394  35.422  13.736  11.905
71134W        W30395  30.625   8.887  13.528
71135W        W30396  13.157  36.364  13.399
71136W        W30397  42.370  40.428   3.269
71137W        W30398  30.915   0.923  14.944
71138W        W30399  42.314  35.900  14.885
71139W        W30400   7.179  37.867   3.328
71140W        W30401  41.943  30.614   4.811
71141W        W30402  21.592  26.988   0.314
71142W        W30403  31.992  31.413   3.154
71143W        W30404  20.217  31.620   1.908
71144W        W30405  44.353  33.102  10.534
71145W        W30406  33.380  37.997   1.871
71146W        W30407  18.199  42.280  12.574
71147W        W30408   5.736   8.877  14.868
71148W        W30409  26.698  42.814  14.433
71149W        W30410  42.988  39.436   2.743
71150W        W30411  32.514  15.130  10.603
71151W        W30412   4.848   0.431   2.203
71152W        W30413   0.335  36.062  13.030
71153W        W30414  12.657  21.529  10.570
71154W        W30415  35.961  30.633  10.582
71155W        W30416  24.650  40.422   3.252
71156W        W30417  20.098  39.428  13.974
71157W        W30418   7.804  15.121  12.894
71158W        W30419  39.488  13.767   1.751
71159W        W30420  38.419  22.019   4.697
71160W        W30421  32.952  34.995   3.331
71161W        W30422  25.991  10.818  10.412
71162W        W30423  40.548  30.590   1.895
71163W        W30424  31.024   7.324   2.180
71164W        W30425  12.800   2.255  11.954
71165W        W30426  37.018  43.829   2.670
71166W        W30427  22.234  37.379   2.338
71167W        W30428  11.286  15.767   3.290
71168W        W30429  22.613   9.652   0.407
71169W        W30430  40.988  39.833   4.701
71170W        W30431  44.960  21.629  14.967
71171W        W30432  26.459   8.254   4.800
71172W        W30433   9.888  31.972   4.234
71173W        W30434  36.422   2.331   2.771
71174W        W30435  43.435  41.863   0.967
71175W        W30436  23.640  12.825   2.693
71176W        W30437  41.025   2.965   1.875
71177W        W30438  21.741  19.080  13.873
71178W        W30439  28.488   7.371  12.998
71179W        W30440  39.325   8.400  13.895
71180W        W30441  34.015   4.313  11.414
71181W        W30442  27.997  23.011   4.700
71182W        W30443  16.787  23.715  14.440
71183W        W30444  23.544  23.720  14.357
71184W        W30445  24.637  35.906  14.374
71185W        W30446   5.896  13.115  12.004
71186W        W30447  36.907   6.737  14.874
71187W        W30448  39.514  20.249  14.820
71188W        W30449  13.228   5.795   3.263
71189W        W30450  25.132  44.982  11.944
71190W        W30451  24.685  40.977  10.501
71191W        W30452   0.837  17.785  10.509
71192W        W30453  11.783  19.614  10.030
71193W        W30454  36.851  27.161  10.454
71194W        W30455   2.427  28.104  13.442
71195W        W30456  19.570  38.856  11.898
71196W        W30457   7.258  12.239  12.831
71197W        W30458  40.028  34.063  14.355
71198W        W30459  10.325  25.009   1.444
71199W        W30460  18.614  19.647   3.697
71200W        W30461  35.591   3.740   4.298
71201W        W30462  15.217   1.295   0.750
71202W        W30463  25.179  41.843   3.255
71203W        W30464  30.123  39.868  11.037
71204W        W30465   8.301  27.594   1.270
71205W        W30466  12.286  22.519  12.557
71206W        W30467  32.101  26.007  11.126
71207W        W30468  29.522  44.366  14.429
71208W        W30469  39.901  16.117  13.040
71209W        W30470  37.555   7.905   1.793
71210W        W30471  10.348  27.669  10.914
71211W        W30472  14.787  33.022   2.804
71212W        W30473  20.102  36.467   2.847
71213W        W30474  26.490  24.613   0.307
71214W        W30475  18.633  12.155  13.982
71215W        W30476  32.559  11.230  10.955
71216W        W30477  19.610  36.003  13.914
71217W        W30478   8.723   8.678   2.698
71218W        W30479  18.606  41.483  11.566
71219W        W30480  41.378  25.080   1.411
71220W        W30481  14.262  39.956  11.087
71221W        W30482  38.946  44.338   1.744
71222W        W30483  43.370  23.647  11.506
71223W        W30484   1.381  10.187  10.921
71224W        W30485  11.182   3.748  12.416
71225W        W30486  27.480   4.266  12.004
71226W        W30487  13.659  41.480  13.961
71227W        W30488   9.850  41.364  14.963
71228W        W30489  39.952   4.279   0.806
71229W        W30490  44.795  28.968   4.255
71230W        W30491  27.654  12.290   2.897
71231W        W30492  29.093  25.156   1.269
71232W        W30493  44.340  30.017  13.948
71233W        W30494  19.749  40.811   4.203
71234W        W30495  43.508  33.602   4.155
71235W        W30496  18.770  32.446   3.765
71236W        W30497  24.170  38.853   4.735
71237W        W30498   0.480  26.504  11.491
71238W        W30499  17.743   2.720   1.921
71239W        W30500   9.828  17.212   2.876
71240W        W30501  35.880  32.897   9.924
71241W        W30502  41.386  17.218  14.030
71242W        W30503  14.808   1.927   1.264
71243W        W30504  28.988  14.169  11.090
71244W        W30505   6.904  32.617   3.685
71245W        W30506  34.456  11.859  14.356
71246W        W30507   8.746  13.747  10.128
71247W        W30508   3.771  17.641  12.946
71248W        W30509  14.619  26.465   3.640
71249W        W30510  11.367  33.981  12.540
71250W        W30511  13.791  17.644  12.446
71251W        W30512  29.651  12.273  14.936
71252W        W30513  15.089   2.268  11.467
71253W        W30514  34.008   1.251   0.740
71254W        W30515  26.654  13.120   4.789
71255W        W30516  12.351   1.935  14.311
71256W        W30517  14.819   0.415  11.879
71257W        W30518  29.513   6.363  10.416
71258W        W30519  16.716  12.764   3.309
71259W        W30520  18.573  35.954   2.884
71260W        W30521  28.159  10.366   2.305
71261W        W30522  30.550  38.513   3.757
71262W        W30523  28.050  16.131   4.794
71263W        W30524  20.759  41.014  11.535
71264W        W30525  33.395   7.856  14.431
71265W        W30526  41.333   7.894  13.483
71266W        W30527  40.957   0.261   4.255
71267W        W30528  35.997  11.310  14.483
71268W        W30529  37.436   0.317  11.413
71269W        W30530  30.092  25.000   0.738
71270W        W30531  35.902   1.384   2.777
71271W        W30532  22.095  29.607   1.828
71272W        W30533  16.726  18.586  13.380
71273W        W30534  44.864  41.528   0.766
71274W        W30535  15.328  30.930   0.460
71275W        W30536  39.447  21.183   0.251
71276W        W30537  34.587  15.233  12.831
71277W        W30538  21.130  18.616   3.305
71278W        W30539   0.922  11.322  13.991
71279W        W30540   7.707  35.953   4.298
71280W        W30541   8.691  43.864   2.246
71281W        W30542  12.781  20.687   2.221
71282W        W30543  12.361  23.505  11.995
71283W        W30544  44.754  23.591   2.754
71284W        W30545  10.221   9.186   1.829
71285W        W30546  14.619  15.588   4.338
71286W        W30547  36.408   7.381   4.685
71287W        W30548  39.501  41.339   0.289
71288W        W30549  26.105  17.698  12.906
71289W        W30550  19.129   1.881   2.675
71290W        W30551   6.810  44.891  11.971
71291W        W30552  18.188  38.447   3.258
71292W        W30553  33.913  32.545   3.241
71293W        W30554  19.565  36.979  12.966
71294W        W30555  30.024   0.249  12.090
71295W        W30556   2.262  23.170  13.375
71296W        W30557   4.271  39.399   3.379
71297W        W30558  18.545  18.584  13.358
71298W        W30559  19.266   0.355  11.532
71299W        W30560   9.888  25.104   3.208
71300W        W30561  27.195   2.783  13.502
71301W        W30562  40.492  17.675  12.461
71302W        W30563   3.343  20.081  14.957
71303W        W30564  33.401   3.755  11.501
71304W        W30565  12.116  42.298  13.964
71305W        W30566  19.775  21.162   3.352
71306W        W30567   7.779  32.423  14.902
71307W        W30568  43.950  25.041   0.471
71308W        W30569  30.541  18.621   4.292
71309W        W30570  32.027  10.378  11.411
71310W        W30571  24.564   8.669  11.932
71311W        W30572  10.170  11.318   2.330
71312W        W30573   6.353   7.794  12.847
71313W        W30574  17.593  13.283   2.814
71314W        W30575  27.504   3.714   4.689
71315W        W30576   3.723  29.998   4.735
71316W        W30577  22.607   7.231  10.596
71317W        W30578   8.256  39.937  14.508
71318W        W30579   8.285  13.183  11.054
71319W        W30580   1.889  24.984  11.443
71320W        W30581  20.670  28.164   0.967
71321W        W30582  18.130  14.226  10.525
71322W        W30583  23.699  41.965   4.671
71323W        W30584  32.530   1.351  13.048
71324W        W30585   7.327  17.645  13.908
71325W        W30586  43.877  11.754   4.335
71326W        W30587  27.631   4.350   1.836
71327W        W30588  41.865  22.726   2.714
71328W        W30589  40.461  26.120  11.496
71329W        W30590  41.905   7.837   3.777
71330W        W30591   1.453   8.664   1.769
71331W        W30592  21.620  41.998  14.810
71332W        W30593   2.936   8.314  12.416
71333W        W30594  18.759  10.706   4.687
71334W        W30595  15.734  36.478  14.439
71335W        W30596  42.486  37.337  11.583
71336W        W30597   1.790  18.595   4.680
71337W        W30598  10.199  24.171  13.999
71338W        W30599  16.630  42.797   2.855
71339W        W30600   1.397  17.607   0.863
71340W        W30601  20.247  16.737   4.248
71341W        W30602  20.269  25.166   4.264
71342W        W30603   7.858  16.602  14.478
71343W        W30604   4.896  43.371   4.649
71344W        W30605  23.098  39.500  12.510
71345W        W30606  29.155   1.948  11.562
71346W        W30607   5.731  16.647   2.669
71347W        W30608  35.586  41.449   1.895
71348W        W30609  38.907  43.767   3.738
71349W        W30610  13.259  26.471   2.672
71350W        W30611  11.279  25.515  11.583
71351W        W30612  14.712  38.495   1.357
71352W        W30613  26.205  40.923   2.686
71353W        W30614  38.029   3.738   4.212
71354W        W30615   5.758  14.254   3.251
71355W        W30616  32.939  25.582  13.456
71356W        W30617  28.063  10.801   1.261
71357W        W30618   8.795  43.382   3.802
71358W        W30619  19.090  40.314   3.310
71359W        W30620   5.417  42.400   4.619
71360W        W30621  41.989  32.585   2.752
71361W        W30622  10.871  20.727   1.280
71362W        W30623  38.828   3.301  13.957
71363W        W30624   6.279  30.989   3.773
71364W        W30625   9.218  31.898  11.376
71365W        W30626   6.265  12.816  11.502
71366W        W30627   6.835   1.940  13.515
71367W        W30628  33.904  43.315  13.458
71368W        W30629  22.581  38.561   2.340
71369W        W30630  22.095   0.440   4.130
71370W        W30631  23.222   1.443   4.338
71371W        W30632  42.487  22.607   2.331
71372W        W30633   7.179  21.533   0.740
71373W        W30634  19.718  41.830  14.020
71374W        W30635  22.204  17.102  10.584
71375W        W30636   8.306  34.373  11.921
71376W        W30637  32.098   8.711  14.858
71377W        W30638  36.351  44.290   0.937
71378W        W30639  29.589  29.119   2.369
71379W        W30640   0.316  36.444   0.846
71380W        W30641  27.151   5.835  14.429
71381W        W30642  34.447  33.885   2.367
71382W        W30643  37.401   9.762  10.470
71383W        W30644  11.676  19.054   4.262
71384W        W30645   8.779  29.503   2.687
71385W        W30646  35.601  40.424  11.499
71386W        W30647  33.932  16.576   4.335
71387W        W30648  36.516  16.812   4.619
71388W        W30649   2.292  11.311   0.295
71389W        W30650  34.091  12.166   3.811
71390W        W30651   4.329  22.136   2.874
71391W        W30652  39.854   4.849   2.198
71392W        W30653  21.193   9.812  13.814
71393W        W30654   5.413  29.573  12.927
71394W        W30655  41.325  17.619   0.459
71395W        W30656   4.735  40.518   0.440
71396W        W30657  36.967  25.669   0.829
71397W        W30658  14.645  10.734   0.924
71398W        W30659   2.867  22.716   1.731
71399W        W30660  38.848  14.116  11.474
71400W        W30661  15.717  36.055  10.005
71401W        W30662  17.629  10.278   3.833
71402W        W30663   4.892  33.513   3.844
71403W        W30664  20.564  37.541  12.490
71404W        W30665  42.323  43.939   2.814
71405W        W30666  15.642  15.704  12.060
71406W        W30667  18.779   3.294   0.244
71407W        W30668  22.120  23.168  14.844
71408W        W30669  10.806   5.433  11.559
71409W        W30670  37.852  32.446  13.457
71410W        W30671  13.818  36.400   4.230
71411W        W30672  40.464  15.100   4.200
71412W        W30673  30.528  32.489   0.385
71413W        W30674  27.998  10.255   0.468
71414W        W30675  15.683   4.740  12.455
71415W        W30676  39.004  43.942  14.955
71416W        W30677  29.971  32.952  13.927
71417W        W30678  36.398   2.757  13.970
71418W        W30679   6.815  33.573   2.231
71419W        W30680  38.903   4.321  11.530
71420W        W30681  40.049  16.708   2.349
71421W        W30682  13.190  11.859  11.463
71422W        W30683  40.398  32.604   3.350
71423W        W30684  10.148  25.026  12.064
71424W        W30685   2.961  34.059   4.734
71425W        W30686  42.980   8.816   9.961
71426W        W30687  30.981  23.720  10.050
71427W        W30688  43.449  17.114  13.981
71428W        W30689  39.555  32.483  14.412
71429W        W30690  28.156  26.612   4.293
71430W        W30691  33.041  14.230   4.633
71431W        W30692  24.188  41.485  14.490
71432W        W30693  39.056  12.338  13.962
71433W        W30694  41.826   2.362  10.587
71434W        W30695   1.421  39.485   4.635
71435W        W30696  36.061  11.796   0.742
71436W        W30697   1.974  32.526   0.375
71437W        W30698  20.592  17.705  14.430
71438W        W30699  33.504  21.600   2.872
71439W        W30700  25.066  22.737   1.707
71440W        W30701  21.214  30.959  14.891
71441W        W30702  37.457  43.818   9.957
71442W        W30703  18.666   1.964  14.977
71443W        W30704  17.654  14.822   4.818
71444W        W30705  31.100  12.844   0.904
71445W        W30706   2.824  21.619  12.481
71446W        W30707   8.284  21.679  13.032
71447W        W30708  20.706   6.783  14.363
71448W        W30709  37.992  25.195   4.691
71449W        W30710  42.945  19.145  14.401
71450W        W30711  19.075  30.996  12.905
71451W        W30712  41.864  23.570  11.988
71452W        W30713  22.181  14.095   0.412
71453W        W30714   8.180  11.648   3.232
71454W        W30715   2.304  11.245  12.069
71455W        W30716  27.966  42.484   3.381
71456W        W30717  13.263   4.303   3.224
71457W        W30718   9.847  30.653  12.947
71458W        W30719  21.063  29.532  10.569
71459W        W30720  20.730  37.002  10.476
71460W        W30721   9.811  24.675  12.935
71461W        W30722   3.389   8.165   2.308
71462W        W30723  40.952  40.016   0.345
71463W        W30724  28.668  33.619   2.744
71464W        W30725   1.417  42.844   1.922
71465W        W30726  32.422  11.769  10.642
71466W        W30727   5.294  11.307  10.959
71467W        W30728   0.304  40.998  13.546
71468W        W30729  12.292  11.637  10.432
71469W        W30730   0.492  43.377   1.877
71470W        W30731  42.816  14.818   4.630
71471W        W30732   1.832  12.784   2.212
71472W        W30733  11.300  15.788  13.374
71473W        W30734  38.520  32.034  12.036
71474W        W30735   7.816   2.308   4.205
71475W        W30736   7.323  31.545   3.830
71476W        W30737   9.218  13.825   1.813
71477W        W30738  32.089   3.890   1.852
71478W        W30739  42.796  33.411  13.794
71479W        W30740  32.929  17.262   1.345
71480W        W30741   8.219  41.524   0.345
71481W        W30742  24.218  18.052   0.349
71482W        W30743  10.380  35.006   0.773
71483W        W30744  35.921  10.295   4.257
71484W        W30745  13.203   2.835   3.644
71485W        W30746  29.581  39.441  12.444
71486W        W30747  17.105  10.250  14.298
71487W        W30748  22.021  31.940  12.970
71488W        W30749   8.379   0.769   2.364
71489W        W30750  16.074   9.679   3.860
71490W        W30751  22.730   3.726   2.852
71491W        W30752  33.057  17.604  10.605
71492W        W30753   6.347  21.212   4.701
71493W        W30754  29.451  28.482  14.878
71494W        W30755  33.519  25.128  11.546
71495W        W30756  22.730   3.764  10.433
71496W        W30757   1.759   1.792   2.682
71497W        W30758   0.312  17.671  13.966
71498W        W30759  11.220   6.697  11.898
71499W        W30760  25.571  31.111   2.871
71500W        W30761  25.617  21.051  13.006
71501W        W30762  18.129  25.620   1.262
71502W        W30763  40.940  39.501   3.755
71503W        W30764  42.505  36.484  13.793
71504W        W30765  16.280  20.154   3.840
71505W        W30766  28.134  12.747   3.680
71506W        W30767  36.089  18.255   1.801
71507W        W30768  20.568  40.968   4.699
71508W        W30769  33.617  18.295  11.391
71509W        W30770  43.443  20.071   1.709
71510W        W30771   7.856  39.825   4.303
71511W        W30772   8.698  42.400   4.151
71512W        W30773  18.571  26.164   2.185
71513W        W30774  28.616  17.801   0.799
71514W        W30775   2.750  34.902  11.454
71515W        W30776  33.962  41.024   0.780
71516W        W30777  30.657  34.483   0.475
71517W        W30778  11.237  35.491  14.404
71518W        W30779  39.374   0.887   2.688
71519W        W30780   1.263  19.649   4.638
71520W        W30781  43.514  27.977  12.439
71521W        W30782   2.720   0.494   0.884
71522W        W30783   9.317  40.860   2.405
71523W        W30784   9.804   5.900  13.970
71524W        W30785  20.567   9.334  14.020
71525W        W30786   1.312  33.536   2.381
71526W        W30787   7.240  23.606   0.337
71527W        W30788  12.152  20.689   0.731
71528W        W30789   6.876  36.446  14.470
71529W        W30790  39.409  39.371   4.186
71530W        W30791  43.815   8.769  12.413
71531W        W30792  42.511  36.007  10.962
71532W        W30793   7.889  18.546   0.736
71533W        W30794  15.766  14.174   4.117
71534W        W30795  17.111  34.377  13.869
71535W        W30796  42.025   3.924   2.737
71536W        W30797  43.784  26.566   3.203
71537W        W30798   9.277  31.088  13.449
71538W        W30799   4.371  30.074  14.966
71539W        W30800  27.496  25.199  11.582
71540W        W30801  24.171   8.663  13.015
71541W        W30802  12.652  25.503   2.899
71542W        W30803   2.370  20.539   0.409
71543W        W30804  32.423  10.204  11.855
71544W        W30805  36.541   9.850  13.446
71545W        W30806  40.357  40.304   2.404
71546W        W30807  39.918  34.985   0.370
71547W        W30808   0.796  10.312   0.451
71548W        W30809   9.199  38.847  13.801
71549W        W30810  20.203  42.413  14.767
71550W        W30811  10.666  11.723   1.788
71551W        W30812  39.425  23.641   3.665
71552W        W30813  29.641  17.126   4.323
71553W        W30814  24.010  41.016  13.011
71554W        W30815  30.461  41.393   2.276
71555W        W30816  28.565  41.844  13.918
71556W        W30817  39.997   3.773  11.943
71557W        W30818  20.055  25.204  12.934
71558W        W30819  39.956  27.060   0.885
71559W        W30820  15.153   0.346  11.378
71560W        W30821  29.018  16.588  14.372
71561W        W30822   9.393   8.692   0.824
71562W        W30823  11.861  44.303   4.306
71563W        W30824  36.901  39.948  13.976
71564W        W30825   7.904  20.081   1.371
71565W        W30826  37.001  40.375   0.764
71566W        W30827  25.083  19.684  12.475
71567W        W30828  26.471   1.751   1.400
71568W        W30829  41.418   9.281  13.819
71569W        W30830  25.178  40.959   2.304
71570W        W30831  22.700  24.587  14.030
71571W        W30832  27.597  14.684  10.967
71572W        W30833   9.255   4.265  12.390
71573W        W30834  16.681  20.072  12.852
71574W        W30835  41.464  39.523   2.841
71575W        W30836  11.808  28.157   3.255
71576W        W30837   1.815   8.338   4.696
71577W        W30838  12.797  40.395   4.778
71578W        W30839  20.603  21.612  13.493
71579W        W30840   7.686  10.789  11.467
71580W        W30841  33.486  31.542  11.886
71581W        W30842  30.572  22.713  10.548
71582W        W30843  17.245  15.204   2.858
71583W        W30844  20.116   0.829  11.382
71584W        W30845  32.577  30.595  14.025
71585W        W30846  15.184   1.918   2.307
71586W        W30847  23.186  42.400  10.969
71587W        W30848  12.151  22.585   4.824
71588W        W30849  30.965   7.333  14.997
71589W        W30850  20.177  29.927   0.318
71590W        W30851  15.712  33.913  11.075
71591W        W30852  27.079  19.629  14.974
71592W        W30853  10.145  36.841   3.672
71593W        W30854  17.082  40.047  10.588
71594W        W30855   6.845   0.294   0.369
71595W        W30856  23.219  29.988   0.453
71596W        W30857   8.210  14.814  13.426
71597W        W30858  36.060  32.047  12.923
71598W        W30859  42.488   5.331  12.943
71599W        W30860  35.411  42.972   1.784
71600W        W30861   5.439  29.152  13.941
71601W        W30862  20.169  17.691   3.750
71602W        W30863   5.757  13.301   4.350
71603W        W30864  27.160   6.423  13.325
71604W        W30865  31.035  16.285   2.401
71605W        W30866  30.593  21.705   2.800
71606W        W30867  18.701  27.144   0.924
71607W        W30868  25.985  38.332   3.799
71608W        W30869   2.299  19.559   3.169
71609W        W30870  26.094  42.867   4.809
71610W        W30871  15.745  16.647   3.243
71611W        W30872  33.950   3.899   0.383
71612W        W30873  25.617   2.268  11.100
71613W        W30874  17.642  40.306  12.825
71614W        W30875   4.814  15.240   4.765
71615W        W30876  17.270  11.659   0.738
71616W        W30877  22.583  36.046   2.389
71617W        W30878  27.522  20.108  11.938
71618W        W30879  42.940  25.011  14.406
71619W        W30880  25.064  42.873   0.831
71620W        W30881  25.204   6.291  11.104
71621W        W30882  34.985  26.063  11.095
71622W        W30883  42.906  37.482  13.320
71623W        W30884  40.378   4.227  14.936
71624W        W30885  18.245  10.250   3.849
71625W        W30886  14.596   2.964   9.976
71626W        W30887  22.712  18.772  14.904
71627W        W30888  37.472   7.203   2.889
71628W        W30889  30.509  29.148  13.044
71629W        W30890  19.653  34.531   1.726
71630W        W30891  31.644  21.699   2.408
71631W        W30892   7.865   8.688   5.803
71632W        W30893  17.665  33.408   0.246
71633W        W30894  33.616  38.942   3.252
71634W        W30895  35.982   1.918  14.966
71635W        W30896  40.311  16.615  12.409
71636W        W30897  23.061  23.033   4.813
71637W        W30898  34.577   3.224   0.292
71638W        W30899  13.283  27.178   4.350
71639W        W30900  35.402  10.224   0.386
71640W        W30901  15.109  11.673   2.738
71641W        W30902  38.997  18.134  12.506
71642W        W30903   7.681  32.519   3.380
71643W        W30904   2.751  43.999  14.506
71644W        W30905  28.977   7.272   0.927
71645W        W30906  29.006  24.593  10.444
71646W        W30907   7.305  42.899  10.467
71647W        W30908  29.630   1.911  14.313
71648W        W30909  33.082  42.407   3.181
71649W        W30910   4.742  28.549   1.879
71650W        W30911   2.867  24.985   4.220
71651W        W30912  13.176  16.154  11.959
71652W        W30913   4.361  33.059   1.256
71653W        W30914  41.494  11.284   2.299
71654W        W30915   7.338  30.591  12.342
71655W        W30916  36.429   1.357  11.494
71656W        W30917  10.326  44.969  12.413
71657W        W30918  20.269  11.334  11.945
71658W        W30919  29.558  28.930   2.677
71659W        W30920  35.870  43.311   2.700
71660W        W30921   2.916  22.579  14.372
71661W        W30922  26.595   2.471   1.734
71662W        W30923   5.346  34.489  14.335
71663W        W30924  23.650  15.214  10.958
71664W        W30925  15.192  27.077  10.467
71665W        W30926   8.771   7.759   4.306
71666W        W30927  13.614  34.485  10.523
71667W        W30928  11.349  31.556  12.899
71668W        W30929  18.781  35.592  12.540
71669W        W30930  13.195   7.697   2.372
71670W        W30931  22.623  43.016  12.959
71671W        W30932  17.099  22.154   4.271
71672W        W30933  43.442  10.228  13.315
71673W        W30934  35.915  14.220  10.438
71674W        W30935   3.733   8.704   1.706
71675W        W30936  16.105  17.598  12.834
71676W        W30937  12.813  34.053   2.702
71677W        W30938  35.035  40.404   2.893
71678W        W30939  32.574  10.677  11.048
71679W        W30940  39.484  42.369   1.746
71680W        W30941  38.820  22.671   0.396
71681W        W30942  37.574  36.907  14.429
71682W        W30943   4.875  38.373   2.371
71683W        W30944  11.342   6.888   2.772
71684W        W30945  43.432   0.368  14.888
71685W        W30946   0.817   3.818   1.268
71686W        W30947   1.833  27.045  11.964
71687W        W30948  26.560   2.826  13.018
71688W        W30949  34.884   5.893   0.827
71689W        W30950  31.081  31.933   0.828
71690W        W30951  32.526  17.222   2.834
71691W        W30952   6.857  32.932   2.761
71692W        W30953  36.045  12.270  12.881
71693W        W30954  25.117  42.316  14.856
71694W        W30955   4.785  11.859   1.922
71695W        W30956  12.826   1.942  12.080
71696W        W30957  13.194  21.062  13.907
71697W        W30958   2.390  17.696  12.364
71698W        W30959   8.300  32.523  13.457
71699W        W30960  44.810  16.566  13.916
71700W        W30961  11.367   0.965  11.010
71701W        W30962  29.004  42.013  13.857
71702W        W30963  43.960  40.002   1.236
71703W        W30964   0.909  41.449  13.910
71704W        W30965   8.373  13.294  14.934
71705W        W30966  18.073  21.570  12.883
71706W        W30967   3.423   4.840  10.488
71707W        W30968  37.078  32.092   0.472
71708W        W30969  26.584  22.576   3.778
71709W        W30970  41.991  19.567  11.434
71710W        W30971   1.281  34.079   2.223
71711W        W30972  33.022  21.524  12.494
71712W        W30973  23.205  33.079  14.924
71713W        W30974   0.943  34.962  11.094
71714W        W30975   5.805  11.362   4.188
71715W        W30976  43.340  14.307  13.966
71716W        W30977  23.116  24.180  12.401
71717W        W30978  29.951  26.555   2.370
71718W        W30979  25.203  26.040   2.725
71719W        W30980   4.277   5.810   5.216
71720W        W30981  31.063  13.617  13.027
71721W        W30982  19.542  29.921   1.436
71722W        W30983  15.753  37.955   0.768
71723W        W30984  24.664   3.251  13.485
71724W        W30985  25.510  26.102   0.416
71725W        W30986  31.645  10.292  10.908
71726W        W30987  37.006  38.819   0.920
71727W        W30988  25.217  24.527   2.880
71728W        W30989  12.780   2.950   2.180
71729W        W30990  19.164  23.628   4.710
71730W        W30991  12.168  29.065  14.377
71731W        W30992  44.769  43.993  13.049
71732W        W30993   9.787  38.944   3.819
71733W        W30994  30.945  43.406  12.437
71734W        W30995  41.017   9.855  14.507
71735W        W30996  33.442  11.682  14.892
71736W        W30997   0.907  22.693  12.978
71737W        W30998  38.469  41.515  13.980
71738W        W30999  36.443   4.343   4.783
71739W        W31000  36.099  38.989   0.900
71740W        W31001   4.372  27.542  14.781
71741W        W31002   5.851  38.833  14.972
71742W        W31003   2.843  23.593   0.809
71743W        W31004  31.453  23.499   3.789
71744W        W31005  15.663   6.249  12.543
71745W        W31006  15.161  32.111  13.876
71746W        W31007  43.774  42.980   1.246
71747W        W31008  35.094   0.470  10.419
71748W        W31009  41.496  29.525  12.007
71749W        W31010  10.322  39.448   3.787
71750W        W31011  12.199  33.084   0.320
71751W        W31012  10.668  19.053  12.823
71752W        W31013   8.203  23.046  11.090
71753W        W31014  24.078  43.777   3.337
71754W        W31015  30.081   4.927   0.411
71755W        W31016  32.546   3.756   3.267
71756W        W31017  22.593  36.415  14.862
71757W        W31018   8.289   6.703   1.359
71758W        W31019  13.796  12.219   1.339
71759W        W31020  19.136   7.372   4.186
71760W        W31021  13.166   1.775   4.287
71761W        W31022  18.137  35.984   1.347
71762W        W31023  10.764   2.446   2.870
71763W        W31024  33.403  11.249   1.919
71764W        W31025   7.332  35.573  13.857
71765W        W31026   7.717  19.654  10.473
71766W        W31027  37.863  17.203  10.069
71767W        W31028  35.551  12.793  12.846
71768W        W31029  27.657  18.139   4.253
71769W        W31030   1.821   1.767  10.440
71770W        W31031  43.782   2.948  11.114
71771W        W31032   4.739  21.698  11.086
71772W        W31033  22.728  15.684   3.360
71773W        W31034  31.435  23.491  10.888
71774W        W31035  41.491  43.852   2.328
71775W        W31036  38.974  11.213   2.398
71776W        W31037  40.836  40.971  13.428
71777W        W31038  44.834  16.585  10.597
71778W        W31039  21.126  30.024   0.469
71779W        W31040  40.803   7.243   0.960
71780W        W31041  21.678  32.449   1.301
71781W        W31042  19.643  23.523   0.330
71782W        W31043   0.878  19.571  13.405
71783W        W31044  10.315  32.918   2.402
71784W        W31045  41.855   5.257   4.826
71785W        W31046  12.284   3.459  13.033
71786W        W31047  15.196   2.408  10.636
71787W        W31048  31.979  20.266   0.737
71788W        W31049  35.567   0.430   0.264
71789W        W31050   4.885   6.374   2.836
71790W        W31051   2.860   0.980  14.805
71791W        W31052  32.006  13.280  12.461
71792W        W31053  18.789  27.534  13.465
71793W        W31054  11.241  44.377  12.476
71794W        W31055   0.891  13.795  11.038
71795W        W31056  12.258  24.666  13.524
71796W        W31057  30.968  16.631   0.360
71797W        W31058  20.230  30.944  10.619
71798W        W31059  13.207  40.911   2.394
71799W        W31060  34.413  21.069   2.662
71800W        W31061  20.168  11.226   0.329
71801W        W31062  32.128  27.645  13.350
71802W        W31063  20.029  29.613  12.852
71803W        W31064  11.216   2.944   2.723
71804W        W31065  44.411  17.100   2.236
71805W        W31066  16.703  29.969   1.220
71806W        W31067  14.235   9.783  12.922
71807W        W31068   3.785  10.707   1.227
71808W        W31069  30.165  28.443  13.008
71809W        W31070  17.703   1.803  10.893
71810W        W31071   9.259  38.430   0.429
71811W        W31072  29.662   4.369   1.905
71812W        W31073  21.521  12.610  12.576
71813W        W31074  36.861  27.123  14.799
71814W        W31075  39.359  36.440   4.625
71815W        W31076  15.213  19.163  10.406
71816W        W31077  41.813  35.012   1.810
71817W        W31078  31.494   4.220  13.980
71818W        W31079  14.657  44.930   1.213
71819W        W31080  29.497  24.069  13.361
71820W        W31081  17.615  19.691   1.278
71821W        W31082  24.138   4.427  12.004
71822W        W31083  36.022  27.521  14.502
71823W        W31084  29.142  19.604  14.963
71824W        W31085  23.008  37.437  10.546
71825W        W31086  32.066  11.233   1.711
71826W        W31087   2.945  35.862   2.184
71827W        W31088  23.664  43.917   0.867
71828W        W31089  38.465  13.106   4.738
71829W        W31090  31.950  25.504   0.454
71830W        W31091  38.932  35.496  13.426
71831W        W31092   3.727  27.195  12.516
71832W        W31093  32.904  14.222  13.511
71833W        W31094   1.277  18.626   0.353
71834W        W31095   1.402   6.408  12.508
71835W        W31096  35.581   5.775   2.710
71836W        W31097   2.721  16.789   1.226
71837W        W31098  39.884  16.678   1.363
71838W        W31099  36.094   8.305  11.425
71839W        W31100  16.667  25.214   1.880
71840W        W31101  22.164   4.249  10.929
71841W        W31102  26.614  33.062  12.392
71842W        W31103  34.090   2.954  10.993
71843W        W31104  14.177   0.956   0.338
71844W        W31105  41.981  33.416   2.337
71845W        W31106  11.166  33.053   3.280
71846W        W31107  14.752   4.886   4.704
71847W        W31108  30.148  42.914   4.749
71848W        W31109   5.823  33.080  11.479
71849W        W31110  43.957   5.789   2.672
71850W        W31111  22.712   1.920  10.101
71851W        W31112  15.735  40.542  14.931
71852W        W31113  32.014  20.222  14.862
71853W        W31114   9.178   1.840  13.426
71854W        W31115  24.078  31.556   3.798
71855W        W31116  29.041   6.356   1.784
71856W        W31117  43.806  22.524  13.457
71857W        W31118   5.223  16.276  14.828
71858W        W31119  28.043   0.460  13.466
71859W        W31120  23.180  20.081   4.232
71860W        W31121  15.216  12.847   1.293
71861W        W31122  16.810  19.064   2.191
71862W        W31123  16.241  30.473  12.343
71863W        W31124  35.069  40.824  12.362
71864W        W31125  18.164  19.778  14.002
71865W        W31126  13.198  43.902   4.232
71866W        W31127  11.350  24.985  11.960
71867W        W31128  37.875  39.818  11.516
71868W        W31129  34.434  42.795   0.306
71869W        W31130   9.758  17.260  13.925
71870W        W31131   1.815  17.294   3.224
71871W        W31132  14.672  24.227   0.357
71872W        W31133  30.046  40.810   3.351
71873W        W31134   7.233  36.909   0.267
71874W        W31135  39.813  14.637   4.787
71875W        W31136  24.685  32.090   4.143
71876W        W31137  42.861   1.783   2.266
71877W        W31138  19.119  35.066  13.794
71878W        W31139   8.810  15.320   2.863
71879W        W31140   7.827  41.511  14.872
71880W        W31141  29.455  19.070  13.379
71881W        W31142  18.267  35.471   0.374
71882W        W31143  44.279  35.367  14.994
71883W        W31144  27.569  23.196   3.659
71884W        W31145  34.574  37.024  10.958
71885W        W31146  32.540  35.022  14.814
71886W        W31147  30.033  31.564   3.660
71887W        W31148   1.476   5.380  12.058
71888W        W31149  28.518   1.292  14.959
71889W        W31150  15.140   7.820  13.322
71890W        W31151  44.834  17.732   3.853
71891W        W31152  27.987   0.412   3.651
71892W        W31153  31.455  22.208  10.405
71893W        W31154  42.812   8.231   4.321
71894W        W31155  36.951  34.958  14.916
71895W        W31156  32.579   5.229  11.399
71896W        W31157  31.571  39.352  11.073
71897W        W31158  15.605  43.312  12.988
71898W        W31159  14.721  34.873  13.938
71899W        W31160  16.273  29.918  11.107
71900W        W31161  36.370  19.103   3.739
71901W        W31162  32.434  24.212   1.769
71902W        W31163  44.000  38.910  11.381
71903W        W31164  44.336   8.370   4.807
71904W        W31165  18.206   2.270  10.435
71905W        W31166   7.861  29.147   4.812
71906W        W31167  31.606  24.142   0.431
71907W        W31168  43.508   7.793   1.897
71908W        W31169  19.679  43.780   0.348
71909W        W31170  28.124  30.504  11.535
71910W        W31171  12.296  16.285   5.310
71911W        W31172  42.284   4.785   4.799
71912W        W31173  33.916  34.584   4.222
71913W        W31174  39.063  28.470   2.898
71914W        W31175  29.446  43.494  13.536
71915W        W31176  14.255  12.231  11.562
71916W        W31177  32.476  28.003  10.926
71917W        W31178  43.774  19.582   4.261
71918W        W31179  37.363  36.388  13.450
71919W        W31180  20.634  10.769  14.817
71920W        W31181   6.221   5.724   1.302
71921W        W31182  30.039  36.582  12.406
71922W        W31183  14.281  22.123  14.846
71923W        W31184  30.046  27.636   2.332
71924W        W31185   7.362  44.395   4.653
71925W        W31186  26.116  19.076  12.492
71926W        W31187   6.874  41.897  12.926
71927W        W31188  40.050  36.911   0.758
71928W        W31189  30.096  21.091   2.877
71929W        W31190  40.023  42.005  13.317
71930W        W31191  34.477  26.676   3.835
71931W        W31192  27.075   9.266  10.524
71932W        W31193  35.917   0.401  14.466
71933W        W31194   3.749  15.116  14.833
71934W        W31195  21.573  44.898  12.411
71935W        W31196  14.799  18.091   5.108
71936W        W31197  30.564  20.182   4.131
71937W        W31198  16.196  14.688  11.027
71938W        W31199   4.749   7.242   2.391
71939W        W31200  29.526  32.047   5.307
71940W        W31201  17.589   7.730   1.922
71941W        W31202  31.433  13.678  13.938
71942W        W31203  21.251  33.560   2.819
71943W        W31204  28.080  10.875  11.903
71944W        W31205  31.050  16.242  14.853
71945W        W31206  42.964  43.490   1.882
71946W        W31207  16.152   2.733   3.651
71947W        W31208  43.317   7.191  14.311
71948W        W31209  41.882   8.886  14.880
71949W        W31210  26.519  31.973  13.445
71950W        W31211  27.948  24.703   5.190
71951W        W31212   2.782  37.887   4.294
71952W        W31213  38.570   8.759  14.289
71953W        W31214   9.385  25.585  14.922
71954W        W31215  27.184  27.154   2.852
71955W        W31216  15.799  19.716   0.365
71956W        W31217  23.645  19.637   3.319
71957W        W31218  34.406   7.688  11.384
71958W        W31219  14.307  26.073  13.489
71959W        W31220  27.086  16.786  14.906
71960W        W31221   4.272   4.850   2.856
71961W        W31222  15.674  29.138  13.477
71962W        W31223  14.761  41.338  13.062
71963W        W31224  14.320   6.376   2.237
71964W        W31225  20.746  21.260   3.687
71965W        W31226  27.146  20.551   0.407
71966W        W31227  32.557   0.896   3.763
71967W        W31228   6.834   1.899  14.009
71968W        W31229  19.221  29.536   3.732
71969W        W31230  18.140  44.292   3.773
71970W        W31231  23.073  15.084   1.239
71971W        W31232  14.118   2.874   5.573
71972W        W31233  44.881  10.761  11.869
71973W        W31234  41.043  43.012  13.985
71974W        W31235  34.423  27.646  13.324
71975W        W31236  38.404  21.669  10.990
71976W        W31237  27.517  42.865  12.506
71977W        W31238  17.211  10.346   9.991
71978W        W31239  23.674  14.709   3.190
71979W        W31240  35.577  12.612   4.351
71980W        W31241  14.313  43.980  12.560
71981W        W31242  10.236  39.545  12.047
71982W        W31243  21.624  21.596   0.925
71983W        W31244  18.637  41.848  13.328
71984W        W31245  44.975  40.408  11.929
71985W        W31246  30.023  22.094   3.251
71986W        W31247  40.373  15.781   9.991
71987W        W31248   9.365  39.848  12.366
71988W        W31249  33.917  36.352  11.859
71989W        W31250  31.110  16.572   3.348
71990W        W31251  18.626  25.665  13.521
71991W        W31252  15.315  13.228   2.843
71992W        W31253  29.938  32.450   5.119
71993W        W31254  11.831   6.331  14.374
71994W        W31255  30.485  44.438   0.380
71995W        W31256   8.855   5.753   4.159
71996W        W31257  11.779  17.110  12.847
71997W        W31258  38.055  19.621  13.026
71998W        W31259   2.740  38.896  14.948
71999W        W31260  35.435  42.405  13.893
72000W        W31261  27.027  30.073   1.250
72001W        W31262   5.354  13.178  10.027
72002W        W31263  21.202  14.212   3.645
72003W        W31264  31.995   7.753  13.797
72004W        W31265   4.721  12.853   2.272
72005W        W31266  25.000  11.752   4.253
72006W        W31267  31.614  42.313  12.442
72007W        W31268   3.867  40.454   4.789
72008W        W31269   5.437   1.739   2.378
72009W        W31270  42.306   9.740   1.886
72010W        W31271  40.869  25.486  14.950
72011W        W31272  44.923  39.926  14.798
72012W        W31273  11.323   3.786  13.434
72013W        W31274   5.899  43.273   1.385
72014W        W31275  12.729   4.365  13.485
72015W        W31276  33.622  24.576   2.258
72016W        W31277  37.994  11.689   2.884
72017W        W31278   1.949  31.482   3.204
72018W        W31279  23.174  13.777  13.859
72019W        W31280  33.526  26.467  10.088
72020W        W31281  43.376  38.553  13.916
72021W        W31282  25.042  38.376   1.734
72022W        W31283  40.037  40.919   4.282
72023W        W31284  17.653  30.630  13.884
72024W        W31285   0.862  24.062  11.952
72025W        W31286  17.731  37.043   4.169
72026W        W31287   6.198  31.537  14.003
72027W        W31288  17.605  32.954   2.215
72028W        W31289  43.810  37.347  11.045
72029W        W31290  23.199  34.604   0.386
72030W        W31291   2.856  23.555   1.917
72031W        W31292  25.576  22.061   1.358
72032W        W31293  12.623  40.434  12.850
72033W        W31294  30.100  24.639  10.525
72034W        W31295  34.032  23.631   4.270
72035W        W31296  28.168  23.631   4.622
72036W        W31297  14.208   3.263  14.408
72037W        W31298  23.636   0.840   2.287
72038W        W31299   9.318  13.830  13.801
72039W        W31300  38.515  13.307  13.835
72040W        W31301   0.413  40.509  12.829
72041W        W31302  20.568  31.147   1.816
72042W        W31303  16.709  29.511  12.523
72043W        W31304  16.099  19.285   0.870
72044W        W31305  18.652  14.782  14.918
72045W        W31306  27.191  28.167   1.302
72046W        W31307  26.476  15.149   1.815
72047W        W31308  16.577  35.570  14.777
72048W        W31309   1.937   7.235   2.204
72049W        W31310  32.083  23.227   3.797
72050W        W31311  37.347  11.299   3.340
72051W        W31312  27.958  29.001  14.986
72052W        W31313   0.748  41.903   0.854
72053W        W31314  37.369  15.097   4.606
72054W        W31315  27.502  37.511  13.330
72055W        W31316  32.426  10.653   9.443
72056W        W31317  26.495   1.383  12.938
72057W        W31318  42.370  19.141  10.933
72058W        W31319  39.343  14.093   3.268
72059W        W31320   5.795  39.433  11.376
72060W        W31321  29.096  30.111   0.363
72061W        W31322  42.947   6.416   4.816
72062W        W31323  37.345  23.064   2.828
72063W        W31324   8.325  37.478  14.019
72064W        W31325  22.598  14.240   4.329
72065W        W31326  34.915  31.996  10.014
72066W        W31327  32.403  14.159  13.469
72067W        W31328  16.229  35.399   2.211
72068W        W31329  29.520   7.187   3.165
72069W        W31330  11.677  36.027   4.732
72070W        W31331   8.204  35.517   0.811
72071W        W31332   4.391  28.544   2.797
72072W        W31333   9.214  18.617  14.453
72073W        W31334  39.914  20.207  13.401
72074W        W31335  44.769  44.933  11.966
72075W        W31336  33.586  37.402  12.967
72076W        W31337  17.578   7.302   1.346
72077W        W31338  27.111   5.833   3.227
72078W        W31339   5.795  42.022  13.335
72079W        W31340  11.215  41.846  13.954
72080W        W31341   9.328  29.546  10.021
72081W        W31342  22.071  21.535   3.304
72082W        W31343  17.630  22.033  11.933
72083W        W31344  22.649  23.658  11.084
72084W        W31345  25.145  43.894   1.344
72085W        W31346   8.844  41.864   0.864
72086W        W31347  16.318  19.542  11.486
72087W        W31348   3.765  41.034   4.614
72088W        W31349   7.328  28.163   2.322
72089W        W31350   7.843  13.350   1.228
72090W        W31351  39.809   0.757  10.965
72091W        W31352  39.418  27.138   4.175
72092W        W31353   4.942  15.743   0.347
72093W        W31354  33.429  24.719   0.312
72094W        W31355  15.772  39.382  13.935
72095W        W31356  24.650  28.662   2.795
72096W        W31357  18.196  25.608  10.896
72097W        W31358   2.335  14.719   3.213
72098W        W31359  43.902  18.285   4.202
72099W        W31360  23.190   5.689  10.982
72100W        W31361  24.664  23.220   2.696
72101W        W31362  21.132  30.981  11.085
72102W        W31363  10.168  14.724   1.880
72103W        W31364  18.748  42.801  14.857
72104W        W31365  43.019  31.101   2.795
72105W        W31366   6.804   8.255   0.336
72106W        W31367  26.021   3.894   3.667
72107W        W31368  28.508  30.462  12.447
72108W        W31369   4.374   8.773  11.591
72109W        W31370  19.766   6.268   3.657
72110W        W31371  12.157  42.845   4.815
72111W        W31372  41.952  34.934   2.307
72112W        W31373  22.644  39.341   1.797
72113W        W31374  35.945   6.369  14.016
72114W        W31375  16.229  39.033   0.306
72115W        W31376  24.166   5.371   3.235
72116W        W31377  12.204  11.627   1.436
72117W        W31378  35.959   5.205   1.385
72118W        W31379  15.677  11.761  13.869
72119W        W31380  19.711   1.782  12.463
72120W        W31381  25.504  23.166   2.185
72121W        W31382   6.325   7.278   5.132
72122W        W31383  33.431  13.208  11.983
72123W        W31384  28.628   2.237   4.259
72124W        W31385  23.614  39.475   0.788
72125W        W31386  10.800  28.144   1.272
72126W        W31387  39.937  14.815   2.308
72127W        W31388   4.944  41.380  13.353
72128W        W31389  42.781  39.356  14.321
72129W        W31390  32.130  32.622  12.004
72130W        W31391  38.012  22.582   3.222
72131W        W31392  10.840  21.226  12.947
72132W        W31393  19.183  24.010   2.405
72133W        W31394  31.910  13.751   0.430
72134W        W31395   9.758   7.897   4.309
72135W        W31396  23.680  31.078  12.990
72136W        W31397  14.685  40.364   1.439
72137W        W31398  14.130   5.695  10.910
72138W        W31399  28.124  13.842  14.760
72139W        W31400  33.509  19.183  12.949
72140W        W31401  35.900  31.940  13.882
72141W        W31402   2.419  17.674   1.869
72142W        W31403  16.794  34.588   2.259
72143W        W31404   4.800  10.186  14.951
72144W        W31405  17.155  18.639  11.542
72145W        W31406  36.475   3.720  14.401
72146W        W31407  41.043  40.809   0.276
72147W        W31408  43.001  20.573  14.325
72148W        W31409  34.970  44.468  13.411
72149W        W31410   5.356  33.396   4.669
72150W        W31411  34.897   5.365   4.650
72151W        W31412  37.581  32.951   1.715
72152W        W31413   3.727   0.944  10.008
72153W        W31414  40.948  27.967  14.007
72154W        W31415  35.999   7.830   4.244
72155W        W31416  18.164   0.770  10.478
72156W        W31417  11.202  21.018  14.437
72157W        W31418  23.720  39.525  11.559
72158W        W31419  11.362   2.287   4.634
72159W        W31420   7.886  23.179  10.493
72160W        W31421  12.172  19.150   1.399
72161W        W31422  19.689  37.467  14.849
72162W        W31423   2.829   4.335   2.745
72163W        W31424  38.867  29.946   0.315
72164W        W31425  38.057  32.450   4.654
72165W        W31426   4.884  42.028   4.226
72166W        W31427  43.905  27.507   0.426
72167W        W31428  16.240  37.980  12.974
72168W        W31429   7.176  23.666   1.731
72169W        W31430  37.843  32.931  11.099
72170W        W31431  37.002  21.121   3.667
72171W        W31432  32.581   2.454   4.260
72172W        W31433   9.848  38.879  13.369
72173W        W31434  23.219  31.455  11.867
72174W        W31435   3.292  26.997  10.619
72175W        W31436  44.421  41.818  13.439
72176W        W31437  42.871   5.347   3.674
72177W        W31438   1.923  36.874   1.731
72178W        W31439  13.837  41.810  10.600
72179W        W31440  12.736   2.777   0.841
72180W        W31441   4.339  25.618   3.810
72181W        W31442  40.405  30.603   2.230
72182W        W31443   6.353   8.333   1.431
72183W        W31444   0.407  14.267   2.717
72184W        W31445  28.551  38.985   1.833
72185W        W31446  12.822  17.802  12.980
72186W        W31447  19.158  21.602   0.945
72187W        W31448  44.444  40.947  14.865
72188W        W31449  35.456   4.808  14.403
72189W        W31450  37.549  10.306  14.301
72190W        W31451  37.970  44.864  11.918
72191W        W31452   9.734  26.094  12.969
72192W        W31453  18.187   3.831   4.628
72193W        W31454  18.055  14.106   1.450
72194W        W31455  19.164   2.370   3.158
72195W        W31456  38.024   9.674  11.528
72196W        W31457  24.669   3.276   1.897
72197W        W31458  41.810  14.601  12.948
72198W        W31459  29.602  17.781  14.289
72199W        W31460  12.844  20.695  12.042
72200W        W31461  25.083  39.432  13.834
72201W        W31462  10.219   7.195  14.960
72202W        W31463  25.053  28.970   0.264
72203W        W31464   1.242  36.850  14.354
72204W        W31465  23.696   3.814   2.321
72205W        W31466   1.317  37.961  12.399
72206W        W31467  33.523  25.489  12.485
72207W        W31468  13.612  28.469   3.309
72208W        W31469  31.024   8.255   3.274
72209W        W31470  26.635  42.813   2.218
72210W        W31471  16.632  12.337   2.194
72211W        W31472  36.969  20.596   4.185
72212W        W31473  35.863  42.031   0.963
72213W        W31474  30.463  39.039   4.328
72214W        W31475   6.740  25.661  14.497
72215W        W31476  33.126  32.913   3.152
72216W        W31477  17.151  39.461  10.620
72217W        W31478  17.561  24.000   4.233
72218W        W31479  16.131  41.378  12.350
72219W        W31480  20.636   9.248  14.797
72220W        W31481  36.463  13.239   3.308
72221W        W31482  18.114  12.354  12.469
72222W        W31483  35.898  19.196   1.268
72223W        W31484  23.664  20.030   0.758
72224W        W31485  26.125  22.560  11.904
72225W        W31486   9.690  10.216  14.514
72226W        W31487  10.302  23.585   0.323
72227W        W31488   2.758  34.867  10.565
72228W        W31489  11.227   0.476   4.240
72229W        W31490  37.955  27.034   1.849
72230W        W31491  42.895  39.990   0.779
72231W        W31492   2.848  37.421   3.298
72232W        W31493  29.599  26.128  13.351
72233W        W31494  36.572  39.500  14.358
72234W        W31495  38.040  31.912  11.125
72235W        W31496  21.573  18.574  14.010
72236W        W31497  27.990   8.369   0.940
72237W        W31498  35.013  38.958   3.294
72238W        W31499   0.869  13.146  12.395
72239W        W31500  23.504  17.193  14.761
72240W        W31501  29.504  21.143  14.497
72241W        W31502   9.686  24.629   3.772
72242W        W31503  38.471  30.940   3.835
72243W        W31504  10.137  15.317   4.288
72244W        W31505  30.453  37.035  10.892
72245W        W31506  25.693  31.928  10.144
72246W        W31507  34.016   2.298  14.405
72247W        W31508  33.593  13.761  12.858
72248W        W31509  35.593   4.895   3.786
72249W        W31510  15.620  36.466   1.350
72250W        W31511   7.232  42.933  13.356
72251W        W31512  11.825   5.933  14.418
72252W        W31513   7.222  22.659  11.541
72253W        W31514  39.536  21.140   4.285
72254W        W31515   8.729  18.735  11.026
72255W        W31516  29.622  23.499  13.334
72256W        W31517  15.746  36.518  13.309
72257W        W31518  21.020  32.612   3.772
72258W        W31519  26.130  22.592  13.545
72259W        W31520  15.582  19.266   4.706
72260W        W31521  13.712  37.834   1.404
72261W        W31522   7.723  44.455  14.501
72262W        W31523  14.094   2.332   2.349
72263W        W31524  10.814  27.598   1.354
72264W        W31525  26.993  12.691   3.671
72265W        W31526  41.391  34.431   3.342
72266W        W31527  43.806  36.038   3.831
72267W        W31528  35.960  19.041  11.053
72268W        W31529  39.374  17.556  14.326
72269W        W31530  29.594  42.374  12.421
72270W        W31531  10.751   1.477   1.712
72271W        W31532  24.484  18.072  12.430
72272W        W31533  18.137   8.182   4.646
72273W        W31534  22.087   0.474   0.852
72274W        W31535   1.249  38.352   3.847
72275W        W31536  24.018  27.028   0.425
72276W        W31537  16.169  22.199   1.235
72277W        W31538  13.657  24.009   3.213
72278W        W31539  23.548   1.755   2.328
72279W        W31540   5.691   9.291   1.935
72280W        W31541  27.490   2.741  12.517
72281W        W31542   0.859  41.496   2.715
72282W        W31543   4.344  14.163   5.166
72283W        W31544  16.169  33.624  10.606
72284W        W31545  10.220  12.145  14.843
72285W        W31546  35.888  39.479  13.419
72286W        W31547  29.562   8.824  11.116
72287W        W31548   8.357   5.861  14.959
72288W        W31549  41.306  35.383  13.036
72289W        W31550  32.065  42.388  11.890
72290W        W31551  20.698  23.071  12.404
72291W        W31552  17.586  32.534  11.470
72292W        W31553  38.944   2.878  13.313
72293W        W31554  36.013  29.472   0.408
72294W        W31555  38.510  12.271   0.760
72295W        W31556  26.569  39.375   2.326
72296W        W31557   5.218  27.650  12.458
72297W        W31558  29.048  38.430   4.765
72298W        W31559  16.301  37.551   0.391
72299W        W31560   1.915   6.368  14.872
72300W        W31561  40.541   2.913   0.286
72301W        W31562  13.196  30.578  13.840
72302W        W31563  10.746   8.318   4.800
72303W        W31564  11.189   7.335   1.732
72304W        W31565  35.535  20.082  14.917
72305W        W31566  18.281   9.816  11.439
72306W        W31567  15.204  43.947  10.515
72307W        W31568  16.787   2.847   5.270
72308W        W31569  36.957  22.519  12.862
72309W        W31570  22.533  10.334  13.838
72310W        W31571  14.730  20.648  13.345
72311W        W31572  37.979  21.176  13.331
72312W        W31573   7.308  32.606   0.425
72313W        W31574  27.573  40.918  14.404
72314W        W31575  21.084  35.875   1.350
72315W        W31576   2.855  43.435  11.855
72316W        W31577  14.619   4.220  11.382
72317W        W31578  12.319  25.078  14.393
72318W        W31579  13.157  38.052  11.379
72319W        W31580  41.445  12.153   1.840
72320W        W31581  44.956  29.994  14.892
72321W        W31582  37.579  13.688  11.523
72322W        W31583  13.216  28.934   4.669
72323W        W31584  44.487   3.393   4.676
72324W        W31585   8.702   6.900  12.031
72325W        W31586  41.516   3.274  13.451
72326W        W31587   2.801  34.959  13.821
72327W        W31588  26.957  11.680   2.184
72328W        W31589  34.418  35.865  13.343
72329W        W31590  40.477   6.676   0.421
72330W        W31591   6.783   4.801   3.747
72331W        W31592  31.630   3.744   3.764
72332W        W31593  21.602  41.925  11.870
72333W        W31594  17.575  33.087  12.392
72334W        W31595   0.768  26.468   1.242
72335W        W31596  35.498  43.332   1.871
72336W        W31597  27.521  33.553   2.746
72337W        W31598  15.750   8.304  11.514
72338W        W31599   9.323  38.995   3.258
72339W        W31600  43.789  18.740  10.535
72340W        W31601  25.074  35.369   4.352
72341W        W31602  20.727  38.481  14.450
72342W        W31603  27.607  22.720  10.521
72343W        W31604  16.267  19.212   4.633
72344W        W31605  18.588   7.318  13.892
72345W        W31606  32.403  34.409  11.894
72346W        W31607   9.830  10.379  12.908
72347W        W31608  14.644  38.073   4.802
72348W        W31609  29.065   9.261  12.447
72349W        W31610  30.942   1.349  11.006
72350W        W31611  26.495  35.909  11.893
72351W        W31612  23.178  43.773   1.701
72352W        W31613  25.011  33.480   3.368
72353W        W31614  33.985   4.233  13.547
72354W        W31615  10.294  34.470  12.987
72355W        W31616  19.718  30.142   2.244
72356W        W31617   8.372  13.650   0.407
72357W        W31618   8.343  20.588   4.313
72358W        W31619  18.708  32.026   2.663
72359W        W31620   2.273  23.018   0.318
72360W        W31621  21.675  11.138   4.307
72361W        W31622  18.192  31.119   3.256
72362W        W31623   2.394  15.700  10.522
72363W        W31624  24.122  27.003  11.575
72364W        W31625  44.329  40.329  13.970
72365W        W31626  23.050  26.544   2.263
72366W        W31627  32.549   1.386   4.638
72367W        W31628   7.405  13.127  13.800
72368W        W31629  25.189  36.051   0.892
72369W        W31630  20.171  14.207  11.018
72370W        W31631   3.395   7.308   4.182
72371W        W31632   2.229  15.624   3.861
72372W        W31633  25.209   3.944  12.927
72373W        W31634   8.692  43.286   1.749
72374W        W31635  25.647  19.093  14.013
72375W        W31636  20.527   5.350   4.660
72376W        W31637   9.765   0.332  12.556
72377W        W31638   5.819  10.797   0.801
72378W        W31639  18.072   4.305  13.334
72379W        W31640  32.519  12.791   5.303
72380W        W31641  11.129  23.540   2.817
72381W        W31642  13.205  10.781   2.340
72382W        W31643  16.080  25.999   2.382
72383W        W31644  44.800  11.296  13.890
72384W        W31645  41.299   2.893  11.486
72385W        W31646  16.800  30.651   2.402
72386W        W31647  37.354  27.446   1.435
72387W        W31648  27.636  36.479  10.973
72388W        W31649   3.349  15.759  13.855
72389W        W31650   6.406  22.233   4.794
72390W        W31651   7.886  11.860   3.651
72391W        W31652  44.402  21.034   0.271
72392W        W31653  41.923  27.996   3.206
72393W        W31654  27.941  38.908   9.959
72394W        W31655  30.929  39.829  12.954
72395W        W31656  26.671  17.105  14.348
72396W        W31657  14.213  37.574   4.284
72397W        W31658  31.032  33.073   9.576
72398W        W31659  34.090  20.229   1.272
72399W        W31660  20.671  36.095   3.215
72400W        W31661  41.358  24.083   2.406
72401W        W31662   2.453  19.202   1.439
72402W        W31663  15.257   5.721  13.519
72403W        W31664  36.033  20.258   1.449
72404W        W31665  35.089   5.368  10.444
72405W        W31666  10.653  28.163   4.349
72406W        W31667  27.073  44.415   4.142
72407W        W31668  42.418   4.265   3.813
72408W        W31669  27.155  29.073   0.874
72409W        W31670   8.270  40.880  14.329
72410W        W31671  43.397  35.888   2.727
72411W        W31672  30.414   5.917   1.328
72412W        W31673  21.640   6.423   0.897
72413W        W31674  31.932   9.168   1.898
72414W        W31675  28.483  40.421  11.499
72415W        W31676  35.471  18.196  14.396
72416W        W31677   8.297   6.314   4.709
72417W        W31678  25.208  34.958   4.730
72418W        W31679   6.901  32.398   1.722
72419W        W31680  12.740  21.577  13.318
72420W        W31681  19.213  42.382   0.398
72421W        W31682  26.113  26.606  13.018
72422W        W31683  18.759  35.409  14.306
72423W        W31684  30.948   6.701   0.479
72424W        W31685  25.624  19.049   1.368
72425W        W31686  35.920  34.885  13.463
72426W        W31687   6.259   6.213  14.964
72427W        W31688  24.177  28.550   2.752
72428W        W31689  34.080   1.476   2.760
72429W        W31690  27.487  25.484   1.337
72430W        W31691  25.104  36.880  10.947
72431W        W31692  27.135  38.409  13.465
72432W        W31693  30.643  18.702   2.213
72433W        W31694  39.891   0.402  14.409
72434W        W31695  31.004   0.288   2.815
72435W        W31696  37.028  33.493   4.147
72436W        W31697   9.195  27.473  13.920
72437W        W31698  16.714   9.738   2.673
72438W        W31699  11.624   9.759   4.232
72439W        W31700  39.042  17.623  14.919
72440W        W31701  20.138   9.343   2.206
72441W        W31702   9.279  29.559  14.811
72442W        W31703   5.292  12.174  12.560
72443W        W31704  28.657  19.250  12.055
72444W        W31705  40.330  11.370  14.467
72445W        W31706  35.429  35.949   2.214
72446W        W31707  44.483  36.476  14.493
72447W        W31708  41.483  30.531   1.304
72448W        W31709  43.383  36.977  12.523
72449W        W31710  34.911  16.677  14.014
72450W        W31711   5.877  40.418  12.479
72451W        W31712   6.792  16.580   4.192
72452W        W31713  16.120  33.426  12.992
72453W        W31714  38.875  22.118  10.588
72454W        W31715  15.608  14.275  13.984
72455W        W31716  14.252  12.245   0.834
72456W        W31717  22.525  13.296   5.265
72457W        W31718  41.820   5.291   3.310
72458W        W31719  42.828  10.348   2.181
72459W        W31720  25.533  11.317  11.898
72460W        W31721  13.765   4.941   0.785
72461W        W31722   7.238  39.322  11.502
72462W        W31723   6.385  38.018   0.790
72463W        W31724  27.155  13.779  14.379
72464W        W31725  19.655   2.948  14.787
72465W        W31726  18.163  30.114  12.078
72466W        W31727  36.997  21.077   0.326
72467W        W31728   2.458  17.126  14.917
72468W        W31729  43.515   8.851  10.449
72469W        W31730  34.568  36.477  14.377
72470W        W31731  14.765  34.514  14.507
72471W        W31732  27.130  29.956  14.295
72472W        W31733  27.515  11.244   1.749
72473W        W31734  16.270  30.611  13.478
72474W        W31735  28.477  13.309   1.412
72475W        W31736   4.422  36.018   2.311
72476W        W31737  40.527  36.354   2.409
72477W        W31738  26.155   6.830   2.699
72478W        W31739  38.411  11.193  12.945
72479W        W31740  21.579  29.642  11.465
72480W        W31741  11.719  12.655   2.289
72481W        W31742  20.236  38.328  11.537
72482W        W31743  20.557  14.228  12.959
72483W        W31744  11.789  36.873   2.418
72484W        W31745  12.235  39.380  12.561
72485W        W31746  12.769  31.934  10.538
72486W        W31747  40.385   6.855   2.185
72487W        W31748  44.979  18.791  11.487
72488W        W31749  31.597   4.403   3.711
72489W        W31750  28.545  11.171  13.394
72490W        W31751  21.193  15.220   9.972
72491W        W31752   2.821  18.681   0.389
72492W        W31753   6.732  40.034   1.444
72493W        W31754   2.226  36.024   3.170
72494W        W31755  15.602  12.729   4.690
72495W        W31756  38.451   0.883  10.983
72496W        W31757   4.248  30.088   1.306
72497W        W31758  13.621  25.533  13.384
72498W        W31759  18.133  26.632  13.840
72499W        W31760  12.199  40.343  12.468
72500W        W31761  34.864  27.124   3.216
72501W        W31762   1.955  21.575  14.794
72502W        W31763  41.792  17.287   2.315
72503W        W31764  33.876  19.716   0.947
72504W        W31765  27.628  14.591   1.744
72505W        W31766  34.968  33.917   2.742
72506W        W31767  30.070  19.556   3.655
72507W        W31768  18.270  31.411  14.013
72508W        W31769  12.619  27.080   1.384
72509W        W31770   3.709  14.677  12.518
72510W        W31771  29.473  23.178   0.306
72511W        W31772  34.004  21.173  13.933
72512W        W31773  42.992  34.002   0.371
72513W        W31774  27.973   4.760   4.213
72514W        W31775  21.125  17.299  14.020
72515W        W31776  19.609   2.384  14.890
72516W        W31777  29.043  43.941  12.005
72517W        W31778  15.710  25.673   1.409
72518W        W31779  19.151  11.322   4.212
72519W        W31780  43.913  14.833  11.932
72520W        W31781  38.447  41.485   1.450
72521W        W31782  16.774  10.838  11.066
72522W        W31783  16.292  23.541  12.463
72523W        W31784  43.429  43.882   0.288
72524W        W31785   8.328  43.839   2.811
72525W        W31786  10.301  24.597  12.355
72526W        W31787  19.760  15.718  11.438
72527W        W31788   7.755  15.811   3.837
72528W        W31789  19.567  33.451   4.241
72529W        W31790  10.859  20.552   1.807
72530W        W31791  37.079  37.434  13.031
72531W        W31792   7.835  22.583   2.813
72532W        W31793  13.313  18.193   0.263
72533W        W31794  31.146  19.182   0.467
72534W        W31795   7.691  10.745  12.967
72535W        W31796  40.924  38.540  12.886
72536W        W31797  16.290  36.503   0.444
72537W        W31798  44.314  30.461  10.085
72538W        W31799  27.614  15.682  14.361
72539W        W31800  15.167   5.425   3.829
72540W        W31801  32.999  23.141  12.943
72541W        W31802  35.375   2.726  13.891
72542W        W31803  20.624  24.552   9.921
72543W        W31804  13.109  29.042  13.881
72544W        W31805  42.470   4.251   1.791
72545W        W31806  23.711  24.116   1.805
72546W        W31807  32.901  22.546   2.892
72547W        W31808  20.166  25.969   2.830
72548W        W31809  14.322   0.946  10.619
72549W        W31810  36.556  20.687  11.496
72550W        W31811   2.447   7.340  10.586
72551W        W31812  38.442  25.566  10.600
72552W        W31813  19.177  22.536  13.802
72553W        W31814  27.143   8.676  10.923
72554W        W31815  29.133  40.319  12.987
72555W        W31816   8.766  22.598  10.516
72556W        W31817   5.390  35.047  10.958
72557W        W31818  30.575  29.447  10.573
72558W        W31819  38.029   8.307  13.498
72559W        W31820   9.320  14.287  10.572
72560W        W31821  19.779  38.828  13.496
72561W        W31822  18.730  42.971   2.859
72562W        W31823   9.339  17.282  14.393
72563W        W31824  16.228  12.709   1.309
72564W        W31825  16.188  44.429   4.755
72565W        W31826  30.415  10.317  12.058
72566W        W31827   2.426  15.598  13.915
72567W        W31828  12.151   2.871   1.432
72568W        W31829  27.033  26.583   4.631
72569W        W31830   7.678  17.705   2.805
72570W        W31831  14.623   8.245  10.446
72571W        W31832  25.498  11.840  12.403
72572W        W31833  21.553  18.084   1.283
72573W        W31834   8.232   4.767  12.538
72574W        W31835  30.972  13.285  13.307
72575W        W31836  14.311  22.684   4.163
72576W        W31837  25.171  22.735  11.477
72577W        W31838   6.698   8.805  13.420
72578W        W31839  21.601  35.998   4.188
72579W        W31840  42.938  35.867  12.361
72580W        W31841  43.488  14.107   1.334
72581W        W31842  32.008  40.492  10.459
72582W        W31843  20.631  36.913   0.864
72583W        W31844  32.098  38.005   3.203
72584W        W31845   0.902   6.377   5.286
72585W        W31846  36.985  28.639  14.383
72586W        W31847  16.647  41.418   4.686
72587W        W31848  32.898  43.965   1.219
72588W        W31849  28.435  27.031  10.639
72589W        W31850  35.475   4.399  14.968
72590W        W31851  18.586  25.189  12.047
72591W        W31852  12.651   4.910   4.304
72592W        W31853  25.066   6.425  12.023
72593W        W31854  30.930  23.094   2.751
72594W        W31855  23.606   0.409   4.627
72595W        W31856  43.435  43.282   2.272
72596W        W31857  13.152  33.928   3.638
72597W        W31858  11.850  39.439  12.079
72598W        W31859  14.660  39.450   2.887
72599W        W31860  26.613  32.051   4.190
72600W        W31861  25.687  35.028  10.527
72601W        W31862  15.125  33.453   3.369
72602W        W31863  37.067  19.215   4.728
72603W        W31864   3.841  27.968   4.119
72604W        W31865   9.154  29.576  12.470
72605W        W31866  13.836  28.038  13.518
72606W        W31867  20.757  23.215  13.936
72607W        W31868  43.790  29.053   0.755
72608W        W31869  27.012  16.177   4.290
72609W        W31870   6.724   3.719   2.352
72610W        W31871  23.060  27.574  13.357
72611W        W31872  12.282   2.457   0.830
72612W        W31873  10.205  12.611   2.306
72613W        W31874  17.710  15.781   4.286
72614W        W31875   9.210  29.020  13.422
72615W        W31876  11.259  39.553  11.478
72616W        W31877  33.469  22.686  12.403
72617W        W31878  28.668  20.130  11.495
72618W        W31879   2.367   4.316   2.875
72619W        W31880  38.868  41.905   0.260
72620W        W31881  24.982  16.282  11.402
72621W        W31882   1.372  40.923   4.296
72622W        W31883  32.443  16.601  12.883
72623W        W31884  15.100   1.916  12.350
72624W        W31885  40.934  29.971  11.866
72625W        W31886   2.950  40.047  12.525
72626W        W31887  19.216  18.680  12.555
72627W        W31888   6.406  17.567   1.325
72628W        W31889  37.938  32.496  10.417
72629W        W31890  36.863  19.738   2.373
72630W        W31891  36.520  37.509  10.562
72631W        W31892  29.442  44.853  10.461
72632W        W31893  36.438  11.290  10.454
72633W        W31894  42.505  18.104   0.894
72634W        W31895  17.226  13.673   0.432
72635W        W31896  31.448  41.890   1.328
72636W        W31897  16.153  31.507  11.541
72637W        W31898  27.625   0.905  14.964
72638W        W31899  40.977  40.909  14.332
72639W        W31900   0.933  25.186  11.084
72640W        W31901   3.762  12.128  10.446
72641W        W31902  11.355  44.795   0.406
72642W        W31903  30.993   3.861  10.620
72643W        W31904  38.953  35.982  13.352
72644W        W31905  20.559  34.052  11.491
72645W        W31906  11.299  43.407   2.311
72646W        W31907  36.017  34.567  11.388
72647W        W31908  42.522  21.708   3.655
72648W        W31909   2.259  44.811   4.155
72649W        W31910  37.876  39.416  11.937
72650W        W31911  39.967  25.149  13.452
72651W        W31912   9.247  43.483  11.505
72652W        W31913   5.926  14.151   3.702
72653W        W31914  19.730  25.975   4.800
72654W        W31915  23.992   5.281   1.317
72655W        W31916  28.124   0.887   0.933
72656W        W31917  39.393  35.518   9.650
72657W        W31918  21.701  32.515  12.930
72658W        W31919  29.925  36.084  13.936
72659W        W31920   3.353  19.285   2.364
72660W        W31921  35.550  31.570   0.327
72661W        W31922   3.318   4.248  14.493
72662W        W31923   0.893  35.881  10.959
72663W        W31924  22.995  23.106   5.739
72664W        W31925  39.516  33.468   0.424
72665W        W31926  31.637  18.749   3.711
72666W        W31927  40.939  20.764  11.561
72667W        W31928   1.480   7.870   3.309
72668W        W31929  32.124  11.658   1.838
72669W        W31930  16.265  11.131  11.104
72670W        W31931  28.009  31.442   4.207
72671W        W31932  43.004  19.683   0.380
72672W        W31933   4.407  11.215   1.852
72673W        W31934  42.466  32.475  13.471
72674W        W31935  40.334  26.048  10.987
72675W        W31936  21.630   8.862   0.769
72676W        W31937  24.562   1.836   2.352
72677W        W31938  35.486  15.673  10.037
72678W        W31939  14.662  18.131   1.329
72679W        W31940  43.930   0.389   4.156
72680W        W31941  21.117  28.184  14.414
72681W        W31942  18.700  36.400  12.493
72682W        W31943  21.596  27.572  13.466
72683W        W31944  28.558  23.718   3.667
72684W        W31945  38.406  33.929   9.503
72685W        W31946   3.395   9.813   0.243
72686W        W31947  13.820   7.868   3.852
72687W        W31948  36.068  39.394   3.235
72688W        W31949  22.184   3.742   3.753
72689W        W31950  36.952  17.712   4.636
72690W        W31951   2.949   7.395  14.008
72691W        W31952  10.371  42.805   0.402
72692W        W31953  29.958  23.106   1.376
72693W        W31954  20.719  40.424  13.037
72694W        W31955  17.628  18.603   5.166
72695W        W31956  35.080  12.795  14.363
72696W        W31957  42.363  23.551   3.773
72697W        W31958  22.102   5.724   4.631
72698W        W31959   4.268  38.423  12.056
72699W        W31960  41.949  22.228  12.847
72700W        W31961  17.168  12.240   9.966
72701W        W31962  34.402  35.961   2.401
72702W        W31963  19.217  18.580   3.813
72703W        W31964   3.829  19.700  13.530
72704W        W31965  35.468  43.834  11.576
72705W        W31966  22.672  36.378   4.260
72706W        W31967  31.077  12.821   4.333
72707W        W31968   1.261  24.600   4.340
72708W        W31969   9.743  26.627  13.959
72709W        W31970  12.837  20.169   2.878
72710W        W31971  21.138  40.397  11.430
72711W        W31972   1.258  13.808   3.794
72712W        W31973  41.470   7.320  14.801
72713W        W31974  20.714  21.123  14.309
72714W        W31975  36.568  35.929  12.538
72715W        W31976   3.722  31.151  13.544
72716W        W31977   8.373   9.290  14.866
72717W        W31978   6.280  26.152   0.912
72718W        W31979  27.940  10.345   1.299
72719W        W31980  25.178   1.357   2.746
72720W        W31981  23.624  21.208   3.862
72721W        W31982  25.543  30.978   2.337
72722W        W31983  18.215  22.091  11.071
72723W        W31984  19.596   4.741  12.474
72724W        W31985  30.086   9.334  14.902
72725W        W31986  16.785  25.498   0.789
72726W        W31987  27.649  10.384  14.869
72727W        W31988   2.380  40.978   3.366
72728W        W31989  23.984  39.863  11.558
72729W        W31990   2.403  12.177  13.963
72730W        W31991  35.457  21.079  13.840
72731W        W31992  15.665  17.787   4.274
72732W        W31993  29.952   6.765   2.212
72733W        W31994   3.860   1.355   3.329
72734W        W31995  37.041  25.071  12.946
72735W        W31996  38.881   5.690  10.479
72736W        W31997   5.364  36.554   4.626
72737W        W31998  43.851   2.870  14.489
72738W        W31999  38.460  35.593   2.196
72739W        W32000  14.627  14.790  14.458
72740W        W32001  20.697  30.495  13.903
72741W        W32002  32.604  15.099   2.184
72742W        W32003  28.505  21.204   3.274
72743W        W32004  41.979  11.236   2.703
72744W        W32005  20.185  19.039  10.963
72745W        W32006   6.912  23.493  13.806
72746W        W32007  30.017  22.572  11.385
72747W        W32008  37.421  38.528  10.912
72748W        W32009  42.294  31.510  13.832
72749W        W32010  21.152   2.818  11.857
72750W        W32011  14.119  27.590   2.679
72751W        W32012  34.977  34.401   9.550
72752W        W32013  37.407   5.345   2.328
72753W        W32014   6.226  40.484  13.487
72754W        W32015  38.908  29.026   3.790
72755W        W32016  34.113  20.694  12.381
72756W        W32017   8.241   3.897  12.405
72757W        W32018  28.536  16.136  13.446
72758W        W32019   0.858  37.904  11.562
72759W        W32020   8.872   5.859  14.406
72760W        W32021  33.591  35.894  10.943
72761W        W32022   6.842  26.167   4.282
72762W        W32023  34.520  36.396  13.529
72763W        W32024  41.493  44.270  13.458
72764W        W32025  15.605  19.570   1.443
72765W        W32026  41.325  38.551  10.452
72766W        W32027  25.497  32.961   4.325
72767W        W32028  43.863  23.630  12.433
72768W        W32029  13.669   2.301  13.843
72769W        W32030  11.182  41.434   1.213
72770W        W32031  23.057  41.358  12.343
72771W        W32032  23.078  36.375   3.194
72772W        W32033  35.542  22.550   1.916
72773W        W32034  30.030  25.556   0.862
72774W        W32035   8.341  27.561   4.177
72775W        W32036   3.351  38.432   2.375
72776W        W32037  18.773   1.376   1.702
72777W        W32038  35.899  43.293  13.932
72778W        W32039  28.116  23.672  14.418
72779W        W32040  12.197  38.854   0.745
72780W        W32041  30.656  28.562  12.932
72781W        W32042   5.209  42.363   3.646
72782W        W32043  12.670  21.215  13.060
72783W        W32044  34.888   0.266   3.331
72784W        W32045  40.542   0.489  12.406
72785W        W32046  35.098  44.915   3.168
72786W        W32047  11.325  41.321   1.714
72787W        W32048  14.108  27.076  10.452
72788W        W32049  29.938   4.415  10.937
72789W        W32050  41.969  11.698   4.231
72790W        W32051  37.014   1.369   3.237
72791W        W32052  17.704  15.604   2.260
72792W        W32053  15.791  36.389   2.244
72793W        W32054   0.903  20.274  14.421
72794W        W32055   8.748  17.156   2.867
72795W        W32056   1.388  31.088   0.947
72796W        W32057   8.817  12.770   5.237
72797W        W32058   9.348  38.502   2.306
72798W        W32059  13.220  24.572  11.944
72799W        W32060  13.642  38.336   2.345
72800W        W32061  29.540  22.682  13.419
72801W        W32062  43.407  36.523   1.423
72802W        W32063  14.337   6.240  14.031
72803W        W32064  34.872  18.165   3.714
72804W        W32065  18.163   0.744  12.380
72805W        W32066  10.773  17.082  14.914
72806W        W32067   5.411  22.193   2.748
72807W        W32068   6.222  39.890  10.020
72808W        W32069  13.608  18.275  12.047
72809W        W32070  42.405  23.610   4.687
72810W        W32071   1.418   6.189  11.951
72811W        W32072  34.371  32.966  12.991
72812W        W32073  29.093  43.788  10.437
72813W        W32074   5.370  44.331  13.309
72814W        W32075  43.374  10.662   0.270
72815W        W32076   7.762   9.388   1.853
72816W        W32077  23.136   4.212   0.861
72817W        W32078  33.389   6.738   1.239
72818W        W32079  29.668  30.624  14.976
72819W        W32080   7.711  12.656   2.411
72820W        W32081  19.737  13.299  12.880
72821W        W32082  32.916  40.422   0.788
72822W        W32083   9.838   5.329   5.265
72823W        W32084  42.284  16.585  14.281
72824W        W32085   9.191  29.431  10.640
72825W        W32086   4.249  40.537   1.756
72826W        W32087  38.430  22.697  12.522
72827W        W32088   4.864  10.853  12.832
72828W        W32089  25.653  31.404   3.191
72829W        W32090  24.112  39.314  14.401
72830W        W32091  28.510  38.447   0.430
72831W        W32092  12.117  24.705   0.399
72832W        W32093   9.362   4.802   1.737
72833W        W32094  17.099  15.804   4.839
72834W        W32095  22.144  42.513  13.368
72835W        W32096   1.408  10.228   2.393
72836W        W32097  14.680  23.552   2.287
72837W        W32098  26.056  28.539  12.939
72838W        W32099   4.793  31.057   0.831
72839W        W32100   5.813  42.785  10.497
72840W        W32101  29.592   2.405  14.345
72841W        W32102  39.904  31.508  11.402
72842W        W32103  43.797  31.960   3.736
72843W        W32104  26.164  35.909  14.896
72844W        W32105  12.793  41.369   3.754
72845W        W32106   9.265  42.858   3.227
72846W        W32107  16.292  13.797   2.402
72847W        W32108  31.092  21.239  14.435
72848W        W32109  43.434   2.301   0.783
72849W        W32110   0.783  24.604  11.045
72850W        W32111   0.830  26.535  12.518
72851W        W32112  14.772   9.193  12.508
72852W        W32113  12.176   2.946  14.934
72853W        W32114  30.123  28.543  12.432
72854W        W32115  44.484  29.999  10.442
72855W        W32116  36.497  33.039  10.478
72856W        W32117  22.517  17.605   1.904
72857W        W32118  25.623   8.293  12.072
72858W        W32119  24.693   1.354  13.940
72859W        W32120  21.165  31.424   9.955
72860W        W32121  14.598   4.392   0.297
72861W        W32122  18.183   8.727   3.780
72862W        W32123  44.919  13.241  10.599
72863W        W32124  37.441   7.287   4.150
72864W        W32125   6.736   7.417  14.010
72865W        W32126  13.794  10.202   9.999
72866W        W32127  22.670  41.978  10.909
72867W        W32128   8.406   0.900  11.098
72868W        W32129  33.626  13.197   0.255
72869W        W32130  33.895   5.327  13.055
72870W        W32131  29.918  11.765   0.467
72871W        W32132   3.308  38.340   3.353
72872W        W32133  18.248  15.643   4.170
72873W        W32134   4.240  33.897   2.363
72874W        W32135   0.777  23.125  13.842
72875W        W32136  19.039  29.098   3.293
72876W        W32137  32.463  21.646   0.322
72877W        W32138  33.466  34.011   1.907
72878W        W32139  44.861  17.775  10.533
72879W        W32140  16.610   0.980   3.195
72880W        W32141   7.389  21.594  11.937
72881W        W32142  30.649  33.504   3.671
72882W        W32143  15.328  30.546   2.681
72883W        W32144   6.367   1.452  14.402
72884W        W32145  33.071  41.833   1.298
72885W        W32146  34.047  38.511  11.101
72886W        W32147  44.779  28.468  11.519
72887W        W32148  30.061  11.796   2.796
72888W        W32149  19.725  44.270   0.250
72889W        W32150  12.819   7.409  11.092
72890W        W32151   2.451  18.206  12.550
72891W        W32152  16.725  12.634   4.163
72892W        W32153  29.431  14.244   2.265
72893W        W32154  26.523  43.821  10.143
72894W        W32155  27.148  24.656   2.391
72895W        W32156  21.640  32.119   4.831
72896W        W32157  43.798  34.110  11.602
72897W        W32158  20.563  31.918   0.482
72898W        W32159  34.554  39.014  11.436
72899W        W32160  22.102   5.266   1.759
72900W        W32161  43.307  35.564  13.326
72901W        W32162  10.299  21.198   2.312
72902W        W32163  29.153  32.032   0.882
72903W        W32164   1.779  36.555  13.543
72904W        W32165  21.544  16.700   4.118
72905W        W32166  24.210  36.074   1.329
72906W        W32167  12.285  11.772   2.691
72907W        W32168  20.649   4.861   2.736
72908W        W32169   4.230  18.257   1.360
72909W        W32170  14.643  17.591   0.926
72910W        W32171  34.916  42.433   2.821
72911W        W32172  27.591  17.206  14.825
72912W        W32173  14.188  12.322  11.856
72913W        W32174  29.544  35.989   4.790
72914W        W32175   2.860  38.855  12.843
72915W        W32176  19.162  13.837   1.929
72916W        W32177  12.815  43.514   3.787
72917W        W32178  30.928  33.622  13.520
72918W        W32179   4.324  14.162  10.894
72919W        W32180  24.722  20.071  10.558
72920W        W32181   7.326  18.104  12.380
72921W        W32182  42.861   2.848  14.934
72922W        W32183   5.841  39.962   2.874
72923W        W32184  39.003  21.223  13.946
72924W        W32185   5.389  42.435  14.996
72925W        W32186  26.524   7.249  10.039
72926W        W32187   9.337  37.026   0.416
72927W        W32188  40.461  12.261  12.495
72928W        W32189  15.116   4.336   1.439
72929W        W32190  23.182   3.839  14.313
72930W        W32191   4.216   9.257   2.832
72931W        W32192  38.453  10.263   2.413
72932W        W32193  40.507  12.190   2.752
72933W        W32194  38.358   2.370  10.644
72934W        W32195  10.713  31.601  13.538
72935W        W32196  16.798  28.057   1.747
72936W        W32197  27.652  44.868  14.349
72937W        W32198  23.627   6.890   3.822
72938W        W32199  28.503  25.964   1.737
72939W        W32200   5.250  23.185  12.467
72940W        W32201  13.795   8.302  12.569
72941W        W32202   5.762  25.525   0.865
72942W        W32203  41.862   4.294  12.976
72943W        W32204  28.082  31.046   2.750
72944W        W32205  28.500  28.543   2.743
72945W        W32206  27.560   8.777  14.417
72946W        W32207  21.204  16.629   4.634
72947W        W32208  11.275   8.713   1.410
72948W        W32209  26.026  29.996  10.510
72949W        W32210   1.837  20.629   2.700
72950W        W32211  35.466  32.471  14.509
72951W        W32212  43.407  14.313   2.192
72952W        W32213  29.610  11.358   4.786
72953W        W32214  20.585  40.800  13.470
72954W        W32215   3.233   0.814  10.403
72955W        W32216  38.350  11.336  12.013
72956W        W32217  15.582  38.415   0.804
72957W        W32218  26.128   4.401   4.152
72958W        W32219  15.184  27.061  12.084
72959W        W32220  31.130  25.133   3.163
72960W        W32221   2.788  32.097   2.353
72961W        W32222  17.592   1.481  11.996
72962W        W32223  12.686   8.716  12.000
72963W        W32224  33.522   6.309  10.967
72964W        W32225  15.233   0.376   1.809
72965W        W32226  16.809  24.041  12.827
72966W        W32227   3.904  19.070  10.439
72967W        W32228  29.643  42.371   3.288
72968W        W32229   4.925  16.619   0.364
72969W        W32230  25.587  44.822   3.314
72970W        W32231  42.792   1.965   0.255
72971W        W32232   0.868  26.503  13.449
72972W        W32233  26.132  40.476  11.979
72973W        W32234   2.360  19.777  10.447
72974W        W32235   0.922  14.243   3.643
72975W        W32236  11.222   0.264   1.792
72976W        W32237  40.926   8.880   0.859
72977W        W32238   8.761  28.600   2.283
72978W        W32239  44.295  30.069  12.001
72979W        W32240  15.252  30.529   0.905
72980W        W32241  16.657  29.987  13.395
72981W        W32242  32.095  33.039  10.931
72982W        W32243  15.088  40.488   2.392
72983W        W32244   3.406  20.095   1.335
72984W        W32245  23.067  19.602   3.255
72985W        W32246  18.124  37.369   3.727
72986W        W32247  28.654  28.954   4.705
72987W        W32248   5.700  38.915   2.674
72988W        W32249  32.012  24.038  10.946
72989W        W32250  15.308  18.581  13.951
72990W        W32251  23.237   9.180   3.175
72991W        W32252  34.039   7.222   3.234
72992W        W32253  36.346  36.388  13.843
72993W        W32254  35.049  28.980  12.947
72994W        W32255   3.461  11.142   1.826
72995W        W32256   6.772  38.514  13.889
72996W        W32257  14.120  31.495  13.482
72997W        W32258  11.150   5.818  12.876
72998W        W32259  18.641  12.845   4.321
72999W        W32260  31.453  21.637   3.855
73000W        W32261   3.820  43.470  14.280
73001W        W32262  14.292  21.061   5.316
73002W        W32263  16.237  18.188   9.984
73003W        W32264   7.755  42.841   0.389
73004W        W32265  43.281  32.942  12.347
73005W        W32266  27.605  32.410   1.708
73006W        W32267  20.109  34.108  13.364
73007W        W32268   8.886  28.487  10.953
73008W        W32269  41.842  15.257   1.911
73009W        W32270  29.636   2.907   0.319
73010W        W32271  38.842  17.687  11.509
73011W        W32272  19.551  24.213   3.379
73012W        W32273   6.689  10.790  12.562
73013W        W32274  31.101  37.517  12.938
73014W        W32275  25.152  27.574  12.411
73015W        W32276  44.946   2.795  11.087
73016W        W32277  14.778  19.243  10.624
73017W        W32278  38.819   7.817   0.287
73018W        W32279  26.458  24.502   4.819
73019W        W32280  28.589   6.256  12.543
73020W        W32281  18.078  11.293   0.905
73021W        W32282  27.130  27.045   0.385
73022W        W32283  27.471  28.509  14.814
73023W        W32284   9.231  34.382   1.244
73024W        W32285  43.456  21.137  12.527
73025W        W32286  38.403  15.725  10.542
73026W        W32287   9.351  30.110   2.780
73027W        W32288  15.256  17.095  14.331
73028W        W32289   9.189  26.688  10.952
73029W        W32290  12.798  10.663  10.117
73030W        W32291  33.010  23.214  13.538
73031W        W32292  16.569  44.936   0.773
73032W        W32293  23.999  18.611  10.961
73033W        W32294  36.552  43.432   4.714
73034W        W32295  25.476   1.953  13.872
73035W        W32296  17.667  44.269  11.503
73036W        W32297   5.773  15.325  11.444
73037W        W32298  27.994  20.726  11.918
73038W        W32299  26.679  37.425   0.871
73039W        W32300  23.596  19.710   0.893
73040W        W32301  15.784   6.221   1.887
73041W        W32302  40.491  31.555  14.321
73042W        W32303  14.184  24.621  13.888
73043W        W32304  34.528   1.418  12.997
73044W        W32305   5.293   6.803  11.968
73045W        W32306  30.538  11.151   2.294
73046W        W32307  13.222  13.825   0.289
73047W        W32308  28.018  44.980  12.479
73048W        W32309  31.624  35.913   0.443
73049W        W32310  44.426  17.181  13.931
73050W        W32311  44.414  16.091   0.787
73051W        W32312   2.247  26.614   1.888
73052W        W32313  24.992   2.743  11.859
73053W        W32314   5.688  37.433   0.389
73054W        W32315  38.906  22.601  14.359
73055W        W32316  43.511  25.479  10.973
73056W        W32317  10.195  36.382   2.315
73057W        W32318  23.657  37.339   3.265
73058W        W32319   6.874  19.154  11.956
73059W        W32320  20.746  36.904   0.394
73060W        W32321  15.180  27.494   9.927
73061W        W32322  22.533  21.239   4.743
73062W        W32323   7.770   5.283   2.833
73063W        W32324   8.208  13.641   3.655
73064W        W32325  18.727  33.603   4.613
73065W        W32326   1.962   3.396   1.798
73066W        W32327  24.107  12.279  13.321
73067W        W32328  42.306  19.237  14.977
73068W        W32329  41.956  20.587   3.838
73069W        W32330  10.816  35.412  13.924
73070W        W32331   1.262  29.145  12.971
73071W        W32332  24.656  40.507   3.839
73072W        W32333  21.243  20.215  14.885
73073W        W32334   8.250  40.800  13.391
73074W        W32335  20.119   5.317  14.799
73075W        W32336  15.172  40.362  14.869
73076W        W32337  29.615  44.982   2.370
73077W        W32338   9.796   0.463  13.794
73078W        W32339  37.435  15.644   3.288
73079W        W32340  35.551   8.762   0.254
73080W        W32341   4.830  24.979   1.420
73081W        W32342  19.163  32.008   3.231
73082W        W32343  18.167   5.910   1.371
73083W        W32344  44.918  44.964   1.930
73084W        W32345  18.607   4.385  14.398
73085W        W32346  19.724  22.671   9.969
73086W        W32347   8.298  42.843  12.450
73087W        W32348  17.284  28.443  14.450
73088W        W32349   3.748  39.439   2.320
73089W        W32350  31.487  21.574  10.559
73090W        W32351  40.920  26.515   2.329
73091W        W32352  25.502  30.416  11.978
73092W        W32353  24.563  27.472  13.498
73093W        W32354  35.553  15.155  10.492
73094W        W32355  16.103   0.827   0.838
73095W        W32356  33.105  21.060  14.865
73096W        W32357  42.879   4.212  14.015
73097W        W32358   7.287  32.990  14.946
73098W        W32359  29.934   9.705  14.306
73099W        W32360  36.866  37.491   1.331
73100W        W32361  25.655  32.493  12.533
73101W        W32362  40.875  11.224  13.361
73102W        W32363  41.833   7.842   1.710
73103W        W32364  13.606  34.868  10.536
73104W        W32365   2.807  13.746   4.353
73105W        W32366  15.745   8.271   5.215
73106W        W32367  26.098  29.480   3.187
73107W        W32368  16.244   3.389  14.805
73108W        W32369  35.064  11.832   4.195
73109W        W32370  26.498   5.267   1.857
73110W        W32371  12.356  38.904  14.938
73111W        W32372   6.340   2.961   2.903
73112W        W32373  40.867  14.596  13.322
73113W        W32374  38.055  13.145   2.358
73114W        W32375  28.122  43.408   4.187
73115W        W32376  44.887  11.286   1.366
73116W        W32377  16.285  14.803   4.134
73117W        W32378  26.151  30.505   3.282
73118W        W32379  34.545  36.424   5.118
73119W        W32380   1.968  36.352   2.297
73120W        W32381  32.600  33.414  10.087
73121W        W32382   2.367   5.207  13.478
73122W        W32383   5.926  28.060  12.484
73123W        W32384  26.091  16.738  14.404
73124W        W32385  39.385  26.194   4.256
73125W        W32386  22.729  38.403   2.860
73126W        W32387  13.835  16.303   3.199
73127W        W32388  34.427  22.595  14.412
73128W        W32389  26.165   8.219  12.882
73129W        W32390  25.152  19.113   4.241
73130W        W32391  43.906  32.607   4.134
73131W        W32392  38.470  19.653  12.005
73132W        W32393  37.909  40.510   1.297
73133W        W32394  18.192  44.809   0.252
73134W        W32395  28.083   0.918   2.845
73135W        W32396  33.109  22.617  12.565
73136W        W32397  14.284  25.035   4.726
73137W        W32398  32.540  26.188  13.329
73138W        W32399  41.511  23.723   4.657
73139W        W32400  44.753   2.373   4.264
73140W        W32401   8.288  37.534  14.360
73141W        W32402   2.268  26.653   2.246
73142W        W32403  20.529  36.070   2.854
73143W        W32404   5.434  12.283   3.243
73144W        W32405   9.791  21.600  11.495
73145W        W32406  30.073  29.019  11.441
73146W        W32407  27.181  36.972  13.429
73147W        W32408   9.803  32.029   1.751
73148W        W32409  19.662  39.002   4.815
73149W        W32410  18.135  39.520   2.249
73150W        W32411  28.153  37.488   2.742
73151W        W32412   2.778   5.822  12.876
73152W        W32413  37.874  21.642  11.043
73153W        W32414  38.904  23.685  13.808
73154W        W32415  16.280  12.839   4.786
73155W        W32416  32.939  16.668   2.240
73156W        W32417  31.013  38.329   1.260
73157W        W32418  12.122  41.017  12.515
73158W        W32419  25.064  26.151  14.451
73159W        W32420  24.718  13.233  13.330
73160W        W32421  11.824  18.213  12.473
73161W        W32422  36.978  42.850   4.225
73162W        W32423  10.326  24.557   1.231
73163W        W32424   1.859  10.262   4.799
73164W        W32425  30.033   4.755   2.390
73165W        W32426  10.715  44.472  13.019
73166W        W32427  10.834   4.723   1.338
73167W        W32428  26.614  13.699  13.968
73168W        W32429  41.001  33.392  13.829
73169W        W32430  34.615   7.727   1.933
73170W        W32431  25.495   7.251   9.944
73171W        W32432  42.840   3.762   3.248
73172W        W32433  29.647  11.817   5.310
73173W        W32434  41.018   2.869  11.058
73174W        W32435  37.478  36.437   2.221
73175W        W32436   2.953  36.979  14.903
73176W        W32437   4.896   3.382  12.439
73177W        W32438   1.791  30.055   0.816
73178W        W32439  28.950  28.619   1.828
73179W        W32440  22.226  43.343   0.361
73180W        W32441  13.682  14.121   1.889
73181W        W32442  37.849  43.014  10.475
73182W        W32443  18.680  34.550   3.291
73183W        W32444  29.942  37.530  12.508
73184W        W32445  17.668   3.899  14.936
73185W        W32446  15.145   0.961  10.545
73186W        W32447  19.697  30.544   2.682
73187W        W32448   2.859  42.406  10.427
73188W        W32449   6.339   2.730   1.282
73189W        W32450   3.228   2.765   3.166
73190W        W32451  24.222  30.605   5.164
73191W        W32452   9.886   6.861  13.000
73192W        W32453  19.767  24.556   9.664
73193W        W32454  20.596  28.017   4.228
73194W        W32455   1.450  26.554  11.859
73195W        W32456  23.228   5.722  12.090
73196W        W32457  28.486  20.070  11.035
73197W        W32458   8.729   8.245   2.310
73198W        W32459   0.328  35.428   4.786
73199W        W32460   5.420  21.673  10.628
73200W        W32461  27.577   1.369   2.842
73201W        W32462  44.298   9.341  14.399
73202W        W32463   2.377  20.212   0.303
73203W        W32464  16.073  43.956   3.200
73204W        W32465  41.860  40.317  10.435
73205W        W32466  28.946  27.498   3.205
73206W        W32467  22.103  37.026  11.086
73207W        W32468  11.864  23.986   4.156
73208W        W32469  14.265  41.296   4.340
73209W        W32470   7.321  15.238   4.308
73210W        W32471   6.228  40.481   3.753
73211W        W32472   9.305  13.650   2.207
73212W        W32473  14.094  24.611  11.858
73213W        W32474   3.924  32.420   3.384
73214W        W32475  38.048   6.819   0.882
73215W        W32476  32.929  35.964  11.424
73216W        W32477   0.297   9.388  11.399
73217W        W32478   4.827  34.001  12.856
73218W        W32479   5.209  31.417  14.867
73219W        W32480  31.015  42.496   4.759
73220W        W32481   8.702   5.360   4.602
73221W        W32482  35.513  17.307   3.734
73222W        W32483  20.184  37.043   4.603
73223W        W32484  33.089  10.719   1.870
73224W        W32485   7.407  44.843  13.877
73225W        W32486  42.977  22.522   3.680
73226W        W32487  29.573  33.097  12.500
73227W        W32488  42.979  22.060  11.505
73228W        W32489  17.700  30.946  12.539
73229W        W32490   6.426  42.359   2.268
73230W        W32491  39.447  33.405   2.710
73231W        W32492  38.869  14.244  10.521
73232W        W32493  32.403  27.081  12.900
73233W        W32494   1.817  16.080  14.346
73234W        W32495   0.323  15.711  10.530
73235W        W32496  22.685  35.378  13.883
73236W        W32497  29.023  32.420  12.374
73237W        W32498  41.860  37.425   0.346
73238W        W32499  19.061  27.462  13.031
73239W        W32500  25.679  39.553  11.571
73240W        W32501  44.500  17.677  10.620
73241W        W32502  39.048  14.298   2.193
73242W        W32503  16.589  25.979  13.927
73243W        W32504  25.589  30.637  14.314
73244W        W32505  26.580  25.000   0.864
73245W        W32506  18.175  20.643  13.963
73246W        W32507  26.588  13.323  13.336
73247W        W32508  34.024  25.997   3.289
73248W        W32509  23.076   9.882  10.522
73249W        W32510  29.528  18.056   1.451
73250W        W32511  35.460  34.529  11.489
73251W        W32512  27.681  15.177   1.347
73252W        W32513   2.358  35.421   4.164
73253W        W32514  25.555  38.975   0.404
73254W        W32515   5.852   5.740  10.631
73255W        W32516   5.698  24.583  14.381
73256W        W32517  27.131  30.639   4.796
73257W        W32518  35.543  30.987   2.898
73258W        W32519  21.260  40.456  13.482
73259W        W32520  38.345  16.139   0.312
73260W        W32521  33.421  41.499  12.411
73261W        W32522  27.613  20.655  10.948
73262W        W32523  39.997   1.440   2.335
73263W        W32524   3.285  36.932   4.118
73264W        W32525  22.506   7.393   4.759
73265W        W32526   0.783   7.336   0.393
73266W        W32527  42.798  13.252  11.008
73267W        W32528  42.315   7.769   3.315
73268W        W32529  20.713  37.572  11.402
73269W        W32530   8.246  29.639   3.369
73270W        W32531  30.649  42.971  11.061
73271W        W32532  33.007  40.504  10.562
73272W        W32533  27.957   7.371  11.475
73273W        W32534   0.780  32.498  14.861
73274W        W32535  14.803  10.760   2.349
73275W        W32536  12.655  41.294   0.411
73276W        W32537  15.306  21.685   5.136
73277W        W32538  13.314   4.443   9.976
73278W        W32539  22.014   0.974   3.790
73279W        W32540   2.769  10.253   1.834
73280W        W32541  32.471  18.190   3.154
73281W        W32542  23.703  23.615   4.656
73282W        W32543  44.478  13.827  14.923
73283W        W32544  10.321  29.643  12.845
73284W        W32545  33.965   9.872  14.963
73285W        W32546  23.028  35.899   4.236
73286W        W32547   1.955  28.048  10.496
73287W        W32548  29.642  44.833  14.490
73288W        W32549   1.311   1.963   4.326
73289W        W32550  22.539  41.849  13.948
73290W        W32551  19.752   6.752  12.412
73291W        W32552  11.230  11.636   9.673
73292W        W32553  14.174  34.111  14.873
73293W        W32554  41.299   1.739   2.786
73294W        W32555  32.076  26.679  13.428
73295W        W32556  17.680  36.456   4.318
73296W        W32557  25.069  18.563  11.894
73297W        W32558  22.248  43.505   1.274
73298W        W32559  25.079  33.581   5.283
73299W        W32560  29.152  33.077   2.780
73300W        W32561   6.809   7.240   4.129
73301W        W32562   5.747   8.727   5.240
73302W        W32563  27.174  17.710   2.872
73303W        W32564  37.921   0.868   4.286
73304W        W32565  14.160  19.262   4.832
73305W        W32566  21.104  38.464   4.343
73306W        W32567  27.543  30.460   2.795
73307W        W32568  44.260  13.824  12.834
73308W        W32569  29.169  34.558  12.422
73309W        W32570  35.002  19.735   4.303
73310W        W32571  18.677  40.377   9.990
73311W        W32572  35.565  40.911  14.899
73312W        W32573  23.171  38.438   3.322
73313W        W32574  38.959  16.157  12.932
73314W        W32575  19.187  10.734   2.819
73315W        W32576  31.583  30.513  14.332
73316W        W32577  26.673  35.037   2.355
73317W        W32578  43.002  31.494   4.640
73318W        W32579   7.284  31.414  11.507
73319W        W32580  25.197  29.640   3.792
73320W        W32581   6.904   1.251   2.775
73321W        W32582  10.764  21.248  14.308
73322W        W32583  20.189  26.134   3.250
73323W        W32584   6.859  26.649   4.115
73324W        W32585  11.769  24.698   2.891
73325W        W32586   9.247  37.982  14.830
73326W        W32587  14.604   0.283   1.442
73327W        W32588  10.702  22.155   3.365
73328W        W32589  39.471  35.446   9.965
73329W        W32590  17.079  42.866   0.469
73330W        W32591  11.320  23.223   2.779
73331W        W32592  22.175  18.052   1.418
73332W        W32593   0.327   9.150   4.607
73333W        W32594  31.943   2.824   1.818
73334W        W32595   1.251  42.976   3.329
73335W        W32596  41.917  21.593   0.366
73336W        W32597  20.620  36.516  10.433
73337W        W32598  21.519   3.243  11.020
73338W        W32599   5.413  14.155  11.420
73339W        W32600   6.236  34.499   3.741
73340W        W32601  11.788  26.990  13.436
73341W        W32602  29.108  16.605   4.758
73342W        W32603  28.027  21.238  10.935
73343W        W32604  11.249  28.467   2.385
73344W        W32605   4.703  18.060  14.866
73345W        W32606  16.704  36.532   4.630
73346W        W32607  27.576  11.827  14.351
73347W        W32608   2.255  16.629   3.805
73348W        W32609  33.498   3.270   3.862
73349W        W32610   6.405  44.347  13.957
73350W        W32611  42.896  42.019   0.311
73351W        W32612  38.823  27.187  10.502
73352W        W32613  29.918  11.142   2.843
73353W        W32614  39.941  14.733   0.929
73354W        W32615  22.101   7.803   3.778
73355W        W32616  31.146  30.992  11.029
73356W        W32617  15.158  35.854  11.929
73357W        W32618  15.779  19.222  13.875
73358W        W32619   2.417  30.490  10.993
73359W        W32620  42.501  34.063  14.932
73360W        W32621  16.743  14.297  12.479
73361W        W32622   4.446  28.129   3.738
73362W        W32623  32.939  42.366   1.728
73363W        W32624  36.954  32.071  12.490
73364W        W32625  12.234  15.232   0.884
73365W        W32626  26.105  19.112   2.713
73366W        W32627  24.573  28.465  13.817
73367W        W32628  10.726  28.580  11.938
73368W        W32629  10.219   7.691   3.652
73369W        W32630  10.138  14.616  13.437
73370W        W32631  23.697  19.209  14.306
73371W        W32632  18.181   0.988  13.462
73372W        W32633   9.682  12.749   1.883
73373W        W32634  30.646   4.296   0.775
73374W        W32635  33.485   4.394  11.519
73375W        W32636  44.782  10.823   3.790
73376W        W32637  23.173  40.865  10.549
73377W        W32638  36.891  36.980  14.303
73378W        W32639  33.507  22.706   5.262
73379W        W32640   6.326  33.939   1.430
73380W        W32641  11.788  31.908   0.769
73381W        W32642  30.059   9.156  12.409
73382W        W32643  34.389   5.804   3.241
73383W        W32644  24.028  14.832  10.888
73384W        W32645  38.508  38.556  11.878
73385W        W32646   9.170  28.162   4.172
73386W        W32647  31.056  30.068   0.905
73387W        W32648  33.992  23.575  12.978
73388W        W32649  27.991  38.989  12.028
73389W        W32650  33.086  40.481   9.437
73390W        W32651   3.737  24.677   0.260
73391W        W32652  13.250   0.838   0.303
73392W        W32653  32.910   2.952   2.380
73393W        W32654  20.133  28.025  14.353
73394W        W32655  30.627  15.185   4.657
73395W        W32656  35.960  25.641   3.779
73396W        W32657  26.081  28.940  12.969
73397W        W32658  12.637  29.573  13.508
73398W        W32659  39.414   3.346  14.885
73399W        W32660   8.196  27.604   2.855
73400W        W32661  13.780   8.353   4.170
73401W        W32662  34.608  13.613   2.877
73402W        W32663  38.461  39.324  13.499
73403W        W32664  31.426  23.593  13.482
73404W        W32665  21.028  38.372   3.374
73405W        W32666  38.460   3.356   1.900
73406W        W32667   3.726   1.896   2.746
73407W        W32668  10.206   8.289   3.348
73408W        W32669   1.353  30.633   0.797
73409W        W32670  29.163  13.702  12.068
73410W        W32671  18.594  26.976  11.939
73411W        W32672  35.386  39.037  14.441
73412W        W32673  12.145  42.956  14.997
73413W        W32674  44.313   4.206  14.761
73414W        W32675  12.323   6.798  14.319
73415W        W32676  37.976   5.255  14.839
73416W        W32677  39.938  25.710  12.030
73417W        W32678  42.306  11.818   3.852
73418W        W32679  36.886  17.765  11.932
73419W        W32680   0.467  15.682   4.162
73420W        W32681  34.475  37.480   0.876
73421W        W32682  17.096  30.550  12.875
73422W        W32683  12.189   9.362   1.910
73423W        W32684  24.119  10.846  11.889
73424W        W32685   0.984  15.122   3.355
73425W        W32686  13.616  23.167   2.695
73426W        W32687  29.045   3.396  11.456
73427W        W32688  26.100  37.490  13.417
73428W        W32689  43.446  26.571   1.377
73429W        W32690  13.612  19.732  13.356
73430W        W32691  24.033  16.714  13.866
73431W        W32692  17.064  37.873  13.389
73432W        W32693  19.267  18.103  12.503
73433W        W32694  14.242  41.501   9.983
73434W        W32695  31.467   7.222  12.443
73435W        W32696  17.700  20.665  12.543
73436W        W32697  16.777  15.730  10.905
73437W        W32698  10.852  18.654   0.922
73438W        W32699   6.258  19.130  13.329
73439W        W32700  26.188  43.419   1.405
73440W        W32701  41.788   2.385   4.261
73441W        W32702  15.676  35.041   3.806
73442W        W32703  30.925  21.097  10.123
73443W        W32704   1.285  43.970  10.630
73444W        W32705   3.894  38.071  11.930
73445W        W32706  31.048  43.854  13.422
73446W        W32707   3.394  20.723   0.762
73447W        W32708  39.814  20.617  14.393
73448W        W32709   9.778  35.854  11.495
73449W        W32710  39.867  12.327  12.018
73450W        W32711  44.904  44.806  12.491
73451W        W32712   6.739  11.211   3.323
73452W        W32713  23.057  37.499   3.655
73453W        W32714  35.437  11.754  12.941
73454W        W32715  37.355  38.042  12.973
73455W        W32716  23.678   3.419  14.853
73456W        W32717  42.892   4.439   2.403
73457W        W32718  13.233  22.636   3.302
73458W        W32719  44.893   6.829  14.801
73459W        W32720  39.903  33.914  10.456
73460W        W32721  28.579  15.665  12.374
73461W        W32722  22.505  23.179   0.306
73462W        W32723  15.163   2.439  10.910
73463W        W32724  29.507  18.153  14.897
73464W        W32725   7.301   9.248  14.794
73465W        W32726  16.230  31.951   1.919
73466W        W32727  37.027  16.745  12.015
73467W        W32728  43.482  30.581  10.532
73468W        W32729   4.442  14.713   1.274
73469W        W32730  40.316  33.531   3.794
73470W        W32731  11.803  12.679   0.893
73471W        W32732   4.366  20.732   4.198
73472W        W32733  21.125  11.178  12.446
73473W        W32734   8.164  34.436   2.385
73474W        W32735   1.421   9.171   0.893
73475W        W32736   9.793  28.609  12.360
73476W        W32737   8.680  32.120   1.930
73477W        W32738  27.972   2.268   3.378
73478W        W32739   3.274  37.069  10.897
73479W        W32740   1.734  10.256   0.846
73480W        W32741  20.596   9.302   3.346
73481W        W32742  44.297  33.940   2.346
73482W        W32743  32.925  17.246  12.025
73483W        W32744   7.838  41.953  11.560
73484W        W32745  34.031  10.274  12.078
73485W        W32746  24.657  20.559  11.575
73486W        W32747  36.048  34.885   0.737
73487W        W32748  21.555  15.094   1.317
73488W        W32749   6.306  26.208  12.086
73489W        W32750  40.921  44.281  14.404
73490W        W32751  30.097  37.984  13.921
73491W        W32752   8.312  15.786  14.394
73492W        W32753   1.904  42.915   1.375
73493W        W32754  17.146  11.355  14.346
73494W        W32755   6.874  42.785   3.360
73495W        W32756  29.077  28.624  14.340
73496W        W32757  19.708   7.204   0.766
73497W        W32758  34.543  21.691   1.778
73498W        W32759  43.435   3.291  10.555
73499W        W32760  25.993   7.271   1.389
73500W        W32761  41.390  38.510  13.361
73501W        W32762  21.054  29.445  10.925
73502W        W32763  21.114  18.637   0.467
73503W        W32764  34.413  26.020  11.536
73504W        W32765   9.781  38.368  13.488
73505W        W32766  18.733   3.716  12.547
73506W        W32767  26.207  13.133   3.212
73507W        W32768   9.862   5.716   0.414
73508W        W32769   0.984  14.174  14.777
73509W        W32770  27.511  13.754   2.391
73510W        W32771  13.616  16.180  14.344
73511W        W32772  38.520  26.127  14.028
73512W        W32773  42.522  38.468  11.495
73513W        W32774  20.078  35.417  13.408
73514W        W32775   7.875  23.728  10.534
73515W        W32776  38.955  36.443   5.685
73516W        W32777  32.904  14.094  11.428
73517W        W32778  37.914  10.202  14.510
73518W        W32779  44.807  13.158  14.471
73519W        W32780   2.253   7.862   0.384
73520W        W32781  20.221  31.019   1.309
73521W        W32782   5.259  18.070  12.456
73522W        W32783   4.757  20.678   1.265
73523W        W32784  19.171  29.971   0.836
73524W        W32785  22.077  36.027  13.811
73525W        W32786  24.618  17.288  12.411
73526W        W32787  37.425  22.028  12.350
73527W        W32788  41.334  12.160  12.063
73528W        W32789  36.553   2.233   4.229
73529W        W32790  23.077   6.222  11.073
73530W        W32791  42.471  32.025  11.517
73531W        W32792  25.691  39.815  13.943
73532W        W32793   6.369  40.806   2.180
73533W        W32794  27.607   7.292  14.001
73534W        W32795  43.390  44.474   0.786
73535W        W32796  26.166  29.500  11.431
73536W        W32797  44.953   7.233  12.080
73537W        W32798  12.755   3.444   4.817
73538W        W32799  17.714  42.795   3.800
73539W        W32800  17.301  13.153  14.966
73540W        W32801   0.489  29.595  14.312
73541W        W32802  20.168   3.312   1.719
73542W        W32803   8.286   4.752   0.457
73543W        W32804  44.277  18.677  11.002
73544W        W32805   7.776  29.124   1.836
73545W        W32806  17.156   0.811   4.223
73546W        W32807  33.942  10.302   4.137
73547W        W32808  36.851   9.704   4.766
73548W        W32809  21.714  24.628  14.387
73549W        W32810  38.988  26.568   4.748
73550W        W32811  11.193  26.015   4.676
73551W        W32812   5.229  17.293   1.864
73552W        W32813   7.305  40.395   1.929
73553W        W32814  43.003   5.696   1.428
73554W        W32815   9.345  19.172   4.170
73555W        W32816   7.862  37.567  14.430
73556W        W32817  40.530  22.683   3.742
73557W        W32818  10.789  42.434   4.713
73558W        W32819   6.832  27.483  10.435
73559W        W32820  18.595  40.458   1.744
73560W        W32821  10.160  43.945  12.970
73561W        W32822  31.523  27.662  12.475
73562W        W32823  30.606  35.910   1.762
73563W        W32824  30.978  42.991   0.964
73564W        W32825   1.893  24.486   0.320
73565W        W32826   5.903   4.704   2.188
73566W        W32827  41.350  28.056  11.915
73567W        W32828  13.346  42.908   4.172
73568W        W32829  29.976  23.681   1.222
73569W        W32830   3.388  22.633   1.218
73570W        W32831  41.348  32.890  10.594
73571W        W32832  44.859  28.089   0.955
73572W        W32833  24.162  14.636  13.856
73573W        W32834  43.369  33.878  12.569
73574W        W32835  20.240  27.149   1.381
73575W        W32836  17.677  28.127   0.827
73576W        W32837  28.005  41.453   0.307
73577W        W32838  25.191  38.405   4.611
73578W        W32839  34.544  41.855  13.837
73579W        W32840  35.500   4.698  10.486
73580W        W32841  24.982  35.878   2.283
73581W        W32842  39.885   2.278  10.427
73582W        W32843  40.544   9.794   0.812
73583W        W32844  32.892  35.473  12.001
73584W        W32845  16.165  35.048  13.537
73585W        W32846  15.645  37.921  10.548
73586W        W32847   1.297  36.349  11.078
73587W        W32848  13.767  16.786  14.460
73588W        W32849  19.077  10.662  12.497
73589W        W32850  44.310   1.465   2.875
73590W        W32851  11.724  24.497  12.424
73591W        W32852   3.297  29.582   3.665
73592W        W32853  18.623   9.288  11.059
73593W        W32854  35.453  19.587  14.029
73594W        W32855  11.194  35.924  13.871
73595W        W32856  34.581  44.313   3.800
73596W        W32857  13.121   6.693  14.850
73597W        W32858  24.544   8.709   1.447
73598W        W32859  25.596  44.825   2.839
73599W        W32860  35.430  15.289  12.413
73600W        W32861  43.313  36.357   1.723
73601W        W32862  12.832  12.754   1.733
73602W        W32863  40.835   5.723  13.362
73603W        W32864  40.919  39.316  10.405
73604W        W32865  11.367  18.702   4.718
73605W        W32866  33.961  23.210  14.494
73606W        W32867  29.485  24.047  10.987
73607W        W32868  37.066  39.965   4.174
73608W        W32869  42.836  34.106   2.240
73609W        W32870  34.541  18.216  12.877
73610W        W32871  30.973  38.403   3.148
73611W        W32872  27.030  28.949   2.394
73612W        W32873  34.520  37.994   1.400
73613W        W32874  19.111  32.532   4.626
73614W        W32875  21.254  20.685  14.353
73615W        W32876  24.016  31.531   0.462
73616W        W32877   9.689  28.490   1.695
73617W        W32878  32.012   1.461  11.036
73618W        W32879   3.923  28.060   1.357
73619W        W32880   8.273  33.111  11.013
73620W        W32881  28.616   7.769   2.684
73621W        W32882  21.142   5.732  11.954
73622W        W32883  13.351  42.783   2.393
73623W        W32884  21.202  39.555  13.513
73624W        W32885   8.757  31.020   1.748
73625W        W32886  20.580  29.519  13.523
73626W        W32887  21.758  44.980   4.318
73627W        W32888  19.643   7.695   4.153
73628W        W32889  41.421   6.404  11.434
73629W        W32890  12.631  11.137  13.370
73630W        W32891  26.977  10.667   2.372
73631W        W32892  38.946  31.493   2.419
73632W        W32893   6.728  10.853  10.421
73633W        W32894  44.364  35.968  10.470
73634W        W32895   4.242  34.981   3.700
73635W        W32896  21.654   3.713  14.855
73636W        W32897  21.749  10.282  11.604
73637W        W32898  13.121  17.221  13.932
73638W        W32899  44.274   2.881   4.349
73639W        W32900  25.530  16.722   3.234
73640W        W32901  18.671   8.188   2.702
73641W        W32902   1.924  21.579  10.603
73642W        W32903  17.755   0.431   1.254
73643W        W32904  23.614  11.648   0.322
73644W        W32905  11.762  26.152   9.990
73645W        W32906  15.670  39.957  12.075
73646W        W32907  21.126  40.852  11.115
73647W        W32908   7.819  41.817  12.083
73648W        W32909  20.604  39.451  12.833
73649W        W32910  39.461  26.065   0.775
73650W        W32911  39.552  42.425   4.234
73651W        W32912  13.109  26.163  14.901
73652W        W32913  22.719  35.404   0.787
73653W        W32914  31.059  18.582   3.775
73654W        W32915   6.333  21.193   2.200
73655W        W32916  18.073  10.294   4.787
73656W        W32917  10.675  31.544   0.383
73657W        W32918  26.961  24.218   1.800
73658W        W32919  16.130  35.001  11.901
73659W        W32920  19.606  10.201   4.812
73660W        W32921  10.719  34.044   2.845
73661W        W32922   7.735  18.714  14.515
73662W        W32923  28.612  19.652  11.446
73663W        W32924  40.368  11.158   0.356
73664W        W32925   8.315   4.803   4.707
73665W        W32926  19.074   9.839  12.517
73666W        W32927  36.428   5.710   1.252
73667W        W32928  13.838  43.996  11.909
73668W        W32929  32.413  19.574   4.288
73669W        W32930   9.669  41.308  11.377
73670W        W32931  26.966  22.598  10.157
73671W        W32932  36.039  44.468   1.874
73672W        W32933  39.944   3.456  13.872
73673W        W32934  43.322  42.310   4.154
73674W        W32935  40.363  17.600   1.870
73675W        W32936  34.065  32.447  11.048
73676W        W32937  15.177  14.755   4.714
73677W        W32938  27.192  42.413  13.339
73678W        W32939  17.719  33.027   4.204
73679W        W32940  42.918  33.007  12.535
73680W        W32941   3.759   3.289   2.381
73681W        W32942  44.903  28.460  14.398
73682W        W32943  24.025  22.629   9.961
73683W        W32944  38.917  17.800   3.292
73684W        W32945  39.322  20.098   2.852
73685W        W32946  35.884  33.886  12.077
73686W        W32947  38.970  18.768  13.331
73687W        W32948  34.890  20.198   0.286
73688W        W32949  37.393  16.158   2.404
73689W        W32950  22.052  19.779   0.734
73690W        W32951  36.421   7.888   3.273
73691W        W32952  17.304   0.823  14.999
73692W        W32953  25.207  26.050   3.234
73693W        W32954  37.846  18.121   4.668
73694W        W32955   7.281  35.396   0.272
73695W        W32956   0.877   5.692  13.878
73696W        W32957   5.218  21.151   0.372
73697W        W32958   0.460  38.524   3.302
73698W        W32959  13.282  11.697   1.215
73699W        W32960  33.583  21.125   4.328
73700W        W32961  20.660  30.051   5.722
73701W        W32962  41.516  40.349  12.898
73702W        W32963   2.755  23.015  11.423
73703W        W32964  28.681  35.900  10.420
73704W        W32965  38.471   0.777   2.878
73705W        W32966  16.583   5.354  14.785
73706W        W32967  10.709  40.982  12.921
73707W        W32968  34.577  34.476   9.938
73708W        W32969  27.164  14.331  14.368
73709W        W32970  42.810  17.753   2.320
73710W        W32971  16.295   8.219   3.213
73711W        W32972   7.359  22.522  12.555
73712W        W32973  17.681  39.918  14.404
73713W        W32974  24.577  44.781  12.441
73714W        W32975  15.744   0.384   0.371
73715W        W32976   5.235   1.346  12.453
73716W        W32977  14.591   4.733   2.839
73717W        W32978  14.810  21.036   4.130
73718W        W32979  39.846  32.516   1.695
73719W        W32980  26.526  37.458  14.913
73720W        W32981  16.800  31.111  11.600
73721W        W32982  41.848  27.669   4.263
73722W        W32983  30.639   9.842   1.852
73723W        W32984  34.375  41.344  12.547
73724W        W32985   4.701  34.875  10.957
73725W        W32986  14.314  10.850   0.959
73726W        W32987  25.168   8.268   0.757
73727W        W32988   9.356  28.553  14.025
73728W        W32989  20.579   8.808  14.908
73729W        W32990   2.901  21.033   2.811
73730W        W32991  44.884  11.793   1.415
73731W        W32992  23.219  28.124  14.898
73732W        W32993   2.762  33.005  14.306
73733W        W32994  36.962  37.022  10.934
73734W        W32995  35.885  28.049   4.794
73735W        W32996  33.882  32.615   0.304
73736W        W32997  12.611  33.875  13.463
73737W        W32998   7.396  19.110  12.413
73738W        W32999   2.270  21.750   0.794
73739W        W33000  38.536  21.028   2.277
73740W        W33001  21.606  17.577  14.462
73741W        W33002  42.314  15.647   1.911
73742W        W33003  19.230  23.020   2.326
73743W        W33004  39.371  17.189  13.807
73744W        W33005  15.082  37.013   1.837
73745W        W33006  36.446  39.508   4.271
73746W        W33007  25.568  20.271   3.305
73747W        W33008  35.902  11.271  10.003
73748W        W33009  28.681  10.329  12.437
73749W        W33010  37.512   0.835   5.224
73750W        W33011   1.479  38.052   1.888
73751W        W33012  12.172  31.104  14.505
73752W        W33013  42.993  40.461  13.954
73753W        W33014   3.913  20.220   0.803
73754W        W33015   4.866   4.336   1.227
73755W        W33016  44.282  41.525   4.136
73756W        W33017  13.744  22.038   3.317
73757W        W33018   3.454  12.303  12.841
73758W        W33019   1.395  31.441   0.256
73759W        W33020  31.632  29.036   2.302
73760W        W33021  25.977  19.214  14.442
73761W        W33022  44.882  39.345  14.846
73762W        W33023   2.724   6.869  10.889
73763W        W33024  41.837  32.946   9.633
73764W        W33025   0.864  28.151   1.811
73765W        W33026  37.545   5.292   4.348
73766W        W33027  43.881  17.284   3.238
73767W        W33028  31.100  31.986   5.152
73768W        W33029  28.652   1.343   1.427
73769W        W33030  19.680  33.563  11.066
73770W        W33031   6.902  14.703   2.290
73771W        W33032   4.836  41.956  10.584
73772W        W33033  13.187  32.418  11.032
73773W        W33034  22.614  13.325   3.186
73774W        W33035  12.249  18.785   1.822
73775W        W33036  38.371  11.838   2.288
73776W        W33037   4.374  33.466   1.408
73777W        W33038  19.082  14.615  14.347
73778W        W33039  38.486   0.833   0.250
73779W        W33040  39.530   9.760  10.973
73780W        W33041  42.977  33.577   3.203
73781W        W33042  17.264  16.717   1.822
73782W        W33043   8.751  15.254  11.121
73783W        W33044   9.180  12.223   3.186
73784W        W33045  25.685  33.125  11.591
73785W        W33046  15.636  35.542  11.955
73786W        W33047   2.844  41.424   1.295
73787W        W33048  20.210  18.568   1.903
73788W        W33049  26.965   7.735   3.653
73789W        W33050  18.784   4.872   5.320
73790W        W33051  32.512  20.676   2.677
73791W        W33052  43.336  43.511  11.422
73792W        W33053   7.262  15.230  10.898
73793W        W33054   2.402  22.160  11.871
73794W        W33055   2.941   6.400   2.402
73795W        W33056  14.602  38.046  13.399
73796W        W33057  27.141  26.556  13.461
73797W        W33058  28.071  23.131   3.648
73798W        W33059  32.596  29.590   1.852
73799W        W33060  35.108  13.746  11.106
73800W        W33061  19.656  39.332  14.903
73801W        W33062  41.040  10.156  11.097
73802W        W33063  44.286  15.222  14.817
73803W        W33064  29.594  43.993   0.760
73804W        W33065  32.417  10.824  11.415
73805W        W33066  14.728  12.616  11.458
73806W        W33067  25.209  17.209  11.521
73807W        W33068   7.264  27.074   3.840
73808W        W33069   0.475  30.023   1.724
73809W        W33070   1.422   4.884  10.443
73810W        W33071  35.496  38.529  13.456
73811W        W33072  15.728  10.814  12.991
73812W        W33073  32.033  33.437  10.153
73813W        W33074   5.779  25.211   0.355
73814W        W33075   0.762  27.945   1.449
73815W        W33076   0.331   5.219  11.454
73816W        W33077  29.576  27.113   2.393
73817W        W33078  31.454   7.849   2.676
73818W        W33079  32.045  11.865  12.486
73819W        W33080  23.581  15.294  12.029
73820W        W33081  19.709  22.081   1.704
73821W        W33082   9.796   1.312  13.322
73822W        W33083  34.376  31.985  12.442
73823W        W33084  28.983  42.413   1.806
73824W        W33085  17.691  19.151   0.265
73825W        W33086  40.445  39.935  11.586
73826W        W33087  21.250  32.126   2.799
73827W        W33088  38.413  38.466   4.126
73828W        W33089  25.641  30.576   4.680
73829W        W33090   2.832  15.738   4.150
73830W        W33091   5.342   5.754  13.443
73831W        W33092  41.868  41.441  11.510
73832W        W33093  36.580   1.378  12.944
73833W        W33094  11.311  11.148  11.582
73834W        W33095  37.567  19.183  12.381
73835W        W33096  14.767   0.966   4.240
73836W        W33097  12.709  35.911   4.762
73837W        W33098  37.869  18.069   2.806
73838W        W33099   0.406   4.831  12.849
73839W        W33100  19.723   2.268   4.771
73840W        W33101  33.405  27.131  12.545
73841W        W33102  37.887   1.244   4.284
73842W        W33103   6.849   9.307   2.325
73843W        W33104  37.383  29.598  13.802
73844W        W33105  38.508   4.294  12.540
73845W        W33106  30.950   3.362   3.852
73846W        W33107  43.323  17.682  11.050
73847W        W33108  12.168   5.193   0.866
73848W        W33109  15.799  14.651   2.185
73849W        W33110  10.761  44.992  12.445
73850W        W33111   5.797  44.427  12.436
73851W        W33112  29.175  35.369  12.944
73852W        W33113  22.222  41.804  14.464
73853W        W33114  41.493  25.653   4.212
73854W        W33115  16.217  23.549   1.875
73855W        W33116  32.009  15.105  14.477
73856W        W33117   0.373  40.866   2.304
73857W        W33118  34.568  28.032  14.414
73858W        W33119  28.016  28.169   1.792
73859W        W33120  39.546  22.664   3.788
73860W        W33121  22.041  22.103   0.247
73861W        W33122   7.206  30.504  13.544
73862W        W33123  17.779  16.303  11.398
73863W        W33124  40.800  40.531   1.338
73864W        W33125  43.931  14.126   0.851
73865W        W33126  23.145  12.710   4.648
73866W        W33127   5.706   9.331  10.119
73867W        W33128  31.416  44.885  14.375
73868W        W33129   8.863  28.990   3.709
73869W        W33130  14.646  20.660  12.843
73870W        W33131  23.109   0.829   1.290
73871W        W33132  39.457  38.568  14.335
73872W        W33133  10.248  26.681  14.505
73873W        W33134  29.962   7.353  11.955
73874W        W33135  33.092  38.842  10.425
73875W        W33136  42.370  37.037  12.557
73876W        W33137  22.737  44.786   4.244
73877W        W33138  39.828  44.355  10.922
73878W        W33139  22.714  19.551  12.953
73879W        W33140  29.479  20.061   2.311
73880W        W33141  28.588   4.212  14.471
73881W        W33142  36.588  32.080   4.768
73882W        W33143  18.132  15.754  12.428
73883W        W33144  10.203  44.495  13.048
73884W        W33145  35.558  28.141  11.418
73885W        W33146  26.066  32.474  12.345
73886W        W33147  12.618  11.711  11.098
73887W        W33148  13.272  42.859  10.447
73888W        W33149  34.109  23.084   4.185
73889W        W33150  37.964  39.900   4.695
73890W        W33151   0.251  24.020  12.544
73891W        W33152  39.514   0.871   3.219
73892W        W33153  34.373  26.013  11.080
73893W        W33154  41.025  19.564  14.805
73894W        W33155   3.240  21.609   1.214
73895W        W33156  13.663  29.094   3.654
73896W        W33157  30.545  42.978  13.391
73897W        W33158   6.276  28.130   0.300
73898W        W33159  41.955  37.409  14.807
73899W        W33160  22.633   1.388   1.708
73900W        W33161  13.618  32.446  14.805
73901W        W33162  29.123  16.758  13.519
73902W        W33163  12.347  36.579   3.233
73903W        W33164  27.127  26.627   5.615
73904W        W33165  22.101   9.817   0.944
73905W        W33166  16.644   6.828  14.465
73906W        W33167  16.611  35.370   0.384
73907W        W33168  32.940  27.473  14.892
73908W        W33169   8.389  20.748   1.358
73909W        W33170   0.804  14.171  13.013
73910W        W33171  14.691  12.843  14.425
73911W        W33172  32.909  30.625   2.254
73912W        W33173  36.506  33.540   0.395
73913W        W33174  18.120  13.174   2.281
73914W        W33175  14.721   5.882  12.916
73915W        W33176  27.073  15.236   4.660
73916W        W33177  38.845  11.684   3.328
73917W        W33178  33.994  32.964   0.751
73918W        W33179  29.461  28.574   3.378
73919W        W33180   1.238   4.803   2.684
73920W        W33181   9.884  14.210   3.638
73921W        W33182  11.174  36.502   4.343
73922W        W33183   3.347  37.891  12.918
73923W        W33184  25.617  23.682  12.019
73924W        W33185   0.260  39.474  11.447
73925W        W33186   6.188  20.614   0.394
73926W        W33187  39.998   4.940  12.019
73927W        W33188  43.513   0.346   1.253
73928W        W33189  34.528   6.819   4.793
73929W        W33190  15.581  16.581   0.394
73930W        W33191  24.562  14.729  12.996
73931W        W33192  20.268  37.438  10.579
73932W        W33193  37.453  30.520  11.012
73933W        W33194   4.856   6.275  12.446
73934W        W33195  19.046   4.325   2.844
73935W        W33196   0.252  29.509  12.516
73936W        W33197  28.545  20.544   4.333
73937W        W33198  27.944  17.243   4.270
73938W        W33199  30.975  27.541  13.974
73939W        W33200  25.171   5.860  14.853
73940W        W33201   3.816  11.269  11.924
73941W        W33202  35.583  41.371   0.267
73942W        W33203  35.590   4.840   1.895
73943W        W33204  41.026  31.007   0.802
73944W        W33205  28.457  31.592  12.984
73945W        W33206   5.289  16.234   4.706
73946W        W33207  40.378  41.795   1.839
73947W        W33208  14.242   0.778  13.482
73948W        W33209  14.656   7.266   2.300
73949W        W33210  13.167   4.768  14.385
73950W        W33211   6.270  23.241   0.796
73951W        W33212  20.147  34.920   0.251
73952W        W33213  20.668  33.937   2.399
73953W        W33214   7.886  12.121   1.828
73954W        W33215   1.437  28.589   2.349
73955W        W33216  14.157  26.140  12.916
73956W        W33217  12.834  13.821  11.874
73957W        W33218  42.356  32.546   2.710
73958W        W33219  31.526  30.617   2.329
73959W        W33220   6.835   4.385  11.963
73960W        W33221  42.526  32.601  13.015
73961W        W33222  38.502  12.746   1.428
73962W        W33223   4.333  42.838  13.502
73963W        W33224  32.071  27.666  11.497
73964W        W33225  40.463  44.987   1.309
73965W        W33226  30.581  16.079  10.483
73966W        W33227  39.812  15.693   3.375
73967W        W33228  23.669  43.463   4.650
73968W        W33229  26.578  37.023  14.303
73969W        W33230  38.338  13.743  13.395
73970W        W33231  37.568   6.734  14.923
73971W        W33232   1.811   7.668  14.835
73972W        W33233  41.840   3.224   9.945
73973W        W33234  42.897  14.187  13.346
73974W        W33235  17.727  42.924  11.896
73975W        W33236  32.497  37.029   3.216
73976W        W33237  15.738  21.102  12.947
73977W        W33238  42.826   1.808   4.654
73978W        W33239   8.256  29.641   0.763
73979W        W33240  15.693  26.972  12.071
73980W        W33241   3.289   1.430   1.928
73981W        W33242  29.526  32.088   2.785
73982W        W33243  25.079  35.567   1.390
73983W        W33244  42.472  13.330  12.426
73984W        W33245  30.650  18.173   0.863
73985W        W33246  27.061  42.987  14.784
73986W        W33247  13.287  23.665  10.066
73987W        W33248  28.146  19.048   1.772
73988W        W33249  40.885   6.802  14.298
73989W        W33250  44.462   9.268   1.749
73990W        W33251  25.986   4.779   4.787
73991W        W33252  38.916   1.477  11.405
73992W        W33253  30.094  38.478  11.408
73993W        W33254  17.181  21.220  14.406
73994W        W33255  11.163   0.436   3.859
73995W        W33256  39.958   9.220   2.239
73996W        W33257  24.562  33.995   0.455
73997W        W33258   6.862   0.935   4.191
73998W        W33259  17.292  36.994  10.961
73999W        W33260  17.628   7.355   1.711
74000W        W33261  25.106  29.000  13.518
74001W        W33262  27.503  33.460  13.038
74002W        W33263  19.196  39.919   1.759
74003W        W33264  14.107  25.092  10.924
74004W        W33265  18.063  40.033   4.668
74005W        W33266  20.615  41.946  11.405
74006W        W33267  36.537  24.630   3.315
74007W        W33268  36.977  44.343   2.746
74008W        W33269  14.253   8.798  10.599
74009W        W33270   9.160  41.875   2.722
74010W        W33271  20.558  35.417  10.575
74011W        W33272  34.890  34.584   3.776
74012W        W33273  27.638  28.060   0.851
74013W        W33274  24.136  14.758   1.816
74014W        W33275  30.637  22.024  12.418
74015W        W33276   6.749  35.401   3.349
74016W        W33277  14.271   8.346   3.652
74017W        W33278  15.312  30.149  10.470
74018W        W33279  31.086  27.596  12.518
74019W        W33280  26.020  11.139   3.667
74020W        W33281  12.151  28.641   0.839
74021W        W33282   1.910  16.625  14.009
74022W        W33283  21.254  25.713   5.303
74023W        W33284  36.863   8.840   0.955
74024W        W33285  23.612  20.666  14.493
74025W        W33286  32.117   8.271  13.804
74026W        W33287   4.328  37.442   1.400
74027W        W33288   6.858  21.077  10.909
74028W        W33289  14.148  44.341  10.437
74029W        W33290  36.568   0.824   2.201
74030W        W33291   3.816   4.307  13.993
74031W        W33292  23.610  30.441   2.263
74032W        W33293  40.389  35.470  13.961
74033W        W33294  28.152  11.328  13.475
74034W        W33295  10.659  28.976  12.836
74035W        W33296  37.424  11.659   4.121
74036W        W33297  32.621   8.718   4.257
74037W        W33298  14.143  38.065  13.043
74038W        W33299  31.152   9.857   0.827
74039W        W33300  29.618  12.175   4.274
74040W        W33301  35.551  30.142  14.410
74041W        W33302  24.046  37.061  11.081
74042W        W33303  15.813  44.979  11.561
74043W        W33304   1.302   1.820   0.781
74044W        W33305  15.579  34.977   4.631
74045W        W33306  25.700  11.253   0.414
74046W        W33307  12.120  26.073  11.127
74047W        W33308  32.135   2.315  12.341
74048W        W33309  37.015   0.883   0.329
74049W        W33310   7.904  35.510   1.405
74050W        W33311  21.633  27.666  12.575
74051W        W33312  26.694  20.139   2.207
74052W        W33313  15.319  37.968  13.802
74053W        W33314  20.675  27.578  10.016
74054W        W33315  30.936  31.552  13.357
74055W        W33316   2.961   7.853  11.064
74056W        W33317  44.767  39.051   1.824
74057W        W33318  42.930  42.496  12.886
74058W        W33319  28.653   7.282   0.927
74059W        W33320  27.622  39.895  13.490
74060W        W33321  41.378  43.348   0.751
74061W        W33322  36.961  33.507   1.762
74062W        W33323  29.569  39.408  10.608
74063W        W33324   2.915  15.134   0.914
74064W        W33325  42.480  14.809   3.799
74065W        W33326  27.686  19.160   3.196
74066W        W33327  33.095  10.773   5.299
74067W        W33328  22.664   9.823   1.877
74068W        W33329  30.040  38.000  14.403
74069W        W33330  16.784  10.838  14.376
74070W        W33331  36.504  40.372   1.921
74071W        W33332   4.299  11.263   1.266
74072W        W33333   8.678  36.358  13.017
74073W        W33334   7.736   3.893   1.876
74074W        W33335  40.870  18.165  10.459
74075W        W33336  10.157  24.026   4.789
74076W        W33337  40.363  44.859  12.418
74077W        W33338  25.477   6.815   1.740
74078W        W33339  29.426  19.568  13.044
74079W        W33340  44.849  13.734   4.248
74080W        W33341  27.649  18.654  11.948
74081W        W33342  23.993  19.535   5.140
74082W        W33343  22.502  13.671   4.826
74083W        W33344  30.092  18.096   3.150
74084W        W33345  43.778  16.693   0.860
74085W        W33346  25.468  29.432   0.733
74086W        W33347  14.132  37.480  13.418
74087W        W33348   1.423  34.533  12.530
74088W        W33349   2.442  26.200  12.088
74089W        W33350  25.677  12.629  12.853
74090W        W33351  13.669  22.070  13.924
74091W        W33352  44.475  36.958   4.144
74092W        W33353  15.673   6.789   2.195
74093W        W33354  43.286  36.557   4.636
74094W        W33355  10.694  36.087  10.631
74095W        W33356  15.778  39.323   4.755
74096W        W33357  12.718  23.157   2.667
74097W        W33358  19.042  23.108  14.965
74098W        W33359   6.410   5.426  13.879
74099W        W33360   0.852  39.539  13.842
74100W        W33361  24.158   1.893   4.705
74101W        W33362  44.882   1.478  12.465
74102W        W33363   6.391  29.128  13.829
74103W        W33364   1.375  11.797  13.021
74104W        W33365   0.943   7.832   0.883
74105W        W33366   3.849  31.117  10.430
74106W        W33367  34.119  19.551   5.246
74107W        W33368  25.156   9.727   2.757
74108W        W33369  11.625  12.832  14.883
74109W        W33370   5.398   9.374  11.870
74110W        W33371  32.536  12.766   0.787
74111W        W33372  21.634  14.822   3.262
74112W        W33373  33.093  43.770  10.894
74113W        W33374   8.330  17.769  12.830
74114W        W33375  15.778  23.234  11.503
74115W        W33376  32.451  19.149   4.742
74116W        W33377   5.292  17.657  14.888
74117W        W33378   6.817  29.108  13.028
74118W        W33379  32.071  37.463  13.858
74119W        W33380  16.286  14.788   1.869
74120W        W33381  33.053  23.578  11.407
74121W        W33382  43.391  28.537   1.289
74122W        W33383  37.017  32.509   2.714
74123W        W33384  14.287   2.785  14.823
74124W        W33385  13.110  15.132  13.851
74125W        W33386  24.629   5.287   0.339
74126W        W33387  36.422  19.542   1.338
74127W        W33388  13.228   0.376  14.944
74128W        W33389   4.749   6.344   0.442
74129W        W33390   2.873   0.768  12.928
74130W        W33391  13.346  10.654  11.400
74131W        W33392  17.760  17.124   0.482
74132W        W33393  32.636   7.874   4.727
74133W        W33394   5.221  24.170   3.773
74134W        W33395   4.941  29.590  11.987
74135W        W33396   9.210  24.073  12.512
74136W        W33397  31.403  17.074   3.675
74137W        W33398  25.497  11.345  12.915
74138W        W33399  39.499   0.427  11.593
74139W        W33400  25.162  16.798  11.456
74140W        W33401  11.734  31.129   3.298
74141W        W33402  19.578  13.309  13.900
74142W        W33403  34.897   1.848   2.203
74143W        W33404  17.151   0.794   4.654
74144W        W33405  20.153  34.034  11.900
74145W        W33406  23.597  19.148   3.303
74146W        W33407  40.414  11.652  10.490
74147W        W33408  21.741  17.089  14.026
74148W        W33409   0.788  44.409   1.233
74149W        W33410  34.577   8.772  14.289
74150W        W33411  38.559   0.904   4.702
74151W        W33412  29.516  37.352  14.767
74152W        W33413  38.048  42.444   2.187
74153W        W33414   9.836  30.484   2.333
74154W        W33415   9.743  42.376   4.797
74155W        W33416  10.234  16.144  13.813
74156W        W33417  34.386  44.793  13.905
74157W        W33418  42.798  33.949   2.879
74158W        W33419  28.129  32.575   2.704
74159W        W33420   2.885  31.595  12.091
74160W        W33421  20.603   7.699  14.013
74161W        W33422  40.340   2.725  13.808
74162W        W33423  38.075   2.379  11.061
74163W        W33424   5.729  25.553   4.677
74164W        W33425  32.919  27.653   1.426
74165W        W33426  22.519  15.230   0.837
74166W        W33427  19.562  39.456   0.245
74167W        W33428  19.546  35.476  12.431
74168W        W33429  42.960   4.832   0.930
74169W        W33430  13.656  32.932  14.842
74170W        W33431   2.455  13.294   2.811
74171W        W33432  37.893  18.574  11.417
74172W        W33433  27.974  19.723  13.903
74173W        W33434  15.798  42.993  10.153
74174W        W33435  36.859  18.764   4.283
74175W        W33436  21.628  43.342   2.676
74176W        W33437  35.586   6.878  14.294
74177W        W33438   0.896  36.468   1.748
74178W        W33439  12.356  25.039   3.339
74179W        W33440   2.735  37.084   0.381
74180W        W33441  30.037   9.209   2.690
74181W        W33442  17.715  41.915   3.770
74182W        W33443   9.791   2.749  11.441
74183W        W33444  18.626  13.817   2.803
74184W        W33445  38.477  34.969  12.068
74185W        W33446  39.855  24.047  10.502
74186W        W33447  27.992  25.082   0.246
74187W        W33448  22.582   3.714   1.714
74188W        W33449  19.175  16.255  13.894
74189W        W33450  33.494  37.043  13.025
74190W        W33451  24.191  28.586   0.481
74191W        W33452  22.190   5.250  12.867
74192W        W33453  38.032  13.716   1.420
74193W        W33454  38.992  32.915  14.384
74194W        W33455  32.890  10.646  13.022
74195W        W33456  36.920   1.900  13.491
74196W        W33457  10.822  40.994   0.829
74197W        W33458  20.136  24.491   2.739
74198W        W33459   0.950  27.679   3.803
74199W        W33460  15.257  30.034  12.513
74200W        W33461  31.538  33.618   0.759
74201W        W33462  18.647   7.894  13.911
74202W        W33463  20.702  21.620   3.716
74203W        W33464   5.256  36.861  11.046
74204W        W33465  24.492  38.459  14.444
74205W        W33466  23.117   8.833   4.765
74206W        W33467  26.632  25.568   1.705
74207W        W33468  17.663  37.582   3.710
74208W        W33469  34.009  39.470   2.782
74209W        W33470  41.023   9.834  11.456
74210W        W33471  24.656  35.509   3.703
74211W        W33472  21.033  41.388   0.832
74212W        W33473  40.477   4.929  11.953
74213W        W33474  27.574  34.900  11.049
74214W        W33475  13.207  44.990   3.749
74215W        W33476  29.490  37.508  10.994
74216W        W33477  14.637  42.027   2.712
74217W        W33478  43.973  34.917  14.449
74218W        W33479  12.243  41.989  12.564
74219W        W33480  35.386  25.480   0.865
74220W        W33481  18.258  32.945  14.319
74221W        W33482  28.126   9.781  14.898
74222W        W33483  10.367  35.499  11.014
74223W        W33484  44.950   8.853  10.619
74224W        W33485  20.742  43.014  13.934
74225W        W33486   2.298   6.869  12.928
74226W        W33487  35.031  42.474   9.558
74227W        W33488  25.045  41.508   4.271
74228W        W33489   7.746  33.477  11.475
74229W        W33490  21.029  10.818   4.741
74230W        W33491  29.011   7.892   2.845
74231W        W33492   7.211  38.526  13.027
74232W        W33493   2.743   0.405   1.373
74233W        W33494  21.092  33.388  12.420
74234W        W33495  19.766   3.439   1.761
74235W        W33496  21.070  20.738   3.779
74236W        W33497  28.084   7.802   2.783
74237W        W33498   7.388   8.738   2.814
74238W        W33499  24.060  33.388   2.800
74239W        W33500  40.919  26.683   0.806
74240W        W33501  35.894   1.347  14.928
74241W        W33502  37.882  14.132   0.255
74242W        W33503   4.410  24.478  11.864
74243W        W33504  11.128  12.244  13.817
74244W        W33505  29.160  36.891  14.989
74245W        W33506   2.839  27.071  10.904
74246W        W33507  23.185  34.539  12.418
74247W        W33508  36.072  12.788   2.363
74248W        W33509  24.050   2.337  14.958
74249W        W33510  26.165  23.082  12.548
74250W        W33511  30.563  24.568  12.403
74251W        W33512  29.502   2.929  11.458
74252W        W33513   1.320  33.902   0.738
74253W        W33514   7.194  19.052   2.375
74254W        W33515   6.337  11.218   2.807
74255W        W33516  17.756  36.372   1.728
74256W        W33517  29.121  17.592   0.322
74257W        W33518  43.917  42.391   1.761
74258W        W33519   1.882  18.125   0.329
74259W        W33520  20.532   1.838   4.250
74260W        W33521   4.233   0.756   4.292
74261W        W33522  44.350  37.546   2.234
74262W        W33523   7.327   2.804  11.924
74263W        W33524   5.244  44.409   4.692
74264W        W33525  33.388  32.020  12.456
74265W        W33526   6.753  43.356   3.374
74266W        W33527  40.909   6.191   3.750
74267W        W33528  33.939  33.447   2.697
74268W        W33529  32.484  27.690  11.400
74269W        W33530  15.723  42.944  12.541
74270W        W33531   1.928  25.013   2.697
74271W        W33532  40.402  44.390   1.758
74272W        W33533  31.590   0.384  12.030
74273W        W33534  22.538  34.068   2.797
74274W        W33535   5.812  11.158   2.357
74275W        W33536  31.934  44.925  14.027
74276W        W33537   9.660   2.837   4.639
74277W        W33538  14.287  10.183   1.249
74278W        W33539  20.201   3.768  12.080
74279W        W33540   2.453  23.130   3.332
74280W        W33541  16.730  25.180   0.881
74281W        W33542  20.603  31.551   1.442
74282W        W33543  29.622   4.875   3.711
74283W        W33544  24.484  41.336   0.869
74284W        W33545   8.857  22.677   1.440
74285W        W33546  10.301   0.438   4.675
74286W        W33547  36.591  11.858  13.940
74287W        W33548  35.395  14.762  10.900
74288W        W33549  32.462  40.538   3.307
74289W        W33550  21.210   8.393   4.631
74290W        W33551  22.127  32.119   4.644
74291W        W33552  33.099  22.566  11.946
74292W        W33553  42.398   3.717   2.873
74293W        W33554  13.166  12.695   2.680
74294W        W33555   1.445   3.325  13.322
74295W        W33556  37.044  13.620   1.343
74296W        W33557  39.461  28.506   1.909
74297W        W33558  28.958  13.243  10.965
74298W        W33559  35.902  19.203   1.747
74299W        W33560   0.831  28.606   1.400
74300W        W33561  26.050  44.262   0.889
74301W        W33562   8.286  34.105   4.279
74302W        W33563   5.294  39.329  14.997
74303W        W33564   9.333  27.954  14.972
74304W        W33565  26.573  42.298  13.344
74305W        W33566  24.998  17.667  12.865
74306W        W33567  43.398  33.454   0.267
74307W        W33568   4.907  21.619   4.143
74308W        W33569  25.519  14.717   3.269
74309W        W33570  22.202  26.653  14.451
74310W        W33571  22.578  31.453   1.829
74311W        W33572  42.027  17.063   1.883
74312W        W33573  30.144   1.412   2.286
74313W        W33574  15.665  15.151   0.727
74314W        W33575   7.184  19.720  11.512
74315W        W33576  11.184  28.485  10.445
74316W        W33577  24.180  41.357   0.961
74317W        W33578   4.323  29.922   4.793
74318W        W33579  22.079  15.749  13.505
74319W        W33580  43.902  23.679   1.819
74320W        W33581  30.101  16.228  10.542
74321W        W33582  35.366  33.577  12.916
74322W        W33583  17.736  14.617  14.890
74323W        W33584  35.079  22.620  13.525
74324W        W33585  41.530  11.241   0.479
74325W        W33586  38.422  20.107  13.840
74326W        W33587  36.019   0.818  12.091
74327W        W33588  42.831  21.240  10.937
74328W        W33589  29.077  28.075  13.019
74329W        W33590  10.731  28.531   3.250
74330W        W33591  21.533  42.896   3.340
74331W        W33592  36.016  11.266   5.580
74332W        W33593   1.402  21.558  12.083
74333W        W33594  13.601  36.578   3.768
74334W        W33595  32.628  11.691   2.293
74335W        W33596  35.522  37.007   4.705
74336W        W33597  11.168  28.091  14.347
74337W        W33598  38.935  31.522  13.355
74338W        W33599  16.180  41.995  13.521
74339W        W33600   4.886  40.998  13.027
74340W        W33601  40.321  41.878  12.399
74341W        W33602  40.865  24.146  12.968
74342W        W33603  17.587  44.359   2.768
74343W        W33604   1.420  28.574  11.593
74344W        W33605  11.131  11.784  10.494
74345W        W33606  39.492  11.834   4.205
74346W        W33607  12.772  20.070   3.679
74347W        W33608  29.093  23.041  11.489
74348W        W33609  13.669  34.396   1.228
74349W        W33610   9.292  26.191   3.672
74350W        W33611  28.178  20.054   3.200
74351W        W33612  30.032   1.424   1.741
74352W        W33613  32.444  11.129   3.208
74353W        W33614  40.842  15.634   1.918
74354W        W33615  22.672  28.508  13.333
74355W        W33616   5.365  36.364  11.927
74356W        W33617   8.338  15.198  13.317
74357W        W33618  31.130  28.052   4.161
74358W        W33619  40.308  15.147   2.361
74359W        W33620  15.092  21.565   0.729
74360W        W33621  10.262  23.172   1.756
74361W        W33622   7.799  31.485  12.866
74362W        W33623  40.416   7.307  10.081
74363W        W33624   8.338  20.756  13.903
74364W        W33625  29.526  14.194   0.425
74365W        W33626  20.757   6.389   4.781
74366W        W33627   7.789  40.831  13.492
74367W        W33628  22.030  31.635  13.818
74368W        W33629   7.858  25.187   2.782
74369W        W33630  25.121   5.734  13.042
74370W        W33631  21.710   4.241  13.472
74371W        W33632  20.225   3.454   2.701
74372W        W33633  15.297  23.497   3.358
74373W        W33634   9.250  44.772   4.645
74374W        W33635  12.202  19.724   2.843
74375W        W33636  25.587   7.311  11.966
74376W        W33637  22.105  18.684   2.824
74377W        W33638  14.189  30.076  12.873
74378W        W33639  15.127  27.570  12.480
74379W        W33640  11.697   0.796  13.339
74380W        W33641  30.981  13.663  14.395
74381W        W33642  43.880  41.489  13.963
74382W        W33643  32.395  41.903   1.736
74383W        W33644  43.986  19.706   0.250
74384W        W33645  43.397  23.620   0.352
74385W        W33646   4.757  35.959  11.524
74386W        W33647  16.188  16.238   3.367
74387W        W33648  12.623  12.626  14.445
74388W        W33649  38.827  25.608  13.959
74389W        W33650  24.598  13.176   1.763
74390W        W33651  15.241  13.625   4.322
74391W        W33652  19.761  35.512  14.801
74392W        W33653  36.431  33.626  13.437
74393W        W33654  16.768  25.191  14.329
74394W        W33655   4.794  12.639   3.211
74395W        W33656  22.169  15.687   0.247
74396W        W33657  17.621   4.801   3.802
74397W        W33658   9.233  20.557   2.230
74398W        W33659  25.501  12.280  14.767
74399W        W33660  26.570  26.203  11.582
74400W        W33661  16.739   9.350   3.670
74401W        W33662   0.426  30.094   3.707
74402W        W33663  24.587  42.316  13.463
74403W        W33664   1.819  25.514  14.360
74404W        W33665  11.711  19.139  11.923
74405W        W33666  34.865  16.692  11.931
74406W        W33667  11.319   5.316   4.242
74407W        W33668  22.198  14.757  12.081
74408W        W33669   0.770   3.391   2.251
74409W        W33670   2.729  27.608  13.498
74410W        W33671  13.633   2.289   4.811
74411W        W33672  34.927  36.589  11.410
74412W        W33673   1.426  26.486  10.558
74413W        W33674  26.584  34.537  10.514
74414W        W33675  17.068   0.305   4.796
74415W        W33676  29.074  32.051   0.405
74416W        W33677   3.352  36.855  11.921
74417W        W33678  11.818  29.512   1.717
74418W        W33679   6.219   0.443   4.636
74419W        W33680  20.633   8.280   2.682
74420W        W33681  18.632  42.363   1.259
74421W        W33682  21.197  23.714   2.867
74422W        W33683  18.730  35.527   3.844
74423W        W33684  23.538   4.926  12.357
74424W        W33685   8.850  33.082   1.890
74425W        W33686   3.884   9.857  10.963
74426W        W33687  10.758  15.089   0.478
74427W        W33688  22.686  12.652   1.233
74428W        W33689  35.561  12.814   1.417
74429W        W33690  42.958  44.374   2.741
74430W        W33691   2.770   1.780   0.880
74431W        W33692  14.281  24.158   1.315
74432W        W33693  22.549  39.418   4.681
74433W        W33694  40.522  26.565  11.859
74434W        W33695   4.361   4.306  14.006
74435W        W33696  18.140  12.826  11.012
74436W        W33697   0.391  39.902   4.712
74437W        W33698  26.978  10.653   0.928
74438W        W33699  26.604  34.054  13.916
74439W        W33700   5.690  20.150   1.760
74440W        W33701  12.730  44.284  11.093
74441W        W33702  14.200  32.080   4.654
74442W        W33703  28.139  30.598   1.826
74443W        W33704  13.837  20.213   3.164
74444W        W33705   2.362  28.599  11.002
74445W        W33706   5.795  17.656  13.353
74446W        W33707  12.851  13.641   2.297
74447W        W33708  25.098   5.712   1.251
74448W        W33709   1.468  26.491   3.790
74449W        W33710  13.273  36.868   4.773
74450W        W33711  36.025  27.647  12.895
74451W        W33712  29.978  15.684   3.253
74452W        W33713  35.922  18.569  13.842
74453W        W33714  12.786  39.461  13.543
74454W        W33715  25.995   7.727   2.363
74455W        W33716  37.993  34.478   0.873
74456W        W33717  11.145  43.772   0.963
74457W        W33718  33.613  24.552  11.468
74458W        W33719   0.896   4.275  13.019
74459W        W33720  43.432  32.585   0.407
74460W        W33721  11.360   0.477  10.531
74461W        W33722   6.214  13.656   4.789
74462W        W33723  20.054  18.698   2.205
74463W        W33724  40.920  31.539   0.356
74464W        W33725   6.219   0.323   1.919
74465W        W33726  23.203  38.973   2.791
74466W        W33727   4.223  30.415   0.853
74467W        W33728  36.347  22.109   4.175
74468W        W33729   1.773  28.629   2.754
74469W        W33730  17.783  43.398   0.265
74470W        W33731  10.808  27.471  12.487
74471W        W33732  26.041   6.781  13.400
74472W        W33733  27.683  37.364   3.316
74473W        W33734  24.072   4.300  11.436
74474W        W33735  34.581   9.362   1.740
74475W        W33736  39.998   3.322   1.336
74476W        W33737   7.680  17.562   3.701
74477W        W33738   0.842   1.831  10.617
74478W        W33739  41.811  18.740   4.634
74479W        W33740  23.162  22.241   3.211
74480W        W33741  10.326  30.539  11.929
74481W        W33742  43.419  11.750   3.221
74482W        W33743   7.362  23.497   4.154
74483W        W33744  23.041   1.911   3.374
74484W        W33745   1.352  22.569  13.444
74485W        W33746  13.701  29.441  13.998
74486W        W33747   9.773  21.725  13.891
74487W        W33748   7.349   1.430   1.268
74488W        W33749  25.201  35.924   3.810
74489W        W33750  11.782  15.763  11.979
74490W        W33751  20.709  21.726   2.845
74491W        W33752  21.515   9.161   4.664
74492W        W33753  43.840  22.232  12.008
74493W        W33754  11.803  33.568  11.913
74494W        W33755   6.217  20.068   4.279
74495W        W33756  19.181  31.486   5.115
74496W        W33757  15.142  27.003   0.437
74497W        W33758   1.371   7.337  14.435
74498W        W33759   1.811  15.649   4.160
74499W        W33760  34.377  12.735   5.166
74500W        W33761   1.733  38.823  12.364
74501W        W33762   2.463   3.905  12.850
74502W        W33763  22.551  21.075   1.431
74503W        W33764  21.211   3.792   1.254
74504W        W33765  43.481   2.871  13.986
74505W        W33766  27.176  28.504  10.436
74506W        W33767  26.994  11.319   3.818
74507W        W33768  44.386   8.665   1.922
74508W        W33769  24.028  24.038   5.113
74509W        W33770   5.843   9.748   0.411
74510W        W33771  20.268  38.479   1.388
74511W        W33772  31.404   2.858   3.718
74512W        W33773   6.376  26.086  10.407
74513W        W33774  24.204   2.854  14.289
74514W        W33775   5.383  21.149  12.846
74515W        W33776  12.357   6.400  12.000
74516W        W33777   9.664  20.763  14.018
74517W        W33778  35.967  11.833  13.933
74518W        W33779  20.737  36.480   2.399
74519W        W33780  22.517  13.257   2.188
74520W        W33781  33.422   7.730   0.937
74521W        W33782  13.820   7.693  14.434
74522W        W33783  26.019  13.728   4.676
74523W        W33784  42.883  17.220   2.686
74524W        W33785  25.205  35.011  11.479
74525W        W33786   2.922  22.584  11.415
74526W        W33787   9.765  32.033   0.435
74527W        W33788  39.065   9.291   1.263
74528W        W33789  33.917   6.283  12.922
74529W        W33790  27.960   2.377   2.327
74530W        W33791  15.688  22.087  14.394
74531W        W33792  42.515  32.087   2.680
74532W        W33793  16.232   9.661  11.887
74533W        W33794  32.996  35.921   0.408
74534W        W33795   7.726  19.188  11.376
74535W        W33796  33.514  31.959   9.937
74536W        W33797  31.053  28.003  13.492
74537W        W33798   2.241  24.561  12.520
74538W        W33799  37.078  36.507   2.414
74539W        W33800  43.899  33.032  10.961
74540W        W33801  11.643  38.876   2.417
74541W        W33802   5.319   2.827   1.829
74542W        W33803  42.307   8.744   4.680
74543W        W33804  33.529  44.988   0.399
74544W        W33805  32.954   8.177   3.271
74545W        W33806  39.848  14.172   0.400
74546W        W33807  43.858  28.481  13.497
74547W        W33808  35.038  21.752   4.193
74548W        W33809  41.445   6.862   0.903
74549W        W33810  16.777  33.902  12.559
74550W        W33811   1.916  22.065   4.778
74551W        W33812  31.405  37.976  11.599
74552W        W33813  44.771  16.317   1.384
74553W        W33814  11.253  17.622   4.762
74554W        W33815  21.207   8.678  10.894
74555W        W33816  27.985   9.859   3.287
74556W        W33817  29.004  35.066  12.068
74557W        W33818   3.388   4.880  11.565
74558W        W33819  14.263  17.125  11.879
74559W        W33820   2.351   3.906   4.138
74560W        W33821  23.060   0.388  11.443
74561W        W33822  40.982  31.550  13.061
74562W        W33823  43.431  19.193  13.432
74563W        W33824  18.624   7.226   0.799
74564W        W33825  32.905  19.707   2.781
74565W        W33826   1.248  30.066   0.860
74566W        W33827  25.582  30.620  10.432
74567W        W33828  11.293  24.007  11.870
74568W        W33829  40.432   8.681   5.209
74569W        W33830  28.986  21.187  10.945
74570W        W33831  15.705   7.716  14.360
74571W        W33832   2.778  13.756  12.094
74572W        W33833   7.702  18.076  11.915
74573W        W33834  32.107  21.697  12.507
74574W        W33835  30.005  30.923  13.390
74575W        W33836   4.212  29.556   3.145
74576W        W33837  43.834  20.038   4.172
74577W        W33838  39.483   5.281  10.566
74578W        W33839  28.146  18.242  13.927
74579W        W33840  44.837  39.381  13.979
74580W        W33841  16.275  10.217   3.190
74581W        W33842   1.808  31.057   3.172
74582W        W33843  25.543  24.126   5.159
74583W        W33844  20.599  29.135   1.226
74584W        W33845   1.360  11.737   0.965
74585W        W33846  35.039   9.861  13.427
74586W        W33847  23.204  12.248  14.466
74587W        W33848  16.194  24.643   3.657
74588W        W33849   2.889  21.074   1.337
74589W        W33850  15.741  40.958   0.348
74590W        W33851  30.520  20.208   0.446
74591W        W33852  29.462  18.154   2.213
74592W        W33853  41.900   3.857  14.406
74593W        W33854  19.232   7.864   0.953
74594W        W33855  18.106  36.988   1.278
74595W        W33856   4.864  19.711  14.417
74596W        W33857  23.207  18.102   3.319
74597W        W33858  44.848  12.663  12.065
74598W        W33859  26.092  32.905  12.379
74599W        W33860  32.035  19.712   4.284
74600W        W33861  26.152  23.552   0.336
74601W        W33862  16.136  24.520   0.323
74602W        W33863  31.008  17.149   2.668
74603W        W33864  13.244  43.945  11.383
74604W        W33865  24.529  13.233  11.473
74605W        W33866  19.749  27.543  14.438
74606W        W33867  35.912   6.690  14.307
74607W        W33868  36.020  27.020  10.989
74608W        W33869  42.971  13.650  12.905
74609W        W33870  15.305   2.747   1.893
74610W        W33871   5.711   7.847  10.513
74611W        W33872  24.011  30.024  14.325
74612W        W33873   9.259   3.408   0.262
74613W        W33874  36.553   4.861  11.578
74614W        W33875  26.470  41.337  11.868
74615W        W33876  31.616  43.885   4.267
74616W        W33877  14.112  22.650  11.426
74617W        W33878  24.652   4.728  14.346
74618W        W33879  12.122   4.298   0.307
74619W        W33880  24.087  26.551   0.277
74620W        W33881  31.956  10.660   3.870
74621W        W33882  43.451  27.025  11.375
74622W        W33883  13.721  40.446  14.293
74623W        W33884  22.694  37.358  13.858
74624W        W33885  20.524  20.145   3.157
74625W        W33886  41.408  38.874   4.234
74626W        W33887   7.284  36.469  12.039
74627W        W33888  22.544   0.778  10.429
74628W        W33889  21.645  15.633   3.272
74629W        W33890   1.288  40.446   0.334
74630W        W33891   9.715  37.939  12.468
74631W        W33892  35.935  11.711   4.598
74632W        W33893  42.312  26.574   0.254
74633W        W33894  29.003   6.267  10.617
74634W        W33895  14.190  11.198  13.350
74635W        W33896   0.349  36.062  11.055
74636W        W33897  41.968   9.737  12.051
74637W        W33898  31.940  30.546  12.004
74638W        W33899  43.286  16.706   0.319
74639W        W33900  27.483  18.691   1.884
74640W        W33901  26.019  22.542   1.855
74641W        W33902  13.340   0.411   2.756
74642W        W33903  34.034  24.704  11.090
74643W        W33904  20.188   9.725   4.285
74644W        W33905  14.219   3.225   2.875
74645W        W33906  29.976   8.724  10.576
74646W        W33907  33.959  24.615  14.397
74647W        W33908  34.104  16.261   4.189
74648W        W33909   8.195  22.237  14.369
74649W        W33910   7.836   9.366  10.114
74650W        W33911  14.299  31.950   2.184
74651W        W33912  32.454  21.164  14.464
74652W        W33913   4.720   4.759  14.334
74653W        W33914  21.550  21.097  12.462
74654W        W33915   1.302   9.652  14.309
74655W        W33916  29.649  44.933   1.708
74656W        W33917  37.002  30.520  12.079
74657W        W33918   8.663  35.028   1.347
74658W        W33919  35.867  17.641  10.897
74659W        W33920  37.035  34.993   9.508
74660W        W33921  27.194   9.178  13.320
74661W        W33922   3.403   3.439  12.565
74662W        W33923  22.691  17.625  13.886
74663W        W33924  38.930  17.120   3.202
74664W        W33925  28.126  39.441  13.850
74665W        W33926  10.240  25.112  11.058
74666W        W33927  30.151  12.158  11.549
74667W        W33928  35.976  44.892  12.562
74668W        W33929  33.052  17.105  14.404
74669W        W33930  39.515  32.968   0.420
74670W        W33931  27.955  22.174   9.964
74671W        W33932  14.207  42.446  13.839
74672W        W33933  13.175  44.931   2.859
74673W        W33934  23.505  22.164  10.981
74674W        W33935  15.613  41.836  10.599
74675W        W33936  24.557  34.601  11.502
74676W        W33937  26.582  24.552   2.854
74677W        W33938  40.357  19.621   0.467
74678W        W33939   7.386  24.608  14.408
74679W        W33940  43.364  35.499  11.460
74680W        W33941   2.339  43.290   2.231
74681W        W33942  12.212  19.586  10.512
74682W        W33943  26.602  18.687  11.411
74683W        W33944   3.253  40.879   2.830
74684W        W33945  20.697   7.774  12.088
74685W        W33946  17.209  37.523   3.277
74686W        W33947  41.012  16.246  11.521
74687W        W33948  31.147   4.893  13.010
74688W        W33949  11.661  43.413  11.926
74689W        W33950  10.757   9.831  13.416
74690W        W33951  22.206   9.374  13.383
74691W        W33952  30.569  20.183   5.097
74692W        W33953  21.071   6.797  12.482
74693W        W33954   3.880  16.247   2.790
74694W        W33955  12.694  41.995   4.176
74695W        W33956  27.059  44.921  14.294
74696W        W33957   6.220  18.648  13.801
74697W        W33958  18.739  10.175  12.972
74698W        W33959  39.401  42.448  11.914
74699W        W33960  17.163  24.992   1.898
74700W        W33961   6.417   4.339   2.733
74701W        W33962  43.984  18.772   4.152
74702W        W33963  29.987  40.497   2.802
74703W        W33964  33.033  26.134  13.810
74704W        W33965   9.198   9.333  10.939
74705W        W33966   2.833  22.120  11.108
74706W        W33967  33.534  37.548  11.560
74707W        W33968   6.188  44.919  12.571
74708W        W33969  41.406  23.729   2.216
74709W        W33970   9.289  18.782   1.887
74710W        W33971  29.169  43.310  12.823
74711W        W33972  21.536  12.705  14.871
74712W        W33973  31.103  19.718  10.640
74713W        W33974  13.723  13.149   3.642
74714W        W33975   9.207  11.370  14.875
74715W        W33976  16.730  26.525   3.371
74716W        W33977  11.203  37.918  12.508
74717W        W33978   9.875  27.187  12.480
74718W        W33979  18.203  25.538  11.956
74719W        W33980  33.876  13.767   1.256
74720W        W33981  12.699  35.439   2.280
74721W        W33982   8.207  39.513   2.763
74722W        W33983  31.519  23.199  13.311
74723W        W33984  32.637  18.596   0.855
74724W        W33985  41.300  20.614   0.755
74725W        W33986  18.191  23.110   4.252
74726W        W33987  32.467   3.387   1.265
74727W        W33988   9.368  15.689  13.806
74728W        W33989  11.340   2.784   0.459
74729W        W33990  41.021  44.493  13.518
74730W        W33991  39.404  23.606  10.913
74731W        W33992  12.165  39.904  13.545
74732W        W33993  13.641  39.011   0.779
74733W        W33994  23.494  29.096   2.251
74734W        W33995   3.954  24.699  11.925
74735W        W33996   9.755   3.454  14.009
74736W        W33997   6.852  11.754   5.320
74737W        W33998  16.228  14.182   4.179
74738W        W33999  21.578  39.415   2.359
74739W        W34000   8.826  20.710   3.318
74740W        W34001  41.434  39.895   0.316
74741W        W34002  36.440  13.228   0.800
74742W        W34003  17.600  25.978   3.341
74743W        W34004  36.570  39.817   3.766
74744W        W34005  21.654  24.686   0.383
74745W        W34006  12.317  44.851   0.793
74746W        W34007  24.065  14.207  10.643
74747W        W34008  25.970  24.512   5.592
74748W        W34009   9.656  38.839   0.871
74749W        W34010   5.775  23.984  11.917
74750W        W34011  24.040  29.926  10.601
74751W        W34012  15.296  41.868   0.243
74752W        W34013  44.310  33.056  10.983
74753W        W34014  14.673   8.764  13.384
74754W        W34015  42.851  44.458  13.422
74755W        W34016  36.864  35.411  13.979
74756W        W34017  10.311  11.817   3.769
74757W        W34018   4.319  31.051  13.866
74758W        W34019  43.910  35.053   4.139
74759W        W34020  22.244  23.026  12.959
74760W        W34021  29.515  29.616  10.417
74761W        W34022  10.793  25.974   4.319
74762W        W34023  25.714  25.141  11.611
74763W        W34024  21.648  28.966  13.311
74764W        W34025  44.459  20.077  12.428
74765W        W34026  36.559  22.639  12.516
74766W        W34027  14.200  27.107   2.708
74767W        W34028  39.343  26.168  10.587
74768W        W34029  26.121  12.706  11.868
74769W        W34030  44.455  25.063   0.906
74770W        W34031  14.610   3.926   2.795
74771W        W34032  23.732  34.427  12.572
74772W        W34033  42.443  41.963   0.947
74773W        W34034  18.656  10.848  13.970
74774W        W34035   9.208  43.809  14.328
74775W        W34036  44.960   4.872  10.035
74776W        W34037  31.077   2.272  13.448
74777W        W34038  27.168  15.782   2.337
74778W        W34039   7.175  25.630  14.007
74779W        W34040  18.273  22.516  14.914
74780W        W34041  26.028  41.430  12.036
74781W        W34042  12.350  29.993   0.953
74782W        W34043  33.982  43.481  10.581
74783W        W34044   2.311  30.514  14.936
74784W        W34045  25.550  31.612  11.856
74785W        W34046  14.813  16.723   4.779
74786W        W34047  26.604   2.230  12.479
74787W        W34048  29.434   1.935  13.876
74788W        W34049   5.244  18.098  12.850
74789W        W34050  30.015   9.719   2.796
74790W        W34051  20.656   2.302   4.230
74791W        W34052  10.309  17.751  12.935
74792W        W34053  11.856  12.350  13.504
74793W        W34054  17.269  31.543   0.477
74794W        W34055   8.796  26.606   5.127
74795W        W34056  14.749  18.168   3.811
74796W        W34057  21.546  35.103   3.254
74797W        W34058   8.791  15.589   4.732
74798W        W34059   2.828  14.329   4.817
74799W        W34060   8.362  18.130   3.245
74800W        W34061  13.109   5.195   1.216
74801W        W34062  39.372  22.587  12.445
74802W        W34063  19.092   9.211   1.846
74803W        W34064  17.666  22.200  13.817
74804W        W34065  24.204  27.548   9.980
74805W        W34066  38.333  37.501  14.410
74806W        W34067  19.779  33.017   0.405
74807W        W34068  14.827   0.378   4.305
74808W        W34069  28.481  18.207  13.835
74809W        W34070  16.117  25.177  14.361
74810W        W34071  35.967  38.886   3.723
74811W        W34072  30.527  24.068  12.086
74812W        W34073  33.952  43.486  12.560
74813W        W34074  32.439  16.237  13.470
74814W        W34075  37.903  33.430   2.702
74815W        W34076  36.910  35.911  10.513
74816W        W34077   5.891  34.390  14.780
74817W        W34078  40.355  13.692  14.922
74818W        W34079  14.098  11.190  12.525
74819W        W34080  20.694  23.692   3.216
74820W        W34081  25.468  13.729  13.061
74821W        W34082  33.402  37.569  12.528
74822W        W34083  34.065  31.006   2.197
74823W        W34084   2.956  11.791  10.912
74824W        W34085  10.827   9.767  14.964
74825W        W34086  41.851   6.790  11.403
74826W        W34087   6.746  18.567  14.941
74827W        W34088  15.759  25.595  13.943
74828W        W34089   1.462  21.057  12.877
74829W        W34090  35.489  30.450   0.422
74830W        W34091  41.992  43.975  13.890
74831W        W34092  38.878  13.105   1.431
74832W        W34093  42.966   7.707   2.748
74833W        W34094  22.582   0.447   2.787
74834W        W34095   1.435  24.577   4.668
74835W        W34096  12.245  28.620  12.376
74836W        W34097  32.606  31.922   4.813
74837W        W34098   9.172   9.648   2.852
74838W        W34099   5.914   2.300  10.413
74839W        W34100  10.317  40.312  11.017
74840W        W34101  43.369  12.355  10.453
74841W        W34102  38.393  37.981   2.413
74842W        W34103  42.798  20.163  13.986
74843W        W34104   8.282   3.371   1.352
74844W        W34105  43.793  12.199   2.704
74845W        W34106  17.646  34.374  11.927
74846W        W34107  17.163  21.593  11.006
74847W        W34108  35.945  13.162   1.249
74848W        W34109  11.852  41.016  11.446
74849W        W34110   9.187  29.119   2.721
74850W        W34111  30.598  17.157  14.886
74851W        W34112  11.727  25.004  13.511
74852W        W34113  44.990   7.185   2.804
74853W        W34114  37.077  15.655   0.471
74854W        W34115  41.886  16.109   0.452
74855W        W34116  36.561   1.959  13.539
74856W        W34117  28.663   7.904  14.329
74857W        W34118   3.279  33.063  14.469
74858W        W34119  10.835   5.928   4.344
74859W        W34120  39.472   9.690   2.258
74860W        W34121  38.073   5.415  14.412
74861W        W34122  28.625  24.547  14.286
74862W        W34123  27.451  40.807   2.237
74863W        W34124  42.875  40.473  12.439
74864W        W34125  32.948   5.735  14.822
74865W        W34126   3.797  38.018   3.182
74866W        W34127   7.844  38.419  12.899
74867W        W34128   5.239  32.035  14.880
74868W        W34129  40.917  21.234   0.847
74869W        W34130   5.829   2.261   1.350
74870W        W34131  24.990   9.879   0.305
74871W        W34132  29.468   4.795   9.994
74872W        W34133   8.201  12.646   4.665
74873W        W34134  23.019  15.226  14.385
74874W        W34135  26.485  26.068  11.887
74875W        W34136  10.671  16.573   2.348
74876W        W34137   8.717  11.315  13.428
74877W        W34138  19.219  21.593   5.614
74878W        W34139  37.942   9.797  14.977
74879W        W34140   8.371  25.710   0.864
74880W        W34141  15.611  26.559   5.200
74881W        W34142  16.273  23.687  11.904
74882W        W34143   6.421  37.468  13.379
74883W        W34144  37.385  37.414  13.818
74884W        W34145  30.147  32.413  12.463
74885W        W34146  19.275  24.622  12.394
74886W        W34147  27.622  14.260  10.627
74887W        W34148   8.696  30.426   2.817
74888W        W34149  40.866  10.277  14.889
74889W        W34150   4.423  41.803  11.536
74890W        W34151   7.904  16.722  10.512
74891W        W34152  29.636   5.343   3.234
74892W        W34153  14.249  34.940  14.455
74893W        W34154  42.378  40.979  11.979
74894W        W34155  21.089  18.642   2.802
74895W        W34156  31.146  23.170  14.313
74896W        W34157  35.496  44.770   0.390
74897W        W34158  32.568  34.410   3.318
74898W        W34159   5.896  39.434   2.858
74899W        W34160  22.135  27.547  14.426
74900W        W34161  32.082  40.415   2.257
74901W        W34162  27.975   6.208  13.340
74902W        W34163  41.821  14.255   3.827
74903W        W34164  42.988  13.600  12.546
74904W        W34165   5.230  41.361  10.955
74905W        W34166  23.194  38.479  14.325
74906W        W34167  41.848  11.268   2.317
74907W        W34168  15.144  17.801  10.945
74908W        W34169   3.314  22.520  12.386
74909W        W34170  43.377   8.834  13.409
74910W        W34171  16.737   5.781  12.897
74911W        W34172  18.670   8.234   1.776
74912W        W34173  10.176  19.187  12.051
74913W        W34174  30.106   7.276  14.866
74914W        W34175   8.336  35.933  13.910
74915W        W34176  16.805  30.957   4.116
74916W        W34177  27.943  33.488   0.759
74917W        W34178  28.157  31.621  12.371
74918W        W34179  37.518  42.475  13.340
74919W        W34180  38.513   8.297  12.955
74920W        W34181   1.274  23.629   0.874
74921W        W34182   4.844  28.613  12.962
74922W        W34183  17.159  38.361  12.950
74923W        W34184  39.526  15.730   2.214
74924W        W34185  39.496  17.207  14.948
74925W        W34186  32.001   8.206   1.328
74926W        W34187  38.396  29.023  12.089
74927W        W34188  40.531  26.641  11.550
74928W        W34189   8.390  43.365   0.957
74929W        W34190  44.882   1.849  13.989
74930W        W34191  37.887  11.157  11.546
74931W        W34192  32.033  16.076   4.166
74932W        W34193   7.742  26.112  12.979
74933W        W34194   1.362   7.176   3.734
74934W        W34195  14.828  17.795  11.099
74935W        W34196   2.380  15.610  11.951
74936W        W34197  44.764  37.487   3.198
74937W        W34198   5.855  20.107  12.884
74938W        W34199  41.516  39.809  13.432
74939W        W34200  36.438  10.876  11.442
74940W        W34201  14.121  17.193  14.496
74941W        W34202  29.079  18.574  13.346
74942W        W34203  36.843   8.690   0.454
74943W        W34204  21.736  15.326   4.668
74944W        W34205  35.863  26.058   1.824
74945W        W34206  33.619  33.038  14.983
74946W        W34207  19.549  42.992   0.323
74947W        W34208  40.348   4.300   0.289
74948W        W34209  15.721  10.374   3.693
74949W        W34210  18.260   8.163   0.396
74950W        W34211   6.373  35.030  13.037
74951W        W34212  12.332  39.513  13.432
74952W        W34213  37.440  32.488  10.463
74953W        W34214  17.090  30.143  14.021
74954W        W34215  36.020  42.885   4.701
74955W        W34216  36.592  20.205   3.267
74956W        W34217  35.054  10.347   3.379
74957W        W34218  39.881  16.693  13.825
74958W        W34219  10.203  17.577   2.790
74959W        W34220  43.496   0.299   0.801
74960W        W34221   1.906  12.756   4.138
74961W        W34222  18.124  31.980   1.798
74962W        W34223  18.696  23.665   1.426
74963W        W34224   0.879   8.768   0.878
74964W        W34225  30.478   1.936   1.875
74965W        W34226  36.503  32.566   2.677
74966W        W34227  42.895  24.724  14.797
74967W        W34228  37.036   9.191   3.204
74968W        W34229  12.655  18.746   3.781
74969W        W34230  20.226   9.809  12.862
74970W        W34231  40.808  39.853   1.915
74971W        W34232  36.093  16.665   2.285
74972W        W34233  44.446  30.524   2.682
74973W        W34234  31.418  31.988   1.266
74974W        W34235   8.680   3.952  11.018
74975W        W34236  37.355  42.469   0.797
74976W        W34237   2.257  31.943  10.454
74977W        W34238   7.882  37.509  13.319
74978W        W34239  15.646   2.352  11.457
74979W        W34240  41.504  15.111  12.474
74980W        W34241  35.457  21.110   1.778
74981W        W34242  37.975  25.075   3.759
74982W        W34243  36.967  44.929  14.021
74983W        W34244  37.504  15.801  14.968
74984W        W34245  28.075  37.337   3.822
74985W        W34246   7.277  31.010  10.512
74986W        W34247  15.324  26.700  12.041
74987W        W34248  28.574   8.828  11.937
74988W        W34249   2.349  17.065   0.379
74989W        W34250   5.403   7.173  10.927
74990W        W34251  23.036  18.053   4.729
74991W        W34252  27.077  24.990   5.291
74992W        W34253  31.950   1.891   2.717
74993W        W34254  12.777  26.613   2.327
74994W        W34255  19.197  17.713  13.981
74995W        W34256  43.500   8.286  14.817
74996W        W34257  17.279  19.196  10.533
74997W        W34258  42.336  38.957   2.222
74998W        W34259  32.972   9.838   0.483
74999W        W34260  19.171  33.013   3.672
75000W        W34261  25.174   7.843   4.152
75001W        W34262  42.325  24.650   1.353
75002W        W34263  23.072  26.544  14.889
75003W        W34264   9.268  33.096  14.981
75004W        W34265   9.703  11.671  12.485
75005W        W34266  34.000  39.808   3.175
75006W        W34267  38.328   8.190   2.252
75007W        W34268  35.595  41.882  13.316
75008W        W34269  34.071   6.921  11.397
75009W        W34270  23.131  28.610   0.834
75010W        W34271  36.017   9.285  13.375
75011W        W34272  21.548   8.286  11.890
75012W        W34273  21.655   7.696   0.856
75013W        W34274  16.774  33.061   2.706
75014W        W34275  30.638  15.672   3.346
75015W        W34276   4.359  30.641  11.055
75016W        W34277  24.133  26.025  10.144
75017W        W34278   1.450  14.126   3.150
75018W        W34279   1.394  35.978  12.428
75019W        W34280  24.129  21.657  11.896
75020W        W34281   0.432  15.213  13.864
75021W        W34282  33.915  43.783   2.225
75022W        W34283  29.083  28.588  12.930
75023W        W34284   1.953   5.896   3.206
75024W        W34285  43.302  41.312   3.237
75025W        W34286  30.504  33.553  12.493
75026W        W34287  43.472  13.257  11.499
75027W        W34288  43.332   1.851   2.254
75028W        W34289  44.338   1.443  14.762
75029W        W34290  14.326  17.710   0.963
75030W        W34291   8.366  23.002   4.815
75031W        W34292  27.453  27.654  12.826
75032W        W34293  26.977  32.984   4.800
75033W        W34294  17.076  42.359   3.346
75034W        W34295  34.443  12.169  13.939
75035W        W34296  32.440  29.994   0.379
75036W        W34297  24.181  42.947  11.869
75037W        W34298  27.188  28.162  13.813
75038W        W34299  31.509  20.126   4.217
75039W        W34300  32.418  19.241  11.392
75040W        W34301  32.944  14.691  10.636
75041W        W34302  28.013   7.893  12.990
75042W        W34303  35.081  13.326  14.881
75043W        W34304  35.384  39.045   2.204
75044W        W34305  36.399  10.372   4.737
75045W        W34306  31.500   4.295  14.370
75046W        W34307   8.666  30.907   1.292
75047W        W34308  41.421  13.194  10.898
75048W        W34309   9.656  31.580   0.743
75049W        W34310  16.774   4.910   0.799
75050W        W34311   9.646  37.465  13.372
75051W        W34312  43.365   6.290  12.421
75052W        W34313  34.537  30.135   2.268
75053W        W34314  14.253  21.704  14.361
75054W        W34315  42.323  40.442   0.480
75055W        W34316  14.163  16.733  12.543
75056W        W34317  17.602  37.851   0.914
75057W        W34318   3.352  24.018  10.901
75058W        W34319  43.449  18.109   1.885
75059W        W34320  17.779  31.959   2.219
75060W        W34321  34.928  42.022   2.838
75061W        W34322   5.813  43.425   0.265
75062W        W34323  40.318  23.628   2.748
75063W        W34324  25.043  35.522   0.441
75064W        W34325  11.235  24.121   4.284
75065W        W34326  13.796  37.934  12.368
75066W        W34327  37.486  15.180  14.403
75067W        W34328   8.700  43.813  14.323
75068W        W34329  17.619   3.865   2.345
75069W        W34330  43.014   6.757   0.409
75070W        W34331  42.470  17.121   0.782
75071W        W34332  36.026  33.120   0.942
75072W        W34333  10.376  33.122   2.735
75073W        W34334  37.393   2.334   2.716
75074W        W34335  31.944  27.685   0.862
75075W        W34336  37.339  12.118  14.322
75076W        W34337  27.629  13.814   4.770
75077W        W34338  26.580   3.948   4.115
75078W        W34339  39.444  14.130  11.445
75079W        W34340   2.839  44.999   4.654
75080W        W34341  42.515  30.967   1.389
75081W        W34342  18.647  11.174   2.211
75082W        W34343  20.138  10.140  13.490
75083W        W34344  37.519  28.663  12.378
75084W        W34345  39.547  29.505  13.460
75085W        W34346  14.218  33.538   2.666
75086W        W34347  26.106  32.557   0.429
75087W        W34348  37.475   7.240   0.751
75088W        W34349   1.471  37.950   4.145
75089W        W34350  16.695  42.971   2.265
75090W        W34351  40.046  17.704  13.415
75091W        W34352   6.428  37.981   1.434
75092W        W34353   8.382  39.332   1.734
75093W        W34354  16.202  13.696   1.328
75094W        W34355  40.448  28.495   0.315
75095W        W34356  40.945  29.560   4.790
75096W        W34357  37.510  31.896   1.347
75097W        W34358  27.941  44.768  13.824
75098W        W34359  18.608  33.470   4.156
75099W        W34360  15.199  25.972   2.743
75100W        W34361  24.508   1.824  13.861
75101W        W34362  14.788   0.361   2.194
75102W        W34363  42.455  24.568   2.795
75103W        W34364   2.391  13.266  10.890
75104W        W34365  20.625  21.068   9.975
75105W        W34366  32.470  17.204  12.007
75106W        W34367   9.809  17.728   2.331
75107W        W34368  18.095  30.989  12.383
75108W        W34369  28.092  30.963  14.855
75109W        W34370  44.493  25.989   4.735
75110W        W34371  13.685  29.605   0.308
75111W        W34372  32.990  42.822  13.374
75112W        W34373  16.251  17.260   4.834
75113W        W34374  34.544  35.540   2.695
75114W        W34375  12.272  27.130  12.061
75115W        W34376  20.232  23.615   1.722
75116W        W34377  28.067   1.842  14.971
75117W        W34378  34.934   5.378   3.729
75118W        W34379  44.342   9.663   1.846
75119W        W34380   7.839  12.240  11.895
75120W        W34381  35.427   4.283  11.498
75121W        W34382  32.889  34.368  12.867
75122W        W34383  42.885  27.672   3.803
75123W        W34384  16.093  33.470   9.946
75124W        W34385  13.626   4.773   2.843
75125W        W34386  21.516   6.804  13.902
75126W        W34387  23.107  17.100   4.672
75127W        W34388  35.947  11.269   0.794
75128W        W34389   2.319   5.310   3.643
75129W        W34390  32.419   0.270  13.983
75130W        W34391  16.778  18.621  11.089
75131W        W34392  31.585  11.741   2.701
75132W        W34393  23.711  27.980   4.766
75133W        W34394   8.288  29.664   4.327
75134W        W34395  34.923  38.978   4.321
75135W        W34396  29.491  19.669   0.422
75136W        W34397  21.186  10.372   4.836
75137W        W34398  19.194   3.385   4.631
75138W        W34399  25.568  25.018  14.997
75139W        W34400  22.225  36.451   3.241
75140W        W34401  19.696  32.415   4.724
75141W        W34402  32.039  22.027   2.195
75142W        W34403  41.840  42.023  14.779
75143W        W34404   0.885  10.792  11.856
75144W        W34405  44.940   8.883  14.463
75145W        W34406  13.659  29.056  10.404
75146W        W34407  14.101   0.831  14.512
75147W        W34408  40.839  16.810   3.357
75148W        W34409   2.464   4.788  12.450
75149W        W34410  16.103  27.013   5.646
75150W        W34411  21.534  17.142  14.777
75151W        W34412  20.070  23.986   3.799
75152W        W34413  27.151  26.052   3.157
75153W        W34414  39.409  19.233   4.784
75154W        W34415  43.368  43.918  10.967
75155W        W34416   2.746  14.266   3.260
75156W        W34417  17.586  26.138   0.901
75157W        W34418  23.556  21.113  12.870
75158W        W34419   0.251  38.953  12.929
75159W        W34420  30.944   3.341   0.736
75160W        W34421   5.283   3.892  14.311
75161W        W34422   4.272  26.168   2.796
75162W        W34423  34.457   0.810   0.325
75163W        W34424  23.544  15.319   3.837
75164W        W34425  38.473  40.485  14.381
75165W        W34426  16.147   9.781   4.684
75166W        W34427  29.115  22.640  11.985
75167W        W34428   2.464  10.171   3.663
75168W        W34429  43.773   5.231   1.843
75169W        W34430  17.556  15.249   2.837
75170W        W34431  30.586  24.143   0.274
75171W        W34432   4.732  44.796  14.337
75172W        W34433  31.548  12.856  13.950
75173W        W34434  27.455  36.394   5.159
75174W        W34435  32.425   9.715   1.262
75175W        W34436  18.125  39.520   0.356
75176W        W34437   0.274  28.612  14.284
75177W        W34438  43.406  30.032  10.512
75178W        W34439   6.755  33.923  13.356
75179W        W34440  33.960   9.702   0.833
75180W        W34441   2.823  31.897   3.277
75181W        W34442  28.520  17.797  14.848
75182W        W34443   7.745  17.633   2.336
75183W        W34444  44.969  21.712   2.737
75184W        W34445  38.503   3.926   1.914
75185W        W34446  31.574   4.248  11.939
75186W        W34447   6.331  41.803   0.831
75187W        W34448  36.565  23.590  10.567
75188W        W34449  36.394  31.002  14.863
75189W        W34450  35.531   0.927  13.848
75190W        W34451   3.879   7.394  13.510
75191W        W34452  39.974  32.597  11.579
75192W        W34453   1.867   4.794   3.722
75193W        W34454  32.510  17.079   4.813
75194W        W34455  27.112  30.140   1.753
75195W        W34456  18.671  22.573   5.092
75196W        W34457  43.456   0.751  10.515
75197W        W34458  30.964  18.237   3.385
75198W        W34459   1.819  36.941  12.889
75199W        W34460   1.742  32.133   2.739
75200W        W34461  14.827  41.412   5.310
75201W        W34462  39.952  24.994  10.922
75202W        W34463  35.430   0.881  13.498
75203W        W34464   3.794  26.470  14.362
75204W        W34465   4.708   6.361   9.666
75205W        W34466  43.984  28.584  11.127
75206W        W34467  36.564  33.438  14.299
75207W        W34468   4.264  36.385  14.909
75208W        W34469  37.984  34.951  12.034
75209W        W34470  34.610  44.985  14.496
75210W        W34471  19.267  15.203  10.590
75211W        W34472  19.056  28.057   5.258
75212W        W34473  22.668   6.850  13.350
75213W        W34474   2.956  36.903  13.465
75214W        W34475  15.288   7.211   3.266
75215W        W34476   2.396  35.598  10.499
75216W        W34477  25.205  12.141  12.059
75217W        W34478  43.478  34.874  13.329
75218W        W34479  44.876  37.994   4.743
75219W        W34480  14.211   2.382  10.518
75220W        W34481   6.777  28.176   1.758
75221W        W34482  20.120  23.998   5.316
75222W        W34483  19.057   6.861  14.900
75223W        W34484   4.391  18.601   4.240
75224W        W34485  32.928  26.108   1.698
75225W        W34486  44.428   3.946  12.355
75226W        W34487   0.369  24.029  11.950
75227W        W34488  25.073  24.660  12.502
75228W        W34489  21.549  40.797  11.856
75229W        W34490  35.411  18.570   4.756
75230W        W34491  31.573  15.231  14.511
75231W        W34492   3.716  26.486  12.858
75232W        W34493  43.480   9.648  14.983
75233W        W34494  22.024  32.945  10.896
75234W        W34495  14.114  21.666   0.734
75235W        W34496  11.312  28.041  10.924
75236W        W34497  26.160  17.304   3.711
75237W        W34498  13.286  13.124   0.964
75238W        W34499   1.350  38.556  13.900
75239W        W34500  25.577  38.348   0.740
75240W        W34501  18.057  24.696   1.759
75241W        W34502  25.580  26.051   0.860
75242W        W34503  24.512  10.328   3.373
75243W        W34504  29.998  13.733   3.630
75244W        W34505  33.451  28.124   3.644
75245W        W34506  10.213  32.626   0.433
75246W        W34507   9.807  24.217   1.301
75247W        W34508  42.348   6.272   4.630
75248W        W34509  37.903  29.459  14.004
75249W        W34510  25.591  34.110   0.952
75250W        W34511  17.198  18.732  14.022
75251W        W34512  36.897   7.669   2.401
75252W        W34513   2.824  33.124   4.824
75253W        W34514  24.018  13.138  11.098
75254W        W34515  36.890  29.073   4.253
75255W        W34516  43.413  18.765  12.484
75256W        W34517  39.362  44.804   1.367
75257W        W34518  20.616  28.611  11.921
75258W        W34519  14.097  23.544   3.742
75259W        W34520   4.775   8.236  12.357
75260W        W34521  38.405  18.181  10.454
75261W        W34522  43.339  28.000  13.446
75262W        W34523  15.784  38.835   4.314
75263W        W34524  25.208   0.843   0.410
75264W        W34525  28.654   4.702   0.283
75265W        W34526  18.728  12.208   0.264
75266W        W34527  21.020  30.456   4.259
75267W        W34528  33.450   8.173   3.650
75268W        W34529  11.813   6.299   3.665
75269W        W34530   8.669  41.419   1.310
75270W        W34531  28.464  24.226  11.509
75271W        W34532  18.630  34.001   2.239
75272W        W34533   8.271   6.736  14.904
75273W        W34534  15.816   3.400   0.876
75274W        W34535  33.423  17.765  12.871
75275W        W34536  24.520   9.315  12.848
75276W        W34537  40.049  14.283   0.783
75277W        W34538  32.512   9.719  13.029
75278W        W34539   6.359  37.398   1.265
75279W        W34540  35.883  16.622  14.793
75280W        W34541  44.978   3.230   2.355
75281W        W34542   0.377  10.775   3.247
75282W        W34543  17.728  20.157   1.440
75283W        W34544  15.091  36.914   3.843
75284W        W34545  19.642   0.964   2.732
75285W        W34546  36.933   7.893  13.544
75286W        W34547  42.404   3.861  13.061
75287W        W34548  15.701  24.015  13.994
75288W        W34549   3.862  43.968   1.397
75289W        W34550  26.128  37.042  10.631
75290W        W34551  34.469  37.428   1.313
75291W        W34552  35.529  28.442   4.732
75292W        W34553   7.832  37.537   3.188
75293W        W34554  22.506  31.913  11.535
75294W        W34555   8.708  25.038   4.255
75295W        W34556  29.531   0.397   3.642
75296W        W34557  16.270  20.089  10.628
75297W        W34558   6.297  34.930  10.036
75298W        W34559  33.125   9.381   1.914
75299W        W34560  15.137  38.390  12.950
75300W        W34561  39.413  11.203   2.411
75301W        W34562  11.201   5.869   4.125
75302W        W34563  25.491  19.770   2.323
75303W        W34564   5.784  30.454  11.102
75304W        W34565   8.357  10.747   2.195
75305W        W34566  29.062  37.070  11.098
75306W        W34567  21.696  21.664   2.695
75307W        W34568   0.794  19.729   0.876
75308W        W34569  34.494   7.252  12.533
75309W        W34570  25.968  25.071   3.840
75310W        W34571  40.919  24.494   1.884
75311W        W34572  39.020  33.111  10.455
75312W        W34573  10.874  26.701   5.229
75313W        W34574  20.728  13.799  10.407
75314W        W34575   2.928   5.861   4.805
75315W        W34576  39.832  27.043  14.907
75316W        W34577   9.193  17.126  11.937
75317W        W34578  18.054  26.516  12.829
75318W        W34579  17.643  17.106   9.518
75319W        W34580  39.450  23.084   4.198
75320W        W34581  38.032  36.560  12.486
75321W        W34582  22.133  35.085  10.639
75322W        W34583  26.205   2.721  11.934
75323W        W34584   5.294  27.190   0.259
75324W        W34585  13.256  27.482  12.057
75325W        W34586   9.294  17.118   4.183
75326W        W34587  10.756  25.572   4.295
75327W        W34588  20.060   5.236   4.725
75328W        W34589   6.823  19.606   1.268
75329W        W34590  17.597  38.489   1.215
75330W        W34591   5.326  31.614   1.421
75331W        W34592  15.135  10.648  12.391
75332W        W34593   1.812  19.272  14.862
75333W        W34594  36.565  30.465  13.499
75334W        W34595  10.640   4.794   0.826
75335W        W34596   5.358  34.472   0.449
75336W        W34597  31.967   3.810   3.210
75337W        W34598  28.571  44.494  14.284
75338W        W34599  23.061  28.026   1.211
75339W        W34600   1.474  11.177   4.197
75340W        W34601  43.901  28.159   0.444
75341W        W34602  38.516   0.915  13.887
75342W        W34603   0.983  44.287  10.470
75343W        W34604  20.157  32.418  11.945
75344W        W34605  24.698   1.309   2.868
75345W        W34606   2.729  13.211  13.446
75346W        W34607   5.238  21.561  13.996
75347W        W34608  43.920   0.946  14.986
75348W        W34609  22.660  29.491  13.887
75349W        W34610  44.975  35.920  14.392
75350W        W34611  38.505  39.917   1.713
75351W        W34612  22.700  23.003  12.555
75352W        W34613  37.001  19.155   1.319
75353W        W34614  36.573  44.368  11.599
75354W        W34615  41.424  11.254   0.939
75355W        W34616  27.663   9.675   2.825
75356W        W34617   4.441  11.266  12.864
75357W        W34618  35.535  16.681   4.830
75358W        W34619   3.384   3.274  14.906
75359W        W34620  17.184  44.931   2.319
75360W        W34621  30.966  21.690   4.830
75361W        W34622  42.032  13.629   2.312
75362W        W34623  25.134   3.394  13.444
75363W        W34624  35.079  11.762   9.622
75364W        W34625  24.979  29.998   1.727
75365W        W34626  17.203  17.621  12.870
75366W        W34627   8.868  37.931  12.356
75367W        W34628  15.123  39.403   0.925
75368W        W34629  17.784  40.309  10.531
75369W        W34630  44.843  24.015   4.798
75370W        W34631  30.945  32.025  10.413
75371W        W34632  28.623  32.120   1.223
75372W        W34633  32.118  17.697  13.969
75373W        W34634   8.297  23.004   1.910
75374W        W34635  37.074  23.616  11.465
75375W        W34636   9.392  31.108  11.870
75376W        W34637   2.901  30.514   4.235
75377W        W34638  28.462  41.017  10.490
75378W        W34639  19.549  32.920   4.121
75379W        W34640   3.873  41.312   1.338
75380W        W34641  13.652  17.571  11.018
75381W        W34642   7.371  37.500  13.504
75382W        W34643  25.556  38.931   3.692
75383W        W34644   1.793  10.803   0.312
75384W        W34645  20.077  21.533  12.364
75385W        W34646  10.159  43.787   4.775
75386W        W34647  44.432  36.045   2.799
75387W        W34648   8.350   8.307   1.427
75388W        W34649   7.846  32.903  14.284
75389W        W34650  23.136   6.852  11.401
75390W        W34651  40.055  21.694   2.733
75391W        W34652  19.539  37.342  14.006
75392W        W34653  37.993  38.838   1.760
75393W        W34654   6.846  15.212   3.774
75394W        W34655  27.536  22.018  13.833
75395W        W34656  32.602  15.698  11.472
75396W        W34657  11.236  38.048   2.205
75397W        W34658  22.631  18.268  11.567
75398W        W34659   4.782  18.546  11.999
75399W        W34660  19.142  17.198  13.454
75400W        W34661  29.145   3.742  13.503
75401W        W34662   9.272  10.216   1.786
75402W        W34663  21.098  19.624  14.446
75403W        W34664  15.793  43.315   4.608
75404W        W34665   8.292  11.724  10.160
75405W        W34666   3.904   7.770   0.459
75406W        W34667  14.745  38.032  14.395
75407W        W34668  28.661   4.396   0.343
75408W        W34669   6.353  25.079  14.359
75409W        W34670  34.446  32.021  13.042
75410W        W34671  24.541  42.523   3.777
75411W        W34672  42.441  24.045  14.973
75412W        W34673  41.867  30.954  10.472
75413W        W34674  18.115  22.512  12.845
75414W        W34675  31.901   7.739  14.856
75415W        W34676  26.472  13.300  14.411
75416W        W34677  44.925  36.482  12.921
75417W        W34678   0.905  31.075   2.859
75418W        W34679  37.381  32.083  13.421
75419W        W34680  22.633   0.388   4.821
75420W        W34681   6.748  24.626  11.024
75421W        W34682   1.972  17.558   3.197
75422W        W34683   9.673  22.726   2.789
75423W        W34684  24.228  41.877  13.386
75424W        W34685  44.469  40.343   3.268
75425W        W34686  28.020  41.940  10.517
75426W        W34687  30.528   9.225  11.611
75427W        W34688  35.999  26.662  13.544
75428W        W34689  23.668   1.425  11.909
75429W        W34690  19.622  22.054  13.477
75430W        W34691  20.253  28.559  13.513
75431W        W34692  21.252  22.576   0.758
75432W        W34693  42.986  29.040   0.310
75433W        W34694  31.632  15.686  11.417
75434W        W34695  38.007   5.924   0.789
75435W        W34696   7.818  17.593   1.220
75436W        W34697  36.446  29.499  10.131
75437W        W34698  39.356   1.824   1.821
75438W        W34699  16.108   1.303   2.280
75439W        W34700  19.194   0.971   0.446
75440W        W34701   7.735   4.860  14.997
75441W        W34702  26.584  19.158  13.324
75442W        W34703  33.541  38.871   4.735
75443W        W34704  13.659   7.323   0.837
75444W        W34705  12.326   7.739   3.336
75445W        W34706   3.304  22.207   2.859
75446W        W34707   9.377   9.284   3.687
75447W        W34708  38.024  27.492   1.744
75448W        W34709  30.585  37.537   3.812
75449W        W34710  42.875  33.918  10.581
75450W        W34711  44.457  30.491  11.519
75451W        W34712  10.789   1.938  13.545
75452W        W34713  10.358  37.363  14.470
75453W        W34714  24.573  24.502   2.234
75454W        W34715  38.963  31.414   0.959
75455W        W34716  20.532  38.347  14.027
75456W        W34717  34.420  22.105  13.903
75457W        W34718  41.530  35.551   3.820
75458W        W34719  11.849  37.930   0.397
75459W        W34720  21.688  31.538   2.734
75460W        W34721   2.754   1.927   4.324
75461W        W34722  10.736  44.313  11.857
75462W        W34723  26.586   3.804   1.891
75463W        W34724  34.919  27.659   2.400
75464W        W34725  15.231  11.231   3.831
75465W        W34726   5.297  23.193   0.256
75466W        W34727   9.880  33.452  13.507
75467W        W34728  36.358  22.571   5.138
75468W        W34729  23.037  33.445   4.751
75469W        W34730  28.173   5.739  13.048
75470W        W34731  28.158  44.848   4.721
75471W        W34732   9.239  16.794  11.955
75472W        W34733  36.953  31.016   2.285
75473W        W34734  21.738  33.030   1.371
75474W        W34735  24.563   6.415   0.438
75475W        W34736  33.544   8.746   0.325
75476W        W34737   4.315  17.097  13.952
75477W        W34738  21.603   3.760   2.697
75478W        W34739  23.516  42.911   4.775
75479W        W34740  39.881  38.974   3.845
75480W        W34741  27.656  39.951   4.615
75481W        W34742  26.481  30.135  11.575
75482W        W34743   3.446  32.580  14.421
75483W        W34744  18.635  30.981   3.809
75484W        W34745  37.016  25.666  14.771
75485W        W34746   2.244  19.277  10.944
75486W        W34747  30.514  38.918   0.774
75487W        W34748  16.261  40.538  13.876
75488W        W34749  29.667   6.375   2.193
75489W        W34750  16.218  14.640  10.639
75490W        W34751  10.831  16.078   0.393
75491W        W34752  32.509  17.220  13.024
75492W        W34753  13.319  19.133  13.410
75493W        W34754  10.342   6.680   2.750
75494W        W34755  11.763  31.913  14.016
75495W        W34756  11.300   9.156  14.286
75496W        W34757  16.763   7.179   0.924
75497W        W34758  24.095  24.998   4.263
75498W        W34759  32.898   2.925   4.217
75499W        W34760  31.436  27.614  13.851
75500W        W34761  11.645  44.408  14.438
75501W        W34762  27.464  44.333  14.841
75502W        W34763  19.725  17.793  12.944
75503W        W34764   2.263  42.316  11.463
75504W        W34765  33.567  40.397   5.087
75505W        W34766   0.946  27.665  14.285
75506W        W34767  18.717  22.744   0.358
75507W        W34768  18.757  22.712   2.726
75508W        W34769   6.839  41.866   2.827
75509W        W34770   3.916  42.503  10.984
75510W        W34771  15.201  28.519   3.381
75511W        W34772   3.779  41.346   0.882
75512W        W34773  10.772   7.396   0.428
75513W        W34774  36.470  34.497  10.910
75514W        W34775   5.394  23.127  14.461
75515W        W34776  30.151  32.636  12.963
75516W        W34777  36.569  26.135  11.552
75517W        W34778   5.419   0.882   1.716
75518W        W34779   4.338  25.583   1.396
75519W        W34780  36.033  16.122  12.503
75520W        W34781   0.904   7.794   0.345
75521W        W34782   3.253  35.987   3.826
75522W        W34783  18.291   5.358  13.860
75523W        W34784  36.856   8.835   1.889
75524W        W34785  27.044  29.052  11.046
75525W        W34786   9.725  44.006   3.208
75526W        W34787  35.866  16.275   2.251
75527W        W34788  36.380  15.736  12.062
75528W        W34789  11.169  16.305  14.874
75529W        W34790  23.031  22.018  11.487
75530W        W34791  34.998  41.435   2.398
75531W        W34792  18.273   1.770   4.301
75532W        W34793  13.135  42.967   4.822
75533W        W34794   8.252  41.943   2.374
75534W        W34795  39.857  30.482  13.476
75535W        W34796  34.991  21.731  14.028
75536W        W34797   0.276   7.256   0.941
75537W        W34798   6.766  15.190  13.917
75538W        W34799   6.750  23.509  13.010
75539W        W34800  21.652  11.699  10.565
75540W        W34801  18.660  30.119   0.476
75541W        W34802  25.080  27.942  10.098
75542W        W34803  28.047   2.441   5.245
75543W        W34804  10.337  25.668   2.341
75544W        W34805  19.183  19.716   2.809
75545W        W34806  30.065   7.347  12.346
75546W        W34807  38.847  37.071   0.429
75547W        W34808  15.589  13.822  11.487
75548W        W34809  39.892  26.126  14.968
75549W        W34810  26.609  38.455  10.514
75550W        W34811  40.911  42.377  12.415
75551W        W34812  37.412  36.402  12.535
75552W        W34813  39.325  44.341   1.379
75553W        W34814  31.406  10.259   2.730
75554W        W34815  24.225  35.468   0.885
75555W        W34816  12.171  36.979   0.942
75556W        W34817   3.905   7.186  11.934
75557W        W34818  36.943  13.629  11.577
75558W        W34819  31.596   6.871   2.893
75559W        W34820  21.637  39.945  11.461
75560W        W34821   6.351  15.759  14.956
75561W        W34822  43.445  29.657  14.877
75562W        W34823  41.408  12.246  13.439
75563W        W34824  43.770  26.481   2.204
75564W        W34825   1.398   9.696   3.346
75565W        W34826  22.540  13.835   1.256
75566W        W34827  22.527   8.734   3.789
75567W        W34828  18.790  25.986   9.975
75568W        W34829  40.825  35.036   1.883
75569W        W34830   1.802   5.231  10.923
75570W        W34831  12.332  10.694   3.158
75571W        W34832  44.868  18.207  11.128
75572W        W34833   9.276  44.502  12.068
75573W        W34834   5.368  32.554   3.330
75574W        W34835  12.660  39.332  10.473
75575W        W34836  17.069   0.456   4.169
75576W        W34837  37.444   2.872   3.720
75577W        W34838  20.608  29.503  13.804
75578W        W34839  39.473  19.594   3.147
75579W        W34840   1.814  23.130  12.571
75580W        W34841   5.846  23.210   3.741
75581W        W34842  28.633  38.388   2.721
75582W        W34843  36.005  29.129   0.796
75583W        W34844  35.864   1.835  12.563
75584W        W34845  36.870  14.236   2.899
75585W        W34846  15.734  38.426   2.302
75586W        W34847  11.218   5.883  14.485
75587W        W34848  21.546   9.827  10.636
75588W        W34849  19.153  24.551   5.089
75589W        W34850  15.635  29.960   2.720
75590W        W34851  18.123  24.087  11.092
75591W        W34852  32.452  40.951   4.171
75592W        W34853   9.263  26.117  10.911
75593W        W34854  26.466  10.805  12.899
75594W        W34855  14.676  21.257   2.380
75595W        W34856  25.146   2.236  13.875
75596W        W34857  28.486  35.591   0.817
75597W        W34858  36.035  29.049  14.975
75598W        W34859  25.116  15.743   1.415
75599W        W34860  42.385  42.436  12.887
75600W        W34861  39.022  40.912  11.119
75601W        W34862   0.978  15.606  12.915
75602W        W34863  38.848  13.257  11.058
75603W        W34864   6.238  28.173  14.876
75604W        W34865  26.697  13.191   0.930
75605W        W34866   1.819  20.619   1.328
75606W        W34867  43.332  27.036   2.402
75607W        W34868  26.077   6.682  11.377
75608W        W34869  44.450   6.299  11.874
75609W        W34870  13.773  36.012   4.181
75610W        W34871  42.346  43.977   0.831
75611W        W34872  23.100  15.629  11.512
75612W        W34873  27.110  10.370   4.179
75613W        W34874  11.286  36.846  11.486
75614W        W34875   7.799  44.385   2.769
75615W        W34876  43.365  23.518  14.374
75616W        W34877  13.350  32.017   5.233
75617W        W34878  19.705  39.435  14.432
75618W        W34879  10.208  38.835   5.147
75619W        W34880  13.266  11.807  14.444
75620W        W34881  26.119  27.590   4.331
75621W        W34882  40.919  30.019   0.829
75622W        W34883   8.869   2.760  11.478
75623W        W34884  33.132  23.175   1.231
75624W        W34885  10.172  44.350  14.299
75625W        W34886  39.921  17.203  10.453
75626W        W34887   9.361  29.433   4.601
75627W        W34888  15.236  39.360  12.537
75628W        W34889   9.370  26.539   2.781
75629W        W34890  39.351  42.014   1.771
75630W        W34891  16.610  27.637   1.902
75631W        W34892  18.618  12.851  10.025
75632W        W34893  28.096   8.829  13.437
75633W        W34894  27.449  12.255  10.554
75634W        W34895  12.327   1.935  13.411
75635W        W34896  44.877  37.503   0.851
75636W        W34897   0.786   4.359  14.789
75637W        W34898   6.422  17.798   3.844
75638W        W34899  14.807  39.866   0.341
75639W        W34900   2.955   8.378   4.177
75640W        W34901  27.171  22.665   4.715
75641W        W34902  40.346  15.639   3.342
75642W        W34903   5.687  14.320   0.306
75643W        W34904  28.095  38.939  13.312
75644W        W34905  14.269  20.107   0.376
75645W        W34906   1.854  33.960  12.858
75646W        W34907   8.871  34.409   1.358
75647W        W34908  25.004  15.286   4.669
75648W        W34909  22.070   2.443   4.179
75649W        W34910   7.887  34.078   1.298
75650W        W34911  43.346  11.189   1.389
75651W        W34912  30.971  39.912   1.733
75652W        W34913  35.968   8.691   4.827
75653W        W34914  23.502  41.353  11.956
75654W        W34915  35.586   6.889  10.482
75655W        W34916  39.522  30.540  14.384
75656W        W34917  43.345  39.998  11.435
75657W        W34918   9.755   1.932   4.765
75658W        W34919  41.376  28.535   3.664
75659W        W34920  33.061  19.231   0.921
75660W        W34921  23.718   5.386   3.758
75661W        W34922   3.723   9.872   4.803
75662W        W34923  35.396   0.791  12.948
75663W        W34924  15.279  19.574   3.657
75664W        W34925  42.512  42.377  14.469
75665W        W34926  37.494  20.060  14.968
75666W        W34927  31.626  38.891   9.553
75667W        W34928  23.164  30.935   1.324
75668W        W34929  10.655  20.648  14.923
75669W        W34930  10.175  26.568   4.625
75670W        W34931  19.151  13.147   0.248
75671W        W34932  35.550  25.017   1.344
75672W        W34933  44.816  15.124   2.352
75673W        W34934  31.957  22.717  12.017
75674W        W34935  28.183   5.701   1.400
75675W        W34936  26.461  18.289  12.881
75676W        W34937  23.724  42.361  14.831
75677W        W34938   6.681  24.641  11.555
75678W        W34939   9.190  27.987   0.417
75679W        W34940  29.927  15.701   0.733
75680W        W34941  17.644   0.819  11.550
75681W        W34942   8.778  26.689   0.798
75682W        W34943  24.568  28.044  12.878
75683W        W34944  23.150  22.132  10.068
75684W        W34945  21.117   6.812   0.788
75685W        W34946  31.497   1.302  12.910
75686W        W34947  23.097  21.738   0.360
75687W        W34948  23.514  17.121  10.998
75688W        W34949  31.931  30.951  11.860
75689W        W34950  13.613  26.606  11.448
75690W        W34951  20.769  22.509   2.221
75691W        W34952  43.825   0.449  14.283
75692W        W34953  30.482  35.073   0.859
75693W        W34954  17.603  36.968  10.436
75694W        W34955  27.643  14.261   1.858
75695W        W34956  42.869  32.975   9.921
75696W        W34957  14.795   5.314  13.062
75697W        W34958  17.232   8.288   3.656
75698W        W34959  24.149   1.860   3.672
75699W        W34960  23.988  42.020   4.201
75700W        W34961  33.532  33.921   5.663
75701W        W34962  14.764  20.728  10.962
75702W        W34963  20.619  14.747  13.833
75703W        W34964  37.962  25.619   0.856
75704W        W34965  14.746  10.152  11.051
75705W        W34966  27.096  35.475  10.513
75706W        W34967  44.442  37.875  12.379
75707W        W34968  24.183   7.209   9.931
75708W        W34969   6.886  32.026  11.443
75709W        W34970  40.963  21.201   1.828
75710W        W34971  31.440  14.100   1.443
75711W        W34972  41.458  17.079   0.445
75712W        W34973  25.033  31.102   3.346
75713W        W34974  43.460   5.896   1.872
75714W        W34975  40.905  40.029  14.957
75715W        W34976   7.373  21.607  14.475
75716W        W34977  43.839  28.611   0.476
75717W        W34978  24.069  36.573  14.369
75718W        W34979  16.794   2.810   9.644
75719W        W34980   7.270  34.422   3.187
75720W        W34981  41.426  39.864   4.299
75721W        W34982   8.238  28.566   1.286
75722W        W34983  33.905   3.778   2.324
75723W        W34984  11.145  18.279  14.442
75724W        W34985   0.875   1.932   5.240
75725W        W34986  33.955  15.739   3.171
75726W        W34987   9.205   2.805   3.708
75727W        W34988  44.831  23.518  12.070
75728W        W34989   2.771  16.231   1.263
75729W        W34990  10.178  21.638  13.937
75730W        W34991  23.060  41.537  12.994
75731W        W34992  14.335  26.078  10.023
75732W        W34993  38.930  32.509   4.834
75733W        W34994  38.406  43.392   3.201
75734W        W34995   5.246  41.865   1.430
75735W        W34996  27.489  13.340   3.272
75736W        W34997  29.126  24.544  13.955
75737W        W34998  42.527  35.387   2.266
75738W        W34999  25.696   0.865   4.823
75739W        W35000  29.030  42.950  13.977
75740W        W35001  33.913  36.434  14.841
75741W        W35002  18.203  19.139   4.699
75742W        W35003   5.851  27.039  11.408
75743W        W35004   6.344  23.031  14.915
75744W        W35005  14.626  30.629  13.518
75745W        W35006   9.716  42.436   1.346
75746W        W35007   9.711  15.166   4.175
75747W        W35008  21.204  29.155   0.895
75748W        W35009  37.843  26.110   4.205
75749W        W35010   4.838  12.221   2.405
75750W        W35011  30.514  37.522   5.307
75751W        W35012  11.656  15.171   3.364
75752W        W35013  27.992  19.156   0.764
75753W        W35014  13.730  29.449   2.837
75754W        W35015  16.159  20.575  12.029
75755W        W35016   5.705  15.259  14.345
75756W        W35017   8.893  10.364   1.387
75757W        W35018  44.824  23.061   0.246
75758W        W35019   5.688  36.482   3.683
75759W        W35020  36.954  42.484   5.133
75760W        W35021  44.957  39.435  12.425
75761W        W35022  29.143  28.600   0.898
75762W        W35023   3.864  42.785   0.324
75763W        W35024   5.764   2.943   4.670
75764W        W35025  15.084  29.005   0.790
75765W        W35026  17.685   3.774  11.972
75766W        W35027  43.299  40.356   0.797
75767W        W35028  13.793  34.426  13.359
75768W        W35029   1.966  16.183  10.587
75769W        W35030  32.001  16.733   1.258
75770W        W35031  39.441  31.030  13.839
75771W        W35032  39.528  15.246   4.721
75772W        W35033  14.227  35.421  13.326
75773W        W35034   2.772  17.666  10.446
75774W        W35035  20.245   4.448   3.232
75775W        W35036  35.018  41.923  13.000
75776W        W35037  30.045  12.196  14.315
75777W        W35038   0.287  21.756  13.455
75778W        W35039  24.648  20.237   2.852
75779W        W35040  27.165  12.320   4.351
75780W        W35041  10.728  18.631  11.894
75781W        W35042  30.480  42.951  12.511
75782W        W35043  38.881  15.657   5.142
75783W        W35044  15.804  20.525   3.790
75784W        W35045   5.271  14.197   1.925
75785W        W35046   6.873  35.512   2.754
75786W        W35047  37.989   9.287  12.084
75787W        W35048  40.346  17.181   1.761
75788W        W35049  11.733  40.850  12.042
75789W        W35050  32.979   4.225   1.350
75790W        W35051  26.620   3.715  11.475
75791W        W35052  42.790  39.455  13.968
75792W        W35053  31.130  30.551   1.882
75793W        W35054  21.019  20.033   3.365
75794W        W35055  28.663  32.437  14.993
75795W        W35056  11.227  15.730  11.550
75796W        W35057  41.436   0.492   0.794
75797W        W35058  29.433  35.961   5.139
75798W        W35059   5.928  33.486   2.407
75799W        W35060  30.414   2.335  11.100
75800W        W35061  33.615  32.436  13.453
75801W        W35062  12.825  19.254   4.636
75802W        W35063   6.695  38.963   1.786
75803W        W35064  35.056  38.986  10.482
75804W        W35065  15.183  14.338   5.193
75805W        W35066   9.366  42.423   4.338
75806W        W35067   9.221  24.703   0.249
75807W        W35068  15.728   3.378   0.261
75808W        W35069  34.110  44.951   0.302
75809W        W35070  32.108  30.164  10.584
75810W        W35071  40.542  27.680   4.604
75811W        W35072  23.178  15.648   3.181
75812W        W35073  15.652  39.046   2.418
75813W        W35074  34.066  25.117  12.076
75814W        W35075   1.346   3.390   4.736
75815W        W35076  37.868  42.391  11.516
75816W        W35077  38.414  28.116  13.346
75817W        W35078  36.954  23.203  10.989
75818W        W35079  31.604  43.821  11.127
75819W        W35080  20.034  42.313   0.920
75820W        W35081  26.590  38.474   0.422
75821W        W35082  41.928   8.386  14.945
75822W        W35083  33.411   3.362  12.835
75823W        W35084  32.102  23.187  12.004
75824W        W35085  32.971  10.804   1.269
75825W        W35086   6.233  44.872   3.723
75826W        W35087  17.730  33.583  13.018
75827W        W35088   6.741   5.767   2.663
75828W        W35089   1.477   1.390  12.908
75829W        W35090  30.589  10.261  14.367
75830W        W35091   9.303  34.419   0.930
75831W        W35092  16.705  10.782   0.756
75832W        W35093  36.433  20.743  14.815
75833W        W35094  24.546  23.514   2.298
75834W        W35095   2.361  12.665  12.094
75835W        W35096   2.459   2.302   1.853
75836W        W35097  23.128  44.504   0.286
75837W        W35098  30.100  34.521  13.441
75838W        W35099  33.043  35.385   5.260
75839W        W35100   9.280  23.670  11.097
75840W        W35101  38.326  28.637   1.768
75841W        W35102  28.440  27.173   1.855
75842W        W35103  13.339  43.808   2.885
75843W        W35104  30.501   0.871  10.405
75844W        W35105  36.374   0.381  12.368
75845W        W35106  32.142  33.063   2.272
75846W        W35107   6.841  31.898  11.915
75847W        W35108  16.149  22.504  13.347
75848W        W35109   7.320  13.715   0.902
75849W        W35110   0.398  37.549   4.321
75850W        W35111  21.641  26.679   3.161
75851W        W35112  34.053  11.700  13.519
75852W        W35113  40.360  18.210  10.916
75853W        W35114   2.791  23.064   0.260
75854W        W35115  31.033  29.659  14.326
75855W        W35116   6.682  23.201  13.970
75856W        W35117  12.207  22.537   1.896
75857W        W35118  37.951  43.003  11.872
75858W        W35119  23.538  17.082  12.554
75859W        W35120  23.201   0.909  12.985
75860W        W35121  27.126  16.658   1.701
75861W        W35122  24.056  22.069  12.965
75862W        W35123  41.454  37.886   0.440
75863W        W35124  16.758   9.163  11.388
75864W        W35125  21.036  11.127   1.890
75865W        W35126  25.986  27.459  13.482
75866W        W35127  43.784  42.422   0.815
75867W        W35128  17.656  10.159   1.869
75868W        W35129  42.981  41.807   2.350
75869W        W35130  24.135   9.290  14.881
75870W        W35131  28.501  11.698   0.750
75871W        W35132  34.408   9.341   0.871
75872W        W35133   9.183  39.019  10.942
75873W        W35134   7.678  19.102  10.624
75874W        W35135   9.200  27.505  14.948
75875W        W35136  26.607  20.606  11.962
75876W        W35137  30.624  17.795   2.887
75877W        W35138   4.432   8.169  12.025
75878W        W35139   5.795  30.142   2.869
75879W        W35140  29.965  31.554   5.166
75880W        W35141   1.368   0.255  12.910
75881W        W35142   4.733  40.892  11.552
75882W        W35143   5.822  25.205  14.324
75883W        W35144  28.663  11.819   4.336
75884W        W35145  19.047  33.927  13.527
75885W        W35146  43.014  17.281  11.869
75886W        W35147  21.151  30.617  14.875
75887W        W35148  24.040   2.801  11.085
75888W        W35149   1.863  29.998   1.394
75889W        W35150  12.687   4.886   2.336
75890W        W35151   0.958  17.122   3.820
75891W        W35152   7.413  28.661   4.328
75892W        W35153  14.150  22.141  11.085
75893W        W35154  42.324   4.272  11.952
75894W        W35155  19.600  18.061   3.309
75895W        W35156  33.490  32.582  10.934
75896W        W35157  17.106  33.448  12.934
75897W        W35158   3.764  43.834  10.550
75898W        W35159  43.487  23.166   0.729
75899W        W35160  18.138  10.853   1.698
75900W        W35161   6.678  41.537   1.700
75901W        W35162  44.484  30.046  11.381
75902W        W35163  29.452  39.892   4.280
75903W        W35164  38.913  34.870   3.341
75904W        W35165  19.161  28.626  11.938
75905W        W35166  11.646  38.004   1.406
75906W        W35167   0.352  41.876   0.946
75907W        W35168  11.627   1.852   3.842
75908W        W35169   1.900   1.873   4.155
75909W        W35170  12.155  37.523  12.905
75910W        W35171  38.383  38.887   0.394
75911W        W35172  13.334  10.143   3.776
75912W        W35173  35.877  24.484  14.931
75913W        W35174  29.076  30.988   1.230
75914W        W35175  14.795   6.819  11.472
75915W        W35176  11.351  33.080   4.833
75916W        W35177  22.591   1.391  10.595
75917W        W35178  42.435  11.763   0.817
75918W        W35179  40.853  17.258   4.695
75919W        W35180  24.125  43.413  14.949
75920W        W35181  24.583   4.316   0.312
75921W        W35182  43.355  32.599   3.863
75922W        W35183  19.649  18.779   4.662
75923W        W35184   9.683  38.847   4.170
75924W        W35185   2.388  31.644   3.190
75925W        W35186  19.053  36.402  14.378
75926W        W35187  11.854   4.750   0.804
75927W        W35188   4.798  19.150  12.505
75928W        W35189  33.568  44.883   2.415
75929W        W35190  16.264   2.232   2.870
75930W        W35191   4.430  16.260  10.960
75931W        W35192  10.672  27.522  13.810
75932W        W35193  12.838  10.239   3.217
75933W        W35194   4.757  33.970   2.288
75934W        W35195  21.604   3.768   4.331
75935W        W35196   3.915   6.311  12.418
75936W        W35197  21.543  43.292   1.382
75937W        W35198  31.973   5.751   3.192
75938W        W35199   1.934   0.764  13.017
75939W        W35200  27.975  17.730   3.700
75940W        W35201  30.066  16.280  11.446
75941W        W35202  22.683  20.113  13.909
75942W        W35203  29.945  35.080  14.031
75943W        W35204  27.066  11.669   2.848
75944W        W35205  37.957  23.593   1.348
75945W        W35206  17.282  42.299   0.925
75946W        W35207  26.654  36.020   3.233
75947W        W35208   6.229  28.451  11.038
75948W        W35209  19.690  38.068   4.622
75949W        W35210   8.830  15.603  13.064
75950W        W35211  13.611  32.004  11.416
75951W        W35212  23.205  13.602   4.129
75952W        W35213  40.532  28.675   4.663
75953W        W35214   3.819  10.692   1.758
75954W        W35215  22.062   0.769  13.940
75955W        W35216   9.651  23.222  13.362
75956W        W35217  24.195  39.907  14.276
75957W        W35218   2.812   3.917  14.302
75958W        W35219   1.762   7.188   3.786
75959W        W35220  32.139  31.501   4.217
75960W        W35221   2.935  34.070  12.913
75961W        W35222  17.066   8.844  14.512
75962W        W35223  10.675  37.001   1.794
75963W        W35224  31.972  14.734   4.831
75964W        W35225  21.081  30.432   2.356
75965W        W35226  29.158  24.103   4.739
75966W        W35227  21.141  28.175   1.434
75967W        W35228  23.681  18.086  14.761
75968W        W35229   1.921  42.403   0.944
75969W        W35230   2.769  30.067   4.340
75970W        W35231  27.031   3.844   4.182
75971W        W35232  28.634  28.453   2.331
75972W        W35233  31.611  28.530   2.783
75973W        W35234  11.687  23.996  13.428
75974W        W35235  26.594   3.833   0.333
75975W        W35236  13.128  23.127  11.911
75976W        W35237  44.460  32.919  13.009
75977W        W35238  22.589   5.391  10.409
75978W        W35239  11.855  26.171  12.945
75979W        W35240   5.691  40.397   4.711
75980W        W35241  15.788  34.919   3.329
75981W        W35242  42.472   5.263   3.734
75982W        W35243  36.540  16.742   4.353
75983W        W35244   6.428  31.926  10.527
75984W        W35245  32.084  24.596   2.237
75985W        W35246   2.379  34.981   5.247
75986W        W35247  23.167  44.921   2.761
75987W        W35248  19.630  43.279  11.447
75988W        W35249  34.901  39.560  11.564
75989W        W35250  29.605  19.207  10.891
75990W        W35251  33.063  25.686  13.851
75991W        W35252  32.589   7.773   3.146
75992W        W35253  24.655  12.161   1.881
75993W        W35254  29.135  27.472   0.834
75994W        W35255  17.780  37.961  11.514
75995W        W35256  17.185  16.585  13.968
75996W        W35257  12.765  17.085   1.733
75997W        W35258   4.362   1.462   2.818
75998W        W35259  41.471  41.850  13.376
75999W        W35260  38.500   8.203   2.662
76000W        W35261  32.901  44.293  14.440
76001W        W35262  44.489   6.335   3.777
76002W        W35263  17.105  30.471   0.285
76003W        W35264  39.437   6.701   1.721
76004W        W35265  19.042  30.961  11.027
76005W        W35266   9.337   4.757   4.733
76006W        W35267   7.822  27.600   2.800
76007W        W35268  26.064  12.673  10.464
76008W        W35269   8.667  29.923  10.560
76009W        W35270  20.769  18.220   2.263
76010W        W35271  36.927  19.113   3.386
76011W        W35272  26.511  44.905  10.539
76012W        W35273  22.519   8.779   3.277
76013W        W35274  33.452   6.720  13.831
76014W        W35275  30.545   7.325   2.819
76015W        W35276  41.882  39.983   2.265
76016W        W35277  13.763  13.224  14.842
76017W        W35278  15.714  25.648   3.725
76018W        W35279  11.751  20.261   3.200
76019W        W35280   9.778   0.404   3.287
76020W        W35281  44.849  21.212  13.399
76021W        W35282  24.706  34.948   1.805
76022W        W35283  30.443  24.982  11.518
76023W        W35284  21.565  32.947   0.825
76024W        W35285   9.251  44.357  10.466
76025W        W35286  43.955  20.587   2.794
76026W        W35287  20.171  24.644  10.161
76027W        W35288  28.086  36.398   3.826
76028W        W35289   9.365   2.395   4.827
76029W        W35290   1.424  24.032   3.197
76030W        W35291  21.539   9.753   3.645
76031W        W35292   6.787  21.596   3.337
76032W        W35293  41.859  38.845  13.521
76033W        W35294  38.497  42.315   0.322
76034W        W35295  34.083  23.638  11.593
76035W        W35296  42.785  13.640  10.535
76036W        W35297   2.767   5.316   3.678
76037W        W35298  30.147  19.093  11.604
76038W        W35299   9.184  14.157   5.230
76039W        W35300   3.818  24.043   3.789
76040W        W35301  25.538  42.371  13.502
76041W        W35302  21.076   8.323  13.415
76042W        W35303  33.408  21.035   1.329
76043W        W35304  21.023   8.262   0.269
76044W        W35305  44.435  25.706   1.242
76045W        W35306  39.961  21.263   4.166
76046W        W35307  38.980   3.270  10.584
76047W        W35308  44.360  26.550  10.006
76048W        W35309  36.095  21.225  12.946
76049W        W35310  27.092   3.255  12.426
76050W        W35311  27.684  42.410  12.051
76051W        W35312  38.386   2.798   4.236
76052W        W35313   7.758  12.324   4.654
76053W        W35314  41.807   4.222  12.381
76054W        W35315   1.459  13.243   1.438
76055W        W35316  12.611  22.232   1.758
76056W        W35317  25.188  44.450   4.202
76057W        W35318  40.848  18.630  12.096
76058W        W35319   1.320  30.044   3.147
76059W        W35320  29.120  21.596   1.257
76060W        W35321  28.562  32.485   4.630
76061W        W35322   3.364  30.035   3.803
76062W        W35323  30.646  16.163  13.986
76063W        W35324  43.892  33.003   0.889
76064W        W35325  21.654   9.856   0.278
76065W        W35326   7.756  32.943  11.968
76066W        W35327   5.340  40.872  11.558
76067W        W35328  13.330  31.966   2.725
76068W        W35329  37.533  37.438   2.337
76069W        W35330  44.923  25.083   3.845
76070W        W35331   7.340  10.226   2.874
76071W        W35332  10.270  31.548   0.317
76072W        W35333  19.690  44.930  14.997
76073W        W35334  29.159   8.772  14.950
76074W        W35335  24.997   2.942  10.962
76075W        W35336  16.151  29.977   2.762
76076W        W35337   6.800   3.785  14.357
76077W        W35338  11.668  13.744  14.836
76078W        W35339  26.702  21.674  14.389
76079W        W35340   7.817  36.059   2.266
76080W        W35341  36.886  25.494   1.356
76081W        W35342  28.548  33.624  12.902
76082W        W35343  26.520  43.416  11.387
76083W        W35344  21.678   5.248   1.718
76084W        W35345  41.987   0.319   2.389
76085W        W35346   3.740  11.209   3.656
76086W        W35347  19.717  28.475  10.583
76087W        W35348  12.175  33.030  12.953
76088W        W35349  29.025  34.570  13.007
76089W        W35350  15.813  38.376  11.411
76090W        W35351   4.737   5.326  10.542
76091W        W35352  19.662   7.190  12.934
76092W        W35353  33.585  27.090  11.905
76093W        W35354  30.941   7.255   2.709
76094W        W35355  17.146  30.426   3.758
76095W        W35356  20.151  33.499   3.352
76096W        W35357  39.878  35.597   1.763
76097W        W35358  17.278  28.438  13.426
76098W        W35359  37.363  31.450  11.953
76099W        W35360   1.935  14.726   2.417
76100W        W35361   9.799  16.574  10.104
76101W        W35362  42.290   3.377   4.823
76102W        W35363  23.616  13.324   4.288
76103W        W35364  26.989  27.535   2.811
76104W        W35365  18.679  43.491  13.040
76105W        W35366  19.080  41.855  11.980
76106W        W35367  19.247  12.683  10.410
76107W        W35368   7.215  31.062  13.037
76108W        W35369  27.085  37.345   2.276
76109W        W35370   4.332   4.387  12.460
76110W        W35371  12.671  40.508  12.514
76111W        W35372  30.083  35.365   3.248
76112W        W35373  42.884  26.671   3.831
76113W        W35374  21.515  29.619  10.056
76114W        W35375   8.356  40.393   4.333
76115W        W35376  13.146   2.793   2.900
76116W        W35377  30.606  29.129  14.943
76117W        W35378  36.582  26.482  13.943
76118W        W35379  20.074  28.065   2.207
76119W        W35380  35.525  11.209   2.279
76120W        W35381  25.497  22.223  14.787
76121W        W35382  36.046  39.842  13.502
76122W        W35383  17.153  31.898   4.648
76123W        W35384   1.763   8.889  11.923
76124W        W35385  38.929  23.232   3.682
76125W        W35386   9.316  25.506   4.205
76126W        W35387   5.736  23.049   2.352
76127W        W35388   2.246  27.563  10.476
76128W        W35389  35.058   4.918  12.481
76129W        W35390  43.813   6.194   3.822
76130W        W35391   9.345  15.306  12.532
76131W        W35392  38.993  31.080   1.296
76132W        W35393   8.372  35.365   2.695
76133W        W35394  31.085  33.065   4.764
76134W        W35395  29.986  42.507  11.380
76135W        W35396   0.909   6.200  12.484
76136W        W35397   0.941  32.958  14.446
76137NA+    NA+35398  34.472  40.419  10.085
76138NA+    NA+35399  15.216   2.455  14.325
76139NA+    NA+35400  43.941  31.431   2.373
76140NA+    NA+35401  21.235   1.458  11.984
76141NA+    NA+35402  27.041   7.834  12.491
76142NA+    NA+35403  33.891   2.402  13.377
76143NA+    NA+35404  26.983  43.767   1.216
76144NA+    NA+35405   7.765  24.495  10.636
76145NA+    NA+35406   3.360  17.631  10.519
76146NA+    NA+35407  13.322  42.300   3.381
76147NA+    NA+35408  11.318  11.273   1.258
76148NA+    NA+35409  17.663  39.528  10.577
76149NA+    NA+35410   7.850  26.617   4.155
76150NA+    NA+35411   6.786  12.769   1.725
76151NA+    NA+35412  23.152  43.936  10.491
76152NA+    NA+35413  17.753   6.323   2.803
76153NA+    NA+35414  23.077  26.498   4.602
76154NA+    NA+35415   4.888  38.011  11.964
76155NA+    NA+35416  11.307   7.368  12.486
76156NA+    NA+35417  10.764  17.618  13.436
76157NA+    NA+35418  26.188  34.032   1.935
76158NA+    NA+35419   6.209   0.260   2.752
76159NA+    NA+35420   0.962  15.295  12.837
76160NA+    NA+35421   4.926  38.487  10.921
76161NA+    NA+35422  22.036  27.990  13.848
76162NA+    NA+35423  14.780  13.707  13.500
76163NA+    NA+35424  25.143  19.605  11.492
76164NA+    NA+35425  24.481  38.523  11.944
76165NA+    NA+35426   1.764  14.665   3.288
76166NA+    NA+35427  40.814   6.772  13.538
76167NA+    NA+35428  23.182  28.528  11.010
76168NA+    NA+35429  21.131  22.528   0.390
76169NA+    NA+35430  27.968  19.659  14.788
76170NA+    NA+35431   2.854  18.679   0.735
76171NA+    NA+35432  23.668  21.596  12.854
76172NA+    NA+35433  29.429  25.490  11.985
76173NA+    NA+35434   9.707   6.899  14.994
76174NA+    NA+35435  32.016  38.976   3.255
76175NA+    NA+35436  43.440  40.040   1.247
76176NA+    NA+35437  42.283   6.887  12.523
76177NA+    NA+35438  39.414  36.510   0.910
76178NA+    NA+35439  10.875  11.763  11.542
76179NA+    NA+35440   9.296  15.195  11.443
76180NA+    NA+35441  27.178   6.872   3.856
76181NA+    NA+35442   8.291  31.934  10.472
76182NA+    NA+35443  11.152  19.698  12.092
76183NA+    NA+35444  13.177  24.713   0.466
76184NA+    NA+35445   4.342  18.091  11.886
76185NA+    NA+35446   2.248  34.568  14.410
76186NA+    NA+35447  25.214  30.534   2.182
76187NA+    NA+35448  17.213  22.718   1.827
76188NA+    NA+35449  38.548  36.933  11.402
76189NA+    NA+35450  44.933  38.498   4.223
76190NA+    NA+35451  26.516  23.526   0.926
76191NA+    NA+35452  32.543  20.620  12.027
76192NA+    NA+35453  16.077   9.759  13.523
76193NA+    NA+35454  43.910  29.147  14.474
76194NA+    NA+35455  14.814   4.283   5.115
76195NA+    NA+35456  23.618  34.870   4.230
76196NA+    NA+35457  42.490   4.283  13.530
76197NA+    NA+35458  37.018  11.725  11.449
76198NA+    NA+35459   8.871  27.590   2.700
76199NA+    NA+35460  39.870  43.788   0.861
76200NA+    NA+35461   3.448  11.240   0.854
76201NA+    NA+35462  13.225   4.816   5.793
76202NA+    NA+35463   9.721  28.941   0.836
76203NA+    NA+35464  41.800  42.848   3.221
76204NA+    NA+35465   3.730   9.310   0.882
76205NA+    NA+35466   0.955  26.672   2.769
76206NA+    NA+35467   8.825   8.877  11.533
76207NA+    NA+35468  17.625  41.873  12.496
76208NA+    NA+35469   2.802  11.208  10.618
76209NA+    NA+35470  27.522  32.027   3.850
76210NA+    NA+35471  35.545  38.479  13.969
76211NA+    NA+35472  26.527  35.472   2.724
76212NA+    NA+35473  41.389  15.688  10.468
76213NA+    NA+35474   8.247  18.589   3.835
76214NA+    NA+35475  21.244  15.252  11.435
76215NA+    NA+35476  43.910  11.766  11.980
76216NA+    NA+35477  12.124  42.991  13.470
76217NA+    NA+35478  25.655  32.965   3.344
76218NA+    NA+35479  15.098  19.607   0.450
76219NA+    NA+35480  28.467  25.996   4.312
76220NA+    NA+35481   8.821  25.476  11.985
76221NA+    NA+35482  16.719   5.287   1.357
76222NA+    NA+35483  33.913   8.228  14.433
76223NA+    NA+35484  13.718  23.029   1.901
76224NA+    NA+35485  15.707  37.024   1.769
76225NA+    NA+35486  18.206  24.698  12.018
76226NA+    NA+35487  31.070   4.213  14.482
76227NA+    NA+35488  42.367   9.859   1.408
76228NA+    NA+35489  32.629  22.205  14.399
76229NA+    NA+35490  38.064  26.974  13.973
76230NA+    NA+35491   5.726  22.574  14.970
76231NA+    NA+35492   8.898  38.835   1.780
76232NA+    NA+35493  21.018   1.881  10.019
76233NA+    NA+35494  13.651  11.814  14.481
76234NA+    NA+35495  23.056  12.336   1.312
76235NA+    NA+35496  28.526   7.811   0.761
76236NA+    NA+35497  22.736  22.144   4.348
76237NA+    NA+35498  44.436  39.316   4.835
76238NA+    NA+35499  19.279  39.896  13.504
76239NA+    NA+35500  11.227  18.569   0.333
76240NA+    NA+35501  30.150  27.493   1.350
76241NA+    NA+35502  36.347  28.184   3.813
76242NA+    NA+35503  22.728   2.425  12.481
76243NA+    NA+35504  27.611  41.883  13.811
76244NA+    NA+35505  25.700   5.389   3.281
76245NA+    NA+35506  31.049  18.562   4.279
76246NA+    NA+35507  39.848   6.869  14.789
76247NA+    NA+35508  24.668  42.025  11.497
76248NA+    NA+35509  13.603   7.883  13.868
76249NA+    NA+35510  12.725   5.827  14.370
76250NA+    NA+35511  36.054  33.472  11.949
76251NA+    NA+35512   7.206   2.772  13.488
76252NA+    NA+35513   4.410  31.468  12.987
76253NA+    NA+35514  13.629  34.489  11.052
76254NA+    NA+35515  20.607   8.187   0.919
76255NA+    NA+35516  25.204  35.017  12.573
76256NA+    NA+35517   5.386  14.786   0.290
76257NA+    NA+35518   2.287   3.233  12.010
76258NA+    NA+35519  27.165  29.073   3.855
76259NA+    NA+35520  40.414   1.297   3.332
76260NA+    NA+35521  23.729   0.252   4.149
76261NA+    NA+35522  12.138  18.729  12.059
76262NA+    NA+35523  34.510  25.051  14.442
76263NA+    NA+35524   1.353  36.357  11.575
76264NA+    NA+35525  40.344  14.792   3.294
76265NA+    NA+35526  17.756   1.426  14.511
76266NA+    NA+35527  30.423  29.509   2.858
76267NA+    NA+35528  12.237  39.816  10.638
76268NA+    NA+35529  22.063  18.742  11.054
76269NA+    NA+35530  40.828   3.388   2.225
76270NA+    NA+35531  43.934  32.011  12.484
76271NA+    NA+35532   8.231  28.087   3.673
76272NA+    NA+35533  39.337   7.803   4.826
76273NA+    NA+35534  40.976  24.614   3.302
76274NA+    NA+35535  20.596   6.382  11.076
76275NA+    NA+35536  18.296   8.700  10.985
76276NA+    NA+35537  44.379  42.939  13.307
76277NA+    NA+35538  43.974  41.392  14.990
76278NA+    NA+35539   5.773  44.296   1.441
76279NA+    NA+35540  28.072  26.093  12.437
76280NA+    NA+35541  33.484  35.528   4.825
76281NA+    NA+35542  36.347  19.094  14.308
76282NA+    NA+35543  42.448   6.326   0.733
76283NA+    NA+35544  15.678  35.362   2.696
76284NA+    NA+35545  31.449   0.386   2.743
76285NA+    NA+35546  17.143   3.948  14.764
76286NA+    NA+35547   1.341  43.339  14.954
76287NA+    NA+35548  16.284  24.975   2.763
76288NA+    NA+35549   6.719  25.521   0.259
76289NA+    NA+35550  26.607  10.865  10.615
76290NA+    NA+35551  14.808  19.586   2.316
76291NA+    NA+35552   4.700  28.602   3.842
76292NA+    NA+35553   3.815  36.884   0.362
76293NA+    NA+35554  17.304  29.167  12.439
76294NA+    NA+35555  44.503  18.563  14.331
76295NA+    NA+35556   4.877  10.145   3.164
76296NA+    NA+35557  19.188  32.098  11.918
76297NA+    NA+35558   6.873   8.222   1.276
76298NA+    NA+35559  11.304   6.257  13.943
76299NA+    NA+35560  42.859  33.115   0.337
76300NA+    NA+35561  19.107  11.345  13.375
76301NA+    NA+35562   3.328  11.302  11.976
76302NA+    NA+35563  14.162   6.728   4.798
76303NA+    NA+35564  42.390   3.439  14.013
76304NA+    NA+35565   3.287  16.661   2.828
76305NA+    NA+35566  25.179   8.686   1.391
76306NA+    NA+35567   4.716  43.993   1.444
76307NA+    NA+35568   3.799  21.717   4.618
76308NA+    NA+35569  38.404  30.565   2.359
76309NA+    NA+35570  20.531   0.411  11.039
76310NA+    NA+35571   4.831   2.412  11.372
76311NA+    NA+35572   0.817  14.304   1.842
76312NA+    NA+35573  37.354  30.027  12.403
76313NA+    NA+35574  36.404   4.272   2.760
76314NA+    NA+35575  41.466  35.004  12.859
76315NA+    NA+35576   9.186  34.538   4.698
76316NA+    NA+35577  39.390   5.250  11.871
76317NA+    NA+35578  36.581  27.652  10.483
76318NA+    NA+35579  13.207  44.318  10.120
76319NA+    NA+35580  40.834  10.760  10.969
76320NA+    NA+35581  18.191  22.203  13.982
76321NA+    NA+35582  11.861  37.472  14.906
76322NA+    NA+35583   5.697  14.802  13.337
76323NA+    NA+35584  35.550  18.094   3.166
76324NA+    NA+35585   0.935   0.815  12.983
76325NA+    NA+35586   7.668  10.720   0.757
76326NA+    NA+35587  20.757  21.598   3.384
76327NA+    NA+35588   9.767  30.004   1.817
76328NA+    NA+35589  42.909   8.171   1.757
76329NA+    NA+35590  30.985  22.249   4.809
76330NA+    NA+35591   4.387  26.677   1.867
76331NA+    NA+35592  23.515  30.605   3.344
76332NA+    NA+35593  42.934  15.596  13.815
76333NA+    NA+35594  28.001  12.736   5.158
76334NA+    NA+35595  30.509  19.701  11.417
76335NA+    NA+35596  13.801  14.621  11.065
76336NA+    NA+35597  11.771   5.259   3.777
76337NA+    NA+35598  42.934   1.878   2.798
76338NA+    NA+35599  39.426   5.319   2.205
76339NA+    NA+35600  30.070   4.748  11.455
76340NA+    NA+35601  42.825  22.209   2.361
76341NA+    NA+35602  17.564  14.150   0.734
76342NA+    NA+35603  25.669   2.395   3.854
76343NA+    NA+35604   6.334   7.335   1.243
76344NA+    NA+35605  41.866   4.813  10.590
76345NA+    NA+35606   6.218  35.090   3.811
76346NA+    NA+35607   4.309  27.054  12.947
76347NA+    NA+35608  24.183  10.827  14.936
76348NA+    NA+35609   3.385  16.073  10.450
76349NA+    NA+35610  36.420  15.669  13.879
76350NA+    NA+35611  39.435  18.188  13.955
76351NA+    NA+35612  36.547  39.534  10.093
76352NA+    NA+35613   6.305   9.685   0.840
76353NA+    NA+35614   6.333  32.453   1.263
76354NA+    NA+35615  26.990  43.367  12.481
76355NA+    NA+35616  24.063  41.039   3.703
76356NA+    NA+35617  20.229  36.459  10.605
76357NA+    NA+35618  36.350  43.300   0.849
76358NA+    NA+35619  39.339  34.116   1.314
76359NA+    NA+35620  10.142  35.881  11.987
76360NA+    NA+35621   7.213  41.439   0.377
76361NA+    NA+35622  24.165  21.722   4.753
76362NA+    NA+35623  44.898   5.359  11.928
76363NA+    NA+35624  16.804  32.454   3.705
76364NA+    NA+35625  29.604   3.377   1.707
76365NA+    NA+35626   2.272  17.646  12.019
76366NA+    NA+35627  43.782  38.908   1.314
76367NA+    NA+35628   0.255  31.961   3.220
76368NA+    NA+35629  15.777  37.079  12.094
76369NA+    NA+35630   8.318  37.397  12.433
76370NA+    NA+35631  32.452  31.618   3.367
76371NA+    NA+35632  32.949   6.707   3.659
76372NA+    NA+35633  10.726  21.732  11.032
76373NA+    NA+35634  27.100  44.266  12.883
76374NA+    NA+35635  33.018   6.716  11.054
76375NA+    NA+35636  39.341  13.778  13.848
76376NA+    NA+35637  41.356  12.210   3.270
76377NA+    NA+35638   3.935  25.164   1.795
76378NA+    NA+35639  16.085  25.685  14.379
76379NA+    NA+35640   2.270  34.094   2.867
76380NA+    NA+35641  29.597  37.543   3.168
76381NA+    NA+35642   6.359  17.591  13.487
76382NA+    NA+35643  12.650  38.377   1.932
76383NA+    NA+35644   3.326  28.442  13.842
76384NA+    NA+35645  38.895  24.547  13.429
76385NA+    NA+35646   3.274  37.390  14.381
76386NA+    NA+35647  42.376  22.592  11.123
76387NA+    NA+35648   4.908  42.941  11.003
76388NA+    NA+35649   9.340  18.085   0.863
76389NA+    NA+35650   0.799  41.811   3.218
76390NA+    NA+35651  26.516  18.698  11.074
76391NA+    NA+35652  43.431  18.726   3.307
76392NA+    NA+35653  25.528  39.950  10.454
76393NA+    NA+35654  26.956  27.664   1.795
76394NA+    NA+35655  18.233  20.156  13.508
76395NA+    NA+35656   6.351  44.005  13.850
76396NA+    NA+35657   3.853  23.215  12.863
76397NA+    NA+35658  43.886  44.427  11.969
76398NA+    NA+35659  28.081  20.080  10.932
76399NA+    NA+35660  33.918  23.138  13.021
76400NA+    NA+35661  21.187   3.358  14.468
76401NA+    NA+35662  35.085   8.835   3.845
76402NA+    NA+35663   5.385  15.140  14.320
76403NA+    NA+35664  21.124  41.795   0.422
76404NA+    NA+35665  27.002  30.627   0.928
76405NA+    NA+35666   0.396   6.344   2.263
76406NA+    NA+35667  29.159   7.888  14.948
76407NA+    NA+35668  10.213   9.294  12.358
76408NA+    NA+35669   7.857  37.459  12.844
76409NA+    NA+35670  32.632  16.572  14.951
76410NA+    NA+35671  43.438  41.400   4.187
76411NA+    NA+35672   1.741  29.019   3.863
76412NA+    NA+35673  40.934   5.290   0.363
76413NA+    NA+35674   7.237  12.719  14.902
76414NA+    NA+35675  10.700  18.252   2.836
76415NA+    NA+35676  30.055  14.187  11.990
76416NA+    NA+35677  42.343  31.967   3.825
76417NA+    NA+35678  28.183  15.614  12.854
76418NA+    NA+35679  34.533  26.519  14.930
76419NA+    NA+35680   8.168  24.636   4.774
76420NA+    NA+35681  18.693  41.363  14.437
76421NA+    NA+35682  38.510  18.677  14.349
76422NA+    NA+35683  39.061  19.077   4.656
76423NA+    NA+35684   6.378  42.315  11.876
76424NA+    NA+35685  22.228  40.009   3.152
76425NA+    NA+35686  43.012  42.386   4.751
76426NA+    NA+35687  30.066  32.518  14.466
76427NA+    NA+35688  16.769  24.987   1.301
76428NA+    NA+35689  44.933  20.205   1.329
76429NA+    NA+35690  27.975  36.951   0.876
76430NA+    NA+35691   3.918  22.143  14.773
76431NA+    NA+35692   2.373  16.750   0.814
76432NA+    NA+35693  37.491  41.534  11.087
76433NA+    NA+35694  33.949  43.357   3.240
76434NA+    NA+35695   0.275   2.375  13.027
76435NA+    NA+35696   1.416  23.128   0.948
76436NA+    NA+35697  10.309  37.350   1.244
76437NA+    NA+35698  15.655   8.337   9.928
76438NA+    NA+35699   2.928  34.534  12.456
76439NA+    NA+35700  39.881  43.417   4.703
76440NA+    NA+35701   1.945   3.906  12.487
76441NA+    NA+35702  33.974  41.316   4.618
76442NA+    NA+35703  42.361  18.723   3.179
76443NA+    NA+35704  28.021  33.589  10.594
76444NA+    NA+35705   8.870  18.746  12.842
76445NA+    NA+35706   2.455  44.394   0.967
76446NA+    NA+35707  28.935  10.216  12.476
76447NA+    NA+35708   2.725  31.921   4.308
76448NA+    NA+35709  21.605  19.060  10.951
76449NA+    NA+35710  15.783  32.042  14.919
76450NA+    NA+35711  36.028  36.032   1.282
76451NA+    NA+35712  34.908   4.878  11.578
76452NA+    NA+35713  36.388  29.657  12.950
76453NA+    NA+35714   5.340  41.861  12.391
76454NA+    NA+35715  27.672  19.257  14.474
76455NA+    NA+35716  43.002  43.002   1.214
76456NA+    NA+35717  26.523  14.620  13.938
76457NA+    NA+35718  24.090  27.082   3.765
76458NA+    NA+35719  43.279  30.071  12.059
76459NA+    NA+35720  34.503  44.881  12.371
76460NA+    NA+35721  41.944  18.673  10.414
76461NA+    NA+35722  35.100  44.768   5.314
76462NA+    NA+35723  40.816  18.573  14.794
76463NA+    NA+35724  35.463  19.067  13.929
76464NA+    NA+35725  30.647  12.651  14.512
76465NA+    NA+35726  20.132  27.089   9.451
76466NA+    NA+35727   1.732  33.079  10.485
76467NA+    NA+35728   5.406   0.869   4.292
76468NA+    NA+35729   5.251  26.657  13.005
76469NA+    NA+35730  16.626   7.881   1.797
76470NA+    NA+35731  30.520  26.996   1.252
76471NA+    NA+35732   5.238  17.264  14.341
76472NA+    NA+35733   0.343   2.886  11.497
76473NA+    NA+35734  11.204  10.234  12.474
76474NA+    NA+35735  43.840  13.333   0.384
76475NA+    NA+35736  24.104  13.779  13.038
76476NA+    NA+35737  38.852  44.862  10.465
76477NA+    NA+35738   0.900  18.580  14.870
76478NA+    NA+35739   6.884  13.771   3.746
76479NA+    NA+35740  34.379  36.982  11.974
76480NA+    NA+35741  39.471  43.978  11.386
76481NA+    NA+35742  34.556  37.901   0.444
76482NA+    NA+35743   9.189  13.122   4.620
76483NA+    NA+35744  22.103   6.714  13.834
76484NA+    NA+35745   1.469  31.435  11.856
76485NA+    NA+35746  18.551  34.958   1.328
76486NA+    NA+35747  36.410  21.156  14.988
76487NA+    NA+35748  26.985   6.279  12.088
76488NA+    NA+35749  28.176  25.503  12.047
76489NA+    NA+35750  20.174  20.124  14.342
76490NA+    NA+35751  23.235  32.105   0.891
76491NA+    NA+35752  36.897   4.340  11.996
76492NA+    NA+35753   5.242  41.968   0.459
76493NA+    NA+35754  15.611   1.405  14.794
76494NA+    NA+35755  20.625  13.345  10.437
76495NA+    NA+35756   5.223   6.796   1.788
76496NA+    NA+35757  42.425  37.064   3.238
76497NA+    NA+35758   1.458  25.056  11.541
76498NA+    NA+35759  18.754  16.627  11.125
76499NA+    NA+35760  24.644  41.348  13.007
76500NA+    NA+35761   4.757   9.793  10.494
76501NA+    NA+35762  26.542  36.989   0.761
76502NA+    NA+35763  33.464   1.255  14.478
76503NA+    NA+35764  29.112  20.118  12.843
76504NA+    NA+35765   6.772  17.230   4.694
76505NA+    NA+35766  20.768  20.587  12.447
76506NA+    NA+35767  39.367  16.805  14.956
76507NA+    NA+35768  28.951  20.183  14.874
76508NA+    NA+35769  39.999   8.876  10.517
76509NA+    NA+35770  44.376  42.357   3.386
76510NA+    NA+35771   4.748  12.851   0.400
76511NA+    NA+35772  41.000   9.376  12.426
76512NA+    NA+35773  36.438  34.556  11.858
76513NA+    NA+35774  43.800   1.401   0.429
76514NA+    NA+35775   2.409  21.079   1.437
76515NA+    NA+35776  11.795  25.213   4.293
76516NA+    NA+35777   1.803   9.382  13.423
76517NA+    NA+35778  19.039  26.136  14.930
76518NA+    NA+35779  38.879  21.162   4.238
76519NA+    NA+35780  24.996  38.858   1.217
76520NA+    NA+35781  16.592  13.621  13.475
76521NA+    NA+35782  18.053  28.082  13.791
76522NA+    NA+35783  11.166  28.980  14.767
76523NA+    NA+35784  36.383  33.543   4.636
76524NA+    NA+35785   0.765  23.153   1.244
76525NA+    NA+35786  33.051  17.157   2.674
76526NA+    NA+35787  10.757  17.206  10.589
76527NA+    NA+35788  11.694  35.478   1.838
76528NA+    NA+35789  37.356  11.621  13.955
76529NA+    NA+35790   0.425  36.952  11.388
76530NA+    NA+35791  28.953  29.435   2.318
76531NA+    NA+35792   7.886  25.653  13.859
76532NA+    NA+35793  24.078  19.718  12.032
76533NA+    NA+35794   6.678  14.652   3.809
76534NA+    NA+35795  42.524  35.388  12.080
76535NA+    NA+35796  41.427  41.033  12.370
76536NA+    NA+35797  33.990  15.245  12.363
76537NA+    NA+35798  39.414  35.968   5.089
76538NA+    NA+35799  10.796  31.528   3.224
76539NA+    NA+35800  10.362  29.457   4.177
76540NA+    NA+35801  18.634  41.823  11.469
76541NA+    NA+35802  35.439  18.728  13.437
76542NA+    NA+35803   0.289  43.786   2.870
76543NA+    NA+35804   0.345  18.736   4.793
76544NA+    NA+35805   4.333  16.189  11.974
76545NA+    NA+35806  32.473  14.702   0.294
76546NA+    NA+35807  20.189  17.209   3.366
76547NA+    NA+35808   2.472  29.472   0.939
76548NA+    NA+35809   5.747  33.921   3.367
76549NA+    NA+35810  28.469   1.861  11.096
76550NA+    NA+35811   7.818  26.977  14.501
76551NA+    NA+35812  26.548  12.189   4.121
76552NA+    NA+35813  10.305  36.052  10.492
76553NA+    NA+35814  32.549   9.744  14.794
76554NA+    NA+35815  25.578   7.786   3.728
76555NA+    NA+35816   4.778  14.165   5.258
76556NA+    NA+35817  34.536   5.709   4.145
76557NA+    NA+35818  31.407   4.706   4.350
76558NA+    NA+35819  39.328  21.087  12.469
76559NA+    NA+35820  25.051   6.272   4.246
76560NA+    NA+35821  19.108  27.562  10.998
76561NA+    NA+35822  30.589  33.594  13.323
76562NA+    NA+35823  34.015  32.635  11.417
76563NA+    NA+35824  29.103   0.929  13.514
76564NA+    NA+35825  36.903   9.198   4.730
76565NA+    NA+35826   0.795  41.806   4.736
76566NA+    NA+35827   8.211  10.791   1.215
76567NA+    NA+35828  31.624   5.246  13.992
76568NA+    NA+35829  33.437  33.888  10.494
76569NA+    NA+35830  23.081  23.106  11.032
76570NA+    NA+35831   2.723  31.522  13.045
76571NA+    NA+35832  29.965  34.404   3.368
76572NA+    NA+35833   1.880  27.178  14.993
76573NA+    NA+35834  36.003  29.022   3.659
76574NA+    NA+35835   2.856  13.804  13.802
76575NA+    NA+35836  24.564  43.900   0.327
76576NA+    NA+35837  10.222  14.218   5.169
76577NA+    NA+35838  31.139  35.942   4.208
76578NA+    NA+35839   0.905   0.917   0.474
76579NA+    NA+35840   1.475  11.343   1.842
76580NA+    NA+35841   3.219   9.824  13.997
76581NA+    NA+35842  13.342  33.114  14.320
76582NA+    NA+35843   6.398  31.145   1.924
76583NA+    NA+35844   5.933  23.192   1.388
76584NA+    NA+35845  25.985  35.556   3.296
76585NA+    NA+35846   8.185  25.104   0.253
76586NA+    NA+35847   2.377  21.166   1.744
76587NA+    NA+35848  13.275  41.411  12.363
76588NA+    NA+35849  28.508  16.140   4.833
76589NA+    NA+35850  25.572  26.050  13.494
76590NA+    NA+35851  11.202   3.885   1.417
76591NA+    NA+35852  41.490  16.089   2.796
76592NA+    NA+35853  26.675   4.783   4.189
76593NA+    NA+35854  14.732   4.851  12.560
76594NA+    NA+35855   6.331  34.114  13.805
76595NA+    NA+35856  12.791  35.946  13.020
76596NA+    NA+35857  22.570  30.483  10.147
76597NA+    NA+35858  37.910  15.323  10.595
76598NA+    NA+35859  18.580  28.129   0.750
76599NA+    NA+35860  26.518  22.010   3.667
76600NA+    NA+35861  41.905   1.268   2.877
76601NA+    NA+35862  36.992   8.349   0.843
76602NA+    NA+35863  30.023  30.066   1.874
76603NA+    NA+35864  38.497  42.413   0.746
76604NA+    NA+35865  19.265   8.293  13.858
76605NA+    NA+35866  27.020   6.762  14.011
76606NA+    NA+35867  32.549   5.914  14.447
76607NA+    NA+35868  38.547   6.824  11.100
76608NA+    NA+35869  24.645  37.861   4.319
76609NA+    NA+35870  39.939  12.341   2.709
76610NA+    NA+35871  39.905  35.441   0.920
76611NA+    NA+35872  10.255  36.056   1.802
76612NA+    NA+35873  30.919  24.659   2.674
76613NA+    NA+35874   2.781  44.426  13.020
76614NA+    NA+35875  32.000  20.628   1.447
76615NA+    NA+35876  19.192  33.595  14.869
76616NA+    NA+35877  12.151  34.920   3.313
76617NA+    NA+35878  29.124  10.303   0.738
76618NA+    NA+35879   6.201  30.614   4.793
76619NA+    NA+35880  25.102  21.594  13.410
76620NA+    NA+35881  20.554  43.384   2.252
76621NA+    NA+35882  32.121  14.672   0.919
76622NA+    NA+35883  13.156  39.024   9.924
76623NA+    NA+35884  18.691  23.129   4.285
76624NA+    NA+35885   1.819  33.415  13.928
76625NA+    NA+35886  37.361  20.060   5.240
76626NA+    NA+35887   1.784  12.809  13.435
76627NA+    NA+35888   4.315  16.795  12.847
76628NA+    NA+35889  39.833  38.571  11.861
76629NA+    NA+35890  42.418  37.577  10.414
76630NA+    NA+35891   2.912  11.178  14.858
76631NA+    NA+35892  33.524  19.264  14.440
76632NA+    NA+35893  32.454  31.092  10.980
76633NA+    NA+35894  32.392  35.600  10.435
76634NA+    NA+35895  44.895   3.727  14.953
76635NA+    NA+35896  33.484  11.304  12.883
76636NA+    NA+35897  18.198   8.380  14.452
76637NA+    NA+35898  22.996  40.955   1.353
76638NA+    NA+35899  25.675  27.155  11.886
76639NA+    NA+35900   2.323  41.397   2.183
76640NA+    NA+35901  16.663  38.963   2.179
76641NA+    NA+35902  23.606  12.220  10.902
76642NA+    NA+35903   3.826   5.194  14.463
76643NA+    NA+35904  32.908  11.820  12.969
76644NA+    NA+35905  34.886  40.453  12.348
76645NA+    NA+35906   5.772  14.588  10.499
76646NA+    NA+35907  26.524  18.288   2.403
76647NA+    NA+35908  24.004  29.124   0.806
76648NA+    NA+35909  40.484   4.262   1.767
76649NA+    NA+35910  22.636  33.422   5.087
76650NA+    NA+35911   2.244   2.812   3.150
76651NA+    NA+35912  34.603  35.923   1.282
76652NA+    NA+35913   9.824  31.997   3.671
76653NA+    NA+35914  32.101  15.241   1.732
76654NA+    NA+35915  26.207  18.225  11.454
76655NA+    NA+35916  44.990  23.079  12.528
76656NA+    NA+35917   4.741  15.822  10.967
76657NA+    NA+35918  43.436  27.602  13.499
76658NA+    NA+35919  20.646  19.247   2.290
76659NA+    NA+35920  39.341  18.267  10.919
76660NA+    NA+35921   4.304  23.618  12.449
76661NA+    NA+35922  40.370  40.352  10.960
76662NA+    NA+35923  31.508   3.243  13.934
76663NA+    NA+35924  22.654  14.280  13.312
76664NA+    NA+35925  24.046  10.641  11.435
76665NA+    NA+35926  37.074  11.822   0.737
76666NA+    NA+35927   8.697   2.344   1.245
76667NA+    NA+35928   7.326  36.051  10.629
76668NA+    NA+35929   4.705  31.586   3.854
76669NA+    NA+35930  12.771  19.092  11.537
76670NA+    NA+35931  32.403  41.299  13.032
76671NA+    NA+35932   3.860  16.742   4.260
76672NA+    NA+35933  26.466   7.233  12.360
76673NA+    NA+35934   0.288  15.224   1.303
76674NA+    NA+35935  26.697  23.624   3.164
76675NA+    NA+35936  21.566   6.237   1.900
76676NA+    NA+35937  22.708  41.998   2.296
76677NA+    NA+35938  26.472  38.495   3.794
76678NA+    NA+35939  15.596  38.823  11.945
76679NA+    NA+35940  25.183  40.311  11.964
76680NA+    NA+35941  44.944  30.419  14.912
76681NA+    NA+35942   8.282  29.112   1.865
76682NA+    NA+35943   1.370  31.952  13.540
76683NA+    NA+35944  36.922  26.570  10.091
76684NA+    NA+35945  16.141  26.468   3.350
76685NA+    NA+35946   2.767  22.103   4.834
76686NA+    NA+35947  37.947  22.130   0.870
76687NA+    NA+35948  22.059  44.872   1.774
76688NA+    NA+35949  26.621   5.232  11.522
76689NA+    NA+35950  30.644  40.879   9.656
76690NA+    NA+35951  10.376  36.019  14.348
76691NA+    NA+35952   0.435  22.517  11.430
76692NA+    NA+35953  25.021  32.965  10.457
76693NA+    NA+35954  24.035  32.621   4.304
76694NA+    NA+35955  16.178  17.648  11.895
76695NA+    NA+35956  30.651  42.927   2.253
76696NA+    NA+35957  43.300  33.039  10.597
76697NA+    NA+35958   5.834   8.888   3.849
76698NA+    NA+35959  44.496   1.457  10.416
76699NA+    NA+35960  31.447  34.490   1.745
76700NA+    NA+35961  21.694   6.331   3.304
76701NA+    NA+35962  29.453  40.322  11.373
76702NA+    NA+35963  15.739   6.249   2.683
76703NA+    NA+35964  19.125  15.596  11.525
76704NA+    NA+35965   5.703  34.572  11.511
76705NA+    NA+35966   7.879  15.097  10.923
76706NA+    NA+35967   3.834  35.086  10.431
76707NA+    NA+35968  16.590  42.988  12.443
76708NA+    NA+35969  11.756  20.082  11.385
76709NA+    NA+35970  40.485  38.848  11.433
76710NA+    NA+35971  32.496  36.889  11.034
76711NA+    NA+35972   2.795  40.823   1.291
76712NA+    NA+35973  29.962  12.320   3.183
76713NA+    NA+35974  26.056  26.002   2.298
76714NA+    NA+35975  21.675  31.635   0.273
76715NA+    NA+35976  41.986  43.850   0.248
76716NA+    NA+35977  15.649  36.055  13.973
76717NA+    NA+35978  22.012   2.752   2.373
76718NA+    NA+35979  18.706  19.113   0.367
76719NA+    NA+35980  39.394  32.475  12.076
76720NA+    NA+35981  31.978  28.615  13.547
76721NA+    NA+35982  12.734   7.262  13.323
76722NA+    NA+35983  16.664  22.656  12.854
76723NA+    NA+35984  15.714  41.867   1.302
76724NA+    NA+35985  31.932  14.748   5.757
76725NA+    NA+35986  40.306  29.615   2.689
76726NA+    NA+35987  42.801  30.568  11.440
76727NA+    NA+35988  35.048  23.641  10.962
76728NA+    NA+35989  19.109  22.524   2.806
76729NA+    NA+35990  22.732  11.780  10.096
76730NA+    NA+35991  26.456  28.577  14.987
76731NA+    NA+35992  38.929   0.378  11.105
76732NA+    NA+35993  30.017  25.677  14.373
76733NA+    NA+35994  41.490  41.403   3.257
76734NA+    NA+35995  36.558  35.918   3.194
76735NA+    NA+35996   0.340  38.997  12.514
76736NA+    NA+35997  11.830   1.244   1.814
76737NA+    NA+35998   8.770  12.275   0.885
76738NA+    NA+35999  43.988   9.744  12.392
76739NA+    NA+36000   3.387  31.132  11.916
76740NA+    NA+36001  31.616  15.139  12.945
76741NA+    NA+36002   6.692  34.994  10.626
76742NA+    NA+36003  35.508  14.291  12.543
76743NA+    NA+36004  23.036   7.744   2.400
76744NA+    NA+36005  30.425   7.279  10.562
76745NA+    NA+36006  10.158   7.318  13.462
76746NA+    NA+36007  40.014  43.274  11.990
76747NA+    NA+36008  10.652   0.748   2.885
76748NA+    NA+36009   5.278  33.921   3.803
76749NA+    NA+36010  13.106  12.240  13.877
76750NA+    NA+36011  20.092  13.218   3.245
76751NA+    NA+36012  35.976  30.525  14.472
76752NA+    NA+36013  10.353  40.509   4.309
76753NA+    NA+36014  23.028   5.887   3.335
76754NA+    NA+36015  36.522  44.435   1.744
76755NA+    NA+36016  29.475  24.068   4.126
76756NA+    NA+36017  30.930  11.657  13.841
76757NA+    NA+36018   0.874  23.175   3.839
76758NA+    NA+36019   7.695  19.065   2.831
76759NA+    NA+36020  42.886  41.410  14.285
76760NA+    NA+36021  34.435  42.802   4.639
76761NA+    NA+36022  44.334   7.730   2.746
76762NA+    NA+36023  14.108  26.563  11.061
76763NA+    NA+36024  31.924   4.365   0.454
76764NA+    NA+36025  30.987  39.861   2.775
76765NA+    NA+36026   0.961  44.385   4.748
76766NA+    NA+36027  42.965  34.918   2.892
76767NA+    NA+36028   3.404   6.784   0.885
76768NA+    NA+36029   6.797   6.758   0.378
76769NA+    NA+36030  24.613   5.897   0.372
76770NA+    NA+36031  21.613  42.305  11.929
76771NA+    NA+36032   3.240  13.726  12.540
76772NA+    NA+36033  11.128  23.184   1.359
76773NA+    NA+36034  40.896  40.516  11.900
76774NA+    NA+36035  17.619  20.710  13.476
76775NA+    NA+36036  32.604  38.887  11.039
76776NA+    NA+36037  25.125  40.874   1.299
76777NA+    NA+36038  43.862  30.612   1.752
76778NA+    NA+36039   8.678  12.711   2.708
76779NA+    NA+36040  38.822   0.862   5.083
76780NA+    NA+36041  40.860  30.012  10.582
76781NA+    NA+36042  37.988  17.265   4.706
76782NA+    NA+36043  33.050   4.831  13.885
76783NA+    NA+36044  14.116   1.360   3.294
76784NA+    NA+36045   3.755   2.839   2.839
76785NA+    NA+36046  29.136  21.659   2.786
76786NA+    NA+36047  44.917  24.020   0.737
76787NA+    NA+36048  15.786  27.679   9.545
76788NA+    NA+36049  28.435   2.779  13.893
76789NA+    NA+36050  31.076  10.357  11.496
76790NA+    NA+36051  43.014  40.876   4.780
76791NA+    NA+36052   0.272  40.533   0.909
76792NA+    NA+36053  36.464   9.168  12.983
76793NA+    NA+36054  44.442   3.384  10.589
76794NA+    NA+36055  20.120  40.891  14.427
76795NA+    NA+36056  11.745   0.393  13.534
76796NA+    NA+36057  31.076   0.267  12.469
76797NA+    NA+36058  18.223  10.311  11.493
76798NA+    NA+36059  29.018   4.432   2.385
76799NA+    NA+36060  25.071   7.665  12.894
76800NA+    NA+36061  16.769  31.635  11.100
76801NA+    NA+36062  42.494  14.782   3.311
76802NA+    NA+36063  13.684  28.113  12.083
76803NA+    NA+36064  38.362   8.841  14.857
76804NA+    NA+36065  32.909   6.687   2.346
76805NA+    NA+36066  38.012  34.548   0.314
76806NA+    NA+36067   8.365  35.429  12.051
76807NA+    NA+36068  25.564  44.324   3.801
76808NA+    NA+36069  21.550  40.402   0.809
76809NA+    NA+36070  38.865  35.018   5.262
76810NA+    NA+36071  15.289  41.371  12.974
76811NA+    NA+36072   7.718  22.228   1.247
76812NA+    NA+36073  24.522  43.789  10.908
76813NA+    NA+36074   7.402  16.576   1.912
76814NA+    NA+36075  44.835   3.418  14.351
76815NA+    NA+36076  13.761  37.081  12.402
76816NA+    NA+36077  23.173  11.349   0.353
76817NA+    NA+36078  19.589  10.798   4.294
76818NA+    NA+36079  31.586  16.203  14.385
76819NA+    NA+36080   6.814  14.206  14.435
76820NA+    NA+36081  25.472  22.564  12.052
76821NA+    NA+36082  28.531   4.774   3.268
76822NA+    NA+36083   8.891  11.129   1.292
76823NA+    NA+36084  43.910  25.996   4.755
76824NA+    NA+36085  29.480   9.302   0.914
76825NA+    NA+36086   2.267  21.659   4.145
76826NA+    NA+36087  30.503  15.768   2.348
76827NA+    NA+36088  38.966  11.163  12.854
76828NA+    NA+36089  34.378  42.410   3.856
76829NA+    NA+36090  11.651  25.690  12.409
76830NA+    NA+36091  10.801  42.848  13.913
76831NA+    NA+36092  12.726   8.265   1.782
76832NA+    NA+36093  27.124   9.882  14.350
76833NA+    NA+36094  32.565  43.802  11.931
76834NA+    NA+36095  34.914  38.348  10.473
76835NA+    NA+36096  13.156  26.103  10.934
76836NA+    NA+36097  20.177  43.341   2.850
76837NA+    NA+36098  23.638  34.039   2.668
76838NA+    NA+36099  22.593  42.407  10.439
76839NA+    NA+36100  41.876  16.716   0.368
76840NA+    NA+36101  20.688  42.378  11.605
76841NA+    NA+36102   0.977  30.463  13.927
76842NA+    NA+36103  43.837  13.810   0.842
76843NA+    NA+36104  15.089  28.986  14.961
76844NA+    NA+36105  28.937   4.400  12.563
76845NA+    NA+36106  17.214   3.876  13.022
76846NA+    NA+36107  22.228  21.038   1.255
76847NA+    NA+36108  24.230   9.871  14.992
76848NA+    NA+36109  10.294  30.451  10.457
76849NA+    NA+36110  20.048  15.169  14.926
76850NA+    NA+36111  33.615  24.513  13.907
76851NA+    NA+36112  12.626  34.119   4.288
76852NA+    NA+36113  37.347  14.301   4.353
76853NA+    NA+36114  38.913  16.721  11.931
76854NA+    NA+36115  34.018  39.982   5.283
76855NA+    NA+36116  40.527  30.116   1.367
76856NA+    NA+36117  22.653  42.327  10.962
76857NA+    NA+36118  19.634   3.443   1.332
76858NA+    NA+36119  12.620  41.836  11.489
76859NA+    NA+36120   2.839  41.987   0.881
76860NA+    NA+36121  29.109  15.817   2.321
76861NA+    NA+36122  12.136   3.912   0.766
76862NA+    NA+36123  11.137  40.387  11.872
76863NA+    NA+36124  25.114  36.562   2.182
76864NA+    NA+36125   4.311  34.064   4.132
76865NA+    NA+36126   7.348  10.831   4.182
76866NA+    NA+36127  20.232  36.457  12.834
76867NA+    NA+36128  15.660  19.611  11.076
76868NA+    NA+36129  34.053  23.138   0.466
76869NA+    NA+36130  28.591  13.319  11.429
76870NA+    NA+36131  33.614  36.566   3.224
76871NA+    NA+36132  39.442  25.534  12.013
76872NA+    NA+36133  35.526   2.422   3.695
76873NA+    NA+36134  28.157  44.308   3.794
76874NA+    NA+36135  13.288  16.646  14.780
76875NA+    NA+36136  38.543  33.101  11.568
76876NA+    NA+36137   9.152  10.326  12.954
76877NA+    NA+36138  35.011   7.208   2.364
76878NA+    NA+36139  22.585  14.802   3.211
76879NA+    NA+36140   9.351  14.709  13.438
76880NA+    NA+36141  28.069  16.720   3.368
76881NA+    NA+36142  35.449  23.145   1.870
76882NA+    NA+36143  42.432  32.467   1.888
76883NA+    NA+36144  30.081   5.883  14.490
76884NA+    NA+36145  41.330   9.176   0.364
76885NA+    NA+36146  21.748  24.611   1.901
76886NA+    NA+36147   8.779  41.926  14.778
76887NA+    NA+36148  21.041  27.602  10.917
76888NA+    NA+36149   8.876  40.870  10.643
76889NA+    NA+36150  18.559  13.735  13.392
76890NA+    NA+36151  25.569  17.268   3.696
76891NA+    NA+36152  37.368  43.856  12.980
76892NA+    NA+36153   8.244  35.590   2.330
76893NA+    NA+36154  25.668   9.872  11.985
76894NA+    NA+36155  43.820  40.015  12.366
76895NA+    NA+36156  42.281  32.440  11.457
76896NA+    NA+36157  36.562  39.919  12.093
76897NA+    NA+36158  36.035  39.936   4.123
76898NA+    NA+36159  13.253  27.128   2.201
76899NA+    NA+36160  36.073   3.252  12.553
76900NA+    NA+36161   7.830   8.201  14.284
76901NA+    NA+36162  20.162  25.152   5.301
76902NA+    NA+36163  15.293  38.840  12.498
76903NA+    NA+36164  31.463   1.360  11.006
76904NA+    NA+36165  20.653  27.689   1.753
76905NA+    NA+36166  34.947  43.855   3.659
76906NA+    NA+36167  43.298  34.073   1.345
76907NA+    NA+36168  40.542  42.817  13.336
76908NA+    NA+36169  35.005  38.942  13.938
76909NA+    NA+36170  41.931   7.302   0.785
76910NA+    NA+36171  18.192  27.554  14.027
76911NA+    NA+36172   3.458  11.778  13.512
76912NA+    NA+36173  43.973  10.382  10.529
76913NA+    NA+36174  14.780   9.269   0.276
76914NA+    NA+36175  24.624  23.551   5.180
76915NA+    NA+36176  24.164  21.544   3.798
76916NA+    NA+36177  20.172   9.828   1.287
76917NA+    NA+36178   0.350   2.441  14.978
76918NA+    NA+36179  40.427   3.913  12.380
76919NA+    NA+36180   0.382   5.387  14.410
76920NA+    NA+36181  38.551  23.152  11.487
76921NA+    NA+36182  31.014  10.743   0.800
76922NA+    NA+36183  39.866  18.294   3.773
76923NA+    NA+36184   6.231  37.854  12.362
76924NA+    NA+36185  23.552   9.880   1.379
76925NA+    NA+36186  42.354  32.618   3.766
76926NA+    NA+36187  22.541  27.121   1.232
76927NA+    NA+36188  21.702  13.735   3.153
76928NA+    NA+36189  34.558   2.899   4.791
76929NA+    NA+36190  12.235  25.191   2.296
76930NA+    NA+36191  25.119  40.452  15.000
76931NA+    NA+36192  33.407  29.984  13.059
76932NA+    NA+36193  24.999  17.710  11.606
76933NA+    NA+36194   6.372  33.557  13.359
76934NA+    NA+36195   2.756  30.612  13.477
76935NA+    NA+36196  16.751   7.769  12.858
76936NA+    NA+36197  34.451  22.734  12.482
76937NA+    NA+36198  41.334  24.650   0.812
76938NA+    NA+36199  24.595  25.503   0.809
76939NA+    NA+36200  37.398  30.134   2.901
76940NA+    NA+36201  42.858  18.066   0.738
76941NA+    NA+36202  42.818   9.174   3.782
76942NA+    NA+36203   1.751  43.861  14.026
76943NA+    NA+36204  13.128  26.531  13.383
76944NA+    NA+36205   9.857  30.615  11.115
76945NA+    NA+36206  16.139   0.404  11.392
76946NA+    NA+36207   4.871  10.355   4.792
76947NA+    NA+36208  22.107  37.900  11.941
76948NA+    NA+36209   6.359   5.223  10.907
76949NA+    NA+36210  26.953   2.256  14.435
76950NA+    NA+36211   9.363  38.881   1.926
76951NA+    NA+36212   5.220  41.376   1.276
76952NA+    NA+36213  25.594  17.151  13.449
76953NA+    NA+36214  40.980  24.194  13.491
76954NA+    NA+36215  44.425  30.467   3.856
76955NA+    NA+36216  32.559   2.841   2.708
76956NA+    NA+36217   3.904  36.396   2.241
76957NA+    NA+36218  10.705  41.342  14.876
76958NA+    NA+36219  30.561  11.326  14.789
76959NA+    NA+36220   5.355   2.471   2.223
76960NA+    NA+36221  40.920   1.357   0.416
76961NA+    NA+36222  32.546  40.307   1.924
76962NA+    NA+36223  10.174  24.989   3.780
76963NA+    NA+36224  25.993  19.557  14.282
76964NA+    NA+36225  23.038  37.406  14.905
76965NA+    NA+36226  20.538   8.397  14.009
76966NA+    NA+36227  11.243  34.482   1.351
76967NA+    NA+36228  28.041  12.681   3.247
76968NA+    NA+36229  12.119  31.103   0.733
76969NA+    NA+36230  27.996  42.985  13.459
76970NA+    NA+36231  12.798  18.293   1.383
76971NA+    NA+36232  32.105  25.155   4.736
76972NA+    NA+36233   4.738   7.281   4.148
76973NA+    NA+36234  27.035  15.171  11.856
76974NA+    NA+36235  30.478  42.476  11.121
76975NA+    NA+36236  19.586  17.651  11.553
76976NA+    NA+36237   4.859  19.203   4.235
76977NA+    NA+36238   5.260   9.160   2.838
76978NA+    NA+36239   0.967   9.255   0.389
76979NA+    NA+36240  22.034  34.033  12.949
76980NA+    NA+36241  35.455  15.285   2.815
76981NA+    NA+36242  20.249  37.462   9.998
76982NA+    NA+36243  26.464  40.412  12.924
76983NA+    NA+36244  10.377  19.572  10.482
76984NA+    NA+36245  32.105  20.568   4.254
76985NA+    NA+36246  41.996   3.293   2.254
76986NA+    NA+36247   3.921  30.508   2.375
76987NA+    NA+36248  14.820  30.999   4.211
76988NA+    NA+36249  26.675  14.636   2.248
76989NA+    NA+36250  16.216   4.331  13.002
76990NA+    NA+36251  33.473  13.799   0.830
76991NA+    NA+36252  19.049  25.601  14.915
76992NA+    NA+36253  42.997  11.319   4.829
76993NA+    NA+36254   9.851  38.029   3.853
76994NA+    NA+36255  35.039  29.010  11.009
76995NA+    NA+36256  22.045  24.535   5.160
76996NA+    NA+36257  22.122  10.323   3.356
76997NA+    NA+36258   1.763   6.738  12.039
76998NA+    NA+36259   6.902  28.038   0.269
76999NA+    NA+36260  36.412   3.247  11.856
77000NA+    NA+36261   5.228   4.411  14.870
77001NA+    NA+36262  43.961  44.978   2.415
77002NA+    NA+36263  16.275  13.268  14.380
77003NA+    NA+36264  28.010   7.813  12.343
77004NA+    NA+36265  29.556  19.110   0.729
77005NA+    NA+36266  24.116   9.149  10.964
77006NA+    NA+36267   4.925  22.211   4.298
77007NA+    NA+36268   0.404  42.403  13.502
77008NA+    NA+36269   7.908  31.097   1.792
77009NA+    NA+36270  43.491  38.063  10.534
77010NA+    NA+36271  31.559  32.405  11.565
77011NA+    NA+36272   6.739  34.884  14.990
77012NA+    NA+36273  27.520  10.272  12.482
77013NA+    NA+36274  24.601   8.168   3.370
77014NA+    NA+36275   0.873  13.803  12.514
77015NA+    NA+36276  39.426  22.532   2.306
77016NA+    NA+36277  21.051  18.625  10.598
77017NA+    NA+36278   9.887  34.473   2.239
77018NA+    NA+36279  21.706  30.458   0.301
77019NA+    NA+36280  36.448  33.093   3.321
77020NA+    NA+36281  38.885  38.839  11.438
77021NA+    NA+36282  24.706  21.174  13.034
77022NA+    NA+36283  42.990  34.091   3.669
77023NA+    NA+36284  23.518  36.412  13.445
77024NA+    NA+36285   2.268  23.084  12.426
77025NA+    NA+36286   8.659  41.043   0.805
77026NA+    NA+36287  27.149   0.781  10.028
77027NA+    NA+36288  43.275  33.604  10.473
77028NA+    NA+36289  42.951  11.794   1.932
77029NA+    NA+36290  21.694  40.410   1.232
77030NA+    NA+36291  42.375  15.285   0.826
77031NA+    NA+36292   0.321  34.033   4.807
77032NA+    NA+36293  28.090  34.575   1.856
77033NA+    NA+36294  13.230  24.524   4.773
77034NA+    NA+36295  19.646  38.397  11.010
77035NA+    NA+36296  24.017  10.325   2.414
77036NA+    NA+36297  30.039   0.492   2.898
77037NA+    NA+36298  42.015  19.066   2.694
77038NA+    NA+36299  26.625   3.797  13.538
77039NA+    NA+36300   2.449  34.009  12.084
77040NA+    NA+36301  29.085  40.815   2.184
77041NA+    NA+36302  15.764  13.814  14.285
77042NA+    NA+36303   2.850  31.577   4.177
77043NA+    NA+36304  14.332  36.946   1.277
77044NA+    NA+36305  36.574  23.167  13.842
77045NA+    NA+36306  25.010  20.128   2.901
77046NA+    NA+36307   9.846  22.079   2.367
77047NA+    NA+36308  41.928   8.318  10.521
77048NA+    NA+36309  24.633  38.938  13.861
77049NA+    NA+36310  36.082  12.802  14.283
77050NA+    NA+36311  42.312  37.846   1.312
77051NA+    NA+36312   1.364  22.735  11.044
77052NA+    NA+36313  27.143  19.044  13.461
77053NA+    NA+36314  12.799  15.643  13.522
77054NA+    NA+36315  35.408  29.429  10.519
77055NA+    NA+36316  29.000  43.404  11.498
77056NA+    NA+36317  40.441  29.582   3.305
77057NA+    NA+36318  29.574  37.830  11.019
77058NA+    NA+36319  22.213  38.561   3.726
77059NA+    NA+36320   3.285  34.535   4.134
77060NA+    NA+36321   8.741  17.250  12.883
77061NA+    NA+36322  44.498  18.193   0.326
77062NA+    NA+36323  19.197  32.482  13.022
77063NA+    NA+36324   6.428  43.917   3.825
77064NA+    NA+36325  28.951  39.829   4.248
77065NA+    NA+36326  21.169  20.526  11.406
77066NA+    NA+36327   0.369  33.585   2.293
77067NA+    NA+36328   3.291   6.891   1.247
77068NA+    NA+36329  26.611  26.599  10.429
77069NA+    NA+36330   7.765  16.198  13.920
77070NA+    NA+36331  37.026  11.235  11.491
77071NA+    NA+36332  31.146  42.455  10.562
77072NA+    NA+36333  38.437  37.453  11.560
77073NA+    NA+36334  10.299  10.727  11.395
77074NA+    NA+36335  17.252   5.258  12.541
77075NA+    NA+36336  44.792  32.953  14.344
77076NA+    NA+36337   6.280  28.993   0.352
77077NA+    NA+36338  30.115  19.580  12.949
77078NA+    NA+36339  20.069  15.197   4.838
77079NA+    NA+36340  34.911  28.116   2.354
77080NA+    NA+36341  42.488  36.069   4.129
77081NA+    NA+36342  38.841  39.009  14.435
77082NA+    NA+36343  26.684  26.676   2.900
77083NA+    NA+36344   6.835  30.116  10.901
77084NA+    NA+36345  34.119  36.436   0.935
77085NA+    NA+36346   9.299  32.990  10.575
77086NA+    NA+36347  39.452  10.362   3.663
77087NA+    NA+36348  22.068   1.356   0.840
77088NA+    NA+36349  31.062  27.033   4.635
77089NA+    NA+36350   9.304  26.493  12.407
77090NA+    NA+36351   2.958  40.963   0.734
77091NA+    NA+36352  41.303  22.014  14.294
77092NA+    NA+36353  31.557  21.672  14.380
77093NA+    NA+36354   0.906  35.077   2.239
77094NA+    NA+36355  44.467  13.715   2.765
77095NA+    NA+36356  25.178  37.073   4.204
77096NA+    NA+36357  22.537  28.977  10.981
77097NA+    NA+36358  43.419  32.957   2.846
77098NA+    NA+36359  42.021  27.560  12.369
77099NA+    NA+36360  31.989  43.788  14.810
77100NA+    NA+36361  28.464  25.182   1.900
77101NA+    NA+36362  18.582  10.299   3.680
77102NA+    NA+36363   7.715  31.452   4.628
77103NA+    NA+36364  33.979  22.747  13.541
77104NA+    NA+36365  22.581  26.952  14.320
77105NA+    NA+36366  12.688  31.630  12.014
77106NA+    NA+36367  37.469   9.271  14.870
77107NA+    NA+36368  18.722  37.984   1.337
77108NA+    NA+36369  12.662  37.891  13.503
77109NA+    NA+36370   7.910   9.374   5.300
77110NA+    NA+36371   7.355  29.547  14.833
77111NA+    NA+36372   7.364   4.718  14.500
77112NA+    NA+36373  24.217  23.532  11.436
77113NA+    NA+36374   0.312  26.472   0.428
77114NA+    NA+36375   9.731   2.460   2.843
77115NA+    NA+36376  30.095  40.543   0.385
77116NA+    NA+36377  23.611   4.277  12.517
77117NA+    NA+36378  26.156  22.211   2.861
77118NA+    NA+36379  17.567  21.156   1.859
77119NA+    NA+36380  11.759  12.761   1.213
77120NA+    NA+36381  44.860   2.260   3.262
77121NA+    NA+36382   7.201  10.829   2.787
77122NA+    NA+36383  36.498  30.951  14.345
77123NA+    NA+36384   3.405   2.465   3.380
77124NA+    NA+36385  10.191  30.525  14.834
77125NA+    NA+36386  28.649  26.459  12.972
77126NA+    NA+36387  18.684  20.635  12.409
77127NA+    NA+36388  32.559   6.842   2.233
77128NA+    NA+36389  37.981  18.612   4.309
77129NA+    NA+36390   9.308  20.736   3.145
77130NA+    NA+36391  39.517  18.260   3.154
77131NA+    NA+36392  30.986  26.570   4.141
77132NA+    NA+36393  28.601  28.969   0.365
77133NA+    NA+36394  34.470  22.592  13.012
77134NA+    NA+36395  27.585  36.435  11.422
77135NA+    NA+36396  29.145  22.140   1.260
77136NA+    NA+36397  36.527  24.025   2.737
77137NA+    NA+36398  17.709   5.427   3.660
77138NA+    NA+36399  25.669  10.641   3.827
77139NA+    NA+36400  15.185  12.325  10.892
77140NA+    NA+36401  37.068  12.764  14.950
77141NA+    NA+36402   3.712  30.565  13.861
77142NA+    NA+36403   4.237  19.549   2.738
77143NA+    NA+36404  18.143  23.647   0.305
77144NA+    NA+36405  31.643  20.588   4.662
77145NA+    NA+36406  42.917  10.694   4.687
77146NA+    NA+36407   2.283  43.006   4.777
77147NA+    NA+36408  37.946  43.880  11.509
77148NA+    NA+36409  43.823  38.400   0.330
77149NA+    NA+36410   9.367  15.703   2.876
77150NA+    NA+36411  32.005  19.541  10.473
77151NA+    NA+36412  30.000   8.736  14.471
77152NA+    NA+36413   1.250  23.226  12.837
77153NA+    NA+36414   7.320   4.331   4.606
77154NA+    NA+36415  40.456   8.177  14.511
77155NA+    NA+36416  22.509  10.713  12.397
77156NA+    NA+36417  23.604  21.664   2.273
77157NA+    NA+36418   9.871   4.756  13.356
77158NA+    NA+36419   5.399   9.863  14.999
77159NA+    NA+36420   6.768   3.803   1.227
77160NA+    NA+36421  40.376  24.076   3.325
77161NA+    NA+36422  21.259  34.905   3.797
77162NA+    NA+36423  13.774  42.958   2.799
77163NA+    NA+36424  25.077  10.672   4.631
77164NA+    NA+36425  36.379  29.425   4.273
77165NA+    NA+36426  21.182  25.648   3.150
77166NA+    NA+36427  14.296  15.824  11.416
77167NA+    NA+36428  40.985  41.864   1.407
77168NA+    NA+36429  34.971  20.560   1.236
77169NA+    NA+36430  39.399  14.719   0.824
77170NA+    NA+36431   5.806   4.721  11.529
77171NA+    NA+36432  26.537   3.255  10.638
77172NA+    NA+36433  43.356  28.967   0.359
77173NA+    NA+36434  40.879  24.719  14.822
77174NA+    NA+36435   1.908  30.030   2.307
77175NA+    NA+36436   2.821   4.275  11.990
77176NA+    NA+36437  27.108  41.306  11.001
77177NA+    NA+36438  41.001  14.208  11.122
77178NA+    NA+36439  29.045  39.961   0.824
77179NA+    NA+36440  43.990  10.352   3.264
77180NA+    NA+36441  10.381  37.068  12.844
77181NA+    NA+36442  32.463  19.229   0.461
77182NA+    NA+36443   1.449  25.078  13.978
77183NA+    NA+36444  23.121  41.507   1.822
77184NA+    NA+36445  28.603   5.278   0.320
77185NA+    NA+36446  42.883  35.550  11.121
77186NA+    NA+36447  11.243  39.817  13.979
77187NA+    NA+36448  28.023  32.082   1.302
77188NA+    NA+36449   8.185  24.025  11.509
77189NA+    NA+36450   8.694  27.192   4.261
77190NA+    NA+36451  22.106  16.604   1.735
77191NA+    NA+36452  33.096  44.976  13.006
77192NA+    NA+36453  32.456  10.372   1.842
77193NA+    NA+36454  13.712   5.921   2.775
77194NA+    NA+36455  42.934  16.112  13.346
77195NA+    NA+36456  32.421  27.540  10.631
77196NA+    NA+36457  16.146  38.938   4.253
77197NA+    NA+36458  36.535  27.495  14.445
77198NA+    NA+36459  21.561   7.771   1.756
77199NA+    NA+36460  25.115  38.005  14.904
77200NA+    NA+36461  41.956  27.084   1.720
77201NA+    NA+36462   8.734  42.311  13.383
77202NA+    NA+36463  28.640  24.479  12.858
77203NA+    NA+36464  27.627  29.060   0.422
77204NA+    NA+36465  38.969  26.092  11.505
77205NA+    NA+36466  13.654   1.348  11.591
77206NA+    NA+36467  39.975  10.799  12.464
77207NA+    NA+36468   4.450  14.218  12.845
77208NA+    NA+36469  37.517  12.333   4.696
77209NA+    NA+36470  26.206  25.071   0.809
77210NA+    NA+36471  24.038   5.239   3.699
77211NA+    NA+36472  27.974  17.158  11.124
77212NA+    NA+36473  16.257  39.514  11.514
77213NA+    NA+36474  19.728   4.313  12.550
77214NA+    NA+36475  13.676  15.748   0.934
77215NA+    NA+36476  35.891   7.857   4.612
77216NA+    NA+36477  22.674  22.212  14.772
77217NA+    NA+36478  12.345  26.597   4.745
77218NA+    NA+36479   0.254  36.583   2.406
77219NA+    NA+36480  26.995  43.774  13.417
77220NA+    NA+36481  44.860  19.113  12.073
77221NA+    NA+36482  28.107   0.755  13.805
77222NA+    NA+36483   7.807  10.768   2.271
77223NA+    NA+36484  27.953  44.413   3.367
77224NA+    NA+36485   1.360  44.325  11.968
77225NA+    NA+36486  17.259   5.218   1.875
77226NA+    NA+36487   0.798  39.384   4.252
77227NA+    NA+36488   9.717  15.240  11.477
77228NA+    NA+36489  39.461   2.795  12.863
77229NA+    NA+36490   4.917  41.935  12.468
77230NA+    NA+36491  34.932   0.886   3.730
77231NA+    NA+36492  25.577  16.219  14.811
77232NA+    NA+36493   8.171  33.117   1.733
77233NA+    NA+36494  27.162  15.728   2.880
77234NA+    NA+36495  17.785  25.468   0.440
77235NA+    NA+36496  37.863  43.507   9.516
77236NA+    NA+36497  18.244  14.102  10.961
77237NA+    NA+36498  11.802   0.809   2.275
77238NA+    NA+36499  13.767  43.315  13.524
77239NA+    NA+36500  16.642  20.738   9.643
77240NA+    NA+36501  41.370   9.698   4.310
77241NA+    NA+36502  14.617  23.022  14.958
77242NA+    NA+36503  25.984  13.261  14.795
77243NA+    NA+36504  32.894  14.243   5.126
77244NA+    NA+36505  44.314  33.087   3.322
77245NA+    NA+36506  17.183  35.549  13.870
77246NA+    NA+36507  15.706   8.378  14.932
77247NA+    NA+36508  24.117  25.540   0.880
77248NA+    NA+36509  15.747  14.801  13.936
77249NA+    NA+36510  19.755  37.356   3.162
77250NA+    NA+36511  28.666   0.792   2.419
77251NA+    NA+36512  22.533  26.161  12.846
77252NA+    NA+36513   7.899   0.414   1.398
77253NA+    NA+36514  20.248  36.983  10.926
77254NA+    NA+36515  43.463  37.066   2.785
77255NA+    NA+36516  22.633  21.559   1.922
77256NA+    NA+36517  38.069  12.200   4.755
77257NA+    NA+36518  18.265  25.049   2.873
77258NA+    NA+36519  15.135  22.742   4.189
77259NA+    NA+36520  39.318  33.073   1.776
77260NA+    NA+36521  31.028  36.473   4.721
77261NA+    NA+36522  35.931  30.104   2.732
77262NA+    NA+36523  22.239  17.152  14.479
77263NA+    NA+36524  43.509  18.134  10.936
77264NA+    NA+36525  22.172  43.899   0.329
77265NA+    NA+36526  34.423  36.855   4.667
77266NA+    NA+36527   0.830  29.983  13.935
77267NA+    NA+36528  42.381  24.109   4.635
77268NA+    NA+36529  12.354  42.903   2.744
77269NA+    NA+36530  13.718  27.112  13.870
77270NA+    NA+36531   7.686   7.233   3.846
77271NA+    NA+36532  37.853  33.092   3.254
77272NA+    NA+36533  10.152  33.921  10.603
77273NA+    NA+36534  30.492  19.640   1.828
77274NA+    NA+36535  38.541  23.995   2.768
77275NA+    NA+36536  44.853  16.162   2.895
77276NA+    NA+36537  12.837  30.959  11.027
77277NA+    NA+36538   5.762  27.511   2.251
77278NA+    NA+36539  14.247  43.015  11.575
77279NA+    NA+36540  11.255  32.090  14.892
77280NA+    NA+36541  39.356  31.084   0.930
77281NA+    NA+36542  28.973  27.561  11.525
77282NA+    NA+36543  28.602  29.149   1.342
77283NA+    NA+36544  26.481  25.571   0.361
77284NA+    NA+36545  21.068  28.504   0.745
77285NA+    NA+36546  36.055   7.280   0.793
77286NA+    NA+36547  19.269  10.699   0.758
77287NA+    NA+36548  37.839  38.819   0.794
77288NA+    NA+36549  30.600   5.261  12.377
77289NA+    NA+36550   1.777  33.066  10.894
77290NA+    NA+36551  32.502  22.149  11.426
77291NA+    NA+36552  31.985   0.399   0.388
77292NA+    NA+36553  17.611   8.209  10.626
77293NA+    NA+36554  39.527  33.475   3.174
77294NA+    NA+36555  28.675  30.448  12.006
77295NA+    NA+36556   5.217  44.446   3.338
77296NA+    NA+36557   9.237  20.221  13.476
77297NA+    NA+36558  44.941  32.418  12.526
77298NA+    NA+36559   1.412  35.027   1.709
77299NA+    NA+36560  20.588  23.521  12.032
77300NA+    NA+36561  11.258  32.492   3.765
77301NA+    NA+36562  33.574  20.547  13.339
77302NA+    NA+36563   9.324  16.206   4.640
77303NA+    NA+36564  20.245  15.635   3.171
77304NA+    NA+36565  31.432   4.448  12.867
77305NA+    NA+36566  39.501  21.044  12.010
77306NA+    NA+36567   6.368  29.472   0.387
77307NA+    NA+36568   6.899  30.653  13.400
77308NA+    NA+36569  15.656  35.035  12.554
77309NA+    NA+36570  28.056   5.255  14.914
77310NA+    NA+36571  30.450  42.400   1.369
77311NA+    NA+36572  42.290  20.235  10.926
77312NA+    NA+36573  39.034  40.434   3.253
77313NA+    NA+36574  31.099  32.925  13.879
77314NA+    NA+36575  27.494  35.972  11.545
77315NA+    NA+36576  41.329   0.890   0.909
77316NA+    NA+36577   8.853  24.187  14.355
77317NA+    NA+36578  33.977  19.606  11.481
77318NA+    NA+36579  11.859  25.645  14.386
77319NA+    NA+36580  41.042  26.147   0.840
77320NA+    NA+36581  11.326  32.537  11.389
77321NA+    NA+36582  17.763   6.347   2.250
77322NA+    NA+36583  41.421  28.089  11.441
77323NA+    NA+36584  30.625  27.580  11.931
77324NA+    NA+36585   6.680  22.593  11.931
77325NA+    NA+36586  15.256   9.874  11.019
77326NA+    NA+36587  25.484  22.192   3.350
77327NA+    NA+36588   4.835   3.902   2.281
77328NA+    NA+36589  22.041  19.552  12.988
77329NA+    NA+36590  39.470   1.364  13.450
77330NA+    NA+36591  34.997   3.954   4.269
77331NA+    NA+36592  35.473  32.923  14.023
77332NA+    NA+36593  16.170   2.275   1.698
77333NA+    NA+36594  11.279  39.384  10.610
77334NA+    NA+36595  43.417  27.570  10.910
77335NA+    NA+36596   4.262   7.404   0.426
77336NA+    NA+36597  34.604  41.407   1.360
77337NA+    NA+36598  39.407  33.406  13.518
77338NA+    NA+36599  40.438  16.722   0.427
77339NA+    NA+36600  10.776  34.087   1.385
77340NA+    NA+36601   2.418  25.611   4.824
77341NA+    NA+36602  35.021  10.815   0.323
77342NA+    NA+36603  25.126  29.940  13.029
77343NA+    NA+36604  40.024  20.201   0.904
77344NA+    NA+36605   8.186  21.020   1.789
77345NA+    NA+36606  16.642  37.370  14.897
77346NA+    NA+36607  15.697   1.964  12.933
77347NA+    NA+36608   6.267  17.285   2.416
77348NA+    NA+36609  28.096   9.776  13.450
77349NA+    NA+36610  43.374  28.541   1.914
77350NA+    NA+36611  12.134   3.884  11.404
77351NA+    NA+36612  11.187  40.385  10.627
77352NA+    NA+36613  42.878   6.716   3.759
77353NA+    NA+36614  40.988   8.168  13.308
77354NA+    NA+36615   2.359  37.012   3.309
77355NA+    NA+36616  28.985   9.875  12.977
77356NA+    NA+36617  13.792  39.844  13.379
77357NA+    NA+36618  24.551  40.319   0.471
77358NA+    NA+36619  28.455  38.036   2.726
77359NA+    NA+36620  31.108  24.017   3.169
77360NA+    NA+36621  13.196  11.680   2.359
77361NA+    NA+36622  15.292   1.803  10.557
77362NA+    NA+36623  14.693  24.003   1.701
77363NA+    NA+36624  11.760  43.490   9.942
77364NA+    NA+36625  10.800  34.943   1.401
77365NA+    NA+36626   6.750  31.053  12.571
77366NA+    NA+36627  32.068  42.398   1.876
77367NA+    NA+36628  43.304  28.646  14.278
77368NA+    NA+36629  26.029   7.886   2.764
77369NA+    NA+36630  13.618  19.721  11.115
77370NA+    NA+36631  18.239  20.173  14.370
77371NA+    NA+36632  27.625  18.681   4.229
77372NA+    NA+36633  14.782  27.965  12.012
77373NA+    NA+36634   7.755  33.035  13.971
77374NA+    NA+36635  15.254  36.939  13.917
77375NA+    NA+36636  14.773   0.859  12.073
77376NA+    NA+36637  32.453  14.165  12.986
77377NA+    NA+36638  38.550  43.422   1.376
77378NA+    NA+36639   8.679  22.202  12.534
77379NA+    NA+36640  30.148  23.087   0.310
77380NA+    NA+36641  39.358  13.128   1.267
77381NA+    NA+36642  15.140  27.015   2.764
77382NA+    NA+36643  14.161  18.293   0.395
77383NA+    NA+36644   7.878  35.517  13.061
77384NA+    NA+36645   9.212   3.421   1.233
77385NA+    NA+36646  15.701   6.347  13.517
77386NA+    NA+36647  26.536  33.535   3.753
77387NA+    NA+36648  15.663   0.485  12.464
77388NA+    NA+36649  32.408   3.298  12.463
77389NA+    NA+36650  17.662   1.970   2.360
77390NA+    NA+36651  15.183  35.911   1.274
77391NA+    NA+36652  10.189  41.984  14.958
77392NA+    NA+36653  15.762  44.316  13.315
77393NA+    NA+36654  18.115  42.875   3.727
77394NA+    NA+36655  30.490  26.653  10.601
77395NA+    NA+36656  33.087  25.143  13.862
77396NA+    NA+36657  33.459   9.827   4.233
77397NA+    NA+36658  35.037  38.013  12.533
77398NA+    NA+36659  22.132  41.032   2.772
77399NA+    NA+36660  44.414  26.498  13.823
77400NA+    NA+36661  27.609   9.644   3.211
77401NA+    NA+36662  14.766  39.854   2.182
77402NA+    NA+36663   0.873  10.841   0.874
77403NA+    NA+36664  18.691  17.708  12.851
77404NA+    NA+36665  29.454  10.731   3.176
77405NA+    NA+36666  16.608  33.106   0.937
77406NA+    NA+36667  37.083  18.280   1.388
77407NA+    NA+36668  34.394  17.566   4.352
77408NA+    NA+36669  20.702  12.833   0.836
77409NA+    NA+36670  24.106  37.971   1.813
77410NA+    NA+36671  22.724  31.576  12.352
77411NA+    NA+36672  26.121  35.500   2.235
77412NA+    NA+36673  33.921   6.260   4.723
77413NA+    NA+36674  31.991   9.779   4.752
77414NA+    NA+36675  36.956  27.522  13.498
77415NA+    NA+36676   2.960  25.017  12.837
77416NA+    NA+36677   5.398  20.537   3.240
77417NA+    NA+36678  39.897   0.964  11.439
77418NA+    NA+36679   4.423   1.328  11.108
77419NA+    NA+36680  27.055  35.577  12.939
77420NA+    NA+36681  14.238   8.252  10.618
77421NA+    NA+36682  19.088  41.488   2.899
77422NA+    NA+36683  43.354   3.809  11.862
77423NA+    NA+36684  30.956   1.331  14.899
77424NA+    NA+36685   4.396  13.698   4.199
77425NA+    NA+36686  14.338  39.962  12.833
77426NA+    NA+36687   8.758  22.162  10.515
77427NA+    NA+36688  44.855  22.142   2.700
77428NA+    NA+36689  15.188  20.274  13.322
77429NA+    NA+36690  16.741  32.417  11.376
77430NA+    NA+36691  22.038   4.903   2.195
77431NA+    NA+36692   6.243  12.310   2.799
77432NA+    NA+36693  44.502  28.526  14.396
77433NA+    NA+36694  34.501  13.826  10.959
77434NA+    NA+36695  33.486  26.627  14.505
77435NA+    NA+36696  22.572  36.946  10.631
77436NA+    NA+36697  26.545  41.896   4.683
77437NA+    NA+36698  40.950  16.137   4.315
77438NA+    NA+36699  20.161  35.501   0.418
77439NA+    NA+36700  19.708  44.347   2.255
77440NA+    NA+36701   2.404  34.117   0.867
77441NA+    NA+36702  43.940   7.768   1.720
77442NA+    NA+36703  31.500  20.161  12.421
77443NA+    NA+36704  42.835   8.743   3.331
77444NA+    NA+36705  35.854   1.894  13.333
77445NA+    NA+36706  17.570  17.704   9.948
77446NA+    NA+36707   4.929  41.415   0.924
77447NA+    NA+36708  29.173  23.530  14.513
77448NA+    NA+36709  12.147  40.900   0.729
77449NA+    NA+36710   9.785  41.397   4.336
77450NA+    NA+36711   2.364  27.670   2.706
77451NA+    NA+36712  37.442   1.959   1.748
77452NA+    NA+36713   0.924  18.276   1.238
77453NA+    NA+36714  18.590   2.909   0.930
77454NA+    NA+36715  28.982   5.868  14.953
77455NA+    NA+36716  10.731  35.546   1.392
77456NA+    NA+36717  19.161   8.206   1.913
77457NA+    NA+36718  15.586  15.739  10.521
77458NA+    NA+36719  11.687   1.778  13.309
77459NA+    NA+36720   4.783  21.687   3.698
77460NA+    NA+36721  41.421  39.327  13.803
77461NA+    NA+36722  22.745  10.276   9.924
77462NA+    NA+36723  39.488  39.496   5.234
77463NA+    NA+36724  22.633  20.600  14.015
77464NA+    NA+36725  39.431  20.624  11.592
77465NA+    NA+36726  36.587  15.306   2.262
77466NA+    NA+36727  21.254   0.433   4.347
77467NA+    NA+36728  39.425  31.039   3.262
77468NA+    NA+36729  10.772   1.747  12.823
77469NA+    NA+36730  39.903   9.722  11.927
77470NA+    NA+36731  31.918  40.518  14.853
77471NA+    NA+36732  27.591  24.057  12.057
77472NA+    NA+36733  19.713  15.717   2.728
77473NA+    NA+36734  41.017  38.391  13.379
77474NA+    NA+36735   1.266   8.220   2.402
77475NA+    NA+36736  14.823  11.346  11.521
77476NA+    NA+36737  31.104  40.534  10.417
77477NA+    NA+36738  41.532   6.263  14.372
77478NA+    NA+36739   8.835  27.532   1.411
77479NA+    NA+36740  44.937  20.250  13.323
77480NA+    NA+36741  30.518   8.757   3.278
77481NA+    NA+36742  35.495   6.214   2.201
77482NA+    NA+36743   5.692  44.004  10.479
77483NA+    NA+36744  22.646  12.812   4.124
77484NA+    NA+36745   3.373  34.564   2.376
77485NA+    NA+36746  43.958  12.731  12.051
77486NA+    NA+36747  24.527  20.649   1.726
77487NA+    NA+36748  35.583  11.745  11.533
77488NA+    NA+36749   2.892  12.178  10.982
77489NA+    NA+36750  36.455  12.841   2.228
77490NA+    NA+36751  11.658  35.060  10.478
77491NA+    NA+36752  17.614  24.091   2.202
77492NA+    NA+36753  23.161  44.350  11.881
77493NA+    NA+36754  10.233  24.087   0.483
77494NA+    NA+36755  18.581   3.231  14.975
77495NA+    NA+36756   8.766  13.707   4.809
77496NA+    NA+36757  43.817  42.889  14.492
77497NA+    NA+36758  10.669  23.080   3.796
77498NA+    NA+36759  38.863  13.710  12.932
77499NA+    NA+36760  32.519   9.676   2.780
77500NA+    NA+36761  39.820   2.228  14.858
77501NA+    NA+36762  38.024  43.021   3.861
77502NA+    NA+36763   8.667   9.829  11.410
77503NA+    NA+36764  16.773  33.420   2.410
77504NA+    NA+36765  27.685  33.118  10.131
77505NA+    NA+36766  13.316   8.659  12.973
77506NA+    NA+36767  16.250  22.742   2.894
77507NA+    NA+36768   1.962  16.646   3.645
77508NA+    NA+36769   5.402  37.394  11.985
77509NA+    NA+36770  31.122  25.668   0.775
77510NA+    NA+36771  36.061  35.100   4.736
77511NA+    NA+36772  24.724  18.239  14.825
77512NA+    NA+36773  20.108  24.196   5.741
77513NA+    NA+36774  28.448   3.736   3.756
77514NA+    NA+36775  31.478  25.630  10.563
77515NA+    NA+36776  16.719  44.367  13.511
77516NA+    NA+36777   5.765  22.221  14.515
77517NA+    NA+36778  32.101  11.238   0.404
77518NA+    NA+36779  40.943  14.773  11.557
77519NA+    NA+36780  27.049  15.276   1.313
77520NA+    NA+36781  11.301  38.482  12.025
77521NA+    NA+36782   2.471  25.633  12.903
77522NA+    NA+36783  37.947  28.078  13.058
77523NA+    NA+36784  22.641   6.780   3.241
77524NA+    NA+36785  40.483  15.600  14.993
77525NA+    NA+36786  41.925   6.694  14.966
77526NA+    NA+36787  14.110  31.535  14.467
77527NA+    NA+36788   2.359  42.945  13.865
77528NA+    NA+36789  12.780  26.563   0.245
77529NA+    NA+36790  15.188  15.149   4.630
77530NA+    NA+36791  42.372   2.280  11.512
77531NA+    NA+36792  34.443  19.218  13.310
77532NA+    NA+36793  37.508  25.147   0.931
77533NA+    NA+36794  14.619   2.404   1.320
77534NA+    NA+36795   2.356  12.726  13.367
77535NA+    NA+36796   8.865  35.012  11.877
77536NA+    NA+36797  30.539  26.474  13.489
77537NA+    NA+36798  24.704  10.785   1.346
77538NA+    NA+36799  20.164  33.070  11.095
77539NA+    NA+36800   4.793  13.304  13.985
77540NA+    NA+36801   5.833  25.702   3.829
77541NA+    NA+36802  42.391  31.542   0.388
77542NA+    NA+36803  20.672  33.498  14.417
77543NA+    NA+36804  34.079   8.749  11.531
77544NA+    NA+36805   5.742   6.249  11.570
77545NA+    NA+36806  43.408   2.291  14.844
77546NA+    NA+36807  26.113  16.099   2.245
77547NA+    NA+36808  21.667  21.158   4.241
77548NA+    NA+36809  24.657  10.675  10.441
77549NA+    NA+36810  26.957  26.619  12.828
77550NA+    NA+36811  17.184  14.248   2.738
77551NA+    NA+36812  22.638  42.490   3.778
77552NA+    NA+36813  40.047  31.130   3.675
77553NA+    NA+36814  41.928   0.770  11.972
77554NA+    NA+36815  22.574  15.174  14.434
77555NA+    NA+36816  38.887  14.678   2.222
77556NA+    NA+36817  42.924  29.535   2.306
77557NA+    NA+36818  15.098  19.170  10.949
77558NA+    NA+36819  32.468  44.995  12.496
77559NA+    NA+36820  23.017  39.356   4.665
77560NA+    NA+36821  20.093  16.602   0.284
77561NA+    NA+36822  34.110   5.228  14.350
77562NA+    NA+36823  39.399  43.272  10.578
77563NA+    NA+36824  18.669  21.139  14.864
77564NA+    NA+36825  25.976  34.866   2.328
77565NA+    NA+36826  16.608  15.662   5.308
77566NA+    NA+36827   0.771  18.178   4.716
77567NA+    NA+36828   4.814  10.246  10.963
77568NA+    NA+36829  36.877  31.513   3.340
77569NA+    NA+36830  23.228  10.638  13.926
77570NA+    NA+36831   2.906  30.427   0.880
77571NA+    NA+36832  27.631  29.439  10.981
77572NA+    NA+36833  21.207  41.325   4.268
77573NA+    NA+36834  14.680  10.853  11.962
77574NA+    NA+36835  19.614  31.908   4.162
77575NA+    NA+36836  32.462  42.863  13.312
77576NA+    NA+36837  20.146  30.425   4.221
77577NA+    NA+36838  38.989  13.769   0.466
77578NA+    NA+36839  24.996  42.379  11.988
77579NA+    NA+36840   9.871   0.443  12.054
77580NA+    NA+36841  12.317  35.871  14.334
77581NA+    NA+36842  39.943  18.772  11.388
77582NA+    NA+36843  16.659  16.732  12.011
77583NA+    NA+36844  38.834  29.580   1.299
77584NA+    NA+36845  27.535  15.628  14.780
77585NA+    NA+36846  26.019   3.936  14.361
77586NA+    NA+36847  15.179  43.395  13.978
77587NA+    NA+36848  39.058  26.162   2.356
77588NA+    NA+36849  11.224  31.506  13.504
77589NA+    NA+36850  30.062  42.286   2.873
77590NA+    NA+36851  16.805  29.606   5.109
77591NA+    NA+36852   4.851  30.557   2.251
77592NA+    NA+36853  14.735  31.646  11.066
77593NA+    NA+36854   0.300  37.038   2.795
77594NA+    NA+36855  25.983   6.679  12.380
77595NA+    NA+36856  17.170  12.692  12.942
77596NA+    NA+36857  26.139  14.169  10.522
77597NA+    NA+36858  34.055  43.512   5.665
77598NA+    NA+36859  31.044   3.307  12.950
77599NA+    NA+36860  23.657  12.774  13.013
77600NA+    NA+36861  43.910  13.716   2.758
77601NA+    NA+36862  37.035  36.523   3.655
77602NA+    NA+36863  43.958   8.897   4.338
77603NA+    NA+36864  34.038  44.296  14.797
77604NA+    NA+36865  14.741   4.308  12.907
77605NA+    NA+36866  44.859  20.234   4.646
77606NA+    NA+36867  43.821  26.047  13.546
77607NA+    NA+36868   2.957  25.642  11.545
77608NA+    NA+36869  10.140   4.228   3.754
77609NA+    NA+36870  31.647  44.331  12.986
77610NA+    NA+36871  42.887   1.845   1.263
77611NA+    NA+36872  22.643  28.531   2.356
77612NA+    NA+36873  18.742  17.649  12.571
77613NA+    NA+36874  12.777  24.512  12.932
77614NA+    NA+36875   9.214  32.561  11.402
77615NA+    NA+36876  23.640  33.998  12.402
77616NA+    NA+36877  32.081  37.023  12.956
77617NA+    NA+36878  36.428  21.702   0.803
77618NA+    NA+36879  30.969  35.536  14.402
77619NA+    NA+36880  44.797  34.377  11.923
77620NA+    NA+36881  44.993  10.336   1.759
77621NA+    NA+36882  39.956  41.376  14.373
77622NA+    NA+36883  23.203  31.070  12.063
77623NA+    NA+36884  18.053  11.729  13.516
77624NA+    NA+36885  18.611  29.485   4.632
77625NA+    NA+36886  33.415  21.575  14.447
77626NA+    NA+36887   3.758  30.027   0.953
77627NA+    NA+36888  32.101  20.143  11.414
77628NA+    NA+36889  30.077  10.755  13.000
77629NA+    NA+36890  35.032  35.506  13.032
77630NA+    NA+36891   3.397  38.888  11.536
77631NA+    NA+36892  30.936  44.878  11.425
77632NA+    NA+36893  10.806   0.397   1.867
77633NA+    NA+36894   7.845  32.885  11.073
77634NA+    NA+36895  24.672   6.762   0.953
77635NA+    NA+36896  42.932  22.662   0.812
77636NA+    NA+36897  23.579  18.284  11.025
77637NA+    NA+36898  24.564   3.279   2.308
77638NA+    NA+36899  27.051  18.663  11.586
77639NA+    NA+36900  20.074  11.755   1.438
77640NA+    NA+36901  37.017  40.016  11.022
77641NA+    NA+36902  40.874  29.117   1.254
77642NA+    NA+36903  43.300  12.623  14.768
77643NA+    NA+36904  10.316  22.085  13.930
77644NA+    NA+36905   8.668  27.127   3.746
77645NA+    NA+36906  19.752  37.508  10.582
77646NA+    NA+36907  10.290  34.100  13.361
77647NA+    NA+36908  36.379   0.256  14.922
77648NA+    NA+36909   7.677   3.885  12.554
77649NA+    NA+36910   7.381   9.842  14.982
77650NA+    NA+36911   4.337  20.094   4.657
77651NA+    NA+36912  18.210   0.880  11.129
77652NA+    NA+36913  18.057  16.130   1.358
77653NA+    NA+36914  34.917  16.629   2.709
77654NA+    NA+36915  30.914   8.861  14.809
77655NA+    NA+36916   2.366   3.928  14.950
77656NA+    NA+36917  25.202  21.157   1.750
77657NA+    NA+36918  12.825  21.065   0.455
77658NA+    NA+36919  24.222  20.697  11.118
77659NA+    NA+36920   1.376  14.593  13.432
77660NA+    NA+36921  31.899  40.429   5.094
77661NA+    NA+36922  12.185  29.608   0.247
77662NA+    NA+36923   9.251   6.335  13.018
77663NA+    NA+36924  17.303  36.940   0.382
77664NA+    NA+36925   7.904  42.865  12.877
77665NA+    NA+36926  31.132  44.453  14.874
77666NA+    NA+36927  11.630   0.439   3.347
77667NA+    NA+36928   5.913   3.439  14.912
77668NA+    NA+36929   6.199  38.469   4.115
77669NA+    NA+36930  34.973  37.837  14.341
77670NA+    NA+36931  24.591  32.493  11.106
77671NA+    NA+36932  40.451  11.343   3.286
77672NA+    NA+36933  16.105  34.494   1.719
77673NA+    NA+36934   3.265   9.165  12.049
77674NA+    NA+36935   9.720  42.924  12.557
77675NA+    NA+36936   3.735  43.312   1.783
77676NA+    NA+36937  33.972  40.376   4.676
77677NA+    NA+36938   3.913  42.465  10.634
77678NA+    NA+36939  25.579  31.638   1.931
77679NA+    NA+36940   3.778   9.291  13.794
77680NA+    NA+36941  35.383  21.018  14.889
77681NA+    NA+36942   3.759  17.727   1.315
77682NA+    NA+36943  12.161   8.318   2.339
77683NA+    NA+36944  41.953  16.238  10.909
77684NA+    NA+36945  39.985   9.836  10.999
77685NA+    NA+36946   6.230   0.924  10.449
77686NA+    NA+36947   6.731  28.619  13.054
77687NA+    NA+36948  26.965  11.733  11.392
77688NA+    NA+36949  12.615  41.370   4.304
77689NA+    NA+36950  29.953  43.428   0.865
77690NA+    NA+36951  42.007  43.815  14.389
77691NA+    NA+36952  24.642  12.333   1.295
77692NA+    NA+36953   4.840   4.396  12.386
77693NA+    NA+36954  40.896  37.405  12.387
77694NA+    NA+36955  18.784  17.248   2.395
77695NA+    NA+36956  14.151  31.103  11.894
77696NA+    NA+36957  19.223  13.676   0.738
77697NA+    NA+36958  37.391  15.599  11.005
77698NA+    NA+36959   5.703  16.292  10.948
77699NA+    NA+36960  24.019   5.345  13.986
77700NA+    NA+36961  41.812  29.472   5.277
77701NA+    NA+36962  41.427   1.407  11.607
77702NA+    NA+36963  41.870  44.295   2.413
77703NA+    NA+36964  30.477  34.867   2.834
77704NA+    NA+36965  39.515  30.131   3.229
77705NA+    NA+36966   7.377  10.705   3.210
77706NA+    NA+36967  28.950  22.110  14.301
77707NA+    NA+36968  13.755   3.772   1.318
77708NA+    NA+36969   7.781   2.912  14.784
77709NA+    NA+36970   1.332  18.169   3.242
77710NA+    NA+36971  33.493   5.232   3.704
77711NA+    NA+36972  10.657  16.750  13.510
77712NA+    NA+36973  36.535   4.367   0.404
77713NA+    NA+36974   0.398  29.575  10.545
77714NA+    NA+36975  40.874  37.042   4.245
77715NA+    NA+36976  19.165   9.766   4.180
77716NA+    NA+36977  12.159  28.609  13.414
77717NA+    NA+36978  21.565  41.537  13.361
77718NA+    NA+36979  32.082  23.582   2.200
77719NA+    NA+36980   5.339  38.902   3.351
77720NA+    NA+36981   3.954  16.662  14.798
77721NA+    NA+36982   8.243  33.018   2.686
77722NA+    NA+36983   6.725  41.301   4.160
77723NA+    NA+36984  41.940  26.701  11.032
77724NA+    NA+36985   1.360  39.490   2.246
77725NA+    NA+36986  32.472  19.159  10.633
77726NA+    NA+36987  27.025  13.108  11.536
77727NA+    NA+36988  33.519  33.926  12.952
77728NA+    NA+36989   0.925  40.920   2.837
77729NA+    NA+36990  35.875  33.033   1.895
77730NA+    NA+36991  17.104  44.881  10.975
77731NA+    NA+36992  32.960   5.284  10.936
77732NA+    NA+36993   0.359  44.864   2.202
77733NA+    NA+36994  28.966  27.153   4.264
77734NA+    NA+36995  20.256  21.547   0.865
77735NA+    NA+36996  14.293  26.514   4.281
77736NA+    NA+36997  34.527   3.919   2.345
77737NA+    NA+36998  24.695  12.686  12.923
77738NA+    NA+36999  15.595  15.091  12.473
77739NA+    NA+37000   3.327  38.854   0.963
77740NA+    NA+37001  38.350  18.688  13.043
77741NA+    NA+37002  43.406  35.862  14.511
77742NA+    NA+37003  21.070  43.398  12.086
77743NA+    NA+37004  32.508  23.000  14.851
77744NA+    NA+37005  31.535  17.306   3.146
77745NA+    NA+37006   8.869   9.812   0.809
77746NA+    NA+37007   7.798   1.936  13.816
77747NA+    NA+37008  11.629   4.387  13.996
77748NA+    NA+37009  27.496  29.498  11.932
77749NA+    NA+37010  25.985  38.512   0.245
77750NA+    NA+37011  38.852  10.347   0.768
77751NA+    NA+37012  29.089   1.960  12.046
77752NA+    NA+37013  25.691  14.166   0.401
77753NA+    NA+37014  20.603  20.568  14.432
77754NA+    NA+37015  12.758  20.080   4.788
77755NA+    NA+37016  20.592   3.233  14.848
77756NA+    NA+37017   8.400  28.473  14.957
77757NA+    NA+37018   7.368  41.005   2.667
77758NA+    NA+37019  32.393  10.253   2.857
77759NA+    NA+37020  39.813  20.125   2.828
77760NA+    NA+37021  39.360  38.009   3.155
77761NA+    NA+37022   2.798   9.254  11.061
77762NA+    NA+37023   5.326  37.468   2.221
77763NA+    NA+37024  37.470  19.079   4.303
77764NA+    NA+37025   1.970  20.706   2.362
77765NA+    NA+37026  14.725  23.650   0.789
77766NA+    NA+37027  39.010  17.779   1.345
77767NA+    NA+37028  18.720  21.566   0.740
77768NA+    NA+37029  14.612  13.261  14.335
77769NA+    NA+37030  31.907   5.193   2.262
77770NA+    NA+37031  12.693  36.584   4.228
77771NA+    NA+37032  10.168   4.235   2.874
77772NA+    NA+37033  15.089  11.648   2.351
77773NA+    NA+37034  31.609  23.573  13.041
77774NA+    NA+37035   8.721  28.070  12.005
77775NA+    NA+37036  33.904  10.822   3.177
77776NA+    NA+37037  26.981   0.482  12.380
77777NA+    NA+37038  10.323  20.220  13.457
77778NA+    NA+37039  10.223  38.555  12.368
77779NA+    NA+37040   0.466  43.860  14.354
77780NA+    NA+37041   9.829  18.119   0.443
77781NA+    NA+37042   7.673  22.075   0.425
77782NA+    NA+37043  39.981  17.239  12.061
77783NA+    NA+37044  43.818   6.821   4.154
77784NA+    NA+37045  35.535  21.247  14.427
77785NA+    NA+37046  34.928  23.713  13.487
77786NA+    NA+37047  18.710  40.324  11.526
77787NA+    NA+37048  24.996   0.755   2.762
77788NA+    NA+37049  39.878  23.538   1.343
77789NA+    NA+37050  18.167   2.938   0.841
77790NA+    NA+37051  10.761  20.058   1.722
77791NA+    NA+37052  16.117  16.115  14.481
77792NA+    NA+37053  25.058  17.703  14.442
77793NA+    NA+37054  12.340  36.066   2.768
77794NA+    NA+37055  36.903  44.831   2.249
77795NA+    NA+37056  35.868   5.285  14.786
77796NA+    NA+37057   6.837  17.787   3.158
77797NA+    NA+37058  36.877  21.049  13.811
77798NA+    NA+37059  43.309  34.564   1.383
77799NA+    NA+37060  29.453   2.932  12.895
77800NA+    NA+37061  16.172  25.661  12.487
77801NA+    NA+37062  19.180   5.876   2.787
77802NA+    NA+37063  12.349  38.053  11.860
77803NA+    NA+37064  11.666   7.213   2.237
77804NA+    NA+37065  23.601   6.679  11.468
77805NA+    NA+37066  42.015   8.389   3.784
77806NA+    NA+37067  37.012   3.225   1.242
77807NA+    NA+37068  39.937  20.534  11.567
77808NA+    NA+37069   7.255  20.149  12.887
77809NA+    NA+37070  42.914  13.600   1.713
77810NA+    NA+37071  18.760  10.723  11.883
77811NA+    NA+37072  39.341   9.176   2.785
77812NA+    NA+37073  19.627  40.908  12.847
77813NA+    NA+37074  37.550  21.734  12.528
77814NA+    NA+37075  25.052   7.246  11.450
77815NA+    NA+37076  18.142   4.234  13.982
77816NA+    NA+37077  16.115   5.299   4.717
77817NA+    NA+37078  22.021   4.771   4.181
77818NA+    NA+37079  11.654  27.144  14.833
77819NA+    NA+37080  40.544  28.083  11.560
77820NA+    NA+37081  38.440   2.880  14.324
77821NA+    NA+37082  30.942   9.391  13.345
77822NA+    NA+37083   8.752  44.912  12.066
77823NA+    NA+37084  17.614  40.329  14.293
77824NA+    NA+37085  11.623  29.124   5.210
77825NA+    NA+37086   7.716  16.258  13.030
77826NA+    NA+37087  11.234  21.734   0.866
77827NA+    NA+37088  36.538  25.008   1.390
77828NA+    NA+37089   6.850  28.132  12.886
77829NA+    NA+37090  18.291  33.621  11.929
77830NA+    NA+37091   8.266  44.770   2.759
77831NA+    NA+37092  23.091   5.780   1.704
77832NA+    NA+37093  16.172  15.126   4.727
77833NA+    NA+37094   9.780   7.404   4.231
77834NA+    NA+37095  43.379  22.553  11.119
77835NA+    NA+37096  18.686  32.916   4.632
77836NA+    NA+37097   5.868  40.305   2.329
77837NA+    NA+37098  22.693   9.376  11.956
77838NA+    NA+37099  23.736  11.867  10.479
77839NA+    NA+37100  24.481  22.595   5.236
77840NA+    NA+37101  18.658   3.820  12.825
77841NA+    NA+37102   2.394  41.362  12.981
77842NA+    NA+37103  44.316  41.504   1.240
77843NA+    NA+37104  24.522   4.316   2.746
77844NA+    NA+37105  29.626  13.657   1.286
77845NA+    NA+37106  38.910  12.763   3.790
77846NA+    NA+37107   3.945  39.489   0.857
77847NA+    NA+37108   2.740   7.348  13.020
77848NA+    NA+37109   1.800   5.234   1.744
77849NA+    NA+37110  39.424  37.834  13.501
77850NA+    NA+37111  28.111  38.397   1.929
77851NA+    NA+37112  32.527  16.700  14.341
77852NA+    NA+37113  42.456  28.130  11.468
77853NA+    NA+37114  12.300  33.503  13.324
77854NA+    NA+37115   0.350   0.336   1.343
77855NA+    NA+37116  44.375  34.469   1.419
77856NA+    NA+37117  21.582  22.525  14.950
77857NA+    NA+37118  26.631  35.391  14.877
77858NA+    NA+37119  36.027  41.844  12.489
77859NA+    NA+37120  16.091  18.764  14.335
77860NA+    NA+37121  34.032  41.356  12.421
77861NA+    NA+37122  31.901  44.835   5.095
77862NA+    NA+37123  23.009  39.541   0.775
77863NA+    NA+37124  29.634   8.362   3.663
77864NA+    NA+37125  16.605  19.542  11.546
77865NA+    NA+37126  30.924  40.820  13.330
77866NA+    NA+37127  32.444  15.751  13.402
77867NA+    NA+37128  10.152   0.260  11.448
77868NA+    NA+37129   2.720  17.783  11.054
77869NA+    NA+37130  44.339  38.846  14.396
77870NA+    NA+37131  29.479   8.715   2.751
77871NA+    NA+37132  29.601  38.903   1.271
77872NA+    NA+37133   5.265  32.133   4.609
77873NA+    NA+37134  26.081  41.913  11.901
77874NA+    NA+37135  18.684  43.772   4.709
77875NA+    NA+37136  25.203  43.366   4.194
77876NA+    NA+37137  28.099   9.748   4.198
77877NA+    NA+37138   3.350   4.840   1.719
77878NA+    NA+37139   4.730  31.604   0.762
77879NA+    NA+37140  35.489  40.950  11.583
77880NA+    NA+37141  37.888  27.030  12.569
77881NA+    NA+37142  18.078   6.879   2.733
77882NA+    NA+37143  13.341  40.478  11.037
77883NA+    NA+37144  29.045   1.888  14.984
77884NA+    NA+37145   0.883  11.692   4.203
77885NA+    NA+37146   1.422   1.378   4.655
77886NA+    NA+37147  32.953  24.168   1.308
77887NA+    NA+37148   3.304  15.611   3.859
77888NA+    NA+37149  21.674  36.392  13.441
77889NA+    NA+37150  26.113  35.038  13.470
77890NA+    NA+37151  18.201  15.620   0.742
77891NA+    NA+37152  16.717  16.736   4.739
77892NA+    NA+37153  14.702  31.098  11.444
77893NA+    NA+37154  31.937  32.060   5.104
77894NA+    NA+37155   7.776   9.781   4.624
77895NA+    NA+37156  13.644   4.278  14.943
77896NA+    NA+37157  30.943  29.115  11.400
77897NA+    NA+37158  30.961   3.456   4.734
77898NA+    NA+37159  12.808  15.767  12.473
77899NA+    NA+37160  18.168  20.741  12.580
77900NA+    NA+37161  36.880  43.851   1.220
77901NA+    NA+37162  22.160   4.220   1.733
77902NA+    NA+37163  18.582  26.129  10.949
77903NA+    NA+37164   5.733  16.652  13.847
77904NA+    NA+37165  21.056  44.410  11.014
77905NA+    NA+37166  30.508  35.904  13.479
77906NA+    NA+37167  22.671   2.404   9.981
77907NA+    NA+37168  28.490   4.761  14.450
77908NA+    NA+37169   3.756  25.026   2.893
77909NA+    NA+37170  40.006  29.659  13.975
77910NA+    NA+37171   3.770   2.884  11.044
77911NA+    NA+37172  33.566  43.772   2.210
77912NA+    NA+37173  33.094  11.277   2.414
77913NA+    NA+37174  18.151  34.051   4.243
77914NA+    NA+37175  20.676  42.822   0.939
77915NA+    NA+37176  12.215  13.283  12.552
77916NA+    NA+37177  15.115  39.988  12.468
77917NA+    NA+37178   0.481  19.141   2.328
77918NA+    NA+37179   3.760  16.304  13.524
77919NA+    NA+37180   7.890   1.953   5.087
77920NA+    NA+37181  20.172  41.426  11.883
77921NA+    NA+37182  39.397  21.584   1.791
77922NA+    NA+37183  17.104  25.163  11.940
77923NA+    NA+37184  24.058  27.466  14.411
77924NA+    NA+37185  37.405  18.200  10.160
77925NA+    NA+37186  25.654  14.100   4.810
77926NA+    NA+37187  40.383  27.961  13.404
77927NA+    NA+37188  32.942   6.300   3.837
77928NA+    NA+37189  43.441  31.566   3.341
77929NA+    NA+37190  37.365  44.008  14.949
77930NA+    NA+37191  11.247  25.129   5.127
77931NA+    NA+37192  34.561  16.172   0.302
77932NA+    NA+37193  35.478  35.012  11.939
77933NA+    NA+37194   0.474   5.713  13.522
77934NA+    NA+37195  34.099   5.196  12.075
77935NA+    NA+37196   0.449   8.372   0.270
77936NA+    NA+37197  28.122  13.691   4.683
77937NA+    NA+37198  35.031  41.836  12.028
77938NA+    NA+37199  12.199  25.512  13.415
77939NA+    NA+37200  12.280   1.445  10.973
77940NA+    NA+37201  44.005  35.089  13.866
77941NA+    NA+37202  29.135  28.962  12.380
77942NA+    NA+37203   5.771  36.561  13.968
77943NA+    NA+37204  32.030  29.528  13.984
77944NA+    NA+37205  40.452  43.847   3.303
77945NA+    NA+37206   0.757   6.714   2.365
77946NA+    NA+37207  36.435  26.130  13.847
77947NA+    NA+37208  44.466  18.123   2.679
77948NA+    NA+37209   1.388  35.492  12.075
77949NA+    NA+37210  12.147  44.805   4.601
77950NA+    NA+37211   0.767  40.870  14.772
77951NA+    NA+37212  27.555  21.135  14.966
77952NA+    NA+37213   6.239   3.383   0.921
77953NA+    NA+37214  43.810  41.988   1.432
77954CL-    CL-37215  32.506  10.738  14.977
77955CL-    CL-37216  22.247  15.193  13.019
77956CL-    CL-37217  31.960  28.579  12.386
77957CL-    CL-37218  12.278   8.355   3.821
77958CL-    CL-37219   5.835  44.425  11.058
77959CL-    CL-37220  43.298  17.304  12.910
77960CL-    CL-37221  18.276  26.667   4.281
77961CL-    CL-37222  15.749  22.566  14.923
77962CL-    CL-37223   6.884  11.668   0.939
77963CL-    CL-37224  32.573  24.480  12.945
77964CL-    CL-37225  44.293  10.334   0.430
77965CL-    CL-37226  42.817   0.417  14.792
77966CL-    CL-37227  28.081  25.592  13.366
77967CL-    CL-37228  18.680  37.070   0.442
77968CL-    CL-37229   5.772  13.742  10.518
77969CL-    CL-37230  37.946  28.117   0.299
77970CL-    CL-37231  32.439  37.023  14.492
77971CL-    CL-37232  34.064  20.101  11.042
77972CL-    CL-37233  24.038  29.603  12.386
77973CL-    CL-37234  43.820  10.746  12.424
77974CL-    CL-37235  22.581  28.178  11.438
77975CL-    CL-37236  38.057  20.724   1.846
77976CL-    CL-37237  44.838  34.874   0.919
77977CL-    CL-37238  26.459  20.551   3.805
77978CL-    CL-37239  32.953  21.524  11.072
77979CL-    CL-37240  39.420  30.025  10.908
77980CL-    CL-37241  27.569  26.677  10.520
77981CL-    CL-37242  28.675  37.025   4.599
77982CL-    CL-37243  26.053   4.868  11.413
77983CL-    CL-37244  14.785  38.054  12.092
77984CL-    CL-37245  20.666  14.242   3.792
77985CL-    CL-37246  30.982  44.471   1.240
77986CL-    CL-37247  17.209  31.090   3.322
77987CL-    CL-37248  12.850  24.677   0.824
77988CL-    CL-37249  41.400  37.915   2.733
77989CL-    CL-37250  41.885  33.982   4.336
77990CL-    CL-37251  22.623  13.712  11.108
77991CL-    CL-37252   3.378  28.063  12.430
77992CL-    CL-37253  13.186  20.645   0.293
77993CL-    CL-37254   4.740  43.293  10.473
77994CL-    CL-37255  32.556   1.251   2.861
77995CL-    CL-37256   6.728  39.357   0.892
77996CL-    CL-37257  21.515  33.917  12.071
77997CL-    CL-37258  29.643   6.194  10.915
77998CL-    CL-37259  13.714  23.683   0.921
77999CL-    CL-37260  27.040  24.583   5.711
78000CL-    CL-37261   9.804  16.762   3.255
78001CL-    CL-37262  12.719  34.940  12.937
78002CL-    CL-37263   9.878  15.667  14.410
78003CL-    CL-37264   9.200  41.532   1.740
78004CL-    CL-37265  25.539  18.646   0.889
78005CL-    CL-37266  27.011  43.862   2.824
78006CL-    CL-37267   1.938  36.574   3.855
78007CL-    CL-37268  43.406  33.958   4.718
78008CL-    CL-37269  12.227  24.495  10.520
78009CL-    CL-37270  17.759  41.352  13.471
78010CL-    CL-37271  15.182   3.939   0.763
78011CL-    CL-37272  39.433  42.930  12.926
78012CL-    CL-37273  19.087   4.299  13.499
78013CL-    CL-37274   1.435  38.827   4.244
78014CL-    CL-37275  31.990  33.408   4.243
78015CL-    CL-37276   4.825  34.483  14.514
78016CL-    CL-37277  43.823   2.420  12.484
78017CL-    CL-37278  36.955  37.532  11.898
78018CL-    CL-37279   4.766  14.643   2.744
78019CL-    CL-37280  41.937  25.044  12.454
78020CL-    CL-37281  42.843   9.807   2.307
78021CL-    CL-37282  10.671  32.606  11.465
78022CL-    CL-37283  15.298  25.599   4.259
78023CL-    CL-37284  43.311  10.291   3.804
78024CL-    CL-37285  37.956   6.841  14.791
78025CL-    CL-37286   1.876   2.890   3.650
78026CL-    CL-37287  10.346  28.668   2.386
78027CL-    CL-37288  43.814  15.810  14.874
78028CL-    CL-37289  41.009  41.878   0.477
78029CL-    CL-37290  42.379  31.449   2.900
78030CL-    CL-37291   6.270  11.160   3.224
78031CL-    CL-37292  25.042  24.030  10.405
78032CL-    CL-37293  23.578  17.730  10.487
78033CL-    CL-37294  35.081  35.397  11.103
78034CL-    CL-37295   8.803   0.463  11.390
78035CL-    CL-37296  27.018  10.808  12.963
78036CL-    CL-37297  27.691  15.322   2.382
78037CL-    CL-37298   6.241  40.319  10.951
78038CL-    CL-37299  23.121  43.925  11.561
78039CL-    CL-37300  21.248  44.302   0.864
78040CL-    CL-37301  17.077  26.084   1.916
78041CL-    CL-37302  37.571  38.944   4.722
78042CL-    CL-37303  12.612  17.775   1.385
78043CL-    CL-37304  23.686  37.362  11.577
78044CL-    CL-37305  37.866  11.370  12.953
78045CL-    CL-37306  40.419  44.474   4.154
78046CL-    CL-37307   6.789  34.457  13.865
78047CL-    CL-37308  42.005  27.112  14.445
78048CL-    CL-37309  40.306  36.460   3.377
78049CL-    CL-37310  21.687   5.785  12.945
78050CL-    CL-37311   8.389  12.286   1.800
78051CL-    CL-37312  12.305   2.332   3.363
78052CL-    CL-37313  32.609  27.559  11.889
78053CL-    CL-37314   6.215  33.103  12.898
78054CL-    CL-37315  43.433   3.380   4.153
78055CL-    CL-37316   3.803  44.491  14.297
78056CL-    CL-37317  44.930  21.645  12.831
78057CL-    CL-37318  36.362  16.260  12.057
78058CL-    CL-37319   6.813  36.895   1.418
78059CL-    CL-37320   6.917  18.239  14.460
78060CL-    CL-37321  22.743  38.035  12.485
78061CL-    CL-37322  27.672  21.155   3.778
78062CL-    CL-37323  17.654   4.701   0.942
78063CL-    CL-37324  43.786  37.506  12.358
78064CL-    CL-37325  41.293  25.075  10.555
78065CL-    CL-37326  37.088  24.608   3.699
78066CL-    CL-37327   0.985   6.284   3.733
78067CL-    CL-37328  27.577  31.468  12.842
78068CL-    CL-37329  24.587  35.382   2.348
78069CL-    CL-37330  40.879  37.479   0.458
78070CL-    CL-37331   6.799  36.454   1.708
78071CL-    CL-37332  12.271  21.248   4.149
78072CL-    CL-37333  27.109  28.595   4.697
78073CL-    CL-37334  28.596  29.067  12.412
78074CL-    CL-37335  27.197   9.736   2.236
78075CL-    CL-37336  21.205  20.071   4.669
78076CL-    CL-37337   5.800  35.955  14.461
78077CL-    CL-37338  29.665  31.064   2.351
78078CL-    CL-37339  19.171  15.707  11.035
78079CL-    CL-37340   1.736  35.599  14.309
78080CL-    CL-37341  44.387  35.448   2.836
78081CL-    CL-37342  28.078  33.881   1.259
78082CL-    CL-37343   2.802  32.936   2.894
78083CL-    CL-37344   1.850   3.234  14.922
78084CL-    CL-37345  44.500   5.748  11.059
78085CL-    CL-37346  29.053  10.693   0.961
78086CL-    CL-37347  29.173  35.449  10.093
78087CL-    CL-37348  44.264  24.705   4.801
78088CL-    CL-37349   0.807  28.106  13.377
78089CL-    CL-37350  38.954   5.261   4.254
78090CL-    CL-37351  22.601   6.328  13.507
78091CL-    CL-37352  44.817  36.877   1.227
78092CL-    CL-37353  41.326  14.694   4.151
78093CL-    CL-37354  27.079  22.736  13.969
78094CL-    CL-37355  10.741  29.458  12.399
78095CL-    CL-37356  18.165  11.739  12.934
78096CL-    CL-37357   1.299  22.235   1.742
78097CL-    CL-37358  10.874  39.880   3.242
78098CL-    CL-37359   2.254  25.714   1.342
78099CL-    CL-37360  36.948  39.011   1.329
78100CL-    CL-37361  20.210  26.956   0.455
78101CL-    CL-37362  42.287  43.460   1.266
78102CL-    CL-37363   5.278  21.622   4.122
78103CL-    CL-37364  31.526  40.840   1.833
78104CL-    CL-37365  31.613  16.784   0.777
78105CL-    CL-37366   8.276  38.038   0.841
78106CL-    CL-37367  22.166  43.291   3.243
78107CL-    CL-37368  25.535   7.221  14.331
78108CL-    CL-37369  34.526  40.382  13.331
78109CL-    CL-37370  34.973  10.776   1.303
78110CL-    CL-37371  20.696  26.585   3.277
78111CL-    CL-37372  36.005  44.886  11.991
78112CL-    CL-37373  21.078  25.125   9.503
78113CL-    CL-37374  28.972  36.376   2.383
78114CL-    CL-37375  36.951  24.572  14.389
78115CL-    CL-37376   6.812  38.479   0.806
78116CL-    CL-37377   0.756  21.130  14.858
78117CL-    CL-37378  18.702  29.096  12.988
78118CL-    CL-37379  18.151   1.338  10.923
78119CL-    CL-37380  43.304  38.450   0.321
78120CL-    CL-37381   9.728  31.459   1.878
78121CL-    CL-37382  33.020  25.649   2.752
78122CL-    CL-37383  13.274  21.746  14.883
78123CL-    CL-37384  40.407  26.025  12.408
78124CL-    CL-37385   4.427  30.532  10.617
78125CL-    CL-37386  12.271   1.479   5.126
78126CL-    CL-37387  16.316   7.822   4.620
78127CL-    CL-37388  28.553   6.400  14.764
78128CL-    CL-37389  21.258  18.149   3.226
78129CL-    CL-37390   8.669  18.577   2.345
78130CL-    CL-37391   6.305  34.954   2.699
78131CL-    CL-37392  31.116  21.674   3.164
78132CL-    CL-37393  21.152  10.329  13.002
78133CL-    CL-37394  40.397  22.514  13.976
78134CL-    CL-37395  40.458   6.823  12.506
78135CL-    CL-37396  38.440  15.718  11.431
78136CL-    CL-37397  33.403  14.696   0.409
78137CL-    CL-37398  14.746   3.724  14.516
78138CL-    CL-37399  30.526  10.768   3.681
78139CL-    CL-37400  42.797  15.288  13.999
78140CL-    CL-37401  27.061  40.982  14.427
78141CL-    CL-37402   9.804  43.937   1.851
78142CL-    CL-37403  11.270  43.774   2.797
78143CL-    CL-37404   2.338  37.862  11.374
78144CL-    CL-37405  30.113   3.824   3.700
78145CL-    CL-37406  42.322   6.392  12.868
78146CL-    CL-37407  41.024  18.638   4.712
78147CL-    CL-37408  19.074   6.422  11.080
78148CL-    CL-37409   4.863  42.022  13.910
78149CL-    CL-37410  42.319   9.883   3.278
78150CL-    CL-37411  32.068   2.922  14.497
78151CL-    CL-37412   1.774   9.326   3.752
78152CL-    CL-37413  12.765   6.283   4.760
78153CL-    CL-37414  44.803  12.131   1.777
78154CL-    CL-37415  36.477   5.210   3.755
78155CL-    CL-37416   3.404  42.824  14.307
78156CL-    CL-37417  41.868  35.972   3.862
78157CL-    CL-37418  12.622  28.975  11.443
78158CL-    CL-37419   7.770   0.457  10.483
78159CL-    CL-37420  11.271  38.956  11.427
78160CL-    CL-37421  40.884  35.422   2.824
78161CL-    CL-37422  34.953   8.859  13.538
78162CL-    CL-37423  40.853  41.918   2.242
78163CL-    CL-37424  14.656  43.295  11.543
78164CL-    CL-37425   8.321   4.843  12.049
78165CL-    CL-37426   1.913  31.934  11.482
78166CL-    CL-37427  25.210   6.305  11.461
78167CL-    CL-37428  39.401   8.744   4.760
78168CL-    CL-37429  43.364  11.193  11.048
78169CL-    CL-37430  17.756  12.359  11.378
78170CL-    CL-37431  27.029  36.416   3.742
78171CL-    CL-37432  44.764  17.283  12.970
78172CL-    CL-37433  44.317  23.635   2.688
78173CL-    CL-37434  17.223  13.149  10.981
78174CL-    CL-37435  10.215  30.990  11.605
78175CL-    CL-37436  16.278   1.947   3.717
78176CL-    CL-37437  32.079  41.830   2.799
78177CL-    CL-37438   1.938  11.137  13.888
78178CL-    CL-37439  38.821  24.036  14.409
78179CL-    CL-37440  31.131  36.467   3.802
78180CL-    CL-37441  13.792  34.097   4.783
78181CL-    CL-37442  34.082   2.720  12.905
78182CL-    CL-37443  44.479  13.105   2.352
78183CL-    CL-37444  23.693  39.938   0.865
78184CL-    CL-37445   4.381  39.321  14.411
78185CL-    CL-37446   5.404   0.879   0.389
78186CL-    CL-37447  13.811  35.077   1.227
78187CL-    CL-37448  20.558  39.877   1.229
78188CL-    CL-37449  36.523  13.154   2.335
78189CL-    CL-37450  44.374   8.683   3.793
78190CL-    CL-37451  12.206  28.145   1.297
78191CL-    CL-37452  34.415  27.111  12.431
78192CL-    CL-37453   6.319  16.742  11.504
78193CL-    CL-37454  23.024  41.016   3.793
78194CL-    CL-37455   8.677  20.129   1.840
78195CL-    CL-37456  24.485   2.365   1.407
78196CL-    CL-37457  34.602  13.266   0.400
78197CL-    CL-37458   7.825  36.031   0.965
78198CL-    CL-37459  32.464  34.034   5.123
78199CL-    CL-37460  41.434   5.269   3.785
78200CL-    CL-37461  24.137  44.343   3.385
78201CL-    CL-37462  13.162  26.179  12.481
78202CL-    CL-37463  36.468  15.220  12.021
78203CL-    CL-37464  24.656   6.229  12.579
78204CL-    CL-37465  18.556   9.872  11.518
78205CL-    CL-37466  14.777  17.756   3.195
78206CL-    CL-37467  30.610  40.503   1.402
78207CL-    CL-37468  11.731   1.480   0.932
78208CL-    CL-37469  27.008  42.413  10.953
78209CL-    CL-37470  30.626   9.244  12.889
78210CL-    CL-37471  20.239  28.444  12.929
78211CL-    CL-37472  28.630  28.987  10.542
78212CL-    CL-37473  36.927  35.372   3.813
78213CL-    CL-37474  22.507  26.100  12.419
78214CL-    CL-37475  42.479  23.156   0.262
78215CL-    CL-37476  39.826  24.996   0.736
78216CL-    CL-37477  43.403  29.620  13.908
78217CL-    CL-37478  11.628   8.212  14.474
78218CL-    CL-37479  34.469  11.314   0.805
78219CL-    CL-37480  30.485   6.711  12.573
78220CL-    CL-37481  26.691  24.016  12.466
78221CL-    CL-37482  11.700  19.545   1.811
78222CL-    CL-37483   3.913  33.903   1.720
78223CL-    CL-37484  29.050  21.758   1.895
78224CL-    CL-37485  41.499  33.394  13.316
78225CL-    CL-37486  20.735  28.662  12.862
78226CL-    CL-37487  18.679   0.326  13.359
78227CL-    CL-37488  28.046   7.339  13.991
78228CL-    CL-37489  23.027  28.934   2.219
78229CL-    CL-37490  12.136  22.115   2.257
78230CL-    CL-37491   9.708  38.076  11.003
78231CL-    CL-37492  13.270  12.344   3.741
78232CL-    CL-37493  34.965   9.820   4.245
78233CL-    CL-37494  25.624  34.054  14.307
78234CL-    CL-37495  44.451  33.125   4.737
78235CL-    CL-37496   7.330  37.923   0.890
78236CL-    CL-37497  22.629  35.381  14.866
78237CL-    CL-37498  15.275  31.635   1.792
78238CL-    CL-37499   5.425  40.001   2.681
78239CL-    CL-37500  22.703  11.252  10.969
78240CL-    CL-37501  42.290  15.721   2.884
78241CL-    CL-37502  21.024  13.131  12.974
78242CL-    CL-37503  13.243   5.208   3.358
78243CL-    CL-37504   9.367  42.413   3.674
78244CL-    CL-37505  10.737   3.769  12.515
78245CL-    CL-37506  40.335  30.542  10.527
78246CL-    CL-37507  41.484  36.592  13.875
78247CL-    CL-37508  39.410  23.566   0.342
78248CL-    CL-37509  35.041  21.669   0.747
78249CL-    CL-37510  24.060  36.409   0.298
78250CL-    CL-37511  26.198  11.639  12.073
78251CL-    CL-37512  24.038  31.437   0.909
78252CL-    CL-37513  38.047  15.635   2.210
78253CL-    CL-37514  22.080   7.904  14.936
78254CL-    CL-37515  28.107  12.798  11.042
78255CL-    CL-37516  27.096   4.703  10.521
78256CL-    CL-37517  40.854   2.406   1.707
78257CL-    CL-37518  41.444   9.692  10.477
78258CL-    CL-37519  33.122  43.350   4.287
78259CL-    CL-37520  20.164  12.725   4.605
78260CL-    CL-37521  39.905  34.470  12.569
78261CL-    CL-37522   0.786  41.451   0.389
78262CL-    CL-37523  20.126  26.953   5.189
78263CL-    CL-37524   4.311  33.556  11.065
78264CL-    CL-37525  10.174   0.288   1.368
78265CL-    CL-37526  21.032   0.371  14.316
78266CL-    CL-37527  20.256  27.022   4.805
78267CL-    CL-37528  15.775  36.956  11.372
78268CL-    CL-37529  43.417  31.623  10.897
78269CL-    CL-37530  11.170  31.119  12.405
78270CL-    CL-37531  34.972   4.913  12.082
78271CL-    CL-37532  32.600  16.566   1.893
78272CL-    CL-37533   2.429  18.092  10.565
78273CL-    CL-37534   2.299  28.083  12.955
78274CL-    CL-37535  31.519  23.219  12.569
78275CL-    CL-37536  35.499  15.724   1.849
78276CL-    CL-37537  27.661   1.434   1.804
78277CL-    CL-37538   3.443  30.034  13.839
78278CL-    CL-37539  25.075   3.306   2.338
78279CL-    CL-37540  39.930  43.826  11.579
78280CL-    CL-37541   5.296   3.344   3.339
78281CL-    CL-37542  14.675  16.678   1.342
78282CL-    CL-37543   0.746  12.359  10.418
78283CL-    CL-37544  28.536  44.329   1.734
78284CL-    CL-37545   6.913  31.102   3.753
78285CL-    CL-37546   2.899   7.761  14.821
78286CL-    CL-37547  26.493  36.543  10.589
78287CL-    CL-37548  34.017  22.216  14.281
78288CL-    CL-37549  23.685  33.396   4.780
78289CL-    CL-37550  35.933  24.229   3.632
78290CL-    CL-37551  31.006   6.682   1.829
78291CL-    CL-37552  12.260   0.873  12.899
78292CL-    CL-37553  33.437  20.095   3.308
78293CL-    CL-37554   5.383  34.580   4.301
78294CL-    CL-37555  11.677  43.861   3.287
78295CL-    CL-37556   7.852  37.580   0.892
78296CL-    CL-37557  10.800  23.093   1.781
78297CL-    CL-37558  37.033  18.619  11.544
78298CL-    CL-37559  25.661  15.585   3.226
78299CL-    CL-37560  34.387   8.174   1.410
78300CL-    CL-37561   2.831  35.976   0.358
78301CL-    CL-37562  19.576  12.283   4.615
78302CL-    CL-37563  22.199  30.549  14.013
78303CL-    CL-37564  21.604  36.443  12.948
78304CL-    CL-37565  10.200  42.522   0.793
78305CL-    CL-37566  19.045  27.032   0.471
78306CL-    CL-37567  42.031  32.076   2.306
78307CL-    CL-37568   7.353  22.539   3.641
78308CL-    CL-37569  11.846  40.498  14.970
78309CL-    CL-37570  16.717  18.214  12.473
78310CL-    CL-37571  19.723  35.516  10.627
78311CL-    CL-37572  30.023  40.837   5.152
78312CL-    CL-37573  14.228   2.793   2.310
78313CL-    CL-37574  35.412  12.271   3.786
78314CL-    CL-37575  14.178  12.838   4.622
78315CL-    CL-37576  17.303  20.117  12.854
78316CL-    CL-37577   7.253  10.867  13.987
78317CL-    CL-37578  14.626  40.305  14.907
78318CL-    CL-37579   3.343  27.993   0.922
78319CL-    CL-37580   4.247  26.684   4.221
78320CL-    CL-37581  39.408  16.625   1.827
78321CL-    CL-37582  14.233  26.963   3.747
78322CL-    CL-37583  11.735  18.127   4.291
78323CL-    CL-37584  34.414  28.641  11.041
78324CL-    CL-37585  39.909  15.275   1.211
78325CL-    CL-37586  17.286  38.387  14.325
78326CL-    CL-37587  19.070  31.934  14.759
78327CL-    CL-37588  25.145  33.019   2.871
78328CL-    CL-37589  26.639   0.417   4.755
78329CL-    CL-37590  37.552   3.291  12.931
78330CL-    CL-37591   6.852  29.518   4.184
78331CL-    CL-37592  35.603  18.628   0.445
78332CL-    CL-37593  10.839  32.522   0.368
78333CL-    CL-37594   4.940   5.200   2.736
78334CL-    CL-37595  39.336  18.050   0.474
78335CL-    CL-37596  26.012  17.154   1.847
78336CL-    CL-37597   7.369   5.743  10.139
78337CL-    CL-37598   4.929  41.449  11.550
78338CL-    CL-37599   7.371  22.539   2.337
78339CL-    CL-37600  38.497   2.839  10.612
78340CL-    CL-37601  38.398  12.809  14.375
78341CL-    CL-37602  40.857   5.266  14.497
78342CL-    CL-37603   3.223  37.045   0.728
78343CL-    CL-37604  26.029  24.120   1.730
78344CL-    CL-37605   8.845   3.367  14.468
78345CL-    CL-37606  18.648  24.135   2.181
78346CL-    CL-37607   2.833  43.855  10.431
78347CL-    CL-37608  39.450  27.623  13.315
78348CL-    CL-37609  31.946   5.745  12.936
78349CL-    CL-37610  20.184  44.392  10.604
78350CL-    CL-37611  35.398  36.557   9.527
78351CL-    CL-37612  30.998  26.616   3.700
78352CL-    CL-37613  34.532  39.538   4.702
78353CL-    CL-37614  11.706  23.233  13.476
78354CL-    CL-37615   6.212  32.567   3.199
78355CL-    CL-37616   1.876  28.593  13.029
78356CL-    CL-37617  28.981  32.484  11.094
78357CL-    CL-37618  21.146  24.563  10.493
78358CL-    CL-37619  21.678  34.935   4.249
78359CL-    CL-37620  31.480  28.078  11.981
78360CL-    CL-37621  14.199   8.390   0.960
78361CL-    CL-37622  38.867  28.625   4.605
78362CL-    CL-37623  41.356  32.049  12.403
78363CL-    CL-37624  29.553  32.125   4.734
78364CL-    CL-37625  29.539   1.826   3.181
78365CL-    CL-37626  23.086   4.223  10.457
78366CL-    CL-37627  41.318  15.653  14.810
78367CL-    CL-37628  42.008  38.537  12.461
78368CL-    CL-37629  19.160  24.672   0.286
78369CL-    CL-37630  25.659   1.372   0.257
78370CL-    CL-37631  17.708   4.898   4.726
78371CL-    CL-37632  39.329   2.758  12.056
78372CL-    CL-37633  31.981  31.610  13.458
78373CL-    CL-37634  11.725  17.621   2.287
78374CL-    CL-37635   0.972  18.271  10.570
78375CL-    CL-37636  41.309  17.577   0.738
78376CL-    CL-37637  18.608  24.718  10.609
78377CL-    CL-37638  24.015  24.078   4.160
78378CL-    CL-37639  32.632   0.916   2.854
78379CL-    CL-37640  22.135  32.063   3.753
78380CL-    CL-37641  39.962  39.961   4.247
78381CL-    CL-37642  24.023  35.876   2.384
78382CL-    CL-37643  34.019  11.275  12.050
78383CL-    CL-37644  44.263  43.867   1.767
78384CL-    CL-37645  20.725  41.367   3.642
78385CL-    CL-37646  37.023  28.146   3.304
78386CL-    CL-37647  19.577  16.226  13.478
78387CL-    CL-37648  15.196  41.956  13.386
78388CL-    CL-37649  14.625  26.070   3.236
78389CL-    CL-37650  25.487  42.441   3.330
78390CL-    CL-37651  32.580  11.668  14.834
78391CL-    CL-37652   1.390  37.069  11.115
78392CL-    CL-37653  25.137  39.062   4.163
78393CL-    CL-37654   9.282  32.988  14.340
78394CL-    CL-37655  16.629  34.425  11.882
78395CL-    CL-37656  10.707  38.545  11.598
78396CL-    CL-37657  18.646  23.108   0.843
78397CL-    CL-37658   1.370  10.196  14.841
78398CL-    CL-37659   9.151  33.464  12.511
78399CL-    CL-37660  28.145  21.222  14.796
78400CL-    CL-37661   9.657  27.599  10.543
78401CL-    CL-37662  44.937  25.971  13.923
78402CL-    CL-37663  38.844  31.987   4.817
78403CL-    CL-37664  24.214   3.423  13.480
78404CL-    CL-37665  11.302  39.906   3.676
78405CL-    CL-37666  38.478  11.158  13.879
78406CL-    CL-37667  20.164  42.879   0.319
78407CL-    CL-37668  21.619   2.296   1.252
78408CL-    CL-37669  32.895   0.910  12.895
78409CL-    CL-37670  42.475  12.179  14.914
78410CL-    CL-37671   1.343   3.218  13.927
78411CL-    CL-37672  22.625   9.368  14.493
78412CL-    CL-37673  13.322  30.009   5.620
78413CL-    CL-37674  19.202   4.725  13.821
78414CL-    CL-37675   1.901  34.531  12.894
78415CL-    CL-37676   7.354  16.757   1.357
78416CL-    CL-37677  14.774  33.467  11.127
78417CL-    CL-37678   0.413  32.909   2.224
78418CL-    CL-37679   0.841  19.084  10.477
78419CL-    CL-37680  21.215  18.630  12.485
78420CL-    CL-37681  16.311  12.266  14.907
78421CL-    CL-37682   1.832  43.484  13.371
78422CL-    CL-37683   5.436  16.689   4.600
78423CL-    CL-37684  29.565  18.112   0.805
78424CL-    CL-37685  35.418  37.519   0.827
78425CL-    CL-37686  18.610  38.399  10.551
78426CL-    CL-37687   1.393  17.071   2.682
78427CL-    CL-37688  39.335  32.477   4.774
78428CL-    CL-37689   3.955   8.843   2.201
78429CL-    CL-37690  14.191  14.329   0.949
78430CL-    CL-37691  31.520  18.257   3.148
78431CL-    CL-37692  29.494  35.504  14.361
78432CL-    CL-37693  28.054  20.531  13.867
78433CL-    CL-37694  26.549  37.049  13.378
78434CL-    CL-37695  40.305  14.601   4.771
78435CL-    CL-37696  41.446  21.521   1.430
78436CL-    CL-37697  39.904  14.706  14.422
78437CL-    CL-37698  23.686  18.058  11.520
78438CL-    CL-37699  29.627  14.304  14.318
78439CL-    CL-37700  37.872  41.954  12.580
78440CL-    CL-37701  18.768  42.345   2.292
78441CL-    CL-37702   0.756   9.738  10.901
78442CL-    CL-37703  13.106  11.357  14.845
78443CL-    CL-37704  33.881  44.449   5.181
78444CL-    CL-37705  10.373   9.825   0.773
78445CL-    CL-37706  33.383  36.997   1.309
78446CL-    CL-37707  39.417  25.686  14.024
78447CL-    CL-37708  15.309  23.101  14.425
78448CL-    CL-37709  41.298  15.244   1.700
78449CL-    CL-37710  40.943  25.141   3.244
78450CL-    CL-37711  28.648  25.038  10.618
78451CL-    CL-37712  40.962   5.211   1.258
78452CL-    CL-37713   1.436  30.116  12.891
78453CL-    CL-37714  37.335  30.969   0.841
78454CL-    CL-37715   1.342  27.569   0.758
78455CL-    CL-37716  22.248   4.890  14.803
78456CL-    CL-37717  37.337  37.372  14.474
78457CL-    CL-37718  40.489  21.150   3.355
78458CL-    CL-37719  31.612  30.639   1.345
78459CL-    CL-37720  31.053   2.286  11.984
78460CL-    CL-37721  22.668   1.341   2.663
78461CL-    CL-37722  32.535  38.535   4.321
78462CL-    CL-37723  40.828  15.213  11.909
78463CL-    CL-37724  25.590   4.436   0.353
78464CL-    CL-37725  25.001   6.398   4.693
78465CL-    CL-37726  14.635  35.375   4.837
78466CL-    CL-37727  17.190   0.478  10.476
78467CL-    CL-37728   0.255  19.234  14.004
78468CL-    CL-37729   7.241  31.459   3.207
78469CL-    CL-37730   0.925  44.905  11.412
78470CL-    CL-37731  42.829   9.869  13.897
78471CL-    CL-37732  42.509   7.280   2.848
78472CL-    CL-37733  25.035   9.783   4.121
78473CL-    CL-37734  35.582   7.404   0.425
78474CL-    CL-37735  35.392  30.942   0.462
78475CL-    CL-37736  33.047  35.081   3.753
78476CL-    CL-37737  43.302  32.611   4.827
78477CL-    CL-37738  10.874  15.669  11.371
78478CL-    CL-37739   9.655  16.115   1.270
78479CL-    CL-37740  24.593  14.142   3.690
78480CL-    CL-37741  16.106  31.436  13.384
78481CL-    CL-37742  44.297  26.078  11.501
78482CL-    CL-37743  25.702  15.123  10.609
78483CL-    CL-37744   5.288   1.852  11.127
78484CL-    CL-37745  22.215  17.610  14.939
78485CL-    CL-37746  35.007  43.893   1.739
78486CL-    CL-37747  42.440  31.409  10.580
78487CL-    CL-37748   4.323  26.113   2.286
78488CL-    CL-37749  28.122   7.321   1.252
78489CL-    CL-37750  27.151  13.618   4.643
78490CL-    CL-37751  31.907  18.734  12.872
78491CL-    CL-37752  18.129  41.472   2.724
78492CL-    CL-37753   1.757  19.185   0.280
78493CL-    CL-37754  11.204  11.232   1.698
78494CL-    CL-37755  38.827  11.740   4.755
78495CL-    CL-37756  27.612  28.437  13.912
78496CL-    CL-37757  19.127   0.765   3.824
78497CL-    CL-37758   2.471   4.253   0.742
78498CL-    CL-37759  15.289  24.501   1.417
78499CL-    CL-37760  22.535  43.989  14.405
78500CL-    CL-37761  18.107  17.147  12.926
78501CL-    CL-37762  42.282  18.108   4.743
78502CL-    CL-37763  20.158  43.010   2.391
78503CL-    CL-37764  22.521   7.894   4.142
78504CL-    CL-37765  30.634  38.943   1.857
78505CL-    CL-37766  16.201  10.851  14.892
78506CL-    CL-37767  31.484   6.737   1.778
78507CL-    CL-37768  33.552  34.376  10.428
78508CL-    CL-37769  31.979  30.027   0.882
78509CL-    CL-37770  27.074  41.870  10.985
78510CL-    CL-37771  17.612  41.835   4.208
78511CL-    CL-37772  15.801   4.404   1.919
78512CL-    CL-37773  42.405  11.810  10.972
78513CL-    CL-37774  38.453  12.827  11.605
78514CL-    CL-37775  35.599  11.287   5.277
78515CL-    CL-37776  32.441   2.287   0.325
78516CL-    CL-37777  18.054   1.793   2.700
78517CL-    CL-37778  15.591  12.648  10.125
78518CL-    CL-37779   0.750   8.828   0.474
78519CL-    CL-37780  41.381  24.576  13.539
78520CL-    CL-37781  13.657  43.508   1.428
78521CL-    CL-37782  34.488  19.611  13.449
78522CL-    CL-37783  34.515   3.422   3.742
78523CL-    CL-37784   3.448  40.994   2.200
78524CL-    CL-37785  24.156  41.473  12.545
78525CL-    CL-37786   9.857  30.089  11.379
78526CL-    CL-37787  19.081   0.818   4.238
78527CL-    CL-37788  24.099  27.003  10.091
78528CL-    CL-37789  44.353  35.528  11.593
78529CL-    CL-37790   7.200  29.528  10.522
78530CL-    CL-37791  10.157  30.646   1.765
78531CL-    CL-37792  39.449  32.980   2.320
78532CL-    CL-37793  44.364   3.734   0.740
78533CL-    CL-37794  19.158  22.088  10.930
78534CL-    CL-37795  41.358  27.455   0.893
78535CL-    CL-37796  20.673   3.927   1.229
78536CL-    CL-37797  10.286  40.983  12.083
78537CL-    CL-37798  27.950  24.540  13.889
78538CL-    CL-37799  14.246   4.411  13.534
78539CL-    CL-37800  36.994  32.507  13.043
78540CL-    CL-37801  25.204  21.055   0.881
78541CL-    CL-37802  44.788  21.753  14.451
78542CL-    CL-37803  24.064  23.139   4.668
78543CL-    CL-37804  13.650  43.415  12.897
78544CL-    CL-37805  13.779   5.793   3.772
78545CL-    CL-37806  27.984  43.491   0.904
78546CL-    CL-37807  14.176  32.048  10.480
78547CL-    CL-37808   5.830  43.824  10.980
78548CL-    CL-37809  18.781  30.505   1.930
78549CL-    CL-37810   5.421  13.671  14.809
78550CL-    CL-37811   7.355  35.898   3.356
78551CL-    CL-37812   9.337  29.473   1.220
78552CL-    CL-37813  25.110  19.173   0.936
78553CL-    CL-37814  41.391  26.045   4.328
78554CL-    CL-37815  32.978   8.400  11.867
78555CL-    CL-37816  19.540  37.846  10.475
78556CL-    CL-37817  30.526  23.599   1.349
78557CL-    CL-37818  34.369  35.569   2.316
78558CL-    CL-37819   2.270  19.588   2.821
78559CL-    CL-37820  32.576  10.664  14.414
78560CL-    CL-37821  24.589  22.642   3.801
78561CL-    CL-37822  18.762  11.215   1.422
78562CL-    CL-37823  19.186   9.344   0.439
78563CL-    CL-37824  29.591  44.408   1.749
78564CL-    CL-37825   0.869   6.874  11.947
78565CL-    CL-37826  14.151   7.350  11.067
78566CL-    CL-37827  38.489  32.498   4.650
78567CL-    CL-37828  27.587  19.655   3.784
78568CL-    CL-37829  14.145  18.701   3.387
78569CL-    CL-37830  40.454   7.221  11.074
78570CL-    CL-37831   6.318  15.126  12.924
78571CL-    CL-37832  27.158  37.478  10.515
78572CL-    CL-37833  38.861  29.661  14.779
78573CL-    CL-37834   5.201  13.107   0.414
78574CL-    CL-37835  17.197  39.891  12.862
78575CL-    CL-37836  14.271  42.890  11.949
78576CL-    CL-37837  44.806  11.143   3.717
78577CL-    CL-37838  44.474  10.693  11.601
78578CL-    CL-37839  31.588  28.979  11.970
78579CL-    CL-37840  14.825  32.962   4.736
78580CL-    CL-37841  44.296  17.079   0.805
78581CL-    CL-37842  27.169  42.850  11.100
78582CL-    CL-37843  43.795  39.035   4.672
78583CL-    CL-37844  25.661  38.548  12.357
78584CL-    CL-37845  37.406  40.318  10.506
78585CL-    CL-37846  38.983   9.302   4.128
78586CL-    CL-37847   0.806  10.383  12.067
78587CL-    CL-37848  39.886  20.220  11.967
78588CL-    CL-37849  22.610  23.207   3.815
78589CL-    CL-37850  20.267  12.750   4.184
78590CL-    CL-37851  20.753   3.767  13.896
78591CL-    CL-37852   9.881  32.505   2.183
78592CL-    CL-37853  32.907  29.038   1.784
78593CL-    CL-37854   5.312  16.190  10.471
78594CL-    CL-37855  12.255  17.706   4.612
78595CL-    CL-37856  37.571  22.236  12.934
78596CL-    CL-37857  40.486   3.461  14.407
78597CL-    CL-37858  41.343  33.011   0.908
78598CL-    CL-37859  16.803  42.459   2.411
78599CL-    CL-37860  32.079  22.669   0.326
78600CL-    CL-37861  17.180  41.038  12.875
78601CL-    CL-37862  36.567  43.927  14.994
78602CL-    CL-37863   4.743   0.805  10.456
78603CL-    CL-37864  36.504  29.516   1.933
78604CL-    CL-37865  19.097  39.537  12.937
78605CL-    CL-37866  27.108   7.875  14.785
78606CL-    CL-37867   6.862  44.864   3.857
78607CL-    CL-37868  11.805  11.730  11.086
78608CL-    CL-37869  21.690  11.713   3.675
78609CL-    CL-37870  27.014  26.159   2.261
78610CL-    CL-37871  20.523  15.697   1.265
78611CL-    CL-37872  19.173  43.892   2.893
78612CL-    CL-37873   2.421  25.968   1.296
78613CL-    CL-37874  29.471  19.237  14.899
78614CL-    CL-37875  16.235  26.464  12.548
78615CL-    CL-37876  25.972  10.156   2.275
78616CL-    CL-37877  26.137  17.661   0.356
78617CL-    CL-37878  15.589  32.014  12.569
78618CL-    CL-37879   5.389  29.054  14.331
78619CL-    CL-37880  12.124  12.724   0.366
78620CL-    CL-37881  21.753  23.581   0.375
78621CL-    CL-37882  19.666  40.048  14.463
78622CL-    CL-37883   5.328   3.296   4.720
78623CL-    CL-37884  35.365   7.368   2.197
78624CL-    CL-37885   8.287  25.704   4.179
78625CL-    CL-37886  43.808   4.248  11.961
78626CL-    CL-37887  19.041  15.695   2.902
78627CL-    CL-37888  29.955   7.405   3.369
78628CL-    CL-37889  29.927  18.076  11.372
78629CL-    CL-37890   7.212  14.309   4.211
78630CL-    CL-37891   9.694   0.972   0.965
78631CL-    CL-37892  18.064  32.492  10.470
78632CL-    CL-37893   6.882   0.865   2.855
78633CL-    CL-37894   1.768  15.129  10.445
78634CL-    CL-37895  33.039  14.326  10.466
78635CL-    CL-37896   1.823  36.365  13.863
78636CL-    CL-37897  21.699  31.152  11.495
78637CL-    CL-37898  36.983  42.301  11.543
78638CL-    CL-37899  31.606   0.432   4.743
78639CL-    CL-37900   0.840  29.425   3.701
78640CL-    CL-37901   6.900  29.139   0.386
78641CL-    CL-37902  33.044  30.996  12.836
78642CL-    CL-37903  40.356  44.860  12.830
78643CL-    CL-37904   3.833  14.289  13.051
78644CL-    CL-37905   6.375   4.268   3.696
78645CL-    CL-37906   0.466  21.230  13.031
78646CL-    CL-37907  21.180  43.900  11.570
78647CL-    CL-37908  37.952  40.862   4.755
78648CL-    CL-37909  40.956  41.460  10.539
78649CL-    CL-37910  31.057  43.764  12.002
78650CL-    CL-37911   1.893  28.986  12.390
78651CL-    CL-37912  11.272  16.667   0.892
78652CL-    CL-37913  20.089  10.327  14.874
78653CL-    CL-37914  38.991  32.415   3.370
78654CL-    CL-37915  21.174  40.941  14.773
78655CL-    CL-37916  13.786  28.092  12.915
78656CL-    CL-37917   2.832  18.059  10.566
78657CL-    CL-37918  32.621  19.186   4.307
78658CL-    CL-37919  32.004   9.832   1.277
78659CL-    CL-37920  25.683  24.495   3.186
78660CL-    CL-37921   1.781   3.723  14.347
78661CL-    CL-37922  29.942   8.360   1.280
78662CL-    CL-37923   3.338  13.623   0.334
78663CL-    CL-37924   0.265   8.364  14.980
78664CL-    CL-37925   9.849  21.100  11.514
78665CL-    CL-37926  37.341  24.212  12.421
78666CL-    CL-37927  13.791   0.379   2.358
78667CL-    CL-37928  24.220  26.458   5.115
78668CL-    CL-37929  16.207  32.537  13.856
78669CL-    CL-37930   4.838  14.779  10.893
78670CL-    CL-37931   6.764  16.169  10.555
78671CL-    CL-37932  44.996  36.852  13.038
78672CL-    CL-37933   6.254  37.422   0.452
78673CL-    CL-37934   2.379   9.853  13.969
78674CL-    CL-37935   3.401  18.231   3.173
78675CL-    CL-37936  40.468  41.336   2.885
78676CL-    CL-37937  11.201  38.885   2.404
78677CL-    CL-37938  22.561   8.229   2.890
78678CL-    CL-37939  14.121  14.787  14.792
78679CL-    CL-37940  33.563   0.333  10.555
78680CL-    CL-37941   9.262  40.363   1.895
78681CL-    CL-37942   5.718  40.950   2.216
78682CL-    CL-37943  36.379  20.761   0.412
78683CL-    CL-37944  33.624  11.200  14.414
78684CL-    CL-37945  16.088   6.303  11.528
78685CL-    CL-37946  20.113  14.748  10.479
78686CL-    CL-37947  35.520  20.084   0.752
78687CL-    CL-37948  29.549   0.961   0.386
78688CL-    CL-37949   8.667  33.875  12.983
78689CL-    CL-37950  44.394  32.390   3.321
78690CL-    CL-37951  43.998  40.916  11.396
78691CL-    CL-37952   1.436   0.449   2.324
78692CL-    CL-37953  10.866  44.351   0.258
78693CL-    CL-37954   2.755   2.799   2.418
78694CL-    CL-37955  28.645  19.112  13.876
78695CL-    CL-37956  20.233   0.399  12.562
78696CL-    CL-37957  42.782  29.988  13.906
78697CL-    CL-37958  14.833  21.233  11.065
78698CL-    CL-37959  33.015  41.406   0.284
78699CL-    CL-37960  32.931  13.786   2.366
78700CL-    CL-37961  18.687  13.687   4.682
78701CL-    CL-37962  27.122  29.031  14.874
78702CL-    CL-37963  20.042  14.818   3.837
78703CL-    CL-37964   0.766  29.651   4.277
78704CL-    CL-37965  39.993  42.498   3.794
78705CL-    CL-37966  18.710   8.846   0.949
78706CL-    CL-37967  17.141  26.114   5.285
78707CL-    CL-37968   1.892   2.382   1.293
78708CL-    CL-37969  35.983   7.866   0.838
78709CL-    CL-37970   3.781  39.440   3.172
78710CL-    CL-37971  27.509  18.202   0.869
78711CL-    CL-37972  17.657   7.838  14.423
78712CL-    CL-37973  23.728  43.811   4.733
78713CL-    CL-37974  37.041  27.975   1.742
78714CL-    CL-37975   1.805  20.060  11.892
78715CL-    CL-37976   7.750  21.655  14.383
78716CL-    CL-37977   7.225  44.796   4.278
78717CL-    CL-37978   8.695  32.026  13.020
78718CL-    CL-37979  20.077   0.467   0.800
78719CL-    CL-37980  39.340   2.286  11.886
78720CL-    CL-37981   8.400  34.034   0.372
78721CL-    CL-37982  16.652  41.814   4.680
78722CL-    CL-37983  14.193  40.375  13.056
78723CL-    CL-37984   6.204   3.398   4.673
78724CL-    CL-37985  20.657  11.307   3.384
78725CL-    CL-37986  38.895  36.984   3.675
78726CL-    CL-37987  28.499   0.293  12.974
78727CL-    CL-37988  13.348   6.295  14.955
78728CL-    CL-37989  15.720  13.823  12.936
78729CL-    CL-37990  38.849   1.296   3.150
78730CL-    CL-37991  16.702   1.461   2.404
78731CL-    CL-37992  44.421  36.382  11.002
78732CL-    CL-37993  22.222  14.606  13.394
78733CL-    CL-37994  41.480   9.396  12.035
78734CL-    CL-37995  27.157  10.148  14.803
78735CL-    CL-37996  32.568  18.568  12.044
78736CL-    CL-37997   6.213  35.399   0.962
78737CL-    CL-37998  20.263   7.842   3.863
78738CL-    CL-37999  36.903  42.849  11.063
78739CL-    CL-38000  30.104  21.623   4.297
78740CL-    CL-38001   6.751  27.086  10.541
78741CL-    CL-38002  23.717   5.399  11.393
78742CL-    CL-38003  40.364  33.449   2.755
78743CL-    CL-38004  37.007  32.050  12.995
78744CL-    CL-38005  20.087  11.279  11.070
78745CL-    CL-38006  36.890  35.530  10.124
78746CL-    CL-38007  31.042   7.322   4.231
78747CL-    CL-38008  20.110  32.045   2.826
78748CL-    CL-38009  15.765   3.344   2.662
78749CL-    CL-38010   6.251   0.443  11.879
78750CL-    CL-38011  34.950  43.876  12.493
78751CL-    CL-38012   8.200  33.924  14.962
78752CL-    CL-38013   1.446  13.231   4.189
78753CL-    CL-38014  29.958  34.941   3.739
78754CL-    CL-38015  44.846  26.537  12.560
78755CL-    CL-38016  25.017  17.174   2.770
78756CL-    CL-38017   8.323  13.261   1.696
78757CL-    CL-38018  10.140  26.145  14.370
78758CL-    CL-38019   2.884  12.351  12.895
78759CL-    CL-38020  33.122  39.841  11.859
78760CL-    CL-38021   5.889  37.452  11.448
78761CL-    CL-38022  15.256  26.004  11.052
78762CL-    CL-38023  19.638  24.523  14.994
78763CL-    CL-38024   6.383   5.343  14.418
78764CL-    CL-38025  21.652  35.013  11.863
78765CL-    CL-38026  35.060  10.779   2.413
78766CL-    CL-38027  37.854  10.360   2.857
78767CL-    CL-38028   4.212  39.929  12.547
78768CL-    CL-38029  33.969  30.081  14.406
78769CL-    CL-38030  20.180  14.766  14.477
78770CL-    CL-38031  29.982  35.959  10.543
78771CL-    CL-38032  29.489  20.763   1.847
78772CL-    CL-38033   5.886  40.525  10.454
78773CL-    CL-38034  17.558  42.526   4.683
78774CL-    CL-38035  31.965  15.715   2.852
78775CL-    CL-38036  16.160   8.710   0.948
78776CL-    CL-38037  41.513  13.797  12.368
78777CL-    CL-38038  38.822   6.304  13.872
78778CL-    CL-38039  31.429  16.298   3.251
78779CL-    CL-38040  13.170  29.495   4.142
78780CL-    CL-38041  36.967  28.160   1.243
78781CL-    CL-38042  18.757  41.033   0.811
78782CL-    CL-38043   0.913   7.886   2.681
78783CL-    CL-38044  13.253  33.066  10.890
78784CL-    CL-38045  23.610  14.194  13.419
78785CL-    CL-38046  38.024  19.752   4.244
78786CL-    CL-38047  26.020  15.815   0.957
78787CL-    CL-38048  32.942   4.420   0.923
78788CL-    CL-38049  22.061  11.230  11.047
78789CL-    CL-38050   5.880  23.728  14.365
78790CL-    CL-38051   0.934  30.993   4.288
78791CL-    CL-38052  28.538  33.534   3.833
78792CL-    CL-38053  11.630  29.438  13.048
78793CL-    CL-38054  40.051  44.312  14.516
78794CL-    CL-38055   1.279   5.437   3.282
78795CL-    CL-38056  12.656  41.964   0.790
78796CL-    CL-38057   9.309  41.810  11.452
78797CL-    CL-38058  28.603   6.689  14.494
78798CL-    CL-38059  43.495   2.727  14.314
78799CL-    CL-38060  15.820  37.462   4.258
78800CL-    CL-38061  35.966   8.213  11.878
78801CL-    CL-38062  39.824  16.090   4.676
78802CL-    CL-38063  41.998  36.844   2.867
78803CL-    CL-38064   8.757   3.318   3.838
78804CL-    CL-38065  26.180  30.044  11.088
78805CL-    CL-38066   9.655  41.433   3.212
78806CL-    CL-38067  41.968  27.651   1.884
78807CL-    CL-38068  42.947   6.733  10.622
78808CL-    CL-38069  35.510  26.528   2.891
78809CL-    CL-38070  43.408   4.914   0.770
78810CL-    CL-38071  10.744   5.399  13.016
78811CL-    CL-38072   9.294  39.950  13.917
78812CL-    CL-38073   1.405  25.133   3.333
78813CL-    CL-38074  35.394   7.259  14.815
78814CL-    CL-38075  40.018  10.869  13.509
78815CL-    CL-38076  34.445  37.415   3.274
78816CL-    CL-38077   2.252  20.588   3.796
78817CL-    CL-38078  19.066  33.082  12.386
78818CL-    CL-38079  27.539  27.145  12.845
78819CL-    CL-38080  30.419  24.219  14.973
78820CL-    CL-38081  32.032   4.863  11.894
78821CL-    CL-38082   0.423  11.835  10.592
78822CL-    CL-38083  40.892  24.976   0.480
78823CL-    CL-38084  16.253   6.755  11.487
78824CL-    CL-38085  30.994   0.330   4.632
78825CL-    CL-38086  41.526   7.254   4.237
78826CL-    CL-38087  36.980  34.092  12.937
78827CL-    CL-38088   5.844  44.491   2.836
78828CL-    CL-38089  33.908  36.957  11.461
78829CL-    CL-38090  17.655  37.379  14.328
78830CL-    CL-38091  44.306  29.449   0.326
78831CL-    CL-38092  33.029  19.102   3.187
78832CL-    CL-38093  15.111  12.612   9.512
78833CL-    CL-38094  12.119  31.557   2.722
78834CL-    CL-38095  22.012  32.591   3.657
78835CL-    CL-38096  21.244  17.683   0.901
78836CL-    CL-38097  20.712  23.721   1.799
78837CL-    CL-38098  40.929  32.088  13.535
78838CL-    CL-38099  37.413   8.246   1.355
78839CL-    CL-38100  32.510  29.060   0.429
78840CL-    CL-38101   4.304  19.573  12.349
78841CL-    CL-38102  18.126   2.433  14.428
78842CL-    CL-38103   6.266  20.096  13.823
78843CL-    CL-38104  18.295  17.708  14.975
78844CL-    CL-38105  38.877  20.120   1.765
78845CL-    CL-38106  19.658  14.336  14.379
78846CL-    CL-38107  22.148  18.150   4.150
78847CL-    CL-38108  12.292   0.351  11.377
78848CL-    CL-38109  15.714   5.859   2.183
78849CL-    CL-38110  18.605  24.679   9.548
78850CL-    CL-38111   4.896  22.666  10.474
78851CL-    CL-38112  20.100  38.336   2.301
78852CL-    CL-38113   1.754  43.866   3.796
78853CL-    CL-38114  29.561  15.807   4.815
78854CL-    CL-38115  19.642  38.042  11.459
78855CL-    CL-38116   6.767  29.996  11.457
78856CL-    CL-38117  19.148  44.983   0.748
78857CL-    CL-38118   7.270  14.187   1.312
78858CL-    CL-38119   1.282  41.314  11.060
78859CL-    CL-38120  22.065  20.624  13.054
78860CL-    CL-38121  36.881  42.783  13.331
78861CL-    CL-38122  17.132   2.437  14.473
78862CL-    CL-38123   7.848  41.361  11.473
78863CL-    CL-38124   6.756  40.355   4.286
78864CL-    CL-38125  14.790  20.615   4.646
78865CL-    CL-38126  41.306  40.868   2.797
78866CL-    CL-38127   0.406  10.345   3.755
78867CL-    CL-38128  28.051  37.562  14.492
78868CL-    CL-38129  29.072  20.555  13.919
78869CL-    CL-38130  39.865   2.756   2.377
78870CL-    CL-38131  32.962  25.701   3.792
78871CL-    CL-38132  37.447  10.271   1.758
78872CL-    CL-38133  36.496   4.231  13.445
78873CL-    CL-38134   2.862   6.342  12.530
78874CL-    CL-38135  35.398   0.759   2.795
78875CL-    CL-38136  17.596  32.542   5.803
78876CL-    CL-38137  38.997   0.808  14.763
78877CL-    CL-38138  26.188  42.378  10.912
78878CL-    CL-38139  25.509  21.591  13.922
78879CL-    CL-38140  13.303  12.151   4.760
78880CL-    CL-38141  29.121   3.928   4.832
78881CL-    CL-38142  36.068  35.993  10.446
78882CL-    CL-38143  34.121  39.548   1.715
78883CL-    CL-38144  23.228  42.313   4.631
78884CL-    CL-38145  31.549  30.987   1.359
78885CL-    CL-38146  36.580  27.110  12.469
78886CL-    CL-38147  42.381  36.088   0.420
78887CL-    CL-38148  17.225  13.281   3.789
78888CL-    CL-38149   8.368  36.942   0.865
78889CL-    CL-38150  44.808  36.492  13.992
78890CL-    CL-38151  38.881  21.630  11.401
78891CL-    CL-38152   0.392   5.839  14.511
78892CL-    CL-38153  37.545  29.949   1.915
78893CL-    CL-38154  26.617  33.405  13.842
78894CL-    CL-38155  18.244  31.002  11.412
78895CL-    CL-38156  13.316  26.174  12.028
78896CL-    CL-38157  22.234   7.782   0.762
78897CL-    CL-38158  21.219  24.683   1.444
78898CL-    CL-38159  23.654  44.454  13.873
78899CL-    CL-38160  22.205  31.470   1.723
78900CL-    CL-38161  35.033  16.769  14.371
78901CL-    CL-38162  37.980  41.957  11.476
78902CL-    CL-38163  34.407  12.145   0.432
78903CL-    CL-38164  28.036  22.117  13.802
78904CL-    CL-38165  22.099  30.996   4.193
78905CL-    CL-38166  14.756  16.112   3.256
78906CL-    CL-38167  43.354  11.214   1.761
78907CL-    CL-38168  33.093  29.121   4.307
78908CL-    CL-38169   7.387  40.476  12.445
78909CL-    CL-38170  22.153  30.135  12.453
78910CL-    CL-38171  43.303   8.342   2.854
78911CL-    CL-38172  32.121  36.989  13.821
78912CL-    CL-38173  10.376  33.617  11.522
78913CL-    CL-38174  28.130  13.816   2.352
78914CL-    CL-38175   1.789  34.038   0.799
78915CL-    CL-38176  37.894  15.219  14.498
78916CL-    CL-38177  31.461  40.334   1.747
78917CL-    CL-38178   9.705   3.321   2.762
78918CL-    CL-38179  16.776  30.645   4.296
78919CL-    CL-38180  37.375  33.964  14.332
78920CL-    CL-38181  18.653  27.102   2.724
78921CL-    CL-38182  11.630  11.858  12.829
78922CL-    CL-38183   0.972  19.075  14.358
78923CL-    CL-38184   3.355  37.864  10.566
78924CL-    CL-38185  22.244  33.124   3.175
78925CL-    CL-38186  15.195  25.662   2.803
78926CL-    CL-38187   4.409  43.967   1.446
78927CL-    CL-38188   8.399  39.378   1.345
78928CL-    CL-38189  20.668  11.625  12.558
78929CL-    CL-38190   2.918  36.028  11.045
78930CL-    CL-38191  41.417   8.370  10.957
78931CL-    CL-38192  30.630  40.042   0.866
78932CL-    CL-38193  15.582  40.940   9.987
78933CL-    CL-38194  25.693  29.621   4.688
78934CL-    CL-38195   4.340  11.713   1.767
78935CL-    CL-38196   9.782  39.341   4.731
78936CL-    CL-38197  40.037  13.644   3.634
78937CL-    CL-38198  32.493  44.388   3.342
78938CL-    CL-38199  11.293  24.648  13.337
78939CL-    CL-38200  27.019  21.541   4.621
78940CL-    CL-38201  11.337  35.454   4.833
78941CL-    CL-38202   6.909   6.298   1.417
78942CL-    CL-38203  25.662  42.876   0.325
78943CL-    CL-38204  27.190   7.196   3.170
78944CL-    CL-38205  42.396  25.621   0.954
78945CL-    CL-38206  19.554  17.265   5.205
78946CL-    CL-38207  14.806  30.021   4.247
78947CL-    CL-38208  27.673  39.059  12.064
78948CL-    CL-38209  42.856  14.689  14.837
78949CL-    CL-38210  33.034   6.849  14.813
78950CL-    CL-38211   1.827  35.358  11.050
78951CL-    CL-38212  19.182  44.415   1.303
78952CL-    CL-38213  18.229  34.546   4.219
78953CL-    CL-38214  10.839  26.664  10.502
78954CL-    CL-38215  35.965  10.356  14.011
78955CL-    CL-38216  25.594  36.959   2.382
78956CL-    CL-38217  11.655  16.272  10.011
78957CL-    CL-38218   3.871  42.517  14.774
78958CL-    CL-38219  35.038  26.476   2.295
78959CL-    CL-38220  23.176  13.324   0.453
78960CL-    CL-38221   1.793  14.717  13.460
78961CL-    CL-38222  31.949  30.927   3.170
78962CL-    CL-38223  14.620   6.402   2.724
78963CL-    CL-38224   9.713  18.165   1.431
78964CL-    CL-38225  21.622  16.177   1.282
78965CL-    CL-38226   8.233  42.410   2.266
78966CL-    CL-38227  23.053  20.034  14.403
78967CL-    CL-38228   5.215  25.202   4.307
78968CL-    CL-38229   3.406  32.632   2.871
78969CL-    CL-38230  42.863   0.772  14.347
78970CL-    CL-38231  38.390  41.526  12.398
78971CL-    CL-38232  21.173  13.327   5.305
78972CL-    CL-38233   0.382   9.196   1.236
78973CL-    CL-38234  27.451  27.446   3.846
78974CL-    CL-38235  32.432   9.391  12.040
78975CL-    CL-38236  19.691  13.209  11.477
78976CL-    CL-38237  11.339  18.783  11.517
78977CL-    CL-38238  38.499   4.307   3.797
78978CL-    CL-38239   3.744  22.100  11.522
78979CL-    CL-38240  29.588  13.242  11.486
78980CL-    CL-38241  35.960  44.822   3.851
78981CL-    CL-38242  41.025  31.132  14.301
78982CL-    CL-38243   0.809  42.032  12.986
78983CL-    CL-38244  11.257   2.289  12.518
78984CL-    CL-38245  34.553  33.495   0.478
78985CL-    CL-38246  35.931   5.721  11.890
78986CL-    CL-38247  36.047  21.591  12.392
78987CL-    CL-38248   8.655   4.867  12.895
78988CL-    CL-38249  13.687  34.480   1.757
78989CL-    CL-38250   4.431  39.809   0.838
78990CL-    CL-38251  22.112  13.163   3.303
78991CL-    CL-38252  41.472  10.382   1.436
78992CL-    CL-38253  28.073   8.691   2.710
78993CL-    CL-38254  15.744  23.600   1.427
78994CL-    CL-38255   3.361  10.224  11.571
78995CL-    CL-38256  21.187  28.091   2.371
78996CL-    CL-38257  35.380   2.257   1.792
78997CL-    CL-38258  22.199  27.070  13.480
78998CL-    CL-38259   5.800  44.895   3.754
78999CL-    CL-38260  18.151  31.517   4.165
79000CL-    CL-38261  12.834  28.543  12.352
79001CL-    CL-38262  13.736  14.782  14.489
79002CL-    CL-38263  35.436  27.445  11.020
79003CL-    CL-38264  21.144  22.064   2.383
79004CL-    CL-38265  22.539  44.503  13.010
79005CL-    CL-38266  35.495  29.039  12.541
79006CL-    CL-38267  41.828  42.946   0.825
79007CL-    CL-38268  31.918  18.087  10.154
79008CL-    CL-38269  36.931  42.444   4.804
79009CL-    CL-38270  29.496  37.355   2.368
79010CL-    CL-38271  31.605  12.837   1.861
79011CL-    CL-38272  25.066   5.797  12.369
79012CL-    CL-38273  23.510  41.309   2.190
79013CL-    CL-38274  34.951  16.130   4.677
79014CL-    CL-38275  31.467  22.193  11.408
79015CL-    CL-38276  24.644   0.279   2.674
79016CL-    CL-38277  18.212  25.655  14.281
79017CL-    CL-38278   3.750  34.025   3.784
79018CL-    CL-38279  28.998  43.918   4.166
79019CL-    CL-38280  13.315  22.639   4.243
79020CL-    CL-38281  35.012  35.918   2.418
79021CL-    CL-38282  20.088  28.501  11.979
79022CL-    CL-38283  20.240  33.017  14.326
79023CL-    CL-38284  30.645  12.699   0.760
79024CL-    CL-38285  44.419  37.470  13.446
79025CL-    CL-38286  41.957  31.020   3.332
79026CL-    CL-38287  20.681  33.956   1.781
79027CL-    CL-38288  11.787   0.823   3.692
79028CL-    CL-38289  19.230   7.812   1.849
79029CL-    CL-38290  16.194  39.816   3.215
79030CL-    CL-38291  22.740  26.684   1.899
79031CL-    CL-38292  29.669  38.855  12.445
79032CL-    CL-38293  22.248   3.939  10.510
79033CL-    CL-38294   8.678   9.262  14.334
79034CL-    CL-38295  14.664  22.016   4.821
79035CL-    CL-38296  18.209  39.015   2.823
79036CL-    CL-38297   1.352  34.565   0.361
79037CL-    CL-38298  36.406  28.983  12.845
79038CL-    CL-38299  32.029  16.644   0.464
79039CL-    CL-38300  25.521  34.412  13.483
79040CL-    CL-38301   5.705  22.237  14.797
79041CL-    CL-38302   3.459  28.074   1.899
79042CL-    CL-38303  42.297   4.204  14.867
79043CL-    CL-38304  41.015  15.654   3.684
79044CL-    CL-38305  34.915   0.296  14.298
79045CL-    CL-38306  33.517  20.190   3.794
79046CL-    CL-38307  44.979  34.396   2.724
79047CL-    CL-38308  28.628  11.728  12.540
79048CL-    CL-38309  26.965  33.896   0.439
79049CL-    CL-38310  10.716   2.815  14.382
79050CL-    CL-38311  17.281  37.950   4.178
79051CL-    CL-38312  43.331  28.620  12.526
79052CL-    CL-38313  28.587  18.635  10.495
79053CL-    CL-38314  26.665  41.293   1.336
79054CL-    CL-38315  14.665  14.807  11.520
79055CL-    CL-38316  38.530  15.188  10.510
79056CL-    CL-38317  13.306   8.216   3.348
79057CL-    CL-38318   0.762  28.953  13.479
79058CL-    CL-38319  16.605   5.397   0.288
79059CL-    CL-38320  31.555  39.922  11.056
79060CL-    CL-38321   1.238  36.505  12.545
79061CL-    CL-38322  15.785  11.732   4.628
79062CL-    CL-38323   2.794  43.860   4.215
79063CL-    CL-38324   4.703  33.439  11.372
79064CL-    CL-38325  21.153  11.772  13.366
79065CL-    CL-38326  29.524  22.531   3.190
79066CL-    CL-38327  21.204  12.191  10.558
79067CL-    CL-38328  21.741  12.152   0.375
79068CL-    CL-38329  28.645  42.509   2.860
79069CL-    CL-38330   6.367  43.005  13.524
79070CL-    CL-38331  11.356  36.006  11.026
79071CL-    CL-38332   0.896  18.127   4.159
79072CL-    CL-38333   2.798  17.253   2.291
79073CL-    CL-38334  10.177   0.916  14.466
79074CL-    CL-38335  35.423  21.658  13.806
79075CL-    CL-38336  29.533  28.931   3.704
79076CL-    CL-38337  12.256   5.345  10.908
79077CL-    CL-38338  12.767   7.772   3.827
79078CL-    CL-38339  31.066  26.699  12.851
79079CL-    CL-38340  28.139  36.077  13.374
79080CL-    CL-38341  18.063  44.489  11.537
79081CL-    CL-38342  18.784  18.659  10.566
79082CL-    CL-38343  35.949   3.410   3.367
79083CL-    CL-38344  31.146  43.782   3.364
79084CL-    CL-38345   3.271  15.807  10.421
79085CL-    CL-38346  35.512  37.533   1.245
79086CL-    CL-38347  41.501  36.393  13.354
79087CL-    CL-38348  14.158  34.063  14.335
79088CL-    CL-38349  26.951   1.962   2.785
79089CL-    CL-38350  30.659  15.084  13.446
79090CL-    CL-38351  28.986  44.278   2.386
79091CL-    CL-38352  23.704  23.125   5.274
79092CL-    CL-38353  26.532   1.318  13.508
79093CL-    CL-38354  34.478  41.494  14.839
79094CL-    CL-38355  44.310  35.912  11.995
79095CL-    CL-38356  18.181  19.172  14.337
79096CL-    CL-38357  39.884  43.328   1.800
79097CL-    CL-38358  31.103  26.123  14.960
79098CL-    CL-38359   8.720   9.779   1.237
79099CL-    CL-38360  37.448  21.514  13.510
79100CL-    CL-38361  24.719  33.072  13.316
79101CL-    CL-38362  25.666   1.816  14.952
79102CL-    CL-38363  11.630  26.016  11.508
79103CL-    CL-38364  41.865   2.806  14.839
79104CL-    CL-38365  41.888  38.987   3.711
79105CL-    CL-38366  44.311   3.389   5.134
79106CL-    CL-38367  18.072  43.894   4.833
79107CL-    CL-38368  39.036  22.225   3.209
79108CL-    CL-38369  31.536  23.045  13.984
79109CL-    CL-38370  20.146  13.178  11.128
79110CL-    CL-38371  31.041  21.075   2.231
79111CL-    CL-38372  36.583  33.017  10.113
79112CL-    CL-38373   8.834  31.028  12.426
79113CL-    CL-38374  43.795  15.787   0.316
79114CL-    CL-38375  36.447  11.231   5.117
79115CL-    CL-38376  11.721  20.636   4.641
79116CL-    CL-38377   4.414  28.170   0.886
79117CL-    CL-38378   3.924  22.193   2.676
79118CL-    CL-38379  35.995   1.877  10.409
79119CL-    CL-38380  10.757  35.526  11.097
79120CL-    CL-38381  30.457   6.892   3.382
79121CL-    CL-38382  11.804  20.586  13.435
79122CL-    CL-38383  34.605  20.037   3.703
79123CL-    CL-38384  37.432  27.659  10.066
79124CL-    CL-38385  22.572  43.961  11.496
79125CL-    CL-38386   8.816  34.498  11.561
79126CL-    CL-38387   0.351  39.469   1.804
79127CL-    CL-38388   7.183  34.438   1.866
79128CL-    CL-38389  41.481   8.187   3.319
79129CL-    CL-38390   6.186  17.224  10.565
79130CL-    CL-38391  29.467   9.188  13.490
79131CL-    CL-38392   0.865  18.607  12.578
79132CL-    CL-38393  19.159  10.248   3.370
79133CL-    CL-38394  29.977  28.068   3.842
79134CL-    CL-38395   5.436  20.044   4.221
79135CL-    CL-38396  37.408  38.533  14.278
79136CL-    CL-38397  28.601   5.757  11.534
79137CL-    CL-38398  33.013  43.466   3.657
79138CL-    CL-38399   5.701   8.745   0.353
79139CL-    CL-38400  28.662  24.219  12.474
79140CL-    CL-38401   4.892  36.543  10.630
79141CL-    CL-38402  44.416  22.118   2.688
79142CL-    CL-38403  27.687  15.321   4.815
79143CL-    CL-38404   7.206  34.547   0.956
79144CL-    CL-38405  42.331  33.578   9.562
79145CL-    CL-38406  36.095  27.476   4.726
79146CL-    CL-38407  38.394   5.299  10.957
79147CL-    CL-38408  22.633  23.568   0.360
79148CL-    CL-38409  12.699  11.665   0.847
79149CL-    CL-38410  44.963  31.465  14.873
79150CL-    CL-38411  13.651  23.712   3.772
79151CL-    CL-38412  33.468   9.817   2.897
79152CL-    CL-38413  34.419  27.940   2.288
79153CL-    CL-38414  33.093  33.443  12.559
79154CL-    CL-38415  22.733  29.429   0.950
79155CL-    CL-38416   8.815  36.961   4.642
79156CL-    CL-38417  19.269  10.788  13.315
79157CL-    CL-38418  27.642   6.321  13.307
79158CL-    CL-38419  36.589  16.755  11.502
79159CL-    CL-38420  27.972   5.915  10.517
79160CL-    CL-38421  39.919  10.355   2.351
79161CL-    CL-38422  41.993  19.144   0.794
79162CL-    CL-38423   1.825   6.840  14.283
79163CL-    CL-38424  15.760  38.407  10.949
79164CL-    CL-38425   0.743   3.790  10.905
79165CL-    CL-38426  33.598  25.577  10.141
79166CL-    CL-38427   6.764  34.905   4.686
79167CL-    CL-38428  10.365  24.631  13.458
79168CL-    CL-38429  37.837  37.896   4.222
79169CL-    CL-38430  24.221  34.593  11.881
79170CL-    CL-38431  34.589  40.474  13.832
79171CL-    CL-38432   8.350  13.785  11.128
79172CL-    CL-38433  41.482  16.631  12.440
79173CL-    CL-38434  23.083  43.335   2.351
79174CL-    CL-38435  21.654  19.649  12.516
79175CL-    CL-38436  24.108  10.270  13.052
79176CL-    CL-38437  14.593  17.611  12.907
79177CL-    CL-38438  33.397  37.401   3.749
79178CL-    CL-38439  22.673  41.538   3.758
79179CL-    CL-38440  34.545  30.970   2.770
79180CL-    CL-38441   9.298  30.048  10.504
79181CL-    CL-38442  24.516  22.010   2.747
79182CL-    CL-38443  31.479  19.536   1.420
79183CL-    CL-38444  30.619   4.719  10.540
79184CL-    CL-38445  13.214   9.648  10.614
79185CL-    CL-38446  19.690  10.177  10.491
79186CL-    CL-38447  16.585  19.102   3.864
79187CL-    CL-38448  25.055  17.234  11.025
79188CL-    CL-38449   1.383  32.613   4.716
79189CL-    CL-38450  20.585   8.675   2.336
79190CL-    CL-38451   4.407  38.826   1.413
79191CL-    CL-38452  18.546  13.784   0.253
79192CL-    CL-38453  30.135  14.705   2.789
79193CL-    CL-38454  36.008  35.538  10.965
79194CL-    CL-38455   1.918  26.673  11.936
79195CL-    CL-38456   2.752  36.059   4.636
79196CL-    CL-38457   7.874   4.333  12.465
79197CL-    CL-38458  28.677  32.137   0.408
79198CL-    CL-38459  26.173  42.440  12.043
79199CL-    CL-38460  36.382  35.905  13.914
79200CL-    CL-38461   8.298  10.302   1.222
79201CL-    CL-38462  16.791  13.815  11.507
79202CL-    CL-38463  34.469   9.872   4.211
79203CL-    CL-38464  18.622   5.756   2.189
79204CL-    CL-38465  16.757  42.423  11.913
79205CL-    CL-38466  35.926  38.387   2.819
79206CL-    CL-38467  12.624   3.890  13.814
79207CL-    CL-38468   1.387   2.814  14.795
79208CL-    CL-38469  40.003  29.102   0.856
79209CL-    CL-38470  29.429  29.437   1.288
79210CL-    CL-38471  26.099  41.982  14.804
79211CL-    CL-38472   1.375   9.871   0.874
79212CL-    CL-38473  38.061  14.691  14.438
79213CL-    CL-38474  37.041  32.560   3.227
79214CL-    CL-38475  44.470  33.554   2.337
79215CL-    CL-38476  22.093  17.607  12.475
79216CL-    CL-38477  17.214  20.600  12.515
79217CL-    CL-38478   8.259   3.858   4.176
79218CL-    CL-38479  16.206  28.053   2.896
79219CL-    CL-38480   8.209   5.885  14.456
79220CL-    CL-38481  27.487  35.532  13.817
79221CL-    CL-38482  35.042  31.017   4.115
79222CL-    CL-38483  12.648   1.808  12.446
79223CL-    CL-38484  40.527   7.722   5.302
79224CL-    CL-38485  38.545  30.004   4.115
79225CL-    CL-38486   8.307  34.576  13.958
79226CL-    CL-38487  22.687  27.585  13.364
79227CL-    CL-38488  19.564  13.651   2.854
79228CL-    CL-38489  12.127  35.408  13.881
79229CL-    CL-38490  14.614  12.681   2.187
79230CL-    CL-38491  38.516   9.752  14.403
79231CL-    CL-38492  32.459  39.833   0.282
79232CL-    CL-38493  21.686  28.179  14.879
79233CL-    CL-38494  31.058  16.797   1.868
79234CL-    CL-38495  32.621  37.082   1.913
79235CL-    CL-38496  20.051  38.565  12.052
79236CL-    CL-38497   8.881  44.875  13.867
79237CL-    CL-38498  17.749  27.118   4.181
79238CL-    CL-38499   6.908  30.472  12.554
79239CL-    CL-38500  37.439  37.043  13.828
79240CL-    CL-38501  38.548  44.486  14.394
79241CL-    CL-38502  14.729  18.657  14.473
79242CL-    CL-38503  19.685   4.821   0.906
79243CL-    CL-38504  10.725  38.327   2.218
79244CL-    CL-38505  26.179  21.254   4.835
79245CL-    CL-38506   3.928  23.664   3.212
79246CL-    CL-38507  35.098  43.384  13.909
79247CL-    CL-38508   9.888  40.948   2.322
79248CL-    CL-38509   4.849   7.332  12.035
79249CL-    CL-38510  17.276  27.642  13.038
79250CL-    CL-38511  19.646   3.856   4.774
79251CL-    CL-38512  17.726  38.971  11.380
79252CL-    CL-38513  38.026  37.084  14.431
79253CL-    CL-38514  23.673   5.802   1.241
79254CL-    CL-38515  16.587  27.455  10.525
79255CL-    CL-38516  27.010  44.890  13.014
79256CL-    CL-38517  19.146   5.399   1.287
79257CL-    CL-38518  17.108  36.459  14.509
79258CL-    CL-38519  37.578  11.322   4.786
79259CL-    CL-38520  25.096   3.231   1.256
79260CL-    CL-38521  38.877   2.805  12.549
79261CL-    CL-38522  11.735  18.180   3.150
79262CL-    CL-38523  12.797  21.661   0.432
79263CL-    CL-38524  23.692  28.471  11.092
79264CL-    CL-38525  37.436  21.045   1.715
79265CL-    CL-38526  33.578  39.835   4.291
79266CL-    CL-38527  41.293  34.600  13.529
79267CL-    CL-38528  44.356  11.811  11.034
79268CL-    CL-38529  28.662  13.221   0.844
79269CL-    CL-38530   7.227  28.662   4.724
79270CL-    CL-38531  33.130  23.522  14.416
79271CL-    CL-38532   1.310   1.413   1.216
79272CL-    CL-38533  19.091  12.618   0.760
79273CL-    CL-38534  44.925  36.458  10.924
79274CL-    CL-38535  23.709  18.051  13.868
79275CL-    CL-38536  41.305  14.596  12.035
79276CL-    CL-38537  34.583  17.121   1.229
79277CL-    CL-38538   0.958   8.787  13.538
79278CL-    CL-38539  33.460  38.559   5.165
79279CL-    CL-38540  41.451  31.061   0.805
79280CL-    CL-38541  36.358  16.143  13.922
79281CL-    CL-38542   5.293   0.387  12.370
79282CL-    CL-38543  44.892  19.554  14.993
79283CL-    CL-38544   3.853  31.637  13.378
79284CL-    CL-38545   4.706  32.079   3.747
79285CL-    CL-38546  20.116  39.027   2.201
79286CL-    CL-38547  14.166   2.720  12.978
79287CL-    CL-38548   4.809  33.426  11.004
79288CL-    CL-38549  41.019  40.335   0.403
79289CL-    CL-38550  32.997  13.648   2.757
79290CL-    CL-38551  16.774  10.365   0.953
79291CL-    CL-38552  21.019  33.972   0.962
79292CL-    CL-38553  11.325  32.073   1.387
79293CL-    CL-38554   1.866  14.290   0.310
79294CL-    CL-38555  30.972   4.223   1.359
79295CL-    CL-38556  10.178   1.776  12.530
79296CL-    CL-38557  32.468  15.722   4.712
79297CL-    CL-38558  43.904   8.321  14.514
79298CL-    CL-38559  24.147   9.742   2.271
79299CL-    CL-38560  15.740  32.909  14.438
79300CL-    CL-38561  20.217   1.922  14.477
79301CL-    CL-38562   0.969  24.176   0.817
79302CL-    CL-38563   5.408  18.057   3.338
79303CL-    CL-38564  18.171  40.505  11.036
79304CL-    CL-38565  22.177  21.540   0.824
79305CL-    CL-38566   5.907  40.451   1.395
79306CL-    CL-38567  33.959  12.770  13.949
79307CL-    CL-38568  38.457   0.355   2.257
79308CL-    CL-38569   1.740  34.043   4.349
79309CL-    CL-38570  15.148  14.162  14.445
79310CL-    CL-38571   6.869  34.986  14.477
79311CL-    CL-38572   6.735  39.322   2.832
79312CL-    CL-38573   4.731  16.149   4.221
79313CL-    CL-38574   6.784  20.228  10.521
79314CL-    CL-38575  36.965   5.201  14.446
79315CL-    CL-38576  38.864  32.457   2.222
79316CL-    CL-38577  22.030  17.299   2.399
79317CL-    CL-38578  10.364  44.006   3.721
79318CL-    CL-38579  12.215   0.369  12.349
79319CL-    CL-38580   8.690  25.089  13.943
79320CL-    CL-38581  37.939   7.902   4.655
79321CL-    CL-38582   2.343  21.222   3.789
79322CL-    CL-38583  31.062  41.815   2.783
79323CL-    CL-38584  40.943  36.975   1.420
79324CL-    CL-38585  40.861  13.346  10.914
79325CL-    CL-38586   0.796  34.882  14.285
79326CL-    CL-38587  14.689  30.638  14.431
79327CL-    CL-38588  44.963   5.714  14.937
79328CL-    CL-38589  39.882   7.229  12.360
79329CL-    CL-38590  14.769  39.026   4.338
79330CL-    CL-38591  23.573  19.146   2.836
79331CL-    CL-38592  44.995  38.482  13.851
79332CL-    CL-38593  19.671  22.134  14.961
79333CL-    CL-38594   8.356  43.899  12.451
79334CL-    CL-38595  44.434  33.601   3.700
79335CL-    CL-38596   8.341  32.937   4.772
79336CL-    CL-38597  44.288  29.574  11.560
79337CL-    CL-38598  17.132  39.868  10.921
79338CL-    CL-38599  19.646  18.640  13.910
79339CL-    CL-38600  36.916  31.119  14.960
79340CL-    CL-38601   2.399   3.325  10.103
79341CL-    CL-38602   7.909  12.744   0.242
79342CL-    CL-38603  21.064  36.927  14.467
79343CL-    CL-38604  18.784   3.327  14.429
79344CL-    CL-38605  40.341  23.609  10.912
79345CL-    CL-38606   3.352   0.463   0.804
79346CL-    CL-38607  42.848  37.410   1.793
79347CL-    CL-38608  22.741  39.038   1.400
79348CL-    CL-38609  30.043  28.569  11.469
79349CL-    CL-38610  36.941  42.866  12.049
79350CL-    CL-38611   4.265  41.787  10.954
79351CL-    CL-38612   7.280   7.668  14.355
79352CL-    CL-38613  32.543  42.313   4.774
79353CL-    CL-38614  16.710   3.803   4.811
79354CL-    CL-38615   7.234  19.710   2.366
79355CL-    CL-38616   7.852  26.981  11.452
79356CL-    CL-38617  34.376  35.515   1.310
79357CL-    CL-38618  44.975  19.607  12.535
79358CL-    CL-38619  39.920  40.875  13.953
79359CL-    CL-38620   2.873   9.882   0.960
79360CL-    CL-38621  17.736  24.649  13.006
79361CL-    CL-38622   3.442  17.598   0.915
79362CL-    CL-38623  23.101  11.849   3.705
79363CL-    CL-38624  32.127  15.188   0.840
79364CL-    CL-38625  12.747  29.054   2.826
79365CL-    CL-38626   5.308  38.355  10.998
79366CL-    CL-38627  27.161  41.849  10.539
79367CL-    CL-38628  25.641  30.924  11.447
79368CL-    CL-38629  41.505  21.620   0.263
79369CL-    CL-38630  27.951   3.428   3.358
79370CL-    CL-38631  35.865   4.232  12.959
79371CL-    CL-38632  29.626  19.712   0.954
79372CL-    CL-38633   7.894  21.724  11.090
79373CL-    CL-38634  21.634  27.129   1.349
79374CL-    CL-38635  16.580  25.963   0.913
79375CL-    CL-38636  22.239   3.444  10.476
79376CL-    CL-38637  38.931  31.518  12.837
79377CL-    CL-38638  39.019  18.780   2.221
79378CL-    CL-38639  39.341  22.683  10.562
79379CL-    CL-38640  40.814  11.671  14.302
79380CL-    CL-38641   9.678  20.154  11.115
79381CL-    CL-38642   7.267  36.873  13.422
79382CL-    CL-38643   9.354  10.751  13.352
79383CL-    CL-38644  36.967  41.960  14.862
79384CL-    CL-38645  33.917   4.920  11.478
79385CL-    CL-38646  34.979   6.399   0.447
79386CL-    CL-38647   6.912  36.490  11.052
79387CL-    CL-38648   4.869  34.405  13.879
79388CL-    CL-38649   1.884  15.662  12.569
79389CL-    CL-38650   5.401  18.091   5.308
79390CL-    CL-38651  22.727  36.854   4.692
79391CL-    CL-38652  20.122  11.129  13.371
79392CL-    CL-38653  11.628   7.781  12.425
79393CL-    CL-38654  15.706  32.600  14.436
79394CL-    CL-38655   8.733  33.520   1.864
79395CL-    CL-38656   6.821   9.727   4.725
79396CL-    CL-38657  38.487  37.919  12.092
79397CL-    CL-38658  13.117  18.582   0.244
79398CL-    CL-38659  17.570  23.110  14.965
79399CL-    CL-38660  23.031  36.059   2.850
79400CL-    CL-38661   5.759  30.447  12.922
79401CL-    CL-38662  13.792  25.135   3.813
79402CL-    CL-38663  20.644   4.269   4.827
79403CL-    CL-38664  37.885  18.163  11.095
79404CL-    CL-38665  39.505  19.727  12.824
79405CL-    CL-38666  36.990  36.069   1.880
79406CL-    CL-38667  26.955   1.928   3.219
79407CL-    CL-38668  19.710  13.291  12.473
79408CL-    CL-38669  40.890  39.445  13.478
79409CL-    CL-38670  12.668  31.912  11.974
79410CL-    CL-38671   7.796  14.738  12.835
79411CL-    CL-38672   5.349   8.277   1.444
79412CL-    CL-38673  41.939  18.568  14.478
79413CL-    CL-38674  19.697  21.758   3.730
79414CL-    CL-38675  39.341   2.311  13.336
79415CL-    CL-38676  21.043  17.740  14.314
79416CL-    CL-38677   9.357   8.295  12.996
79417CL-    CL-38678  43.418  10.806   4.286
79418CL-    CL-38679   1.437  11.793   2.214
79419CL-    CL-38680  33.541   7.895   3.225
79420CL-    CL-38681   1.320  16.589   2.205
79421CL-    CL-38682  43.442  40.054  10.588
79422CL-    CL-38683  27.484  22.157   4.340
79423CL-    CL-38684  44.978  32.500  11.985
79424CL-    CL-38685  11.772  15.737  14.502
79425CL-    CL-38686   6.774  33.093   3.327
79426CL-    CL-38687  22.596  42.428  13.547
79427CL-    CL-38688   5.201  11.301  12.859
79428CL-    CL-38689   4.383  11.843   3.701
79429CL-    CL-38690  37.566  42.799   0.948
79430CL-    CL-38691   6.819  25.102  13.879
79431CL-    CL-38692  21.203   3.340  14.770
79432CL-    CL-38693  15.259  37.382   2.862
79433CL-    CL-38694   2.788  36.509  12.001
79434CL-    CL-38695  19.542   1.262  10.893
79435CL-    CL-38696  31.968   3.849   0.873
79436CL-    CL-38697  32.120   0.481   2.417
79437CL-    CL-38698  42.977  19.164  10.429
79438CL-    CL-38699  39.405  30.928  12.540
79439CL-    CL-38700   3.952   0.903   2.855
79440CL-    CL-38701   3.245   9.717   1.305
79441CL-    CL-38702  17.230   1.871   2.325
79442CL-    CL-38703   1.853  17.634  11.545
79443CL-    CL-38704   6.811  15.802  10.502
79444CL-    CL-38705   1.276  22.648  14.369
79445CL-    CL-38706  34.036  13.239   2.345
79446CL-    CL-38707  10.687  33.057  12.074
79447CL-    CL-38708  14.105  34.898   0.959
79448CL-    CL-38709  17.228  23.601   3.220
79449CL-    CL-38710  43.960  11.826  13.816
79450CL-    CL-38711  32.111   3.360   1.820
79451CL-    CL-38712  12.273   5.763   2.752
79452CL-    CL-38713  41.820  12.821   0.358
79453CL-    CL-38714   0.917  12.652   0.956
79454CL-    CL-38715   8.777  33.512   4.159
79455CL-    CL-38716  33.468   1.435  13.473
79456CL-    CL-38717  15.660  20.228   3.184
79457CL-    CL-38718  22.672  42.026   3.317
79458CL-    CL-38719  19.556  12.670   2.893
79459CL-    CL-38720  20.091  11.140   3.204
79460CL-    CL-38721  28.644  43.009   3.822
79461CL-    CL-38722   5.417   4.333   3.693
79462CL-    CL-38723  13.743  42.362  14.875
79463CL-    CL-38724   8.866  41.976  12.993
79464CL-    CL-38725  42.007  32.027   5.284
79465CL-    CL-38726  16.139  34.926  10.982
79466CL-    CL-38727  34.001  28.126  12.532
79467CL-    CL-38728  22.677  21.690   3.146
79468CL-    CL-38729  33.936  12.755  11.988
79469CL-    CL-38730  12.143  26.021   3.758
79470CL-    CL-38731   3.770  32.430  13.455
79471CL-    CL-38732  21.720  37.971   2.746
79472CL-    CL-38733  35.095  39.842  12.975
79473CL-    CL-38734  31.082   7.290  14.017
79474CL-    CL-38735  39.535  11.828  11.611
79475CL-    CL-38736  29.632  11.760  14.938
79476CL-    CL-38737  44.879  29.108   3.756
79477CL-    CL-38738  44.306  23.038   0.931
79478CL-    CL-38739   8.392  19.769   0.458
79479CL-    CL-38740   2.335   0.293  12.493
79480CL-    CL-38741   2.732   8.893  13.913
79481CL-    CL-38742  27.640   3.309  11.612
79482CL-    CL-38743  11.828  16.152  12.063
79483CL-    CL-38744  29.557  21.753   0.293
79484CL-    CL-38745  15.129   0.420   3.172
79485CL-    CL-38746  35.852  35.040  14.988
79486CL-    CL-38747  27.025  35.912   2.219
79487CL-    CL-38748  13.640   2.261  12.490
79488CL-    CL-38749  34.464  24.556  12.440
79489CL-    CL-38750  14.214  15.148   1.917
79490CL-    CL-38751  23.098  10.186  12.506
79491CL-    CL-38752  24.015  42.825   4.615
79492CL-    CL-38753   8.863  44.845   4.722
79493CL-    CL-38754  27.079  37.895   3.795
79494CL-    CL-38755  33.084  38.407  13.026
79495CL-    CL-38756  25.044  43.349   0.356
79496CL-    CL-38757  12.722  17.089  10.901
79497CL-    CL-38758  23.213  17.269  13.985
79498CL-    CL-38759  40.316  14.153   3.305
79499CL-    CL-38760  39.912  20.738  12.982
79500CL-    CL-38761  37.337  13.146   3.257
79501CL-    CL-38762  25.526   8.709  12.391
79502CL-    CL-38763   1.331  12.760   2.665
79503CL-    CL-38764  20.644  10.357  12.867
79504CL-    CL-38765  28.094  37.400  10.890
79505CL-    CL-38766   1.828  39.977   4.733
79506CL-    CL-38767  28.675  29.447   4.625
79507CL-    CL-38768  41.031   4.888   2.389
79508CL-    CL-38769  25.157  40.390   2.748
79509CL-    CL-38770  12.319   7.810   5.116
79510CL-    CL-38771   6.337  32.932  10.430
79511CL-    CL-38772   7.737  28.453   4.661
79512CL-    CL-38773  31.503   6.230   4.350
79513CL-    CL-38774  38.072  35.578   0.291
79514CL-    CL-38775   1.932   3.810   0.303
79515CL-    CL-38776  18.194   3.796   2.848
79516CL-    CL-38777  37.943  41.448   0.306
79517CL-    CL-38778  22.247  43.294  13.860
79518CL-    CL-38779  24.676  23.652   0.757
79519CL-    CL-38780   8.219  39.329   0.338
79520CL-    CL-38781  31.425  43.508  12.092
79521CL-    CL-38782   5.400  22.509   2.301
79522CL-    CL-38783  22.012   6.417   3.695
79523CL-    CL-38784   2.739  43.468  10.571
79524CL-    CL-38785  30.601   6.719  11.584
79525CL-    CL-38786  37.918  22.567   2.378
79526CL-    CL-38787  29.074  44.993   2.356
79527CL-    CL-38788   6.919  36.351   4.786
79528CL-    CL-38789  20.201  19.090   3.693
79529CL-    CL-38790  13.649   5.837  13.384
79530CL-    CL-38791  40.415  16.697  10.939
79531CL-    CL-38792  11.704  11.751   0.924
79532CL-    CL-38793  39.000  13.137   0.945
79533CL-    CL-38794  15.814  31.579   1.392
79534CL-    CL-38795   2.896  43.335  11.583
79535CL-    CL-38796  14.312   9.234   0.815
79536CL-    CL-38797  32.414  40.912   2.767
79537CL-    CL-38798  26.103   9.268   4.294
79538CL-    CL-38799  22.732  11.289   3.387
79539CL-    CL-38800   2.322  22.636   1.831
79540CL-    CL-38801  10.760  33.557   2.881
79541CL-    CL-38802   7.195  14.215   4.699
79542CL-    CL-38803  19.141  11.825  11.403
79543CL-    CL-38804  29.618  34.061   5.740
79544CL-    CL-38805   0.257  21.734  12.498
79545CL-    CL-38806  41.356  40.009  10.956
79546CL-    CL-38807  27.004  34.416  12.358
79547CL-    CL-38808  24.500  27.950   3.173
79548CL-    CL-38809  30.123   6.711  14.297
79549CL-    CL-38810  30.115  18.062   4.314
79550CL-    CL-38811   7.783  13.201   0.334
79551CL-    CL-38812  30.420  31.492  14.875
79552CL-    CL-38813  33.623  38.480   2.360
79553CL-    CL-38814  19.675  14.766   2.730
79554CL-    CL-38815  36.364  15.310  14.825
79555CL-    CL-38816  15.105  43.417   1.743
79556CL-    CL-38817  22.999   4.427  14.014
79557CL-    CL-38818  31.989   6.325  14.847
79558CL-    CL-38819  11.136  24.030   3.813
79559CL-    CL-38820   7.801  43.916  11.602
79560CL-    CL-38821  38.363  11.338   4.174
79561CL-    CL-38822  30.971  10.645  10.069
79562CL-    CL-38823  35.989  10.781   3.864
79563CL-    CL-38824  37.499   5.738   2.681
79564CL-    CL-38825  23.132  43.339  12.992
79565CL-    CL-38826  16.679  42.514  14.311
79566CL-    CL-38827  17.776  14.333  10.516
79567CL-    CL-38828   6.184  41.859   1.716
79568CL-    CL-38829  32.543   7.329   0.895
79569CL-    CL-38830   0.484  10.139  14.859
79570CL-    CL-38831   2.741  12.294  14.308
79571CL-    CL-38832   8.385   1.776  11.976
79572CL-    CL-38833  31.591  20.759  14.501
79573CL-    CL-38834   1.439  43.819   4.825
79574CL-    CL-38835  11.633  24.517   2.202
79575CL-    CL-38836  20.556  15.779  10.917
79576CL-    CL-38837   8.274   2.345   0.848
79577CL-    CL-38838  28.569  13.656   1.348
79578CL-    CL-38839  13.805   1.454   3.192
79579CL-    CL-38840  10.218  42.439  12.094
79580CL-    CL-38841   6.860  26.158  11.999
79581CL-    CL-38842  24.166  39.980  13.849
79582CL-    CL-38843  42.454  25.583   4.694
79583CL-    CL-38844  17.238  11.719  12.076
79584CL-    CL-38845  28.098  13.234  12.429
79585CL-    CL-38846  10.864  17.285   1.349
79586CL-    CL-38847  33.385  39.825   5.287
79587CL-    CL-38848  13.690  26.602   0.815
79588CL-    CL-38849  25.711  20.574   0.952
79589CL-    CL-38850  31.550  36.566   2.769
79590CL-    CL-38851  11.670   7.345  13.026
79591CL-    CL-38852  41.405   4.212  11.962
79592CL-    CL-38853  18.171  43.014   0.839
79593CL-    CL-38854  44.897  39.494  10.560
79594CL-    CL-38855  13.753  27.649   3.222
79595CL-    CL-38856  37.842  44.275   0.762
79596CL-    CL-38857  39.534  23.678   3.205
79597CL-    CL-38858  17.229  27.140   2.283
79598CL-    CL-38859   6.320  13.652  13.855
79599CL-    CL-38860  18.191  10.713  11.024
79600CL-    CL-38861   6.867  18.064   0.766
79601CL-    CL-38862  21.662  15.790  11.997
79602CL-    CL-38863  32.458  37.833  14.024
79603CL-    CL-38864  30.452  40.948  13.989
79604CL-    CL-38865  31.980   8.894   3.238
79605CL-    CL-38866  14.817  25.603   1.828
79606CL-    CL-38867  44.780  20.709  11.901
79607CL-    CL-38868  32.999  10.372   5.214
79608CL-    CL-38869  16.628  14.319  11.010
79609CL-    CL-38870  34.524  28.074   3.324
79610CL-    CL-38871  37.055  40.970  11.941
79611CL-    CL-38872   6.388  37.366   2.770
79612CL-    CL-38873   7.904   9.276   2.793
79613CL-    CL-38874  44.884  29.152   1.220
79614CL-    CL-38875  30.024  11.846   2.217
79615CL-    CL-38876   4.936  35.443  14.288
79616CL-    CL-38877  10.778  40.044   2.701
79617CL-    CL-38878  44.504  16.610   4.773
79618CL-    CL-38879  35.560  24.532  14.486
79619CL-    CL-38880  42.886  31.989   0.256
79620CL-    CL-38881   0.816  39.907   2.675
79621CL-    CL-38882   5.725   2.383   4.176
79622CL-    CL-38883  37.081  37.975  13.453
79623CL-    CL-38884  42.802  26.151  10.922
79624CL-    CL-38885  42.480  33.408  11.087
79625CL-    CL-38886  11.758  11.306   2.739
79626CL-    CL-38887  33.015  40.042   3.750
79627CL-    CL-38888  32.004  13.274  12.888
79628CL-    CL-38889   0.931   9.752   1.883
79629CL-    CL-38890  37.580   5.890  12.548
79630CL-    CL-38891  19.645  41.294   3.219
79631CL-    CL-38892  15.303  41.376  11.383
79632CL-    CL-38893   0.336  11.351  12.919
79633CL-    CL-38894  29.146  13.791   2.300
79634CL-    CL-38895  12.692  33.575  10.966
79635CL-    CL-38896   1.407  25.047   4.637
79636CL-    CL-38897  28.638  13.687  11.504
79637CL-    CL-38898  44.451  43.348  12.364
79638CL-    CL-38899  33.055  15.660   0.460
79639CL-    CL-38900  28.516   7.894  13.534
79640CL-    CL-38901   3.325   9.361   0.248
79641CL-    CL-38902  29.666  44.352   5.163
79642CL-    CL-38903  16.631  43.338  11.033
79643CL-    CL-38904  37.914  24.001  12.833
79644CL-    CL-38905  43.845  23.592   3.214
79645CL-    CL-38906   7.854   5.805  11.435
79646CL-    CL-38907  27.956  35.026  10.135
79647CL-    CL-38908  29.655  11.327   4.150
79648CL-    CL-38909  16.077  11.229   3.746
79649CL-    CL-38910  16.806  39.054  11.906
79650CL-    CL-38911  31.518   9.377  12.924
79651CL-    CL-38912  32.117   7.276   9.984
79652CL-    CL-38913  21.134  25.037   5.309
79653CL-    CL-38914  23.677  14.151  11.418
79654CL-    CL-38915  28.492  43.462  12.888
79655CL-    CL-38916  24.201  37.986  10.499
79656CL-    CL-38917  13.784   0.258   0.938
79657CL-    CL-38918  44.773  21.645   3.792
79658CL-    CL-38919  40.981   0.453   2.839
79659CL-    CL-38920  11.859  10.373  14.490
79660CL-    CL-38921   4.208   6.185  13.833
79661CL-    CL-38922  30.983  18.730   2.713
79662CL-    CL-38923  19.584   1.747  10.633
79663CL-    CL-38924  42.972   7.210   2.418
79664CL-    CL-38925  28.637  16.602  12.943
79665CL-    CL-38926  18.129   9.194  13.905
79666CL-    CL-38927   8.879  33.453   3.752
79667CL-    CL-38928   7.306   3.905   4.750
79668CL-    CL-38929  43.389  17.676   3.735
79669CL-    CL-38930  23.097   5.265  11.017
79670CL-    CL-38931  20.200  19.086  14.779
79671CL-    CL-38932  37.952  13.844   4.765
79672CL-    CL-38933  21.593  11.174  14.448
79673CL-    CL-38934  18.152  13.320   4.692
79674CL-    CL-38935  40.412  35.039  14.824
79675CL-    CL-38936  36.023   7.323  10.476
79676CL-    CL-38937  25.109  10.208   2.272
79677CL-    CL-38938   3.937  35.928   0.309
79678CL-    CL-38939  25.209  38.943   0.914
79679CL-    CL-38940  25.079   5.229  12.534
79680CL-    CL-38941   8.250  24.531  10.463
79681CL-    CL-38942  18.566   4.781   3.361
79682CL-    CL-38943  36.445  27.545  14.864
79683CL-    CL-38944  28.492  11.840   0.371
79684CL-    CL-38945  22.078  29.057   4.258
79685CL-    CL-38946  23.681  30.009   0.893
79686CL-    CL-38947  41.980  20.723  13.502
79687CL-    CL-38948  38.461  24.197   2.233
79688CL-    CL-38949  22.093  13.234  12.095
79689CL-    CL-38950  21.591  15.236  11.486
79690CL-    CL-38951  13.316  33.382   0.798
79691CL-    CL-38952  25.519   8.257  10.541
79692CL-    CL-38953  39.895  24.029   4.271
79693CL-    CL-38954  31.403  36.573   3.243
79694CL-    CL-38955  19.050  22.521  14.424
79695CL-    CL-38956  32.074   9.883   2.264
79696CL-    CL-38957  30.653   7.297  11.577
79697CL-    CL-38958   3.346   2.423   4.672
79698CL-    CL-38959   6.742  31.096   1.853
79699CL-    CL-38960  17.634   9.828   3.632
79700CL-    CL-38961  21.131  32.958   1.272
79701CL-    CL-38962   6.304  36.473  10.434
79702CL-    CL-38963  29.054  33.874   1.384
79703CL-    CL-38964  43.402  21.531  10.991
79704CL-    CL-38965   5.388   7.831   3.841
79705CL-    CL-38966  10.687  19.159   4.198
79706CL-    CL-38967  11.226   1.325  11.394
79707CL-    CL-38968  41.409  35.386   2.348
79708CL-    CL-38969  10.856  41.336  13.382
79709CL-    CL-38970  14.098  20.069  11.990
79710CL-    CL-38971  11.249  37.883  14.005
79711CL-    CL-38972  24.193  24.120  13.948
79712CL-    CL-38973  13.796  27.453   0.452
79713CL-    CL-38974  25.485  11.709   0.820
79714CL-    CL-38975  38.525  26.107  11.890
79715CL-    CL-38976  36.474  31.424  11.555
79716CL-    CL-38977  16.631  29.567   2.408
79717CL-    CL-38978  34.416  29.662   0.826
79718CL-    CL-38979  35.950  36.858   3.859
79719CL-    CL-38980  32.998   7.894  13.852
79720CL-    CL-38981  20.603  33.469   1.362
79721CL-    CL-38982  23.586  28.056  11.978
79722CL-    CL-38983  42.351  43.386  12.971
79723CL-    CL-38984   4.803  42.515  14.795
79724CL-    CL-38985   5.231  39.334  12.897
79725CL-    CL-38986  17.222  22.649  14.016
79726CL-    CL-38987   8.697   0.315   3.280
79727CL-    CL-38988  43.500  44.441   4.642
79728CL-    CL-38989  25.107  24.090  13.805
79729CL-    CL-38990  10.149  31.957   4.734
79730CL-    CL-38991   8.693  34.975   4.746
79731CL-    CL-38992   1.254  24.644   0.834
79732CL-    CL-38993  15.739   7.328   0.401
79733CL-    CL-38994   5.803  14.267   2.278
79734CL-    CL-38995   7.887   0.799   3.868
79735CL-    CL-38996  39.972  34.056   5.186
79736CL-    CL-38997  25.591  30.952   3.800
79737CL-    CL-38998  13.187  30.043   2.838
79738CL-    CL-38999  19.059   0.490  14.931
79739CL-    CL-39000  42.525  37.043   0.434
79740CL-    CL-39001  21.739  28.607  13.483
79741CL-    CL-39002  12.287   8.214  10.634
79742CL-    CL-39003  20.708   7.296   0.383
79743CL-    CL-39004  18.261   7.677  13.959
79744CL-    CL-39005   8.370  25.545  11.530
79745CL-    CL-39006  16.171   3.812   3.200
79746CL-    CL-39007  33.993   7.230   1.923
79747CL-    CL-39008  39.380  36.845   3.699
79748CL-    CL-39009   0.900  10.255   3.699
79749CL-    CL-39010   4.318   6.354  12.365
79750CL-    CL-39011  38.459  30.421  12.442
79751CL-    CL-39012  13.198  21.175   9.953
79752CL-    CL-39013  41.484   1.283   1.406
79753CL-    CL-39014  34.025  32.891   1.429
79754CL-    CL-39015  19.704  28.938   0.727
79755CL-    CL-39016  23.079  35.950  11.964
79756CL-    CL-39017  22.065  43.851   0.959
79757CL-    CL-39018  39.507  16.263   4.627
79758CL-    CL-39019  30.956  43.503   2.395
79759CL-    CL-39020  17.786   9.265  11.381
79760CL-    CL-39021  44.924  33.953  11.857
79761CL-    CL-39022   9.822  20.117   0.838
79762CL-    CL-39023  21.735  40.011  11.016
79763CL-    CL-39024  28.660   2.451  11.435
79764CL-    CL-39025  34.948  27.076  10.478
79765CL-    CL-39026  27.653   3.280   1.725
79766CL-    CL-39027  11.792  16.186   2.859
79767CL-    CL-39028  20.178  15.725  12.906
79768CL-    CL-39029  40.826  26.992   4.695
79769CL-    CL-39030  35.980  40.411   2.876
79770CL-    CL-39031  35.442   5.838  12.573
  45.00000  45.00000  15.00000   0.00000   0.00000   0.00000   0.00000   0.00000   0.00000

